<event>
 4    1  0.1728870E-004  0.2822396E+03  0.7818608E-02  0.1094472E+00
         -2   -1    0    0    0  501 -0.00000000000E+00  0.00000000000E+00  0.29861123999E+02  0.29861123999E+02  0.00000000000E+00 0. -1.
          2   -1    0    0  501    0  0.00000000000E+00 -0.00000000000E+00 -0.66691407630E+03  0.66691407630E+03  0.00000000000E+00 0. -1.
         25    1    1    2    0    0  0.63821665474E+01  0.56208497723E+02 -0.19975289853E+03  0.23979438637E+03  0.12000000000E+03 0.  0.
         25    1    1    2    0    0 -0.63821665474E+01 -0.56208497723E+02 -0.43730005378E+03  0.45698081393E+03  0.12000000000E+03 0.  0.
<mgrwt>
<rscale>  0 0.28223964E+03</rscale>
<asrwt>0</asrwt>
<pdfrwt beam="1">  1        2 0.10260217E+00 0.28223964E+03</pdfrwt>
<pdfrwt beam="2">  1       -2 0.45940188E-02 0.28223964E+03</pdfrwt>
<totfact> 0.98820455E+03</totfact>
</mgrwt>
</event>
<event>
 4    1  0.1728870E-004  0.3030312E+03  0.7818608E-02  0.1083735E+00
         -2   -1    0    0    0  501 -0.00000000000E+00  0.00000000000E+00  0.27544728340E+02  0.27544728340E+02  0.00000000000E+00 0. -1.
          2   -1    0    0  501    0  0.00000000000E+00 -0.00000000000E+00 -0.83344335796E+03  0.83344335796E+03  0.00000000000E+00 0. -1.
         25    1    1    2    0    0 -0.30440255364E+02  0.53298518617E+02 -0.20631431529E+03  0.24644053629E+03  0.12000000000E+03 0.  0.
         25    1    1    2    0    0  0.30440255364E+02 -0.53298518617E+02 -0.59958431433E+03  0.61454755001E+03  0.12000000000E+03 0.  0.
<mgrwt>
<rscale>  0 0.30303116E+03</rscale>
<asrwt>0</asrwt>
<pdfrwt beam="1">  1        2 0.12822206E+00 0.30303116E+03</pdfrwt>
<pdfrwt beam="2">  1       -2 0.42376505E-02 0.30303116E+03</pdfrwt>
<totfact> 0.84792073E+03</totfact>
</mgrwt>
</event>
<event>
 4    1  0.1728870E-004  0.2649404E+03  0.7818608E-02  0.1104211E+00
         -1   -1    0    0    0  501 -0.00000000000E+00  0.00000000000E+00  0.43446950356E+03  0.43446950356E+03  0.00000000000E+00 0. -1.
          1   -1    0    0  501    0  0.00000000000E+00 -0.00000000000E+00 -0.40390286691E+02  0.40390286691E+02  0.00000000000E+00 0. -1.
         25    1    1    2    0    0 -0.23498920097E+02 -0.26946754606E+01  0.28823520218E+03  0.31311178882E+03  0.12000000000E+03 0.  0.
         25    1    1    2    0    0  0.23498920097E+02  0.26946754606E+01  0.10584401469E+03  0.16174800143E+03  0.12000000000E+03 0.  0.
<mgrwt>
<rscale>  0 0.26494035E+03</rscale>
<asrwt>0</asrwt>
<pdfrwt beam="1">  1        1 0.62138906E-02 0.26494035E+03</pdfrwt>
<pdfrwt beam="2">  1       -1 0.66841459E-01 0.26494035E+03</pdfrwt>
<totfact> 0.28824617E+03</totfact>
</mgrwt>
</event>
<event>
 4    1  0.1728870E-004  0.2714116E+03  0.7818608E-02  0.1100474E+00
          2   -1    0    0  501    0  0.00000000000E+00  0.00000000000E+00  0.11301777061E+04  0.11301777061E+04  0.00000000000E+00 0. -1.
         -2   -1    0    0    0  501 -0.00000000000E+00 -0.00000000000E+00 -0.16294840763E+02  0.16294840763E+02  0.00000000000E+00 0. -1.
         25    1    1    2    0    0 -0.40670451364E+02  0.47640887926E+02  0.59752938107E+03  0.61267046694E+03  0.12000000000E+03 0.  0.
         25    1    1    2    0    0  0.40670451364E+02 -0.47640887926E+02  0.51635348423E+03  0.53380207989E+03  0.12000000000E+03 0.  0.
<mgrwt>
<rscale>  0 0.27141161E+03</rscale>
<asrwt>0</asrwt>
<pdfrwt beam="1">  1        2 0.17387343E+00 0.27141161E+03</pdfrwt>
<pdfrwt beam="2">  1       -2 0.25068995E-02 0.27141161E+03</pdfrwt>
<totfact> 0.12109929E+04</totfact>
</mgrwt>
</event>
<event>
 4    1  0.1728870E-004  0.2859003E+03  0.7818608E-02  0.1092509E+00
          4   -1    0    0  501    0  0.00000000000E+00  0.00000000000E+00  0.10293134999E+03  0.10293134999E+03  0.00000000000E+00 0. -1.
         -4   -1    0    0    0  501 -0.00000000000E+00 -0.00000000000E+00 -0.19852783933E+03  0.19852783933E+03  0.00000000000E+00 0. -1.
         25    1    1    2    0    0 -0.49040158313E+02  0.34523964645E+01  0.15623941556E+02  0.13061762407E+03  0.12000000000E+03 0.  0.
         25    1    1    2    0    0  0.49040158313E+02 -0.34523964645E+01 -0.11122043089E+03  0.17084156525E+03  0.12000000000E+03 0.  0.
<mgrwt>
<rscale>  0 0.28590025E+03</rscale>
<asrwt>0</asrwt>
<pdfrwt beam="1">  1        4 0.15835592E-01 0.28590025E+03</pdfrwt>
<pdfrwt beam="2">  1       -4 0.30542744E-01 0.28590025E+03</pdfrwt>
<totfact> 0.66336955E+02</totfact>
</mgrwt>
</event>
<event>
 4    1  0.1728870E-004  0.2794579E+03  0.7818608E-02  0.1095985E+00
         -1   -1    0    0    0  501 -0.00000000000E+00  0.00000000000E+00  0.36065542939E+02  0.36065542939E+02  0.00000000000E+00 0. -1.
          1   -1    0    0  501    0  0.00000000000E+00 -0.00000000000E+00 -0.54135271083E+03  0.54135271083E+03  0.00000000000E+00 0. -1.
         25    1    1    2    0    0 -0.32954049310E+02 -0.27539895619E+02 -0.37097373804E+03  0.39225747861E+03  0.12000000000E+03 0.  0.
         25    1    1    2    0    0  0.32954049310E+02  0.27539895619E+02 -0.13431342986E+03  0.18516077516E+03  0.12000000000E+03 0.  0.
<mgrwt>
<rscale>  0 0.27945790E+03</rscale>
<asrwt>0</asrwt>
<pdfrwt beam="1">  1        1 0.83285030E-01 0.27945790E+03</pdfrwt>
<pdfrwt beam="2">  1       -1 0.55485452E-02 0.27945790E+03</pdfrwt>
<totfact> 0.60775973E+03</totfact>
</mgrwt>
</event>
<event>
 4    1  0.1728870E-004  0.2713215E+03  0.7818608E-02  0.1100526E+00
         -3   -1    0    0    0  501 -0.00000000000E+00  0.00000000000E+00  0.28056032254E+04  0.28056032254E+04  0.00000000000E+00 0. -1.
          3   -1    0    0  501    0  0.00000000000E+00 -0.00000000000E+00 -0.65596723909E+01  0.65596723909E+01  0.00000000000E+00 0. -1.
         25    1    1    2    0    0 -0.11111277098E+02 -0.62268039404E+02  0.13813649009E+04  0.13880092790E+04  0.12000000000E+03 0.  0.
         25    1    1    2    0    0  0.11111277098E+02  0.62268039404E+02  0.14176786521E+04  0.14241536188E+04  0.12000000000E+03 0.  0.
<mgrwt>
<rscale>  0 0.27132149E+03</rscale>
<asrwt>0</asrwt>
<pdfrwt beam="1">  1        3 0.10091826E-02 0.27132149E+03</pdfrwt>
<pdfrwt beam="2">  1       -3 0.43163031E+00 0.27132149E+03</pdfrwt>
<totfact> 0.59479235E+01</totfact>
</mgrwt>
</event>
<event>
 4    1  0.1728870E-004  0.2605347E+03  0.7818608E-02  0.1106822E+00
         -2   -1    0    0    0  501 -0.00000000000E+00  0.00000000000E+00  0.40729627713E+02  0.40729627713E+02  0.00000000000E+00 0. -1.
          2   -1    0    0  501    0  0.00000000000E+00 -0.00000000000E+00 -0.41663960787E+03  0.41663960787E+03  0.00000000000E+00 0. -1.
         25    1    1    2    0    0  0.38696401058E+02 -0.28166982743E+02 -0.15864357808E+03  0.20459368328E+03  0.12000000000E+03 0.  0.
         25    1    1    2    0    0 -0.38696401058E+02  0.28166982743E+02 -0.21726640207E+03  0.25277555230E+03  0.12000000000E+03 0.  0.
<mgrwt>
<rscale>  0 0.26053465E+03</rscale>
<asrwt>0</asrwt>
<pdfrwt beam="1">  1        2 0.64098399E-01 0.26053465E+03</pdfrwt>
<pdfrwt beam="2">  1       -2 0.62660968E-02 0.26053465E+03</pdfrwt>
<totfact> 0.10459794E+04</totfact>
</mgrwt>
</event>
<event>
 4    1  0.1728870E-004  0.3126390E+03  0.7818608E-02  0.1079088E+00
         -2   -1    0    0    0  501 -0.00000000000E+00  0.00000000000E+00  0.47402650947E+02  0.47402650947E+02  0.00000000000E+00 0. -1.
          2   -1    0    0  501    0  0.00000000000E+00 -0.00000000000E+00 -0.51549403548E+03  0.51549403548E+03  0.00000000000E+00 0. -1.
         25    1    1    2    0    0  0.30385393485E+02  0.95435257686E+02 -0.23017435713E+03  0.27822903376E+03  0.12000000000E+03 0.  0.
         25    1    1    2    0    0 -0.30385393485E+02 -0.95435257686E+02 -0.23791702740E+03  0.28466765267E+03  0.12000000000E+03 0.  0.
<mgrwt>
<rscale>  0 0.31263899E+03</rscale>
<asrwt>0</asrwt>
<pdfrwt beam="1">  1        2 0.79306773E-01 0.31263899E+03</pdfrwt>
<pdfrwt beam="2">  1       -2 0.72927157E-02 0.31263899E+03</pdfrwt>
<totfact> 0.65752493E+03</totfact>
</mgrwt>
</event>
<event>
 4    1  0.1728870E-004  0.2467410E+03  0.7818608E-02  0.1115382E+00
          1   -1    0    0  501    0  0.00000000000E+00  0.00000000000E+00  0.39488565963E+03  0.39488565963E+03  0.00000000000E+00 0.  1.
         -1   -1    0    0    0  501 -0.00000000000E+00 -0.00000000000E+00 -0.38543525933E+02  0.38543525933E+02  0.00000000000E+00 0.  1.
         25    1    1    2    0    0  0.15121516834E+02  0.40566935529E+01  0.22029940710E+03  0.25135024528E+03  0.12000000000E+03 0.  0.
         25    1    1    2    0    0 -0.15121516834E+02 -0.40566935529E+01  0.13604272660E+03  0.18207894028E+03  0.12000000000E+03 0.  0.
<mgrwt>
<rscale>  0 0.24674104E+03</rscale>
<asrwt>0</asrwt>
<pdfrwt beam="1">  1        1 0.60751637E-01 0.24674104E+03</pdfrwt>
<pdfrwt beam="2">  1       -1 0.59297735E-02 0.24674104E+03</pdfrwt>
<totfact> 0.82782723E+03</totfact>
</mgrwt>
</event>
<event>
 4    1  0.1728870E-004  0.2732447E+03  0.7818608E-02  0.1099437E+00
          1   -1    0    0  501    0  0.00000000000E+00  0.00000000000E+00  0.85410472773E+03  0.85410472773E+03  0.00000000000E+00 0. -1.
         -1   -1    0    0    0  501 -0.00000000000E+00 -0.00000000000E+00 -0.21854067285E+02  0.21854067285E+02  0.00000000000E+00 0. -1.
         25    1    1    2    0    0  0.34099405496E+02 -0.22230882481E+02  0.25238998682E+03  0.28241403477E+03  0.12000000000E+03 0.  0.
         25    1    1    2    0    0 -0.34099405496E+02  0.22230882481E+02  0.57986067362E+03  0.59354476024E+03  0.12000000000E+03 0.  0.
<mgrwt>
<rscale>  0 0.27324467E+03</rscale>
<asrwt>0</asrwt>
<pdfrwt beam="1">  1        1 0.13140070E+00 0.27324467E+03</pdfrwt>
<pdfrwt beam="2">  1       -1 0.33621649E-02 0.27324467E+03</pdfrwt>
<totfact> 0.66094412E+03</totfact>
</mgrwt>
</event>
<event>
 4    1  0.1728870E-004  0.2728963E+03  0.7818608E-02  0.1099633E+00
         -2   -1    0    0    0  501 -0.00000000000E+00  0.00000000000E+00  0.76660085518E+01  0.76660085518E+01  0.00000000000E+00 0.  1.
          2   -1    0    0  501    0  0.00000000000E+00 -0.00000000000E+00 -0.24286560112E+04  0.24286560112E+04  0.00000000000E+00 0.  1.
         25    1    1    2    0    0  0.24018947709E+01 -0.58909032144E+02 -0.96729981866E+03  0.97649627872E+03  0.12000000000E+03 0.  0.
         25    1    1    2    0    0 -0.24018947709E+01  0.58909032144E+02 -0.14536901840E+04  0.14598257410E+04  0.12000000000E+03 0.  0.
<mgrwt>
<rscale>  0 0.27289630E+03</rscale>
<asrwt>0</asrwt>
<pdfrwt beam="1">  1        2 0.37363952E+00 0.27289630E+03</pdfrwt>
<pdfrwt beam="2">  1       -2 0.11793855E-02 0.27289630E+03</pdfrwt>
<totfact> 0.73558423E+03</totfact>
</mgrwt>
</event>
<event>
 4    1  0.1728870E-004  0.2694348E+03  0.7818608E-02  0.1101604E+00
         -2   -1    0    0    0  501 -0.00000000000E+00  0.00000000000E+00  0.39197803935E+02  0.39197803935E+02  0.00000000000E+00 0. -1.
          2   -1    0    0  501    0  0.00000000000E+00 -0.00000000000E+00 -0.46300500170E+03  0.46300500170E+03  0.00000000000E+00 0. -1.
         25    1    1    2    0    0  0.12363654122E+02  0.59189674816E+02 -0.19397689867E+03  0.23597312298E+03  0.12000000000E+03 0.  0.
         25    1    1    2    0    0 -0.12363654122E+02 -0.59189674816E+02 -0.22983029909E+03  0.26622968265E+03  0.12000000000E+03 0.  0.
<mgrwt>
<rscale>  0 0.26943481E+03</rscale>
<asrwt>0</asrwt>
<pdfrwt beam="1">  1        2 0.71231542E-01 0.26943481E+03</pdfrwt>
<pdfrwt beam="2">  1       -2 0.60304311E-02 0.26943481E+03</pdfrwt>
<totfact> 0.98953692E+03</totfact>
</mgrwt>
</event>
<event>
 4    1  0.1728870E-004  0.3196057E+03  0.7818608E-02  0.1075831E+00
         -2   -1    0    0    0  501 -0.00000000000E+00  0.00000000000E+00  0.57497316424E+02  0.57497316424E+02  0.00000000000E+00 0. -1.
          2   -1    0    0  501    0  0.00000000000E+00 -0.00000000000E+00 -0.44414164695E+03  0.44414164695E+03  0.00000000000E+00 0. -1.
         25    1    1    2    0    0 -0.31754627055E+02  0.91419649445E+02 -0.12726933592E+03  0.19990846033E+03  0.12000000000E+03 0.  0.
         25    1    1    2    0    0  0.31754627055E+02 -0.91419649445E+02 -0.25937499461E+03  0.30173050305E+03  0.12000000000E+03 0.  0.
<mgrwt>
<rscale>  0 0.31960571E+03</rscale>
<asrwt>0</asrwt>
<pdfrwt beam="1">  1        2 0.68329483E-01 0.31960571E+03</pdfrwt>
<pdfrwt beam="2">  1       -2 0.88457411E-02 0.31960571E+03</pdfrwt>
<totfact> 0.57404569E+03</totfact>
</mgrwt>
</event>
<event>
 4    1  0.1728870E-004  0.3064930E+03  0.7818608E-02  0.1082039E+00
          2   -1    0    0  501    0  0.00000000000E+00  0.00000000000E+00  0.29252096908E+03  0.29252096908E+03  0.00000000000E+00 0.  1.
         -2   -1    0    0    0  501 -0.00000000000E+00 -0.00000000000E+00 -0.80283073179E+02  0.80283073179E+02  0.00000000000E+00 0.  1.
         25    1    1    2    0    0 -0.61915192001E+02 -0.66826644488E+02  0.72035167086E+02  0.16699807397E+03  0.12000000000E+03 0.  0.
         25    1    1    2    0    0  0.61915192001E+02  0.66826644488E+02  0.14020272881E+03  0.20580596828E+03  0.12000000000E+03 0.  0.
<mgrwt>
<rscale>  0 0.30649295E+03</rscale>
<asrwt>0</asrwt>
<pdfrwt beam="1">  1        2 0.45003225E-01 0.30649295E+03</pdfrwt>
<pdfrwt beam="2">  1       -2 0.12351242E-01 0.30649295E+03</pdfrwt>
<totfact> 0.52916826E+03</totfact>
</mgrwt>
</event>
<event>
 4    1  0.1728870E-004  0.2777244E+03  0.7818608E-02  0.1096938E+00
          2   -1    0    0  501    0  0.00000000000E+00  0.00000000000E+00  0.37706592631E+04  0.37706592631E+04  0.00000000000E+00 0. -1.
         -2   -1    0    0    0  501 -0.00000000000E+00 -0.00000000000E+00 -0.51138848068E+01  0.51138848068E+01  0.00000000000E+00 0. -1.
         25    1    1    2    0    0  0.12391145808E+02 -0.53244706633E+02  0.24744734918E+04  0.24779845845E+04  0.12000000000E+03 0.  0.
         25    1    1    2    0    0 -0.12391145808E+02  0.53244706633E+02  0.12910718865E+04  0.12977885634E+04  0.12000000000E+03 0.  0.
<mgrwt>
<rscale>  0 0.27772445E+03</rscale>
<asrwt>0</asrwt>
<pdfrwt beam="1">  1        2 0.58009920E+00 0.27772445E+03</pdfrwt>
<pdfrwt beam="2">  1       -2 0.78675452E-03 0.27772445E+03</pdfrwt>
<totfact> 0.19944992E+03</totfact>
</mgrwt>
</event>
<event>
 4    1  0.1728870E-004  0.2488924E+03  0.7818608E-02  0.1114007E+00
          2   -1    0    0  501    0  0.00000000000E+00  0.00000000000E+00  0.37432035052E+03  0.37432035052E+03  0.00000000000E+00 0. -1.
         -2   -1    0    0    0  501 -0.00000000000E+00 -0.00000000000E+00 -0.41373270023E+02  0.41373270023E+02  0.00000000000E+00 0. -1.
         25    1    1    2    0    0 -0.32636390288E+01 -0.16937983229E+02  0.21339652306E+03  0.24542946577E+03  0.12000000000E+03 0.  0.
         25    1    1    2    0    0  0.32636390288E+01  0.16937983229E+02  0.11955055743E+03  0.17026415476E+03  0.12000000000E+03 0.  0.
<mgrwt>
<rscale>  0 0.24889240E+03</rscale>
<asrwt>0</asrwt>
<pdfrwt beam="1">  1        2 0.57587744E-01 0.24889240E+03</pdfrwt>
<pdfrwt beam="2">  1       -2 0.63651187E-02 0.24889240E+03</pdfrwt>
<totfact> 0.11443958E+04</totfact>
</mgrwt>
</event>
<event>
 4    1  0.1728870E-004  0.3098855E+03  0.7818608E-02  0.1080401E+00
         -1   -1    0    0    0  501 -0.00000000000E+00  0.00000000000E+00  0.22466901644E+02  0.22466901644E+02  0.00000000000E+00 0.  1.
          1   -1    0    0  501    0  0.00000000000E+00 -0.00000000000E+00 -0.10685611660E+04  0.10685611660E+04  0.00000000000E+00 0.  1.
         25    1    1    2    0    0  0.87543098982E+02  0.72725950784E+01 -0.67613171655E+03  0.69229385592E+03  0.12000000000E+03 0.  0.
         25    1    1    2    0    0 -0.87543098982E+02 -0.72725950784E+01 -0.36996254777E+03  0.39873421169E+03  0.12000000000E+03 0.  0.
<mgrwt>
<rscale>  0 0.30988552E+03</rscale>
<asrwt>0</asrwt>
<pdfrwt beam="1">  1        1 0.16439399E+00 0.30988552E+03</pdfrwt>
<pdfrwt beam="2">  1       -1 0.34564472E-02 0.30988552E+03</pdfrwt>
<totfact> 0.43568221E+03</totfact>
</mgrwt>
</event>
<event>
 4    1  0.1728870E-004  0.3813182E+03  0.7818608E-02  0.1050448E+00
          2   -1    0    0  501    0  0.00000000000E+00  0.00000000000E+00  0.97642049679E+03  0.97642049679E+03  0.00000000000E+00 0.  1.
         -2   -1    0    0    0  501 -0.00000000000E+00 -0.00000000000E+00 -0.37228725848E+02  0.37228725848E+02  0.00000000000E+00 0.  1.
         25    1    1    2    0    0 -0.38102480098E+02  0.14280388804E+03  0.44220898437E+03  0.48144941093E+03  0.12000000000E+03 0.  0.
         25    1    1    2    0    0  0.38102480098E+02 -0.14280388804E+03  0.49698278657E+03  0.53219981170E+03  0.12000000000E+03 0.  0.
<mgrwt>
<rscale>  0 0.38131819E+03</rscale>
<asrwt>0</asrwt>
<pdfrwt beam="1">  1        2 0.15021852E+00 0.38131819E+03</pdfrwt>
<pdfrwt beam="2">  1       -2 0.57274970E-02 0.38131819E+03</pdfrwt>
<totfact> 0.43370146E+03</totfact>
</mgrwt>
</event>
<event>
 4    1  0.1728870E-004  0.3243208E+03  0.7818608E-02  0.1073678E+00
          2   -1    0    0  501    0  0.00000000000E+00  0.00000000000E+00  0.17908992058E+03  0.17908992058E+03  0.00000000000E+00 0. -1.
         -2   -1    0    0    0  501 -0.00000000000E+00 -0.00000000000E+00 -0.14683122683E+03  0.14683122683E+03  0.00000000000E+00 0. -1.
         25    1    1    2    0    0  0.67935265139E+02 -0.78920843901E+02  0.48728482085E+02  0.16618713794E+03  0.12000000000E+03 0.  0.
         25    1    1    2    0    0 -0.67935265139E+02  0.78920843901E+02 -0.16469788331E+02  0.15973400946E+03  0.12000000000E+03 0.  0.
<mgrwt>
<rscale>  0 0.32432078E+03</rscale>
<asrwt>0</asrwt>
<pdfrwt beam="1">  1        2 0.27552295E-01 0.32432078E+03</pdfrwt>
<pdfrwt beam="2">  1       -2 0.22589420E-01 0.32432078E+03</pdfrwt>
<totfact> 0.32837581E+03</totfact>
</mgrwt>
</event>
<event>
 4    1  0.1728870E-004  0.4137169E+03  0.7818608E-02  0.1039131E+00
         -2   -1    0    0    0  501 -0.00000000000E+00  0.00000000000E+00  0.31645964889E+03  0.31645964889E+03  0.00000000000E+00 0.  1.
          2   -1    0    0  501    0  0.00000000000E+00 -0.00000000000E+00 -0.13521600729E+03  0.13521600729E+03  0.00000000000E+00 0.  1.
         25    1    1    2    0    0 -0.12878183692E+03  0.66498182835E+02  0.18443389338E+03  0.26348174675E+03  0.12000000000E+03 0.  0.
         25    1    1    2    0    0  0.12878183692E+03 -0.66498182835E+02 -0.31902517733E+01  0.18819390943E+03  0.12000000000E+03 0.  0.
<mgrwt>
<rscale>  0 0.41371686E+03</rscale>
<asrwt>0</asrwt>
<pdfrwt beam="1">  1        2 0.20802463E-01 0.41371686E+03</pdfrwt>
<pdfrwt beam="2">  1       -2 0.48686099E-01 0.41371686E+03</pdfrwt>
<totfact> 0.10829544E+03</totfact>
</mgrwt>
</event>
<event>
 4    1  0.1728870E-004  0.2695686E+03  0.7818608E-02  0.1101527E+00
         -2   -1    0    0    0  501 -0.00000000000E+00  0.00000000000E+00  0.58012139070E+02  0.58012139070E+02  0.00000000000E+00 0.  1.
          2   -1    0    0  501    0  0.00000000000E+00 -0.00000000000E+00 -0.31315520220E+03  0.31315520220E+03  0.00000000000E+00 0.  1.
         25    1    1    2    0    0 -0.35658892846E+01  0.51100136867E+02 -0.81023887679E+02  0.15358649006E+03  0.12000000000E+03 0.  0.
         25    1    1    2    0    0  0.35658892846E+01 -0.51100136867E+02 -0.17411917545E+03  0.21758085121E+03  0.12000000000E+03 0.  0.
<mgrwt>
<rscale>  0 0.26956857E+03</rscale>
<asrwt>0</asrwt>
<pdfrwt beam="1">  1        2 0.48177724E-01 0.26956857E+03</pdfrwt>
<pdfrwt beam="2">  1       -2 0.89249443E-02 0.26956857E+03</pdfrwt>
<totfact> 0.82285126E+03</totfact>
</mgrwt>
</event>
<event>
 4    1  0.1728870E-004  0.3080242E+03  0.7818608E-02  0.1081297E+00
          2   -1    0    0  501    0  0.00000000000E+00  0.00000000000E+00  0.15880899583E+04  0.15880899583E+04  0.00000000000E+00 0.  1.
         -2   -1    0    0    0  501 -0.00000000000E+00 -0.00000000000E+00 -0.14936011620E+02  0.14936011620E+02  0.00000000000E+00 0.  1.
         25    1    1    2    0    0 -0.59993065731E+02  0.75520159769E+02  0.76495119538E+03  0.78029019844E+03  0.12000000000E+03 0.  0.
         25    1    1    2    0    0  0.59993065731E+02 -0.75520159769E+02  0.80820275134E+03  0.82273577152E+03  0.12000000000E+03 0.  0.
<mgrwt>
<rscale>  0 0.30802422E+03</rscale>
<asrwt>0</asrwt>
<pdfrwt beam="1">  1        2 0.24432140E+00 0.30802422E+03</pdfrwt>
<pdfrwt beam="2">  1       -2 0.22978492E-02 0.30802422E+03</pdfrwt>
<totfact> 0.77244796E+03</totfact>
</mgrwt>
</event>
<event>
 4    1  0.1728870E-004  0.5811496E+03  0.7818608E-02  0.9945305E-01
         -1   -1    0    0    0  501 -0.00000000000E+00  0.00000000000E+00  0.19255373766E+03  0.19255373766E+03  0.00000000000E+00 0. -1.
          1   -1    0    0  501    0  0.00000000000E+00 -0.00000000000E+00 -0.43849421643E+03  0.43849421643E+03  0.00000000000E+00 0. -1.
         25    1    1    2    0    0  0.14802242129E+03  0.17517620115E+03  0.20414321383E+02  0.25964222147E+03  0.12000000000E+03 0.  0.
         25    1    1    2    0    0 -0.14802242129E+03 -0.17517620115E+03 -0.26635480016E+03  0.37140573262E+03  0.12000000000E+03 0.  0.
<mgrwt>
<rscale>  0 0.58114955E+03</rscale>
<asrwt>0</asrwt>
<pdfrwt beam="1">  1        1 0.67460648E-01 0.58114955E+03</pdfrwt>
<pdfrwt beam="2">  1       -1 0.29623652E-01 0.58114955E+03</pdfrwt>
<totfact> 0.55865371E+02</totfact>
</mgrwt>
</event>
<event>
 4    1  0.1728870E-004  0.3295322E+03  0.7818608E-02  0.1071344E+00
          4   -1    0    0  501    0  0.00000000000E+00  0.00000000000E+00  0.10830144552E+04  0.10830144552E+04  0.00000000000E+00 0. -1.
         -4   -1    0    0    0  501 -0.00000000000E+00 -0.00000000000E+00 -0.25066942171E+02  0.25066942171E+02  0.00000000000E+00 0. -1.
         25    1    1    2    0    0  0.59842910693E+02 -0.75323202272E+02  0.72771110585E+03  0.74378640236E+03  0.12000000000E+03 0.  0.
         25    1    1    2    0    0 -0.59842910693E+02  0.75323202272E+02  0.33023640716E+03  0.36429499499E+03  0.12000000000E+03 0.  0.
<mgrwt>
<rscale>  0 0.32953216E+03</rscale>
<asrwt>0</asrwt>
<pdfrwt beam="1">  1        4 0.16661757E+00 0.32953216E+03</pdfrwt>
<pdfrwt beam="2">  1       -4 0.38564535E-02 0.32953216E+03</pdfrwt>
<totfact> 0.16508392E+02</totfact>
</mgrwt>
</event>
<event>
 4    1  0.1728870E-004  0.2709228E+03  0.7818608E-02  0.1100753E+00
          1   -1    0    0  501    0  0.00000000000E+00  0.00000000000E+00  0.10848616591E+04  0.10848616591E+04  0.00000000000E+00 0. -1.
         -1   -1    0    0    0  501 -0.00000000000E+00 -0.00000000000E+00 -0.16914410918E+02  0.16914410918E+02  0.00000000000E+00 0. -1.
         25    1    1    2    0    0 -0.21249467562E+02 -0.58471291237E+02  0.49774433392E+03  0.51577112532E+03  0.12000000000E+03 0.  0.
         25    1    1    2    0    0  0.21249467562E+02  0.58471291237E+02  0.57020291426E+03  0.58600494469E+03  0.12000000000E+03 0.  0.
<mgrwt>
<rscale>  0 0.27092284E+03</rscale>
<asrwt>0</asrwt>
<pdfrwt beam="1">  1        1 0.16690174E+00 0.27092284E+03</pdfrwt>
<pdfrwt beam="2">  1       -1 0.26022179E-02 0.27092284E+03</pdfrwt>
<totfact> 0.64360231E+03</totfact>
</mgrwt>
</event>
<event>
 4    1  0.1728870E-004  0.2780455E+03  0.7818608E-02  0.1096761E+00
          1   -1    0    0  501    0  0.00000000000E+00  0.00000000000E+00  0.15593542391E+03  0.15593542391E+03  0.00000000000E+00 0.  1.
         -1   -1    0    0    0  501 -0.00000000000E+00 -0.00000000000E+00 -0.12394442294E+03  0.12394442294E+03  0.00000000000E+00 0.  1.
         25    1    1    2    0    0 -0.62788032917E+02 -0.31384472184E+02  0.16058852026E+02  0.13994716467E+03  0.12000000000E+03 0.  0.
         25    1    1    2    0    0  0.62788032917E+02  0.31384472184E+02  0.15932148951E+02  0.13993268218E+03  0.12000000000E+03 0.  0.
<mgrwt>
<rscale>  0 0.27804551E+03</rscale>
<asrwt>0</asrwt>
<pdfrwt beam="1">  1        1 0.23990065E-01 0.27804551E+03</pdfrwt>
<pdfrwt beam="2">  1       -1 0.19068373E-01 0.27804551E+03</pdfrwt>
<totfact> 0.43730160E+03</totfact>
</mgrwt>
</event>
<event>
 4    1  0.1728870E-004  0.2433963E+03  0.7818608E-02  0.1117551E+00
          2   -1    0    0  501    0  0.00000000000E+00  0.00000000000E+00  0.52289549580E+03  0.52289549580E+03  0.00000000000E+00 0. -1.
         -2   -1    0    0    0  501 -0.00000000000E+00 -0.00000000000E+00 -0.28323902709E+02  0.28323902709E+02  0.00000000000E+00 0. -1.
         25    1    1    2    0    0 -0.66435314703E+00 -0.62850574282E+01  0.20369414345E+03  0.23649788030E+03  0.12000000000E+03 0.  0.
         25    1    1    2    0    0  0.66435314703E+00  0.62850574282E+01  0.29087744965E+03  0.31472151821E+03  0.12000000000E+03 0.  0.
<mgrwt>
<rscale>  0 0.24339631E+03</rscale>
<asrwt>0</asrwt>
<pdfrwt beam="1">  1        2 0.80445454E-01 0.24339631E+03</pdfrwt>
<pdfrwt beam="2">  1       -2 0.43575239E-02 0.24339631E+03</pdfrwt>
<totfact> 0.14094578E+04</totfact>
</mgrwt>
</event>
<event>
 4    1  0.1728870E-004  0.2824338E+03  0.7818608E-02  0.1094367E+00
          2   -1    0    0  501    0  0.00000000000E+00  0.00000000000E+00  0.96946604284E+03  0.96946604284E+03  0.00000000000E+00 0. -1.
         -2   -1    0    0    0  501 -0.00000000000E+00 -0.00000000000E+00 -0.20570307473E+02  0.20570307473E+02  0.00000000000E+00 0. -1.
         25    1    1    2    0    0 -0.15485852961E+02 -0.65554847854E+01  0.72866436620E+03  0.73867079582E+03  0.12000000000E+03 0.  0.
         25    1    1    2    0    0  0.15485852961E+02  0.65554847854E+01  0.22023136917E+03  0.25136555450E+03  0.12000000000E+03 0.  0.
<mgrwt>
<rscale>  0 0.28243381E+03</rscale>
<asrwt>0</asrwt>
<pdfrwt beam="1">  1        2 0.14914859E+00 0.28243381E+03</pdfrwt>
<pdfrwt beam="2">  1       -2 0.31646634E-02 0.28243381E+03</pdfrwt>
<totfact> 0.10709563E+04</totfact>
</mgrwt>
</event>
<event>
 4    1  0.1728870E-004  0.3354749E+03  0.7818608E-02  0.1068740E+00
         -2   -1    0    0    0  501 -0.00000000000E+00  0.00000000000E+00  0.28252285414E+02  0.28252285414E+02  0.00000000000E+00 0. -1.
          2   -1    0    0  501    0  0.00000000000E+00 -0.00000000000E+00 -0.99587858686E+03  0.99587858686E+03  0.00000000000E+00 0. -1.
         25    1    1    2    0    0 -0.74793585790E+02  0.85145769489E+02 -0.57498673391E+03  0.59820868157E+03  0.12000000000E+03 0.  0.
         25    1    1    2    0    0  0.74793585790E+02 -0.85145769489E+02 -0.39263956754E+03  0.42592219071E+03  0.12000000000E+03 0.  0.
<mgrwt>
<rscale>  0 0.33547486E+03</rscale>
<asrwt>0</asrwt>
<pdfrwt beam="1">  1        2 0.15321209E+00 0.33547486E+03</pdfrwt>
<pdfrwt beam="2">  1       -2 0.43465055E-02 0.33547486E+03</pdfrwt>
<totfact> 0.64231888E+03</totfact>
</mgrwt>
</event>
<event>
 4    1  0.1728870E-004  0.4279965E+03  0.7818608E-02  0.1034495E+00
         -2   -1    0    0    0  501 -0.00000000000E+00  0.00000000000E+00  0.73531451879E+02  0.73531451879E+02  0.00000000000E+00 0.  1.
          2   -1    0    0  501    0  0.00000000000E+00 -0.00000000000E+00 -0.62279824083E+03  0.62279824083E+03  0.00000000000E+00 0.  1.
         25    1    1    2    0    0 -0.14635982256E+03 -0.47934900892E+02 -0.41717800872E+03  0.46060443261E+03  0.12000000000E+03 0.  0.
         25    1    1    2    0    0  0.14635982256E+03  0.47934900892E+02 -0.13208878022E+03  0.23572526009E+03  0.12000000000E+03 0.  0.
<mgrwt>
<rscale>  0 0.42799654E+03</rscale>
<asrwt>0</asrwt>
<pdfrwt beam="1">  1        2 0.95815112E-01 0.42799654E+03</pdfrwt>
<pdfrwt beam="2">  1       -2 0.11312531E-01 0.42799654E+03</pdfrwt>
<totfact> 0.26420169E+03</totfact>
</mgrwt>
</event>
<event>
 4    1  0.1728870E-004  0.2546567E+03  0.7818608E-02  0.1110397E+00
          2   -1    0    0  501    0  0.00000000000E+00  0.00000000000E+00  0.12528623436E+04  0.12528623436E+04  0.00000000000E+00 0.  1.
         -2   -1    0    0    0  501 -0.00000000000E+00 -0.00000000000E+00 -0.12940371819E+02  0.12940371819E+02  0.00000000000E+00 0.  1.
         25    1    1    2    0    0  0.17805334031E+01 -0.42936107555E+01  0.40960903734E+03  0.42685028859E+03  0.12000000000E+03 0.  0.
         25    1    1    2    0    0 -0.17805334031E+01  0.42936107555E+01  0.83031293440E+03  0.83895242680E+03  0.12000000000E+03 0.  0.
<mgrwt>
<rscale>  0 0.25465667E+03</rscale>
<asrwt>0</asrwt>
<pdfrwt beam="1">  1        2 0.19274796E+00 0.25465667E+03</pdfrwt>
<pdfrwt beam="2">  1       -2 0.19908274E-02 0.25465667E+03</pdfrwt>
<totfact> 0.14454372E+04</totfact>
</mgrwt>
</event>
<event>
 4    1  0.1728870E-004  0.2508242E+03  0.7818608E-02  0.1112785E+00
         -1   -1    0    0    0  501 -0.00000000000E+00  0.00000000000E+00  0.60410873320E+01  0.60410873320E+01  0.00000000000E+00 0.  1.
          1   -1    0    0  501    0  0.00000000000E+00 -0.00000000000E+00 -0.26035380402E+04  0.26035380402E+04  0.00000000000E+00 0.  1.
         25    1    1    2    0    0 -0.26639248408E+02  0.15862134678E+02 -0.14980454627E+04  0.15031638185E+04  0.12000000000E+03 0.  0.
         25    1    1    2    0    0  0.26639248408E+02 -0.15862134678E+02 -0.10994514902E+04  0.11064153091E+04  0.12000000000E+03 0.  0.
<mgrwt>
<rscale>  0 0.25082425E+03</rscale>
<asrwt>0</asrwt>
<pdfrwt beam="1">  1        1 0.40054336E+00 0.25082425E+03</pdfrwt>
<pdfrwt beam="2">  1       -1 0.92940026E-03 0.25082425E+03</pdfrwt>
<totfact> 0.28307075E+03</totfact>
</mgrwt>
</event>
<event>
 4    1  0.1728870E-004  0.7335055E+03  0.7818608E-02  0.9661589E-01
          2   -1    0    0  501    0  0.00000000000E+00  0.00000000000E+00  0.27681674205E+03  0.27681674205E+03  0.00000000000E+00 0.  1.
         -2   -1    0    0    0  501 -0.00000000000E+00 -0.00000000000E+00 -0.48590845475E+03  0.48590845475E+03  0.00000000000E+00 0.  1.
         25    1    1    2    0    0 -0.37477389627E+02 -0.23336869746E+03  0.15901112823E+03  0.30911169921E+03  0.12000000000E+03 0.  0.
         25    1    1    2    0    0  0.37477389627E+02  0.23336869746E+03 -0.36810284094E+03  0.45361349759E+03  0.12000000000E+03 0.  0.
<mgrwt>
<rscale>  0 0.73350554E+03</rscale>
<asrwt>0</asrwt>
<pdfrwt beam="1">  1        2 0.42587191E-01 0.73350554E+03</pdfrwt>
<pdfrwt beam="2">  1       -2 0.74755147E-01 0.73350554E+03</pdfrwt>
<totfact> 0.19497412E+02</totfact>
</mgrwt>
</event>
<event>
 4    1  0.1728870E-004  0.3429495E+03  0.7818608E-02  0.1065547E+00
          2   -1    0    0  501    0  0.00000000000E+00  0.00000000000E+00  0.83301769041E+03  0.83301769041E+03  0.00000000000E+00 0.  1.
         -2   -1    0    0    0  501 -0.00000000000E+00 -0.00000000000E+00 -0.35297680801E+02  0.35297680801E+02  0.00000000000E+00 0.  1.
         25    1    1    2    0    0  0.50161472279E+02  0.48467741451E+02  0.14392480379E+03  0.19994910454E+03  0.12000000000E+03 0.  0.
         25    1    1    2    0    0 -0.50161472279E+02 -0.48467741451E+02  0.65379520582E+03  0.66836626667E+03  0.12000000000E+03 0.  0.
<mgrwt>
<rscale>  0 0.34294952E+03</rscale>
<asrwt>0</asrwt>
<pdfrwt beam="1">  1        2 0.12815655E+00 0.34294952E+03</pdfrwt>
<pdfrwt beam="2">  1       -2 0.54304131E-02 0.34294952E+03</pdfrwt>
<totfact> 0.58316021E+03</totfact>
</mgrwt>
</event>
<event>
 4    1  0.1728870E-004  0.2855651E+03  0.7818608E-02  0.1092688E+00
         -2   -1    0    0    0  501 -0.00000000000E+00  0.00000000000E+00  0.28722066398E+03  0.28722066398E+03  0.00000000000E+00 0.  1.
          2   -1    0    0  501    0  0.00000000000E+00 -0.00000000000E+00 -0.70979757674E+02  0.70979757674E+02  0.00000000000E+00 0.  1.
         25    1    1    2    0    0  0.54404101648E+02 -0.30438532427E+01  0.39213203143E+02  0.13750180588E+03  0.12000000000E+03 0.  0.
         25    1    1    2    0    0 -0.54404101648E+02  0.30438532427E+01  0.17702770316E+03  0.22069861577E+03  0.12000000000E+03 0.  0.
<mgrwt>
<rscale>  0 0.28556508E+03</rscale>
<asrwt>0</asrwt>
<pdfrwt beam="1">  1        2 0.10919963E-01 0.28556508E+03</pdfrwt>
<pdfrwt beam="2">  1       -2 0.44187794E-01 0.28556508E+03</pdfrwt>
<totfact> 0.28125524E+03</totfact>
</mgrwt>
</event>
<event>
 4    1  0.1728870E-004  0.2777883E+03  0.7818608E-02  0.1096903E+00
          2   -1    0    0  501    0  0.00000000000E+00  0.00000000000E+00  0.16615427388E+03  0.16615427388E+03  0.00000000000E+00 0. -1.
         -2   -1    0    0    0  501 -0.00000000000E+00 -0.00000000000E+00 -0.11610642828E+03  0.11610642828E+03  0.00000000000E+00 0. -1.
         25    1    1    2    0    0 -0.26977648444E+01 -0.25617227032E+02 -0.41046494802E+02  0.12941535841E+03  0.12000000000E+03 0.  0.
         25    1    1    2    0    0  0.26977648444E+01  0.25617227032E+02  0.91094340397E+02  0.15284534376E+03  0.12000000000E+03 0.  0.
<mgrwt>
<rscale>  0 0.27778826E+03</rscale>
<asrwt>0</asrwt>
<pdfrwt beam="1">  1        2 0.25562196E-01 0.27778826E+03</pdfrwt>
<pdfrwt beam="2">  1       -2 0.17862527E-01 0.27778826E+03</pdfrwt>
<totfact> 0.53167149E+03</totfact>
</mgrwt>
</event>
<event>
 4    1  0.1728870E-004  0.3362076E+03  0.7818608E-02  0.1068423E+00
         -3   -1    0    0    0  501 -0.00000000000E+00  0.00000000000E+00  0.91724344083E+02  0.91724344083E+02  0.00000000000E+00 0.  1.
          3   -1    0    0  501    0  0.00000000000E+00 -0.00000000000E+00 -0.30808492013E+03  0.30808492013E+03  0.00000000000E+00 0.  1.
         25    1    1    2    0    0 -0.68823621827E+02  0.53530763758E+02 -0.20224275959E+03  0.25080743090E+03  0.12000000000E+03 0.  0.
         25    1    1    2    0    0  0.68823621827E+02 -0.53530763758E+02 -0.14117816464E+02  0.14900183332E+03  0.12000000000E+03 0.  0.
<mgrwt>
<rscale>  0 0.33620760E+03</rscale>
<asrwt>0</asrwt>
<pdfrwt beam="1">  1        3 0.47397680E-01 0.33620760E+03</pdfrwt>
<pdfrwt beam="2">  1       -3 0.14111437E-01 0.33620760E+03</pdfrwt>
<totfact> 0.47391261E+02</totfact>
</mgrwt>
</event>
<event>
 4    1  0.1728870E-004  0.2861996E+03  0.7818608E-02  0.1092350E+00
         -2   -1    0    0    0  501 -0.00000000000E+00  0.00000000000E+00  0.10189451516E+03  0.10189451516E+03  0.00000000000E+00 0. -1.
          2   -1    0    0  501    0  0.00000000000E+00 -0.00000000000E+00 -0.20096819845E+03  0.20096819845E+03  0.00000000000E+00 0. -1.
         25    1    1    2    0    0  0.41356965990E+02 -0.54864412169E+02 -0.10553826142E+02  0.13867907414E+03  0.12000000000E+03 0.  0.
         25    1    1    2    0    0 -0.41356965990E+02  0.54864412169E+02 -0.88519857155E+02  0.16418363947E+03  0.12000000000E+03 0.  0.
<mgrwt>
<rscale>  0 0.28619963E+03</rscale>
<asrwt>0</asrwt>
<pdfrwt beam="1">  1        2 0.30918184E-01 0.28619963E+03</pdfrwt>
<pdfrwt beam="2">  1       -2 0.15676079E-01 0.28619963E+03</pdfrwt>
<totfact> 0.53661808E+03</totfact>
</mgrwt>
</event>
<event>
 4    1  0.1728870E-004  0.2579180E+03  0.7818608E-02  0.1108401E+00
         -1   -1    0    0    0  501 -0.00000000000E+00  0.00000000000E+00  0.61838452036E+02  0.61838452036E+02  0.00000000000E+00 0.  1.
          1   -1    0    0  501    0  0.00000000000E+00 -0.00000000000E+00 -0.26893334329E+03  0.26893334329E+03  0.00000000000E+00 0.  1.
         25    1    1    2    0    0  0.36114005647E+02  0.39737377280E+01 -0.64851517138E+02  0.14115853240E+03  0.12000000000E+03 0.  0.
         25    1    1    2    0    0 -0.36114005647E+02 -0.39737377280E+01 -0.14224337411E+03  0.18961326292E+03  0.12000000000E+03 0.  0.
<mgrwt>
<rscale>  0 0.25791798E+03</rscale>
<asrwt>0</asrwt>
<pdfrwt beam="1">  1        1 0.41374360E-01 0.25791798E+03</pdfrwt>
<pdfrwt beam="2">  1       -1 0.95136080E-02 0.25791798E+03</pdfrwt>
<totfact> 0.65597968E+03</totfact>
</mgrwt>
</event>
<event>
 4    1  0.1728870E-004  0.2731243E+03  0.7818608E-02  0.1099505E+00
          2   -1    0    0  501    0  0.00000000000E+00  0.00000000000E+00  0.13288147436E+03  0.13288147436E+03  0.00000000000E+00 0.  1.
         -2   -1    0    0    0  501 -0.00000000000E+00 -0.00000000000E+00 -0.14034472785E+03  0.14034472785E+03  0.00000000000E+00 0.  1.
         25    1    1    2    0    0 -0.20793433276E+02 -0.57602081083E+02  0.18611609907E+02  0.13600278907E+03  0.12000000000E+03 0.  0.
         25    1    1    2    0    0  0.20793433276E+02  0.57602081083E+02 -0.26074863402E+02  0.13722341314E+03  0.12000000000E+03 0.  0.
<mgrwt>
<rscale>  0 0.27312425E+03</rscale>
<asrwt>0</asrwt>
<pdfrwt beam="1">  1        2 0.20443304E-01 0.27312425E+03</pdfrwt>
<pdfrwt beam="2">  1       -2 0.21591497E-01 0.27312425E+03</pdfrwt>
<totfact> 0.49471883E+03</totfact>
</mgrwt>
</event>
<event>
 4    1  0.1728870E-004  0.2590730E+03  0.7818608E-02  0.1107701E+00
         -2   -1    0    0    0  501 -0.00000000000E+00  0.00000000000E+00  0.27239781767E+02  0.27239781767E+02  0.00000000000E+00 0. -1.
          2   -1    0    0  501    0  0.00000000000E+00 -0.00000000000E+00 -0.61600006743E+03  0.61600006743E+03  0.00000000000E+00 0. -1.
         25    1    1    2    0    0 -0.46363778808E+02 -0.68772591224E+01 -0.32795016218E+03  0.35234671214E+03  0.12000000000E+03 0.  0.
         25    1    1    2    0    0  0.46363778808E+02  0.68772591224E+01 -0.26081012348E+03  0.29089313706E+03  0.12000000000E+03 0.  0.
<mgrwt>
<rscale>  0 0.25907302E+03</rscale>
<asrwt>0</asrwt>
<pdfrwt beam="1">  1        2 0.94769246E-01 0.25907302E+03</pdfrwt>
<pdfrwt beam="2">  1       -2 0.41907354E-02 0.25907302E+03</pdfrwt>
<totfact> 0.12428216E+04</totfact>
</mgrwt>
</event>
<event>
 4    1  0.1728870E-004  0.8285453E+03  0.7818608E-02  0.9519594E-01
         -4   -1    0    0    0  501 -0.00000000000E+00  0.00000000000E+00  0.62152535716E+02  0.62152535716E+02  0.00000000000E+00 0.  1.
          4   -1    0    0  501    0  0.00000000000E+00 -0.00000000000E+00 -0.27613003738E+04  0.27613003738E+04  0.00000000000E+00 0.  1.
         25    1    1    2    0    0  0.96982813962E+02 -0.29899595137E+03 -0.52593651009E+03  0.62435042868E+03  0.12000000000E+03 0.  0.
         25    1    1    2    0    0 -0.96982813962E+02  0.29899595137E+03 -0.21732113280E+04  0.21991024809E+04  0.12000000000E+03 0.  0.
<mgrwt>
<rscale>  0 0.82854528E+03</rscale>
<asrwt>0</asrwt>
<pdfrwt beam="1">  1        4 0.42481531E+00 0.82854528E+03</pdfrwt>
<pdfrwt beam="2">  1       -4 0.95619316E-02 0.82854528E+03</pdfrwt>
<totfact> 0.82391803E-01</totfact>
</mgrwt>
</event>
<event>
 4    1  0.1728870E-004  0.2413643E+03  0.7818608E-02  0.1118887E+00
          2   -1    0    0  501    0  0.00000000000E+00  0.00000000000E+00  0.11807926479E+04  0.11807926479E+04  0.00000000000E+00 0.  1.
         -2   -1    0    0    0  501 -0.00000000000E+00 -0.00000000000E+00 -0.12334241745E+02  0.12334241745E+02  0.00000000000E+00 0.  1.
         25    1    1    2    0    0 -0.10705963370E+02 -0.70373627769E+01  0.58521592011E+03  0.59752976100E+03  0.12000000000E+03 0.  0.
         25    1    1    2    0    0  0.10705963370E+02  0.70373627769E+01  0.58324248608E+03  0.59559712869E+03  0.12000000000E+03 0.  0.
<mgrwt>
<rscale>  0 0.24136431E+03</rscale>
<asrwt>0</asrwt>
<pdfrwt beam="1">  1        2 0.18166032E+00 0.24136431E+03</pdfrwt>
<pdfrwt beam="2">  1       -2 0.18975766E-02 0.24136431E+03</pdfrwt>
<totfact> 0.16994586E+04</totfact>
</mgrwt>
</event>
<event>
 4    1  0.1728870E-004  0.3283470E+03  0.7818608E-02  0.1071871E+00
         -1   -1    0    0    0  501 -0.00000000000E+00  0.00000000000E+00  0.24050515184E+02  0.24050515184E+02  0.00000000000E+00 0.  1.
          1   -1    0    0  501    0  0.00000000000E+00 -0.00000000000E+00 -0.11206804876E+04  0.11206804876E+04  0.00000000000E+00 0.  1.
         25    1    1    2    0    0  0.21267186205E+01 -0.76227254107E+02 -0.26214093992E+03  0.29821634694E+03  0.12000000000E+03 0.  0.
         25    1    1    2    0    0 -0.21267186205E+01  0.76227254107E+02 -0.83448903250E+03  0.84651465585E+03  0.12000000000E+03 0.  0.
<mgrwt>
<rscale>  0 0.32834703E+03</rscale>
<asrwt>0</asrwt>
<pdfrwt beam="1">  1        1 0.17241239E+00 0.32834703E+03</pdfrwt>
<pdfrwt beam="2">  1       -1 0.37000792E-02 0.32834703E+03</pdfrwt>
<totfact> 0.36098584E+03</totfact>
</mgrwt>
</event>
<event>
 4    1  0.1728870E-004  0.2739518E+03  0.7818608E-02  0.1099039E+00
          2   -1    0    0  501    0  0.00000000000E+00  0.00000000000E+00  0.18854404353E+03  0.18854404353E+03  0.00000000000E+00 0.  1.
         -2   -1    0    0    0  501 -0.00000000000E+00 -0.00000000000E+00 -0.99512038628E+02  0.99512038628E+02  0.00000000000E+00 0.  1.
         25    1    1    2    0    0  0.50968756106E+02  0.40636357309E+02  0.55707003272E+02  0.14748694128E+03  0.12000000000E+03 0.  0.
         25    1    1    2    0    0 -0.50968756106E+02 -0.40636357309E+02  0.33325001633E+02  0.14056914088E+03  0.12000000000E+03 0.  0.
<mgrwt>
<rscale>  0 0.27395184E+03</rscale>
<asrwt>0</asrwt>
<pdfrwt beam="1">  1        2 0.29006776E-01 0.27395184E+03</pdfrwt>
<pdfrwt beam="2">  1       -2 0.15309544E-01 0.27395184E+03</pdfrwt>
<totfact> 0.59772388E+03</totfact>
</mgrwt>
</event>
<event>
 4    1  0.1728870E-004  0.3801858E+03  0.7818608E-02  0.1050865E+00
         -2   -1    0    0    0  501 -0.00000000000E+00  0.00000000000E+00  0.99657405157E+02  0.99657405157E+02  0.00000000000E+00 0.  1.
          2   -1    0    0  501    0  0.00000000000E+00 -0.00000000000E+00 -0.36259524447E+03  0.36259524447E+03  0.00000000000E+00 0.  1.
         25    1    1    2    0    0  0.93986740667E+01  0.23706359906E+02  0.45082053319E+02  0.13070087263E+03  0.12000000000E+03 0.  0.
         25    1    1    2    0    0 -0.93986740667E+01 -0.23706359906E+02 -0.30801989263E+03  0.33155177700E+03  0.12000000000E+03 0.  0.
<mgrwt>
<rscale>  0 0.38018575E+03</rscale>
<asrwt>0</asrwt>
<pdfrwt beam="1">  1        2 0.55783883E-01 0.38018575E+03</pdfrwt>
<pdfrwt beam="2">  1       -2 0.15331909E-01 0.38018575E+03</pdfrwt>
<totfact> 0.29504113E+03</totfact>
</mgrwt>
</event>
<event>
 4    1  0.1728870E-004  0.2534222E+03  0.7818608E-02  0.1111161E+00
         -2   -1    0    0    0  501 -0.00000000000E+00  0.00000000000E+00  0.16501200207E+02  0.16501200207E+02  0.00000000000E+00 0.  1.
          2   -1    0    0  501    0  0.00000000000E+00 -0.00000000000E+00 -0.97300205455E+03  0.97300205455E+03  0.00000000000E+00 0.  1.
         25    1    1    2    0    0 -0.38681477729E+01  0.21858899491E+02 -0.61140280737E+03  0.62346304374E+03  0.12000000000E+03 0.  0.
         25    1    1    2    0    0  0.38681477729E+01 -0.21858899491E+02 -0.34509804697E+03  0.36604021101E+03  0.12000000000E+03 0.  0.
<mgrwt>
<rscale>  0 0.25342219E+03</rscale>
<asrwt>0</asrwt>
<pdfrwt beam="1">  1        2 0.14969267E+00 0.25342219E+03</pdfrwt>
<pdfrwt beam="2">  1       -2 0.25386455E-02 0.25342219E+03</pdfrwt>
<totfact> 0.14725695E+04</totfact>
</mgrwt>
</event>
<event>
 4    1  0.1728870E-004  0.2478973E+03  0.7818608E-02  0.1114641E+00
          2   -1    0    0  501    0  0.00000000000E+00  0.00000000000E+00  0.22863545228E+04  0.22863545228E+04  0.00000000000E+00 0.  1.
         -2   -1    0    0    0  501 -0.00000000000E+00 -0.00000000000E+00 -0.67195484898E+01  0.67195484898E+01  0.00000000000E+00 0.  1.
         25    1    1    2    0    0 -0.37016916439E+01  0.30812243301E+02  0.11359675930E+04  0.11427097047E+04  0.12000000000E+03 0.  0.
         25    1    1    2    0    0  0.37016916439E+01 -0.30812243301E+02  0.11436673814E+04  0.11503643666E+04  0.12000000000E+03 0.  0.
<mgrwt>
<rscale>  0 0.24789732E+03</rscale>
<asrwt>0</asrwt>
<pdfrwt beam="1">  1        2 0.35174623E+00 0.24789732E+03</pdfrwt>
<pdfrwt beam="2">  1       -2 0.10337785E-02 0.24789732E+03</pdfrwt>
<totfact> 0.10622026E+04</totfact>
</mgrwt>
</event>
<event>
 4    1  0.1728870E-004  0.3453838E+03  0.7818608E-02  0.1064526E+00
          1   -1    0    0  501    0  0.00000000000E+00  0.00000000000E+00  0.52647067564E+03  0.52647067564E+03  0.00000000000E+00 0. -1.
         -1   -1    0    0    0  501 -0.00000000000E+00 -0.00000000000E+00 -0.56646063242E+02  0.56646063242E+02  0.00000000000E+00 0. -1.
         25    1    1    2    0    0 -0.62697691253E+02  0.75572548917E+02  0.36327180484E+03  0.39497925873E+03  0.12000000000E+03 0.  0.
         25    1    1    2    0    0  0.62697691253E+02 -0.75572548917E+02  0.10655280756E+03  0.18813748015E+03  0.12000000000E+03 0.  0.
<mgrwt>
<rscale>  0 0.34538379E+03</rscale>
<asrwt>0</asrwt>
<pdfrwt beam="1">  1        1 0.80995485E-01 0.34538379E+03</pdfrwt>
<pdfrwt beam="2">  1       -1 0.87147793E-02 0.34538379E+03</pdfrwt>
<totfact> 0.31868559E+03</totfact>
</mgrwt>
</event>
<event>
 4    1  0.1728870E-004  0.3304697E+03  0.7818608E-02  0.1070929E+00
          2   -1    0    0  501    0  0.00000000000E+00  0.00000000000E+00  0.29408484130E+04  0.29408484130E+04  0.00000000000E+00 0. -1.
         -2   -1    0    0    0  501 -0.00000000000E+00 -0.00000000000E+00 -0.92839019447E+01  0.92839019447E+01  0.00000000000E+00 0. -1.
         25    1    1    2    0    0  0.10566774787E+03  0.13562947754E+02  0.11139912740E+04  0.11254893092E+04  0.12000000000E+03 0.  0.
         25    1    1    2    0    0 -0.10566774787E+03 -0.13562947754E+02  0.18175732370E+04  0.18246430058E+04  0.12000000000E+03 0.  0.
<mgrwt>
<rscale>  0 0.33046966E+03</rscale>
<asrwt>0</asrwt>
<pdfrwt beam="1">  1        2 0.45243748E+00 0.33046966E+03</pdfrwt>
<pdfrwt beam="2">  1       -2 0.14282949E-02 0.33046966E+03</pdfrwt>
<totfact> 0.28471880E+03</totfact>
</mgrwt>
</event>
<event>
 4    1  0.1728870E-004  0.3510295E+03  0.7818608E-02  0.1062193E+00
         -2   -1    0    0    0  501 -0.00000000000E+00  0.00000000000E+00  0.32351812945E+03  0.32351812945E+03  0.00000000000E+00 0.  1.
          2   -1    0    0  501    0  0.00000000000E+00 -0.00000000000E+00 -0.95220069413E+02  0.95220069413E+02  0.00000000000E+00 0.  1.
         25    1    1    2    0    0  0.12727329236E+03  0.38220376388E+00  0.96995437326E+02  0.20001687901E+03  0.12000000000E+03 0.  0.
         25    1    1    2    0    0 -0.12727329236E+03 -0.38220376388E+00  0.13130262271E+03  0.21872131985E+03  0.12000000000E+03 0.  0.
<mgrwt>
<rscale>  0 0.35102945E+03</rscale>
<asrwt>0</asrwt>
<pdfrwt beam="1">  1        2 0.14649242E-01 0.35102945E+03</pdfrwt>
<pdfrwt beam="2">  1       -2 0.49772019E-01 0.35102945E+03</pdfrwt>
<totfact> 0.15623871E+03</totfact>
</mgrwt>
</event>
<event>
 4    1  0.1728870E-004  0.5045906E+03  0.7818608E-02  0.1012588E+00
          2   -1    0    0  501    0  0.00000000000E+00  0.00000000000E+00  0.37895298484E+03  0.37895298484E+03  0.00000000000E+00 0.  1.
         -2   -1    0    0    0  501 -0.00000000000E+00 -0.00000000000E+00 -0.16797049837E+03  0.16797049837E+03  0.00000000000E+00 0.  1.
         25    1    1    2    0    0 -0.19857848396E+03  0.45058286350E+02  0.20115236202E+03  0.31036419930E+03  0.12000000000E+03 0.  0.
         25    1    1    2    0    0  0.19857848396E+03 -0.45058286350E+02  0.98301244569E+01  0.23655928392E+03  0.12000000000E+03 0.  0.
<mgrwt>
<rscale>  0 0.50459061E+03</rscale>
<asrwt>0</asrwt>
<pdfrwt beam="1">  1        2 0.58300459E-01 0.50459061E+03</pdfrwt>
<pdfrwt beam="2">  1       -2 0.25841615E-01 0.50459061E+03</pdfrwt>
<totfact> 0.11413427E+03</totfact>
</mgrwt>
</event>
<event>
 4    1  0.1728870E-004  0.3948895E+03  0.7818608E-02  0.1045564E+00
          2   -1    0    0  501    0  0.00000000000E+00  0.00000000000E+00  0.22534499118E+04  0.22534499118E+04  0.00000000000E+00 0. -1.
         -2   -1    0    0    0  501 -0.00000000000E+00 -0.00000000000E+00 -0.17299883297E+02  0.17299883297E+02  0.00000000000E+00 0. -1.
         25    1    1    2    0    0 -0.13878958302E+03 -0.59872097120E+02  0.87840198097E+03  0.89935379942E+03  0.12000000000E+03 0.  0.
         25    1    1    2    0    0  0.13878958302E+03  0.59872097120E+02  0.13577480475E+04  0.13713959956E+04  0.12000000000E+03 0.  0.
<mgrwt>
<rscale>  0 0.39488946E+03</rscale>
<asrwt>0</asrwt>
<pdfrwt beam="1">  1        2 0.34668437E+00 0.39488946E+03</pdfrwt>
<pdfrwt beam="2">  1       -2 0.26615223E-02 0.39488946E+03</pdfrwt>
<totfact> 0.27411484E+03</totfact>
</mgrwt>
</event>
<event>
 4    1  0.1728870E-004  0.2430812E+03  0.7818608E-02  0.1117757E+00
         -2   -1    0    0    0  501 -0.00000000000E+00  0.00000000000E+00  0.36509196192E+02  0.36509196192E+02  0.00000000000E+00 0. -1.
          2   -1    0    0  501    0  0.00000000000E+00 -0.00000000000E+00 -0.40461348662E+03  0.40461348662E+03  0.00000000000E+00 0. -1.
         25    1    1    2    0    0 -0.13774667609E+02  0.11838157090E+02 -0.17225933652E+03  0.21072057908E+03  0.12000000000E+03 0.  0.
         25    1    1    2    0    0  0.13774667609E+02 -0.11838157090E+02 -0.19584495391E+03  0.23040210373E+03  0.12000000000E+03 0.  0.
<mgrwt>
<rscale>  0 0.24308116E+03</rscale>
<asrwt>0</asrwt>
<pdfrwt beam="1">  1        2 0.62248232E-01 0.24308116E+03</pdfrwt>
<pdfrwt beam="2">  1       -2 0.56167992E-02 0.24308116E+03</pdfrwt>
<totfact> 0.12725542E+04</totfact>
</mgrwt>
</event>
<event>
 4    1  0.1728870E-004  0.3425433E+03  0.7818608E-02  0.1065718E+00
         -2   -1    0    0    0  501 -0.00000000000E+00  0.00000000000E+00  0.20216564071E+04  0.20216564071E+04  0.00000000000E+00 0. -1.
          2   -1    0    0  501    0  0.00000000000E+00 -0.00000000000E+00 -0.14509870976E+02  0.14509870976E+02  0.00000000000E+00 0. -1.
         25    1    1    2    0    0 -0.11968377609E+03 -0.19743802939E+02  0.91541574170E+03  0.93118204674E+03  0.12000000000E+03 0.  0.
         25    1    1    2    0    0  0.11968377609E+03  0.19743802939E+02  0.10917307944E+04  0.11049842314E+04  0.12000000000E+03 0.  0.
<mgrwt>
<rscale>  0 0.34254327E+03</rscale>
<asrwt>0</asrwt>
<pdfrwt beam="1">  1        2 0.22322894E-02 0.34254327E+03</pdfrwt>
<pdfrwt beam="2">  1       -2 0.31102384E+00 0.34254327E+03</pdfrwt>
<totfact> 0.14756414E+02</totfact>
</mgrwt>
</event>
<event>
 4    1  0.1728870E-004  0.2580820E+03  0.7818608E-02  0.1108301E+00
          4   -1    0    0  501    0  0.00000000000E+00  0.00000000000E+00  0.71072319080E+03  0.71072319080E+03  0.00000000000E+00 0. -1.
         -4   -1    0    0    0  501 -0.00000000000E+00 -0.00000000000E+00 -0.23429059153E+02  0.23429059153E+02  0.00000000000E+00 0. -1.
         25    1    1    2    0    0 -0.44233528742E+02 -0.15118934893E+01  0.29498074118E+03  0.32151598491E+03  0.12000000000E+03 0.  0.
         25    1    1    2    0    0  0.44233528742E+02  0.15118934893E+01  0.39231339047E+03  0.41263626504E+03  0.12000000000E+03 0.  0.
<mgrwt>
<rscale>  0 0.25808197E+03</rscale>
<asrwt>0</asrwt>
<pdfrwt beam="1">  1        4 0.10934201E+00 0.25808197E+03</pdfrwt>
<pdfrwt beam="2">  1       -4 0.36044712E-02 0.25808197E+03</pdfrwt>
<totfact> 0.51850096E+02</totfact>
</mgrwt>
</event>
<event>
 4    1  0.1728870E-004  0.3140040E+03  0.7818608E-02  0.1078442E+00
         -1   -1    0    0    0  501 -0.00000000000E+00  0.00000000000E+00  0.65837518266E+02  0.65837518266E+02  0.00000000000E+00 0. -1.
          1   -1    0    0  501    0  0.00000000000E+00 -0.00000000000E+00 -0.37440087320E+03  0.37440087320E+03  0.00000000000E+00 0. -1.
         25    1    1    2    0    0  0.49495886493E+02  0.27102274874E+02 -0.36435234670E+02  0.13752055268E+03  0.12000000000E+03 0.  0.
         25    1    1    2    0    0 -0.49495886493E+02 -0.27102274874E+02 -0.27212812026E+03  0.30271783878E+03  0.12000000000E+03 0.  0.
<mgrwt>
<rscale>  0 0.31400398E+03</rscale>
<asrwt>0</asrwt>
<pdfrwt beam="1">  1        1 0.57600135E-01 0.31400398E+03</pdfrwt>
<pdfrwt beam="2">  1       -1 0.10128849E-01 0.31400398E+03</pdfrwt>
<totfact> 0.39424123E+03</totfact>
</mgrwt>
</event>
<event>
 4    1  0.1728870E-004  0.3763459E+03  0.7818608E-02  0.1052293E+00
          1   -1    0    0  501    0  0.00000000000E+00  0.00000000000E+00  0.24053718406E+02  0.24053718406E+02  0.00000000000E+00 0. -1.
         -1   -1    0    0    0  501 -0.00000000000E+00 -0.00000000000E+00 -0.14720826765E+04  0.14720826765E+04  0.00000000000E+00 0. -1.
         25    1    1    2    0    0 -0.11368888216E+03  0.89872853724E+02 -0.71367041037E+03  0.73805673657E+03  0.12000000000E+03 0.  0.
         25    1    1    2    0    0  0.11368888216E+03 -0.89872853724E+02 -0.73435854768E+03  0.75807965829E+03  0.12000000000E+03 0.  0.
<mgrwt>
<rscale>  0 0.37634592E+03</rscale>
<asrwt>0</asrwt>
<pdfrwt beam="1">  1        1 0.37005708E-02 0.37634592E+03</pdfrwt>
<pdfrwt beam="2">  1       -1 0.22647433E+00 0.37634592E+03</pdfrwt>
<totfact> 0.28291923E+02</totfact>
</mgrwt>
</event>
<event>
 4    1  0.1728870E-004  0.3953387E+03  0.7818608E-02  0.1045406E+00
          2   -1    0    0  501    0  0.00000000000E+00  0.00000000000E+00  0.15134716092E+03  0.15134716092E+03  0.00000000000E+00 0.  1.
         -2   -1    0    0    0  501 -0.00000000000E+00 -0.00000000000E+00 -0.25816921631E+03  0.25816921631E+03  0.00000000000E+00 0.  1.
         25    1    1    2    0    0  0.51142908038E+02  0.47538471186E+02  0.92339119748E+02  0.16673936644E+03  0.12000000000E+03 0.  0.
         25    1    1    2    0    0 -0.51142908038E+02 -0.47538471186E+02 -0.19916117513E+03  0.24277701079E+03  0.12000000000E+03 0.  0.
<mgrwt>
<rscale>  0 0.39533873E+03</rscale>
<asrwt>0</asrwt>
<pdfrwt beam="1">  1        2 0.23284179E-01 0.39533873E+03</pdfrwt>
<pdfrwt beam="2">  1       -2 0.39718340E-01 0.39533873E+03</pdfrwt>
<totfact> 0.14182586E+03</totfact>
</mgrwt>
</event>
<event>
 4    1  0.1728870E-004  0.2905046E+03  0.7818608E-02  0.1090086E+00
         -3   -1    0    0    0  501 -0.00000000000E+00  0.00000000000E+00  0.15159341807E+03  0.15159341807E+03  0.00000000000E+00 0.  1.
          3   -1    0    0  501    0  0.00000000000E+00 -0.00000000000E+00 -0.13917647678E+03  0.13917647678E+03  0.00000000000E+00 0.  1.
         25    1    1    2    0    0  0.18812932436E+02 -0.73696322263E+02  0.36454656824E+02  0.14667657054E+03  0.12000000000E+03 0.  0.
         25    1    1    2    0    0 -0.18812932436E+02  0.73696322263E+02 -0.24037715534E+02  0.14409332431E+03  0.12000000000E+03 0.  0.
<mgrwt>
<rscale>  0 0.29050465E+03</rscale>
<asrwt>0</asrwt>
<pdfrwt beam="1">  1        3 0.21411766E-01 0.29050465E+03</pdfrwt>
<pdfrwt beam="2">  1       -3 0.23322064E-01 0.29050465E+03</pdfrwt>
<totfact> 0.86578808E+02</totfact>
</mgrwt>
</event>
<event>
 4    1  0.1728870E-004  0.3447671E+03  0.7818608E-02  0.1064784E+00
          3   -1    0    0  501    0  0.00000000000E+00  0.00000000000E+00  0.77602195292E+02  0.77602195292E+02  0.00000000000E+00 0. -1.
         -3   -1    0    0    0  501 -0.00000000000E+00 -0.00000000000E+00 -0.38292845066E+03  0.38292845066E+03  0.00000000000E+00 0. -1.
         25    1    1    2    0    0  0.87437576191E+02  0.43026578663E+02 -0.50763049249E+02  0.16270680186E+03  0.12000000000E+03 0.  0.
         25    1    1    2    0    0 -0.87437576191E+02 -0.43026578663E+02 -0.25456320612E+03  0.29782384410E+03  0.12000000000E+03 0.  0.
<mgrwt>
<rscale>  0 0.34476710E+03</rscale>
<asrwt>0</asrwt>
<pdfrwt beam="1">  1        3 0.11938799E-01 0.34476710E+03</pdfrwt>
<pdfrwt beam="2">  1       -3 0.58912069E-01 0.34476710E+03</pdfrwt>
<totfact> 0.40515753E+02</totfact>
</mgrwt>
</event>
<event>
 4    1  0.1728870E-004  0.2895916E+03  0.7818608E-02  0.1090563E+00
          1   -1    0    0  501    0  0.00000000000E+00  0.00000000000E+00  0.10425518311E+04  0.10425518311E+04  0.00000000000E+00 0.  1.
         -1   -1    0    0    0  501 -0.00000000000E+00 -0.00000000000E+00 -0.20110099448E+02  0.20110099448E+02  0.00000000000E+00 0.  1.
         25    1    1    2    0    0  0.80512774687E+02  0.20796303363E+01  0.54387531136E+03  0.56274948783E+03  0.12000000000E+03 0.  0.
         25    1    1    2    0    0 -0.80512774687E+02 -0.20796303363E+01  0.47856642032E+03  0.49991244275E+03  0.12000000000E+03 0.  0.
<mgrwt>
<rscale>  0 0.28959158E+03</rscale>
<asrwt>0</asrwt>
<pdfrwt beam="1">  1        1 0.16039255E+00 0.28959158E+03</pdfrwt>
<pdfrwt beam="2">  1       -1 0.30938623E-02 0.28959158E+03</pdfrwt>
<totfact> 0.53609602E+03</totfact>
</mgrwt>
</event>
<event>
 4    1  0.1728870E-004  0.3622460E+03  0.7818608E-02  0.1057698E+00
          1   -1    0    0  501    0  0.00000000000E+00  0.00000000000E+00  0.97253433403E+02  0.97253433403E+02  0.00000000000E+00 0.  1.
         -1   -1    0    0    0  501 -0.00000000000E+00 -0.00000000000E+00 -0.33732014277E+03  0.33732014277E+03  0.00000000000E+00 0.  1.
         25    1    1    2    0    0 -0.50143409158E+02 -0.12682874364E+02 -0.27049595483E+03  0.30040519031E+03  0.12000000000E+03 0.  0.
         25    1    1    2    0    0  0.50143409158E+02  0.12682874364E+02  0.30429245469E+02  0.13416838586E+03  0.12000000000E+03 0.  0.
<mgrwt>
<rscale>  0 0.36224601E+03</rscale>
<asrwt>0</asrwt>
<pdfrwt beam="1">  1        1 0.14962066E-01 0.36224601E+03</pdfrwt>
<pdfrwt beam="2">  1       -1 0.51895408E-01 0.36224601E+03</pdfrwt>
<totfact> 0.14383788E+03</totfact>
</mgrwt>
</event>
<event>
 4    1  0.1728870E-004  0.2881044E+03  0.7818608E-02  0.1091343E+00
          2   -1    0    0  501    0  0.00000000000E+00  0.00000000000E+00  0.50543813150E+03  0.50543813150E+03  0.00000000000E+00 0.  1.
         -2   -1    0    0    0  501 -0.00000000000E+00 -0.00000000000E+00 -0.41055546330E+02  0.41055546330E+02  0.00000000000E+00 0.  1.
         25    1    1    2    0    0 -0.66006431307E+02  0.44357315811E+02  0.22240485924E+03  0.26493082466E+03  0.12000000000E+03 0.  0.
         25    1    1    2    0    0  0.66006431307E+02 -0.44357315811E+02  0.24197772592E+03  0.28156285317E+03  0.12000000000E+03 0.  0.
<mgrwt>
<rscale>  0 0.28810442E+03</rscale>
<asrwt>0</asrwt>
<pdfrwt beam="1">  1        2 0.77759708E-01 0.28810442E+03</pdfrwt>
<pdfrwt beam="2">  1       -2 0.63162383E-02 0.28810442E+03</pdfrwt>
<totfact> 0.83788743E+03</totfact>
</mgrwt>
</event>
<event>
 4    1  0.1728870E-004  0.3298580E+03  0.7818608E-02  0.1071200E+00
          2   -1    0    0  501    0  0.00000000000E+00  0.00000000000E+00  0.33780809238E+02  0.33780809238E+02  0.00000000000E+00 0. -1.
         -2   -1    0    0    0  501 -0.00000000000E+00 -0.00000000000E+00 -0.80523742487E+03  0.80523742487E+03  0.00000000000E+00 0. -1.
         25    1    1    2    0    0  0.63254341940E+02 -0.60466833403E+01 -0.14760985457E+03  0.20056506006E+03  0.12000000000E+03 0.  0.
         25    1    1    2    0    0 -0.63254341940E+02  0.60466833403E+01 -0.62384676106E+03  0.63845317404E+03  0.12000000000E+03 0.  0.
<mgrwt>
<rscale>  0 0.32985798E+03</rscale>
<asrwt>0</asrwt>
<pdfrwt beam="1">  1        2 0.51970476E-02 0.32985798E+03</pdfrwt>
<pdfrwt beam="2">  1       -2 0.12388268E+00 0.32985798E+03</pdfrwt>
<totfact> 0.77045275E+02</totfact>
</mgrwt>
</event>
<event>
 4    1  0.1728870E-004  0.2957123E+03  0.7818608E-02  0.1087404E+00
         -4   -1    0    0    0  501 -0.00000000000E+00  0.00000000000E+00  0.28059528264E+02  0.28059528264E+02  0.00000000000E+00 0. -1.
          4   -1    0    0  501    0  0.00000000000E+00 -0.00000000000E+00 -0.77910959725E+03  0.77910959725E+03  0.00000000000E+00 0. -1.
         25    1    1    2    0    0  0.66600184409E+02 -0.50228495941E+02 -0.31430939187E+03  0.34662498494E+03  0.12000000000E+03 0.  0.
         25    1    1    2    0    0 -0.66600184409E+02  0.50228495941E+02 -0.43674067712E+03  0.46054414057E+03  0.12000000000E+03 0.  0.
<mgrwt>
<rscale>  0 0.29571235E+03</rscale>
<asrwt>0</asrwt>
<pdfrwt beam="1">  1        4 0.11986303E+00 0.29571235E+03</pdfrwt>
<pdfrwt beam="2">  1       -4 0.43168501E-02 0.29571235E+03</pdfrwt>
<totfact> 0.31665346E+02</totfact>
</mgrwt>
</event>
<event>
 4    1  0.1728870E-004  0.3587516E+03  0.7818608E-02  0.1059079E+00
          4   -1    0    0  501    0  0.00000000000E+00  0.00000000000E+00  0.36999254267E+03  0.36999254267E+03  0.00000000000E+00 0.  1.
         -4   -1    0    0    0  501 -0.00000000000E+00 -0.00000000000E+00 -0.86963041645E+02  0.86963041645E+02  0.00000000000E+00 0.  1.
         25    1    1    2    0    0  0.10966155300E+03 -0.13206129910E+02  0.23662486076E+03  0.28738716535E+03  0.12000000000E+03 0.  0.
         25    1    1    2    0    0 -0.10966155300E+03  0.13206129910E+02  0.46404640261E+02  0.16956841897E+03  0.12000000000E+03 0.  0.
<mgrwt>
<rscale>  0 0.35875160E+03</rscale>
<asrwt>0</asrwt>
<pdfrwt beam="1">  1        4 0.56921928E-01 0.35875160E+03</pdfrwt>
<pdfrwt beam="2">  1       -4 0.13378930E-01 0.35875160E+03</pdfrwt>
<totfact> 0.26278443E+02</totfact>
</mgrwt>
</event>
<event>
 4    1  0.1728870E-004  0.3330321E+03  0.7818608E-02  0.1069803E+00
         -2   -1    0    0    0  501 -0.00000000000E+00  0.00000000000E+00  0.26015184576E+02  0.26015184576E+02  0.00000000000E+00 0.  1.
          2   -1    0    0  501    0  0.00000000000E+00 -0.00000000000E+00 -0.10658234752E+04  0.10658234752E+04  0.00000000000E+00 0.  1.
         25    1    1    2    0    0  0.10245827858E+03 -0.30129445971E+02 -0.37616941174E+03  0.40903411679E+03  0.12000000000E+03 0.  0.
         25    1    1    2    0    0 -0.10245827858E+03  0.30129445971E+02 -0.66363887891E+03  0.68280454302E+03  0.12000000000E+03 0.  0.
<mgrwt>
<rscale>  0 0.33303210E+03</rscale>
<asrwt>0</asrwt>
<pdfrwt beam="1">  1        2 0.16397278E+00 0.33303210E+03</pdfrwt>
<pdfrwt beam="2">  1       -2 0.40023377E-02 0.33303210E+03</pdfrwt>
<totfact> 0.65972595E+03</totfact>
</mgrwt>
</event>
<event>
 4    1  0.1728870E-004  0.3206536E+03  0.7818608E-02  0.1075349E+00
          2   -1    0    0  501    0  0.00000000000E+00  0.00000000000E+00  0.11190505522E+04  0.11190505522E+04  0.00000000000E+00 0.  1.
         -2   -1    0    0    0  501 -0.00000000000E+00 -0.00000000000E+00 -0.22970088463E+02  0.22970088463E+02  0.00000000000E+00 0.  1.
         25    1    1    2    0    0  0.96330629990E+02  0.25710071768E+02  0.41649969204E+03  0.44476127477E+03  0.12000000000E+03 0.  0.
         25    1    1    2    0    0 -0.96330629990E+02 -0.25710071768E+02  0.67958077165E+03  0.69725936585E+03  0.12000000000E+03 0.  0.
<mgrwt>
<rscale>  0 0.32065365E+03</rscale>
<asrwt>0</asrwt>
<pdfrwt beam="1">  1        2 0.17216158E+00 0.32065365E+03</pdfrwt>
<pdfrwt beam="2">  1       -2 0.35338606E-02 0.32065365E+03</pdfrwt>
<totfact> 0.73961563E+03</totfact>
</mgrwt>
</event>
<event>
 4    1  0.1728870E-004  0.3234280E+03  0.7818608E-02  0.1074082E+00
         -2   -1    0    0    0  501 -0.00000000000E+00  0.00000000000E+00  0.19146897930E+03  0.19146897930E+03  0.00000000000E+00 0.  1.
          2   -1    0    0  501    0  0.00000000000E+00 -0.00000000000E+00 -0.13658306117E+03  0.13658306117E+03  0.00000000000E+00 0.  1.
         25    1    1    2    0    0  0.21892763179E+02  0.10272320955E+03  0.22522242976E+00  0.15947225961E+03  0.12000000000E+03 0.  0.
         25    1    1    2    0    0 -0.21892763179E+02 -0.10272320955E+03  0.54660695698E+02  0.16857978086E+03  0.12000000000E+03 0.  0.
<mgrwt>
<rscale>  0 0.32342801E+03</rscale>
<asrwt>0</asrwt>
<pdfrwt beam="1">  1        2 0.21012779E-01 0.32342801E+03</pdfrwt>
<pdfrwt beam="2">  1       -2 0.29456766E-01 0.32342801E+03</pdfrwt>
<totfact> 0.27786726E+03</totfact>
</mgrwt>
</event>
<event>
 4    1  0.1728870E-004  0.2984707E+03  0.7818608E-02  0.1086008E+00
          4   -1    0    0  501    0  0.00000000000E+00  0.00000000000E+00  0.87953019598E+03  0.87953019598E+03  0.00000000000E+00 0.  1.
         -4   -1    0    0    0  501 -0.00000000000E+00 -0.00000000000E+00 -0.25321693403E+02  0.25321693403E+02  0.00000000000E+00 0.  1.
         25    1    1    2    0    0  0.74089121719E+02 -0.10925319071E+02  0.28289841105E+03  0.31629111832E+03  0.12000000000E+03 0.  0.
         25    1    1    2    0    0 -0.74089121719E+02  0.10925319071E+02  0.57131009153E+03  0.58856077107E+03  0.12000000000E+03 0.  0.
<mgrwt>
<rscale>  0 0.29847073E+03</rscale>
<asrwt>0</asrwt>
<pdfrwt beam="1">  1        4 0.13531231E+00 0.29847073E+03</pdfrwt>
<pdfrwt beam="2">  1       -4 0.38956458E-02 0.29847073E+03</pdfrwt>
<totfact> 0.27674289E+02</totfact>
</mgrwt>
</event>
<event>
 4    1  0.1728870E-004  0.2783369E+03  0.7818608E-02  0.1096601E+00
         -1   -1    0    0    0  501 -0.00000000000E+00  0.00000000000E+00  0.25442990844E+03  0.25442990844E+03  0.00000000000E+00 0. -1.
          1   -1    0    0  501    0  0.00000000000E+00 -0.00000000000E+00 -0.76122572282E+02  0.76122572282E+02  0.00000000000E+00 0. -1.
         25    1    1    2    0    0  0.56242968037E+02  0.27584119995E+02  0.12752070709E+03  0.18597227176E+03  0.12000000000E+03 0.  0.
         25    1    1    2    0    0 -0.56242968037E+02 -0.27584119995E+02  0.50786629072E+02  0.14458020896E+03  0.12000000000E+03 0.  0.
<mgrwt>
<rscale>  0 0.27833691E+03</rscale>
<asrwt>0</asrwt>
<pdfrwt beam="1">  1        1 0.11711165E-01 0.27833691E+03</pdfrwt>
<pdfrwt beam="2">  1       -1 0.39143063E-01 0.27833691E+03</pdfrwt>
<totfact> 0.33137092E+03</totfact>
</mgrwt>
</event>
<event>
 4    1  0.1728870E-004  0.2838239E+03  0.7818608E-02  0.1093619E+00
         -2   -1    0    0    0  501 -0.00000000000E+00  0.00000000000E+00  0.17343638607E+02  0.17343638607E+02  0.00000000000E+00 0.  1.
          2   -1    0    0  501    0  0.00000000000E+00 -0.00000000000E+00 -0.11611753910E+04  0.11611753910E+04  0.00000000000E+00 0.  1.
         25    1    1    2    0    0  0.19424417525E+02  0.34801382294E+01 -0.87561791769E+03  0.88402271302E+03  0.12000000000E+03 0.  0.
         25    1    1    2    0    0 -0.19424417525E+02 -0.34801382294E+01 -0.26821383473E+03  0.29449631662E+03  0.12000000000E+03 0.  0.
<mgrwt>
<rscale>  0 0.28382393E+03</rscale>
<asrwt>0</asrwt>
<pdfrwt beam="1">  1        2 0.17864231E+00 0.28382393E+03</pdfrwt>
<pdfrwt beam="2">  1       -2 0.26682529E-02 0.28382393E+03</pdfrwt>
<totfact> 0.10607650E+04</totfact>
</mgrwt>
</event>
<event>
 4    1  0.1728870E-004  0.3296064E+03  0.7818608E-02  0.1071311E+00
         -2   -1    0    0    0  501 -0.00000000000E+00  0.00000000000E+00  0.36443638880E+02  0.36443638880E+02  0.00000000000E+00 0. -1.
          2   -1    0    0  501    0  0.00000000000E+00 -0.00000000000E+00 -0.74526285101E+03  0.74526285101E+03  0.00000000000E+00 0. -1.
         25    1    1    2    0    0 -0.62820355666E+01  0.64786934364E+02 -0.57336289837E+03  0.58939106208E+03  0.12000000000E+03 0.  0.
         25    1    1    2    0    0  0.62820355666E+01 -0.64786934364E+02 -0.13545631376E+03  0.19231542781E+03  0.12000000000E+03 0.  0.
<mgrwt>
<rscale>  0 0.32960637E+03</rscale>
<asrwt>0</asrwt>
<pdfrwt beam="1">  1        2 0.11465582E+00 0.32960637E+03</pdfrwt>
<pdfrwt beam="2">  1       -2 0.56067140E-02 0.32960637E+03</pdfrwt>
<totfact> 0.63950147E+03</totfact>
</mgrwt>
</event>
<event>
 4    1  0.1728870E-004  0.2683849E+03  0.7818608E-02  0.1102208E+00
          2   -1    0    0  501    0  0.00000000000E+00  0.00000000000E+00  0.28521174096E+02  0.28521174096E+02  0.00000000000E+00 0. -1.
         -2   -1    0    0    0  501 -0.00000000000E+00 -0.00000000000E+00 -0.63137701393E+03  0.63137701393E+03  0.00000000000E+00 0. -1.
         25    1    1    2    0    0  0.41054097542E+01  0.19125740242E+02 -0.16179706820E+03  0.20238809157E+03  0.12000000000E+03 0.  0.
         25    1    1    2    0    0 -0.41054097542E+01 -0.19125740242E+02 -0.44105877163E+03  0.45751009646E+03  0.12000000000E+03 0.  0.
<mgrwt>
<rscale>  0 0.26838490E+03</rscale>
<asrwt>0</asrwt>
<pdfrwt beam="1">  1        2 0.43878728E-02 0.26838490E+03</pdfrwt>
<pdfrwt beam="2">  1       -2 0.97134928E-01 0.26838490E+03</pdfrwt>
<totfact> 0.17138927E+03</totfact>
</mgrwt>
</event>
<event>
 4    1  0.1728870E-004  0.2853883E+03  0.7818608E-02  0.1092782E+00
         -2   -1    0    0    0  501 -0.00000000000E+00  0.00000000000E+00  0.83764162450E+03  0.83764162450E+03  0.00000000000E+00 0. -1.
          2   -1    0    0  501    0  0.00000000000E+00 -0.00000000000E+00 -0.24308280229E+02  0.24308280229E+02  0.00000000000E+00 0. -1.
         25    1    1    2    0    0 -0.70950362835E+02  0.26852163623E+02  0.36325091535E+03  0.39000797451E+03  0.12000000000E+03 0.  0.
         25    1    1    2    0    0  0.70950362835E+02 -0.26852163623E+02  0.45008242891E+03  0.47194193021E+03  0.12000000000E+03 0.  0.
<mgrwt>
<rscale>  0 0.28538835E+03</rscale>
<asrwt>0</asrwt>
<pdfrwt beam="1">  1        2 0.37397361E-02 0.28538835E+03</pdfrwt>
<pdfrwt beam="2">  1       -2 0.12886792E+00 0.28538835E+03</pdfrwt>
<totfact> 0.10829482E+03</totfact>
</mgrwt>
</event>
<event>
 4    1  0.1728870E-004  0.2453448E+03  0.7818608E-02  0.1116283E+00
          1   -1    0    0  501    0  0.00000000000E+00  0.00000000000E+00  0.44048510845E+02  0.44048510845E+02  0.00000000000E+00 0.  1.
         -1   -1    0    0    0  501 -0.00000000000E+00 -0.00000000000E+00 -0.34163519956E+03  0.34163519956E+03  0.00000000000E+00 0.  1.
         25    1    1    2    0    0 -0.98758765562E+01 -0.20490480693E+02 -0.13079204527E+03  0.17895237311E+03  0.12000000000E+03 0.  0.
         25    1    1    2    0    0  0.98758765562E+01  0.20490480693E+02 -0.16679464344E+03  0.20673133729E+03  0.12000000000E+03 0.  0.
<mgrwt>
<rscale>  0 0.24534483E+03</rscale>
<asrwt>0</asrwt>
<pdfrwt beam="1">  1        1 0.67766942E-02 0.24534483E+03</pdfrwt>
<pdfrwt beam="2">  1       -1 0.52559260E-01 0.24534483E+03</pdfrwt>
<totfact> 0.40477413E+03</totfact>
</mgrwt>
</event>
<event>
 4    1  0.1728870E-004  0.3538387E+03  0.7818608E-02  0.1061050E+00
         -2   -1    0    0    0  501 -0.00000000000E+00  0.00000000000E+00  0.12213732081E+02  0.12213732081E+02  0.00000000000E+00 0. -1.
          2   -1    0    0  501    0  0.00000000000E+00 -0.00000000000E+00 -0.25627266438E+04  0.25627266438E+04  0.00000000000E+00 0. -1.
         25    1    1    2    0    0 -0.12876181708E+03  0.10854689283E+02 -0.13789468528E+04  0.13901769142E+04  0.12000000000E+03 0.  0.
         25    1    1    2    0    0  0.12876181708E+03 -0.10854689283E+02 -0.11715660589E+04  0.11847634617E+04  0.12000000000E+03 0.  0.
<mgrwt>
<rscale>  0 0.35383870E+03</rscale>
<asrwt>0</asrwt>
<pdfrwt beam="1">  1        2 0.39426589E+00 0.35383870E+03</pdfrwt>
<pdfrwt beam="2">  1       -2 0.18790345E-02 0.35383870E+03</pdfrwt>
<totfact> 0.31224119E+03</totfact>
</mgrwt>
</event>
<event>
 4    1  0.1728870E-004  0.3171677E+03  0.7818608E-02  0.1076960E+00
          2   -1    0    0  501    0  0.00000000000E+00  0.00000000000E+00  0.23509604188E+02  0.23509604188E+02  0.00000000000E+00 0.  1.
         -2   -1    0    0    0  501 -0.00000000000E+00 -0.00000000000E+00 -0.10697259561E+04  0.10697259561E+04  0.00000000000E+00 0.  1.
         25    1    1    2    0    0  0.91689685901E+02 -0.48103617550E+02 -0.50490906585E+03  0.52920139956E+03  0.12000000000E+03 0.  0.
         25    1    1    2    0    0 -0.91689685901E+02  0.48103617550E+02 -0.54130728608E+03  0.56403416074E+03  0.12000000000E+03 0.  0.
<mgrwt>
<rscale>  0 0.31716768E+03</rscale>
<asrwt>0</asrwt>
<pdfrwt beam="1">  1        2 0.36168617E-02 0.31716768E+03</pdfrwt>
<pdfrwt beam="2">  1       -2 0.16457325E+00 0.31716768E+03</pdfrwt>
<totfact> 0.60514190E+02</totfact>
</mgrwt>
</event>
<event>
 4    1  0.1728870E-004  0.2486229E+03  0.7818608E-02  0.1114178E+00
         -2   -1    0    0    0  501 -0.00000000000E+00  0.00000000000E+00  0.42752275809E+02  0.42752275809E+02  0.00000000000E+00 0. -1.
          2   -1    0    0  501    0  0.00000000000E+00 -0.00000000000E+00 -0.36146232545E+03  0.36146232545E+03  0.00000000000E+00 0. -1.
         25    1    1    2    0    0 -0.53755855401E+01  0.30844928580E+02 -0.14546116286E+03  0.19115244294E+03  0.12000000000E+03 0.  0.
         25    1    1    2    0    0  0.53755855401E+01 -0.30844928580E+02 -0.17324888678E+03  0.21306215832E+03  0.12000000000E+03 0.  0.
<mgrwt>
<rscale>  0 0.24862290E+03</rscale>
<asrwt>0</asrwt>
<pdfrwt beam="1">  1        2 0.55609591E-01 0.24862290E+03</pdfrwt>
<pdfrwt beam="2">  1       -2 0.65772730E-02 0.24862290E+03</pdfrwt>
<totfact> 0.11298784E+04</totfact>
</mgrwt>
</event>
<event>
 4    1  0.1728870E-004  0.2686830E+03  0.7818608E-02  0.1102036E+00
          2   -1    0    0  501    0  0.00000000000E+00  0.00000000000E+00  0.20384479672E+04  0.20384479672E+04  0.00000000000E+00 0. -1.
         -2   -1    0    0    0  501 -0.00000000000E+00 -0.00000000000E+00 -0.88536167960E+01  0.88536167960E+01  0.00000000000E+00 0. -1.
         25    1    1    2    0    0  0.26645562597E+02  0.12574469005E+02  0.61307330545E+03  0.62540145597E+03  0.12000000000E+03 0.  0.
         25    1    1    2    0    0 -0.26645562597E+02 -0.12574469005E+02  0.14165210450E+04  0.14219001281E+04  0.12000000000E+03 0.  0.
<mgrwt>
<rscale>  0 0.26868299E+03</rscale>
<asrwt>0</asrwt>
<pdfrwt beam="1">  1        2 0.31360701E+00 0.26868299E+03</pdfrwt>
<pdfrwt beam="2">  1       -2 0.13620965E-02 0.26868299E+03</pdfrwt>
<totfact> 0.96306447E+03</totfact>
</mgrwt>
</event>
<event>
 4    1  0.1728870E-004  0.2530167E+03  0.7818608E-02  0.1111413E+00
         -1   -1    0    0    0  501 -0.00000000000E+00  0.00000000000E+00  0.11156061932E+04  0.11156061932E+04  0.00000000000E+00 0. -1.
          1   -1    0    0  501    0  0.00000000000E+00 -0.00000000000E+00 -0.14345891884E+02  0.14345891884E+02  0.00000000000E+00 0. -1.
         25    1    1    2    0    0  0.38003301962E+02 -0.85156310983E+01  0.59242859531E+03  0.60571313960E+03  0.12000000000E+03 0.  0.
         25    1    1    2    0    0 -0.38003301962E+02  0.85156310983E+01  0.50883170600E+03  0.52423894548E+03  0.12000000000E+03 0.  0.
<mgrwt>
<rscale>  0 0.25301673E+03</rscale>
<asrwt>0</asrwt>
<pdfrwt beam="1">  1        1 0.22070612E-02 0.25301673E+03</pdfrwt>
<pdfrwt beam="2">  1       -1 0.17163165E+00 0.25301673E+03</pdfrwt>
<totfact> 0.13751489E+03</totfact>
</mgrwt>
</event>
<event>
 4    1  0.1728870E-004  0.2665110E+03  0.7818608E-02  0.1103293E+00
          2   -1    0    0  501    0  0.00000000000E+00  0.00000000000E+00  0.32228815734E+03  0.32228815734E+03  0.00000000000E+00 0.  1.
         -2   -1    0    0    0  501 -0.00000000000E+00 -0.00000000000E+00 -0.55096726055E+02  0.55096726055E+02  0.00000000000E+00 0.  1.
         25    1    1    2    0    0  0.42498216064E+02 -0.30140953840E+02  0.16948692034E+03  0.21410369364E+03  0.12000000000E+03 0.  0.
         25    1    1    2    0    0 -0.42498216064E+02  0.30140953840E+02  0.97704510952E+02  0.16328118975E+03  0.12000000000E+03 0.  0.
<mgrwt>
<rscale>  0 0.26651096E+03</rscale>
<asrwt>0</asrwt>
<pdfrwt beam="1">  1        2 0.49582792E-01 0.26651096E+03</pdfrwt>
<pdfrwt beam="2">  1       -2 0.84764196E-02 0.26651096E+03</pdfrwt>
<totfact> 0.86471566E+03</totfact>
</mgrwt>
</event>
<event>
 4    1  0.1728870E-004  0.3399466E+03  0.7818608E-02  0.1066819E+00
         -2   -1    0    0    0  501 -0.00000000000E+00  0.00000000000E+00  0.10378630377E+04  0.10378630377E+04  0.00000000000E+00 0. -1.
          2   -1    0    0  501    0  0.00000000000E+00 -0.00000000000E+00 -0.27836936157E+02  0.27836936157E+02  0.00000000000E+00 0. -1.
         25    1    1    2    0    0  0.42840965819E+02 -0.37569303719E+01  0.15254244058E+03  0.19879300555E+03  0.12000000000E+03 0.  0.
         25    1    1    2    0    0 -0.42840965819E+02  0.37569303719E+01  0.85748366099E+03  0.86690696833E+03  0.12000000000E+03 0.  0.
<mgrwt>
<rscale>  0 0.33994663E+03</rscale>
<asrwt>0</asrwt>
<pdfrwt beam="1">  1        2 0.42826063E-02 0.33994663E+03</pdfrwt>
<pdfrwt beam="2">  1       -2 0.15967121E+00 0.33994663E+03</pdfrwt>
<totfact> 0.52254961E+02</totfact>
</mgrwt>
</event>
<event>
 4    1  0.1728870E-004  0.2427566E+03  0.7818608E-02  0.1117970E+00
          1   -1    0    0  501    0  0.00000000000E+00  0.00000000000E+00  0.66957196155E+03  0.66957196155E+03  0.00000000000E+00 0. -1.
         -1   -1    0    0    0  501 -0.00000000000E+00 -0.00000000000E+00 -0.22003155304E+02  0.22003155304E+02  0.00000000000E+00 0. -1.
         25    1    1    2    0    0  0.12837645102E+02  0.11179429325E+02  0.30512262587E+03  0.32831326746E+03  0.12000000000E+03 0.  0.
         25    1    1    2    0    0 -0.12837645102E+02 -0.11179429325E+02  0.34244618037E+03  0.36326184939E+03  0.12000000000E+03 0.  0.
<mgrwt>
<rscale>  0 0.24275663E+03</rscale>
<asrwt>0</asrwt>
<pdfrwt beam="1">  1        1 0.10301106E+00 0.24275663E+03</pdfrwt>
<pdfrwt beam="2">  1       -1 0.33851013E-02 0.24275663E+03</pdfrwt>
<totfact> 0.93989998E+03</totfact>
</mgrwt>
</event>
<event>
 4    1  0.1728870E-004  0.2516584E+03  0.7818608E-02  0.1112261E+00
         -1   -1    0    0    0  501 -0.00000000000E+00  0.00000000000E+00  0.11737857148E+02  0.11737857148E+02  0.00000000000E+00 0. -1.
          1   -1    0    0  501    0  0.00000000000E+00 -0.00000000000E+00 -0.13488822686E+04  0.13488822686E+04  0.00000000000E+00 0. -1.
         25    1    1    2    0    0 -0.28214432853E+02 -0.58924541552E+01 -0.80125060278E+03  0.81069926835E+03  0.12000000000E+03 0.  0.
         25    1    1    2    0    0  0.28214432853E+02  0.58924541552E+01 -0.53589380871E+03  0.54992085744E+03  0.12000000000E+03 0.  0.
<mgrwt>
<rscale>  0 0.25165840E+03</rscale>
<asrwt>0</asrwt>
<pdfrwt beam="1">  1        1 0.20752036E+00 0.25165840E+03</pdfrwt>
<pdfrwt beam="2">  1       -1 0.18058240E-02 0.25165840E+03</pdfrwt>
<totfact> 0.71795976E+03</totfact>
</mgrwt>
</event>
<event>
 4    1  0.1728870E-004  0.3356162E+03  0.7818608E-02  0.1068679E+00
         -2   -1    0    0    0  501 -0.00000000000E+00  0.00000000000E+00  0.28365876040E+02  0.28365876040E+02  0.00000000000E+00 0. -1.
          2   -1    0    0  501    0  0.00000000000E+00 -0.00000000000E+00 -0.99272668729E+03  0.99272668729E+03  0.00000000000E+00 0. -1.
         25    1    1    2    0    0  0.29061972067E+01  0.78126485811E+02 -0.21612127091E+03  0.25926935320E+03  0.12000000000E+03 0.  0.
         25    1    1    2    0    0 -0.29061972067E+01 -0.78126485811E+02 -0.74823954034E+03  0.76182321013E+03  0.12000000000E+03 0.  0.
<mgrwt>
<rscale>  0 0.33561622E+03</rscale>
<asrwt>0</asrwt>
<pdfrwt beam="1">  1        2 0.15272719E+00 0.33561622E+03</pdfrwt>
<pdfrwt beam="2">  1       -2 0.43639808E-02 0.33561622E+03</pdfrwt>
<totfact> 0.64129920E+03</totfact>
</mgrwt>
</event>
<event>
 4    1  0.1728870E-004  0.2425353E+03  0.7818608E-02  0.1118115E+00
         -2   -1    0    0    0  501 -0.00000000000E+00  0.00000000000E+00  0.19459055949E+03  0.19459055949E+03  0.00000000000E+00 0. -1.
          2   -1    0    0  501    0  0.00000000000E+00 -0.00000000000E+00 -0.75573235062E+02  0.75573235062E+02  0.00000000000E+00 0. -1.
         25    1    1    2    0    0  0.16625739552E+02 -0.53534924508E+01  0.58535661167E+02  0.13465325368E+03  0.12000000000E+03 0.  0.
         25    1    1    2    0    0 -0.16625739552E+02  0.53534924508E+01  0.60481663257E+02  0.13551054087E+03  0.12000000000E+03 0.  0.
<mgrwt>
<rscale>  0 0.24253526E+03</rscale>
<asrwt>0</asrwt>
<pdfrwt beam="1">  1        2 0.11626652E-01 0.24253526E+03</pdfrwt>
<pdfrwt beam="2">  1       -2 0.29937009E-01 0.24253526E+03</pdfrwt>
<totfact> 0.53791129E+03</totfact>
</mgrwt>
</event>
<event>
 4    1  0.1728870E-004  0.2675851E+03  0.7818608E-02  0.1102670E+00
         -1   -1    0    0    0  501 -0.00000000000E+00  0.00000000000E+00  0.96221655695E+01  0.96221655695E+01  0.00000000000E+00 0.  1.
          1   -1    0    0  501    0  0.00000000000E+00 -0.00000000000E+00 -0.18603346923E+04  0.18603346923E+04  0.00000000000E+00 0.  1.
         25    1    1    2    0    0 -0.14821394974E+01 -0.58923798025E+02 -0.88956041770E+03  0.89955096990E+03  0.12000000000E+03 0.  0.
         25    1    1    2    0    0  0.14821394974E+01  0.58923798025E+02 -0.96115210907E+03  0.97040588801E+03  0.12000000000E+03 0.  0.
<mgrwt>
<rscale>  0 0.26758511E+03</rscale>
<asrwt>0</asrwt>
<pdfrwt beam="1">  1        1 0.28620546E+00 0.26758511E+03</pdfrwt>
<pdfrwt beam="2">  1       -1 0.14803325E-02 0.26758511E+03</pdfrwt>
<totfact> 0.44228338E+03</totfact>
</mgrwt>
</event>
<event>
 4    1  0.1728870E-004  0.2442644E+03  0.7818608E-02  0.1116984E+00
         -2   -1    0    0    0  501 -0.00000000000E+00  0.00000000000E+00  0.43587114208E+02  0.43587114208E+02  0.00000000000E+00 0. -1.
          2   -1    0    0  501    0  0.00000000000E+00 -0.00000000000E+00 -0.34221747193E+03  0.34221747193E+03  0.00000000000E+00 0. -1.
         25    1    1    2    0    0  0.20740680378E+02  0.28752266396E+01 -0.13538108423E+03  0.18211666788E+03  0.12000000000E+03 0.  0.
         25    1    1    2    0    0 -0.20740680378E+02 -0.28752266396E+01 -0.16324927349E+03  0.20368791826E+03  0.12000000000E+03 0.  0.
<mgrwt>
<rscale>  0 0.24426438E+03</rscale>
<asrwt>0</asrwt>
<pdfrwt beam="1">  1        2 0.52648844E-01 0.24426438E+03</pdfrwt>
<pdfrwt beam="2">  1       -2 0.67057096E-02 0.24426438E+03</pdfrwt>
<totfact> 0.11622786E+04</totfact>
</mgrwt>
</event>
<event>
 4    1  0.1728870E-004  0.2697307E+03  0.7818608E-02  0.1101434E+00
          1   -1    0    0  501    0  0.00000000000E+00  0.00000000000E+00  0.16098476316E+04  0.16098476316E+04  0.00000000000E+00 0.  1.
         -1   -1    0    0    0  501 -0.00000000000E+00 -0.00000000000E+00 -0.11298374531E+02  0.11298374531E+02  0.00000000000E+00 0.  1.
         25    1    1    2    0    0  0.31694047303E+02 -0.46467490894E+01  0.48337628049E+03  0.49907788315E+03  0.12000000000E+03 0.  0.
         25    1    1    2    0    0 -0.31694047303E+02  0.46467490894E+01  0.11151729766E+04  0.11220681230E+04  0.12000000000E+03 0.  0.
<mgrwt>
<rscale>  0 0.26973069E+03</rscale>
<asrwt>0</asrwt>
<pdfrwt beam="1">  1        1 0.24766868E+00 0.26973069E+03</pdfrwt>
<pdfrwt beam="2">  1       -1 0.17382127E-02 0.26973069E+03</pdfrwt>
<totfact> 0.50973370E+03</totfact>
</mgrwt>
</event>
<event>
 4    1  0.1728870E-004  0.3249111E+03  0.7818608E-02  0.1073411E+00
          1   -1    0    0  501    0  0.00000000000E+00  0.00000000000E+00  0.14899171454E+03  0.14899171454E+03  0.00000000000E+00 0. -1.
         -1   -1    0    0    0  501 -0.00000000000E+00 -0.00000000000E+00 -0.17713607876E+03  0.17713607876E+03  0.00000000000E+00 0. -1.
         25    1    1    2    0    0 -0.84859487739E+01  0.74552830530E+02 -0.94130947447E+02  0.16997285411E+03  0.12000000000E+03 0.  0.
         25    1    1    2    0    0  0.84859487739E+01 -0.74552830530E+02  0.65986583227E+02  0.15615493919E+03  0.12000000000E+03 0.  0.
<mgrwt>
<rscale>  0 0.32491111E+03</rscale>
<asrwt>0</asrwt>
<pdfrwt beam="1">  1        1 0.22921802E-01 0.32491111E+03</pdfrwt>
<pdfrwt beam="2">  1       -1 0.27251704E-01 0.32491111E+03</pdfrwt>
<totfact> 0.25795209E+03</totfact>
</mgrwt>
</event>
<event>
 4    1  0.1728870E-004  0.4909449E+03  0.7818608E-02  0.1016170E+00
         -1   -1    0    0    0  501 -0.00000000000E+00  0.00000000000E+00  0.50238109440E+02  0.50238109440E+02  0.00000000000E+00 0. -1.
          1   -1    0    0  501    0  0.00000000000E+00 -0.00000000000E+00 -0.11994224771E+04  0.11994224771E+04  0.00000000000E+00 0. -1.
         25    1    1    2    0    0 -0.17646605396E+03  0.62106641194E+02 -0.83984411177E+03  0.86875522166E+03  0.12000000000E+03 0.  0.
         25    1    1    2    0    0  0.17646605396E+03 -0.62106641194E+02 -0.30934025586E+03  0.38090536485E+03  0.12000000000E+03 0.  0.
<mgrwt>
<rscale>  0 0.49094488E+03</rscale>
<asrwt>0</asrwt>
<pdfrwt beam="1">  1        1 0.18452653E+00 0.49094488E+03</pdfrwt>
<pdfrwt beam="2">  1       -1 0.77289401E-02 0.49094488E+03</pdfrwt>
<totfact> 0.10322762E+03</totfact>
</mgrwt>
</event>
<event>
 4    1  0.1728870E-004  0.2939373E+03  0.7818608E-02  0.1088311E+00
         -2   -1    0    0    0  501 -0.00000000000E+00  0.00000000000E+00  0.19404333621E+02  0.19404333621E+02  0.00000000000E+00 0.  1.
          2   -1    0    0  501    0  0.00000000000E+00 -0.00000000000E+00 -0.11131423131E+04  0.11131423131E+04  0.00000000000E+00 0.  1.
         25    1    1    2    0    0  0.66360133042E+02 -0.21284338120E+02 -0.36036149289E+03  0.38615682807E+03  0.12000000000E+03 0.  0.
         25    1    1    2    0    0 -0.66360133042E+02  0.21284338120E+02 -0.73337648664E+03  0.74638981870E+03  0.12000000000E+03 0.  0.
<mgrwt>
<rscale>  0 0.29393730E+03</rscale>
<asrwt>0</asrwt>
<pdfrwt beam="1">  1        2 0.17125266E+00 0.29393730E+03</pdfrwt>
<pdfrwt beam="2">  1       -2 0.29852822E-02 0.29393730E+03</pdfrwt>
<totfact> 0.95801200E+03</totfact>
</mgrwt>
</event>
<event>
 4    1  0.1728870E-004  0.2989830E+03  0.7818608E-02  0.1085750E+00
         -1   -1    0    0    0  501 -0.00000000000E+00  0.00000000000E+00  0.56645919109E+02  0.56645919109E+02  0.00000000000E+00 0. -1.
          1   -1    0    0  501    0  0.00000000000E+00 -0.00000000000E+00 -0.39451572981E+03  0.39451572981E+03  0.00000000000E+00 0. -1.
         25    1    1    2    0    0 -0.16875344954E+02 -0.51386220880E+02 -0.27587503620E+03  0.30566706817E+03  0.12000000000E+03 0.  0.
         25    1    1    2    0    0  0.16875344954E+02  0.51386220880E+02 -0.61994774508E+02  0.14549458076E+03  0.12000000000E+03 0.  0.
<mgrwt>
<rscale>  0 0.29898298E+03</rscale>
<asrwt>0</asrwt>
<pdfrwt beam="1">  1        1 0.60694729E-01 0.29898298E+03</pdfrwt>
<pdfrwt beam="2">  1       -1 0.87147566E-02 0.29898298E+03</pdfrwt>
<totfact> 0.46451626E+03</totfact>
</mgrwt>
</event>
<event>
 4    1  0.1728870E-004  0.2649945E+03  0.7818608E-02  0.1104179E+00
          2   -1    0    0  501    0  0.00000000000E+00  0.00000000000E+00  0.47517814998E+03  0.47517814998E+03  0.00000000000E+00 0.  1.
         -2   -1    0    0    0  501 -0.00000000000E+00 -0.00000000000E+00 -0.36945130382E+02  0.36945130382E+02  0.00000000000E+00 0.  1.
         25    1    1    2    0    0  0.43937303136E+02 -0.24330908945E+02  0.17049226013E+03  0.21445300301E+03  0.12000000000E+03 0.  0.
         25    1    1    2    0    0 -0.43937303136E+02  0.24330908945E+02  0.26774075947E+03  0.29767027735E+03  0.12000000000E+03 0.  0.
<mgrwt>
<rscale>  0 0.26499448E+03</rscale>
<asrwt>0</asrwt>
<pdfrwt beam="1">  1        2 0.73104326E-01 0.26499448E+03</pdfrwt>
<pdfrwt beam="2">  1       -2 0.56838666E-02 0.26499448E+03</pdfrwt>
<totfact> 0.10520133E+04</totfact>
</mgrwt>
</event>
<event>
 4    1  0.1728870E-004  0.3881275E+03  0.7818608E-02  0.1047970E+00
          1   -1    0    0  501    0  0.00000000000E+00  0.00000000000E+00  0.13563994086E+04  0.13563994086E+04  0.00000000000E+00 0. -1.
         -1   -1    0    0    0  501 -0.00000000000E+00 -0.00000000000E+00 -0.27765231017E+02  0.27765231017E+02  0.00000000000E+00 0. -1.
         25    1    1    2    0    0 -0.88200632655E+02 -0.26131029671E+02  0.23048362222E+03  0.27565355507E+03  0.12000000000E+03 0.  0.
         25    1    1    2    0    0  0.88200632655E+02  0.26131029671E+02  0.10981505553E+04  0.11085110845E+04  0.12000000000E+03 0.  0.
<mgrwt>
<rscale>  0 0.38812752E+03</rscale>
<asrwt>0</asrwt>
<pdfrwt beam="1">  1        1 0.20867678E+00 0.38812752E+03</pdfrwt>
<pdfrwt beam="2">  1       -1 0.42715751E-02 0.38812752E+03</pdfrwt>
<totfact> 0.19892803E+03</totfact>
</mgrwt>
</event>
<event>
 4    1  0.1728870E-004  0.3264980E+03  0.7818608E-02  0.1072697E+00
          1   -1    0    0  501    0  0.00000000000E+00  0.00000000000E+00  0.38489373587E+03  0.38489373587E+03  0.00000000000E+00 0. -1.
         -1   -1    0    0    0  501 -0.00000000000E+00 -0.00000000000E+00 -0.69240488279E+02  0.69240488279E+02  0.00000000000E+00 0. -1.
         25    1    1    2    0    0 -0.13677959657E+02  0.60077593524E+02  0.28571480655E+03  0.31595783660E+03  0.12000000000E+03 0.  0.
         25    1    1    2    0    0  0.13677959657E+02 -0.60077593524E+02  0.29938441033E+02  0.13817638755E+03  0.12000000000E+03 0.  0.
<mgrwt>
<rscale>  0 0.32649796E+03</rscale>
<asrwt>0</asrwt>
<pdfrwt beam="1">  1        1 0.59214419E-01 0.32649796E+03</pdfrwt>
<pdfrwt beam="2">  1       -1 0.10652383E-01 0.32649796E+03</pdfrwt>
<totfact> 0.35211430E+03</totfact>
</mgrwt>
</event>
<event>
 4    1  0.1728870E-004  0.3343819E+03  0.7818608E-02  0.1069214E+00
         -2   -1    0    0    0  501 -0.00000000000E+00  0.00000000000E+00  0.28497463698E+03  0.28497463698E+03  0.00000000000E+00 0. -1.
          2   -1    0    0  501    0  0.00000000000E+00 -0.00000000000E+00 -0.98088793859E+02  0.98088793859E+02  0.00000000000E+00 0. -1.
         25    1    1    2    0    0  0.15111824643E+02  0.66459295309E+02 -0.14677709746E+02  0.13878270908E+03  0.12000000000E+03 0.  0.
         25    1    1    2    0    0 -0.15111824643E+02 -0.66459295309E+02  0.20156355287E+03  0.24428072176E+03  0.12000000000E+03 0.  0.
<mgrwt>
<rscale>  0 0.33438193E+03</rscale>
<asrwt>0</asrwt>
<pdfrwt beam="1">  1        2 0.15090584E-01 0.33438193E+03</pdfrwt>
<pdfrwt beam="2">  1       -2 0.43842251E-01 0.33438193E+03</pdfrwt>
<totfact> 0.19364422E+03</totfact>
</mgrwt>
</event>
<event>
 4    1  0.1728870E-004  0.3758059E+03  0.7818608E-02  0.1052495E+00
          2   -1    0    0  501    0  0.00000000000E+00  0.00000000000E+00  0.28547969869E+03  0.28547969869E+03  0.00000000000E+00 0. -1.
         -2   -1    0    0    0  501 -0.00000000000E+00 -0.00000000000E+00 -0.12367788532E+03  0.12367788532E+03  0.00000000000E+00 0. -1.
         25    1    1    2    0    0 -0.10271019135E+03 -0.58774624890E+02  0.17136317406E+03  0.24035219442E+03  0.12000000000E+03 0.  0.
         25    1    1    2    0    0  0.10271019135E+03  0.58774624890E+02 -0.95613606870E+01  0.16880538960E+03  0.12000000000E+03 0.  0.
<mgrwt>
<rscale>  0 0.37580594E+03</rscale>
<asrwt>0</asrwt>
<pdfrwt beam="1">  1        2 0.43919954E-01 0.37580594E+03</pdfrwt>
<pdfrwt beam="2">  1       -2 0.19027367E-01 0.37580594E+03</pdfrwt>
<totfact> 0.26572738E+03</totfact>
</mgrwt>
</event>
<event>
 4    1  0.1728870E-004  0.2742659E+03  0.7818608E-02  0.1098863E+00
          1   -1    0    0  501    0  0.00000000000E+00  0.00000000000E+00  0.29286985034E+04  0.29286985034E+04  0.00000000000E+00 0. -1.
         -1   -1    0    0    0  501 -0.00000000000E+00 -0.00000000000E+00 -0.64210929369E+01  0.64210929369E+01  0.00000000000E+00 0. -1.
         25    1    1    2    0    0  0.23251447692E+02 -0.24412082711E+02  0.20729993684E+04  0.20767433546E+04  0.12000000000E+03 0.  0.
         25    1    1    2    0    0 -0.23251447692E+02  0.24412082711E+02  0.84927804213E+03  0.85837624177E+03  0.12000000000E+03 0.  0.
<mgrwt>
<rscale>  0 0.27426589E+03</rscale>
<asrwt>0</asrwt>
<pdfrwt beam="1">  1        1 0.45056793E+00 0.27426589E+03</pdfrwt>
<pdfrwt beam="2">  1       -1 0.98786279E-03 0.27426589E+03</pdfrwt>
<totfact> 0.15538733E+03</totfact>
</mgrwt>
</event>
<event>
 4    1  0.1728870E-004  0.4848548E+03  0.7818608E-02  0.1017809E+00
         -1   -1    0    0    0  501 -0.00000000000E+00  0.00000000000E+00  0.20268558887E+03  0.20268558887E+03  0.00000000000E+00 0. -1.
          1   -1    0    0  501    0  0.00000000000E+00 -0.00000000000E+00 -0.28996164228E+03  0.28996164228E+03  0.00000000000E+00 0. -1.
         25    1    1    2    0    0  0.13488926861E+03 -0.11503380641E+03  0.71958400799E+02  0.22584486456E+03  0.12000000000E+03 0.  0.
         25    1    1    2    0    0 -0.13488926861E+03  0.11503380641E+03 -0.15923445421E+03  0.26680236658E+03  0.12000000000E+03 0.  0.
<mgrwt>
<rscale>  0 0.48485481E+03</rscale>
<asrwt>0</asrwt>
<pdfrwt beam="1">  1        1 0.44609483E-01 0.48485481E+03</pdfrwt>
<pdfrwt beam="2">  1       -1 0.31182399E-01 0.48485481E+03</pdfrwt>
<totfact> 0.87718134E+02</totfact>
</mgrwt>
</event>
<event>
 4    1  0.1728870E-004  0.4824282E+03  0.7818608E-02  0.1018470E+00
          2   -1    0    0  501    0  0.00000000000E+00  0.00000000000E+00  0.16621974590E+04  0.16621974590E+04  0.00000000000E+00 0. -1.
         -2   -1    0    0    0  501 -0.00000000000E+00 -0.00000000000E+00 -0.35004403740E+02  0.35004403740E+02  0.00000000000E+00 0. -1.
         25    1    1    2    0    0  0.72463586799E+02  0.14715043279E+03  0.35652180919E+03  0.41038033787E+03  0.12000000000E+03 0.  0.
         25    1    1    2    0    0 -0.72463586799E+02 -0.14715043279E+03  0.12706712461E+04  0.12868215249E+04  0.12000000000E+03 0.  0.
<mgrwt>
<rscale>  0 0.48242815E+03</rscale>
<asrwt>0</asrwt>
<pdfrwt beam="1">  1        2 0.25572262E+00 0.48242815E+03</pdfrwt>
<pdfrwt beam="2">  1       -2 0.53852942E-02 0.48242815E+03</pdfrwt>
<totfact> 0.19395214E+03</totfact>
</mgrwt>
</event>
<event>
 4    1  0.1728870E-004  0.2739866E+03  0.7818608E-02  0.1099019E+00
         -1   -1    0    0    0  501 -0.00000000000E+00  0.00000000000E+00  0.60479721830E+02  0.60479721830E+02  0.00000000000E+00 0. -1.
          1   -1    0    0  501    0  0.00000000000E+00 -0.00000000000E+00 -0.31030517111E+03  0.31030517111E+03  0.00000000000E+00 0. -1.
         25    1    1    2    0    0  0.41874206636E+02 -0.35032352799E+02 -0.17530286930E+03  0.21934404689E+03  0.12000000000E+03 0.  0.
         25    1    1    2    0    0 -0.41874206636E+02  0.35032352799E+02 -0.74522579983E+02  0.15144084605E+03  0.12000000000E+03 0.  0.
<mgrwt>
<rscale>  0 0.27398665E+03</rscale>
<asrwt>0</asrwt>
<pdfrwt beam="1">  1        1 0.47739257E-01 0.27398665E+03</pdfrwt>
<pdfrwt beam="2">  1       -1 0.93045727E-02 0.27398665E+03</pdfrwt>
<totfact> 0.56840449E+03</totfact>
</mgrwt>
</event>
<event>
 4    1  0.1728870E-004  0.2458038E+03  0.7818608E-02  0.1115986E+00
          2   -1    0    0  501    0  0.00000000000E+00  0.00000000000E+00  0.69491364372E+02  0.69491364372E+02  0.00000000000E+00 0. -1.
         -2   -1    0    0    0  501 -0.00000000000E+00 -0.00000000000E+00 -0.21736331833E+03  0.21736331833E+03  0.00000000000E+00 0. -1.
         25    1    1    2    0    0 -0.97655472135E+01 -0.24163484251E+02 -0.79844498308E+02  0.14647315042E+03  0.12000000000E+03 0.  0.
         25    1    1    2    0    0  0.97655472135E+01  0.24163484251E+02 -0.68027455647E+02  0.14038153228E+03  0.12000000000E+03 0.  0.
<mgrwt>
<rscale>  0 0.24580377E+03</rscale>
<asrwt>0</asrwt>
<pdfrwt beam="1">  1        2 0.10690979E-01 0.24580377E+03</pdfrwt>
<pdfrwt beam="2">  1       -2 0.33440510E-01 0.24580377E+03</pdfrwt>
<totfact> 0.48715651E+03</totfact>
</mgrwt>
</event>
<event>
 4    1  0.1728870E-004  0.3428580E+03  0.7818608E-02  0.1065585E+00
          2   -1    0    0  501    0  0.00000000000E+00  0.00000000000E+00  0.13049330868E+03  0.13049330868E+03  0.00000000000E+00 0.  1.
         -2   -1    0    0    0  501 -0.00000000000E+00 -0.00000000000E+00 -0.22520626364E+03  0.22520626364E+03  0.00000000000E+00 0.  1.
         25    1    1    2    0    0  0.59247804656E+02  0.50056458834E+02 -0.14562459456E+03  0.20401586695E+03  0.12000000000E+03 0.  0.
         25    1    1    2    0    0 -0.59247804656E+02 -0.50056458834E+02  0.50911639596E+02  0.15168370537E+03  0.12000000000E+03 0.  0.
<mgrwt>
<rscale>  0 0.34285805E+03</rscale>
<asrwt>0</asrwt>
<pdfrwt beam="1">  1        2 0.20075894E-01 0.34285805E+03</pdfrwt>
<pdfrwt beam="2">  1       -2 0.34647117E-01 0.34285805E+03</pdfrwt>
<totfact> 0.21735266E+03</totfact>
</mgrwt>
</event>
<event>
 4    1  0.1728870E-004  0.3733096E+03  0.7818608E-02  0.1053435E+00
          1   -1    0    0  501    0  0.00000000000E+00  0.00000000000E+00  0.73908673044E+02  0.73908673044E+02  0.00000000000E+00 0.  1.
         -1   -1    0    0    0  501 -0.00000000000E+00 -0.00000000000E+00 -0.47139271719E+03  0.47139271719E+03  0.00000000000E+00 0.  1.
         25    1    1    2    0    0 -0.10213345418E+03 -0.46203289444E+02 -0.32836017660E+03  0.36713266266E+03  0.12000000000E+03 0.  0.
         25    1    1    2    0    0  0.10213345418E+03  0.46203289444E+02 -0.69123867545E+02  0.17816872757E+03  0.12000000000E+03 0.  0.
<mgrwt>
<rscale>  0 0.37330958E+03</rscale>
<asrwt>0</asrwt>
<pdfrwt beam="1">  1        1 0.11370565E-01 0.37330958E+03</pdfrwt>
<pdfrwt beam="2">  1       -1 0.72521956E-01 0.37330958E+03</pdfrwt>
<totfact> 0.10805556E+03</totfact>
</mgrwt>
</event>
<event>
 4    1  0.1728870E-004  0.2582307E+03  0.7818608E-02  0.1108211E+00
         -1   -1    0    0    0  501 -0.00000000000E+00  0.00000000000E+00  0.14395172398E+03  0.14395172398E+03  0.00000000000E+00 0. -1.
          1   -1    0    0  501    0  0.00000000000E+00 -0.00000000000E+00 -0.11580809576E+03  0.11580809576E+03  0.00000000000E+00 0. -1.
         25    1    1    2    0    0 -0.13029863297E+02 -0.16909423627E+02  0.56927718420E+02  0.13452312466E+03  0.12000000000E+03 0.  0.
         25    1    1    2    0    0  0.13029863297E+02  0.16909423627E+02 -0.28784090205E+02  0.12523669508E+03  0.12000000000E+03 0.  0.
<mgrwt>
<rscale>  0 0.25823071E+03</rscale>
<asrwt>0</asrwt>
<pdfrwt beam="1">  1        1 0.17816630E-01 0.25823071E+03</pdfrwt>
<pdfrwt beam="2">  1       -1 0.22146419E-01 0.25823071E+03</pdfrwt>
<totfact> 0.50112559E+03</totfact>
</mgrwt>
</event>
<event>
 4    1  0.1728870E-004  0.3453456E+03  0.7818608E-02  0.1064542E+00
         -2   -1    0    0    0  501 -0.00000000000E+00  0.00000000000E+00  0.33339441248E+02  0.33339441248E+02  0.00000000000E+00 0.  1.
          2   -1    0    0  501    0  0.00000000000E+00 -0.00000000000E+00 -0.89431288694E+03  0.89431288694E+03  0.00000000000E+00 0.  1.
         25    1    1    2    0    0 -0.79953831474E+02 -0.78439183166E+02 -0.28656859143E+03  0.33025274899E+03  0.12000000000E+03 0.  0.
         25    1    1    2    0    0  0.79953831474E+02  0.78439183166E+02 -0.57440485426E+03  0.59739957920E+03  0.12000000000E+03 0.  0.
<mgrwt>
<rscale>  0 0.34534558E+03</rscale>
<asrwt>0</asrwt>
<pdfrwt beam="1">  1        2 0.13758658E+00 0.34534558E+03</pdfrwt>
<pdfrwt beam="2">  1       -2 0.51291453E-02 0.34534558E+03</pdfrwt>
<totfact> 0.57934223E+03</totfact>
</mgrwt>
</event>
<event>
 4    1  0.1728870E-004  0.3071759E+03  0.7818608E-02  0.1081707E+00
         -1   -1    0    0    0  501 -0.00000000000E+00  0.00000000000E+00  0.97487188013E+01  0.97487188013E+01  0.00000000000E+00 0.  1.
          1   -1    0    0  501    0  0.00000000000E+00 -0.00000000000E+00 -0.24197296697E+04  0.24197296697E+04  0.00000000000E+00 0.  1.
         25    1    1    2    0    0 -0.28013052839E+02  0.34812512585E+02 -0.18757540421E+04  0.18801196421E+04  0.12000000000E+03 0.  0.
         25    1    1    2    0    0  0.28013052839E+02 -0.34812512585E+02 -0.53422690882E+03  0.54935874642E+03  0.12000000000E+03 0.  0.
<mgrwt>
<rscale>  0 0.30717594E+03</rscale>
<asrwt>0</asrwt>
<pdfrwt beam="1">  1        1 0.37226573E+00 0.30717594E+03</pdfrwt>
<pdfrwt beam="2">  1       -1 0.14998044E-02 0.30717594E+03</pdfrwt>
<totfact> 0.18674299E+03</totfact>
</mgrwt>
</event>
<event>
 4    1  0.1728870E-004  0.3974670E+03  0.7818608E-02  0.1044660E+00
         -2   -1    0    0    0  501 -0.00000000000E+00  0.00000000000E+00  0.90847156466E+02  0.90847156466E+02  0.00000000000E+00 0. -1.
          2   -1    0    0  501    0  0.00000000000E+00 -0.00000000000E+00 -0.43474116810E+03  0.43474116810E+03  0.00000000000E+00 0. -1.
         25    1    1    2    0    0  0.15212731457E+03 -0.16949637152E+02 -0.22590432068E+03  0.29809859466E+03  0.12000000000E+03 0.  0.
         25    1    1    2    0    0 -0.15212731457E+03  0.16949637152E+02 -0.11798969095E+03  0.22748972990E+03  0.12000000000E+03 0.  0.
<mgrwt>
<rscale>  0 0.39746697E+03</rscale>
<asrwt>0</asrwt>
<pdfrwt beam="1">  1        2 0.66883255E-01 0.39746697E+03</pdfrwt>
<pdfrwt beam="2">  1       -2 0.13976486E-01 0.39746697E+03</pdfrwt>
<totfact> 0.28196499E+03</totfact>
</mgrwt>
</event>
<event>
 4    1  0.1728870E-004  0.2719304E+03  0.7818608E-02  0.1100180E+00
         -2   -1    0    0    0  501 -0.00000000000E+00  0.00000000000E+00  0.12268682623E+03  0.12268682623E+03  0.00000000000E+00 0.  1.
          2   -1    0    0  501    0  0.00000000000E+00 -0.00000000000E+00 -0.15068074217E+03  0.15068074217E+03  0.00000000000E+00 0.  1.
         25    1    1    2    0    0 -0.57505319706E-01  0.75842707856E+01  0.49813040319E+02  0.13014938900E+03  0.12000000000E+03 0.  0.
         25    1    1    2    0    0  0.57505319706E-01 -0.75842707856E+01 -0.77806956258E+02  0.14321817941E+03  0.12000000000E+03 0.  0.
<mgrwt>
<rscale>  0 0.27193045E+03</rscale>
<asrwt>0</asrwt>
<pdfrwt beam="1">  1        2 0.23181653E-01 0.27193045E+03</pdfrwt>
<pdfrwt beam="2">  1       -2 0.18874896E-01 0.27193045E+03</pdfrwt>
<totfact> 0.54000202E+03</totfact>
</mgrwt>
</event>
<event>
 4    1  0.1728870E-004  0.2537569E+03  0.7818608E-02  0.1110953E+00
         -4   -1    0    0    0  501 -0.00000000000E+00  0.00000000000E+00  0.21609687770E+03  0.21609687770E+03  0.00000000000E+00 0. -1.
          4   -1    0    0  501    0  0.00000000000E+00 -0.00000000000E+00 -0.74495019300E+02  0.74495019300E+02  0.00000000000E+00 0. -1.
         25    1    1    2    0    0 -0.27799122458E+02  0.19314672391E+02  0.43888647147E+02  0.13218192436E+03  0.12000000000E+03 0.  0.
         25    1    1    2    0    0  0.27799122458E+02 -0.19314672391E+02  0.97713211256E+02  0.15840997264E+03  0.12000000000E+03 0.  0.
<mgrwt>
<rscale>  0 0.25375690E+03</rscale>
<asrwt>0</asrwt>
<pdfrwt beam="1">  1        4 0.11460772E-01 0.25375690E+03</pdfrwt>
<pdfrwt beam="2">  1       -4 0.33245673E-01 0.25375690E+03</pdfrwt>
<totfact> 0.97389700E+02</totfact>
</mgrwt>
</event>
<event>
 4    1  0.1728870E-004  0.2495720E+03  0.7818608E-02  0.1113576E+00
          1   -1    0    0  501    0  0.00000000000E+00  0.00000000000E+00  0.20538920634E+04  0.20538920634E+04  0.00000000000E+00 0.  1.
         -1   -1    0    0    0  501 -0.00000000000E+00 -0.00000000000E+00 -0.75814809659E+01  0.75814809659E+01  0.00000000000E+00 0.  1.
         25    1    1    2    0    0 -0.24042375009E+02 -0.24193490572E+02  0.10467836182E+04  0.10541913033E+04  0.12000000000E+03 0.  0.
         25    1    1    2    0    0  0.24042375009E+02  0.24193490572E+02  0.99952696426E+03  0.10072822410E+04  0.12000000000E+03 0.  0.
<mgrwt>
<rscale>  0 0.24957198E+03</rscale>
<asrwt>0</asrwt>
<pdfrwt beam="1">  1        1 0.31598295E+00 0.24957198E+03</pdfrwt>
<pdfrwt beam="2">  1       -1 0.11663833E-02 0.24957198E+03</pdfrwt>
<totfact> 0.46807278E+03</totfact>
</mgrwt>
</event>
<event>
 4    1  0.1728870E-004  0.3141582E+03  0.7818608E-02  0.1078370E+00
          2   -1    0    0  501    0  0.00000000000E+00  0.00000000000E+00  0.27117157466E+04  0.27117157466E+04  0.00000000000E+00 0. -1.
         -2   -1    0    0    0  501 -0.00000000000E+00 -0.00000000000E+00 -0.90989765617E+01  0.90989765617E+01  0.00000000000E+00 0. -1.
         25    1    1    2    0    0 -0.68756584307E+02 -0.74403497619E+02  0.13232584625E+04  0.13325450487E+04  0.12000000000E+03 0.  0.
         25    1    1    2    0    0  0.68756584307E+02  0.74403497619E+02  0.13793583075E+04  0.13882696744E+04  0.12000000000E+03 0.  0.
<mgrwt>
<rscale>  0 0.31415816E+03</rscale>
<asrwt>0</asrwt>
<pdfrwt beam="1">  1        2 0.41718639E+00 0.31415816E+03</pdfrwt>
<pdfrwt beam="2">  1       -2 0.13998447E-02 0.31415816E+03</pdfrwt>
<totfact> 0.39835321E+03</totfact>
</mgrwt>
</event>
<event>
 4    1  0.1728870E-004  0.2496557E+03  0.7818608E-02  0.1113523E+00
         -2   -1    0    0    0  501 -0.00000000000E+00  0.00000000000E+00  0.24566297660E+02  0.24566297660E+02  0.00000000000E+00 0.  1.
          2   -1    0    0  501    0  0.00000000000E+00 -0.00000000000E+00 -0.63428346016E+03  0.63428346016E+03  0.00000000000E+00 0.  1.
         25    1    1    2    0    0 -0.69703462477E+01  0.20891471562E+02 -0.23518825725E+03  0.26495010032E+03  0.12000000000E+03 0.  0.
         25    1    1    2    0    0  0.69703462477E+01 -0.20891471562E+02 -0.37452890525E+03  0.39389965750E+03  0.12000000000E+03 0.  0.
<mgrwt>
<rscale>  0 0.24965573E+03</rscale>
<asrwt>0</asrwt>
<pdfrwt beam="1">  1        2 0.97582059E-01 0.24965573E+03</pdfrwt>
<pdfrwt beam="2">  1       -2 0.37794309E-02 0.24965573E+03</pdfrwt>
<totfact> 0.14001915E+04</totfact>
</mgrwt>
</event>
<event>
 4    1  0.1728870E-004  0.2776324E+03  0.7818608E-02  0.1096989E+00
          4   -1    0    0  501    0  0.00000000000E+00  0.00000000000E+00  0.30211947344E+02  0.30211947344E+02  0.00000000000E+00 0.  1.
         -4   -1    0    0    0  501 -0.00000000000E+00 -0.00000000000E+00 -0.63782511204E+03  0.63782511204E+03  0.00000000000E+00 0.  1.
         25    1    1    2    0    0 -0.39533723317E+02  0.29910883501E+02 -0.42198867479E+03  0.44151106201E+03  0.12000000000E+03 0.  0.
         25    1    1    2    0    0  0.39533723317E+02 -0.29910883501E+02 -0.18562448991E+03  0.22652599737E+03  0.12000000000E+03 0.  0.
<mgrwt>
<rscale>  0 0.27763241E+03</rscale>
<asrwt>0</asrwt>
<pdfrwt beam="1">  1        4 0.46479923E-02 0.27763241E+03</pdfrwt>
<pdfrwt beam="2">  1       -4 0.98126931E-01 0.27763241E+03</pdfrwt>
<totfact> 0.44956859E+02</totfact>
</mgrwt>
</event>
<event>
 4    1  0.1728870E-004  0.2558406E+03  0.7818608E-02  0.1109668E+00
         -2   -1    0    0    0  501 -0.00000000000E+00  0.00000000000E+00  0.11090778414E+02  0.11090778414E+02  0.00000000000E+00 0.  1.
          2   -1    0    0  501    0  0.00000000000E+00 -0.00000000000E+00 -0.14754246717E+04  0.14754246717E+04  0.00000000000E+00 0.  1.
         25    1    1    2    0    0 -0.30377991812E+02  0.25483911911E+02 -0.61722306332E+03  0.63002901683E+03  0.12000000000E+03 0.  0.
         25    1    1    2    0    0  0.30377991812E+02 -0.25483911911E+02 -0.84711082992E+03  0.85648643324E+03  0.12000000000E+03 0.  0.
<mgrwt>
<rscale>  0 0.25584064E+03</rscale>
<asrwt>0</asrwt>
<pdfrwt beam="1">  1        2 0.22698831E+00 0.25584064E+03</pdfrwt>
<pdfrwt beam="2">  1       -2 0.17062744E-02 0.25584064E+03</pdfrwt>
<totfact> 0.13702694E+04</totfact>
</mgrwt>
</event>
<event>
 4    1  0.1728870E-004  0.2952228E+03  0.7818608E-02  0.1087653E+00
          2   -1    0    0  501    0  0.00000000000E+00  0.00000000000E+00  0.80044052699E+02  0.80044052699E+02  0.00000000000E+00 0. -1.
         -2   -1    0    0    0  501 -0.00000000000E+00 -0.00000000000E+00 -0.27221423234E+03  0.27221423234E+03  0.00000000000E+00 0. -1.
         25    1    1    2    0    0  0.26841586023E+02 -0.80999515430E+02 -0.10847008854E+03  0.18288562641E+03  0.12000000000E+03 0.  0.
         25    1    1    2    0    0 -0.26841586023E+02  0.80999515430E+02 -0.83700091107E+02  0.16937265863E+03  0.12000000000E+03 0.  0.
<mgrwt>
<rscale>  0 0.29522283E+03</rscale>
<asrwt>0</asrwt>
<pdfrwt beam="1">  1        2 0.12314470E-01 0.29522283E+03</pdfrwt>
<pdfrwt beam="2">  1       -2 0.41879113E-01 0.29522283E+03</pdfrwt>
<totfact> 0.26962163E+03</totfact>
</mgrwt>
</event>
<event>
 4    1  0.1728870E-004  0.2655591E+03  0.7818608E-02  0.1103848E+00
         -1   -1    0    0    0  501 -0.00000000000E+00  0.00000000000E+00  0.14824715114E+02  0.14824715114E+02  0.00000000000E+00 0.  1.
          1   -1    0    0  501    0  0.00000000000E+00 -0.00000000000E+00 -0.11892576569E+04  0.11892576569E+04  0.00000000000E+00 0.  1.
         25    1    1    2    0    0  0.11453379349E+02 -0.21951125399E+02 -0.81918440315E+03  0.82829711950E+03  0.12000000000E+03 0.  0.
         25    1    1    2    0    0 -0.11453379349E+02  0.21951125399E+02 -0.35524853861E+03  0.37578525249E+03  0.12000000000E+03 0.  0.
<mgrwt>
<rscale>  0 0.26555908E+03</rscale>
<asrwt>0</asrwt>
<pdfrwt beam="1">  1        1 0.18296267E+00 0.26555908E+03</pdfrwt>
<pdfrwt beam="2">  1       -1 0.22807260E-02 0.26555908E+03</pdfrwt>
<totfact> 0.65789893E+03</totfact>
</mgrwt>
</event>
<event>
 4    1  0.1728870E-004  0.5444313E+03  0.7818608E-02  0.1002791E+00
          2   -1    0    0  501    0  0.00000000000E+00  0.00000000000E+00  0.22543315708E+04  0.22543315708E+04  0.00000000000E+00 0.  1.
         -2   -1    0    0    0  501 -0.00000000000E+00 -0.00000000000E+00 -0.32870662447E+02  0.32870662447E+02  0.00000000000E+00 0.  1.
         25    1    1    2    0    0  0.44205713186E+02  0.23830850123E+03  0.98081668602E+03  0.10174214753E+04  0.12000000000E+03 0.  0.
         25    1    1    2    0    0 -0.44205713186E+02 -0.23830850123E+03  0.12406442224E+04  0.12697807580E+04  0.12000000000E+03 0.  0.
<mgrwt>
<rscale>  0 0.54443134E+03</rscale>
<asrwt>0</asrwt>
<pdfrwt beam="1">  1        2 0.34682012E+00 0.54443134E+03</pdfrwt>
<pdfrwt beam="2">  1       -2 0.50570268E-02 0.54443134E+03</pdfrwt>
<totfact> 0.10201496E+03</totfact>
</mgrwt>
</event>
<event>
 4    1  0.1728870E-004  0.2553528E+03  0.7818608E-02  0.1109968E+00
         -2   -1    0    0    0  501 -0.00000000000E+00  0.00000000000E+00  0.16318480985E+02  0.16318480985E+02  0.00000000000E+00 0. -1.
          2   -1    0    0  501    0  0.00000000000E+00 -0.00000000000E+00 -0.99894518288E+03  0.99894518288E+03  0.00000000000E+00 0. -1.
         25    1    1    2    0    0  0.63182932641E+01  0.43036337224E+02 -0.47924013568E+03  0.49594672576E+03  0.12000000000E+03 0.  0.
         25    1    1    2    0    0 -0.63182932641E+01 -0.43036337224E+02 -0.50338656622E+03  0.51931693810E+03  0.12000000000E+03 0.  0.
<mgrwt>
<rscale>  0 0.25535284E+03</rscale>
<asrwt>0</asrwt>
<pdfrwt beam="1">  1        2 0.15368386E+00 0.25535284E+03</pdfrwt>
<pdfrwt beam="2">  1       -2 0.25105358E-02 0.25535284E+03</pdfrwt>
<totfact> 0.14434254E+04</totfact>
</mgrwt>
</event>
<event>
 4    1  0.1728870E-004  0.2485138E+03  0.7818608E-02  0.1114248E+00
         -1   -1    0    0    0  501 -0.00000000000E+00  0.00000000000E+00  0.16781972011E+02  0.16781972011E+02  0.00000000000E+00 0.  1.
          1   -1    0    0  501    0  0.00000000000E+00 -0.00000000000E+00 -0.92002158092E+03  0.92002158092E+03  0.00000000000E+00 0.  1.
         25    1    1    2    0    0  0.20345949526E+02 -0.33364007059E+01 -0.54507966112E+03  0.55851313878E+03  0.12000000000E+03 0.  0.
         25    1    1    2    0    0 -0.20345949526E+02  0.33364007059E+01 -0.35815994779E+03  0.37829041414E+03  0.12000000000E+03 0.  0.
<mgrwt>
<rscale>  0 0.24851379E+03</rscale>
<asrwt>0</asrwt>
<pdfrwt beam="1">  1        1 0.14154177E+00 0.24851379E+03</pdfrwt>
<pdfrwt beam="2">  1       -1 0.25818420E-02 0.24851379E+03</pdfrwt>
<totfact> 0.86272347E+03</totfact>
</mgrwt>
</event>
<event>
 4    1  0.1728870E-004  0.3028942E+03  0.7818608E-02  0.1083803E+00
          2   -1    0    0  501    0  0.00000000000E+00  0.00000000000E+00  0.10732725381E+04  0.10732725381E+04  0.00000000000E+00 0. -1.
         -2   -1    0    0    0  501 -0.00000000000E+00 -0.00000000000E+00 -0.21370368817E+02  0.21370368817E+02  0.00000000000E+00 0. -1.
         25    1    1    2    0    0 -0.53921046731E+02  0.71748487083E+02  0.44669890114E+03  0.47116370080E+03  0.12000000000E+03 0.  0.
         25    1    1    2    0    0  0.53921046731E+02 -0.71748487083E+02  0.60520326812E+03  0.62347920608E+03  0.12000000000E+03 0.  0.
<mgrwt>
<rscale>  0 0.30289424E+03</rscale>
<asrwt>0</asrwt>
<pdfrwt beam="1">  1        2 0.16511881E+00 0.30289424E+03</pdfrwt>
<pdfrwt beam="2">  1       -2 0.32877499E-02 0.30289424E+03</pdfrwt>
<totfact> 0.87622233E+03</totfact>
</mgrwt>
</event>
<event>
 4    1  0.1728870E-004  0.7586542E+03  0.7818608E-02  0.9621870E-01
         -2   -1    0    0    0  501 -0.00000000000E+00  0.00000000000E+00  0.22572135943E+03  0.22572135943E+03  0.00000000000E+00 0. -1.
          2   -1    0    0  501    0  0.00000000000E+00 -0.00000000000E+00 -0.63746309156E+03  0.63746309156E+03  0.00000000000E+00 0. -1.
         25    1    1    2    0    0 -0.12876050909E+03  0.83518717376E+02  0.16445005557E+03  0.25494796651E+03  0.12000000000E+03 0.  0.
         25    1    1    2    0    0  0.12876050909E+03 -0.83518717376E+02 -0.57619178769E+03  0.60823648448E+03  0.12000000000E+03 0.  0.
<mgrwt>
<rscale>  0 0.75865417E+03</rscale>
<asrwt>0</asrwt>
<pdfrwt beam="1">  1        2 0.98071245E-01 0.75865417E+03</pdfrwt>
<pdfrwt beam="2">  1       -2 0.34726363E-01 0.75865417E+03</pdfrwt>
<totfact> 0.36036888E+02</totfact>
</mgrwt>
</event>
<event>
 4    1  0.1728870E-004  0.2887683E+03  0.7818608E-02  0.1090994E+00
         -3   -1    0    0    0  501 -0.00000000000E+00  0.00000000000E+00  0.30824863650E+02  0.30824863650E+02  0.00000000000E+00 0. -1.
          3   -1    0    0  501    0  0.00000000000E+00 -0.00000000000E+00 -0.67629766126E+03  0.67629766126E+03  0.00000000000E+00 0. -1.
         25    1    1    2    0    0  0.57848995281E+02  0.49662868269E+02 -0.38438844021E+03  0.40983823602E+03  0.12000000000E+03 0.  0.
         25    1    1    2    0    0 -0.57848995281E+02 -0.49662868269E+02 -0.26108435740E+03  0.29728428889E+03  0.12000000000E+03 0.  0.
<mgrwt>
<rscale>  0 0.28876830E+03</rscale>
<asrwt>0</asrwt>
<pdfrwt beam="1">  1        3 0.10404580E+00 0.28876830E+03</pdfrwt>
<pdfrwt beam="2">  1       -3 0.47422863E-02 0.28876830E+03</pdfrwt>
<totfact> 0.52301524E+02</totfact>
</mgrwt>
</event>
<event>
 4    1  0.1728870E-004  0.2796119E+03  0.7818608E-02  0.1095901E+00
          1   -1    0    0  501    0  0.00000000000E+00  0.00000000000E+00  0.10677607887E+04  0.10677607887E+04  0.00000000000E+00 0. -1.
         -1   -1    0    0    0  501 -0.00000000000E+00 -0.00000000000E+00 -0.18305324033E+02  0.18305324033E+02  0.00000000000E+00 0. -1.
         25    1    1    2    0    0  0.46125543681E+02  0.52826374080E+02  0.58331539997E+03  0.59964576828E+03  0.12000000000E+03 0.  0.
         25    1    1    2    0    0 -0.46125543681E+02 -0.52826374080E+02  0.46614006471E+03  0.48642034446E+03  0.12000000000E+03 0.  0.
<mgrwt>
<rscale>  0 0.27961193E+03</rscale>
<asrwt>0</asrwt>
<pdfrwt beam="1">  1        1 0.16427084E+00 0.27961193E+03</pdfrwt>
<pdfrwt beam="2">  1       -1 0.28162045E-02 0.27961193E+03</pdfrwt>
<totfact> 0.58992237E+03</totfact>
</mgrwt>
</event>
<event>
 4    1  0.1728870E-004  0.5772942E+03  0.7818608E-02  0.9953666E-01
          2   -1    0    0  501    0  0.00000000000E+00  0.00000000000E+00  0.31416675109E+03  0.31416675109E+03  0.00000000000E+00 0. -1.
         -2   -1    0    0    0  501 -0.00000000000E+00 -0.00000000000E+00 -0.26520042960E+03  0.26520042960E+03  0.00000000000E+00 0. -1.
         25    1    1    2    0    0 -0.17426074582E+03 -0.90383985220E+02 -0.15044442916E+03  0.27489925169E+03  0.12000000000E+03 0.  0.
         25    1    1    2    0    0  0.17426074582E+03  0.90383985220E+02  0.19941075065E+03  0.30446792900E+03  0.12000000000E+03 0.  0.
<mgrwt>
<rscale>  0 0.57729423E+03</rscale>
<asrwt>0</asrwt>
<pdfrwt beam="1">  1        2 0.48333346E-01 0.57729423E+03</pdfrwt>
<pdfrwt beam="2">  1       -2 0.40800066E-01 0.57729423E+03</pdfrwt>
<totfact> 0.59741462E+02</totfact>
</mgrwt>
</event>
<event>
 4    1  0.1728870E-004  0.4317795E+03  0.7818608E-02  0.1033299E+00
         -1   -1    0    0    0  501 -0.00000000000E+00  0.00000000000E+00  0.55882310292E+03  0.55882310292E+03  0.00000000000E+00 0. -1.
          1   -1    0    0  501    0  0.00000000000E+00 -0.00000000000E+00 -0.83404529840E+02  0.83404529840E+02  0.00000000000E+00 0. -1.
         25    1    1    2    0    0  0.28954294525E+02  0.16049964890E+03  0.34911415175E+03  0.40358292757E+03  0.12000000000E+03 0.  0.
         25    1    1    2    0    0 -0.28954294525E+02 -0.16049964890E+03  0.12630442133E+03  0.23864470519E+03  0.12000000000E+03 0.  0.
<mgrwt>
<rscale>  0 0.43177947E+03</rscale>
<asrwt>0</asrwt>
<pdfrwt beam="1">  1        1 0.12831466E-01 0.43177947E+03</pdfrwt>
<pdfrwt beam="2">  1       -1 0.85972783E-01 0.43177947E+03</pdfrwt>
<totfact> 0.64380377E+02</totfact>
</mgrwt>
</event>
<event>
 4    1  0.1728870E-004  0.2508761E+03  0.7818608E-02  0.1112752E+00
          2   -1    0    0  501    0  0.00000000000E+00  0.00000000000E+00  0.11295033789E+04  0.11295033789E+04  0.00000000000E+00 0. -1.
         -2   -1    0    0    0  501 -0.00000000000E+00 -0.00000000000E+00 -0.13930638123E+02  0.13930638123E+02  0.00000000000E+00 0. -1.
         25    1    1    2    0    0  0.16239014717E+02  0.68469049406E+01  0.70364316115E+03  0.71401980640E+03  0.12000000000E+03 0.  0.
         25    1    1    2    0    0 -0.16239014717E+02 -0.68469049406E+01  0.41192957958E+03  0.42941421057E+03  0.12000000000E+03 0.  0.
<mgrwt>
<rscale>  0 0.25087609E+03</rscale>
<asrwt>0</asrwt>
<pdfrwt beam="1">  1        2 0.17376968E+00 0.25087609E+03</pdfrwt>
<pdfrwt beam="2">  1       -2 0.21431760E-02 0.25087609E+03</pdfrwt>
<totfact> 0.15233663E+04</totfact>
</mgrwt>
</event>
<event>
 4    1  0.1728870E-004  0.2674406E+03  0.7818608E-02  0.1102753E+00
         -1   -1    0    0    0  501 -0.00000000000E+00  0.00000000000E+00  0.95539643529E+02  0.95539643529E+02  0.00000000000E+00 0.  1.
          1   -1    0    0  501    0  0.00000000000E+00 -0.00000000000E+00 -0.18715910909E+03  0.18715910909E+03  0.00000000000E+00 0.  1.
         25    1    1    2    0    0 -0.48243798724E+02 -0.31060243552E+02 -0.60338409338E+02  0.14605795592E+03  0.12000000000E+03 0.  0.
         25    1    1    2    0    0  0.48243798724E+02  0.31060243552E+02 -0.31281056220E+02  0.13664079670E+03  0.12000000000E+03 0.  0.
<mgrwt>
<rscale>  0 0.26744057E+03</rscale>
<asrwt>0</asrwt>
<pdfrwt beam="1">  1        1 0.28793709E-01 0.26744057E+03</pdfrwt>
<pdfrwt beam="2">  1       -1 0.14698407E-01 0.26744057E+03</pdfrwt>
<totfact> 0.52545462E+03</totfact>
</mgrwt>
</event>
<event>
 4    1  0.1728870E-004  0.2699911E+03  0.7818608E-02  0.1101285E+00
         -1   -1    0    0    0  501 -0.00000000000E+00  0.00000000000E+00  0.15954735887E+03  0.15954735887E+03  0.00000000000E+00 0. -1.
          1   -1    0    0  501    0  0.00000000000E+00 -0.00000000000E+00 -0.11422188747E+03  0.11422188747E+03  0.00000000000E+00 0. -1.
         25    1    1    2    0    0  0.59311684363E+02  0.17161278531E+02  0.26088636782E+02  0.13745181829E+03  0.12000000000E+03 0.  0.
         25    1    1    2    0    0 -0.59311684363E+02 -0.17161278531E+02  0.19236834616E+02  0.13631742805E+03  0.12000000000E+03 0.  0.
<mgrwt>
<rscale>  0 0.26999111E+03</rscale>
<asrwt>0</asrwt>
<pdfrwt beam="1">  1        1 0.17572598E-01 0.26999111E+03</pdfrwt>
<pdfrwt beam="2">  1       -1 0.24545748E-01 0.26999111E+03</pdfrwt>
<totfact> 0.43119878E+03</totfact>
</mgrwt>
</event>
<event>
 4    1  0.1728870E-004  0.2993765E+03  0.7818608E-02  0.1085553E+00
          1   -1    0    0  501    0  0.00000000000E+00  0.00000000000E+00  0.13038331829E+03  0.13038331829E+03  0.00000000000E+00 0. -1.
         -1   -1    0    0    0  501 -0.00000000000E+00 -0.00000000000E+00 -0.17185146996E+03  0.17185146996E+03  0.00000000000E+00 0. -1.
         25    1    1    2    0    0 -0.32653335168E+01  0.95315130384E+01 -0.11049332312E+03  0.16343281983E+03  0.12000000000E+03 0.  0.
         25    1    1    2    0    0  0.32653335168E+01 -0.95315130384E+01  0.69025171453E+02  0.13880196842E+03  0.12000000000E+03 0.  0.
<mgrwt>
<rscale>  0 0.29937645E+03</rscale>
<asrwt>0</asrwt>
<pdfrwt beam="1">  1        1 0.20058972E-01 0.29937645E+03</pdfrwt>
<pdfrwt beam="2">  1       -1 0.26438688E-01 0.29937645E+03</pdfrwt>
<totfact> 0.32181072E+03</totfact>
</mgrwt>
</event>
<event>
 4    1  0.1728870E-004  0.2789197E+03  0.7818608E-02  0.1096280E+00
         -2   -1    0    0    0  501 -0.00000000000E+00  0.00000000000E+00  0.35016217113E+02  0.35016217113E+02  0.00000000000E+00 0.  1.
          2   -1    0    0  501    0  0.00000000000E+00 -0.00000000000E+00 -0.55542969539E+03  0.55542969539E+03  0.00000000000E+00 0.  1.
         25    1    1    2    0    0  0.36058530398E+02 -0.58621968161E+02 -0.22279716094E+03  0.26225050560E+03  0.12000000000E+03 0.  0.
         25    1    1    2    0    0 -0.36058530398E+02  0.58621968161E+02 -0.29761631734E+03  0.32819540690E+03  0.12000000000E+03 0.  0.
<mgrwt>
<rscale>  0 0.27891968E+03</rscale>
<asrwt>0</asrwt>
<pdfrwt beam="1">  1        2 0.85450715E-01 0.27891968E+03</pdfrwt>
<pdfrwt beam="2">  1       -2 0.53871108E-02 0.27891968E+03</pdfrwt>
<totfact> 0.96000687E+03</totfact>
</mgrwt>
</event>
<event>
 4    1  0.1728870E-004  0.2416778E+03  0.7818608E-02  0.1118680E+00
          1   -1    0    0  501    0  0.00000000000E+00  0.00000000000E+00  0.11267302435E+03  0.11267302435E+03  0.00000000000E+00 0. -1.
         -1   -1    0    0    0  501 -0.00000000000E+00 -0.00000000000E+00 -0.12959657103E+03  0.12959657103E+03  0.00000000000E+00 0. -1.
         25    1    1    2    0    0 -0.81451718132E+01 -0.10600806544E+02 -0.13302332579E+02  0.12147293104E+03  0.12000000000E+03 0.  0.
         25    1    1    2    0    0  0.81451718132E+01  0.10600806544E+02 -0.36212141044E+01  0.12079666434E+03  0.12000000000E+03 0.  0.
<mgrwt>
<rscale>  0 0.24167778E+03</rscale>
<asrwt>0</asrwt>
<pdfrwt beam="1">  1        1 0.17334311E-01 0.24167778E+03</pdfrwt>
<pdfrwt beam="2">  1       -1 0.19937934E-01 0.24167778E+03</pdfrwt>
<totfact> 0.61473521E+03</totfact>
</mgrwt>
</event>
<event>
 4    1  0.1728870E-004  0.2480269E+03  0.7818608E-02  0.1114558E+00
         -2   -1    0    0    0  501 -0.00000000000E+00  0.00000000000E+00  0.10168413890E+03  0.10168413890E+03  0.00000000000E+00 0.  1.
          2   -1    0    0  501    0  0.00000000000E+00 -0.00000000000E+00 -0.15124617593E+03  0.15124617593E+03  0.00000000000E+00 0.  1.
         25    1    1    2    0    0 -0.16568709051E+02  0.14894871456E+02 -0.23702529154E+01  0.12207373761E+03  0.12000000000E+03 0.  0.
         25    1    1    2    0    0  0.16568709051E+02 -0.14894871456E+02 -0.47191784114E+02  0.13085657723E+03  0.12000000000E+03 0.  0.
<mgrwt>
<rscale>  0 0.24802691E+03</rscale>
<asrwt>0</asrwt>
<pdfrwt beam="1">  1        2 0.23268642E-01 0.24802691E+03</pdfrwt>
<pdfrwt beam="2">  1       -2 0.15643714E-01 0.24802691E+03</pdfrwt>
<totfact> 0.73394932E+03</totfact>
</mgrwt>
</event>
<event>
 4    1  0.1728870E-004  0.2823723E+03  0.7818608E-02  0.1094400E+00
          2   -1    0    0  501    0  0.00000000000E+00  0.00000000000E+00  0.16668424195E+03  0.16668424195E+03  0.00000000000E+00 0. -1.
         -2   -1    0    0    0  501 -0.00000000000E+00 -0.00000000000E+00 -0.11958860338E+03  0.11958860338E+03  0.00000000000E+00 0. -1.
         25    1    1    2    0    0  0.52625673102E+02 -0.36986272445E+02 -0.14332591471E+02  0.13690459816E+03  0.12000000000E+03 0.  0.
         25    1    1    2    0    0 -0.52625673102E+02  0.36986272445E+02  0.61428230039E+02  0.14936824718E+03  0.12000000000E+03 0.  0.
<mgrwt>
<rscale>  0 0.28237235E+03</rscale>
<asrwt>0</asrwt>
<pdfrwt beam="1">  1        2 0.25643730E-01 0.28237235E+03</pdfrwt>
<pdfrwt beam="2">  1       -2 0.18398247E-01 0.28237235E+03</pdfrwt>
<totfact> 0.50426812E+03</totfact>
</mgrwt>
</event>
<event>
 4    1  0.1728870E-004  0.2826454E+03  0.7818608E-02  0.1094253E+00
          1   -1    0    0  501    0  0.00000000000E+00  0.00000000000E+00  0.20816662583E+03  0.20816662583E+03  0.00000000000E+00 0. -1.
         -1   -1    0    0    0  501 -0.00000000000E+00 -0.00000000000E+00 -0.95942871611E+02  0.95942871611E+02  0.00000000000E+00 0. -1.
         25    1    1    2    0    0 -0.62175792635E+02  0.14269826520E+02  0.14404149997E+02  0.13666358943E+03  0.12000000000E+03 0.  0.
         25    1    1    2    0    0  0.62175792635E+02 -0.14269826520E+02  0.97819604218E+02  0.16744590801E+03  0.12000000000E+03 0.  0.
<mgrwt>
<rscale>  0 0.28264539E+03</rscale>
<asrwt>0</asrwt>
<pdfrwt beam="1">  1        1 0.32025635E-01 0.28264539E+03</pdfrwt>
<pdfrwt beam="2">  1       -1 0.14760442E-01 0.28264539E+03</pdfrwt>
<totfact> 0.45722279E+03</totfact>
</mgrwt>
</event>
<event>
 4    1  0.1728870E-004  0.3742190E+03  0.7818608E-02  0.1053091E+00
         -2   -1    0    0    0  501 -0.00000000000E+00  0.00000000000E+00  0.34656145905E+02  0.34656145905E+02  0.00000000000E+00 0.  1.
          2   -1    0    0  501    0  0.00000000000E+00 -0.00000000000E+00 -0.10102095562E+04  0.10102095562E+04  0.00000000000E+00 0.  1.
         25    1    1    2    0    0  0.14174268399E+02 -0.41556991554E+01 -0.88649143995E+03  0.89469841445E+03  0.12000000000E+03 0.  0.
         25    1    1    2    0    0 -0.14174268399E+02  0.41556991554E+01 -0.89061970354E+02  0.15016728766E+03  0.12000000000E+03 0.  0.
<mgrwt>
<rscale>  0 0.37421903E+03</rscale>
<asrwt>0</asrwt>
<pdfrwt beam="1">  1        2 0.15541685E+00 0.37421903E+03</pdfrwt>
<pdfrwt beam="2">  1       -2 0.53317150E-02 0.37421903E+03</pdfrwt>
<totfact> 0.46128924E+03</totfact>
</mgrwt>
</event>
<event>
 4    1  0.1728870E-004  0.2893170E+03  0.7818608E-02  0.1090706E+00
          2   -1    0    0  501    0  0.00000000000E+00  0.00000000000E+00  0.20624696998E+03  0.20624696998E+03  0.00000000000E+00 0. -1.
         -2   -1    0    0    0  501 -0.00000000000E+00 -0.00000000000E+00 -0.10146125304E+03  0.10146125304E+03  0.00000000000E+00 0. -1.
         25    1    1    2    0    0 -0.39287534324E+02 -0.64493291116E+02  0.82907824539E+02  0.16424555495E+03  0.12000000000E+03 0.  0.
         25    1    1    2    0    0  0.39287534324E+02  0.64493291116E+02  0.21877892397E+02  0.14346266806E+03  0.12000000000E+03 0.  0.
<mgrwt>
<rscale>  0 0.28931696E+03</rscale>
<asrwt>0</asrwt>
<pdfrwt beam="1">  1        2 0.31730303E-01 0.28931696E+03</pdfrwt>
<pdfrwt beam="2">  1       -2 0.15609424E-01 0.28931696E+03</pdfrwt>
<totfact> 0.52547338E+03</totfact>
</mgrwt>
</event>
<event>
 4    1  0.1728870E-004  0.2716663E+03  0.7818608E-02  0.1100330E+00
          1   -1    0    0  501    0  0.00000000000E+00  0.00000000000E+00  0.11919802548E+04  0.11919802548E+04  0.00000000000E+00 0. -1.
         -1   -1    0    0    0  501 -0.00000000000E+00 -0.00000000000E+00 -0.15478990382E+02  0.15478990382E+02  0.00000000000E+00 0. -1.
         25    1    1    2    0    0 -0.18186451693E+01 -0.33808818215E+01  0.30588779237E+03  0.32860626797E+03  0.12000000000E+03 0.  0.
         25    1    1    2    0    0  0.18186451693E+01  0.33808818215E+01  0.87061347206E+03  0.87885297722E+03  0.12000000000E+03 0.  0.
<mgrwt>
<rscale>  0 0.27166635E+03</rscale>
<asrwt>0</asrwt>
<pdfrwt beam="1">  1        1 0.18338151E+00 0.27166635E+03</pdfrwt>
<pdfrwt beam="2">  1       -1 0.23813841E-02 0.27166635E+03</pdfrwt>
<totfact> 0.61508181E+03</totfact>
</mgrwt>
</event>
<event>
 4    1  0.1728870E-004  0.2771101E+03  0.7818608E-02  0.1097278E+00
          2   -1    0    0  501    0  0.00000000000E+00  0.00000000000E+00  0.12352072795E+04  0.12352072795E+04  0.00000000000E+00 0.  1.
         -2   -1    0    0    0  501 -0.00000000000E+00 -0.00000000000E+00 -0.15541923692E+02  0.15541923692E+02  0.00000000000E+00 0.  1.
         25    1    1    2    0    0 -0.68878887204E+02 -0.34195053360E+01  0.63891027594E+03  0.65372955786E+03  0.12000000000E+03 0.  0.
         25    1    1    2    0    0  0.68878887204E+02  0.34195053360E+01  0.58075507990E+03  0.59701964537E+03  0.12000000000E+03 0.  0.
<mgrwt>
<rscale>  0 0.27711007E+03</rscale>
<asrwt>0</asrwt>
<pdfrwt beam="1">  1        2 0.19003181E+00 0.27711007E+03</pdfrwt>
<pdfrwt beam="2">  1       -2 0.23910662E-02 0.27711007E+03</pdfrwt>
<totfact> 0.11318037E+04</totfact>
</mgrwt>
</event>
<event>
 4    1  0.1728870E-004  0.3191905E+03  0.7818608E-02  0.1076022E+00
         -1   -1    0    0    0  501 -0.00000000000E+00  0.00000000000E+00  0.13549162440E+04  0.13549162440E+04  0.00000000000E+00 0.  1.
          1   -1    0    0  501    0  0.00000000000E+00 -0.00000000000E+00 -0.18798685018E+02  0.18798685018E+02  0.00000000000E+00 0.  1.
         25    1    1    2    0    0 -0.55961315270E+02  0.47193794584E+02  0.99331839266E+03  0.10032150080E+04  0.12000000000E+03 0.  0.
         25    1    1    2    0    0  0.55961315270E+02 -0.47193794584E+02  0.34279916635E+03  0.37049992106E+03  0.12000000000E+03 0.  0.
<mgrwt>
<rscale>  0 0.31919050E+03</rscale>
<asrwt>0</asrwt>
<pdfrwt beam="1">  1        1 0.28921065E-02 0.31919050E+03</pdfrwt>
<pdfrwt beam="2">  1       -1 0.20844858E+00 0.31919050E+03</pdfrwt>
<totfact> 0.52686633E+02</totfact>
</mgrwt>
</event>
<event>
 4    1  0.1728870E-004  0.2479188E+03  0.7818608E-02  0.1114627E+00
         -1   -1    0    0    0  501 -0.00000000000E+00  0.00000000000E+00  0.24140268596E+02  0.24140268596E+02  0.00000000000E+00 0. -1.
          1   -1    0    0  501    0  0.00000000000E+00 -0.00000000000E+00 -0.63652698359E+03  0.63652698359E+03  0.00000000000E+00 0. -1.
         25    1    1    2    0    0  0.83007308902E+01 -0.28489836936E+02 -0.33081398006E+03  0.35315501178E+03  0.12000000000E+03 0.  0.
         25    1    1    2    0    0 -0.83007308902E+01  0.28489836936E+02 -0.28157273493E+03  0.30751224041E+03  0.12000000000E+03 0.  0.
<mgrwt>
<rscale>  0 0.24791880E+03</rscale>
<asrwt>0</asrwt>
<pdfrwt beam="1">  1        1 0.97927213E-01 0.24791880E+03</pdfrwt>
<pdfrwt beam="2">  1       -1 0.37138881E-02 0.24791880E+03</pdfrwt>
<totfact> 0.88132003E+03</totfact>
</mgrwt>
</event>
<event>
 4    1  0.1728870E-004  0.2568945E+03  0.7818608E-02  0.1109024E+00
          3   -1    0    0  501    0  0.00000000000E+00  0.00000000000E+00  0.44320820779E+02  0.44320820779E+02  0.00000000000E+00 0.  1.
         -3   -1    0    0    0  501 -0.00000000000E+00 -0.00000000000E+00 -0.37225598534E+03  0.37225598534E+03  0.00000000000E+00 0.  1.
         25    1    1    2    0    0 -0.34030377093E+02  0.28988136312E+02 -0.18020874890E+03  0.22107367956E+03  0.12000000000E+03 0.  0.
         25    1    1    2    0    0  0.34030377093E+02 -0.28988136312E+02 -0.14772641565E+03  0.19550312656E+03  0.12000000000E+03 0.  0.
<mgrwt>
<rscale>  0 0.25689446E+03</rscale>
<asrwt>0</asrwt>
<pdfrwt beam="1">  1        3 0.68185877E-02 0.25689446E+03</pdfrwt>
<pdfrwt beam="2">  1       -3 0.57270153E-01 0.25689446E+03</pdfrwt>
<totfact> 0.10589019E+03</totfact>
</mgrwt>
</event>
<event>
 4    1  0.1728870E-004  0.2512310E+03  0.7818608E-02  0.1112529E+00
         -1   -1    0    0    0  501 -0.00000000000E+00  0.00000000000E+00  0.68935863877E+02  0.68935863877E+02  0.00000000000E+00 0. -1.
          1   -1    0    0  501    0  0.00000000000E+00 -0.00000000000E+00 -0.22889760180E+03  0.22889760180E+03  0.00000000000E+00 0. -1.
         25    1    1    2    0    0  0.19134685467E+02  0.88805930949E+01 -0.43745518133E+02  0.12945528756E+03  0.12000000000E+03 0.  0.
         25    1    1    2    0    0 -0.19134685467E+02 -0.88805930949E+01 -0.11621621978E+03  0.16837817811E+03  0.12000000000E+03 0.  0.
<mgrwt>
<rscale>  0 0.25123100E+03</rscale>
<asrwt>0</asrwt>
<pdfrwt beam="1">  1        1 0.35215015E-01 0.25123100E+03</pdfrwt>
<pdfrwt beam="2">  1       -1 0.10605518E-01 0.25123100E+03</pdfrwt>
<totfact> 0.67817207E+03</totfact>
</mgrwt>
</event>
<event>
 4    1  0.1728870E-004  0.2764969E+03  0.7818608E-02  0.1097618E+00
          2   -1    0    0  501    0  0.00000000000E+00  0.00000000000E+00  0.48783073739E+03  0.48783073739E+03  0.00000000000E+00 0. -1.
         -2   -1    0    0    0  501 -0.00000000000E+00 -0.00000000000E+00 -0.39178833576E+02  0.39178833576E+02  0.00000000000E+00 0. -1.
         25    1    1    2    0    0 -0.47895579905E+02 -0.49004467865E+02  0.23223418604E+03  0.27023719509E+03  0.12000000000E+03 0.  0.
         25    1    1    2    0    0  0.47895579905E+02  0.49004467865E+02  0.21641771777E+03  0.25677237587E+03  0.12000000000E+03 0.  0.
<mgrwt>
<rscale>  0 0.27649694E+03</rscale>
<asrwt>0</asrwt>
<pdfrwt beam="1">  1        2 0.75050878E-01 0.27649694E+03</pdfrwt>
<pdfrwt beam="2">  1       -2 0.60275132E-02 0.27649694E+03</pdfrwt>
<totfact> 0.93546651E+03</totfact>
</mgrwt>
</event>
<event>
 4    1  0.1728870E-004  0.3219551E+03  0.7818608E-02  0.1074753E+00
          2   -1    0    0  501    0  0.00000000000E+00  0.00000000000E+00  0.11427695780E+04  0.11427695780E+04  0.00000000000E+00 0. -1.
         -2   -1    0    0    0  501 -0.00000000000E+00 -0.00000000000E+00 -0.22676289245E+02  0.22676289245E+02  0.00000000000E+00 0. -1.
         25    1    1    2    0    0 -0.17556432220E+01  0.80276694879E+02  0.30238836883E+03  0.33509126462E+03  0.12000000000E+03 0.  0.
         25    1    1    2    0    0  0.17556432220E+01 -0.80276694879E+02  0.81770491988E+03  0.83035460258E+03  0.12000000000E+03 0.  0.
<mgrwt>
<rscale>  0 0.32195511E+03</rscale>
<asrwt>0</asrwt>
<pdfrwt beam="1">  1        2 0.17581066E+00 0.32195511E+03</pdfrwt>
<pdfrwt beam="2">  1       -2 0.34886608E-02 0.32195511E+03</pdfrwt>
<totfact> 0.73041644E+03</totfact>
</mgrwt>
</event>
<event>
 4    1  0.1728870E-004  0.3069831E+03  0.7818608E-02  0.1081801E+00
          2   -1    0    0  501    0  0.00000000000E+00  0.00000000000E+00  0.22073562374E+03  0.22073562374E+03  0.00000000000E+00 0. -1.
         -2   -1    0    0    0  501 -0.00000000000E+00 -0.00000000000E+00 -0.10673248348E+03  0.10673248348E+03  0.00000000000E+00 0. -1.
         25    1    1    2    0    0 -0.44598697341E+02  0.34010865317E+02 -0.25722485706E+02  0.13493490666E+03  0.12000000000E+03 0.  0.
         25    1    1    2    0    0  0.44598697341E+02 -0.34010865317E+02  0.13972562597E+03  0.19253320056E+03  0.12000000000E+03 0.  0.
<mgrwt>
<rscale>  0 0.30698314E+03</rscale>
<asrwt>0</asrwt>
<pdfrwt beam="1">  1        2 0.33959327E-01 0.30698314E+03</pdfrwt>
<pdfrwt beam="2">  1       -2 0.16420382E-01 0.30698314E+03</pdfrwt>
<totfact> 0.44915742E+03</totfact>
</mgrwt>
</event>
<event>
 4    1  0.1728870E-004  0.4362203E+03  0.7818608E-02  0.1031913E+00
          2   -1    0    0  501    0  0.00000000000E+00  0.00000000000E+00  0.18325542912E+03  0.18325542912E+03  0.00000000000E+00 0. -1.
         -2   -1    0    0    0  501 -0.00000000000E+00 -0.00000000000E+00 -0.25959419887E+03  0.25959419887E+03  0.00000000000E+00 0. -1.
         25    1    1    2    0    0  0.15036004138E+03 -0.36334501018E+02  0.59435934805E+02  0.20459953165E+03  0.12000000000E+03 0.  0.
         25    1    1    2    0    0 -0.15036004138E+03  0.36334501018E+02 -0.13577470455E+03  0.23825009633E+03  0.12000000000E+03 0.  0.
<mgrwt>
<rscale>  0 0.43622034E+03</rscale>
<asrwt>0</asrwt>
<pdfrwt beam="1">  1        2 0.28193143E-01 0.43622034E+03</pdfrwt>
<pdfrwt beam="2">  1       -2 0.39937569E-01 0.43622034E+03</pdfrwt>
<totfact> 0.11313983E+03</totfact>
</mgrwt>
</event>
<event>
 4    1  0.1728870E-004  0.2500925E+03  0.7818608E-02  0.1113246E+00
          1   -1    0    0  501    0  0.00000000000E+00  0.00000000000E+00  0.10768360692E+02  0.10768360692E+02  0.00000000000E+00 0. -1.
         -1   -1    0    0    0  501 -0.00000000000E+00 -0.00000000000E+00 -0.14520839748E+04  0.14520839748E+04  0.00000000000E+00 0. -1.
         25    1    1    2    0    0  0.14652850204E+02  0.28625840427E+02 -0.80387742588E+03  0.81342059268E+03  0.12000000000E+03 0.  0.
         25    1    1    2    0    0 -0.14652850204E+02 -0.28625840427E+02 -0.63743818824E+03  0.64943174282E+03  0.12000000000E+03 0.  0.
<mgrwt>
<rscale>  0 0.25009249E+03</rscale>
<asrwt>0</asrwt>
<pdfrwt beam="1">  1        1 0.16566716E-02 0.25009249E+03</pdfrwt>
<pdfrwt beam="2">  1       -1 0.22339744E+00 0.25009249E+03</pdfrwt>
<totfact> 0.92504842E+02</totfact>
</mgrwt>
</event>
<event>
 4    1  0.1728870E-004  0.2681854E+03  0.7818608E-02  0.1102323E+00
         -4   -1    0    0    0  501 -0.00000000000E+00  0.00000000000E+00  0.90005443452E+02  0.90005443452E+02  0.00000000000E+00 0.  1.
          4   -1    0    0  501    0  0.00000000000E+00 -0.00000000000E+00 -0.19977521463E+03  0.19977521463E+03  0.00000000000E+00 0.  1.
         25    1    1    2    0    0 -0.43669493649E+02 -0.28189135953E+02 -0.86923904874E+02  0.15702680440E+03  0.12000000000E+03 0.  0.
         25    1    1    2    0    0  0.43669493649E+02  0.28189135953E+02 -0.22845866309E+02  0.13275385369E+03  0.12000000000E+03 0.  0.
<mgrwt>
<rscale>  0 0.26818543E+03</rscale>
<asrwt>0</asrwt>
<pdfrwt beam="1">  1        4 0.30734648E-01 0.26818543E+03</pdfrwt>
<pdfrwt beam="2">  1       -4 0.13846991E-01 0.26818543E+03</pdfrwt>
<totfact> 0.82279823E+02</totfact>
</mgrwt>
</event>
<event>
 4    1  0.1728870E-004  0.2543082E+03  0.7818608E-02  0.1110612E+00
         -1   -1    0    0    0  501 -0.00000000000E+00  0.00000000000E+00  0.28119013685E+02  0.28119013685E+02  0.00000000000E+00 0. -1.
          1   -1    0    0  501    0  0.00000000000E+00 -0.00000000000E+00 -0.57499049671E+03  0.57499049671E+03  0.00000000000E+00 0. -1.
         25    1    1    2    0    0 -0.21282907686E+02  0.30519217226E+02 -0.22697592763E+03  0.25942716994E+03  0.12000000000E+03 0.  0.
         25    1    1    2    0    0  0.21282907686E+02 -0.30519217226E+02 -0.31989555540E+03  0.34368234046E+03  0.12000000000E+03 0.  0.
<mgrwt>
<rscale>  0 0.25430820E+03</rscale>
<asrwt>0</asrwt>
<pdfrwt beam="1">  1        1 0.88460069E-01 0.25430820E+03</pdfrwt>
<pdfrwt beam="2">  1       -1 0.43260024E-02 0.25430820E+03</pdfrwt>
<totfact> 0.81003115E+03</totfact>
</mgrwt>
</event>
<event>
 4    1  0.1728870E-004  0.2672190E+03  0.7818608E-02  0.1102882E+00
          2   -1    0    0  501    0  0.00000000000E+00  0.00000000000E+00  0.22064181993E+04  0.22064181993E+04  0.00000000000E+00 0.  1.
         -2   -1    0    0    0  501 -0.00000000000E+00 -0.00000000000E+00 -0.80907118868E+01  0.80907118868E+01  0.00000000000E+00 0.  1.
         25    1    1    2    0    0  0.11324156656E+02  0.57447120322E+02  0.10593454570E+04  0.10677271213E+04  0.12000000000E+03 0.  0.
         25    1    1    2    0    0 -0.11324156656E+02 -0.57447120322E+02  0.11389820303E+04  0.11467817899E+04  0.12000000000E+03 0.  0.
<mgrwt>
<rscale>  0 0.26721897E+03</rscale>
<asrwt>0</asrwt>
<pdfrwt beam="1">  1        2 0.33944847E+00 0.26721897E+03</pdfrwt>
<pdfrwt beam="2">  1       -2 0.12447267E-02 0.26721897E+03</pdfrwt>
<totfact> 0.89509765E+03</totfact>
</mgrwt>
</event>
<event>
 4    1  0.1728870E-004  0.2759889E+03  0.7818608E-02  0.1097900E+00
         -1   -1    0    0    0  501 -0.00000000000E+00  0.00000000000E+00  0.20884150566E+03  0.20884150566E+03  0.00000000000E+00 0.  1.
          1   -1    0    0  501    0  0.00000000000E+00 -0.00000000000E+00 -0.91181437637E+02  0.91181437637E+02  0.00000000000E+00 0.  1.
         25    1    1    2    0    0  0.14661169916E+02  0.61905103284E+02  0.85353019066E+02  0.16041299692E+03  0.12000000000E+03 0.  0.
         25    1    1    2    0    0 -0.14661169916E+02 -0.61905103284E+02  0.32307048955E+02  0.13960994638E+03  0.12000000000E+03 0.  0.
<mgrwt>
<rscale>  0 0.27598890E+03</rscale>
<asrwt>0</asrwt>
<pdfrwt beam="1">  1        1 0.14027914E-01 0.27598890E+03</pdfrwt>
<pdfrwt beam="2">  1       -1 0.32129462E-01 0.27598890E+03</pdfrwt>
<totfact> 0.36787768E+03</totfact>
</mgrwt>
</event>
<event>
 4    1  0.1728870E-004  0.4064169E+03  0.7818608E-02  0.1041580E+00
         -1   -1    0    0    0  501 -0.00000000000E+00  0.00000000000E+00  0.45161228107E+02  0.45161228107E+02  0.00000000000E+00 0.  1.
          1   -1    0    0  501    0  0.00000000000E+00 -0.00000000000E+00 -0.91436103114E+03  0.91436103114E+03  0.00000000000E+00 0.  1.
         25    1    1    2    0    0  0.50408763720E+02  0.51537806522E+02 -0.78235856158E+03  0.79478431530E+03  0.12000000000E+03 0.  0.
         25    1    1    2    0    0 -0.50408763720E+02 -0.51537806522E+02 -0.86841241454E+02  0.16473794395E+03  0.12000000000E+03 0.  0.
<mgrwt>
<rscale>  0 0.40641687E+03</rscale>
<asrwt>0</asrwt>
<pdfrwt beam="1">  1        1 0.14067092E+00 0.40641687E+03</pdfrwt>
<pdfrwt beam="2">  1       -1 0.69478816E-02 0.40641687E+03</pdfrwt>
<totfact> 0.19917450E+03</totfact>
</mgrwt>
</event>
<event>
 4    1  0.1728870E-004  0.2539009E+03  0.7818608E-02  0.1110864E+00
         -2   -1    0    0    0  501 -0.00000000000E+00  0.00000000000E+00  0.16191253799E+03  0.16191253799E+03  0.00000000000E+00 0.  1.
          2   -1    0    0  501    0  0.00000000000E+00 -0.00000000000E+00 -0.99537820359E+02  0.99537820359E+02  0.00000000000E+00 0.  1.
         25    1    1    2    0    0 -0.24369510862E+02  0.33298746173E+02  0.27370175514E+02  0.12981450637E+03  0.12000000000E+03 0.  0.
         25    1    1    2    0    0  0.24369510862E+02 -0.33298746173E+02  0.35004542113E+02  0.13163585197E+03  0.12000000000E+03 0.  0.
<mgrwt>
<rscale>  0 0.25390093E+03</rscale>
<asrwt>0</asrwt>
<pdfrwt beam="1">  1        2 0.15313511E-01 0.25390093E+03</pdfrwt>
<pdfrwt beam="2">  1       -2 0.24909621E-01 0.25390093E+03</pdfrwt>
<totfact> 0.53777478E+03</totfact>
</mgrwt>
</event>
<event>
 4    1  0.1728870E-004  0.2680375E+03  0.7818608E-02  0.1102408E+00
         -2   -1    0    0    0  501 -0.00000000000E+00  0.00000000000E+00  0.43813057432E+02  0.43813057432E+02  0.00000000000E+00 0.  1.
          2   -1    0    0  501    0  0.00000000000E+00 -0.00000000000E+00 -0.40994697043E+03  0.40994697043E+03  0.00000000000E+00 0.  1.
         25    1    1    2    0    0 -0.22635543510E+02 -0.53867987371E+02 -0.16254849153E+03  0.21032389306E+03  0.12000000000E+03 0.  0.
         25    1    1    2    0    0  0.22635543510E+02  0.53867987371E+02 -0.20358542147E+03  0.24343613480E+03  0.12000000000E+03 0.  0.
<mgrwt>
<rscale>  0 0.26803754E+03</rscale>
<asrwt>0</asrwt>
<pdfrwt beam="1">  1        2 0.63068764E-01 0.26803754E+03</pdfrwt>
<pdfrwt beam="2">  1       -2 0.67404704E-02 0.26803754E+03</pdfrwt>
<totfact> 0.95253404E+03</totfact>
</mgrwt>
</event>
<event>
 4    1  0.1728870E-004  0.3044190E+03  0.7818608E-02  0.1083052E+00
          2   -1    0    0  501    0  0.00000000000E+00  0.00000000000E+00  0.93491715840E+03  0.93491715840E+03  0.00000000000E+00 0.  1.
         -2   -1    0    0    0  501 -0.00000000000E+00 -0.00000000000E+00 -0.24780519803E+02  0.24780519803E+02  0.00000000000E+00 0.  1.
         25    1    1    2    0    0 -0.35164461076E+02  0.84123364761E+02  0.38786243104E+03  0.41611362058E+03  0.12000000000E+03 0.  0.
         25    1    1    2    0    0  0.35164461076E+02 -0.84123364761E+02  0.52227420757E+03  0.54358405763E+03  0.12000000000E+03 0.  0.
<mgrwt>
<rscale>  0 0.30441901E+03</rscale>
<asrwt>0</asrwt>
<pdfrwt beam="1">  1        2 0.14383338E+00 0.30441901E+03</pdfrwt>
<pdfrwt beam="2">  1       -2 0.38123884E-02 0.30441901E+03</pdfrwt>
<totfact> 0.85344562E+03</totfact>
</mgrwt>
</event>
<event>
 4    1  0.1728870E-004  0.3072544E+03  0.7818608E-02  0.1081669E+00
         -3   -1    0    0    0  501 -0.00000000000E+00  0.00000000000E+00  0.33752299348E+03  0.33752299348E+03  0.00000000000E+00 0.  1.
          3   -1    0    0  501    0  0.00000000000E+00 -0.00000000000E+00 -0.69925050162E+02  0.69925050162E+02  0.00000000000E+00 0.  1.
         25    1    1    2    0    0  0.44228273792E+02  0.73487843653E+02  0.76843154742E+02  0.16631738874E+03  0.12000000000E+03 0.  0.
         25    1    1    2    0    0 -0.44228273792E+02 -0.73487843653E+02  0.19075478858E+03  0.24113065490E+03  0.12000000000E+03 0.  0.
<mgrwt>
<rscale>  0 0.30725437E+03</rscale>
<asrwt>0</asrwt>
<pdfrwt beam="1">  1        3 0.10757700E-01 0.30725437E+03</pdfrwt>
<pdfrwt beam="2">  1       -3 0.51926614E-01 0.30725437E+03</pdfrwt>
<totfact> 0.62037857E+02</totfact>
</mgrwt>
</event>
<event>
 4    1  0.1728870E-004  0.3924187E+03  0.7818608E-02  0.1046437E+00
         -2   -1    0    0    0  501 -0.00000000000E+00  0.00000000000E+00  0.10158234529E+03  0.10158234529E+03  0.00000000000E+00 0. -1.
          2   -1    0    0  501    0  0.00000000000E+00 -0.00000000000E+00 -0.37898421947E+03  0.37898421947E+03  0.00000000000E+00 0. -1.
         25    1    1    2    0    0  0.73935108631E+02 -0.12926394042E+03 -0.19239688134E+03  0.27127868793E+03  0.12000000000E+03 0.  0.
         25    1    1    2    0    0 -0.73935108631E+02  0.12926394042E+03 -0.85004992848E+02  0.20928787683E+03  0.12000000000E+03 0.  0.
<mgrwt>
<rscale>  0 0.39241868E+03</rscale>
<asrwt>0</asrwt>
<pdfrwt beam="1">  1        2 0.58305264E-01 0.39241868E+03</pdfrwt>
<pdfrwt beam="2">  1       -2 0.15628053E-01 0.39241868E+03</pdfrwt>
<totfact> 0.27237439E+03</totfact>
</mgrwt>
</event>
<event>
 4    1  0.1728870E-004  0.2636582E+03  0.7818608E-02  0.1104965E+00
          2   -1    0    0  501    0  0.00000000000E+00  0.00000000000E+00  0.46368463759E+03  0.46368463759E+03  0.00000000000E+00 0.  1.
         -4   -1    0    0    0  501 -0.00000000000E+00 -0.00000000000E+00 -0.37480016636E+02  0.37480016636E+02  0.00000000000E+00 0.  1.
         25    1    1    2    0    0  0.44846682842E+02 -0.28273824333E+02  0.18844489901E+03  0.22961296581E+03  0.12000000000E+03 0.  0.
         25    1    1    2    0    0 -0.44846682842E+02  0.28273824333E+02  0.23775972194E+03  0.27155168842E+03  0.12000000000E+03 0.  0.
<mgrwt>
<rscale>  0 0.26365817E+03</rscale>
<asrwt>0</asrwt>
<pdfrwt beam="1">  1        2 0.71336094E-01 0.26365817E+03</pdfrwt>
<pdfrwt beam="2">  1       -4 0.57661567E-02 0.26365817E+03</pdfrwt>
<totfact> 0.70026841E+03</totfact>
</mgrwt>
</event>
<event>
 4    1  0.1728870E-004  0.3553174E+03  0.7818608E-02  0.1060453E+00
         -2   -1    0    0    0  501 -0.00000000000E+00  0.00000000000E+00  0.23898768697E+03  0.23898768697E+03  0.00000000000E+00 0.  1.
          2   -1    0    0  501    0  0.00000000000E+00 -0.00000000000E+00 -0.13206794521E+03  0.13206794521E+03  0.00000000000E+00 0.  1.
         25    1    1    2    0    0  0.19760428589E+02 -0.41573882367E+02 -0.74625821488E+02  0.14861990266E+03  0.12000000000E+03 0.  0.
         25    1    1    2    0    0 -0.19760428589E+02  0.41573882367E+02  0.18154556324E+03  0.22243572952E+03  0.12000000000E+03 0.  0.
<mgrwt>
<rscale>  0 0.35531739E+03</rscale>
<asrwt>0</asrwt>
<pdfrwt beam="1">  1        2 0.20318145E-01 0.35531739E+03</pdfrwt>
<pdfrwt beam="2">  1       -2 0.36767336E-01 0.35531739E+03</pdfrwt>
<totfact> 0.19181824E+03</totfact>
</mgrwt>
</event>
<event>
 4    1  0.1728870E-004  0.2443386E+03  0.7818608E-02  0.1116936E+00
         -2   -1    0    0    0  501 -0.00000000000E+00  0.00000000000E+00  0.54562183305E+02  0.54562183305E+02  0.00000000000E+00 0. -1.
          2   -1    0    0  501    0  0.00000000000E+00 -0.00000000000E+00 -0.27354725520E+03  0.27354725520E+03  0.00000000000E+00 0. -1.
         25    1    1    2    0    0  0.65462043048E+01  0.74646410807E+01 -0.13723336642E+03  0.18256935810E+03  0.12000000000E+03 0.  0.
         25    1    1    2    0    0 -0.65462043048E+01 -0.74646410807E+01 -0.81751705479E+02  0.14554008041E+03  0.12000000000E+03 0.  0.
<mgrwt>
<rscale>  0 0.24433858E+03</rscale>
<asrwt>0</asrwt>
<pdfrwt beam="1">  1        2 0.42084194E-01 0.24433858E+03</pdfrwt>
<pdfrwt beam="2">  1       -2 0.83941818E-02 0.24433858E+03</pdfrwt>
<totfact> 0.10430073E+04</totfact>
</mgrwt>
</event>
<event>
 4    1  0.1728870E-004  0.2572775E+03  0.7818608E-02  0.1108790E+00
          2   -1    0    0  501    0  0.00000000000E+00  0.00000000000E+00  0.26076268218E+02  0.26076268218E+02  0.00000000000E+00 0.  1.
         -2   -1    0    0    0  501 -0.00000000000E+00 -0.00000000000E+00 -0.63459715245E+03  0.63459715245E+03  0.00000000000E+00 0.  1.
         25    1    1    2    0    0  0.35593384551E+02  0.14626390058E+02 -0.37058620269E+03  0.39142681811E+03  0.12000000000E+03 0.  0.
         25    1    1    2    0    0 -0.35593384551E+02 -0.14626390058E+02 -0.23793468155E+03  0.26924660257E+03  0.12000000000E+03 0.  0.
<mgrwt>
<rscale>  0 0.25727748E+03</rscale>
<asrwt>0</asrwt>
<pdfrwt beam="1">  1        2 0.40117341E-02 0.25727748E+03</pdfrwt>
<pdfrwt beam="2">  1       -2 0.97630319E-01 0.25727748E+03</pdfrwt>
<totfact> 0.19069096E+03</totfact>
</mgrwt>
</event>
<event>
 4    1  0.1728870E-004  0.3004334E+03  0.7818608E-02  0.1085024E+00
          1   -1    0    0  501    0  0.00000000000E+00  0.00000000000E+00  0.61693627928E+03  0.61693627928E+03  0.00000000000E+00 0.  1.
         -1   -1    0    0    0  501 -0.00000000000E+00 -0.00000000000E+00 -0.36575986066E+02  0.36575986066E+02  0.00000000000E+00 0.  1.
         25    1    1    2    0    0 -0.49162222535E+02  0.69623623966E+02  0.35546173873E+03  0.38473032223E+03  0.12000000000E+03 0.  0.
         25    1    1    2    0    0  0.49162222535E+02 -0.69623623966E+02  0.22489855449E+03  0.26878194312E+03  0.12000000000E+03 0.  0.
<mgrwt>
<rscale>  0 0.30043337E+03</rscale>
<asrwt>0</asrwt>
<pdfrwt beam="1">  1        1 0.94913266E-01 0.30043337E+03</pdfrwt>
<pdfrwt beam="2">  1       -1 0.56270752E-02 0.30043337E+03</pdfrwt>
<totfact> 0.49784545E+03</totfact>
</mgrwt>
</event>
<event>
 4    1  0.1728870E-004  0.2518665E+03  0.7818608E-02  0.1112131E+00
          2   -1    0    0  501    0  0.00000000000E+00  0.00000000000E+00  0.16147759335E+03  0.16147759335E+03  0.00000000000E+00 0. -1.
         -2   -1    0    0    0  501 -0.00000000000E+00 -0.00000000000E+00 -0.98212907130E+02  0.98212907130E+02  0.00000000000E+00 0. -1.
         25    1    1    2    0    0 -0.26219616416E+02 -0.11903598355E+02  0.57524309448E+01  0.12354049701E+03  0.12000000000E+03 0.  0.
         25    1    1    2    0    0  0.26219616416E+02  0.11903598355E+02  0.57512255275E+02  0.13615000347E+03  0.12000000000E+03 0.  0.
<mgrwt>
<rscale>  0 0.25186650E+03</rscale>
<asrwt>0</asrwt>
<pdfrwt beam="1">  1        2 0.24842707E-01 0.25186650E+03</pdfrwt>
<pdfrwt beam="2">  1       -2 0.15109678E-01 0.25186650E+03</pdfrwt>
<totfact> 0.72288549E+03</totfact>
</mgrwt>
</event>
<event>
 4    1  0.1728870E-004  0.3009064E+03  0.7818608E-02  0.1084788E+00
          2   -1    0    0  501    0  0.00000000000E+00  0.00000000000E+00  0.22033929773E+04  0.22033929773E+04  0.00000000000E+00 0.  1.
         -2   -1    0    0    0  501 -0.00000000000E+00 -0.00000000000E+00 -0.10273318832E+02  0.10273318832E+02  0.00000000000E+00 0.  1.
         25    1    1    2    0    0 -0.18112526698E+02  0.42278069272E+02  0.52101399604E+03  0.53662937195E+03  0.12000000000E+03 0.  0.
         25    1    1    2    0    0  0.18112526698E+02 -0.42278069272E+02  0.16721056625E+04  0.16770369242E+04  0.12000000000E+03 0.  0.
<mgrwt>
<rscale>  0 0.30090635E+03</rscale>
<asrwt>0</asrwt>
<pdfrwt beam="1">  1        2 0.33898316E+00 0.30090635E+03</pdfrwt>
<pdfrwt beam="2">  1       -2 0.15805123E-02 0.30090635E+03</pdfrwt>
<totfact> 0.63373404E+03</totfact>
</mgrwt>
</event>
<event>
 4    1  0.1728870E-004  0.2711094E+03  0.7818608E-02  0.1100646E+00
         -2   -1    0    0    0  501 -0.00000000000E+00  0.00000000000E+00  0.16925364244E+02  0.16925364244E+02  0.00000000000E+00 0.  1.
          2   -1    0    0  501    0  0.00000000000E+00 -0.00000000000E+00 -0.10856530014E+04  0.10856530014E+04  0.00000000000E+00 0.  1.
         25    1    1    2    0    0  0.51974228501E+02  0.34401954267E+02 -0.57300112504E+03  0.58874026886E+03  0.12000000000E+03 0.  0.
         25    1    1    2    0    0 -0.51974228501E+02 -0.34401954267E+02 -0.49572651209E+03  0.51383809675E+03  0.12000000000E+03 0.  0.
<mgrwt>
<rscale>  0 0.27110937E+03</rscale>
<asrwt>0</asrwt>
<pdfrwt beam="1">  1        2 0.16702356E+00 0.27110937E+03</pdfrwt>
<pdfrwt beam="2">  1       -2 0.26039018E-02 0.27110937E+03</pdfrwt>
<totfact> 0.12155833E+04</totfact>
</mgrwt>
</event>
<event>
 4    1  0.1728870E-004  0.3315961E+03  0.7818608E-02  0.1070433E+00
         -1   -1    0    0    0  501 -0.00000000000E+00  0.00000000000E+00  0.72009253976E+02  0.72009253976E+02  0.00000000000E+00 0.  1.
          1   -1    0    0  501    0  0.00000000000E+00 -0.00000000000E+00 -0.38174257621E+03  0.38174257621E+03  0.00000000000E+00 0.  1.
         25    1    1    2    0    0  0.62421570218E+02 -0.58697098879E+02 -0.51128880358E+02  0.15606397487E+03  0.12000000000E+03 0.  0.
         25    1    1    2    0    0 -0.62421570218E+02  0.58697098879E+02 -0.25860444188E+03  0.29768785532E+03  0.12000000000E+03 0.  0.
<mgrwt>
<rscale>  0 0.33159613E+03</rscale>
<asrwt>0</asrwt>
<pdfrwt beam="1">  1        1 0.58729627E-01 0.33159613E+03</pdfrwt>
<pdfrwt beam="2">  1       -1 0.11078347E-01 0.33159613E+03</pdfrwt>
<totfact> 0.33483670E+03</totfact>
</mgrwt>
</event>
<event>
 4    1  0.1728870E-004  0.3042073E+03  0.7818608E-02  0.1083156E+00
         -1   -1    0    0    0  501 -0.00000000000E+00  0.00000000000E+00  0.30809567549E+03  0.30809567549E+03  0.00000000000E+00 0.  1.
          1   -1    0    0  501    0  0.00000000000E+00 -0.00000000000E+00 -0.75091997165E+02  0.75091997165E+02  0.00000000000E+00 0.  1.
         25    1    1    2    0    0  0.78311461055E+02  0.49967709954E+02  0.10352935705E+03  0.18370570144E+03  0.12000000000E+03 0.  0.
         25    1    1    2    0    0 -0.78311461055E+02 -0.49967709954E+02  0.12947432128E+03  0.19948197122E+03  0.12000000000E+03 0.  0.
<mgrwt>
<rscale>  0 0.30420730E+03</rscale>
<asrwt>0</asrwt>
<pdfrwt beam="1">  1        1 0.11552615E-01 0.30420730E+03</pdfrwt>
<pdfrwt beam="2">  1       -1 0.47399334E-01 0.30420730E+03</pdfrwt>
<totfact> 0.23951633E+03</totfact>
</mgrwt>
</event>
<event>
 4    1  0.1728870E-004  0.4976010E+03  0.7818608E-02  0.1014407E+00
         -4   -1    0    0    0  501 -0.00000000000E+00  0.00000000000E+00  0.11869608727E+03  0.11869608727E+03  0.00000000000E+00 0. -1.
          4   -1    0    0  501    0  0.00000000000E+00 -0.00000000000E+00 -0.52151418203E+03  0.52151418203E+03  0.00000000000E+00 0. -1.
         25    1    1    2    0    0 -0.14113164297E+03 -0.15894030445E+03 -0.13941803921E+03  0.28110060598E+03  0.12000000000E+03 0.  0.
         25    1    1    2    0    0  0.14113164297E+03  0.15894030445E+03 -0.26340005555E+03  0.35910966332E+03  0.12000000000E+03 0.  0.
<mgrwt>
<rscale>  0 0.49760102E+03</rscale>
<asrwt>0</asrwt>
<pdfrwt beam="1">  1        4 0.80232951E-01 0.49760102E+03</pdfrwt>
<pdfrwt beam="2">  1       -4 0.18260936E-01 0.49760102E+03</pdfrwt>
<totfact> 0.73308342E+01</totfact>
</mgrwt>
</event>
<event>
 4    1  0.1728870E-004  0.2993132E+03  0.7818608E-02  0.1085584E+00
          1   -1    0    0  501    0  0.00000000000E+00  0.00000000000E+00  0.18808019110E+03  0.18808019110E+03  0.00000000000E+00 0.  1.
         -1   -1    0    0    0  501 -0.00000000000E+00 -0.00000000000E+00 -0.11908272989E+03  0.11908272989E+03  0.00000000000E+00 0.  1.
         25    1    1    2    0    0  0.87629276583E+01 -0.85681491635E+02  0.59192110420E+02  0.15912829053E+03  0.12000000000E+03 0.  0.
         25    1    1    2    0    0 -0.87629276583E+01  0.85681491635E+02  0.98053507890E+01  0.14803463046E+03  0.12000000000E+03 0.  0.
<mgrwt>
<rscale>  0 0.29931323E+03</rscale>
<asrwt>0</asrwt>
<pdfrwt beam="1">  1        1 0.28935414E-01 0.29931323E+03</pdfrwt>
<pdfrwt beam="2">  1       -1 0.18320420E-01 0.29931323E+03</pdfrwt>
<totfact> 0.36834196E+03</totfact>
</mgrwt>
</event>
<event>
 4    1  0.1728870E-004  0.5296885E+03  0.7818608E-02  0.1006308E+00
          2   -1    0    0  501    0  0.00000000000E+00  0.00000000000E+00  0.74843427661E+03  0.74843427661E+03  0.00000000000E+00 0. -1.
         -2   -1    0    0    0  501 -0.00000000000E+00 -0.00000000000E+00 -0.93718951149E+02  0.93718951149E+02  0.00000000000E+00 0. -1.
         25    1    1    2    0    0  0.95468361937E+02  0.50251027891E+02  0.66124899371E+03  0.68065380747E+03  0.12000000000E+03 0.  0.
         25    1    1    2    0    0 -0.95468361937E+02 -0.50251027891E+02 -0.65336682471E+01  0.16149942030E+03  0.12000000000E+03 0.  0.
<mgrwt>
<rscale>  0 0.52968849E+03</rscale>
<asrwt>0</asrwt>
<pdfrwt beam="1">  1        2 0.11514373E+00 0.52968849E+03</pdfrwt>
<pdfrwt beam="2">  1       -2 0.14418301E-01 0.52968849E+03</pdfrwt>
<totfact> 0.14126250E+03</totfact>
</mgrwt>
</event>
<event>
 4    1  0.1728870E-004  0.2764657E+03  0.7818608E-02  0.1097635E+00
         -2   -1    0    0    0  501 -0.00000000000E+00  0.00000000000E+00  0.38844971611E+02  0.38844971611E+02  0.00000000000E+00 0. -1.
          2   -1    0    0  501    0  0.00000000000E+00 -0.00000000000E+00 -0.49191238321E+03  0.49191238321E+03  0.00000000000E+00 0. -1.
         25    1    1    2    0    0  0.23699977665E+02 -0.58559142429E+02 -0.27795626992E+03  0.30927423121E+03  0.12000000000E+03 0.  0.
         25    1    1    2    0    0 -0.23699977665E+02  0.58559142429E+02 -0.17511114167E+03  0.22148312360E+03  0.12000000000E+03 0.  0.
<mgrwt>
<rscale>  0 0.27646571E+03</rscale>
<asrwt>0</asrwt>
<pdfrwt beam="1">  1        2 0.75678831E-01 0.27646571E+03</pdfrwt>
<pdfrwt beam="2">  1       -2 0.59761493E-02 0.27646571E+03</pdfrwt>
<totfact> 0.93906052E+03</totfact>
</mgrwt>
</event>
<event>
 4    1  0.1728870E-004  0.2710730E+03  0.7818608E-02  0.1100667E+00
         -2   -1    0    0    0  501 -0.00000000000E+00  0.00000000000E+00  0.69454520549E+02  0.69454520549E+02  0.00000000000E+00 0. -1.
          2   -1    0    0  501    0  0.00000000000E+00 -0.00000000000E+00 -0.26449170828E+03  0.26449170828E+03  0.00000000000E+00 0. -1.
         25    1    1    2    0    0  0.25839812033E+02  0.45839569610E+02 -0.54821845368E+02  0.14203660358E+03  0.12000000000E+03 0.  0.
         25    1    1    2    0    0 -0.25839812033E+02 -0.45839569610E+02 -0.14021534236E+03  0.19190962525E+03  0.12000000000E+03 0.  0.
<mgrwt>
<rscale>  0 0.27107301E+03</rscale>
<asrwt>0</asrwt>
<pdfrwt beam="1">  1        2 0.40691032E-01 0.27107301E+03</pdfrwt>
<pdfrwt beam="2">  1       -2 0.10685311E-01 0.27107301E+03</pdfrwt>
<totfact> 0.74181394E+03</totfact>
</mgrwt>
</event>
<event>
 4    1  0.1728870E-004  0.2606360E+03  0.7818608E-02  0.1106762E+00
         -2   -1    0    0    0  501 -0.00000000000E+00  0.00000000000E+00  0.40119015425E+02  0.40119015425E+02  0.00000000000E+00 0.  1.
          2   -1    0    0  501    0  0.00000000000E+00 -0.00000000000E+00 -0.42331002110E+03  0.42331002110E+03  0.00000000000E+00 0.  1.
         25    1    1    2    0    0 -0.10139601421E+02  0.46986801529E+02 -0.22093151383E+03  0.25597129691E+03  0.12000000000E+03 0.  0.
         25    1    1    2    0    0  0.10139601421E+02 -0.46986801529E+02 -0.16225949184E+03  0.20745773962E+03  0.12000000000E+03 0.  0.
<mgrwt>
<rscale>  0 0.26063600E+03</rscale>
<asrwt>0</asrwt>
<pdfrwt beam="1">  1        2 0.65124620E-01 0.26063600E+03</pdfrwt>
<pdfrwt beam="2">  1       -2 0.61721561E-02 0.26063600E+03</pdfrwt>
<totfact> 0.10521663E+04</totfact>
</mgrwt>
</event>
<event>
 4    1  0.1728870E-004  0.2832456E+03  0.7818608E-02  0.1093929E+00
         -2   -1    0    0    0  501 -0.00000000000E+00  0.00000000000E+00  0.57749049410E+01  0.57749049410E+01  0.00000000000E+00 0.  1.
          2   -1    0    0  501    0  0.00000000000E+00 -0.00000000000E+00 -0.34731343345E+04  0.34731343345E+04  0.00000000000E+00 0.  1.
         25    1    1    2    0    0  0.38997438915E+02  0.33039061613E+02 -0.10559634267E+04  0.10639883169E+04  0.12000000000E+03 0.  0.
         25    1    1    2    0    0 -0.38997438915E+02 -0.33039061613E+02 -0.24113960028E+04  0.24149209226E+04  0.12000000000E+03 0.  0.
<mgrwt>
<rscale>  0 0.28324562E+03</rscale>
<asrwt>0</asrwt>
<pdfrwt beam="1">  1        2 0.53432851E+00 0.28324562E+03</pdfrwt>
<pdfrwt beam="2">  1       -2 0.88844666E-03 0.28324562E+03</pdfrwt>
<totfact> 0.26715035E+03</totfact>
</mgrwt>
</event>
<event>
 4    1  0.1728870E-004  0.2506759E+03  0.7818608E-02  0.1112878E+00
         -1   -1    0    0    0  501 -0.00000000000E+00  0.00000000000E+00  0.21835128746E+03  0.21835128746E+03  0.00000000000E+00 0.  1.
          1   -1    0    0  501    0  0.00000000000E+00 -0.00000000000E+00 -0.71946447332E+02  0.71946447332E+02  0.00000000000E+00 0.  1.
         25    1    1    2    0    0 -0.14879950372E+02 -0.50035730760E+01  0.11096211859E+03  0.16419208394E+03  0.12000000000E+03 0.  0.
         25    1    1    2    0    0  0.14879950372E+02  0.50035730760E+01  0.35442721536E+02  0.12610565085E+03  0.12000000000E+03 0.  0.
<mgrwt>
<rscale>  0 0.25067588E+03</rscale>
<asrwt>0</asrwt>
<pdfrwt beam="1">  1        1 0.11068684E-01 0.25067588E+03</pdfrwt>
<pdfrwt beam="2">  1       -1 0.33592505E-01 0.25067588E+03</pdfrwt>
<totfact> 0.46505250E+03</totfact>
</mgrwt>
</event>
<event>
 4    1  0.1728870E-004  0.2973217E+03  0.7818608E-02  0.1086587E+00
          2   -1    0    0  501    0  0.00000000000E+00  0.00000000000E+00  0.23246052515E+04  0.23246052515E+04  0.00000000000E+00 0.  1.
         -2   -1    0    0    0  501 -0.00000000000E+00 -0.00000000000E+00 -0.95070095669E+01  0.95070095669E+01  0.00000000000E+00 0.  1.
         25    1    1    2    0    0 -0.59793711124E+02 -0.40058079880E+02  0.15516474895E+04  0.15579441163E+04  0.12000000000E+03 0.  0.
         25    1    1    2    0    0  0.59793711124E+02  0.40058079880E+02  0.76345075241E+03  0.77616814480E+03  0.12000000000E+03 0.  0.
<mgrwt>
<rscale>  0 0.29732167E+03</rscale>
<asrwt>0</asrwt>
<pdfrwt beam="1">  1        2 0.35763112E+00 0.29732167E+03</pdfrwt>
<pdfrwt beam="2">  1       -2 0.14626187E-02 0.29732167E+03</pdfrwt>
<totfact> 0.61134897E+03</totfact>
</mgrwt>
</event>
<event>
 4    1  0.1728870E-004  0.2524926E+03  0.7818608E-02  0.1111740E+00
          2   -1    0    0  501    0  0.00000000000E+00  0.00000000000E+00  0.59261611162E+02  0.59261611162E+02  0.00000000000E+00 0.  1.
         -2   -1    0    0    0  501 -0.00000000000E+00 -0.00000000000E+00 -0.26894513656E+03  0.26894513656E+03  0.00000000000E+00 0.  1.
         25    1    1    2    0    0  0.71789707185E+01 -0.99680938077E+01 -0.15325586183E+03  0.19503399627E+03  0.12000000000E+03 0.  0.
         25    1    1    2    0    0 -0.71789707185E+01  0.99680938077E+01 -0.56427663572E+02  0.13317275146E+03  0.12000000000E+03 0.  0.
<mgrwt>
<rscale>  0 0.25249255E+03</rscale>
<asrwt>0</asrwt>
<pdfrwt beam="1">  1        2 0.91171711E-02 0.25249255E+03</pdfrwt>
<pdfrwt beam="2">  1       -2 0.41376174E-01 0.25249255E+03</pdfrwt>
<totfact> 0.39804176E+03</totfact>
</mgrwt>
</event>
<event>
 4    1  0.1728870E-004  0.3352982E+03  0.7818608E-02  0.1068816E+00
          1   -1    0    0  501    0  0.00000000000E+00  0.00000000000E+00  0.72494721043E+03  0.72494721043E+03  0.00000000000E+00 0. -1.
         -1   -1    0    0    0  501 -0.00000000000E+00 -0.00000000000E+00 -0.38770030462E+02  0.38770030462E+02  0.00000000000E+00 0. -1.
         25    1    1    2    0    0 -0.77931369568E+02 -0.86688489491E+02  0.31834271584E+03  0.35962519002E+03  0.12000000000E+03 0.  0.
         25    1    1    2    0    0  0.77931369568E+02  0.86688489491E+02  0.36783446413E+03  0.40409205087E+03  0.12000000000E+03 0.  0.
<mgrwt>
<rscale>  0 0.33529823E+03</rscale>
<asrwt>0</asrwt>
<pdfrwt beam="1">  1        1 0.11153033E+00 0.33529823E+03</pdfrwt>
<pdfrwt beam="2">  1       -1 0.59646206E-02 0.33529823E+03</pdfrwt>
<totfact> 0.36173753E+03</totfact>
</mgrwt>
</event>
<event>
 4    1  0.1728870E-004  0.2721213E+03  0.7818608E-02  0.1100072E+00
          2   -1    0    0  501    0  0.00000000000E+00  0.00000000000E+00  0.26413351238E+03  0.26413351238E+03  0.00000000000E+00 0.  1.
         -2   -1    0    0    0  501 -0.00000000000E+00 -0.00000000000E+00 -0.70087647128E+02  0.70087647128E+02  0.00000000000E+00 0.  1.
         25    1    1    2    0    0 -0.15972741165E+02 -0.35479793386E+02  0.15963199154E+03  0.20346084862E+03  0.12000000000E+03 0.  0.
         25    1    1    2    0    0  0.15972741165E+02  0.35479793386E+02  0.34413873712E+02  0.13076031089E+03  0.12000000000E+03 0.  0.
<mgrwt>
<rscale>  0 0.27212127E+03</rscale>
<asrwt>0</asrwt>
<pdfrwt beam="1">  1        2 0.40635924E-01 0.27212127E+03</pdfrwt>
<pdfrwt beam="2">  1       -2 0.10782715E-01 0.27212127E+03</pdfrwt>
<totfact> 0.73230907E+03</totfact>
</mgrwt>
</event>
<event>
 4    1  0.1728870E-004  0.2549982E+03  0.7818608E-02  0.1110186E+00
         -4   -1    0    0    0  501 -0.00000000000E+00  0.00000000000E+00  0.50556851666E+02  0.50556851666E+02  0.00000000000E+00 0.  1.
          4   -1    0    0  501    0  0.00000000000E+00 -0.00000000000E+00 -0.32153940136E+03  0.32153940136E+03  0.00000000000E+00 0.  1.
         25    1    1    2    0    0  0.10215559623E+02  0.41792110640E+02 -0.13878070386E+03  0.18844368372E+03  0.12000000000E+03 0.  0.
         25    1    1    2    0    0 -0.10215559623E+02 -0.41792110640E+02 -0.13220184583E+03  0.18365256930E+03  0.12000000000E+03 0.  0.
<mgrwt>
<rscale>  0 0.25499819E+03</rscale>
<asrwt>0</asrwt>
<pdfrwt beam="1">  1        4 0.49467600E-01 0.25499819E+03</pdfrwt>
<pdfrwt beam="2">  1       -4 0.77779773E-02 0.25499819E+03</pdfrwt>
<totfact> 0.85130040E+02</totfact>
</mgrwt>
</event>
<event>
 4    1  0.1728870E-004  0.2643335E+03  0.7818608E-02  0.1104567E+00
         -1   -1    0    0    0  501 -0.00000000000E+00  0.00000000000E+00  0.21214968445E+02  0.21214968445E+02  0.00000000000E+00 0.  1.
          1   -1    0    0  501    0  0.00000000000E+00 -0.00000000000E+00 -0.82338317675E+03  0.82338317675E+03  0.00000000000E+00 0.  1.
         25    1    1    2    0    0 -0.45692986779E+02 -0.28158800147E+02 -0.44481061774E+03  0.46382890458E+03  0.12000000000E+03 0.  0.
         25    1    1    2    0    0  0.45692986779E+02  0.28158800147E+02 -0.35735759056E+03  0.38076924062E+03  0.12000000000E+03 0.  0.
<mgrwt>
<rscale>  0 0.26433349E+03</rscale>
<asrwt>0</asrwt>
<pdfrwt beam="1">  1        1 0.12667434E+00 0.26433349E+03</pdfrwt>
<pdfrwt beam="2">  1       -1 0.32638411E-02 0.26433349E+03</pdfrwt>
<totfact> 0.73088704E+03</totfact>
</mgrwt>
</event>
<event>
 4    1  0.1728870E-004  0.2576145E+03  0.7818608E-02  0.1108585E+00
          1   -1    0    0  501    0  0.00000000000E+00  0.00000000000E+00  0.37840067983E+03  0.37840067983E+03  0.00000000000E+00 0.  1.
         -1   -1    0    0    0  501 -0.00000000000E+00 -0.00000000000E+00 -0.43845867557E+02  0.43845867557E+02  0.00000000000E+00 0.  1.
         25    1    1    2    0    0 -0.41653931507E+02  0.19139551671E+02  0.18282119602E+03  0.22343894504E+03  0.12000000000E+03 0.  0.
         25    1    1    2    0    0  0.41653931507E+02 -0.19139551671E+02  0.15173361625E+03  0.19880760234E+03  0.12000000000E+03 0.  0.
<mgrwt>
<rscale>  0 0.25761449E+03</rscale>
<asrwt>0</asrwt>
<pdfrwt beam="1">  1        1 0.58215487E-01 0.25761449E+03</pdfrwt>
<pdfrwt beam="2">  1       -1 0.67455183E-02 0.25761449E+03</pdfrwt>
<totfact> 0.72080503E+03</totfact>
</mgrwt>
</event>
<event>
 4    1  0.1728870E-004  0.3222896E+03  0.7818608E-02  0.1074600E+00
         -3   -1    0    0    0  501 -0.00000000000E+00  0.00000000000E+00  0.71609826414E+03  0.71609826414E+03  0.00000000000E+00 0. -1.
          3   -1    0    0  501    0  0.00000000000E+00 -0.00000000000E+00 -0.36262683900E+02  0.36262683900E+02  0.00000000000E+00 0. -1.
         25    1    1    2    0    0  0.10710023698E+03 -0.38707016727E+01  0.36108291797E+03  0.39530534621E+03  0.12000000000E+03 0.  0.
         25    1    1    2    0    0 -0.10710023698E+03  0.38707016727E+01  0.31875266227E+03  0.35705560183E+03  0.12000000000E+03 0.  0.
<mgrwt>
<rscale>  0 0.32228959E+03</rscale>
<asrwt>0</asrwt>
<pdfrwt beam="1">  1        3 0.55788750E-02 0.32228959E+03</pdfrwt>
<pdfrwt beam="2">  1       -3 0.11016895E+00 0.32228959E+03</pdfrwt>
<totfact> 0.35512709E+02</totfact>
</mgrwt>
</event>
<event>
 4    1  0.1728870E-004  0.5476605E+03  0.7818608E-02  0.1002037E+00
         -1   -1    0    0    0  501 -0.00000000000E+00  0.00000000000E+00  0.37154717641E+03  0.37154717641E+03  0.00000000000E+00 0. -1.
          1   -1    0    0  501    0  0.00000000000E+00 -0.00000000000E+00 -0.20181286078E+03  0.20181286078E+03  0.00000000000E+00 0. -1.
         25    1    1    2    0    0  0.31200946048E+02  0.10626692559E+03 -0.14525862763E+03  0.21855486133E+03  0.12000000000E+03 0.  0.
         25    1    1    2    0    0 -0.31200946048E+02 -0.10626692559E+03  0.31499294327E+03  0.35480517586E+03  0.12000000000E+03 0.  0.
<mgrwt>
<rscale>  0 0.54766047E+03</rscale>
<asrwt>0</asrwt>
<pdfrwt beam="1">  1        1 0.31048133E-01 0.54766047E+03</pdfrwt>
<pdfrwt beam="2">  1       -1 0.57161104E-01 0.54766047E+03</pdfrwt>
<totfact> 0.46115927E+02</totfact>
</mgrwt>
</event>
<event>
 4    1  0.1728870E-004  0.3906481E+03  0.7818608E-02  0.1047067E+00
         -1   -1    0    0    0  501 -0.00000000000E+00  0.00000000000E+00  0.15931401502E+02  0.15931401502E+02  0.00000000000E+00 0. -1.
          1   -1    0    0  501    0  0.00000000000E+00 -0.00000000000E+00 -0.23947347899E+04  0.23947347899E+04  0.00000000000E+00 0. -1.
         25    1    1    2    0    0  0.12006758988E+03  0.93593355595E+02 -0.10413583841E+04  0.10592465372E+04  0.12000000000E+03 0.  0.
         25    1    1    2    0    0 -0.12006758988E+03 -0.93593355595E+02 -0.13374450042E+04  0.13514196542E+04  0.12000000000E+03 0.  0.
<mgrwt>
<rscale>  0 0.39064808E+03</rscale>
<asrwt>0</asrwt>
<pdfrwt beam="1">  1        1 0.36842052E+00 0.39064808E+03</pdfrwt>
<pdfrwt beam="2">  1       -1 0.24509863E-02 0.39064808E+03</pdfrwt>
<totfact> 0.93530682E+02</totfact>
</mgrwt>
</event>
<event>
 4    1  0.1728870E-004  0.3286636E+03  0.7818608E-02  0.1071730E+00
          2   -1    0    0  501    0  0.00000000000E+00  0.00000000000E+00  0.70992583073E+03  0.70992583073E+03  0.00000000000E+00 0.  1.
         -2   -1    0    0    0  501 -0.00000000000E+00 -0.00000000000E+00 -0.38039094054E+02  0.38039094054E+02  0.00000000000E+00 0.  1.
         25    1    1    2    0    0 -0.97171726155E+02  0.56162284205E+02  0.32935189398E+03  0.36806143047E+03  0.12000000000E+03 0.  0.
         25    1    1    2    0    0  0.97171726155E+02 -0.56162284205E+02  0.34253484269E+03  0.37990349431E+03  0.12000000000E+03 0.  0.
<mgrwt>
<rscale>  0 0.32866357E+03</rscale>
<asrwt>0</asrwt>
<pdfrwt beam="1">  1        2 0.10921935E+00 0.32866357E+03</pdfrwt>
<pdfrwt beam="2">  1       -2 0.58521688E-02 0.32866357E+03</pdfrwt>
<totfact> 0.63580307E+03</totfact>
</mgrwt>
</event>
<event>
 4    1  0.1728870E-004  0.3417245E+03  0.7818608E-02  0.1066064E+00
         -2   -1    0    0    0  501 -0.00000000000E+00  0.00000000000E+00  0.81695189610E+01  0.81695189610E+01  0.00000000000E+00 0. -1.
          2   -1    0    0  501    0  0.00000000000E+00 -0.00000000000E+00 -0.35735156162E+04  0.35735156162E+04  0.00000000000E+00 0. -1.
         25    1    1    2    0    0 -0.88058240055E+02 -0.44331269856E+02 -0.25292991688E+04  0.25340627065E+04  0.12000000000E+03 0.  0.
         25    1    1    2    0    0  0.88058240055E+02  0.44331269856E+02 -0.10360469285E+04  0.10476224287E+04  0.12000000000E+03 0.  0.
<mgrwt>
<rscale>  0 0.34172447E+03</rscale>
<asrwt>0</asrwt>
<pdfrwt beam="1">  1        2 0.54977103E+00 0.34172447E+03</pdfrwt>
<pdfrwt beam="2">  1       -2 0.12568505E-02 0.34172447E+03</pdfrwt>
<totfact> 0.13677912E+03</totfact>
</mgrwt>
</event>
<event>
 4    1  0.1728870E-004  0.2504118E+03  0.7818608E-02  0.1113045E+00
         -2   -1    0    0    0  501 -0.00000000000E+00  0.00000000000E+00  0.23465899761E+02  0.23465899761E+02  0.00000000000E+00 0. -1.
          2   -1    0    0  501    0  0.00000000000E+00 -0.00000000000E+00 -0.66805516347E+03  0.66805516347E+03  0.00000000000E+00 0. -1.
         25    1    1    2    0    0 -0.22579443309E+02 -0.16170419733E+02 -0.38436482251E+03  0.40361817417E+03  0.12000000000E+03 0.  0.
         25    1    1    2    0    0  0.22579443309E+02  0.16170419733E+02 -0.26022444120E+03  0.28790288906E+03  0.12000000000E+03 0.  0.
<mgrwt>
<rscale>  0 0.25041178E+03</rscale>
<asrwt>0</asrwt>
<pdfrwt beam="1">  1        2 0.10277771E+00 0.25041178E+03</pdfrwt>
<pdfrwt beam="2">  1       -2 0.36101388E-02 0.25041178E+03</pdfrwt>
<totfact> 0.14104773E+04</totfact>
</mgrwt>
</event>
<event>
 4    1  0.1728870E-004  0.2953218E+03  0.7818608E-02  0.1087603E+00
          1   -1    0    0  501    0  0.00000000000E+00  0.00000000000E+00  0.41936548364E+03  0.41936548364E+03  0.00000000000E+00 0.  1.
         -1   -1    0    0    0  501 -0.00000000000E+00 -0.00000000000E+00 -0.51992223372E+02  0.51992223372E+02  0.00000000000E+00 0.  1.
         25    1    1    2    0    0 -0.45371388280E+02  0.73093805899E+02  0.18619840048E+03  0.23763651166E+03  0.12000000000E+03 0.  0.
         25    1    1    2    0    0  0.45371388280E+02 -0.73093805899E+02  0.18117485979E+03  0.23372119535E+03  0.12000000000E+03 0.  0.
<mgrwt>
<rscale>  0 0.29532182E+03</rscale>
<asrwt>0</asrwt>
<pdfrwt beam="1">  1        1 0.64517765E-01 0.29532182E+03</pdfrwt>
<pdfrwt beam="2">  1       -1 0.79988039E-02 0.29532182E+03</pdfrwt>
<totfact> 0.48952821E+03</totfact>
</mgrwt>
</event>
<event>
 4    1  0.1728870E-004  0.2502281E+03  0.7818608E-02  0.1113161E+00
         -1   -1    0    0    0  501 -0.00000000000E+00  0.00000000000E+00  0.98731831816E+02  0.98731831816E+02  0.00000000000E+00 0. -1.
          1   -1    0    0  501    0  0.00000000000E+00 -0.00000000000E+00 -0.15854587424E+03  0.15854587424E+03  0.00000000000E+00 0. -1.
         25    1    1    2    0    0 -0.33393931249E+02  0.81437207256E+01 -0.38634370473E+02  0.13066785914E+03  0.12000000000E+03 0.  0.
         25    1    1    2    0    0  0.33393931249E+02 -0.81437207256E+01 -0.21179671953E+02  0.12660984691E+03  0.12000000000E+03 0.  0.
<mgrwt>
<rscale>  0 0.25022809E+03</rscale>
<asrwt>0</asrwt>
<pdfrwt beam="1">  1        1 0.24391673E-01 0.25022809E+03</pdfrwt>
<pdfrwt beam="2">  1       -1 0.15189513E-01 0.25022809E+03</pdfrwt>
<totfact> 0.61400819E+03</totfact>
</mgrwt>
</event>
<event>
 4    1  0.1728870E-004  0.2443484E+03  0.7818608E-02  0.1116929E+00
         -1   -1    0    0    0  501 -0.00000000000E+00  0.00000000000E+00  0.22760360926E+02  0.22760360926E+02  0.00000000000E+00 0.  1.
          1   -1    0    0  501    0  0.00000000000E+00 -0.00000000000E+00 -0.65581295167E+03  0.65581295167E+03  0.00000000000E+00 0.  1.
         25    1    1    2    0    0 -0.98476683485E+01  0.43177115830E+00 -0.25898146166E+03  0.28560210168E+03  0.12000000000E+03 0.  0.
         25    1    1    2    0    0  0.98476683485E+01 -0.43177115830E+00 -0.37407112908E+03  0.39297121092E+03  0.12000000000E+03 0.  0.
<mgrwt>
<rscale>  0 0.24434844E+03</rscale>
<asrwt>0</asrwt>
<pdfrwt beam="1">  1        1 0.10089429E+00 0.24434844E+03</pdfrwt>
<pdfrwt beam="2">  1       -1 0.35015943E-02 0.24434844E+03</pdfrwt>
<totfact> 0.92120829E+03</totfact>
</mgrwt>
</event>
<event>
 4    1  0.1728870E-004  0.2704754E+03  0.7818608E-02  0.1101008E+00
         -2   -1    0    0    0  501 -0.00000000000E+00  0.00000000000E+00  0.96254222907E+01  0.96254222907E+01  0.00000000000E+00 0.  1.
          2   -1    0    0  501    0  0.00000000000E+00 -0.00000000000E+00 -0.19000976306E+04  0.19000976306E+04  0.00000000000E+00 0.  1.
         25    1    1    2    0    0  0.47637300463E+02 -0.12899638612E+02 -0.67604891127E+03  0.68838785833E+03  0.12000000000E+03 0.  0.
         25    1    1    2    0    0 -0.47637300463E+02  0.12899638612E+02 -0.12144232970E+04  0.12213351945E+04  0.12000000000E+03 0.  0.
<mgrwt>
<rscale>  0 0.27047545E+03</rscale>
<asrwt>0</asrwt>
<pdfrwt beam="1">  1        2 0.29232258E+00 0.27047545E+03</pdfrwt>
<pdfrwt beam="2">  1       -2 0.14808349E-02 0.27047545E+03</pdfrwt>
<totfact> 0.10077481E+04</totfact>
</mgrwt>
</event>
<event>
 4    1  0.1728870E-004  0.3090327E+03  0.7818608E-02  0.1080810E+00
         -1   -1    0    0    0  501 -0.00000000000E+00  0.00000000000E+00  0.37979278762E+02  0.37979278762E+02  0.00000000000E+00 0.  1.
          1   -1    0    0  501    0  0.00000000000E+00 -0.00000000000E+00 -0.62864021819E+03  0.62864021819E+03  0.00000000000E+00 0.  1.
         25    1    1    2    0    0  0.17590597568E+02  0.81603902845E+02 -0.40333020230E+03  0.42900335450E+03  0.12000000000E+03 0.  0.
         25    1    1    2    0    0 -0.17590597568E+02 -0.81603902845E+02 -0.18733073713E+03  0.23761614246E+03  0.12000000000E+03 0.  0.
<mgrwt>
<rscale>  0 0.30903270E+03</rscale>
<asrwt>0</asrwt>
<pdfrwt beam="1">  1        1 0.96713882E-01 0.30903270E+03</pdfrwt>
<pdfrwt beam="2">  1       -1 0.58429658E-02 0.30903270E+03</pdfrwt>
<totfact> 0.45830467E+03</totfact>
</mgrwt>
</event>
<event>
 4    1  0.1728870E-004  0.2486765E+03  0.7818608E-02  0.1114144E+00
         -1   -1    0    0    0  501 -0.00000000000E+00  0.00000000000E+00  0.22536037262E+02  0.22536037262E+02  0.00000000000E+00 0. -1.
          1   -1    0    0  501    0  0.00000000000E+00 -0.00000000000E+00 -0.68601250704E+03  0.68601250704E+03  0.00000000000E+00 0. -1.
         25    1    1    2    0    0 -0.18956202620E+02 -0.26278698144E+02 -0.34079151105E+03  0.36275165279E+03  0.12000000000E+03 0.  0.
         25    1    1    2    0    0  0.18956202620E+02  0.26278698144E+02 -0.32268495873E+03  0.34579689152E+03  0.12000000000E+03 0.  0.
<mgrwt>
<rscale>  0 0.24867652E+03</rscale>
<asrwt>0</asrwt>
<pdfrwt beam="1">  1        1 0.10554038E+00 0.24867652E+03</pdfrwt>
<pdfrwt beam="2">  1       -1 0.34670829E-02 0.24867652E+03</pdfrwt>
<totfact> 0.87693965E+03</totfact>
</mgrwt>
</event>
<event>
 4    1  0.1728870E-004  0.2635207E+03  0.7818608E-02  0.1105046E+00
          3   -1    0    0  501    0  0.00000000000E+00  0.00000000000E+00  0.75836114907E+02  0.75836114907E+02  0.00000000000E+00 0.  1.
         -3   -1    0    0    0  501 -0.00000000000E+00 -0.00000000000E+00 -0.22892505107E+03  0.22892505107E+03  0.00000000000E+00 0.  1.
         25    1    1    2    0    0 -0.18492520188E+01 -0.33718575451E+02 -0.27200819546E+02  0.12759406980E+03  0.12000000000E+03 0.  0.
         25    1    1    2    0    0  0.18492520188E+01  0.33718575451E+02 -0.12588811662E+03  0.17716709618E+03  0.12000000000E+03 0.  0.
<mgrwt>
<rscale>  0 0.26352067E+03</rscale>
<asrwt>0</asrwt>
<pdfrwt beam="1">  1        3 0.11667095E-01 0.26352067E+03</pdfrwt>
<pdfrwt beam="2">  1       -3 0.35219238E-01 0.26352067E+03</pdfrwt>
<totfact> 0.11443986E+03</totfact>
</mgrwt>
</event>
<event>
 4    1  0.1728870E-004  0.2749550E+03  0.7818608E-02  0.1098477E+00
          1   -1    0    0  501    0  0.00000000000E+00  0.00000000000E+00  0.75617500958E+03  0.75617500958E+03  0.00000000000E+00 0. -1.
         -1   -1    0    0    0  501 -0.00000000000E+00 -0.00000000000E+00 -0.24994295907E+02  0.24994295907E+02  0.00000000000E+00 0. -1.
         25    1    1    2    0    0 -0.12801196727E+02 -0.65096442341E+02  0.33737276111E+03  0.36417275760E+03  0.12000000000E+03 0.  0.
         25    1    1    2    0    0  0.12801196727E+02  0.65096442341E+02  0.39380795256E+03  0.41699654788E+03  0.12000000000E+03 0.  0.
<mgrwt>
<rscale>  0 0.27495499E+03</rscale>
<asrwt>0</asrwt>
<pdfrwt beam="1">  1        1 0.11633460E+00 0.27495499E+03</pdfrwt>
<pdfrwt beam="2">  1       -1 0.38452769E-02 0.27495499E+03</pdfrwt>
<totfact> 0.65376707E+03</totfact>
</mgrwt>
</event>
<event>
 4    1  0.1728870E-004  0.3145229E+03  0.7818608E-02  0.1078198E+00
          2   -1    0    0  501    0  0.00000000000E+00  0.00000000000E+00  0.90304061700E+02  0.90304061700E+02  0.00000000000E+00 0.  1.
         -2   -1    0    0    0  501 -0.00000000000E+00 -0.00000000000E+00 -0.27386551465E+03  0.27386551465E+03  0.00000000000E+00 0.  1.
         25    1    1    2    0    0 -0.66610870157E+00  0.81408435616E+02 -0.21319346243E+02  0.14656838545E+03  0.12000000000E+03 0.  0.
         25    1    1    2    0    0  0.66610870157E+00 -0.81408435616E+02 -0.16224210671E+03  0.21760119089E+03  0.12000000000E+03 0.  0.
<mgrwt>
<rscale>  0 0.31452293E+03</rscale>
<asrwt>0</asrwt>
<pdfrwt beam="1">  1        2 0.13892933E-01 0.31452293E+03</pdfrwt>
<pdfrwt beam="2">  1       -2 0.42133155E-01 0.31452293E+03</pdfrwt>
<totfact> 0.23067297E+03</totfact>
</mgrwt>
</event>
<event>
 4    1  0.1728870E-004  0.2520890E+03  0.7818608E-02  0.1111992E+00
         -1   -1    0    0    0  501 -0.00000000000E+00  0.00000000000E+00  0.10401035598E+02  0.10401035598E+02  0.00000000000E+00 0.  1.
          1   -1    0    0  501    0  0.00000000000E+00 -0.00000000000E+00 -0.15274644629E+04  0.15274644629E+04  0.00000000000E+00 0.  1.
         25    1    1    2    0    0 -0.31124358167E+02 -0.85125015305E+01 -0.88736959517E+03  0.89602789397E+03  0.12000000000E+03 0.  0.
         25    1    1    2    0    0  0.31124358167E+02  0.85125015305E+01 -0.62969383217E+03  0.64183760456E+03  0.12000000000E+03 0.  0.
<mgrwt>
<rscale>  0 0.25208897E+03</rscale>
<asrwt>0</asrwt>
<pdfrwt beam="1">  1        1 0.23499472E+00 0.25208897E+03</pdfrwt>
<pdfrwt beam="2">  1       -1 0.16001580E-02 0.25208897E+03</pdfrwt>
<totfact> 0.65085143E+03</totfact>
</mgrwt>
</event>
<event>
 4    1  0.1728870E-004  0.2892979E+03  0.7818608E-02  0.1090716E+00
          4   -1    0    0  501    0  0.00000000000E+00  0.00000000000E+00  0.62014315272E+03  0.62014315272E+03  0.00000000000E+00 0. -1.
         -4   -1    0    0    0  501 -0.00000000000E+00 -0.00000000000E+00 -0.33739508980E+02  0.33739508980E+02  0.00000000000E+00 0. -1.
         25    1    1    2    0    0 -0.11816180516E+02  0.24746836205E+02  0.12149355697E+03  0.17295291963E+03  0.12000000000E+03 0.  0.
         25    1    1    2    0    0  0.11816180516E+02 -0.24746836205E+02  0.46491008677E+03  0.48092974207E+03  0.12000000000E+03 0.  0.
<mgrwt>
<rscale>  0 0.28929795E+03</rscale>
<asrwt>0</asrwt>
<pdfrwt beam="1">  1        4 0.95406631E-01 0.28929795E+03</pdfrwt>
<pdfrwt beam="2">  1       -4 0.51906941E-02 0.28929795E+03</pdfrwt>
<totfact> 0.40328430E+02</totfact>
</mgrwt>
</event>
<event>
 4    1  0.1728870E-004  0.2629296E+03  0.7818608E-02  0.1105396E+00
          2   -1    0    0  501    0  0.00000000000E+00  0.00000000000E+00  0.18875453663E+04  0.18875453663E+04  0.00000000000E+00 0.  1.
         -2   -1    0    0    0  501 -0.00000000000E+00 -0.00000000000E+00 -0.91563326287E+01  0.91563326287E+01  0.00000000000E+00 0.  1.
         25    1    1    2    0    0  0.26939230209E+02  0.28482215636E+01  0.60477331419E+03  0.61715848536E+03  0.12000000000E+03 0.  0.
         25    1    1    2    0    0 -0.26939230209E+02 -0.28482215636E+01  0.12736157195E+04  0.12795432135E+04  0.12000000000E+03 0.  0.
<mgrwt>
<rscale>  0 0.26292960E+03</rscale>
<asrwt>0</asrwt>
<pdfrwt beam="1">  1        2 0.29039129E+00 0.26292960E+03</pdfrwt>
<pdfrwt beam="2">  1       -2 0.14086681E-02 0.26292960E+03</pdfrwt>
<totfact> 0.11001310E+04</totfact>
</mgrwt>
</event>
<event>
 4    1  0.1728870E-004  0.2457597E+03  0.7818608E-02  0.1116014E+00
          2   -1    0    0  501    0  0.00000000000E+00  0.00000000000E+00  0.38192544773E+03  0.38192544773E+03  0.00000000000E+00 0.  1.
         -2   -1    0    0    0  501 -0.00000000000E+00 -0.00000000000E+00 -0.39535079993E+02  0.39535079993E+02  0.00000000000E+00 0.  1.
         25    1    1    2    0    0  0.11605072719E+02 -0.11647098971E+02  0.20672033490E+03  0.23959054549E+03  0.12000000000E+03 0.  0.
         25    1    1    2    0    0 -0.11605072719E+02  0.11647098971E+02  0.13567003283E+03  0.18186998223E+03  0.12000000000E+03 0.  0.
<mgrwt>
<rscale>  0 0.24575966E+03</rscale>
<asrwt>0</asrwt>
<pdfrwt beam="1">  1        2 0.58757759E-01 0.24575966E+03</pdfrwt>
<pdfrwt beam="2">  1       -2 0.60823203E-02 0.24575966E+03</pdfrwt>
<totfact> 0.11999780E+04</totfact>
</mgrwt>
</event>
<event>
 4    1  0.1728870E-004  0.2767140E+03  0.7818608E-02  0.1097497E+00
         -1   -1    0    0    0  501 -0.00000000000E+00  0.00000000000E+00  0.72088283114E+01  0.72088283114E+01  0.00000000000E+00 0. -1.
          1   -1    0    0  501    0  0.00000000000E+00 -0.00000000000E+00 -0.26554475930E+04  0.26554475930E+04  0.00000000000E+00 0. -1.
         25    1    1    2    0    0 -0.10140094066E+02  0.64018278326E+02 -0.11002035052E+04  0.11086247852E+04  0.12000000000E+03 0.  0.
         25    1    1    2    0    0  0.10140094066E+02 -0.64018278326E+02 -0.15480352595E+04  0.15540316361E+04  0.12000000000E+03 0.  0.
<mgrwt>
<rscale>  0 0.27671405E+03</rscale>
<asrwt>0</asrwt>
<pdfrwt beam="1">  1        1 0.40853090E+00 0.27671405E+03</pdfrwt>
<pdfrwt beam="2">  1       -1 0.11090491E-02 0.27671405E+03</pdfrwt>
<totfact> 0.20198472E+03</totfact>
</mgrwt>
</event>
<event>
 4    1  0.1728870E-004  0.3199179E+03  0.7818608E-02  0.1075687E+00
         -2   -1    0    0    0  501 -0.00000000000E+00  0.00000000000E+00  0.49231386457E+02  0.49231386457E+02  0.00000000000E+00 0. -1.
          2   -1    0    0  501    0  0.00000000000E+00 -0.00000000000E+00 -0.51972658140E+03  0.51972658140E+03  0.00000000000E+00 0. -1.
         25    1    1    2    0    0  0.79536533626E+02 -0.67402714063E+02 -0.26694565279E+03  0.31069143469E+03  0.12000000000E+03 0.  0.
         25    1    1    2    0    0 -0.79536533626E+02  0.67402714063E+02 -0.20354954215E+03  0.25826653316E+03  0.12000000000E+03 0.  0.
<mgrwt>
<rscale>  0 0.31991787E+03</rscale>
<asrwt>0</asrwt>
<pdfrwt beam="1">  1        2 0.79957941E-01 0.31991787E+03</pdfrwt>
<pdfrwt beam="2">  1       -2 0.75740589E-02 0.31991787E+03</pdfrwt>
<totfact> 0.61449547E+03</totfact>
</mgrwt>
</event>
<event>
 4    1  0.1728870E-004  0.2805991E+03  0.7818608E-02  0.1095362E+00
          2   -1    0    0  501    0  0.00000000000E+00  0.00000000000E+00  0.13250720651E+04  0.13250720651E+04  0.00000000000E+00 0. -1.
         -2   -1    0    0    0  501 -0.00000000000E+00 -0.00000000000E+00 -0.14855017363E+02  0.14855017363E+02  0.00000000000E+00 0. -1.
         25    1    1    2    0    0 -0.88749168527E+01 -0.51858297341E+02  0.41558764783E+03  0.43575353146E+03  0.12000000000E+03 0.  0.
         25    1    1    2    0    0  0.88749168527E+01  0.51858297341E+02  0.89462939992E+03  0.90417355102E+03  0.12000000000E+03 0.  0.
<mgrwt>
<rscale>  0 0.28059913E+03</rscale>
<asrwt>0</asrwt>
<pdfrwt beam="1">  1        2 0.20385715E+00 0.28059913E+03</pdfrwt>
<pdfrwt beam="2">  1       -2 0.22853883E-02 0.28059913E+03</pdfrwt>
<totfact> 0.10786436E+04</totfact>
</mgrwt>
</event>
<event>
 4    1  0.1728870E-004  0.2680847E+03  0.7818608E-02  0.1102381E+00
          2   -1    0    0  501    0  0.00000000000E+00  0.00000000000E+00  0.58592941112E+03  0.58592941112E+03  0.00000000000E+00 0.  1.
         -2   -1    0    0    0  501 -0.00000000000E+00 -0.00000000000E+00 -0.30664697594E+02  0.30664697594E+02  0.00000000000E+00 0.  1.
         25    1    1    2    0    0  0.16933832378E+01  0.13175936034E+02  0.41156403064E+03  0.42890724423E+03  0.12000000000E+03 0.  0.
         25    1    1    2    0    0 -0.16933832378E+01 -0.13175936034E+02  0.14370068288E+03  0.18768686448E+03  0.12000000000E+03 0.  0.
<mgrwt>
<rscale>  0 0.26808467E+03</rscale>
<asrwt>0</asrwt>
<pdfrwt beam="1">  1        2 0.90142978E-01 0.26808467E+03</pdfrwt>
<pdfrwt beam="2">  1       -2 0.47176462E-02 0.26808467E+03</pdfrwt>
<totfact> 0.11029984E+04</totfact>
</mgrwt>
</event>
<event>
 4    1  0.1728870E-004  0.2908825E+03  0.7818608E-02  0.1089889E+00
          2   -1    0    0  501    0  0.00000000000E+00  0.00000000000E+00  0.97490347151E+03  0.97490347151E+03  0.00000000000E+00 0. -1.
         -2   -1    0    0    0  501 -0.00000000000E+00 -0.00000000000E+00 -0.21697686733E+02  0.21697686733E+02  0.00000000000E+00 0. -1.
         25    1    1    2    0    0 -0.77784037483E+02  0.17235161116E+02  0.54561563802E+03  0.56430827720E+03  0.12000000000E+03 0.  0.
         25    1    1    2    0    0  0.77784037483E+02 -0.17235161116E+02  0.40759014675E+03  0.43229288104E+03  0.12000000000E+03 0.  0.
<mgrwt>
<rscale>  0 0.29088245E+03</rscale>
<asrwt>0</asrwt>
<pdfrwt beam="1">  1        2 0.14998512E+00 0.29088245E+03</pdfrwt>
<pdfrwt beam="2">  1       -2 0.33381064E-02 0.29088245E+03</pdfrwt>
<totfact> 0.98202326E+03</totfact>
</mgrwt>
</event>
<event>
 4    1  0.1728870E-004  0.2692424E+03  0.7818608E-02  0.1101714E+00
          1   -1    0    0  501    0  0.00000000000E+00  0.00000000000E+00  0.12421638837E+04  0.12421638837E+04  0.00000000000E+00 0.  1.
         -1   -1    0    0    0  501 -0.00000000000E+00 -0.00000000000E+00 -0.14589751068E+02  0.14589751068E+02  0.00000000000E+00 0.  1.
         25    1    1    2    0    0  0.38951597071E+02 -0.50752213099E+01  0.39585418273E+03  0.41550393352E+03  0.12000000000E+03 0.  0.
         25    1    1    2    0    0 -0.38951597071E+02  0.50752213099E+01  0.83171994994E+03  0.84124970129E+03  0.12000000000E+03 0.  0.
<mgrwt>
<rscale>  0 0.26924236E+03</rscale>
<asrwt>0</asrwt>
<pdfrwt beam="1">  1        1 0.19110205E+00 0.26924236E+03</pdfrwt>
<pdfrwt beam="2">  1       -1 0.22445781E-02 0.26924236E+03</pdfrwt>
<totfact> 0.61885983E+03</totfact>
</mgrwt>
</event>
<event>
 4    1  0.1728870E-004  0.3566733E+03  0.7818608E-02  0.1059909E+00
          1   -1    0    0  501    0  0.00000000000E+00  0.00000000000E+00  0.17795641975E+03  0.17795641975E+03  0.00000000000E+00 0.  1.
         -1   -1    0    0    0  501 -0.00000000000E+00 -0.00000000000E+00 -0.17871767992E+03  0.17871767992E+03  0.00000000000E+00 0.  1.
         25    1    1    2    0    0  0.12202270565E+03  0.28137443811E+02  0.41124910205E+02  0.17824846332E+03  0.12000000000E+03 0.  0.
         25    1    1    2    0    0 -0.12202270565E+03 -0.28137443811E+02 -0.41886170379E+02  0.17842563635E+03  0.12000000000E+03 0.  0.
<mgrwt>
<rscale>  0 0.35667329E+03</rscale>
<asrwt>0</asrwt>
<pdfrwt beam="1">  1        1 0.27377911E-01 0.35667329E+03</pdfrwt>
<pdfrwt beam="2">  1       -1 0.27495028E-01 0.35667329E+03</pdfrwt>
<totfact> 0.20265348E+03</totfact>
</mgrwt>
</event>
<event>
 4    1  0.1728870E-004  0.2535257E+03  0.7818608E-02  0.1111097E+00
          2   -1    0    0  501    0  0.00000000000E+00  0.00000000000E+00  0.11694158440E+03  0.11694158440E+03  0.00000000000E+00 0.  1.
         -2   -1    0    0    0  501 -0.00000000000E+00 -0.00000000000E+00 -0.13740900112E+03  0.13740900112E+03  0.00000000000E+00 0.  1.
         25    1    1    2    0    0 -0.33739363417E+02  0.15783057037E+02  0.65951551180E+01  0.12582108569E+03  0.12000000000E+03 0.  0.
         25    1    1    2    0    0  0.33739363417E+02 -0.15783057037E+02 -0.27062571836E+02  0.12852949983E+03  0.12000000000E+03 0.  0.
<mgrwt>
<rscale>  0 0.25352575E+03</rscale>
<asrwt>0</asrwt>
<pdfrwt beam="1">  1        2 0.17991013E-01 0.25352575E+03</pdfrwt>
<pdfrwt beam="2">  1       -2 0.21139846E-01 0.25352575E+03</pdfrwt>
<totfact> 0.59262830E+03</totfact>
</mgrwt>
</event>
<event>
 4    1  0.1728870E-004  0.2738616E+03  0.7818608E-02  0.1099090E+00
          1   -1    0    0  501    0  0.00000000000E+00  0.00000000000E+00  0.21787359648E+03  0.21787359648E+03  0.00000000000E+00 0.  1.
         -1   -1    0    0    0  501 -0.00000000000E+00 -0.00000000000E+00 -0.86059276099E+02  0.86059276099E+02  0.00000000000E+00 0.  1.
         25    1    1    2    0    0  0.16304362620E+02 -0.15421124010E+02  0.13473653034E+03  0.18181742467E+03  0.12000000000E+03 0.  0.
         25    1    1    2    0    0 -0.16304362620E+02  0.15421124010E+02 -0.29222099624E+01  0.12211544791E+03  0.12000000000E+03 0.  0.
<mgrwt>
<rscale>  0 0.27386160E+03</rscale>
<asrwt>0</asrwt>
<pdfrwt beam="1">  1        1 0.33519015E-01 0.27386160E+03</pdfrwt>
<pdfrwt beam="2">  1       -1 0.13239889E-01 0.27386160E+03</pdfrwt>
<totfact> 0.51208485E+03</totfact>
</mgrwt>
</event>
<event>
 4    1  0.1728870E-004  0.2654821E+03  0.7818608E-02  0.1103894E+00
          2   -1    0    0  501    0  0.00000000000E+00  0.00000000000E+00  0.19066374031E+02  0.19066374031E+02  0.00000000000E+00 0.  1.
         -2   -1    0    0    0  501 -0.00000000000E+00 -0.00000000000E+00 -0.92414966907E+03  0.92414966907E+03  0.00000000000E+00 0.  1.
         25    1    1    2    0    0 -0.37938132301E+02  0.25130067838E+02 -0.33209236636E+03  0.35602831627E+03  0.12000000000E+03 0.  0.
         25    1    1    2    0    0  0.37938132301E+02 -0.25130067838E+02 -0.57299092868E+03  0.58718772683E+03  0.12000000000E+03 0.  0.
<mgrwt>
<rscale>  0 0.26548208E+03</rscale>
<asrwt>0</asrwt>
<pdfrwt beam="1">  1        2 0.29332881E-02 0.26548208E+03</pdfrwt>
<pdfrwt beam="2">  1       -2 0.14217688E+00 0.26548208E+03</pdfrwt>
<totfact> 0.11744475E+03</totfact>
</mgrwt>
</event>
<event>
 4    1  0.1728870E-004  0.2529393E+03  0.7818608E-02  0.1111461E+00
          1   -1    0    0  501    0  0.00000000000E+00  0.00000000000E+00  0.14597775208E+03  0.14597775208E+03  0.00000000000E+00 0. -1.
         -1   -1    0    0    0  501 -0.00000000000E+00 -0.00000000000E+00 -0.10956860430E+03  0.10956860430E+03  0.00000000000E+00 0. -1.
         25    1    1    2    0    0  0.23915934868E+02  0.11133133745E+02 -0.12082058739E+02  0.12345806880E+03  0.12000000000E+03 0.  0.
         25    1    1    2    0    0 -0.23915934868E+02 -0.11133133745E+02  0.48491206513E+02  0.13208828758E+03  0.12000000000E+03 0.  0.
<mgrwt>
<rscale>  0 0.25293935E+03</rscale>
<asrwt>0</asrwt>
<pdfrwt beam="1">  1        1 0.22458116E-01 0.25293935E+03</pdfrwt>
<pdfrwt beam="2">  1       -1 0.16856708E-01 0.25293935E+03</pdfrwt>
<totfact> 0.57820429E+03</totfact>
</mgrwt>
</event>
<event>
 4    1  0.1728870E-004  0.2571747E+03  0.7818608E-02  0.1108853E+00
         -2   -1    0    0    0  501 -0.00000000000E+00  0.00000000000E+00  0.49375195071E+01  0.49375195071E+01  0.00000000000E+00 0.  1.
          2   -1    0    0  501    0  0.00000000000E+00 -0.00000000000E+00 -0.33487880209E+04  0.33487880209E+04  0.00000000000E+00 0.  1.
         25    1    1    2    0    0 -0.36481842004E+02 -0.78285777332E+01 -0.20272667875E+04  0.20311580044E+04  0.12000000000E+03 0.  0.
         25    1    1    2    0    0  0.36481842004E+02  0.78285777332E+01 -0.13165837140E+04  0.13225675360E+04  0.12000000000E+03 0.  0.
<mgrwt>
<rscale>  0 0.25717470E+03</rscale>
<asrwt>0</asrwt>
<pdfrwt beam="1">  1        2 0.51519794E+00 0.25717470E+03</pdfrwt>
<pdfrwt beam="2">  1       -2 0.75961871E-03 0.25717470E+03</pdfrwt>
<totfact> 0.40476919E+03</totfact>
</mgrwt>
</event>
<event>
 4    1  0.1728870E-004  0.3043632E+03  0.7818608E-02  0.1083080E+00
          2   -1    0    0  501    0  0.00000000000E+00  0.00000000000E+00  0.32734757705E+03  0.32734757705E+03  0.00000000000E+00 0. -1.
         -2   -1    0    0    0  501 -0.00000000000E+00 -0.00000000000E+00 -0.70748166533E+02  0.70748166533E+02  0.00000000000E+00 0. -1.
         25    1    1    2    0    0 -0.76978722590E+02  0.33583178330E+02  0.18231852437E+03  0.23386662422E+03  0.12000000000E+03 0.  0.
         25    1    1    2    0    0  0.76978722590E+02 -0.33583178330E+02  0.74280886150E+02  0.16422911936E+03  0.12000000000E+03 0.  0.
<mgrwt>
<rscale>  0 0.30436321E+03</rscale>
<asrwt>0</asrwt>
<pdfrwt beam="1">  1        2 0.50361165E-01 0.30436321E+03</pdfrwt>
<pdfrwt beam="2">  1       -2 0.10884333E-01 0.30436321E+03</pdfrwt>
<totfact> 0.57462362E+03</totfact>
</mgrwt>
</event>
<event>
 4    1  0.1728870E-004  0.2947926E+03  0.7818608E-02  0.1087873E+00
         -2   -1    0    0    0  501 -0.00000000000E+00  0.00000000000E+00  0.90459414754E+02  0.90459414754E+02  0.00000000000E+00 0. -1.
          2   -1    0    0  501    0  0.00000000000E+00 -0.00000000000E+00 -0.24017027016E+03  0.24017027016E+03  0.00000000000E+00 0. -1.
         25    1    1    2    0    0 -0.81962673386E+02  0.16792241297E+02 -0.95099729343E+02  0.17448156842E+03  0.12000000000E+03 0.  0.
         25    1    1    2    0    0  0.81962673386E+02 -0.16792241297E+02 -0.54611126067E+02  0.15614811650E+03  0.12000000000E+03 0.  0.
<mgrwt>
<rscale>  0 0.29479255E+03</rscale>
<asrwt>0</asrwt>
<pdfrwt beam="1">  1        2 0.36949272E-01 0.29479255E+03</pdfrwt>
<pdfrwt beam="2">  1       -2 0.13916833E-01 0.29479255E+03</pdfrwt>
<totfact> 0.53834904E+03</totfact>
</mgrwt>
</event>
<event>
 4    1  0.1728870E-004  0.3083804E+03  0.7818608E-02  0.1081125E+00
          1   -1    0    0  501    0  0.00000000000E+00  0.00000000000E+00  0.20451288232E+03  0.20451288232E+03  0.00000000000E+00 0. -1.
         -1   -1    0    0    0  501 -0.00000000000E+00 -0.00000000000E+00 -0.11624999697E+03  0.11624999697E+03  0.00000000000E+00 0. -1.
         25    1    1    2    0    0  0.54668739889E+01 -0.93857502116E+02  0.68201596961E+02  0.16700471623E+03  0.12000000000E+03 0.  0.
         25    1    1    2    0    0 -0.54668739889E+01  0.93857502116E+02  0.20061288389E+02  0.15375816306E+03  0.12000000000E+03 0.  0.
<mgrwt>
<rscale>  0 0.30838043E+03</rscale>
<asrwt>0</asrwt>
<pdfrwt beam="1">  1        1 0.31463520E-01 0.30838043E+03</pdfrwt>
<pdfrwt beam="2">  1       -1 0.17884615E-01 0.30838043E+03</pdfrwt>
<totfact> 0.34466922E+03</totfact>
</mgrwt>
</event>
<event>
 4    1  0.1728870E-004  0.3295145E+03  0.7818608E-02  0.1071352E+00
          2   -1    0    0  501    0  0.00000000000E+00  0.00000000000E+00  0.11814633756E+04  0.11814633756E+04  0.00000000000E+00 0.  1.
         -2   -1    0    0    0  501 -0.00000000000E+00 -0.00000000000E+00 -0.22975705127E+02  0.22975705127E+02  0.00000000000E+00 0.  1.
         25    1    1    2    0    0  0.29464997837E+02 -0.34619750627E+02  0.95695527998E+03  0.96552064769E+03  0.12000000000E+03 0.  0.
         25    1    1    2    0    0 -0.29464997837E+02  0.34619750627E+02  0.20153239054E+03  0.23891843309E+03  0.12000000000E+03 0.  0.
<mgrwt>
<rscale>  0 0.32951452E+03</rscale>
<asrwt>0</asrwt>
<pdfrwt beam="1">  1        2 0.18176355E+00 0.32951452E+03</pdfrwt>
<pdfrwt beam="2">  1       -2 0.35347248E-02 0.32951452E+03</pdfrwt>
<totfact> 0.68039243E+03</totfact>
</mgrwt>
</event>
<event>
 4    1  0.1728870E-004  0.2633604E+03  0.7818608E-02  0.1105141E+00
         -1   -1    0    0    0  501 -0.00000000000E+00  0.00000000000E+00  0.16490347619E+02  0.16490347619E+02  0.00000000000E+00 0.  1.
          1   -1    0    0  501    0  0.00000000000E+00 -0.00000000000E+00 -0.10515046699E+04  0.10515046699E+04  0.00000000000E+00 0.  1.
         25    1    1    2    0    0  0.40543564424E+02  0.35532018639E+02 -0.49408033187E+03  0.51129412211E+03  0.12000000000E+03 0.  0.
         25    1    1    2    0    0 -0.40543564424E+02 -0.35532018639E+02 -0.54093399039E+03  0.55670089539E+03  0.12000000000E+03 0.  0.
<mgrwt>
<rscale>  0 0.26336042E+03</rscale>
<asrwt>0</asrwt>
<pdfrwt beam="1">  1        1 0.16176998E+00 0.26336042E+03</pdfrwt>
<pdfrwt beam="2">  1       -1 0.25369760E-02 0.26336042E+03</pdfrwt>
<totfact> 0.70605380E+03</totfact>
</mgrwt>
</event>
<event>
 4    1  0.1728870E-004  0.2428028E+03  0.7818608E-02  0.1117940E+00
         -3   -1    0    0    0  501 -0.00000000000E+00  0.00000000000E+00  0.44764426943E+02  0.44764426943E+02  0.00000000000E+00 0. -1.
          3   -1    0    0  501    0  0.00000000000E+00 -0.00000000000E+00 -0.32924141802E+03  0.32924141802E+03  0.00000000000E+00 0. -1.
         25    1    1    2    0    0 -0.15560602129E+02  0.34531616351E+01 -0.15637692595E+03  0.19775692057E+03  0.12000000000E+03 0.  0.
         25    1    1    2    0    0  0.15560602129E+02 -0.34531616351E+01 -0.12810006512E+03  0.17624892439E+03  0.12000000000E+03 0.  0.
<mgrwt>
<rscale>  0 0.24280283E+03</rscale>
<asrwt>0</asrwt>
<pdfrwt beam="1">  1        3 0.50652526E-01 0.24280283E+03</pdfrwt>
<pdfrwt beam="2">  1       -3 0.68868349E-02 0.24280283E+03</pdfrwt>
<totfact> 0.13305414E+03</totfact>
</mgrwt>
</event>
<event>
 4    1  0.1728870E-004  0.2531309E+03  0.7818608E-02  0.1111342E+00
         -1   -1    0    0    0  501 -0.00000000000E+00  0.00000000000E+00  0.34037659198E+04  0.34037659198E+04  0.00000000000E+00 0.  1.
          1   -1    0    0  501    0  0.00000000000E+00 -0.00000000000E+00 -0.47062026843E+01  0.47062026843E+01  0.00000000000E+00 0.  1.
         25    1    1    2    0    0  0.17024460485E+02  0.16101036782E+02  0.12591240527E+04  0.12650464244E+04  0.12000000000E+03 0.  0.
         25    1    1    2    0    0 -0.17024460485E+02 -0.16101036782E+02  0.21399356644E+04  0.21434256981E+04  0.12000000000E+03 0.  0.
<mgrwt>
<rscale>  0 0.25313089E+03</rscale>
<asrwt>0</asrwt>
<pdfrwt beam="1">  1        1 0.72403390E-03 0.25313089E+03</pdfrwt>
<pdfrwt beam="2">  1       -1 0.52365433E+00 0.25313089E+03</pdfrwt>
<totfact> 0.33213251E+01</totfact>
</mgrwt>
</event>
<event>
 4    1  0.1728870E-004  0.2637649E+03  0.7818608E-02  0.1104902E+00
          2   -1    0    0  501    0  0.00000000000E+00  0.00000000000E+00  0.46460027452E+03  0.46460027452E+03  0.00000000000E+00 0. -1.
         -2   -1    0    0    0  501 -0.00000000000E+00 -0.00000000000E+00 -0.37436426643E+02  0.37436426643E+02  0.00000000000E+00 0. -1.
         25    1    1    2    0    0  0.50659487018E+02  0.20654054097E+02  0.21353853803E+03  0.25098143517E+03  0.12000000000E+03 0.  0.
         25    1    1    2    0    0 -0.50659487018E+02 -0.20654054097E+02  0.21362530985E+03  0.25105526599E+03  0.12000000000E+03 0.  0.
<mgrwt>
<rscale>  0 0.26376485E+03</rscale>
<asrwt>0</asrwt>
<pdfrwt beam="1">  1        2 0.71476961E-01 0.26376485E+03</pdfrwt>
<pdfrwt beam="2">  1       -2 0.57594506E-02 0.26376485E+03</pdfrwt>
<totfact> 0.10567778E+04</totfact>
</mgrwt>
</event>
<event>
 4    1  0.1728870E-004  0.2770434E+03  0.7818608E-02  0.1097315E+00
         -1   -1    0    0    0  501 -0.00000000000E+00  0.00000000000E+00  0.19942296021E+03  0.19942296021E+03  0.00000000000E+00 0.  1.
          1   -1    0    0  501    0  0.00000000000E+00 -0.00000000000E+00 -0.96218884547E+02  0.96218884547E+02  0.00000000000E+00 0.  1.
         25    1    1    2    0    0  0.15855101366E+02  0.67253597993E+02  0.55569717816E+02  0.14920597917E+03  0.12000000000E+03 0.  0.
         25    1    1    2    0    0 -0.15855101366E+02 -0.67253597993E+02  0.47634357847E+02  0.14643586559E+03  0.12000000000E+03 0.  0.
<mgrwt>
<rscale>  0 0.27704335E+03</rscale>
<asrwt>0</asrwt>
<pdfrwt beam="1">  1        1 0.14802905E-01 0.27704335E+03</pdfrwt>
<pdfrwt beam="2">  1       -1 0.30680455E-01 0.27704335E+03</pdfrwt>
<totfact> 0.37096412E+03</totfact>
</mgrwt>
</event>
<event>
 4    1  0.1728870E-004  0.3209322E+03  0.7818608E-02  0.1075221E+00
         -2   -1    0    0    0  501 -0.00000000000E+00  0.00000000000E+00  0.10363042045E+02  0.10363042045E+02  0.00000000000E+00 0.  1.
          2   -1    0    0  501    0  0.00000000000E+00 -0.00000000000E+00 -0.24847307526E+04  0.24847307526E+04  0.00000000000E+00 0.  1.
         25    1    1    2    0    0  0.20094016092E+02 -0.88640057414E+02 -0.80511775019E+03  0.81906985107E+03  0.12000000000E+03 0.  0.
         25    1    1    2    0    0 -0.20094016092E+02  0.88640057414E+02 -0.16692499604E+04  0.16760239436E+04  0.12000000000E+03 0.  0.
<mgrwt>
<rscale>  0 0.32093220E+03</rscale>
<asrwt>0</asrwt>
<pdfrwt beam="1">  1        2 0.38226632E+00 0.32093220E+03</pdfrwt>
<pdfrwt beam="2">  1       -2 0.15943140E-02 0.32093220E+03</pdfrwt>
<totfact> 0.44035742E+03</totfact>
</mgrwt>
</event>
<event>
 4    1  0.1728870E-004  0.2603650E+03  0.7818608E-02  0.1106924E+00
          1   -1    0    0  501    0  0.00000000000E+00  0.00000000000E+00  0.19692172825E+03  0.19692172825E+03  0.00000000000E+00 0.  1.
         -1   -1    0    0    0  501 -0.00000000000E+00 -0.00000000000E+00 -0.86062048693E+02  0.86062048693E+02  0.00000000000E+00 0.  1.
         25    1    1    2    0    0  0.43442352441E+02  0.25554687178E+02  0.52511966223E+02  0.14034880341E+03  0.12000000000E+03 0.  0.
         25    1    1    2    0    0 -0.43442352441E+02 -0.25554687178E+02  0.58347713329E+02  0.14263497353E+03  0.12000000000E+03 0.  0.
<mgrwt>
<rscale>  0 0.26036503E+03</rscale>
<asrwt>0</asrwt>
<pdfrwt beam="1">  1        1 0.30295650E-01 0.26036503E+03</pdfrwt>
<pdfrwt beam="2">  1       -1 0.13240315E-01 0.26036503E+03</pdfrwt>
<totfact> 0.58053063E+03</totfact>
</mgrwt>
</event>
<event>
 4    1  0.1728870E-004  0.3418990E+03  0.7818608E-02  0.1065990E+00
          2   -1    0    0  501    0  0.00000000000E+00  0.00000000000E+00  0.42875196836E+02  0.42875196836E+02  0.00000000000E+00 0.  1.
         -2   -1    0    0    0  501 -0.00000000000E+00 -0.00000000000E+00 -0.68159988324E+03  0.68159988324E+03  0.00000000000E+00 0.  1.
         25    1    1    2    0    0  0.83335835327E+02 -0.76622832758E+02 -0.22441411617E+03  0.27852758478E+03  0.12000000000E+03 0.  0.
         25    1    1    2    0    0 -0.83335835327E+02  0.76622832758E+02 -0.41431057024E+03  0.44594749530E+03  0.12000000000E+03 0.  0.
<mgrwt>
<rscale>  0 0.34189899E+03</rscale>
<asrwt>0</asrwt>
<pdfrwt beam="1">  1        2 0.65961844E-02 0.34189899E+03</pdfrwt>
<pdfrwt beam="2">  1       -2 0.10486152E+00 0.34189899E+03</pdfrwt>
<totfact> 0.84135396E+02</totfact>
</mgrwt>
</event>
<event>
 4    1  0.1728870E-004  0.2836256E+03  0.7818608E-02  0.1093725E+00
         -2   -1    0    0    0  501 -0.00000000000E+00  0.00000000000E+00  0.33211616126E+03  0.33211616126E+03  0.00000000000E+00 0.  1.
          2   -1    0    0  501    0  0.00000000000E+00 -0.00000000000E+00 -0.60553721053E+02  0.60553721053E+02  0.00000000000E+00 0.  1.
         25    1    1    2    0    0  0.72846613505E+02  0.10848993849E+00  0.16361650356E+03  0.21558525252E+03  0.12000000000E+03 0.  0.
         25    1    1    2    0    0 -0.72846613505E+02 -0.10848993849E+00  0.10794593665E+03  0.17708462979E+03  0.12000000000E+03 0.  0.
<mgrwt>
<rscale>  0 0.28362559E+03</rscale>
<asrwt>0</asrwt>
<pdfrwt beam="1">  1        2 0.93159573E-02 0.28362559E+03</pdfrwt>
<pdfrwt beam="2">  1       -2 0.51094793E-01 0.28362559E+03</pdfrwt>
<totfact> 0.25709343E+03</totfact>
</mgrwt>
</event>
<event>
 4    1  0.1728870E-004  0.3191729E+03  0.7818608E-02  0.1076031E+00
          1   -1    0    0  501    0  0.00000000000E+00  0.00000000000E+00  0.15138248561E+04  0.15138248561E+04  0.00000000000E+00 0.  1.
         -1   -1    0    0    0  501 -0.00000000000E+00 -0.00000000000E+00 -0.16823502627E+02  0.16823502627E+02  0.00000000000E+00 0.  1.
         25    1    1    2    0    0  0.10185244463E+02 -0.26677212662E+02  0.12340827874E+04  0.12402321311E+04  0.12000000000E+03 0.  0.
         25    1    1    2    0    0 -0.10185244463E+02  0.26677212662E+02  0.26291856613E+03  0.29041622767E+03  0.12000000000E+03 0.  0.
<mgrwt>
<rscale>  0 0.31917291E+03</rscale>
<asrwt>0</asrwt>
<pdfrwt beam="1">  1        1 0.23289602E+00 0.31917291E+03</pdfrwt>
<pdfrwt beam="2">  1       -1 0.25882324E-02 0.31917291E+03</pdfrwt>
<totfact> 0.32908288E+03</totfact>
</mgrwt>
</event>
<event>
 4    1  0.1728870E-004  0.2972676E+03  0.7818608E-02  0.1086615E+00
          1   -1    0    0  501    0  0.00000000000E+00  0.00000000000E+00  0.17941677198E+03  0.17941677198E+03  0.00000000000E+00 0. -1.
         -1   -1    0    0    0  501 -0.00000000000E+00 -0.00000000000E+00 -0.12313230789E+03  0.12313230789E+03  0.00000000000E+00 0. -1.
         25    1    1    2    0    0 -0.35327651447E+01 -0.63456972706E+02  0.89653871045E+02  0.16271780606E+03  0.12000000000E+03 0.  0.
         25    1    1    2    0    0  0.35327651447E+01  0.63456972706E+02 -0.33369406958E+02  0.13983127381E+03  0.12000000000E+03 0.  0.
<mgrwt>
<rscale>  0 0.29726756E+03</rscale>
<asrwt>0</asrwt>
<pdfrwt beam="1">  1        1 0.27602580E-01 0.29726756E+03</pdfrwt>
<pdfrwt beam="2">  1       -1 0.18943432E-01 0.29726756E+03</pdfrwt>
<totfact> 0.37037377E+03</totfact>
</mgrwt>
</event>
<event>
 4    1  0.1728870E-004  0.2511496E+03  0.7818608E-02  0.1112580E+00
         -2   -1    0    0    0  501 -0.00000000000E+00  0.00000000000E+00  0.84814048635E+02  0.84814048635E+02  0.00000000000E+00 0.  1.
          2   -1    0    0  501    0  0.00000000000E+00 -0.00000000000E+00 -0.18592471929E+03  0.18592471929E+03  0.00000000000E+00 0.  1.
         25    1    1    2    0    0  0.30090565773E+02 -0.11325309553E+02 -0.70295461209E+02  0.14274157296E+03  0.12000000000E+03 0.  0.
         25    1    1    2    0    0 -0.30090565773E+02  0.11325309553E+02 -0.30815209446E+02  0.12799719496E+03  0.12000000000E+03 0.  0.
<mgrwt>
<rscale>  0 0.25114958E+03</rscale>
<asrwt>0</asrwt>
<pdfrwt beam="1">  1        2 0.28603803E-01 0.25114958E+03</pdfrwt>
<pdfrwt beam="2">  1       -2 0.13048315E-01 0.25114958E+03</pdfrwt>
<totfact> 0.78620082E+03</totfact>
</mgrwt>
</event>
<event>
 4    1  0.1728870E-004  0.2717395E+03  0.7818608E-02  0.1100288E+00
         -2   -1    0    0    0  501 -0.00000000000E+00  0.00000000000E+00  0.79788891125E+02  0.79788891125E+02  0.00000000000E+00 0. -1.
          2   -1    0    0  501    0  0.00000000000E+00 -0.00000000000E+00 -0.23136796205E+03  0.23136796205E+03  0.00000000000E+00 0. -1.
         25    1    1    2    0    0 -0.70879879068E+01 -0.15292923191E+02 -0.54223553117E+01  0.12129927868E+03  0.12000000000E+03 0.  0.
         25    1    1    2    0    0  0.70879879068E+01  0.15292923191E+02 -0.14615671561E+03  0.18985757449E+03  0.12000000000E+03 0.  0.
<mgrwt>
<rscale>  0 0.27173953E+03</rscale>
<asrwt>0</asrwt>
<pdfrwt beam="1">  1        2 0.35595071E-01 0.27173953E+03</pdfrwt>
<pdfrwt beam="2">  1       -2 0.12275214E-01 0.27173953E+03</pdfrwt>
<totfact> 0.68595270E+03</totfact>
</mgrwt>
</event>
<event>
 4    1  0.1728870E-004  0.3635540E+03  0.7818608E-02  0.1057185E+00
         -2   -1    0    0    0  501 -0.00000000000E+00  0.00000000000E+00  0.80638598198E+03  0.80638598198E+03  0.00000000000E+00 0.  1.
          2   -1    0    0  501    0  0.00000000000E+00 -0.00000000000E+00 -0.40976494818E+02  0.40976494818E+02  0.00000000000E+00 0.  1.
         25    1    1    2    0    0 -0.58320363786E+02 -0.12298459433E+03  0.40785074198E+03  0.44639523184E+03  0.12000000000E+03 0.  0.
         25    1    1    2    0    0  0.58320363786E+02  0.12298459433E+03  0.35755874518E+03  0.40096724496E+03  0.12000000000E+03 0.  0.
<mgrwt>
<rscale>  0 0.36355396E+03</rscale>
<asrwt>0</asrwt>
<pdfrwt beam="1">  1        2 0.63040767E-02 0.36355396E+03</pdfrwt>
<pdfrwt beam="2">  1       -2 0.12405937E+00 0.36355396E+03</pdfrwt>
<totfact> 0.59571955E+02</totfact>
</mgrwt>
</event>
<event>
 4    1  0.1728870E-004  0.4328106E+03  0.7818608E-02  0.1032976E+00
          2   -1    0    0  501    0  0.00000000000E+00  0.00000000000E+00  0.18771592705E+03  0.18771592705E+03  0.00000000000E+00 0.  1.
         -2   -1    0    0    0  501 -0.00000000000E+00 -0.00000000000E+00 -0.24947936195E+03  0.24947936195E+03  0.00000000000E+00 0.  1.
         25    1    1    2    0    0 -0.75158319980E+02  0.16307393999E+03 -0.44782186543E+02  0.22056139100E+03  0.12000000000E+03 0.  0.
         25    1    1    2    0    0  0.75158319980E+02 -0.16307393999E+03 -0.16981248364E+02  0.21663389800E+03  0.12000000000E+03 0.  0.
<mgrwt>
<rscale>  0 0.43281058E+03</rscale>
<asrwt>0</asrwt>
<pdfrwt beam="1">  1        2 0.28879374E-01 0.43281058E+03</pdfrwt>
<pdfrwt beam="2">  1       -2 0.38381440E-01 0.43281058E+03</pdfrwt>
<totfact> 0.11887296E+03</totfact>
</mgrwt>
</event>
<event>
 4    1  0.1728870E-004  0.2753173E+03  0.7818608E-02  0.1098274E+00
         -2   -1    0    0    0  501 -0.00000000000E+00  0.00000000000E+00  0.11220095105E+03  0.11220095105E+03  0.00000000000E+00 0. -1.
          2   -1    0    0  501    0  0.00000000000E+00 -0.00000000000E+00 -0.16889254236E+03  0.16889254236E+03  0.00000000000E+00 0. -1.
         25    1    1    2    0    0  0.15067773929E+02 -0.57821068851E+02  0.36092525611E+01  0.13410197806E+03  0.12000000000E+03 0.  0.
         25    1    1    2    0    0 -0.15067773929E+02  0.57821068851E+02 -0.60300843877E+02  0.14699151536E+03  0.12000000000E+03 0.  0.
<mgrwt>
<rscale>  0 0.27531730E+03</rscale>
<asrwt>0</asrwt>
<pdfrwt beam="1">  1        2 0.25983468E-01 0.27531730E+03</pdfrwt>
<pdfrwt beam="2">  1       -2 0.17261685E-01 0.27531730E+03</pdfrwt>
<totfact> 0.55283254E+03</totfact>
</mgrwt>
</event>
<event>
 4    1  0.1728870E-004  0.3118135E+03  0.7818608E-02  0.1079480E+00
          1   -1    0    0  501    0  0.00000000000E+00  0.00000000000E+00  0.60067786461E+03  0.60067786461E+03  0.00000000000E+00 0.  1.
         -1   -1    0    0    0  501 -0.00000000000E+00 -0.00000000000E+00 -0.40465818853E+02  0.40465818853E+02  0.00000000000E+00 0.  1.
         25    1    1    2    0    0 -0.27443790694E+02  0.49618789982E+02  0.11190455514E+03  0.17360246378E+03  0.12000000000E+03 0.  0.
         25    1    1    2    0    0  0.27443790694E+02 -0.49618789982E+02  0.44830749061E+03  0.46754121969E+03  0.12000000000E+03 0.  0.
<mgrwt>
<rscale>  0 0.31181354E+03</rscale>
<asrwt>0</asrwt>
<pdfrwt beam="1">  1        1 0.92411973E-01 0.31181354E+03</pdfrwt>
<pdfrwt beam="2">  1       -1 0.62255110E-02 0.31181354E+03</pdfrwt>
<totfact> 0.44391463E+03</totfact>
</mgrwt>
</event>
<event>
 4    1  0.1728870E-004  0.3233543E+03  0.7818608E-02  0.1074116E+00
          1   -1    0    0  501    0  0.00000000000E+00  0.00000000000E+00  0.32068056924E+03  0.32068056924E+03  0.00000000000E+00 0. -1.
         -1   -1    0    0    0  501 -0.00000000000E+00 -0.00000000000E+00 -0.81512557217E+02  0.81512557217E+02  0.00000000000E+00 0. -1.
         25    1    1    2    0    0  0.71598689237E+02 -0.17331264045E+02  0.21840865970E+03  0.25986359430E+03  0.12000000000E+03 0.  0.
         25    1    1    2    0    0 -0.71598689237E+02  0.17331264045E+02  0.20759352326E+02  0.14232953215E+03  0.12000000000E+03 0.  0.
<mgrwt>
<rscale>  0 0.32335425E+03</rscale>
<asrwt>0</asrwt>
<pdfrwt beam="1">  1        1 0.49335471E-01 0.32335425E+03</pdfrwt>
<pdfrwt beam="2">  1       -1 0.12540394E-01 0.32335425E+03</pdfrwt>
<totfact> 0.34419375E+03</totfact>
</mgrwt>
</event>
<event>
 4    1  0.1728870E-004  0.2844482E+03  0.7818608E-02  0.1093284E+00
         -1   -1    0    0    0  501 -0.00000000000E+00  0.00000000000E+00  0.21492605362E+02  0.21492605362E+02  0.00000000000E+00 0. -1.
          1   -1    0    0  501    0  0.00000000000E+00 -0.00000000000E+00 -0.94114696969E+03  0.94114696969E+03  0.00000000000E+00 0. -1.
         25    1    1    2    0    0  0.58963984797E+02  0.19291428047E+02 -0.30928428094E+03  0.33749915131E+03  0.12000000000E+03 0.  0.
         25    1    1    2    0    0 -0.58963984797E+02 -0.19291428047E+02 -0.61037008338E+03  0.62514042373E+03  0.12000000000E+03 0.  0.
<mgrwt>
<rscale>  0 0.28444824E+03</rscale>
<asrwt>0</asrwt>
<pdfrwt beam="1">  1        1 0.14479183E+00 0.28444824E+03</pdfrwt>
<pdfrwt beam="2">  1       -1 0.33065549E-02 0.28444824E+03</pdfrwt>
<totfact> 0.57905663E+03</totfact>
</mgrwt>
</event>
<event>
 4    1  0.1728870E-004  0.3027184E+03  0.7818608E-02  0.1083890E+00
         -4   -1    0    0    0  501 -0.00000000000E+00  0.00000000000E+00  0.51105870301E+03  0.51105870301E+03  0.00000000000E+00 0. -1.
          4   -1    0    0  501    0  0.00000000000E+00 -0.00000000000E+00 -0.44827750882E+02  0.44827750882E+02  0.00000000000E+00 0. -1.
         25    1    1    2    0    0 -0.58298243904E+02  0.27088651704E+02  0.35460589921E+03  0.37983920815E+03  0.12000000000E+03 0.  0.
         25    1    1    2    0    0  0.58298243904E+02 -0.27088651704E+02  0.11162505291E+03  0.17604724573E+03  0.12000000000E+03 0.  0.
<mgrwt>
<rscale>  0 0.30271843E+03</rscale>
<asrwt>0</asrwt>
<pdfrwt beam="1">  1        4 0.68965774E-02 0.30271843E+03</pdfrwt>
<pdfrwt beam="2">  1       -4 0.78624412E-01 0.30271843E+03</pdfrwt>
<totfact> 0.39484045E+02</totfact>
</mgrwt>
</event>
<event>
 4    1  0.1728870E-004  0.2947712E+03  0.7818608E-02  0.1087884E+00
         -1   -1    0    0    0  501 -0.00000000000E+00  0.00000000000E+00  0.26476140186E+02  0.26476140186E+02  0.00000000000E+00 0. -1.
          1   -1    0    0  501    0  0.00000000000E+00 -0.00000000000E+00 -0.82045625562E+03  0.82045625562E+03  0.00000000000E+00 0. -1.
         25    1    1    2    0    0  0.19192575012E+02 -0.21871228195E+02 -0.16577786985E+03  0.20670996031E+03  0.12000000000E+03 0.  0.
         25    1    1    2    0    0 -0.19192575012E+02  0.21871228195E+02 -0.62820224558E+03  0.64022243550E+03  0.12000000000E+03 0.  0.
<mgrwt>
<rscale>  0 0.29477120E+03</rscale>
<asrwt>0</asrwt>
<pdfrwt beam="1">  1        1 0.12622404E+00 0.29477120E+03</pdfrwt>
<pdfrwt beam="2">  1       -1 0.40732523E-02 0.29477120E+03</pdfrwt>
<totfact> 0.53039011E+03</totfact>
</mgrwt>
</event>
<event>
 4    1  0.1728870E-004  0.5050081E+03  0.7818608E-02  0.1012480E+00
          1   -1    0    0  501    0  0.00000000000E+00  0.00000000000E+00  0.91309552909E+03  0.91309552909E+03  0.00000000000E+00 0.  1.
         -1   -1    0    0    0  501 -0.00000000000E+00 -0.00000000000E+00 -0.69826537266E+02  0.69826537266E+02  0.00000000000E+00 0.  1.
         25    1    1    2    0    0  0.12956967834E+03 -0.17808775590E+03  0.36473087034E+03  0.44264224621E+03  0.12000000000E+03 0.  0.
         25    1    1    2    0    0 -0.12956967834E+03  0.17808775590E+03  0.47853812148E+03  0.54027982015E+03  0.12000000000E+03 0.  0.
<mgrwt>
<rscale>  0 0.50500811E+03</rscale>
<asrwt>0</asrwt>
<pdfrwt beam="1">  1        1 0.14047623E+00 0.50500811E+03</pdfrwt>
<pdfrwt beam="2">  1       -1 0.10742545E-01 0.50500811E+03</pdfrwt>
<totfact> 0.10117654E+03</totfact>
</mgrwt>
</event>
<event>
 4    1  0.1728870E-004  0.2645013E+03  0.7818608E-02  0.1104469E+00
         -2   -1    0    0    0  501 -0.00000000000E+00  0.00000000000E+00  0.17134371974E+02  0.17134371974E+02  0.00000000000E+00 0.  1.
          2   -1    0    0  501    0  0.00000000000E+00 -0.00000000000E+00 -0.10207691573E+04  0.10207691573E+04  0.00000000000E+00 0.  1.
         25    1    1    2    0    0  0.49209686337E+01 -0.54768424782E+02 -0.46983205192E+03  0.48802249261E+03  0.12000000000E+03 0.  0.
         25    1    1    2    0    0 -0.49209686337E+01  0.54768424782E+02 -0.53380273339E+03  0.54988103664E+03  0.12000000000E+03 0.  0.
<mgrwt>
<rscale>  0 0.26450133E+03</rscale>
<asrwt>0</asrwt>
<pdfrwt beam="1">  1        2 0.15704144E+00 0.26450133E+03</pdfrwt>
<pdfrwt beam="2">  1       -2 0.26360567E-02 0.26450133E+03</pdfrwt>
<totfact> 0.13041502E+04</totfact>
</mgrwt>
</event>
<event>
 4    1  0.1728870E-004  0.2515435E+03  0.7818608E-02  0.1112333E+00
         -2   -1    0    0    0  501 -0.00000000000E+00  0.00000000000E+00  0.76607781448E+03  0.76607781448E+03  0.00000000000E+00 0. -1.
          2   -1    0    0  501    0  0.00000000000E+00 -0.00000000000E+00 -0.20648728504E+02  0.20648728504E+02  0.00000000000E+00 0. -1.
         25    1    1    2    0    0 -0.35441916313E+02 -0.90935806683E+01  0.40063789530E+03  0.41982084963E+03  0.12000000000E+03 0.  0.
         25    1    1    2    0    0  0.35441916313E+02  0.90935806683E+01  0.34479119068E+03  0.36690569335E+03  0.12000000000E+03 0.  0.
<mgrwt>
<rscale>  0 0.25154350E+03</rscale>
<asrwt>0</asrwt>
<pdfrwt beam="1">  1        2 0.31767280E-02 0.25154350E+03</pdfrwt>
<pdfrwt beam="2">  1       -2 0.11785810E+00 0.25154350E+03</pdfrwt>
<totfact> 0.16739579E+03</totfact>
</mgrwt>
</event>
<event>
 4    1  0.1728870E-004  0.2511728E+03  0.7818608E-02  0.1112566E+00
         -4   -1    0    0    0  501 -0.00000000000E+00  0.00000000000E+00  0.19358752338E+03  0.19358752338E+03  0.00000000000E+00 0. -1.
          4   -1    0    0  501    0  0.00000000000E+00 -0.00000000000E+00 -0.81471933488E+02  0.81471933488E+02  0.00000000000E+00 0. -1.
         25    1    1    2    0    0  0.12999296239E+02  0.44749844769E+01  0.93722600987E+02  0.15288208896E+03  0.12000000000E+03 0.  0.
         25    1    1    2    0    0 -0.12999296239E+02 -0.44749844769E+01  0.18392988908E+02  0.12217736791E+03  0.12000000000E+03 0.  0.
<mgrwt>
<rscale>  0 0.25117285E+03</rscale>
<asrwt>0</asrwt>
<pdfrwt beam="1">  1        4 0.12534144E-01 0.25117285E+03</pdfrwt>
<pdfrwt beam="2">  1       -4 0.29782696E-01 0.25117285E+03</pdfrwt>
<totfact> 0.10290800E+03</totfact>
</mgrwt>
</event>
<event>
 4    1  0.1728870E-004  0.6203633E+03  0.7818608E-02  0.9864037E-01
         -4   -1    0    0    0  501 -0.00000000000E+00  0.00000000000E+00  0.89421577554E+03  0.89421577554E+03  0.00000000000E+00 0.  1.
          4   -1    0    0  501    0  0.00000000000E+00 -0.00000000000E+00 -0.10759444726E+03  0.10759444726E+03  0.00000000000E+00 0.  1.
         25    1    1    2    0    0 -0.25757674511E+03  0.11058072754E+03  0.30140764656E+03  0.42874286738E+03  0.12000000000E+03 0.  0.
         25    1    1    2    0    0  0.25757674511E+03 -0.11058072754E+03  0.48521368172E+03  0.57306735542E+03  0.12000000000E+03 0.  0.
<mgrwt>
<rscale>  0 0.62036329E+03</rscale>
<asrwt>0</asrwt>
<pdfrwt beam="1">  1        4 0.16552993E-01 0.62036329E+03</pdfrwt>
<pdfrwt beam="2">  1       -4 0.13757165E+00 0.62036329E+03</pdfrwt>
<totfact> 0.24208351E+01</totfact>
</mgrwt>
</event>
<event>
 4    1  0.1728870E-004  0.2611323E+03  0.7818608E-02  0.1106465E+00
          1   -1    0    0  501    0  0.00000000000E+00  0.00000000000E+00  0.85146562856E+03  0.85146562856E+03  0.00000000000E+00 0. -1.
         -1   -1    0    0    0  501 -0.00000000000E+00 -0.00000000000E+00 -0.20021390624E+02  0.20021390624E+02  0.00000000000E+00 0. -1.
         25    1    1    2    0    0 -0.32881480558E+02  0.32188762639E+02  0.49256920030E+03  0.50905964806E+03  0.12000000000E+03 0.  0.
         25    1    1    2    0    0  0.32881480558E+02 -0.32188762639E+02  0.33887503765E+03  0.36242737113E+03  0.12000000000E+03 0.  0.
<mgrwt>
<rscale>  0 0.26113235E+03</rscale>
<asrwt>0</asrwt>
<pdfrwt beam="1">  1        1 0.13099468E+00 0.26113235E+03</pdfrwt>
<pdfrwt beam="2">  1       -1 0.30802146E-02 0.26113235E+03</pdfrwt>
<totfact> 0.75502495E+03</totfact>
</mgrwt>
</event>
<event>
 4    1  0.1728870E-004  0.2942654E+03  0.7818608E-02  0.1088143E+00
         -2   -1    0    0    0  501 -0.00000000000E+00  0.00000000000E+00  0.50894903722E+02  0.50894903722E+02  0.00000000000E+00 0. -1.
          2   -1    0    0  501    0  0.00000000000E+00 -0.00000000000E+00 -0.42534763268E+03  0.42534763268E+03  0.00000000000E+00 0. -1.
         25    1    1    2    0    0 -0.40821109231E+02 -0.74434887632E+02 -0.17684940933E+03  0.22996223393E+03  0.12000000000E+03 0.  0.
         25    1    1    2    0    0  0.40821109231E+02  0.74434887632E+02 -0.19760331964E+03  0.24628030247E+03  0.12000000000E+03 0.  0.
<mgrwt>
<rscale>  0 0.29426537E+03</rscale>
<asrwt>0</asrwt>
<pdfrwt beam="1">  1        2 0.65438099E-01 0.29426537E+03</pdfrwt>
<pdfrwt beam="2">  1       -2 0.78299850E-02 0.29426537E+03</pdfrwt>
<totfact> 0.72741560E+03</totfact>
</mgrwt>
</event>
<event>
 4    1  0.1728870E-004  0.3942954E+03  0.7818608E-02  0.1045773E+00
         -2   -1    0    0    0  501 -0.00000000000E+00  0.00000000000E+00  0.13861539434E+03  0.13861539434E+03  0.00000000000E+00 0. -1.
          2   -1    0    0  501    0  0.00000000000E+00 -0.00000000000E+00 -0.28039603709E+03  0.28039603709E+03  0.00000000000E+00 0. -1.
         25    1    1    2    0    0  0.73499793223E+02  0.81287688597E+02  0.47718272642E+02  0.16937219803E+03  0.12000000000E+03 0.  0.
         25    1    1    2    0    0 -0.73499793223E+02 -0.81287688597E+02 -0.18949891539E+03  0.24963923340E+03  0.12000000000E+03 0.  0.
<mgrwt>
<rscale>  0 0.39429536E+03</rscale>
<asrwt>0</asrwt>
<pdfrwt beam="1">  1        2 0.43137852E-01 0.39429536E+03</pdfrwt>
<pdfrwt beam="2">  1       -2 0.21325445E-01 0.39429536E+03</pdfrwt>
<totfact> 0.22271854E+03</totfact>
</mgrwt>
</event>
<event>
 4    1  0.1728870E-004  0.4199251E+03  0.7818608E-02  0.1037091E+00
          2   -1    0    0  501    0  0.00000000000E+00  0.00000000000E+00  0.13147498011E+04  0.13147498011E+04  0.00000000000E+00 0.  1.
         -2   -1    0    0    0  501 -0.00000000000E+00 -0.00000000000E+00 -0.33530539045E+02  0.33530539045E+02  0.00000000000E+00 0.  1.
         25    1    1    2    0    0 -0.14271278689E+03  0.68706026834E+02  0.85829876263E+03  0.88100182951E+03  0.12000000000E+03 0.  0.
         25    1    1    2    0    0  0.14271278689E+03 -0.68706026834E+02  0.42292049940E+03  0.46727851061E+03  0.12000000000E+03 0.  0.
<mgrwt>
<rscale>  0 0.41992509E+03</rscale>
<asrwt>0</asrwt>
<pdfrwt beam="1">  1        2 0.20226916E+00 0.41992509E+03</pdfrwt>
<pdfrwt beam="2">  1       -2 0.51585455E-02 0.41992509E+03</pdfrwt>
<totfact> 0.32193877E+03</totfact>
</mgrwt>
</event>
<event>
 4    1  0.1728870E-004  0.2511656E+03  0.7818608E-02  0.1112570E+00
          1   -1    0    0  501    0  0.00000000000E+00  0.00000000000E+00  0.43970984999E+03  0.43970984999E+03  0.00000000000E+00 0. -1.
         -1   -1    0    0    0  501 -0.00000000000E+00 -0.00000000000E+00 -0.35866929405E+02  0.35866929405E+02  0.00000000000E+00 0. -1.
         25    1    1    2    0    0  0.22921225425E+02  0.25490812131E+02  0.22842191698E+03  0.26029163689E+03  0.12000000000E+03 0.  0.
         25    1    1    2    0    0 -0.22921225425E+02 -0.25490812131E+02  0.17542100361E+03  0.21528514251E+03  0.12000000000E+03 0.  0.
<mgrwt>
<rscale>  0 0.25116562E+03</rscale>
<asrwt>0</asrwt>
<pdfrwt beam="1">  1        1 0.67647666E-01 0.25116562E+03</pdfrwt>
<pdfrwt beam="2">  1       -1 0.55179894E-02 0.25116562E+03</pdfrwt>
<totfact> 0.80381864E+03</totfact>
</mgrwt>
</event>
<event>
 4    1  0.1728870E-004  0.3107834E+03  0.7818608E-02  0.1079971E+00
          1   -1    0    0  501    0  0.00000000000E+00  0.00000000000E+00  0.60639307086E+02  0.60639307086E+02  0.00000000000E+00 0. -1.
         -1   -1    0    0    0  501 -0.00000000000E+00 -0.00000000000E+00 -0.39820008665E+03  0.39820008665E+03  0.00000000000E+00 0. -1.
         25    1    1    2    0    0 -0.89296635042E+02 -0.42002107160E+02 -0.17308764758E+03  0.23258847732E+03  0.12000000000E+03 0.  0.
         25    1    1    2    0    0  0.89296635042E+02  0.42002107160E+02 -0.16447313198E+03  0.22625091642E+03  0.12000000000E+03 0.  0.
<mgrwt>
<rscale>  0 0.31078338E+03</rscale>
<asrwt>0</asrwt>
<pdfrwt beam="1">  1        1 0.93291245E-02 0.31078338E+03</pdfrwt>
<pdfrwt beam="2">  1       -1 0.61261549E-01 0.31078338E+03</pdfrwt>
<totfact> 0.19700746E+03</totfact>
</mgrwt>
</event>
<event>
 4    1  0.1728870E-004  0.2834734E+03  0.7818608E-02  0.1093807E+00
         -1   -1    0    0    0  501 -0.00000000000E+00  0.00000000000E+00  0.62530018973E+02  0.62530018973E+02  0.00000000000E+00 0. -1.
          1   -1    0    0  501    0  0.00000000000E+00 -0.00000000000E+00 -0.32127428075E+03  0.32127428075E+03  0.00000000000E+00 0. -1.
         25    1    1    2    0    0  0.12233234994E+02 -0.45992672292E+01 -0.22995114592E+03  0.25970817239E+03  0.12000000000E+03 0.  0.
         25    1    1    2    0    0 -0.12233234994E+02  0.45992672292E+01 -0.28793115857E+02  0.12409612733E+03  0.12000000000E+03 0.  0.
<mgrwt>
<rscale>  0 0.28347336E+03</rscale>
<asrwt>0</asrwt>
<pdfrwt beam="1">  1        1 0.49426815E-01 0.28347336E+03</pdfrwt>
<pdfrwt beam="2">  1       -1 0.96200024E-02 0.28347336E+03</pdfrwt>
<totfact> 0.51734312E+03</totfact>
</mgrwt>
</event>
<event>
 4    1  0.1728870E-004  0.3206877E+03  0.7818608E-02  0.1075333E+00
         -1   -1    0    0    0  501 -0.00000000000E+00  0.00000000000E+00  0.22468039771E+03  0.22468039771E+03  0.00000000000E+00 0. -1.
          1   -1    0    0  501    0  0.00000000000E+00 -0.00000000000E+00 -0.11442989509E+03  0.11442989509E+03  0.00000000000E+00 0. -1.
         25    1    1    2    0    0 -0.59350021052E+02 -0.84177934574E+02  0.83138711866E+02  0.17866279713E+03  0.12000000000E+03 0.  0.
         25    1    1    2    0    0  0.59350021052E+02  0.84177934574E+02  0.27111790748E+02  0.16044749567E+03  0.12000000000E+03 0.  0.
<mgrwt>
<rscale>  0 0.32068773E+03</rscale>
<asrwt>0</asrwt>
<pdfrwt beam="1">  1        1 0.17604599E-01 0.32068773E+03</pdfrwt>
<pdfrwt beam="2">  1       -1 0.34566215E-01 0.32068773E+03</pdfrwt>
<totfact> 0.24148044E+03</totfact>
</mgrwt>
</event>
<event>
 4    1  0.1728870E-004  0.2539358E+03  0.7818608E-02  0.1110842E+00
         -2   -1    0    0    0  501 -0.00000000000E+00  0.00000000000E+00  0.10071066365E+02  0.10071066365E+02  0.00000000000E+00 0.  1.
          2   -1    0    0  501    0  0.00000000000E+00 -0.00000000000E+00 -0.16007095659E+04  0.16007095659E+04  0.00000000000E+00 0.  1.
         25    1    1    2    0    0 -0.29557776537E+01 -0.19361793179E+02 -0.56335741585E+03  0.57632906716E+03  0.12000000000E+03 0.  0.
         25    1    1    2    0    0  0.29557776537E+01  0.19361793179E+02 -0.10272810837E+04  0.10344515652E+04  0.12000000000E+03 0.  0.
<mgrwt>
<rscale>  0 0.25393584E+03</rscale>
<asrwt>0</asrwt>
<pdfrwt beam="1">  1        2 0.24626310E+00 0.25393584E+03</pdfrwt>
<pdfrwt beam="2">  1       -2 0.15493943E-02 0.25393584E+03</pdfrwt>
<totfact> 0.13531695E+04</totfact>
</mgrwt>
</event>
<event>
 4    1  0.1728870E-004  0.2849646E+03  0.7818608E-02  0.1093008E+00
          1   -1    0    0  501    0  0.00000000000E+00  0.00000000000E+00  0.27967219606E+02  0.27967219606E+02  0.00000000000E+00 0.  1.
         -1   -1    0    0    0  501 -0.00000000000E+00 -0.00000000000E+00 -0.72589276268E+03  0.72589276268E+03  0.00000000000E+00 0.  1.
         25    1    1    2    0    0 -0.26275414241E+02 -0.70546134155E+02 -0.38943453776E+03  0.41439885816E+03  0.12000000000E+03 0.  0.
         25    1    1    2    0    0  0.26275414241E+02  0.70546134155E+02 -0.30849100531E+03  0.33946112413E+03  0.12000000000E+03 0.  0.
<mgrwt>
<rscale>  0 0.28496458E+03</rscale>
<asrwt>0</asrwt>
<pdfrwt beam="1">  1        1 0.43026491E-02 0.28496458E+03</pdfrwt>
<pdfrwt beam="2">  1       -1 0.11167581E+00 0.28496458E+03</pdfrwt>
<totfact> 0.16086670E+03</totfact>
</mgrwt>
</event>
<event>
 4    1  0.1728870E-004  0.2523703E+03  0.7818608E-02  0.1111816E+00
          2   -1    0    0  501    0  0.00000000000E+00  0.00000000000E+00  0.33951758402E+03  0.33951758402E+03  0.00000000000E+00 0. -1.
         -2   -1    0    0    0  501 -0.00000000000E+00 -0.00000000000E+00 -0.46897985002E+02  0.46897985002E+02  0.00000000000E+00 0. -1.
         25    1    1    2    0    0 -0.42470310544E+01 -0.12803670733E+02  0.90245638865E+02  0.15075226894E+03  0.12000000000E+03 0.  0.
         25    1    1    2    0    0  0.42470310544E+01  0.12803670733E+02  0.20237396016E+03  0.23566330008E+03  0.12000000000E+03 0.  0.
<mgrwt>
<rscale>  0 0.25237029E+03</rscale>
<asrwt>0</asrwt>
<pdfrwt beam="1">  1        2 0.52233473E-01 0.25237029E+03</pdfrwt>
<pdfrwt beam="2">  1       -2 0.72150748E-02 0.25237029E+03</pdfrwt>
<totfact> 0.10484603E+04</totfact>
</mgrwt>
</event>
<event>
 4    1  0.1728870E-004  0.2695069E+03  0.7818608E-02  0.1101562E+00
         -1   -1    0    0    0  501 -0.00000000000E+00  0.00000000000E+00  0.65187668191E+01  0.65187668191E+01  0.00000000000E+00 0. -1.
          1   -1    0    0  501    0  0.00000000000E+00 -0.00000000000E+00 -0.27855720858E+04  0.27855720858E+04  0.00000000000E+00 0. -1.
         25    1    1    2    0    0  0.22550788583E+02 -0.74531492575E+01 -0.80398907505E+03  0.81324198139E+03  0.12000000000E+03 0.  0.
         25    1    1    2    0    0 -0.22550788583E+02  0.74531492575E+01 -0.19750642439E+04  0.19788488712E+04  0.12000000000E+03 0.  0.
<mgrwt>
<rscale>  0 0.26950692E+03</rscale>
<asrwt>0</asrwt>
<pdfrwt beam="1">  1        1 0.42855018E+00 0.26950692E+03</pdfrwt>
<pdfrwt beam="2">  1       -1 0.10028857E-02 0.26950692E+03</pdfrwt>
<totfact> 0.19081383E+03</totfact>
</mgrwt>
</event>
<event>
 4    1  0.1728870E-004  0.2408653E+03  0.7818608E-02  0.1119218E+00
          2   -1    0    0  501    0  0.00000000000E+00  0.00000000000E+00  0.30371656262E+03  0.30371656262E+03  0.00000000000E+00 0. -1.
         -2   -1    0    0    0  501 -0.00000000000E+00 -0.00000000000E+00 -0.47755144202E+02  0.47755144202E+02  0.00000000000E+00 0. -1.
         25    1    1    2    0    0  0.98165291462E+01  0.27669134213E+01  0.12784865457E+03  0.17563968381E+03  0.12000000000E+03 0.  0.
         25    1    1    2    0    0 -0.98165291462E+01 -0.27669134213E+01  0.12811276385E+03  0.17583202301E+03  0.12000000000E+03 0.  0.
<mgrwt>
<rscale>  0 0.24086534E+03</rscale>
<asrwt>0</asrwt>
<pdfrwt beam="1">  1        2 0.46725624E-01 0.24086534E+03</pdfrwt>
<pdfrwt beam="2">  1       -2 0.73469454E-02 0.24086534E+03</pdfrwt>
<totfact> 0.11464476E+04</totfact>
</mgrwt>
</event>
<event>
 4    1  0.1728870E-004  0.6829594E+03  0.7818608E-02  0.9746826E-01
          1   -1    0    0  501    0  0.00000000000E+00  0.00000000000E+00  0.13880945172E+03  0.13880945172E+03  0.00000000000E+00 0.  1.
         -1   -1    0    0    0  501 -0.00000000000E+00 -0.00000000000E+00 -0.84006093484E+03  0.84006093484E+03  0.00000000000E+00 0.  1.
         25    1    1    2    0    0 -0.30074768886E+03  0.10788823829E+03 -0.33496732674E+03  0.47821768505E+03  0.12000000000E+03 0.  0.
         25    1    1    2    0    0  0.30074768886E+03 -0.10788823829E+03 -0.36628415638E+03  0.50065270151E+03  0.12000000000E+03 0.  0.
<mgrwt>
<rscale>  0 0.68295944E+03</rscale>
<asrwt>0</asrwt>
<pdfrwt beam="1">  1        1 0.21355300E-01 0.68295944E+03</pdfrwt>
<pdfrwt beam="2">  1       -1 0.12924014E+00 0.68295944E+03</pdfrwt>
<totfact> 0.12604001E+02</totfact>
</mgrwt>
</event>
<event>
 4    1  0.1728870E-004  0.2840367E+03  0.7818608E-02  0.1093504E+00
         -1   -1    0    0    0  501 -0.00000000000E+00  0.00000000000E+00  0.36275881300E+02  0.36275881300E+02  0.00000000000E+00 0.  1.
          1   -1    0    0  501    0  0.00000000000E+00 -0.00000000000E+00 -0.55599506584E+03  0.55599506584E+03  0.00000000000E+00 0.  1.
         25    1    1    2    0    0  0.30504660211E+02 -0.14276507713E+02 -0.40181900620E+03  0.42070520167E+03  0.12000000000E+03 0.  0.
         25    1    1    2    0    0 -0.30504660211E+02  0.14276507713E+02 -0.11790017834E+03  0.17156574548E+03  0.12000000000E+03 0.  0.
<mgrwt>
<rscale>  0 0.28403669E+03</rscale>
<asrwt>0</asrwt>
<pdfrwt beam="1">  1        1 0.85537697E-01 0.28403669E+03</pdfrwt>
<pdfrwt beam="2">  1       -1 0.55809052E-02 0.28403669E+03</pdfrwt>
<totfact> 0.58127630E+03</totfact>
</mgrwt>
</event>
<event>
 4    1  0.1728870E-004  0.3118824E+03  0.7818608E-02  0.1079447E+00
          2   -1    0    0  501    0  0.00000000000E+00  0.00000000000E+00  0.44269957829E+02  0.44269957829E+02  0.00000000000E+00 0.  1.
         -2   -1    0    0    0  501 -0.00000000000E+00 -0.00000000000E+00 -0.54930372718E+03  0.54930372718E+03  0.00000000000E+00 0.  1.
         25    1    1    2    0    0 -0.99254009464E+02 -0.11334539815E+01 -0.26786209981E+03  0.30984310163E+03  0.12000000000E+03 0.  0.
         25    1    1    2    0    0  0.99254009464E+02  0.11334539815E+01 -0.23717166954E+03  0.28373058338E+03  0.12000000000E+03 0.  0.
<mgrwt>
<rscale>  0 0.31188237E+03</rscale>
<asrwt>0</asrwt>
<pdfrwt beam="1">  1        2 0.68107625E-02 0.31188237E+03</pdfrwt>
<pdfrwt beam="2">  1       -2 0.84508269E-01 0.31188237E+03</pdfrwt>
<totfact> 0.13231911E+03</totfact>
</mgrwt>
</event>
<event>
 4    1  0.1728870E-004  0.4134216E+03  0.7818608E-02  0.1039229E+00
         -1   -1    0    0    0  501 -0.00000000000E+00  0.00000000000E+00  0.67707787298E+02  0.67707787298E+02  0.00000000000E+00 0. -1.
          1   -1    0    0  501    0  0.00000000000E+00 -0.00000000000E+00 -0.63108486656E+03  0.63108486656E+03  0.00000000000E+00 0. -1.
         25    1    1    2    0    0 -0.91796012408E+02  0.17366087285E+02 -0.51833349909E+03  0.54018302932E+03  0.12000000000E+03 0.  0.
         25    1    1    2    0    0  0.91796012408E+02 -0.17366087285E+02 -0.45043580167E+02  0.15860962454E+03  0.12000000000E+03 0.  0.
<mgrwt>
<rscale>  0 0.41342162E+03</rscale>
<asrwt>0</asrwt>
<pdfrwt beam="1">  1        1 0.97089982E-01 0.41342162E+03</pdfrwt>
<pdfrwt beam="2">  1       -1 0.10416582E-01 0.41342162E+03</pdfrwt>
<totfact> 0.18793433E+03</totfact>
</mgrwt>
</event>
<event>
 4    1  0.1728870E-004  0.3085694E+03  0.7818608E-02  0.1081034E+00
         -2   -1    0    0    0  501 -0.00000000000E+00  0.00000000000E+00  0.37493616391E+02  0.37493616391E+02  0.00000000000E+00 0.  1.
          2   -1    0    0  501    0  0.00000000000E+00 -0.00000000000E+00 -0.63487508842E+03  0.63487508842E+03  0.00000000000E+00 0.  1.
         25    1    1    2    0    0  0.90373885835E+02 -0.17075910587E+01 -0.22216490548E+03  0.26819321456E+03  0.12000000000E+03 0.  0.
         25    1    1    2    0    0 -0.90373885835E+02  0.17075910587E+01 -0.37521656655E+03  0.40417549025E+03  0.12000000000E+03 0.  0.
<mgrwt>
<rscale>  0 0.30856936E+03</rscale>
<asrwt>0</asrwt>
<pdfrwt beam="1">  1        2 0.97673084E-01 0.30856936E+03</pdfrwt>
<pdfrwt beam="2">  1       -2 0.57682491E-02 0.30856936E+03</pdfrwt>
<totfact> 0.74260074E+03</totfact>
</mgrwt>
</event>
<event>
 4    1  0.1728870E-004  0.3361685E+03  0.7818608E-02  0.1068440E+00
         -2   -1    0    0    0  501 -0.00000000000E+00  0.00000000000E+00  0.73457781825E+02  0.73457781825E+02  0.00000000000E+00 0.  1.
          2   -1    0    0  501    0  0.00000000000E+00 -0.00000000000E+00 -0.38460605583E+03  0.38460605583E+03  0.00000000000E+00 0.  1.
         25    1    1    2    0    0  0.70047784060E+02  0.56708975579E+02 -0.52432199826E+02  0.15897086381E+03  0.12000000000E+03 0.  0.
         25    1    1    2    0    0 -0.70047784060E+02 -0.56708975579E+02 -0.25871607418E+03  0.29909297385E+03  0.12000000000E+03 0.  0.
<mgrwt>
<rscale>  0 0.33616846E+03</rscale>
<asrwt>0</asrwt>
<pdfrwt beam="1">  1        2 0.59170164E-01 0.33616846E+03</pdfrwt>
<pdfrwt beam="2">  1       -2 0.11301197E-01 0.33616846E+03</pdfrwt>
<totfact> 0.45526129E+03</totfact>
</mgrwt>
</event>
<event>
 4    1  0.1728870E-004  0.3356238E+03  0.7818608E-02  0.1068675E+00
          2   -1    0    0  501    0  0.00000000000E+00  0.00000000000E+00  0.33622824038E+03  0.33622824038E+03  0.00000000000E+00 0. -1.
         -2   -1    0    0    0  501 -0.00000000000E+00 -0.00000000000E+00 -0.83755092596E+02  0.83755092596E+02  0.00000000000E+00 0. -1.
         25    1    1    2    0    0 -0.26979271919E+02  0.95029038814E+02  0.20540301518E+03  0.25758260418E+03  0.12000000000E+03 0.  0.
         25    1    1    2    0    0  0.26979271919E+02 -0.95029038814E+02  0.47070132609E+02  0.16240072880E+03  0.12000000000E+03 0.  0.
<mgrwt>
<rscale>  0 0.33562376E+03</rscale>
<asrwt>0</asrwt>
<pdfrwt beam="1">  1        2 0.51727421E-01 0.33562376E+03</pdfrwt>
<pdfrwt beam="2">  1       -2 0.12885399E-01 0.33562376E+03</pdfrwt>
<totfact> 0.42586640E+03</totfact>
</mgrwt>
</event>
<event>
 4    1  0.1728870E-004  0.2558837E+03  0.7818608E-02  0.1109642E+00
         -2   -1    0    0    0  501 -0.00000000000E+00  0.00000000000E+00  0.47383736840E+01  0.47383736840E+01  0.00000000000E+00 0.  1.
          2   -1    0    0  501    0  0.00000000000E+00 -0.00000000000E+00 -0.34545852617E+04  0.34545852617E+04  0.00000000000E+00 0.  1.
         25    1    1    2    0    0  0.19667248219E+02  0.25273618677E+02 -0.21401959882E+04  0.21437967311E+04  0.12000000000E+03 0.  0.
         25    1    1    2    0    0 -0.19667248219E+02 -0.25273618677E+02 -0.13096508998E+04  0.13155269043E+04  0.12000000000E+03 0.  0.
<mgrwt>
<rscale>  0 0.25588369E+03</rscale>
<asrwt>0</asrwt>
<pdfrwt beam="1">  1        2 0.53147520E+00 0.25588369E+03</pdfrwt>
<pdfrwt beam="2">  1       -2 0.72897981E-03 0.25588369E+03</pdfrwt>
<totfact> 0.36714408E+03</totfact>
</mgrwt>
</event>
<event>
 4    1  0.1728870E-004  0.3655632E+03  0.7818608E-02  0.1056403E+00
         -2   -1    0    0    0  501 -0.00000000000E+00  0.00000000000E+00  0.13246561674E+04  0.13246561674E+04  0.00000000000E+00 0.  1.
          2   -1    0    0  501    0  0.00000000000E+00 -0.00000000000E+00 -0.25220970475E+02  0.25220970475E+02  0.00000000000E+00 0.  1.
         25    1    1    2    0    0  0.11851397282E+03 -0.61158625133E+02  0.77886213802E+03  0.79925726097E+03  0.12000000000E+03 0.  0.
         25    1    1    2    0    0 -0.11851397282E+03  0.61158625133E+02  0.52057305893E+03  0.55061987692E+03  0.12000000000E+03 0.  0.
<mgrwt>
<rscale>  0 0.36556320E+03</rscale>
<asrwt>0</asrwt>
<pdfrwt beam="1">  1        2 0.38801503E-02 0.36556320E+03</pdfrwt>
<pdfrwt beam="2">  1       -2 0.20379320E+00 0.36556320E+03</pdfrwt>
<totfact> 0.30157820E+02</totfact>
</mgrwt>
</event>
<event>
 4    1  0.1728870E-004  0.2515031E+03  0.7818608E-02  0.1112359E+00
          1   -1    0    0  501    0  0.00000000000E+00  0.00000000000E+00  0.47932760009E+03  0.47932760009E+03  0.00000000000E+00 0. -1.
         -1   -1    0    0    0  501 -0.00000000000E+00 -0.00000000000E+00 -0.32990905098E+02  0.32990905098E+02  0.00000000000E+00 0. -1.
         25    1    1    2    0    0  0.78816857562E+01  0.16686236819E+02  0.28989146280E+03  0.31428905751E+03  0.12000000000E+03 0.  0.
         25    1    1    2    0    0 -0.78816857562E+01 -0.16686236819E+02  0.15644523219E+03  0.19802944767E+03  0.12000000000E+03 0.  0.
<mgrwt>
<rscale>  0 0.25150309E+03</rscale>
<asrwt>0</asrwt>
<pdfrwt beam="1">  1        1 0.73742703E-01 0.25150309E+03</pdfrwt>
<pdfrwt beam="2">  1       -1 0.50755242E-02 0.25150309E+03</pdfrwt>
<totfact> 0.81411350E+03</totfact>
</mgrwt>
</event>
<event>
 4    1  0.1728870E-004  0.5292882E+03  0.7818608E-02  0.1006405E+00
         -2   -1    0    0    0  501 -0.00000000000E+00  0.00000000000E+00  0.69435094068E+02  0.69435094068E+02  0.00000000000E+00 0.  1.
          2   -1    0    0  501    0  0.00000000000E+00 -0.00000000000E+00 -0.10086615463E+04  0.10086615463E+04  0.00000000000E+00 0.  1.
         25    1    1    2    0    0  0.10624900986E+03 -0.20029835739E+02 -0.89661277267E+03  0.91104583339E+03  0.12000000000E+03 0.  0.
         25    1    1    2    0    0 -0.10624900986E+03  0.20029835739E+02 -0.42613679511E+02  0.16705080693E+03  0.12000000000E+03 0.  0.
<mgrwt>
<rscale>  0 0.52928824E+03</rscale>
<asrwt>0</asrwt>
<pdfrwt beam="1">  1        2 0.15517869E+00 0.52928824E+03</pdfrwt>
<pdfrwt beam="2">  1       -2 0.10682323E-01 0.52928824E+03</pdfrwt>
<totfact> 0.15438941E+03</totfact>
</mgrwt>
</event>
<event>
 4    1  0.1728870E-004  0.3038265E+03  0.7818608E-02  0.1083343E+00
         -2   -1    0    0    0  501 -0.00000000000E+00  0.00000000000E+00  0.47460734267E+03  0.47460734267E+03  0.00000000000E+00 0.  1.
          2   -1    0    0  501    0  0.00000000000E+00 -0.00000000000E+00 -0.48624691292E+02  0.48624691292E+02  0.00000000000E+00 0.  1.
         25    1    1    2    0    0  0.90130883750E+02 -0.22247695649E+02  0.19975217743E+03  0.25083753418E+03  0.12000000000E+03 0.  0.
         25    1    1    2    0    0 -0.90130883750E+02  0.22247695649E+02  0.22623047395E+03  0.27239449978E+03  0.12000000000E+03 0.  0.
<mgrwt>
<rscale>  0 0.30382650E+03</rscale>
<asrwt>0</asrwt>
<pdfrwt beam="1">  1        2 0.74807221E-02 0.30382650E+03</pdfrwt>
<pdfrwt beam="2">  1       -2 0.73016511E-01 0.30382650E+03</pdfrwt>
<totfact> 0.16167439E+03</totfact>
</mgrwt>
</event>
<event>
 4    1  0.1728870E-004  0.3395477E+03  0.7818608E-02  0.1066989E+00
         -1   -1    0    0    0  501 -0.00000000000E+00  0.00000000000E+00  0.22098845937E+02  0.22098845937E+02  0.00000000000E+00 0. -1.
          1   -1    0    0  501    0  0.00000000000E+00 -0.00000000000E+00 -0.13042837946E+04  0.13042837946E+04  0.00000000000E+00 0. -1.
         25    1    1    2    0    0  0.18277542694E+02  0.11165764471E+03 -0.79839982631E+03  0.81525688028E+03  0.12000000000E+03 0.  0.
         25    1    1    2    0    0 -0.18277542694E+02 -0.11165764471E+03 -0.48378512235E+03  0.51112576026E+03  0.12000000000E+03 0.  0.
<mgrwt>
<rscale>  0 0.33954774E+03</rscale>
<asrwt>0</asrwt>
<pdfrwt beam="1">  1        1 0.20065905E+00 0.33954774E+03</pdfrwt>
<pdfrwt beam="2">  1       -1 0.33998223E-02 0.33954774E+03</pdfrwt>
<totfact> 0.30423234E+03</totfact>
</mgrwt>
</event>
<event>
 4    1  0.1728870E-004  0.4817420E+03  0.7818608E-02  0.1018658E+00
         -2   -1    0    0    0  501 -0.00000000000E+00  0.00000000000E+00  0.55980894778E+03  0.55980894778E+03  0.00000000000E+00 0.  1.
          2   -1    0    0  501    0  0.00000000000E+00 -0.00000000000E+00 -0.10364043384E+03  0.10364043384E+03  0.00000000000E+00 0.  1.
         25    1    1    2    0    0  0.35364496791E+02  0.17331555192E+03  0.38100742746E+03  0.43687021866E+03  0.12000000000E+03 0.  0.
         25    1    1    2    0    0 -0.35364496791E+02 -0.17331555192E+03  0.75161086477E+02  0.22657916297E+03  0.12000000000E+03 0.  0.
<mgrwt>
<rscale>  0 0.48174201E+03</rscale>
<asrwt>0</asrwt>
<pdfrwt beam="1">  1        2 0.15944682E-01 0.48174201E+03</pdfrwt>
<pdfrwt beam="2">  1       -2 0.86124452E-01 0.48174201E+03</pdfrwt>
<totfact> 0.43957374E+02</totfact>
</mgrwt>
</event>
<event>
 4    1  0.1728870E-004  0.2859406E+03  0.7818608E-02  0.1092488E+00
         -1   -1    0    0    0  501 -0.00000000000E+00  0.00000000000E+00  0.27867552235E+02  0.27867552235E+02  0.00000000000E+00 0.  1.
          1   -1    0    0  501    0  0.00000000000E+00 -0.00000000000E+00 -0.73348773864E+03  0.73348773864E+03  0.00000000000E+00 0.  1.
         25    1    1    2    0    0 -0.44648400119E+02  0.61736536080E+02 -0.31193814830E+03  0.34279773611E+03  0.12000000000E+03 0.  0.
         25    1    1    2    0    0  0.44648400119E+02 -0.61736536080E+02 -0.39368203811E+03  0.41855755476E+03  0.12000000000E+03 0.  0.
<mgrwt>
<rscale>  0 0.28594061E+03</rscale>
<asrwt>0</asrwt>
<pdfrwt beam="1">  1        1 0.11284425E+00 0.28594061E+03</pdfrwt>
<pdfrwt beam="2">  1       -1 0.42873162E-02 0.28594061E+03</pdfrwt>
<totfact> 0.58245445E+03</totfact>
</mgrwt>
</event>
<event>
 4    1  0.1728870E-004  0.3131006E+03  0.7818608E-02  0.1078869E+00
         -1   -1    0    0    0  501 -0.00000000000E+00  0.00000000000E+00  0.12224596211E+02  0.12224596211E+02  0.00000000000E+00 0. -1.
          1   -1    0    0  501    0  0.00000000000E+00 -0.00000000000E+00 -0.20048102345E+04  0.20048102345E+04  0.00000000000E+00 0. -1.
         25    1    1    2    0    0  0.90669580951E+02  0.11876708969E+02 -0.12654757114E+04  0.12744374466E+04  0.12000000000E+03 0.  0.
         25    1    1    2    0    0 -0.90669580951E+02 -0.11876708969E+02 -0.72710992695E+03  0.74259738418E+03  0.12000000000E+03 0.  0.
<mgrwt>
<rscale>  0 0.31310059E+03</rscale>
<asrwt>0</asrwt>
<pdfrwt beam="1">  1        1 0.30843202E+00 0.31310059E+03</pdfrwt>
<pdfrwt beam="2">  1       -1 0.18807091E-02 0.31310059E+03</pdfrwt>
<totfact> 0.25096581E+03</totfact>
</mgrwt>
</event>
<event>
 4    1  0.1728870E-004  0.2848290E+03  0.7818608E-02  0.1093080E+00
         -2   -1    0    0    0  501 -0.00000000000E+00  0.00000000000E+00  0.23020208376E+02  0.23020208376E+02  0.00000000000E+00 0.  1.
          2   -1    0    0  501    0  0.00000000000E+00 -0.00000000000E+00 -0.88104727695E+03  0.88104727695E+03  0.00000000000E+00 0.  1.
         25    1    1    2    0    0 -0.28218949434E+02  0.73153509452E+01 -0.65417283550E+03  0.66572661219E+03  0.12000000000E+03 0.  0.
         25    1    1    2    0    0  0.28218949434E+02 -0.73153509452E+01 -0.20385423307E+03  0.23834087314E+03  0.12000000000E+03 0.  0.
<mgrwt>
<rscale>  0 0.28482901E+03</rscale>
<asrwt>0</asrwt>
<pdfrwt beam="1">  1        2 0.13554572E+00 0.28482901E+03</pdfrwt>
<pdfrwt beam="2">  1       -2 0.35415710E-02 0.28482901E+03</pdfrwt>
<totfact> 0.10308658E+04</totfact>
</mgrwt>
</event>
<event>
 4    1  0.1728870E-004  0.2719538E+03  0.7818608E-02  0.1100167E+00
          2   -1    0    0  501    0  0.00000000000E+00  0.00000000000E+00  0.40149880848E+04  0.40149880848E+04  0.00000000000E+00 0. -1.
         -2   -1    0    0    0  501 -0.00000000000E+00 -0.00000000000E+00 -0.46051743086E+01  0.46051743086E+01  0.00000000000E+00 0. -1.
         25    1    1    2    0    0 -0.26110385664E+02 -0.56487767002E+02  0.22229708442E+04  0.22270770068E+04  0.12000000000E+03 0.  0.
         25    1    1    2    0    0  0.26110385664E+02  0.56487767002E+02  0.17874120662E+04  0.17925162523E+04  0.12000000000E+03 0.  0.
<mgrwt>
<rscale>  0 0.27195382E+03</rscale>
<asrwt>0</asrwt>
<pdfrwt beam="1">  1        2 0.61768768E+00 0.27195382E+03</pdfrwt>
<pdfrwt beam="2">  1       -2 0.70849156E-03 0.27195382E+03</pdfrwt>
<totfact> 0.15314354E+03</totfact>
</mgrwt>
</event>
<event>
 4    1  0.1728870E-004  0.2411042E+03  0.7818608E-02  0.1119059E+00
          2   -1    0    0  501    0  0.00000000000E+00  0.00000000000E+00  0.38612661688E+02  0.38612661688E+02  0.00000000000E+00 0. -1.
         -2   -1    0    0    0  501 -0.00000000000E+00 -0.00000000000E+00 -0.37637414277E+03  0.37637414277E+03  0.00000000000E+00 0. -1.
         25    1    1    2    0    0  0.20218166240E+01  0.93998014939E+01 -0.17981586114E+03  0.21639359494E+03  0.12000000000E+03 0.  0.
         25    1    1    2    0    0 -0.20218166240E+01 -0.93998014939E+01 -0.15794561994E+03  0.19859320952E+03  0.12000000000E+03 0.  0.
<mgrwt>
<rscale>  0 0.24110419E+03</rscale>
<asrwt>0</asrwt>
<pdfrwt beam="1">  1        2 0.59404096E-02 0.24110419E+03</pdfrwt>
<pdfrwt beam="2">  1       -2 0.57903713E-01 0.24110419E+03</pdfrwt>
<totfact> 0.35262279E+03</totfact>
</mgrwt>
</event>
<event>
 4    1  0.1728870E-004  0.2641365E+03  0.7818608E-02  0.1104683E+00
          1   -1    0    0  501    0  0.00000000000E+00  0.00000000000E+00  0.53148753326E+02  0.53148753326E+02  0.00000000000E+00 0.  1.
         -1   -1    0    0    0  501 -0.00000000000E+00 -0.00000000000E+00 -0.32817380624E+03  0.32817380624E+03  0.00000000000E+00 0.  1.
         25    1    1    2    0    0 -0.44278521956E+02 -0.32636236692E+02 -0.13168093431E+03  0.18645530272E+03  0.12000000000E+03 0.  0.
         25    1    1    2    0    0  0.44278521956E+02  0.32636236692E+02 -0.14334411861E+03  0.19486725685E+03  0.12000000000E+03 0.  0.
<mgrwt>
<rscale>  0 0.26413655E+03</rscale>
<asrwt>0</asrwt>
<pdfrwt beam="1">  1        1 0.81767311E-02 0.26413655E+03</pdfrwt>
<pdfrwt beam="2">  1       -1 0.50488279E-01 0.26413655E+03</pdfrwt>
<totfact> 0.33853568E+03</totfact>
</mgrwt>
</event>
<event>
 4    1  0.1728870E-004  0.2944851E+03  0.7818608E-02  0.1088030E+00
          2   -1    0    0  501    0  0.00000000000E+00  0.00000000000E+00  0.15550093879E+04  0.15550093879E+04  0.00000000000E+00 0. -1.
         -2   -1    0    0    0  501 -0.00000000000E+00 -0.00000000000E+00 -0.13942271946E+02  0.13942271946E+02  0.00000000000E+00 0. -1.
         25    1    1    2    0    0  0.40116821868E+02  0.72515647459E+02  0.66232776998E+03  0.67819315347E+03  0.12000000000E+03 0.  0.
         25    1    1    2    0    0 -0.40116821868E+02 -0.72515647459E+02  0.87873934596E+03  0.89075850637E+03  0.12000000000E+03 0.  0.
<mgrwt>
<rscale>  0 0.29448507E+03</rscale>
<asrwt>0</asrwt>
<pdfrwt beam="1">  1        2 0.23923208E+00 0.29448507E+03</pdfrwt>
<pdfrwt beam="2">  1       -2 0.21449661E-02 0.29448507E+03</pdfrwt>
<totfact> 0.89021476E+03</totfact>
</mgrwt>
</event>
<event>
 4    1  0.1728870E-004  0.2575215E+03  0.7818608E-02  0.1108642E+00
         -2   -1    0    0    0  501 -0.00000000000E+00  0.00000000000E+00  0.11524456675E+02  0.11524456675E+02  0.00000000000E+00 0.  1.
          2   -1    0    0  501    0  0.00000000000E+00 -0.00000000000E+00 -0.14386214517E+04  0.14386214517E+04  0.00000000000E+00 0.  1.
         25    1    1    2    0    0 -0.36820804585E+02 -0.27712972978E+02 -0.67157834816E+03  0.68376988691E+03  0.12000000000E+03 0.  0.
         25    1    1    2    0    0  0.36820804585E+02  0.27712972978E+02 -0.75551864685E+03  0.76637602146E+03  0.12000000000E+03 0.  0.
<mgrwt>
<rscale>  0 0.25752150E+03</rscale>
<asrwt>0</asrwt>
<pdfrwt beam="1">  1        2 0.22132643E+00 0.25752150E+03</pdfrwt>
<pdfrwt beam="2">  1       -2 0.17729929E-02 0.25752150E+03</pdfrwt>
<totfact> 0.13559873E+04</totfact>
</mgrwt>
</event>
<event>
 4    1  0.1728870E-004  0.3547717E+03  0.7818608E-02  0.1060673E+00
         -1   -1    0    0    0  501 -0.00000000000E+00  0.00000000000E+00  0.69905336148E+02  0.69905336148E+02  0.00000000000E+00 0. -1.
          1   -1    0    0  501    0  0.00000000000E+00 -0.00000000000E+00 -0.45011933682E+03  0.45011933682E+03  0.00000000000E+00 0. -1.
         25    1    1    2    0    0  0.82794999509E+02  0.99553096991E+02 -0.21549171147E+03  0.27857226850E+03  0.12000000000E+03 0.  0.
         25    1    1    2    0    0 -0.82794999509E+02 -0.99553096991E+02 -0.16472228921E+03  0.24145240447E+03  0.12000000000E+03 0.  0.
<mgrwt>
<rscale>  0 0.35477172E+03</rscale>
<asrwt>0</asrwt>
<pdfrwt beam="1">  1        1 0.69249128E-01 0.35477172E+03</pdfrwt>
<pdfrwt beam="2">  1       -1 0.10754667E-01 0.35477172E+03</pdfrwt>
<totfact> 0.28342636E+03</totfact>
</mgrwt>
</event>
<event>
 4    1  0.1728870E-004  0.2446681E+03  0.7818608E-02  0.1116722E+00
         -2   -1    0    0    0  501 -0.00000000000E+00  0.00000000000E+00  0.87631476605E+02  0.87631476605E+02  0.00000000000E+00 0.  1.
          2   -1    0    0  501    0  0.00000000000E+00 -0.00000000000E+00 -0.17077911291E+03  0.17077911291E+03  0.00000000000E+00 0.  1.
         25    1    1    2    0    0  0.11748005216E+01  0.16522621618E+02 -0.59598384899E+02  0.13500498015E+03  0.12000000000E+03 0.  0.
         25    1    1    2    0    0 -0.11748005216E+01 -0.16522621618E+02 -0.23549251401E+02  0.12340560937E+03  0.12000000000E+03 0.  0.
<mgrwt>
<rscale>  0 0.24466815E+03</rscale>
<asrwt>0</asrwt>
<pdfrwt beam="1">  1        2 0.26273710E-01 0.24466815E+03</pdfrwt>
<pdfrwt beam="2">  1       -2 0.13481766E-01 0.24466815E+03</pdfrwt>
<totfact> 0.81784626E+03</totfact>
</mgrwt>
</event>
<event>
 4    1  0.1728870E-004  0.2983793E+03  0.7818608E-02  0.1086054E+00
          2   -1    0    0  501    0  0.00000000000E+00  0.00000000000E+00  0.78689840206E+03  0.78689840206E+03  0.00000000000E+00 0. -1.
         -2   -1    0    0    0  501 -0.00000000000E+00 -0.00000000000E+00 -0.28285168669E+02  0.28285168669E+02  0.00000000000E+00 0. -1.
         25    1    1    2    0    0 -0.62803521984E+02  0.50811886726E+02  0.27961816152E+03  0.31482129289E+03  0.12000000000E+03 0.  0.
         25    1    1    2    0    0  0.62803521984E+02 -0.50811886726E+02  0.47899507188E+03  0.50036227785E+03  0.12000000000E+03 0.  0.
<mgrwt>
<rscale>  0 0.29837932E+03</rscale>
<asrwt>0</asrwt>
<pdfrwt beam="1">  1        2 0.12106128E+00 0.29837932E+03</pdfrwt>
<pdfrwt beam="2">  1       -2 0.43515650E-02 0.29837932E+03</pdfrwt>
<totfact> 0.87658022E+03</totfact>
</mgrwt>
</event>
<event>
 4    1  0.1728870E-004  0.4057430E+03  0.7818608E-02  0.1041809E+00
         -2   -1    0    0    0  501 -0.00000000000E+00  0.00000000000E+00  0.44203239128E+02  0.44203239128E+02  0.00000000000E+00 0. -1.
          2   -1    0    0  501    0  0.00000000000E+00 -0.00000000000E+00 -0.93108215638E+03  0.93108215638E+03  0.00000000000E+00 0. -1.
         25    1    1    2    0    0  0.15657358262E+03 -0.47163308939E+02 -0.43347562091E+03  0.47858204982E+03  0.12000000000E+03 0.  0.
         25    1    1    2    0    0 -0.15657358262E+03  0.47163308939E+02 -0.45340329635E+03  0.49670334570E+03  0.12000000000E+03 0.  0.
<mgrwt>
<rscale>  0 0.40574301E+03</rscale>
<asrwt>0</asrwt>
<pdfrwt beam="1">  1        2 0.14324339E+00 0.40574301E+03</pdfrwt>
<pdfrwt beam="2">  1       -2 0.68004991E-02 0.40574301E+03</pdfrwt>
<totfact> 0.35519221E+03</totfact>
</mgrwt>
</event>
<event>
 4    1  0.1728870E-004  0.2670750E+03  0.7818608E-02  0.1102965E+00
         -2   -1    0    0    0  501 -0.00000000000E+00  0.00000000000E+00  0.20738064340E+02  0.20738064340E+02  0.00000000000E+00 0. -1.
          2   -1    0    0  501    0  0.00000000000E+00 -0.00000000000E+00 -0.85988060239E+03  0.85988060239E+03  0.00000000000E+00 0. -1.
         25    1    1    2    0    0 -0.55285797133E+02 -0.82778467001E+01 -0.47736456087E+03  0.49538062749E+03  0.12000000000E+03 0.  0.
         25    1    1    2    0    0  0.55285797133E+02  0.82778467001E+01 -0.36177797718E+03  0.38523803925E+03  0.12000000000E+03 0.  0.
<mgrwt>
<rscale>  0 0.26707497E+03</rscale>
<asrwt>0</asrwt>
<pdfrwt beam="1">  1        2 0.13228932E+00 0.26707497E+03</pdfrwt>
<pdfrwt beam="2">  1       -2 0.31904716E-02 0.26707497E+03</pdfrwt>
<totfact> 0.12415150E+04</totfact>
</mgrwt>
</event>
<event>
 4    1  0.1728870E-004  0.2444861E+03  0.7818608E-02  0.1116840E+00
          3   -1    0    0  501    0  0.00000000000E+00  0.00000000000E+00  0.28356305309E+02  0.28356305309E+02  0.00000000000E+00 0. -1.
         -3   -1    0    0    0  501 -0.00000000000E+00 -0.00000000000E+00 -0.52698545146E+03  0.52698545146E+03  0.00000000000E+00 0. -1.
         25    1    1    2    0    0  0.18839483502E+02  0.13726677474E+02 -0.24956895784E+03  0.27789928487E+03  0.12000000000E+03 0.  0.
         25    1    1    2    0    0 -0.18839483502E+02 -0.13726677474E+02 -0.24906018831E+03  0.27744247190E+03  0.12000000000E+03 0.  0.
<mgrwt>
<rscale>  0 0.24448608E+03</rscale>
<asrwt>0</asrwt>
<pdfrwt beam="1">  1        3 0.43625087E-02 0.24448608E+03</pdfrwt>
<pdfrwt beam="2">  1       -3 0.81074681E-01 0.24448608E+03</pdfrwt>
<totfact> 0.10285582E+03</totfact>
</mgrwt>
</event>
<event>
 4    1  0.1728870E-004  0.3329034E+03  0.7818608E-02  0.1069859E+00
         -1   -1    0    0    0  501 -0.00000000000E+00  0.00000000000E+00  0.85440715141E+02  0.85440715141E+02  0.00000000000E+00 0. -1.
          1   -1    0    0  501    0  0.00000000000E+00 -0.00000000000E+00 -0.32427355896E+03  0.32427355896E+03  0.00000000000E+00 0. -1.
         25    1    1    2    0    0  0.49753471583E+02 -0.73791261833E+02 -0.29097196846E+02  0.15220776958E+03  0.12000000000E+03 0.  0.
         25    1    1    2    0    0 -0.49753471583E+02  0.73791261833E+02 -0.20973564697E+03  0.25750650452E+03  0.12000000000E+03 0.  0.
<mgrwt>
<rscale>  0 0.33290338E+03</rscale>
<asrwt>0</asrwt>
<pdfrwt beam="1">  1        1 0.49888240E-01 0.33290338E+03</pdfrwt>
<pdfrwt beam="2">  1       -1 0.13144725E-01 0.33290338E+03</pdfrwt>
<totfact> 0.31527126E+03</totfact>
</mgrwt>
</event>
<event>
 4    1  0.1728870E-004  0.5401757E+03  0.7818608E-02  0.1003794E+00
         -1   -1    0    0    0  501 -0.00000000000E+00  0.00000000000E+00  0.91155785458E+02  0.91155785458E+02  0.00000000000E+00 0. -1.
          1   -1    0    0  501    0  0.00000000000E+00 -0.00000000000E+00 -0.80025031256E+03  0.80025031256E+03  0.00000000000E+00 0. -1.
         25    1    1    2    0    0  0.23207771085E+03  0.60450432649E+00 -0.46752394183E+03  0.53557358549E+03  0.12000000000E+03 0.  0.
         25    1    1    2    0    0 -0.23207771085E+03 -0.60450432649E+00 -0.24157058528E+03  0.35583251253E+03  0.12000000000E+03 0.  0.
<mgrwt>
<rscale>  0 0.54017570E+03</rscale>
<asrwt>0</asrwt>
<pdfrwt beam="1">  1        1 0.12311543E+00 0.54017570E+03</pdfrwt>
<pdfrwt beam="2">  1       -1 0.14023967E-01 0.54017570E+03</pdfrwt>
<totfact> 0.81940866E+02</totfact>
</mgrwt>
</event>
<event>
 4    1  0.1728870E-004  0.3664616E+03  0.7818608E-02  0.1056054E+00
          2   -1    0    0  501    0  0.00000000000E+00  0.00000000000E+00  0.16176655653E+04  0.16176655653E+04  0.00000000000E+00 0.  1.
         -2   -1    0    0    0  501 -0.00000000000E+00 -0.00000000000E+00 -0.20754307931E+02  0.20754307931E+02  0.00000000000E+00 0.  1.
         25    1    1    2    0    0  0.10789659160E+03  0.68629914444E+02  0.56095813543E+03  0.58772933340E+03  0.12000000000E+03 0.  0.
         25    1    1    2    0    0 -0.10789659160E+03 -0.68629914444E+02  0.10359531219E+04  0.10506905398E+04  0.12000000000E+03 0.  0.
<mgrwt>
<rscale>  0 0.36646162E+03</rscale>
<asrwt>0</asrwt>
<pdfrwt beam="1">  1        2 0.24887153E+00 0.36646162E+03</pdfrwt>
<pdfrwt beam="2">  1       -2 0.31929717E-02 0.36646162E+03</pdfrwt>
<totfact> 0.45622748E+03</totfact>
</mgrwt>
</event>
<event>
 4    1  0.1728870E-004  0.2423595E+03  0.7818608E-02  0.1118231E+00
          2   -1    0    0  501    0  0.00000000000E+00  0.00000000000E+00  0.21748866508E+04  0.21748866508E+04  0.00000000000E+00 0.  1.
         -2   -1    0    0    0  501 -0.00000000000E+00 -0.00000000000E+00 -0.67518599781E+01  0.67518599781E+01  0.00000000000E+00 0.  1.
         25    1    1    2    0    0 -0.11333710230E+02 -0.87821257399E+01  0.10040834680E+04  0.10113304057E+04  0.12000000000E+03 0.  0.
         25    1    1    2    0    0  0.11333710230E+02  0.87821257399E+01  0.11640513228E+04  0.11703081051E+04  0.12000000000E+03 0.  0.
<mgrwt>
<rscale>  0 0.24235949E+03</rscale>
<asrwt>0</asrwt>
<pdfrwt beam="1">  1        2 0.33459739E+00 0.24235949E+03</pdfrwt>
<pdfrwt beam="2">  1       -2 0.10387494E-02 0.24235949E+03</pdfrwt>
<totfact> 0.12084834E+04</totfact>
</mgrwt>
</event>
<event>
 4    1  0.1728870E-004  0.2704995E+03  0.7818608E-02  0.1100994E+00
         -2   -1    0    0    0  501 -0.00000000000E+00  0.00000000000E+00  0.10363168948E+02  0.10363168948E+02  0.00000000000E+00 0. -1.
          2   -1    0    0  501    0  0.00000000000E+00 -0.00000000000E+00 -0.17651448552E+04  0.17651448552E+04  0.00000000000E+00 0. -1.
         25    1    1    2    0    0  0.70285006522E+00  0.58876075593E+02 -0.74197760947E+03  0.75392152060E+03  0.12000000000E+03 0.  0.
         25    1    1    2    0    0 -0.70285006522E+00 -0.58876075593E+02 -0.10128040768E+04  0.10215865036E+04  0.12000000000E+03 0.  0.
<mgrwt>
<rscale>  0 0.27049950E+03</rscale>
<asrwt>0</asrwt>
<pdfrwt beam="1">  1        2 0.27156082E+00 0.27049950E+03</pdfrwt>
<pdfrwt beam="2">  1       -2 0.15943333E-02 0.27049950E+03</pdfrwt>
<totfact> 0.10647253E+04</totfact>
</mgrwt>
</event>
<event>
 4    1  0.1728870E-004  0.3267598E+03  0.7818608E-02  0.1072580E+00
          3   -1    0    0  501    0  0.00000000000E+00  0.00000000000E+00  0.40044976273E+03  0.40044976273E+03  0.00000000000E+00 0.  1.
         -3   -1    0    0    0  501 -0.00000000000E+00 -0.00000000000E+00 -0.66657511997E+02  0.66657511997E+02  0.00000000000E+00 0.  1.
         25    1    1    2    0    0  0.10623565013E+03  0.31584166004E+02  0.17128171693E+03  0.23668755661E+03  0.12000000000E+03 0.  0.
         25    1    1    2    0    0 -0.10623565013E+03 -0.31584166004E+02  0.16251053380E+03  0.23041971812E+03  0.12000000000E+03 0.  0.
<mgrwt>
<rscale>  0 0.32675976E+03</rscale>
<asrwt>0</asrwt>
<pdfrwt beam="1">  1        3 0.61607654E-01 0.32675976E+03</pdfrwt>
<pdfrwt beam="2">  1       -3 0.10255002E-01 0.32675976E+03</pdfrwt>
<totfact> 0.47530949E+02</totfact>
</mgrwt>
</event>
<event>
 4    1  0.1728870E-004  0.2643475E+03  0.7818608E-02  0.1104559E+00
          1   -1    0    0  501    0  0.00000000000E+00  0.00000000000E+00  0.44482931269E+03  0.44482931269E+03  0.00000000000E+00 0.  1.
         -1   -1    0    0    0  501 -0.00000000000E+00 -0.00000000000E+00 -0.39273276071E+02  0.39273276071E+02  0.00000000000E+00 0.  1.
         25    1    1    2    0    0  0.30178798021E+02  0.36497700424E+02  0.15011190272E+03  0.19793035473E+03  0.12000000000E+03 0.  0.
         25    1    1    2    0    0 -0.30178798021E+02 -0.36497700424E+02  0.25544413390E+03  0.28617223403E+03  0.12000000000E+03 0.  0.
<mgrwt>
<rscale>  0 0.26434753E+03</rscale>
<asrwt>0</asrwt>
<pdfrwt beam="1">  1        1 0.68435275E-01 0.26434753E+03</pdfrwt>
<pdfrwt beam="2">  1       -1 0.60420428E-02 0.26434753E+03</pdfrwt>
<totfact> 0.69213055E+03</totfact>
</mgrwt>
</event>
<event>
 4    1  0.1728870E-004  0.2890725E+03  0.7818608E-02  0.1090834E+00
          2   -1    0    0  501    0  0.00000000000E+00  0.00000000000E+00  0.70003151944E+03  0.70003151944E+03  0.00000000000E+00 0. -1.
         -2   -1    0    0    0  501 -0.00000000000E+00 -0.00000000000E+00 -0.29842548779E+02  0.29842548779E+02  0.00000000000E+00 0. -1.
         25    1    1    2    0    0 -0.52099259206E+02 -0.28462365415E+02  0.47260872578E+03  0.49120611432E+03  0.12000000000E+03 0.  0.
         25    1    1    2    0    0  0.52099259206E+02  0.28462365415E+02  0.19758024488E+03  0.23866795390E+03  0.12000000000E+03 0.  0.
<mgrwt>
<rscale>  0 0.28907248E+03</rscale>
<asrwt>0</asrwt>
<pdfrwt beam="1">  1        2 0.10769714E+00 0.28907248E+03</pdfrwt>
<pdfrwt beam="2">  1       -2 0.45911619E-02 0.28907248E+03</pdfrwt>
<totfact> 0.93368635E+03</totfact>
</mgrwt>
</event>
<event>
 4    1  0.1728870E-004  0.3181354E+03  0.7818608E-02  0.1076511E+00
         -1   -1    0    0    0  501 -0.00000000000E+00  0.00000000000E+00  0.71638589673E+02  0.71638589673E+02  0.00000000000E+00 0. -1.
          1   -1    0    0  501    0  0.00000000000E+00 -0.00000000000E+00 -0.35319699256E+03  0.35319699256E+03  0.00000000000E+00 0. -1.
         25    1    1    2    0    0 -0.13185068127E+02  0.10281527830E+03 -0.15754924900E+03  0.22353208569E+03  0.12000000000E+03 0.  0.
         25    1    1    2    0    0  0.13185068127E+02 -0.10281527830E+03 -0.12400915389E+03  0.20130349655E+03  0.12000000000E+03 0.  0.
<mgrwt>
<rscale>  0 0.31813541E+03</rscale>
<asrwt>0</asrwt>
<pdfrwt beam="1">  1        1 0.54338000E-01 0.31813541E+03</pdfrwt>
<pdfrwt beam="2">  1       -1 0.11021321E-01 0.31813541E+03</pdfrwt>
<totfact> 0.37254455E+03</totfact>
</mgrwt>
</event>
<event>
 4    1  0.1728870E-004  0.3246697E+03  0.7818608E-02  0.1073520E+00
          2   -1    0    0  501    0  0.00000000000E+00  0.00000000000E+00  0.65636541076E+03  0.65636541076E+03  0.00000000000E+00 0.  1.
         -2   -1    0    0    0  501 -0.00000000000E+00 -0.00000000000E+00 -0.40149279822E+02  0.40149279822E+02  0.00000000000E+00 0.  1.
         25    1    1    2    0    0  0.62637049128E+02  0.71833406220E+02  0.42302022169E+03  0.44992171111E+03  0.12000000000E+03 0.  0.
         25    1    1    2    0    0 -0.62637049128E+02 -0.71833406220E+02  0.19319590924E+03  0.24659297947E+03  0.12000000000E+03 0.  0.
<mgrwt>
<rscale>  0 0.32466967E+03</rscale>
<asrwt>0</asrwt>
<pdfrwt beam="1">  1        2 0.10097929E+00 0.32466967E+03</pdfrwt>
<pdfrwt beam="2">  1       -2 0.61768128E-02 0.32466967E+03</pdfrwt>
<totfact> 0.64322795E+03</totfact>
</mgrwt>
</event>
<event>
 4    1  0.1728870E-004  0.2634993E+03  0.7818608E-02  0.1105059E+00
         -2   -1    0    0    0  501 -0.00000000000E+00  0.00000000000E+00  0.82846106445E+02  0.82846106445E+02  0.00000000000E+00 0. -1.
          2   -1    0    0  501    0  0.00000000000E+00 -0.00000000000E+00 -0.20952061677E+03  0.20952061677E+03  0.00000000000E+00 0. -1.
         25    1    1    2    0    0  0.52682159650E+02 -0.99327087275E+01 -0.53174158561E+02  0.14177996962E+03  0.12000000000E+03 0.  0.
         25    1    1    2    0    0 -0.52682159650E+02  0.99327087275E+01 -0.73500351769E+02  0.15058675359E+03  0.12000000000E+03 0.  0.
<mgrwt>
<rscale>  0 0.26349928E+03</rscale>
<asrwt>0</asrwt>
<pdfrwt beam="1">  1        2 0.32233941E-01 0.26349928E+03</pdfrwt>
<pdfrwt beam="2">  1       -2 0.12745555E-01 0.26349928E+03</pdfrwt>
<totfact> 0.71804582E+03</totfact>
</mgrwt>
</event>
<event>
 4    1  0.1728870E-004  0.2605669E+03  0.7818608E-02  0.1106803E+00
          2   -1    0    0  501    0  0.00000000000E+00  0.00000000000E+00  0.32724788262E+03  0.32724788262E+03  0.00000000000E+00 0. -1.
         -2   -1    0    0    0  501 -0.00000000000E+00 -0.00000000000E+00 -0.51868259876E+02  0.51868259876E+02  0.00000000000E+00 0. -1.
         25    1    1    2    0    0  0.10872168134E+02 -0.20457431873E+02  0.72021515454E+02  0.14185841268E+03  0.12000000000E+03 0.  0.
         25    1    1    2    0    0 -0.10872168134E+02  0.20457431873E+02  0.20335810729E+03  0.23725772982E+03  0.12000000000E+03 0.  0.
<mgrwt>
<rscale>  0 0.26056691E+03</rscale>
<asrwt>0</asrwt>
<pdfrwt beam="1">  1        2 0.50345826E-01 0.26056691E+03</pdfrwt>
<pdfrwt beam="2">  1       -2 0.79797325E-02 0.26056691E+03</pdfrwt>
<totfact> 0.93399814E+03</totfact>
</mgrwt>
</event>
<event>
 4    1  0.1728870E-004  0.2971326E+03  0.7818608E-02  0.1086683E+00
          2   -1    0    0  501    0  0.00000000000E+00  0.00000000000E+00  0.21707579553E+04  0.21707579553E+04  0.00000000000E+00 0. -1.
         -2   -1    0    0    0  501 -0.00000000000E+00 -0.00000000000E+00 -0.10167851572E+02  0.10167851572E+02  0.00000000000E+00 0. -1.
         25    1    1    2    0    0 -0.71378159996E+02  0.49607951990E+02  0.11594007557E+04  0.11688309984E+04  0.12000000000E+03 0.  0.
         25    1    1    2    0    0  0.71378159996E+02 -0.49607951990E+02  0.10011893481E+04  0.10120948085E+04  0.12000000000E+03 0.  0.
<mgrwt>
<rscale>  0 0.29713259E+03</rscale>
<asrwt>0</asrwt>
<pdfrwt beam="1">  1        2 0.33396239E+00 0.29713259E+03</pdfrwt>
<pdfrwt beam="2">  1       -2 0.15642866E-02 0.29713259E+03</pdfrwt>
<totfact> 0.66971550E+03</totfact>
</mgrwt>
</event>
<event>
 4    1  0.1728870E-004  0.3064477E+03  0.7818608E-02  0.1082061E+00
          1   -1    0    0  501    0  0.00000000000E+00  0.00000000000E+00  0.17162102520E+03  0.17162102520E+03  0.00000000000E+00 0. -1.
         -1   -1    0    0    0  501 -0.00000000000E+00 -0.00000000000E+00 -0.13679880532E+03  0.13679880532E+03  0.00000000000E+00 0. -1.
         25    1    1    2    0    0  0.49662215815E+02  0.61514763660E+02 -0.36102010827E+02  0.14816800266E+03  0.12000000000E+03 0.  0.
         25    1    1    2    0    0 -0.49662215815E+02 -0.61514763660E+02  0.70924230706E+02  0.16025182785E+03  0.12000000000E+03 0.  0.
<mgrwt>
<rscale>  0 0.30644772E+03</rscale>
<asrwt>0</asrwt>
<pdfrwt beam="1">  1        1 0.26403235E-01 0.30644772E+03</pdfrwt>
<pdfrwt beam="2">  1       -1 0.21045970E-01 0.30644772E+03</pdfrwt>
<totfact> 0.33035781E+03</totfact>
</mgrwt>
</event>
<event>
 4    1  0.1728870E-004  0.3073048E+03  0.7818608E-02  0.1081645E+00
          2   -1    0    0  501    0  0.00000000000E+00  0.00000000000E+00  0.35999154602E+03  0.35999154602E+03  0.00000000000E+00 0. -1.
         -2   -1    0    0    0  501 -0.00000000000E+00 -0.00000000000E+00 -0.65582261355E+02  0.65582261355E+02  0.00000000000E+00 0. -1.
         25    1    1    2    0    0 -0.76771562661E+02  0.44995457894E+02  0.19695550768E+03  0.24720423959E+03  0.12000000000E+03 0.  0.
         25    1    1    2    0    0  0.76771562661E+02 -0.44995457894E+02  0.97453776985E+02  0.17836956779E+03  0.12000000000E+03 0.  0.
<mgrwt>
<rscale>  0 0.30730480E+03</rscale>
<asrwt>0</asrwt>
<pdfrwt beam="1">  1        2 0.55383314E-01 0.30730480E+03</pdfrwt>
<pdfrwt beam="2">  1       -2 0.10089579E-01 0.30730480E+03</pdfrwt>
<totfact> 0.58545251E+03</totfact>
</mgrwt>
</event>
<event>
 4    1  0.1728870E-004  0.3909676E+03  0.7818608E-02  0.1046953E+00
         -3   -1    0    0    0  501 -0.00000000000E+00  0.00000000000E+00  0.93770089479E+03  0.93770089479E+03  0.00000000000E+00 0. -1.
          3   -1    0    0  501    0  0.00000000000E+00 -0.00000000000E+00 -0.40752779403E+02  0.40752779403E+02  0.00000000000E+00 0. -1.
         25    1    1    2    0    0 -0.14885858690E+02  0.13387438165E+03  0.26002663139E+03  0.31647715223E+03  0.12000000000E+03 0.  0.
         25    1    1    2    0    0  0.14885858690E+02 -0.13387438165E+03  0.63692148399E+03  0.66197652195E+03  0.12000000000E+03 0.  0.
<mgrwt>
<rscale>  0 0.39096761E+03</rscale>
<asrwt>0</asrwt>
<pdfrwt beam="1">  1        3 0.62696591E-02 0.39096761E+03</pdfrwt>
<pdfrwt beam="2">  1       -3 0.14426166E+00 0.39096761E+03</pdfrwt>
<totfact> 0.15447853E+02</totfact>
</mgrwt>
</event>
<event>
 4    1  0.1728870E-004  0.2584605E+03  0.7818608E-02  0.1108072E+00
          2   -1    0    0  501    0  0.00000000000E+00  0.00000000000E+00  0.89306117862E+03  0.89306117862E+03  0.00000000000E+00 0.  1.
         -2   -1    0    0    0  501 -0.00000000000E+00 -0.00000000000E+00 -0.18700237012E+02  0.18700237012E+02  0.00000000000E+00 0.  1.
         25    1    1    2    0    0  0.33507220619E+02 -0.15900277936E+02  0.32989642200E+03  0.35299745313E+03  0.12000000000E+03 0.  0.
         25    1    1    2    0    0 -0.33507220619E+02  0.15900277936E+02  0.54446451961E+03  0.55876396249E+03  0.12000000000E+03 0.  0.
<mgrwt>
<rscale>  0 0.25846049E+03</rscale>
<asrwt>0</asrwt>
<pdfrwt beam="1">  1        2 0.13739399E+00 0.25846049E+03</pdfrwt>
<pdfrwt beam="2">  1       -2 0.28769602E-02 0.25846049E+03</pdfrwt>
<totfact> 0.13756732E+04</totfact>
</mgrwt>
</event>
<event>
 4    1  0.1728870E-004  0.2985459E+03  0.7818608E-02  0.1085970E+00
          2   -1    0    0  501    0  0.00000000000E+00  0.00000000000E+00  0.70485833146E+03  0.70485833146E+03  0.00000000000E+00 0.  1.
         -2   -1    0    0    0  501 -0.00000000000E+00 -0.00000000000E+00 -0.31612603192E+02  0.31612603192E+02  0.00000000000E+00 0.  1.
         25    1    1    2    0    0  0.51347594276E+02  0.65770153933E+02  0.26179448006E+03  0.29983101637E+03  0.12000000000E+03 0.  0.
         25    1    1    2    0    0 -0.51347594276E+02 -0.65770153933E+02  0.41145124821E+03  0.43663991828E+03  0.12000000000E+03 0.  0.
<mgrwt>
<rscale>  0 0.29854585E+03</rscale>
<asrwt>0</asrwt>
<pdfrwt beam="1">  1        2 0.10843973E+00 0.29854585E+03</pdfrwt>
<pdfrwt beam="2">  1       -2 0.48634779E-02 0.29854585E+03</pdfrwt>
<totfact> 0.84917204E+03</totfact>
</mgrwt>
</event>
<event>
 4    1  0.1728870E-004  0.3530457E+03  0.7818608E-02  0.1061372E+00
          2   -1    0    0  501    0  0.00000000000E+00  0.00000000000E+00  0.40212945744E+03  0.40212945744E+03  0.00000000000E+00 0.  1.
         -2   -1    0    0    0  501 -0.00000000000E+00 -0.00000000000E+00 -0.77488262395E+02  0.77488262395E+02  0.00000000000E+00 0.  1.
         25    1    1    2    0    0 -0.25261908787E+02  0.16757636701E+02  0.33330643764E+03  0.35554488295E+03  0.12000000000E+03 0.  0.
         25    1    1    2    0    0  0.25261908787E+02 -0.16757636701E+02 -0.86652425908E+01  0.12407283688E+03  0.12000000000E+03 0.  0.
<mgrwt>
<rscale>  0 0.35304568E+03</rscale>
<asrwt>0</asrwt>
<pdfrwt beam="1">  1        2 0.61866069E-01 0.35304568E+03</pdfrwt>
<pdfrwt beam="2">  1       -2 0.11921271E-01 0.35304568E+03</pdfrwt>
<totfact> 0.39808421E+03</totfact>
</mgrwt>
</event>
<event>
 4    1  0.1728870E-004  0.3823500E+03  0.7818608E-02  0.1050069E+00
         -1   -1    0    0    0  501 -0.00000000000E+00  0.00000000000E+00  0.13499643607E+04  0.13499643607E+04  0.00000000000E+00 0. -1.
          1   -1    0    0  501    0  0.00000000000E+00 -0.00000000000E+00 -0.27073213058E+02  0.27073213058E+02  0.00000000000E+00 0. -1.
         25    1    1    2    0    0  0.14688135696E+03 -0.52554014486E+01  0.57728106759E+03  0.60766370902E+03  0.12000000000E+03 0.  0.
         25    1    1    2    0    0 -0.14688135696E+03  0.52554014486E+01  0.74561008010E+03  0.76937386478E+03  0.12000000000E+03 0.  0.
<mgrwt>
<rscale>  0 0.38234996E+03</rscale>
<asrwt>0</asrwt>
<pdfrwt beam="1">  1        1 0.41651107E-02 0.38234996E+03</pdfrwt>
<pdfrwt beam="2">  1       -1 0.20768677E+00 0.38234996E+03</pdfrwt>
<totfact> 0.31793390E+02</totfact>
</mgrwt>
</event>
<event>
 4    1  0.1728870E-004  0.3407534E+03  0.7818608E-02  0.1066475E+00
          2   -1    0    0  501    0  0.00000000000E+00  0.00000000000E+00  0.54061834971E+03  0.54061834971E+03  0.00000000000E+00 0.  1.
         -2   -1    0    0    0  501 -0.00000000000E+00 -0.00000000000E+00 -0.53694493187E+02  0.53694493187E+02  0.00000000000E+00 0.  1.
         25    1    1    2    0    0  0.11455301020E+03  0.32415871507E+02  0.28066708894E+03  0.32763881896E+03  0.12000000000E+03 0.  0.
         25    1    1    2    0    0 -0.11455301020E+03 -0.32415871507E+02  0.20625676758E+03  0.26667402394E+03  0.12000000000E+03 0.  0.
<mgrwt>
<rscale>  0 0.34075345E+03</rscale>
<asrwt>0</asrwt>
<pdfrwt beam="1">  1        2 0.83172050E-01 0.34075345E+03</pdfrwt>
<pdfrwt beam="2">  1       -2 0.82606916E-02 0.34075345E+03</pdfrwt>
<totfact> 0.51356376E+03</totfact>
</mgrwt>
</event>
<event>
 4    1  0.1728870E-004  0.2422808E+03  0.7818608E-02  0.1118283E+00
         -1   -1    0    0    0  501 -0.00000000000E+00  0.00000000000E+00  0.12415771533E+02  0.12415771533E+02  0.00000000000E+00 0. -1.
          1   -1    0    0  501    0  0.00000000000E+00 -0.00000000000E+00 -0.11819645115E+04  0.11819645115E+04  0.00000000000E+00 0. -1.
         25    1    1    2    0    0  0.20767747375E+01 -0.36388310255E+01 -0.66387276741E+03  0.67464405830E+03  0.12000000000E+03 0.  0.
         25    1    1    2    0    0 -0.20767747375E+01  0.36388310255E+01 -0.50567597259E+03  0.51973622477E+03  0.12000000000E+03 0.  0.
<mgrwt>
<rscale>  0 0.24228084E+03</rscale>
<asrwt>0</asrwt>
<pdfrwt beam="1">  1        1 0.18184070E+00 0.24228084E+03</pdfrwt>
<pdfrwt beam="2">  1       -1 0.19101187E-02 0.24228084E+03</pdfrwt>
<totfact> 0.86067072E+03</totfact>
</mgrwt>
</event>
<event>
 4    1  0.1728870E-004  0.2589729E+03  0.7818608E-02  0.1107762E+00
          2   -1    0    0  501    0  0.00000000000E+00  0.00000000000E+00  0.26922943255E+04  0.26922943255E+04  0.00000000000E+00 0. -1.
         -2   -1    0    0    0  501 -0.00000000000E+00 -0.00000000000E+00 -0.62276777316E+01  0.62276777316E+01  0.00000000000E+00 0. -1.
         25    1    1    2    0    0 -0.24612758289E+02 -0.17675876007E+02  0.17396157142E+04  0.17440129178E+04  0.12000000000E+03 0.  0.
         25    1    1    2    0    0  0.24612758289E+02  0.17675876007E+02  0.94645093357E+03  0.95450908540E+03  0.12000000000E+03 0.  0.
<mgrwt>
<rscale>  0 0.25897291E+03</rscale>
<asrwt>0</asrwt>
<pdfrwt beam="1">  1        2 0.41419820E+00 0.25897291E+03</pdfrwt>
<pdfrwt beam="2">  1       -2 0.95810641E-03 0.25897291E+03</pdfrwt>
<totfact> 0.71176886E+03</totfact>
</mgrwt>
</event>
<event>
 4    1  0.1728870E-004  0.2552704E+03  0.7818608E-02  0.1110019E+00
         -1   -1    0    0    0  501 -0.00000000000E+00  0.00000000000E+00  0.18871408580E+02  0.18871408580E+02  0.00000000000E+00 0.  1.
          1   -1    0    0  501    0  0.00000000000E+00 -0.00000000000E+00 -0.86325019197E+03  0.86325019197E+03  0.00000000000E+00 0.  1.
         25    1    1    2    0    0 -0.61490207557E+01  0.16657130981E+02 -0.28502735014E+03  0.30976743017E+03  0.12000000000E+03 0.  0.
         25    1    1    2    0    0  0.61490207557E+01 -0.16657130981E+02 -0.55935143325E+03  0.57235417038E+03  0.12000000000E+03 0.  0.
<mgrwt>
<rscale>  0 0.25527042E+03</rscale>
<asrwt>0</asrwt>
<pdfrwt beam="1">  1        1 0.13280773E+00 0.25527042E+03</pdfrwt>
<pdfrwt beam="2">  1       -1 0.29032934E-02 0.25527042E+03</pdfrwt>
<totfact> 0.80547687E+03</totfact>
</mgrwt>
</event>
<event>
 4    1  0.1728870E-004  0.2524944E+03  0.7818608E-02  0.1111739E+00
          2   -1    0    0  501    0  0.00000000000E+00  0.00000000000E+00  0.65909409130E+03  0.65909409130E+03  0.00000000000E+00 0.  1.
         -2   -1    0    0    0  501 -0.00000000000E+00 -0.00000000000E+00 -0.24182211953E+02  0.24182211953E+02  0.00000000000E+00 0.  1.
         25    1    1    2    0    0  0.18408281587E+01 -0.14799979505E+02  0.21929014045E+03  0.25042083328E+03  0.12000000000E+03 0.  0.
         25    1    1    2    0    0 -0.18408281587E+01  0.14799979505E+02  0.41562173889E+03  0.43285546997E+03  0.12000000000E+03 0.  0.
<mgrwt>
<rscale>  0 0.25249438E+03</rscale>
<asrwt>0</asrwt>
<pdfrwt beam="1">  1        2 0.10139908E+00 0.25249438E+03</pdfrwt>
<pdfrwt beam="2">  1       -2 0.37203408E-02 0.25249438E+03</pdfrwt>
<totfact> 0.13707846E+04</totfact>
</mgrwt>
</event>
<event>
 4    1  0.1728870E-004  0.4187980E+03  0.7818608E-02  0.1037458E+00
          2   -1    0    0  501    0  0.00000000000E+00  0.00000000000E+00  0.35843381555E+03  0.35843381555E+03  0.00000000000E+00 0.  1.
         -2   -1    0    0    0  501 -0.00000000000E+00 -0.00000000000E+00 -0.12233201870E+03  0.12233201870E+03  0.00000000000E+00 0.  1.
         25    1    1    2    0    0 -0.22075817331E+02 -0.12372986376E+03 -0.16077089337E+02  0.17451330522E+03  0.12000000000E+03 0.  0.
         25    1    1    2    0    0  0.22075817331E+02  0.12372986376E+03  0.25217888619E+03  0.30625252903E+03  0.12000000000E+03 0.  0.
<mgrwt>
<rscale>  0 0.41879796E+03</rscale>
<asrwt>0</asrwt>
<pdfrwt beam="1">  1        2 0.55143663E-01 0.41879796E+03</pdfrwt>
<pdfrwt beam="2">  1       -2 0.18820311E-01 0.41879796E+03</pdfrwt>
<totfact> 0.21152678E+03</totfact>
</mgrwt>
</event>
<event>
 4    1  0.1728870E-004  0.2693420E+03  0.7818608E-02  0.1101657E+00
         -2   -1    0    0    0  501 -0.00000000000E+00  0.00000000000E+00  0.50611384111E+01  0.50611384111E+01  0.00000000000E+00 0. -1.
          2   -1    0    0  501    0  0.00000000000E+00 -0.00000000000E+00 -0.35834394469E+04  0.35834394469E+04  0.00000000000E+00 0. -1.
         25    1    1    2    0    0 -0.56647777122E+02 -0.66356761901E+01 -0.14962965710E+04  0.15021838872E+04  0.12000000000E+03 0.  0.
         25    1    1    2    0    0  0.56647777122E+02  0.66356761901E+01 -0.20820817376E+04  0.20863166981E+04  0.12000000000E+03 0.  0.
<mgrwt>
<rscale>  0 0.26934204E+03</rscale>
<asrwt>0</asrwt>
<pdfrwt beam="1">  1        2 0.55130137E+00 0.26934204E+03</pdfrwt>
<pdfrwt beam="2">  1       -2 0.77863245E-03 0.26934204E+03</pdfrwt>
<totfact> 0.27353824E+03</totfact>
</mgrwt>
</event>
<event>
 4    1  0.1728870E-004  0.3030017E+03  0.7818608E-02  0.1083750E+00
         -3   -1    0    0    0  501 -0.00000000000E+00  0.00000000000E+00  0.16887636172E+02  0.16887636172E+02  0.00000000000E+00 0.  1.
          3   -1    0    0  501    0  0.00000000000E+00 -0.00000000000E+00 -0.13591312621E+04  0.13591312621E+04  0.00000000000E+00 0.  1.
         25    1    1    2    0    0  0.65328675811E+02 -0.62610316706E+02 -0.58440497022E+03  0.60342112729E+03  0.12000000000E+03 0.  0.
         25    1    1    2    0    0 -0.65328675811E+02  0.62610316706E+02 -0.75783865572E+03  0.77259777099E+03  0.12000000000E+03 0.  0.
<mgrwt>
<rscale>  0 0.30300174E+03</rscale>
<asrwt>0</asrwt>
<pdfrwt beam="1">  1        3 0.20909717E+00 0.30300174E+03</pdfrwt>
<pdfrwt beam="2">  1       -3 0.25980973E-02 0.30300174E+03</pdfrwt>
<totfact> 0.22944197E+02</totfact>
</mgrwt>
</event>
<event>
 4    1  0.1728870E-004  0.2579188E+03  0.7818608E-02  0.1108400E+00
          1   -1    0    0  501    0  0.00000000000E+00  0.00000000000E+00  0.10394768341E+04  0.10394768341E+04  0.00000000000E+00 0.  1.
         -1   -1    0    0    0  501 -0.00000000000E+00 -0.00000000000E+00 -0.15998933745E+02  0.15998933745E+02  0.00000000000E+00 0.  1.
         25    1    1    2    0    0  0.38060023958E+02  0.22832483580E+02  0.57780529319E+03  0.59180135567E+03  0.12000000000E+03 0.  0.
         25    1    1    2    0    0 -0.38060023958E+02 -0.22832483580E+02  0.44567260713E+03  0.46367441215E+03  0.12000000000E+03 0.  0.
<mgrwt>
<rscale>  0 0.25791875E+03</rscale>
<asrwt>0</asrwt>
<pdfrwt beam="1">  1        1 0.15991946E+00 0.25791875E+03</pdfrwt>
<pdfrwt beam="2">  1       -1 0.24613752E-02 0.25791875E+03</pdfrwt>
<totfact> 0.75286888E+03</totfact>
</mgrwt>
</event>
<event>
 4    1  0.1728870E-004  0.3142124E+03  0.7818608E-02  0.1078344E+00
         -2   -1    0    0    0  501 -0.00000000000E+00  0.00000000000E+00  0.13543116895E+02  0.13543116895E+02  0.00000000000E+00 0.  1.
          2   -1    0    0  501    0  0.00000000000E+00 -0.00000000000E+00 -0.18225023535E+04  0.18225023535E+04  0.00000000000E+00 0.  1.
         25    1    1    2    0    0 -0.26940556539E+02  0.91243770322E+02 -0.69945105869E+03  0.71601885639E+03  0.12000000000E+03 0.  0.
         25    1    1    2    0    0  0.26940556539E+02 -0.91243770322E+02 -0.11095081779E+04  0.11200266140E+04  0.12000000000E+03 0.  0.
<mgrwt>
<rscale>  0 0.31421243E+03</rscale>
<asrwt>0</asrwt>
<pdfrwt beam="1">  1        2 0.28038506E+00 0.31421243E+03</pdfrwt>
<pdfrwt beam="2">  1       -2 0.20835558E-02 0.31421243E+03</pdfrwt>
<totfact> 0.67101994E+03</totfact>
</mgrwt>
</event>
<event>
 4    1  0.1728870E-004  0.3390818E+03  0.7818608E-02  0.1067188E+00
         -1   -1    0    0    0  501 -0.00000000000E+00  0.00000000000E+00  0.35382701538E+02  0.35382701538E+02  0.00000000000E+00 0.  1.
          1   -1    0    0  501    0  0.00000000000E+00 -0.00000000000E+00 -0.81237747744E+03  0.81237747744E+03  0.00000000000E+00 0.  1.
         25    1    1    2    0    0  0.40700925915E+02  0.97628835287E+02 -0.24803897878E+03  0.29514621774E+03  0.12000000000E+03 0.  0.
         25    1    1    2    0    0 -0.40700925915E+02 -0.97628835287E+02 -0.52895579713E+03  0.55261396124E+03  0.12000000000E+03 0.  0.
<mgrwt>
<rscale>  0 0.33908176E+03</rscale>
<asrwt>0</asrwt>
<pdfrwt beam="1">  1        1 0.12498115E+00 0.33908176E+03</pdfrwt>
<pdfrwt beam="2">  1       -1 0.54434924E-02 0.33908176E+03</pdfrwt>
<totfact> 0.34926847E+03</totfact>
</mgrwt>
</event>
<event>
 4    1  0.1728870E-004  0.2527684E+03  0.7818608E-02  0.1111568E+00
          1   -1    0    0  501    0  0.00000000000E+00  0.00000000000E+00  0.31279893834E+04  0.31279893834E+04  0.00000000000E+00 0. -1.
         -1   -1    0    0    0  501 -0.00000000000E+00 -0.00000000000E+00 -0.51064656337E+01  0.51064656337E+01  0.00000000000E+00 0. -1.
         25    1    1    2    0    0  0.22477033805E+02  0.31908010850E+02  0.14741177649E+04  0.14795088790E+04  0.12000000000E+03 0.  0.
         25    1    1    2    0    0 -0.22477033805E+02 -0.31908010850E+02  0.16487651529E+04  0.16535869701E+04  0.12000000000E+03 0.  0.
<mgrwt>
<rscale>  0 0.25276843E+03</rscale>
<asrwt>0</asrwt>
<pdfrwt beam="1">  1        1 0.48122761E+00 0.25276843E+03</pdfrwt>
<pdfrwt beam="2">  1       -1 0.78561260E-03 0.25276843E+03</pdfrwt>
<totfact> 0.15707694E+03</totfact>
</mgrwt>
</event>
<event>
 4    1  0.1728870E-004  0.2734949E+03  0.7818608E-02  0.1099296E+00
          2   -1    0    0  501    0  0.00000000000E+00  0.00000000000E+00  0.21812311060E+03  0.21812311060E+03  0.00000000000E+00 0. -1.
         -2   -1    0    0    0  501 -0.00000000000E+00 -0.00000000000E+00 -0.85730805474E+02  0.85730805474E+02  0.00000000000E+00 0. -1.
         25    1    1    2    0    0 -0.61860781612E+02  0.11472952938E+02  0.45665565249E+02  0.14298156804E+03  0.12000000000E+03 0.  0.
         25    1    1    2    0    0  0.61860781612E+02 -0.11472952938E+02  0.86726739875E+02  0.16087234803E+03  0.12000000000E+03 0.  0.
<mgrwt>
<rscale>  0 0.27349494E+03</rscale>
<asrwt>0</asrwt>
<pdfrwt beam="1">  1        2 0.33557401E-01 0.27349494E+03</pdfrwt>
<pdfrwt beam="2">  1       -2 0.13189355E-01 0.27349494E+03</pdfrwt>
<totfact> 0.65097500E+03</totfact>
</mgrwt>
</event>
<event>
 4    1  0.1728870E-004  0.2811895E+03  0.7818608E-02  0.1095041E+00
         -1   -1    0    0    0  501 -0.00000000000E+00  0.00000000000E+00  0.34284164765E+02  0.34284164765E+02  0.00000000000E+00 0.  1.
          1   -1    0    0  501    0  0.00000000000E+00 -0.00000000000E+00 -0.57656005136E+03  0.57656005136E+03  0.00000000000E+00 0.  1.
         25    1    1    2    0    0 -0.28671843288E+02 -0.67268505582E+02 -0.26148295244E+03  0.29685090678E+03  0.12000000000E+03 0.  0.
         25    1    1    2    0    0  0.28671843288E+02  0.67268505582E+02 -0.28079293415E+03  0.31399330934E+03  0.12000000000E+03 0.  0.
<mgrwt>
<rscale>  0 0.28118947E+03</rscale>
<asrwt>0</asrwt>
<pdfrwt beam="1">  1        1 0.88701545E-01 0.28118947E+03</pdfrwt>
<pdfrwt beam="2">  1       -1 0.52744870E-02 0.28118947E+03</pdfrwt>
<totfact> 0.60194284E+03</totfact>
</mgrwt>
</event>
<event>
 4    1  0.1728870E-004  0.3047907E+03  0.7818608E-02  0.1082870E+00
         -2   -1    0    0    0  501 -0.00000000000E+00  0.00000000000E+00  0.37742703819E+02  0.37742703819E+02  0.00000000000E+00 0.  1.
          2   -1    0    0  501    0  0.00000000000E+00 -0.00000000000E+00 -0.61533320762E+03  0.61533320762E+03  0.00000000000E+00 0.  1.
         25    1    1    2    0    0  0.98439198946E+01 -0.91231859408E+02 -0.24571764313E+03  0.28843944785E+03  0.12000000000E+03 0.  0.
         25    1    1    2    0    0 -0.98439198946E+01  0.91231859408E+02 -0.33187286067E+03  0.36463646359E+03  0.12000000000E+03 0.  0.
<mgrwt>
<rscale>  0 0.30479068E+03</rscale>
<asrwt>0</asrwt>
<pdfrwt beam="1">  1        2 0.94666655E-01 0.30479068E+03</pdfrwt>
<pdfrwt beam="2">  1       -2 0.58065693E-02 0.30479068E+03</pdfrwt>
<totfact> 0.76242274E+03</totfact>
</mgrwt>
</event>
<event>
 4    1  0.1728870E-004  0.2962525E+03  0.7818608E-02  0.1087129E+00
          1   -1    0    0  501    0  0.00000000000E+00  0.00000000000E+00  0.62278473073E+03  0.62278473073E+03  0.00000000000E+00 0. -1.
         -1   -1    0    0    0  501 -0.00000000000E+00 -0.00000000000E+00 -0.35231082294E+02  0.35231082294E+02  0.00000000000E+00 0. -1.
         25    1    1    2    0    0  0.19874843991E+02  0.71931147696E+02  0.39241810966E+03  0.41708640858E+03  0.12000000000E+03 0.  0.
         25    1    1    2    0    0 -0.19874843991E+02 -0.71931147696E+02  0.19513553878E+03  0.24092940445E+03  0.12000000000E+03 0.  0.
<mgrwt>
<rscale>  0 0.29625246E+03</rscale>
<asrwt>0</asrwt>
<pdfrwt beam="1">  1        1 0.95813027E-01 0.29625246E+03</pdfrwt>
<pdfrwt beam="2">  1       -1 0.54201670E-02 0.29625246E+03</pdfrwt>
<totfact> 0.51965786E+03</totfact>
</mgrwt>
</event>
<event>
 4    1  0.1728870E-004  0.2516747E+03  0.7818608E-02  0.1112251E+00
         -2   -1    0    0    0  501 -0.00000000000E+00  0.00000000000E+00  0.71317426961E+01  0.71317426961E+01  0.00000000000E+00 0. -1.
          2   -1    0    0  501    0  0.00000000000E+00 -0.00000000000E+00 -0.22203603196E+04  0.22203603196E+04  0.00000000000E+00 0. -1.
         25    1    1    2    0    0  0.26451087954E+02  0.26888591542E+02 -0.11377582223E+04  0.11446905385E+04  0.12000000000E+03 0.  0.
         25    1    1    2    0    0 -0.26451087954E+02 -0.26888591542E+02 -0.10754703546E+04  0.10828015239E+04  0.12000000000E+03 0.  0.
<mgrwt>
<rscale>  0 0.25167470E+03</rscale>
<asrwt>0</asrwt>
<pdfrwt beam="1">  1        2 0.34159386E+00 0.25167470E+03</pdfrwt>
<pdfrwt beam="2">  1       -2 0.10971913E-02 0.25167470E+03</pdfrwt>
<totfact> 0.10565853E+04</totfact>
</mgrwt>
</event>
<event>
 4    1  0.1728870E-004  0.3374015E+03  0.7818608E-02  0.1067908E+00
         -1   -1    0    0    0  501 -0.00000000000E+00  0.00000000000E+00  0.12348855855E+02  0.12348855855E+02  0.00000000000E+00 0. -1.
          1   -1    0    0  501    0  0.00000000000E+00 -0.00000000000E+00 -0.23046627467E+04  0.23046627467E+04  0.00000000000E+00 0. -1.
         25    1    1    2    0    0  0.71424160618E+02  0.81889041642E+02 -0.14720949331E+04  0.14809695196E+04  0.12000000000E+03 0.  0.
         25    1    1    2    0    0 -0.71424160618E+02 -0.81889041642E+02 -0.82021895770E+03  0.83604208294E+03  0.12000000000E+03 0.  0.
<mgrwt>
<rscale>  0 0.33740153E+03</rscale>
<asrwt>0</asrwt>
<pdfrwt beam="1">  1        1 0.35456348E+00 0.33740153E+03</pdfrwt>
<pdfrwt beam="2">  1       -1 0.18998241E-02 0.33740153E+03</pdfrwt>
<totfact> 0.15703347E+03</totfact>
</mgrwt>
</event>
<event>
 4    1  0.1728870E-004  0.3100564E+03  0.7818608E-02  0.1080319E+00
         -2   -1    0    0    0  501 -0.00000000000E+00  0.00000000000E+00  0.14561886904E+02  0.14561886904E+02  0.00000000000E+00 0. -1.
          2   -1    0    0  501    0  0.00000000000E+00 -0.00000000000E+00 -0.16504547821E+04  0.16504547821E+04  0.00000000000E+00 0. -1.
         25    1    1    2    0    0 -0.44778194053E+02  0.15643915340E+02 -0.35649994905E+03  0.37913326473E+03  0.12000000000E+03 0.  0.
         25    1    1    2    0    0  0.44778194053E+02 -0.15643915340E+02 -0.12793929462E+04  0.12858834043E+04  0.12000000000E+03 0.  0.
<mgrwt>
<rscale>  0 0.31005636E+03</rscale>
<asrwt>0</asrwt>
<pdfrwt beam="1">  1        2 0.25391638E+00 0.31005636E+03</pdfrwt>
<pdfrwt beam="2">  1       -2 0.22402880E-02 0.31005636E+03</pdfrwt>
<totfact> 0.74311182E+03</totfact>
</mgrwt>
</event>
<event>
 4    1  0.1728870E-004  0.4034503E+03  0.7818608E-02  0.1042591E+00
          2   -1    0    0  501    0  0.00000000000E+00  0.00000000000E+00  0.98441987633E+03  0.98441987633E+03  0.00000000000E+00 0.  1.
         -2   -1    0    0    0  501 -0.00000000000E+00 -0.00000000000E+00 -0.41337079905E+02  0.41337079905E+02  0.00000000000E+00 0.  1.
         25    1    1    2    0    0  0.96187823048E+02  0.53785854761E+02  0.16912708637E+03  0.23483821414E+03  0.12000000000E+03 0.  0.
         25    1    1    2    0    0 -0.96187823048E+02 -0.53785854761E+02  0.77395571005E+03  0.79091874209E+03  0.12000000000E+03 0.  0.
<mgrwt>
<rscale>  0 0.40345033E+03</rscale>
<asrwt>0</asrwt>
<pdfrwt beam="1">  1        2 0.15144919E+00 0.40345033E+03</pdfrwt>
<pdfrwt beam="2">  1       -2 0.63595515E-02 0.40345033E+03</pdfrwt>
<totfact> 0.36467617E+03</totfact>
</mgrwt>
</event>
<event>
 4    1  0.1728870E-004  0.2807949E+03  0.7818608E-02  0.1095256E+00
         -2   -1    0    0    0  501 -0.00000000000E+00  0.00000000000E+00  0.40884766034E+02  0.40884766034E+02  0.00000000000E+00 0.  1.
          2   -1    0    0  501    0  0.00000000000E+00 -0.00000000000E+00 -0.48212183214E+03  0.48212183214E+03  0.00000000000E+00 0.  1.
         25    1    1    2    0    0 -0.71149283776E+02  0.13304069051E+02 -0.23644723018E+03  0.27485725658E+03  0.12000000000E+03 0.  0.
         25    1    1    2    0    0  0.71149283776E+02 -0.13304069051E+02 -0.20478983593E+03  0.24814934160E+03  0.12000000000E+03 0.  0.
<mgrwt>
<rscale>  0 0.28079486E+03</rscale>
<asrwt>0</asrwt>
<pdfrwt beam="1">  1        2 0.74172590E-01 0.28079486E+03</pdfrwt>
<pdfrwt beam="2">  1       -2 0.62899640E-02 0.28079486E+03</pdfrwt>
<totfact> 0.88822479E+03</totfact>
</mgrwt>
</event>
<event>
 4    1  0.1728870E-004  0.2518993E+03  0.7818608E-02  0.1112110E+00
          2   -1    0    0  501    0  0.00000000000E+00  0.00000000000E+00  0.16856766254E+04  0.16856766254E+04  0.00000000000E+00 0.  1.
         -2   -1    0    0    0  501 -0.00000000000E+00 -0.00000000000E+00 -0.94106495513E+01  0.94106495513E+01  0.00000000000E+00 0.  1.
         25    1    1    2    0    0  0.22067035769E+02  0.30244352462E+02  0.89096365272E+03  0.89978770018E+03  0.12000000000E+03 0.  0.
         25    1    1    2    0    0 -0.22067035769E+02 -0.30244352462E+02  0.78530232314E+03  0.79529957478E+03  0.12000000000E+03 0.  0.
<mgrwt>
<rscale>  0 0.25189928E+03</rscale>
<asrwt>0</asrwt>
<pdfrwt beam="1">  1        2 0.25933463E+00 0.25189928E+03</pdfrwt>
<pdfrwt beam="2">  1       -2 0.14477936E-02 0.25189928E+03</pdfrwt>
<totfact> 0.13474192E+04</totfact>
</mgrwt>
</event>
<event>
 4    1  0.1728870E-004  0.3104406E+03  0.7818608E-02  0.1080135E+00
          1   -1    0    0  501    0  0.00000000000E+00  0.00000000000E+00  0.71312129615E+03  0.71312129615E+03  0.00000000000E+00 0. -1.
         -1   -1    0    0    0  501 -0.00000000000E+00 -0.00000000000E+00 -0.33785755230E+02  0.33785755230E+02  0.00000000000E+00 0. -1.
         25    1    1    2    0    0  0.37934471794E+02  0.57175616062E+02  0.50954384933E+03  0.52796118191E+03  0.12000000000E+03 0.  0.
         25    1    1    2    0    0 -0.37934471794E+02 -0.57175616062E+02  0.16979169160E+03  0.21894586947E+03  0.12000000000E+03 0.  0.
<mgrwt>
<rscale>  0 0.31044060E+03</rscale>
<asrwt>0</asrwt>
<pdfrwt beam="1">  1        1 0.10971096E+00 0.31044060E+03</pdfrwt>
<pdfrwt beam="2">  1       -1 0.51978090E-02 0.31044060E+03</pdfrwt>
<totfact> 0.45577871E+03</totfact>
</mgrwt>
</event>
<event>
 4    1  0.1728870E-004  0.3095727E+03  0.7818608E-02  0.1080551E+00
         -1   -1    0    0    0  501 -0.00000000000E+00  0.00000000000E+00  0.50595133291E+02  0.50595133291E+02  0.00000000000E+00 0. -1.
          1   -1    0    0  501    0  0.00000000000E+00 -0.00000000000E+00 -0.47354001543E+03  0.47354001543E+03  0.00000000000E+00 0. -1.
         25    1    1    2    0    0 -0.92277335098E+02 -0.32048389195E+02 -0.21837360897E+03  0.26763639311E+03  0.12000000000E+03 0.  0.
         25    1    1    2    0    0  0.92277335098E+02  0.32048389195E+02 -0.20457127317E+03  0.25649875561E+03  0.12000000000E+03 0.  0.
<mgrwt>
<rscale>  0 0.30957274E+03</rscale>
<asrwt>0</asrwt>
<pdfrwt beam="1">  1        1 0.72852311E-01 0.30957274E+03</pdfrwt>
<pdfrwt beam="2">  1       -1 0.77838665E-02 0.30957274E+03</pdfrwt>
<totfact> 0.43594042E+03</totfact>
</mgrwt>
</event>
<event>
 4    1  0.1728870E-004  0.2481235E+03  0.7818608E-02  0.1114497E+00
         -1   -1    0    0    0  501 -0.00000000000E+00  0.00000000000E+00  0.97962084079E+01  0.97962084079E+01  0.00000000000E+00 0. -1.
          1   -1    0    0  501    0  0.00000000000E+00 -0.00000000000E+00 -0.15711499022E+04  0.15711499022E+04  0.00000000000E+00 0. -1.
         25    1    1    2    0    0 -0.30356024220E+02  0.78974567187E+01 -0.79807245726E+03  0.80765308460E+03  0.12000000000E+03 0.  0.
         25    1    1    2    0    0  0.30356024220E+02 -0.78974567187E+01 -0.76328123656E+03  0.77329302604E+03  0.12000000000E+03 0.  0.
<mgrwt>
<rscale>  0 0.24812345E+03</rscale>
<asrwt>0</asrwt>
<pdfrwt beam="1">  1        1 0.24171518E+00 0.24812345E+03</pdfrwt>
<pdfrwt beam="2">  1       -1 0.15071101E-02 0.24812345E+03</pdfrwt>
<totfact> 0.66441653E+03</totfact>
</mgrwt>
</event>
<event>
 4    1  0.1728870E-004  0.2687527E+03  0.7818608E-02  0.1101996E+00
          1   -1    0    0  501    0  0.00000000000E+00  0.00000000000E+00  0.15874949302E+03  0.15874949302E+03  0.00000000000E+00 0.  1.
         -1   -1    0    0    0  501 -0.00000000000E+00 -0.00000000000E+00 -0.11374526220E+03  0.11374526220E+03  0.00000000000E+00 0.  1.
         25    1    1    2    0    0 -0.37546263199E+02 -0.45041718537E+02  0.75137142797E+01  0.13377194845E+03  0.12000000000E+03 0.  0.
         25    1    1    2    0    0  0.37546263199E+02  0.45041718537E+02  0.37490516542E+02  0.13872280677E+03  0.12000000000E+03 0.  0.
<mgrwt>
<rscale>  0 0.26875269E+03</rscale>
<asrwt>0</asrwt>
<pdfrwt beam="1">  1        1 0.24422999E-01 0.26875269E+03</pdfrwt>
<pdfrwt beam="2">  1       -1 0.17499271E-01 0.26875269E+03</pdfrwt>
<totfact> 0.49037421E+03</totfact>
</mgrwt>
</event>
<event>
 4    1  0.1728870E-004  0.3452263E+03  0.7818608E-02  0.1064592E+00
          1   -1    0    0  501    0  0.00000000000E+00  0.00000000000E+00  0.21525047588E+04  0.21525047588E+04  0.00000000000E+00 0. -1.
         -1   -1    0    0    0  501 -0.00000000000E+00 -0.00000000000E+00 -0.13842150159E+02  0.13842150159E+02  0.00000000000E+00 0. -1.
         25    1    1    2    0    0  0.21272543662E+02 -0.38719487473E+02  0.17969126324E+04  0.18014568350E+04  0.12000000000E+03 0.  0.
         25    1    1    2    0    0 -0.21272543662E+02  0.38719487473E+02  0.34174997620E+03  0.36489007393E+03  0.12000000000E+03 0.  0.
<mgrwt>
<rscale>  0 0.34522627E+03</rscale>
<asrwt>0</asrwt>
<pdfrwt beam="1">  1        1 0.33115431E+00 0.34522627E+03</pdfrwt>
<pdfrwt beam="2">  1       -1 0.21295633E-02 0.34522627E+03</pdfrwt>
<totfact> 0.16708113E+03</totfact>
</mgrwt>
</event>
<event>
 4    1  0.1728870E-004  0.7425996E+03  0.7818608E-02  0.9647032E-01
         -1   -1    0    0    0  501 -0.00000000000E+00  0.00000000000E+00  0.21996645925E+03  0.21996645925E+03  0.00000000000E+00 0. -1.
          1   -1    0    0  501    0  0.00000000000E+00 -0.00000000000E+00 -0.62674800414E+03  0.62674800414E+03  0.00000000000E+00 0. -1.
         25    1    1    2    0    0 -0.26427065046E+03  0.18379629916E+03 -0.42773878588E+02  0.34619309781E+03  0.12000000000E+03 0.  0.
         25    1    1    2    0    0  0.26427065046E+03 -0.18379629916E+03 -0.36400766631E+03  0.50052136559E+03  0.12000000000E+03 0.  0.
<mgrwt>
<rscale>  0 0.74259959E+03</rscale>
<asrwt>0</asrwt>
<pdfrwt beam="1">  1        1 0.96422771E-01 0.74259959E+03</pdfrwt>
<pdfrwt beam="2">  1       -1 0.33840993E-01 0.74259959E+03</pdfrwt>
<totfact> 0.26789589E+02</totfact>
</mgrwt>
</event>
<event>
 4    1  0.1728870E-004  0.2643942E+03  0.7818608E-02  0.1104531E+00
         -2   -1    0    0    0  501 -0.00000000000E+00  0.00000000000E+00  0.86372802507E+01  0.86372802507E+01  0.00000000000E+00 0. -1.
          2   -1    0    0  501    0  0.00000000000E+00 -0.00000000000E+00 -0.20233308203E+04  0.20233308203E+04  0.00000000000E+00 0. -1.
         25    1    1    2    0    0 -0.44099667342E+02  0.28577850872E+02 -0.87103132536E+03  0.88082747685E+03  0.12000000000E+03 0.  0.
         25    1    1    2    0    0  0.44099667342E+02 -0.28577850872E+02 -0.11436622147E+04  0.11511406237E+04  0.12000000000E+03 0.  0.
<mgrwt>
<rscale>  0 0.26439422E+03</rscale>
<asrwt>0</asrwt>
<pdfrwt beam="1">  1        2 0.31128165E+00 0.26439422E+03</pdfrwt>
<pdfrwt beam="2">  1       -2 0.13288124E-02 0.26439422E+03</pdfrwt>
<totfact> 0.10167165E+04</totfact>
</mgrwt>
</event>
<event>
 4    1  0.1728870E-004  0.3046890E+03  0.7818608E-02  0.1082920E+00
          2   -1    0    0  501    0  0.00000000000E+00  0.00000000000E+00  0.14975056304E+04  0.14975056304E+04  0.00000000000E+00 0.  1.
         -2   -1    0    0    0  501 -0.00000000000E+00 -0.00000000000E+00 -0.15498336089E+02  0.15498336089E+02  0.00000000000E+00 0.  1.
         25    1    1    2    0    0 -0.70310780229E+02 -0.49493187527E+01  0.10487486298E+04  0.10579422433E+04  0.12000000000E+03 0.  0.
         25    1    1    2    0    0  0.70310780229E+02  0.49493187527E+01  0.43325866453E+03  0.45506172324E+03  0.12000000000E+03 0.  0.
<mgrwt>
<rscale>  0 0.30468899E+03</rscale>
<asrwt>0</asrwt>
<pdfrwt beam="1">  1        2 0.23038537E+00 0.30468899E+03</pdfrwt>
<pdfrwt beam="2">  1       -2 0.23843606E-02 0.30468899E+03</pdfrwt>
<totfact> 0.81753467E+03</totfact>
</mgrwt>
</event>
<event>
 4    1  0.1728870E-004  0.3020168E+03  0.7818608E-02  0.1084237E+00
          1   -1    0    0  501    0  0.00000000000E+00  0.00000000000E+00  0.15407188914E+04  0.15407188914E+04  0.00000000000E+00 0. -1.
         -1   -1    0    0    0  501 -0.00000000000E+00 -0.00000000000E+00 -0.14800578418E+02  0.14800578418E+02  0.00000000000E+00 0. -1.
         25    1    1    2    0    0  0.46358218760E+02 -0.35798337726E+01  0.35605375333E+03  0.37859764251E+03  0.12000000000E+03 0.  0.
         25    1    1    2    0    0 -0.46358218760E+02  0.35798337726E+01  0.11698645597E+04  0.11769218273E+04  0.12000000000E+03 0.  0.
<mgrwt>
<rscale>  0 0.30201676E+03</rscale>
<asrwt>0</asrwt>
<pdfrwt beam="1">  1        1 0.23703355E+00 0.30201676E+03</pdfrwt>
<pdfrwt beam="2">  1       -1 0.22770133E-02 0.30201676E+03</pdfrwt>
<totfact> 0.38145142E+03</totfact>
</mgrwt>
</event>
<event>
 4    1  0.1728870E-004  0.2851165E+03  0.7818608E-02  0.1092927E+00
          2   -1    0    0  501    0  0.00000000000E+00  0.00000000000E+00  0.70822645345E+01  0.70822645345E+01  0.00000000000E+00 0. -1.
         -2   -1    0    0    0  501 -0.00000000000E+00 -0.00000000000E+00 -0.28695421382E+04  0.28695421382E+04  0.00000000000E+00 0. -1.
         25    1    1    2    0    0  0.46224719613E+01 -0.81580992114E+01 -0.22019182773E+04  0.22052056643E+04  0.12000000000E+03 0.  0.
         25    1    1    2    0    0 -0.46224719613E+01  0.81580992114E+01 -0.66054159638E+03  0.67141873848E+03  0.12000000000E+03 0.  0.
<mgrwt>
<rscale>  0 0.28511651E+03</rscale>
<asrwt>0</asrwt>
<pdfrwt beam="1">  1        2 0.10895791E-02 0.28511651E+03</pdfrwt>
<pdfrwt beam="2">  1       -2 0.44146805E+00 0.28511651E+03</pdfrwt>
<totfact> 0.62076321E+01</totfact>
</mgrwt>
</event>
<event>
 4    1  0.1728870E-004  0.2775703E+03  0.7818608E-02  0.1097023E+00
         -1   -1    0    0    0  501 -0.00000000000E+00  0.00000000000E+00  0.72745588237E+02  0.72745588237E+02  0.00000000000E+00 0.  1.
          1   -1    0    0  501    0  0.00000000000E+00 -0.00000000000E+00 -0.26477653067E+03  0.26477653067E+03  0.00000000000E+00 0.  1.
         25    1    1    2    0    0  0.53441444308E+02 -0.43500144183E+02 -0.10894582694E+03  0.17611769849E+03  0.12000000000E+03 0.  0.
         25    1    1    2    0    0 -0.53441444308E+02  0.43500144183E+02 -0.83085115494E+02  0.16140442042E+03  0.12000000000E+03 0.  0.
<mgrwt>
<rscale>  0 0.27757035E+03</rscale>
<asrwt>0</asrwt>
<pdfrwt beam="1">  1        1 0.40734851E-01 0.27757035E+03</pdfrwt>
<pdfrwt beam="2">  1       -1 0.11191629E-01 0.27757035E+03</pdfrwt>
<totfact> 0.52158004E+03</totfact>
</mgrwt>
</event>
<event>
 4    1  0.1728870E-004  0.3252968E+03  0.7818608E-02  0.1073237E+00
          1   -1    0    0  501    0  0.00000000000E+00  0.00000000000E+00  0.24635149568E+03  0.24635149568E+03  0.00000000000E+00 0. -1.
         -1   -1    0    0    0  501 -0.00000000000E+00 -0.00000000000E+00 -0.10738517654E+03  0.10738517654E+03  0.00000000000E+00 0. -1.
         25    1    1    2    0    0 -0.83812628769E+02  0.23896674177E+02 -0.31297355061E+01  0.14834218221E+03  0.12000000000E+03 0.  0.
         25    1    1    2    0    0  0.83812628769E+02 -0.23896674177E+02  0.14209605465E+03  0.20539449001E+03  0.12000000000E+03 0.  0.
<mgrwt>
<rscale>  0 0.32529678E+03</rscale>
<asrwt>0</asrwt>
<pdfrwt beam="1">  1        1 0.37900230E-01 0.32529678E+03</pdfrwt>
<pdfrwt beam="2">  1       -1 0.16520796E-01 0.32529678E+03</pdfrwt>
<totfact> 0.30993068E+03</totfact>
</mgrwt>
</event>
<event>
 4    1  0.1728870E-004  0.3487855E+03  0.7818608E-02  0.1063115E+00
          1   -1    0    0  501    0  0.00000000000E+00  0.00000000000E+00  0.12447744740E+04  0.12447744740E+04  0.00000000000E+00 0.  1.
         -1   -1    0    0    0  501 -0.00000000000E+00 -0.00000000000E+00 -0.24432399229E+02  0.24432399229E+02  0.00000000000E+00 0.  1.
         25    1    1    2    0    0 -0.12221025235E+03 -0.21058170547E+02  0.70179952001E+03  0.72270419856E+03  0.12000000000E+03 0.  0.
         25    1    1    2    0    0  0.12221025235E+03  0.21058170547E+02  0.51854255479E+03  0.54650267470E+03  0.12000000000E+03 0.  0.
<mgrwt>
<rscale>  0 0.34878548E+03</rscale>
<asrwt>0</asrwt>
<pdfrwt beam="1">  1        1 0.19150372E+00 0.34878548E+03</pdfrwt>
<pdfrwt beam="2">  1       -1 0.37588316E-02 0.34878548E+03</pdfrwt>
<totfact> 0.28799918E+03</totfact>
</mgrwt>
</event>
<event>
 4    1  0.1728870E-004  0.2414421E+03  0.7818608E-02  0.1118836E+00
         -1   -1    0    0    0  501 -0.00000000000E+00  0.00000000000E+00  0.54081152148E+01  0.54081152148E+01  0.00000000000E+00 0. -1.
          1   -1    0    0  501    0  0.00000000000E+00 -0.00000000000E+00 -0.26947606255E+04  0.26947606255E+04  0.00000000000E+00 0. -1.
         25    1    1    2    0    0  0.25570487615E+01  0.12612847800E+02 -0.13131365747E+04  0.13186710303E+04  0.12000000000E+03 0.  0.
         25    1    1    2    0    0 -0.25570487615E+01 -0.12612847800E+02 -0.13762159356E+04  0.13814977104E+04  0.12000000000E+03 0.  0.
<mgrwt>
<rscale>  0 0.24144213E+03</rscale>
<asrwt>0</asrwt>
<pdfrwt beam="1">  1        1 0.41457814E+00 0.24144213E+03</pdfrwt>
<pdfrwt beam="2">  1       -1 0.83201856E-03 0.24144213E+03</pdfrwt>
<totfact> 0.28844195E+03</totfact>
</mgrwt>
</event>
<event>
 4    1  0.1728870E-004  0.2461190E+03  0.7818608E-02  0.1115782E+00
         -2   -1    0    0    0  501 -0.00000000000E+00  0.00000000000E+00  0.63282357110E+02  0.63282357110E+02  0.00000000000E+00 0.  1.
          2   -1    0    0  501    0  0.00000000000E+00 -0.00000000000E+00 -0.23930270022E+03  0.23930270022E+03  0.00000000000E+00 0.  1.
         25    1    1    2    0    0 -0.14392321612E+02 -0.84507367967E+01 -0.11452376254E+03  0.16671606420E+03  0.12000000000E+03 0.  0.
         25    1    1    2    0    0  0.14392321612E+02  0.84507367967E+01 -0.61496580563E+02  0.13586899313E+03  0.12000000000E+03 0.  0.
<mgrwt>
<rscale>  0 0.24611899E+03</rscale>
<asrwt>0</asrwt>
<pdfrwt beam="1">  1        2 0.36815800E-01 0.24611899E+03</pdfrwt>
<pdfrwt beam="2">  1       -2 0.97357472E-02 0.24611899E+03</pdfrwt>
<totfact> 0.95422888E+03</totfact>
</mgrwt>
</event>
<event>
 4    1  0.1728870E-004  0.2588943E+03  0.7818608E-02  0.1107809E+00
          4   -1    0    0  501    0  0.00000000000E+00  0.00000000000E+00  0.29366573543E+03  0.29366573543E+03  0.00000000000E+00 0.  1.
         -4   -1    0    0    0  501 -0.00000000000E+00 -0.00000000000E+00 -0.57059971310E+02  0.57059971310E+02  0.00000000000E+00 0.  1.
         25    1    1    2    0    0 -0.15077437300E+02 -0.42577281770E+02  0.94205689523E+02  0.15910646114E+03  0.12000000000E+03 0.  0.
         25    1    1    2    0    0  0.15077437300E+02  0.42577281770E+02  0.14240007460E+03  0.19161924560E+03  0.12000000000E+03 0.  0.
<mgrwt>
<rscale>  0 0.25889425E+03</rscale>
<asrwt>0</asrwt>
<pdfrwt beam="1">  1        4 0.45179343E-01 0.25889425E+03</pdfrwt>
<pdfrwt beam="2">  1       -4 0.87784573E-02 0.25889425E+03</pdfrwt>
<totfact> 0.83810535E+02</totfact>
</mgrwt>
</event>
<event>
 4    1  0.1728870E-004  0.2787455E+03  0.7818608E-02  0.1096376E+00
          1   -1    0    0  501    0  0.00000000000E+00  0.00000000000E+00  0.20790984975E+03  0.20790984975E+03  0.00000000000E+00 0.  1.
         -1   -1    0    0    0  501 -0.00000000000E+00 -0.00000000000E+00 -0.93428753689E+02  0.93428753689E+02  0.00000000000E+00 0.  1.
         25    1    1    2    0    0  0.23277209511E+02 -0.52846968150E+02  0.10168389059E+03  0.16755370522E+03  0.12000000000E+03 0.  0.
         25    1    1    2    0    0 -0.23277209511E+02  0.52846968150E+02  0.12797205469E+02  0.13378489823E+03  0.12000000000E+03 0.  0.
<mgrwt>
<rscale>  0 0.27874546E+03</rscale>
<asrwt>0</asrwt>
<pdfrwt beam="1">  1        1 0.31986131E-01 0.27874546E+03</pdfrwt>
<pdfrwt beam="2">  1       -1 0.14373655E-01 0.27874546E+03</pdfrwt>
<totfact> 0.47741011E+03</totfact>
</mgrwt>
</event>
<event>
 4    1  0.1728870E-004  0.3366714E+03  0.7818608E-02  0.1068223E+00
          2   -1    0    0  501    0  0.00000000000E+00  0.00000000000E+00  0.81333617638E+03  0.81333617638E+03  0.00000000000E+00 0. -1.
         -2   -1    0    0    0  501 -0.00000000000E+00 -0.00000000000E+00 -0.34840329816E+02  0.34840329816E+02  0.00000000000E+00 0. -1.
         25    1    1    2    0    0 -0.26904702548E+02 -0.77453001392E+02  0.60322647868E+03  0.62048772350E+03  0.12000000000E+03 0.  0.
         25    1    1    2    0    0  0.26904702548E+02  0.77453001392E+02  0.17526936789E+03  0.22768878269E+03  0.12000000000E+03 0.  0.
<mgrwt>
<rscale>  0 0.33667136E+03</rscale>
<asrwt>0</asrwt>
<pdfrwt beam="1">  1        2 0.12512863E+00 0.33667136E+03</pdfrwt>
<pdfrwt beam="2">  1       -2 0.53600513E-02 0.33667136E+03</pdfrwt>
<totfact> 0.61350262E+03</totfact>
</mgrwt>
</event>
<event>
 4    1  0.1728870E-004  0.2446174E+03  0.7818608E-02  0.1116754E+00
         -2   -1    0    0    0  501 -0.00000000000E+00  0.00000000000E+00  0.12359601258E+02  0.12359601258E+02  0.00000000000E+00 0.  1.
          2   -1    0    0  501    0  0.00000000000E+00 -0.00000000000E+00 -0.12103483825E+04  0.12103483825E+04  0.00000000000E+00 0.  1.
         25    1    1    2    0    0  0.18995763532E+02 -0.13753152157E+02 -0.61434798562E+03  0.62639718682E+03  0.12000000000E+03 0.  0.
         25    1    1    2    0    0 -0.18995763532E+02  0.13753152157E+02 -0.58364079567E+03  0.59631079698E+03  0.12000000000E+03 0.  0.
<mgrwt>
<rscale>  0 0.24461744E+03</rscale>
<asrwt>0</asrwt>
<pdfrwt beam="1">  1        2 0.18620751E+00 0.24461744E+03</pdfrwt>
<pdfrwt beam="2">  1       -2 0.19014765E-02 0.24461744E+03</pdfrwt>
<totfact> 0.16311331E+04</totfact>
</mgrwt>
</event>
<event>
 4    1  0.1728870E-004  0.2953386E+03  0.7818608E-02  0.1087594E+00
         -3   -1    0    0    0  501 -0.00000000000E+00  0.00000000000E+00  0.41567454626E+03  0.41567454626E+03  0.00000000000E+00 0.  1.
          3   -1    0    0  501    0  0.00000000000E+00 -0.00000000000E+00 -0.52459844561E+02  0.52459844561E+02  0.00000000000E+00 0.  1.
         25    1    1    2    0    0 -0.53559665989E+02 -0.62314936411E+02  0.14105809212E+03  0.20260595863E+03  0.12000000000E+03 0.  0.
         25    1    1    2    0    0  0.53559665989E+02  0.62314936411E+02  0.22215660958E+03  0.26552843219E+03  0.12000000000E+03 0.  0.
<mgrwt>
<rscale>  0 0.29533860E+03</rscale>
<asrwt>0</asrwt>
<pdfrwt beam="1">  1        3 0.80707456E-02 0.29533860E+03</pdfrwt>
<pdfrwt beam="2">  1       -3 0.63949928E-01 0.29533860E+03</pdfrwt>
<totfact> 0.64784668E+02</totfact>
</mgrwt>
</event>
<event>
 4    1  0.1728870E-004  0.2703690E+03  0.7818608E-02  0.1101069E+00
         -1   -1    0    0    0  501 -0.00000000000E+00  0.00000000000E+00  0.86813268798E+03  0.86813268798E+03  0.00000000000E+00 0.  1.
          1   -1    0    0  501    0  0.00000000000E+00 -0.00000000000E+00 -0.21050750135E+02  0.21050750135E+02  0.00000000000E+00 0.  1.
         25    1    1    2    0    0 -0.25042871031E+02 -0.37141686552E+02  0.56569052782E+03  0.58001070985E+03  0.12000000000E+03 0.  0.
         25    1    1    2    0    0  0.25042871031E+02  0.37141686552E+02  0.28139141002E+03  0.30917272826E+03  0.12000000000E+03 0.  0.
<mgrwt>
<rscale>  0 0.27036896E+03</rscale>
<asrwt>0</asrwt>
<pdfrwt beam="1">  1        1 0.32385776E-02 0.27036896E+03</pdfrwt>
<pdfrwt beam="2">  1       -1 0.13355885E+00 0.27036896E+03</pdfrwt>
<totfact> 0.15562930E+03</totfact>
</mgrwt>
</event>
<event>
 4    1  0.1728870E-004  0.2414696E+03  0.7818608E-02  0.1118818E+00
         -2   -1    0    0    0  501 -0.00000000000E+00  0.00000000000E+00  0.11293351265E+03  0.11293351265E+03  0.00000000000E+00 0. -1.
          2   -1    0    0  501    0  0.00000000000E+00 -0.00000000000E+00 -0.12907496280E+03  0.12907496280E+03  0.00000000000E+00 0. -1.
         25    1    1    2    0    0 -0.33411570501E+01  0.40191106873E+01  0.41865472338E+01  0.12018670375E+03  0.12000000000E+03 0.  0.
         25    1    1    2    0    0  0.33411570501E+01 -0.40191106873E+01 -0.20327997383E+02  0.12182177169E+03  0.12000000000E+03 0.  0.
<mgrwt>
<rscale>  0 0.24146958E+03</rscale>
<asrwt>0</asrwt>
<pdfrwt beam="1">  1        2 0.19857687E-01 0.24146958E+03</pdfrwt>
<pdfrwt beam="2">  1       -2 0.17374387E-01 0.24146958E+03</pdfrwt>
<totfact> 0.73657140E+03</totfact>
</mgrwt>
</event>
<event>
 4    1  0.1728870E-004  0.3034435E+03  0.7818608E-02  0.1083532E+00
         -1   -1    0    0    0  501 -0.00000000000E+00  0.00000000000E+00  0.54951728281E+01  0.54951728281E+01  0.00000000000E+00 0.  1.
          1   -1    0    0  501    0  0.00000000000E+00 -0.00000000000E+00 -0.41890376440E+04  0.41890376440E+04  0.00000000000E+00 0.  1.
         25    1    1    2    0    0 -0.81808010493E+01 -0.15451392562E+02 -0.33521641827E+04  0.33543569248E+04  0.12000000000E+03 0.  0.
         25    1    1    2    0    0  0.81808010493E+01  0.15451392562E+02 -0.83137828849E+03  0.84017589206E+03  0.12000000000E+03 0.  0.
<mgrwt>
<rscale>  0 0.30344348E+03</rscale>
<asrwt>0</asrwt>
<pdfrwt beam="1">  1        1 0.64446596E+00 0.30344348E+03</pdfrwt>
<pdfrwt beam="2">  1       -1 0.84541300E-03 0.30344348E+03</pdfrwt>
<totfact> 0.20495440E+02</totfact>
</mgrwt>
</event>
<event>
 4    1  0.1728870E-004  0.3014438E+03  0.7818608E-02  0.1084521E+00
         -2   -1    0    0    0  501 -0.00000000000E+00  0.00000000000E+00  0.17714581135E+04  0.17714581135E+04  0.00000000000E+00 0.  1.
          2   -1    0    0  501    0  0.00000000000E+00 -0.00000000000E+00 -0.12823948413E+02  0.12823948413E+02  0.00000000000E+00 0.  1.
         25    1    1    2    0    0 -0.73989631355E+02 -0.25747294238E+02  0.60296965463E+03  0.61976591800E+03  0.12000000000E+03 0.  0.
         25    1    1    2    0    0  0.73989631355E+02  0.25747294238E+02  0.11556645105E+04  0.11645161439E+04  0.12000000000E+03 0.  0.
<mgrwt>
<rscale>  0 0.30144378E+03</rscale>
<asrwt>0</asrwt>
<pdfrwt beam="1">  1        2 0.19729165E-02 0.30144378E+03</pdfrwt>
<pdfrwt beam="2">  1       -2 0.27253182E+00 0.30144378E+03</pdfrwt>
<totfact> 0.29536163E+02</totfact>
</mgrwt>
</event>
<event>
 4    1  0.1728870E-004  0.4396822E+03  0.7818608E-02  0.1030844E+00
          1   -1    0    0  501    0  0.00000000000E+00  0.00000000000E+00  0.26921789019E+03  0.26921789019E+03  0.00000000000E+00 0. -1.
         -1   -1    0    0    0  501 -0.00000000000E+00 -0.00000000000E+00 -0.17952038270E+03  0.17952038270E+03  0.00000000000E+00 0. -1.
         25    1    1    2    0    0 -0.54867638369E+02 -0.10054080172E+03  0.19208092376E+03  0.25379911706E+03  0.12000000000E+03 0.  0.
         25    1    1    2    0    0  0.54867638369E+02  0.10054080172E+03 -0.10238341627E+03  0.19493915583E+03  0.12000000000E+03 0.  0.
<mgrwt>
<rscale>  0 0.43968215E+03</rscale>
<asrwt>0</asrwt>
<pdfrwt beam="1">  1        1 0.41418137E-01 0.43968215E+03</pdfrwt>
<pdfrwt beam="2">  1       -1 0.27618520E-01 0.43968215E+03</pdfrwt>
<totfact> 0.11885528E+03</totfact>
</mgrwt>
</event>
<event>
 4    1  0.1728870E-004  0.4021761E+03  0.7818608E-02  0.1043029E+00
         -2   -1    0    0    0  501 -0.00000000000E+00  0.00000000000E+00  0.21975503208E+02  0.21975503208E+02  0.00000000000E+00 0.  1.
          2   -1    0    0  501    0  0.00000000000E+00 -0.00000000000E+00 -0.18400674846E+04  0.18400674846E+04  0.00000000000E+00 0.  1.
         25    1    1    2    0    0 -0.10434453346E+03 -0.55789356279E+01 -0.33978235086E+03  0.37519455239E+03  0.12000000000E+03 0.  0.
         25    1    1    2    0    0  0.10434453346E+03  0.55789356279E+01 -0.14783096305E+04  0.14868484354E+04  0.12000000000E+03 0.  0.
<mgrwt>
<rscale>  0 0.40217613E+03</rscale>
<asrwt>0</asrwt>
<pdfrwt beam="1">  1        2 0.28308722E+00 0.40217613E+03</pdfrwt>
<pdfrwt beam="2">  1       -2 0.33808477E-02 0.40217613E+03</pdfrwt>
<totfact> 0.31828014E+03</totfact>
</mgrwt>
</event>
<event>
 4    1  0.1728870E-004  0.2620244E+03  0.7818608E-02  0.1105933E+00
          2   -1    0    0  501    0  0.00000000000E+00  0.00000000000E+00  0.98016404848E+02  0.98016404848E+02  0.00000000000E+00 0. -1.
         -2   -1    0    0    0  501 -0.00000000000E+00 -0.00000000000E+00 -0.17511551305E+03  0.17511551305E+03  0.00000000000E+00 0. -1.
         25    1    1    2    0    0  0.43947883853E+02  0.27931779993E+02 -0.30990083045E+02  0.13443208723E+03  0.12000000000E+03 0.  0.
         25    1    1    2    0    0 -0.43947883853E+02 -0.27931779993E+02 -0.46109025161E+02  0.13869983068E+03  0.12000000000E+03 0.  0.
<mgrwt>
<rscale>  0 0.26202437E+03</rscale>
<asrwt>0</asrwt>
<pdfrwt beam="1">  1        2 0.15079447E-01 0.26202437E+03</pdfrwt>
<pdfrwt beam="2">  1       -2 0.26940848E-01 0.26202437E+03</pdfrwt>
<totfact> 0.47720274E+03</totfact>
</mgrwt>
</event>
<event>
 4    1  0.1728870E-004  0.2945922E+03  0.7818608E-02  0.1087976E+00
          1   -1    0    0  501    0  0.00000000000E+00  0.00000000000E+00  0.83733694168E+03  0.83733694168E+03  0.00000000000E+00 0. -1.
         -1   -1    0    0    0  501 -0.00000000000E+00 -0.00000000000E+00 -0.25910886458E+02  0.25910886458E+02  0.00000000000E+00 0. -1.
         25    1    1    2    0    0 -0.26761816925E+02  0.42376233191E+02  0.60839681509E+03  0.62214035764E+03  0.12000000000E+03 0.  0.
         25    1    1    2    0    0  0.26761816925E+02 -0.42376233191E+02  0.20302924013E+03  0.24110747050E+03  0.12000000000E+03 0.  0.
<mgrwt>
<rscale>  0 0.29459221E+03</rscale>
<asrwt>0</asrwt>
<pdfrwt beam="1">  1        1 0.12882105E+00 0.29459221E+03</pdfrwt>
<pdfrwt beam="2">  1       -1 0.39862909E-02 0.29459221E+03</pdfrwt>
<totfact> 0.53049911E+03</totfact>
</mgrwt>
</event>
<event>
 4    1  0.1728870E-004  0.2831918E+03  0.7818608E-02  0.1093958E+00
          1   -1    0    0  501    0  0.00000000000E+00  0.00000000000E+00  0.92241914868E+02  0.92241914868E+02  0.00000000000E+00 0. -1.
         -1   -1    0    0    0  501 -0.00000000000E+00 -0.00000000000E+00 -0.21735676419E+03  0.21735676419E+03  0.00000000000E+00 0. -1.
         25    1    1    2    0    0 -0.48678017911E+02 -0.39930446822E+02 -0.10743937112E+03  0.17293700725E+03  0.12000000000E+03 0.  0.
         25    1    1    2    0    0  0.48678017911E+02  0.39930446822E+02 -0.17675478206E+02  0.13666167181E+03  0.12000000000E+03 0.  0.
<mgrwt>
<rscale>  0 0.28319184E+03</rscale>
<asrwt>0</asrwt>
<pdfrwt beam="1">  1        1 0.14191064E-01 0.28319184E+03</pdfrwt>
<pdfrwt beam="2">  1       -1 0.33439502E-01 0.28319184E+03</pdfrwt>
<totfact> 0.33845088E+03</totfact>
</mgrwt>
</event>
<event>
 4    1  0.1728870E-004  0.3404588E+03  0.7818608E-02  0.1066601E+00
          1   -1    0    0  501    0  0.00000000000E+00  0.00000000000E+00  0.62357216307E+03  0.62357216307E+03  0.00000000000E+00 0.  1.
         -1   -1    0    0    0  501 -0.00000000000E+00 -0.00000000000E+00 -0.46471052106E+02  0.46471052106E+02  0.00000000000E+00 0.  1.
         25    1    1    2    0    0 -0.33881059862E+01 -0.19906483609E+02  0.54274535373E+02  0.13324215752E+03  0.12000000000E+03 0.  0.
         25    1    1    2    0    0  0.33881059862E+01  0.19906483609E+02  0.52282657559E+03  0.53680105765E+03  0.12000000000E+03 0.  0.
<mgrwt>
<rscale>  0 0.34045883E+03</rscale>
<asrwt>0</asrwt>
<pdfrwt beam="1">  1        1 0.95934173E-01 0.34045883E+03</pdfrwt>
<pdfrwt beam="2">  1       -1 0.71493931E-02 0.34045883E+03</pdfrwt>
<totfact> 0.34168439E+03</totfact>
</mgrwt>
</event>
<event>
 4    1  0.1728870E-004  0.3275531E+03  0.7818608E-02  0.1072225E+00
         -2   -1    0    0    0  501 -0.00000000000E+00  0.00000000000E+00  0.70037644558E+02  0.70037644558E+02  0.00000000000E+00 0. -1.
          2   -1    0    0  501    0  0.00000000000E+00 -0.00000000000E+00 -0.38297634578E+03  0.38297634578E+03  0.00000000000E+00 0. -1.
         25    1    1    2    0    0  0.19861677784E+02 -0.29260441445E+02 -0.10286201356E+02  0.12552476097E+03  0.12000000000E+03 0.  0.
         25    1    1    2    0    0 -0.19861677784E+02  0.29260441445E+02 -0.30265249987E+03  0.32748922937E+03  0.12000000000E+03 0.  0.
<mgrwt>
<rscale>  0 0.32755312E+03</rscale>
<asrwt>0</asrwt>
<pdfrwt beam="1">  1        2 0.58919440E-01 0.32755312E+03</pdfrwt>
<pdfrwt beam="2">  1       -2 0.10775022E-01 0.32755312E+03</pdfrwt>
<totfact> 0.49354991E+03</totfact>
</mgrwt>
</event>
<event>
 4    1  0.1728870E-004  0.2937310E+03  0.7818608E-02  0.1088417E+00
          3   -1    0    0  501    0  0.00000000000E+00  0.00000000000E+00  0.25346139551E+03  0.25346139551E+03  0.00000000000E+00 0.  1.
         -3   -1    0    0    0  501 -0.00000000000E+00 -0.00000000000E+00 -0.85099626736E+02  0.85099626736E+02  0.00000000000E+00 0.  1.
         25    1    1    2    0    0  0.18962762304E+02  0.21673119277E+02 -0.75968477183E+01  0.12364069940E+03  0.12000000000E+03 0.  0.
         25    1    1    2    0    0 -0.18962762304E+02 -0.21673119277E+02  0.17595861649E+03  0.21492032284E+03  0.12000000000E+03 0.  0.
<mgrwt>
<rscale>  0 0.29373097E+03</rscale>
<asrwt>0</asrwt>
<pdfrwt beam="1">  1        3 0.38994060E-01 0.29373097E+03</pdfrwt>
<pdfrwt beam="2">  1       -3 0.13092250E-01 0.29373097E+03</pdfrwt>
<totfact> 0.78251694E+02</totfact>
</mgrwt>
</event>
<event>
 4    1  0.1728870E-004  0.2749361E+03  0.7818608E-02  0.1098487E+00
          2   -1    0    0  501    0  0.00000000000E+00  0.00000000000E+00  0.29909488005E+03  0.29909488005E+03  0.00000000000E+00 0. -1.
         -2   -1    0    0    0  501 -0.00000000000E+00 -0.00000000000E+00 -0.63182170809E+02  0.63182170809E+02  0.00000000000E+00 0. -1.
         25    1    1    2    0    0  0.36626082051E+02  0.44242408269E+02  0.16357546246E+03  0.21084542323E+03  0.12000000000E+03 0.  0.
         25    1    1    2    0    0 -0.36626082051E+02 -0.44242408269E+02  0.72337246780E+02  0.15143162763E+03  0.12000000000E+03 0.  0.
<mgrwt>
<rscale>  0 0.27493609E+03</rscale>
<asrwt>0</asrwt>
<pdfrwt beam="1">  1        2 0.46014596E-01 0.27493609E+03</pdfrwt>
<pdfrwt beam="2">  1       -2 0.97203342E-02 0.27493609E+03</pdfrwt>
<totfact> 0.75600335E+03</totfact>
</mgrwt>
</event>
<event>
 4    1  0.1728870E-004  0.4059908E+03  0.7818608E-02  0.1041725E+00
         -2   -1    0    0    0  501 -0.00000000000E+00  0.00000000000E+00  0.24689405063E+03  0.24689405063E+03  0.00000000000E+00 0.  1.
          2   -1    0    0  501    0  0.00000000000E+00 -0.00000000000E+00 -0.16690211972E+03  0.16690211972E+03  0.00000000000E+00 0.  1.
         25    1    1    2    0    0  0.16229087823E+03 -0.20797033699E+02  0.46136291244E+02  0.20808508629E+03  0.12000000000E+03 0.  0.
         25    1    1    2    0    0 -0.16229087823E+03  0.20797033699E+02  0.33855639663E+02  0.20571108406E+03  0.12000000000E+03 0.  0.
<mgrwt>
<rscale>  0 0.40599084E+03</rscale>
<asrwt>0</asrwt>
<pdfrwt beam="1">  1        2 0.25677249E-01 0.40599084E+03</pdfrwt>
<pdfrwt beam="2">  1       -2 0.37983700E-01 0.40599084E+03</pdfrwt>
<totfact> 0.13831071E+03</totfact>
</mgrwt>
</event>
<event>
 4    1  0.1728870E-004  0.4366522E+03  0.7818608E-02  0.1031779E+00
         -2   -1    0    0    0  501 -0.00000000000E+00  0.00000000000E+00  0.24003113753E+02  0.24003113753E+02  0.00000000000E+00 0. -1.
          2   -1    0    0  501    0  0.00000000000E+00 -0.00000000000E+00 -0.19858378670E+04  0.19858378670E+04  0.00000000000E+00 0. -1.
         25    1    1    2    0    0 -0.92130341118E+02  0.70026991023E+02 -0.33202262166E+03  0.37152496622E+03  0.12000000000E+03 0.  0.
         25    1    1    2    0    0  0.92130341118E+02 -0.70026991023E+02 -0.16298121315E+04  0.16383160145E+04  0.12000000000E+03 0.  0.
<mgrwt>
<rscale>  0 0.43665223E+03</rscale>
<asrwt>0</asrwt>
<pdfrwt beam="1">  1        2 0.30551352E+00 0.43665223E+03</pdfrwt>
<pdfrwt beam="2">  1       -2 0.36927867E-02 0.43665223E+03</pdfrwt>
<totfact> 0.23244268E+03</totfact>
</mgrwt>
</event>
<event>
 4    1  0.1728870E-004  0.2569187E+03  0.7818608E-02  0.1109009E+00
          1   -1    0    0  501    0  0.00000000000E+00  0.00000000000E+00  0.42984489116E+03  0.42984489116E+03  0.00000000000E+00 0.  1.
         -1   -1    0    0    0  501 -0.00000000000E+00 -0.00000000000E+00 -0.38390138911E+02  0.38390138911E+02  0.00000000000E+00 0.  1.
         25    1    1    2    0    0 -0.14007482768E+01  0.22777367407E+01  0.11231616629E+03  0.16438391463E+03  0.12000000000E+03 0.  0.
         25    1    1    2    0    0  0.14007482768E+01 -0.22777367407E+01  0.27913858596E+03  0.30385111544E+03  0.12000000000E+03 0.  0.
<mgrwt>
<rscale>  0 0.25691870E+03</rscale>
<asrwt>0</asrwt>
<pdfrwt beam="1">  1        1 0.66129980E-01 0.25691870E+03</pdfrwt>
<pdfrwt beam="2">  1       -1 0.59061755E-02 0.25691870E+03</pdfrwt>
<totfact> 0.74801420E+03</totfact>
</mgrwt>
</event>
<event>
 4    1  0.1728870E-004  0.3588279E+03  0.7818608E-02  0.1059049E+00
         -1   -1    0    0    0  501 -0.00000000000E+00  0.00000000000E+00  0.20367973372E+03  0.20367973372E+03  0.00000000000E+00 0. -1.
          1   -1    0    0  501    0  0.00000000000E+00 -0.00000000000E+00 -0.15803913815E+03  0.15803913815E+03  0.00000000000E+00 0. -1.
         25    1    1    2    0    0  0.62728459429E+02 -0.80241415473E+01  0.14119775529E+03  0.19579594625E+03  0.12000000000E+03 0.  0.
         25    1    1    2    0    0 -0.62728459429E+02  0.80241415473E+01 -0.95557159728E+02  0.16592292562E+03  0.12000000000E+03 0.  0.
<mgrwt>
<rscale>  0 0.35882792E+03</rscale>
<asrwt>0</asrwt>
<pdfrwt beam="1">  1        1 0.24313714E-01 0.35882792E+03</pdfrwt>
<pdfrwt beam="2">  1       -1 0.31335344E-01 0.35882792E+03</pdfrwt>
<totfact> 0.18872622E+03</totfact>
</mgrwt>
</event>
<event>
 4    1  0.1728870E-004  0.2686894E+03  0.7818608E-02  0.1102032E+00
          2   -1    0    0  501    0  0.00000000000E+00  0.00000000000E+00  0.21108552762E+03  0.21108552762E+03  0.00000000000E+00 0. -1.
         -2   -1    0    0    0  501 -0.00000000000E+00 -0.00000000000E+00 -0.85503254887E+02  0.85503254887E+02  0.00000000000E+00 0. -1.
         25    1    1    2    0    0  0.59943991558E+02  0.39920672567E+01  0.69709368712E+02  0.15122372437E+03  0.12000000000E+03 0.  0.
         25    1    1    2    0    0 -0.59943991558E+02 -0.39920672567E+01  0.55872904020E+02  0.14536505814E+03  0.12000000000E+03 0.  0.
<mgrwt>
<rscale>  0 0.26868941E+03</rscale>
<asrwt>0</asrwt>
<pdfrwt beam="1">  1        2 0.32474696E-01 0.26868941E+03</pdfrwt>
<pdfrwt beam="2">  1       -2 0.13154347E-01 0.26868941E+03</pdfrwt>
<totfact> 0.67712622E+03</totfact>
</mgrwt>
</event>
<event>
 4    1  0.1728870E-004  0.2941912E+03  0.7818608E-02  0.1088181E+00
         -2   -1    0    0    0  501 -0.00000000000E+00  0.00000000000E+00  0.11074565606E+02  0.11074565606E+02  0.00000000000E+00 0.  1.
          2   -1    0    0  501    0  0.00000000000E+00 -0.00000000000E+00 -0.19537670648E+04  0.19537670648E+04  0.00000000000E+00 0.  1.
         25    1    1    2    0    0  0.42827323117E+02 -0.72455699186E+02 -0.88870351501E+03  0.90070968993E+03  0.12000000000E+03 0.  0.
         25    1    1    2    0    0 -0.42827323117E+02  0.72455699186E+02 -0.10539889842E+04  0.10641319405E+04  0.12000000000E+03 0.  0.
<mgrwt>
<rscale>  0 0.29419124E+03</rscale>
<asrwt>0</asrwt>
<pdfrwt beam="1">  1        2 0.30057947E+00 0.29419124E+03</pdfrwt>
<pdfrwt beam="2">  1       -2 0.17037798E-02 0.29419124E+03</pdfrwt>
<totfact> 0.76953202E+03</totfact>
</mgrwt>
</event>
<event>
 4    1  0.1728870E-004  0.2910743E+03  0.7818608E-02  0.1089790E+00
          1   -1    0    0  501    0  0.00000000000E+00  0.00000000000E+00  0.30312718748E+03  0.30312718748E+03  0.00000000000E+00 0. -1.
         -1   -1    0    0    0  501 -0.00000000000E+00 -0.00000000000E+00 -0.69875171715E+02  0.69875171715E+02  0.00000000000E+00 0. -1.
         25    1    1    2    0    0  0.64719057523E+02 -0.96041907269E+01  0.18070282373E+03  0.22657075581E+03  0.12000000000E+03 0.  0.
         25    1    1    2    0    0 -0.64719057523E+02  0.96041907269E+01  0.52549192041E+02  0.14643160339E+03  0.12000000000E+03 0.  0.
<mgrwt>
<rscale>  0 0.29107432E+03</rscale>
<asrwt>0</asrwt>
<pdfrwt beam="1">  1        1 0.46634951E-01 0.29107432E+03</pdfrwt>
<pdfrwt beam="2">  1       -1 0.10750027E-01 0.29107432E+03</pdfrwt>
<totfact> 0.46907808E+03</totfact>
</mgrwt>
</event>
<event>
 4    1  0.1728870E-004  0.2814241E+03  0.7818608E-02  0.1094914E+00
         -4   -1    0    0    0  501 -0.00000000000E+00  0.00000000000E+00  0.36377810379E+03  0.36377810379E+03  0.00000000000E+00 0.  1.
          4   -1    0    0  501    0  0.00000000000E+00 -0.00000000000E+00 -0.54428438435E+02  0.54428438435E+02  0.00000000000E+00 0.  1.
         25    1    1    2    0    0  0.12077114567E+02  0.55783319172E+02  0.22345505031E+03  0.25998037407E+03  0.12000000000E+03 0.  0.
         25    1    1    2    0    0 -0.12077114567E+02 -0.55783319172E+02  0.85894615043E+02  0.15822616815E+03  0.12000000000E+03 0.  0.
<mgrwt>
<rscale>  0 0.28142405E+03</rscale>
<asrwt>0</asrwt>
<pdfrwt beam="1">  1        4 0.83736061E-02 0.28142405E+03</pdfrwt>
<pdfrwt beam="2">  1       -4 0.55965861E-01 0.28142405E+03</pdfrwt>
<totfact> 0.59066884E+02</totfact>
</mgrwt>
</event>
<event>
 4    1  0.1728870E-004  0.3037417E+03  0.7818608E-02  0.1083385E+00
          2   -1    0    0  501    0  0.00000000000E+00  0.00000000000E+00  0.93504216660E+03  0.93504216660E+03  0.00000000000E+00 0. -1.
         -2   -1    0    0    0  501 -0.00000000000E+00 -0.00000000000E+00 -0.24667075036E+02  0.24667075036E+02  0.00000000000E+00 0. -1.
         25    1    1    2    0    0 -0.34200121185E+02  0.79134283089E+02  0.56612911179E+03  0.58509320135E+03  0.12000000000E+03 0.  0.
         25    1    1    2    0    0  0.34200121185E+02 -0.79134283089E+02  0.34424597978E+03  0.37461604029E+03  0.12000000000E+03 0.  0.
<mgrwt>
<rscale>  0 0.30374170E+03</rscale>
<asrwt>0</asrwt>
<pdfrwt beam="1">  1        2 0.14385261E+00 0.30374170E+03</pdfrwt>
<pdfrwt beam="2">  1       -2 0.37949353E-02 0.30374170E+03</pdfrwt>
<totfact> 0.85915643E+03</totfact>
</mgrwt>
</event>
<event>
 4    1  0.1728870E-004  0.2793271E+03  0.7818608E-02  0.1096057E+00
         -3   -1    0    0    0  501 -0.00000000000E+00  0.00000000000E+00  0.35394930909E+02  0.35394930909E+02  0.00000000000E+00 0.  1.
          3   -1    0    0  501    0  0.00000000000E+00 -0.00000000000E+00 -0.55109322930E+03  0.55109322930E+03  0.00000000000E+00 0.  1.
         25    1    1    2    0    0 -0.29440732001E+02 -0.50514280300E+02 -0.34409984571E+03  0.36908420859E+03  0.12000000000E+03 0.  0.
         25    1    1    2    0    0  0.29440732001E+02  0.50514280300E+02 -0.17159845268E+03  0.21740395161E+03  0.12000000000E+03 0.  0.
<mgrwt>
<rscale>  0 0.27932710E+03</rscale>
<asrwt>0</asrwt>
<pdfrwt beam="1">  1        3 0.84783576E-01 0.27932710E+03</pdfrwt>
<pdfrwt beam="2">  1       -3 0.54453738E-02 0.27932710E+03</pdfrwt>
<totfact> 0.66467171E+02</totfact>
</mgrwt>
</event>
<event>
 4    1  0.1728870E-004  0.2674097E+03  0.7818608E-02  0.1102771E+00
         -1   -1    0    0    0  501 -0.00000000000E+00  0.00000000000E+00  0.37851725309E+02  0.37851725309E+02  0.00000000000E+00 0.  1.
          1   -1    0    0  501    0  0.00000000000E+00 -0.00000000000E+00 -0.47228996333E+03  0.47228996333E+03  0.00000000000E+00 0.  1.
         25    1    1    2    0    0 -0.32519081477E+02 -0.20864161004E+01 -0.31097215309E+03  0.33491121777E+03  0.12000000000E+03 0.  0.
         25    1    1    2    0    0  0.32519081477E+02  0.20864161004E+01 -0.12346608493E+03  0.17523047087E+03  0.12000000000E+03 0.  0.
<mgrwt>
<rscale>  0 0.26740972E+03</rscale>
<asrwt>0</asrwt>
<pdfrwt beam="1">  1        1 0.72659994E-01 0.26740972E+03</pdfrwt>
<pdfrwt beam="2">  1       -1 0.58233424E-02 0.26740972E+03</pdfrwt>
<totfact> 0.67685011E+03</totfact>
</mgrwt>
</event>
<event>
 4    1  0.1728870E-004  0.3635859E+03  0.7818608E-02  0.1057173E+00
          2   -1    0    0  501    0  0.00000000000E+00  0.00000000000E+00  0.21284359452E+03  0.21284359452E+03  0.00000000000E+00 0. -1.
         -2   -1    0    0    0  501 -0.00000000000E+00 -0.00000000000E+00 -0.15527213669E+03  0.15527213669E+03  0.00000000000E+00 0. -1.
         25    1    1    2    0    0 -0.95372700840E+02 -0.84244231725E+02  0.78957497881E+02  0.19190447915E+03  0.12000000000E+03 0.  0.
         25    1    1    2    0    0  0.95372700840E+02  0.84244231725E+02 -0.21386040053E+02  0.17621125206E+03  0.12000000000E+03 0.  0.
<mgrwt>
<rscale>  0 0.36358592E+03</rscale>
<asrwt>0</asrwt>
<pdfrwt beam="1">  1        2 0.32745168E-01 0.36358592E+03</pdfrwt>
<pdfrwt beam="2">  1       -2 0.23888021E-01 0.36358592E+03</pdfrwt>
<totfact> 0.24651156E+03</totfact>
</mgrwt>
</event>
<event>
 4    1  0.1728870E-004  0.2470514E+03  0.7818608E-02  0.1115183E+00
         -1   -1    0    0    0  501 -0.00000000000E+00  0.00000000000E+00  0.28201772189E+02  0.28201772189E+02  0.00000000000E+00 0.  1.
          1   -1    0    0  501    0  0.00000000000E+00 -0.00000000000E+00 -0.54105100628E+03  0.54105100628E+03  0.00000000000E+00 0.  1.
         25    1    1    2    0    0  0.27876392961E+02 -0.78675764816E+00 -0.27714757366E+03  0.30329604326E+03  0.12000000000E+03 0.  0.
         25    1    1    2    0    0 -0.27876392961E+02  0.78675764816E+00 -0.23570166043E+03  0.26595673521E+03  0.12000000000E+03 0.  0.
<mgrwt>
<rscale>  0 0.24705139E+03</rscale>
<asrwt>0</asrwt>
<pdfrwt beam="1">  1        1 0.83238613E-01 0.24705139E+03</pdfrwt>
<pdfrwt beam="2">  1       -1 0.43387344E-02 0.24705139E+03</pdfrwt>
<totfact> 0.87503880E+03</totfact>
</mgrwt>
</event>
<event>
 4    1  0.1728870E-004  0.3408831E+03  0.7818608E-02  0.1066420E+00
          4   -1    0    0  501    0  0.00000000000E+00  0.00000000000E+00  0.15710069886E+03  0.15710069886E+03  0.00000000000E+00 0. -1.
         -4   -1    0    0    0  501 -0.00000000000E+00 -0.00000000000E+00 -0.18491525565E+03  0.18491525565E+03  0.00000000000E+00 0. -1.
         25    1    1    2    0    0  0.12002821435E+03 -0.15508652098E+02 -0.12162140799E+02  0.17086605338E+03  0.12000000000E+03 0.  0.
         25    1    1    2    0    0 -0.12002821435E+03  0.15508652098E+02 -0.15652415987E+02  0.17114990113E+03  0.12000000000E+03 0.  0.
<mgrwt>
<rscale>  0 0.34088306E+03</rscale>
<asrwt>0</asrwt>
<pdfrwt beam="1">  1        4 0.24169339E-01 0.34088306E+03</pdfrwt>
<pdfrwt beam="2">  1       -4 0.28448501E-01 0.34088306E+03</pdfrwt>
<totfact> 0.36016474E+02</totfact>
</mgrwt>
</event>
<event>
 4    1  0.1728870E-004  0.4445698E+03  0.7818608E-02  0.1029354E+00
         -2   -1    0    0    0  501 -0.00000000000E+00  0.00000000000E+00  0.22553121768E+03  0.22553121768E+03  0.00000000000E+00 0.  1.
          2   -1    0    0  501    0  0.00000000000E+00 -0.00000000000E+00 -0.21908529323E+03  0.21908529323E+03  0.00000000000E+00 0.  1.
         25    1    1    2    0    0 -0.13718248284E+03  0.55928004543E+02 -0.11108514773E+03  0.22065104880E+03  0.12000000000E+03 0.  0.
         25    1    1    2    0    0  0.13718248284E+03 -0.55928004543E+02  0.11753107218E+03  0.22396546211E+03  0.12000000000E+03 0.  0.
<mgrwt>
<rscale>  0 0.44456978E+03</rscale>
<asrwt>0</asrwt>
<pdfrwt beam="1">  1        2 0.33705430E-01 0.44456978E+03</pdfrwt>
<pdfrwt beam="2">  1       -2 0.34697110E-01 0.44456978E+03</pdfrwt>
<totfact> 0.12126456E+03</totfact>
</mgrwt>
</event>
<event>
 4    1  0.1728870E-004  0.2453766E+03  0.7818608E-02  0.1116262E+00
         -3   -1    0    0    0  501 -0.00000000000E+00  0.00000000000E+00  0.29005074254E+03  0.29005074254E+03  0.00000000000E+00 0.  1.
          3   -1    0    0  501    0  0.00000000000E+00 -0.00000000000E+00 -0.51895805830E+02  0.51895805830E+02  0.00000000000E+00 0.  1.
         25    1    1    2    0    0 -0.73373325133E+01 -0.16516183861E+02  0.14423095194E+03  0.18849187854E+03  0.12000000000E+03 0.  0.
         25    1    1    2    0    0  0.73373325133E+01  0.16516183861E+02  0.93923984772E+02  0.15345466983E+03  0.12000000000E+03 0.  0.
<mgrwt>
<rscale>  0 0.24537658E+03</rscale>
<asrwt>0</asrwt>
<pdfrwt beam="1">  1        3 0.79839703E-02 0.24537658E+03</pdfrwt>
<pdfrwt beam="2">  1       -3 0.44623190E-01 0.24537658E+03</pdfrwt>
<totfact> 0.13473055E+03</totfact>
</mgrwt>
</event>
<event>
 4    1  0.1728870E-004  0.3132792E+03  0.7818608E-02  0.1078785E+00
         -2   -1    0    0    0  501 -0.00000000000E+00  0.00000000000E+00  0.11453828253E+02  0.11453828253E+02  0.00000000000E+00 0. -1.
          2   -1    0    0  501    0  0.00000000000E+00 -0.00000000000E+00 -0.21421633021E+04  0.21421633021E+04  0.00000000000E+00 0. -1.
         25    1    1    2    0    0  0.29068989077E+02 -0.75049404382E+02 -0.14811614117E+04  0.14881923756E+04  0.12000000000E+03 0.  0.
         25    1    1    2    0    0 -0.29068989077E+02  0.75049404382E+02 -0.64954806208E+03  0.66542475470E+03  0.12000000000E+03 0.  0.
<mgrwt>
<rscale>  0 0.31327924E+03</rscale>
<asrwt>0</asrwt>
<pdfrwt beam="1">  1        2 0.32956339E+00 0.31327924E+03</pdfrwt>
<pdfrwt beam="2">  1       -2 0.17621285E-02 0.31327924E+03</pdfrwt>
<totfact> 0.58213765E+03</totfact>
</mgrwt>
</event>
<event>
 4    1  0.1728870E-004  0.2614244E+03  0.7818608E-02  0.1106290E+00
         -2   -1    0    0    0  501 -0.00000000000E+00  0.00000000000E+00  0.13683143717E+02  0.13683143717E+02  0.00000000000E+00 0.  1.
          2   -1    0    0  501    0  0.00000000000E+00 -0.00000000000E+00 -0.12486663160E+04  0.12486663160E+04  0.00000000000E+00 0.  1.
         25    1    1    2    0    0  0.44567311483E+02  0.15733700493E+02 -0.72013898266E+03  0.73159684863E+03  0.12000000000E+03 0.  0.
         25    1    1    2    0    0 -0.44567311483E+02 -0.15733700493E+02 -0.51484418965E+03  0.53075261111E+03  0.12000000000E+03 0.  0.
<mgrwt>
<rscale>  0 0.26142441E+03</rscale>
<asrwt>0</asrwt>
<pdfrwt beam="1">  1        2 0.19210253E+00 0.26142441E+03</pdfrwt>
<pdfrwt beam="2">  1       -2 0.21050988E-02 0.26142441E+03</pdfrwt>
<totfact> 0.13399269E+04</totfact>
</mgrwt>
</event>
<event>
 4    1  0.1728870E-004  0.2804098E+03  0.7818608E-02  0.1095465E+00
          4   -1    0    0  501    0  0.00000000000E+00  0.00000000000E+00  0.15470445508E+04  0.15470445508E+04  0.00000000000E+00 0. -1.
         -4   -1    0    0    0  501 -0.00000000000E+00 -0.00000000000E+00 -0.12706427085E+02  0.12706427085E+02  0.00000000000E+00 0. -1.
         25    1    1    2    0    0 -0.35590711982E+02  0.53378015598E+02  0.95510057477E+03  0.96474505402E+03  0.12000000000E+03 0.  0.
         25    1    1    2    0    0  0.35590711982E+02 -0.53378015598E+02  0.57923754897E+03  0.59500592389E+03  0.12000000000E+03 0.  0.
<mgrwt>
<rscale>  0 0.28040976E+03</rscale>
<asrwt>0</asrwt>
<pdfrwt beam="1">  1        4 0.23800671E+00 0.28040976E+03</pdfrwt>
<pdfrwt beam="2">  1       -4 0.19548362E-02 0.28040976E+03</pdfrwt>
<totfact> 0.16607586E+02</totfact>
</mgrwt>
</event>
<event>
 4    1  0.1728870E-004  0.2548836E+03  0.7818608E-02  0.1110257E+00
          2   -1    0    0  501    0  0.00000000000E+00  0.00000000000E+00  0.35058306546E+03  0.35058306546E+03  0.00000000000E+00 0.  1.
         -2   -1    0    0    0  501 -0.00000000000E+00 -0.00000000000E+00 -0.46326850037E+02  0.46326850037E+02  0.00000000000E+00 0.  1.
         25    1    1    2    0    0  0.27422008957E+02 -0.11058337370E+01  0.10075824763E+03  0.15907675477E+03  0.12000000000E+03 0.  0.
         25    1    1    2    0    0 -0.27422008957E+02  0.11058337370E+01  0.20349796779E+03  0.23783316072E+03  0.12000000000E+03 0.  0.
<mgrwt>
<rscale>  0 0.25488357E+03</rscale>
<asrwt>0</asrwt>
<pdfrwt beam="1">  1        2 0.53935855E-01 0.25488357E+03</pdfrwt>
<pdfrwt beam="2">  1       -2 0.71272079E-02 0.25488357E+03</pdfrwt>
<totfact> 0.10327447E+04</totfact>
</mgrwt>
</event>
<event>
 4    1  0.1728870E-004  0.3336327E+03  0.7818608E-02  0.1069541E+00
          4   -1    0    0  501    0  0.00000000000E+00  0.00000000000E+00  0.16443391873E+04  0.16443391873E+04  0.00000000000E+00 0. -1.
         -4   -1    0    0    0  501 -0.00000000000E+00 -0.00000000000E+00 -0.16923327860E+02  0.16923327860E+02  0.00000000000E+00 0. -1.
         25    1    1    2    0    0 -0.44188560960E+02  0.81035397337E+02  0.11625560688E+04  0.11723719451E+04  0.12000000000E+03 0.  0.
         25    1    1    2    0    0  0.44188560960E+02 -0.81035397337E+02  0.46485979057E+03  0.48889056999E+03  0.12000000000E+03 0.  0.
<mgrwt>
<rscale>  0 0.33363268E+03</rscale>
<asrwt>0</asrwt>
<pdfrwt beam="1">  1        4 0.25297513E+00 0.33363268E+03</pdfrwt>
<pdfrwt beam="2">  1       -4 0.26035902E-02 0.33363268E+03</pdfrwt>
<totfact> 0.87440729E+01</totfact>
</mgrwt>
</event>
<event>
 4    1  0.1728870E-004  0.2432861E+03  0.7818608E-02  0.1117623E+00
         -1   -1    0    0    0  501 -0.00000000000E+00  0.00000000000E+00  0.56384629470E+02  0.56384629470E+02  0.00000000000E+00 0.  1.
          1   -1    0    0  501    0  0.00000000000E+00 -0.00000000000E+00 -0.26243022080E+03  0.26243022080E+03  0.00000000000E+00 0.  1.
         25    1    1    2    0    0 -0.14657354171E+02  0.52649463842E+01 -0.86735549983E+02  0.14888120540E+03  0.12000000000E+03 0.  0.
         25    1    1    2    0    0  0.14657354171E+02 -0.52649463842E+01 -0.11931004135E+03  0.16993364487E+03  0.12000000000E+03 0.  0.
<mgrwt>
<rscale>  0 0.24328609E+03</rscale>
<asrwt>0</asrwt>
<pdfrwt beam="1">  1        1 0.40373880E-01 0.24328609E+03</pdfrwt>
<pdfrwt beam="2">  1       -1 0.86745584E-02 0.24328609E+03</pdfrwt>
<totfact> 0.77750594E+03</totfact>
</mgrwt>
</event>
<event>
 4    1  0.1728870E-004  0.2779966E+03  0.7818608E-02  0.1096788E+00
          2   -1    0    0  501    0  0.00000000000E+00  0.00000000000E+00  0.33820085938E+03  0.33820085938E+03  0.00000000000E+00 0. -1.
         -2   -1    0    0    0  501 -0.00000000000E+00 -0.00000000000E+00 -0.57127367114E+02  0.57127367114E+02  0.00000000000E+00 0. -1.
         25    1    1    2    0    0  0.20368619866E+02  0.10570616184E+00  0.23599121560E+03  0.26553106351E+03  0.12000000000E+03 0.  0.
         25    1    1    2    0    0 -0.20368619866E+02 -0.10570616184E+00  0.45082276665E+02  0.12979716298E+03  0.12000000000E+03 0.  0.
<mgrwt>
<rscale>  0 0.27799658E+03</rscale>
<asrwt>0</asrwt>
<pdfrwt beam="1">  1        2 0.52030901E-01 0.27799658E+03</pdfrwt>
<pdfrwt beam="2">  1       -2 0.87888259E-02 0.27799658E+03</pdfrwt>
<totfact> 0.77691024E+03</totfact>
</mgrwt>
</event>
<event>
 4    1  0.1728870E-004  0.2868199E+03  0.7818608E-02  0.1092021E+00
          2   -1    0    0  501    0  0.00000000000E+00  0.00000000000E+00  0.88488859860E+03  0.88488859860E+03  0.00000000000E+00 0. -1.
         -2   -1    0    0    0  501 -0.00000000000E+00 -0.00000000000E+00 -0.23241813247E+02  0.23241813247E+02  0.00000000000E+00 0. -1.
         25    1    1    2    0    0 -0.69549354524E+00  0.16451819334E+02  0.18772014996E+03  0.22340546272E+03  0.12000000000E+03 0.  0.
         25    1    1    2    0    0  0.69549354524E+00 -0.16451819334E+02  0.67392663539E+03  0.68472494913E+03  0.12000000000E+03 0.  0.
<mgrwt>
<rscale>  0 0.28681991E+03</rscale>
<asrwt>0</asrwt>
<pdfrwt beam="1">  1        2 0.13613668E+00 0.28681991E+03</pdfrwt>
<pdfrwt beam="2">  1       -2 0.35756643E-02 0.28681991E+03</pdfrwt>
<totfact> 0.10105157E+04</totfact>
</mgrwt>
</event>
<event>
 4    1  0.1728870E-004  0.2826872E+03  0.7818608E-02  0.1094230E+00
          2   -1    0    0  501    0  0.00000000000E+00  0.00000000000E+00  0.32728813422E+03  0.32728813422E+03  0.00000000000E+00 0. -1.
         -2   -1    0    0    0  501 -0.00000000000E+00 -0.00000000000E+00 -0.61041037851E+02  0.61041037851E+02  0.00000000000E+00 0. -1.
         25    1    1    2    0    0  0.23691706669E+02 -0.61049510784E+02  0.18245601595E+03  0.22798802049E+03  0.12000000000E+03 0.  0.
         25    1    1    2    0    0 -0.23691706669E+02  0.61049510784E+02  0.83791080419E+02  0.16034115158E+03  0.12000000000E+03 0.  0.
<mgrwt>
<rscale>  0 0.28268716E+03</rscale>
<asrwt>0</asrwt>
<pdfrwt beam="1">  1        2 0.50352019E-01 0.28268716E+03</pdfrwt>
<pdfrwt beam="2">  1       -2 0.93909291E-02 0.28268716E+03</pdfrwt>
<totfact> 0.72540305E+03</totfact>
</mgrwt>
</event>
<event>
 4    1  0.1728870E-004  0.3578632E+03  0.7818608E-02  0.1059433E+00
         -1   -1    0    0    0  501 -0.00000000000E+00  0.00000000000E+00  0.76218949734E+02  0.76218949734E+02  0.00000000000E+00 0. -1.
          1   -1    0    0  501    0  0.00000000000E+00 -0.00000000000E+00 -0.42005992525E+03  0.42005992525E+03  0.00000000000E+00 0. -1.
         25    1    1    2    0    0 -0.77514708050E+02 -0.22497445266E+02 -0.25801522874E+02  0.14690263303E+03  0.12000000000E+03 0.  0.
         25    1    1    2    0    0  0.77514708050E+02  0.22497445266E+02 -0.31803945264E+03  0.34937624196E+03  0.12000000000E+03 0.  0.
<mgrwt>
<rscale>  0 0.35786325E+03</rscale>
<asrwt>0</asrwt>
<pdfrwt beam="1">  1        1 0.64624604E-01 0.35786325E+03</pdfrwt>
<pdfrwt beam="2">  1       -1 0.11725992E-01 0.35786325E+03</pdfrwt>
<totfact> 0.27098502E+03</totfact>
</mgrwt>
</event>
<event>
 4    1  0.1728870E-004  0.3741717E+03  0.7818608E-02  0.1053109E+00
          2   -1    0    0  501    0  0.00000000000E+00  0.00000000000E+00  0.16677201282E+03  0.16677201282E+03  0.00000000000E+00 0. -1.
         -2   -1    0    0    0  501 -0.00000000000E+00 -0.00000000000E+00 -0.20987403794E+03  0.20987403794E+03  0.00000000000E+00 0. -1.
         25    1    1    2    0    0  0.10118166099E+03  0.69456133623E+02 -0.96469203900E+02  0.19689639488E+03  0.12000000000E+03 0.  0.
         25    1    1    2    0    0 -0.10118166099E+03 -0.69456133623E+02  0.53367178780E+02  0.17974965588E+03  0.12000000000E+03 0.  0.
<mgrwt>
<rscale>  0 0.37417170E+03</rscale>
<asrwt>0</asrwt>
<pdfrwt beam="1">  1        2 0.25657233E-01 0.37417170E+03</pdfrwt>
<pdfrwt beam="2">  1       -2 0.32288313E-01 0.37417170E+03</pdfrwt>
<totfact> 0.18768108E+03</totfact>
</mgrwt>
</event>
<event>
 4    1  0.1728870E-004  0.2662246E+03  0.7818608E-02  0.1103460E+00
          2   -1    0    0  501    0  0.00000000000E+00  0.00000000000E+00  0.19383721102E+03  0.19383721102E+03  0.00000000000E+00 0. -1.
         -2   -1    0    0    0  501 -0.00000000000E+00 -0.00000000000E+00 -0.91411178440E+02  0.91411178440E+02  0.00000000000E+00 0. -1.
         25    1    1    2    0    0 -0.51320408795E+02 -0.26161221566E+02  0.50320412966E+02  0.14230368173E+03  0.12000000000E+03 0.  0.
         25    1    1    2    0    0  0.51320408795E+02  0.26161221566E+02  0.52105619613E+02  0.14294470773E+03  0.12000000000E+03 0.  0.
<mgrwt>
<rscale>  0 0.26622463E+03</rscale>
<asrwt>0</asrwt>
<pdfrwt beam="1">  1        2 0.29821109E-01 0.26622463E+03</pdfrwt>
<pdfrwt beam="2">  1       -2 0.14063258E-01 0.26622463E+03</pdfrwt>
<totfact> 0.66616147E+03</totfact>
</mgrwt>
</event>
<event>
 4    1  0.1728870E-004  0.2659987E+03  0.7818608E-02  0.1103592E+00
         -1   -1    0    0    0  501 -0.00000000000E+00  0.00000000000E+00  0.78642192208E+02  0.78642192208E+02  0.00000000000E+00 0.  1.
          1   -1    0    0  501    0  0.00000000000E+00 -0.00000000000E+00 -0.22492798202E+03  0.22492798202E+03  0.00000000000E+00 0.  1.
         25    1    1    2    0    0  0.56346136561E+02  0.62875991299E+01 -0.63298453391E+02  0.14704120242E+03  0.12000000000E+03 0.  0.
         25    1    1    2    0    0 -0.56346136561E+02 -0.62875991299E+01 -0.82987336420E+02  0.15652897181E+03  0.12000000000E+03 0.  0.
<mgrwt>
<rscale>  0 0.26599872E+03</rscale>
<asrwt>0</asrwt>
<pdfrwt beam="1">  1        1 0.34604305E-01 0.26599872E+03</pdfrwt>
<pdfrwt beam="2">  1       -1 0.12098799E-01 0.26599872E+03</pdfrwt>
<totfact> 0.56605503E+03</totfact>
</mgrwt>
</event>
<event>
 4    1  0.1728870E-004  0.6192815E+03  0.7818608E-02  0.9866191E-01
          2   -1    0    0  501    0  0.00000000000E+00  0.00000000000E+00  0.73371353346E+03  0.73371353346E+03  0.00000000000E+00 0.  1.
         -2   -1    0    0    0  501 -0.00000000000E+00 -0.00000000000E+00 -0.13067414826E+03  0.13067414826E+03  0.00000000000E+00 0.  1.
         25    1    1    2    0    0 -0.95255197483E+02 -0.17444153350E+03  0.58748318734E+03  0.63169604768E+03  0.12000000000E+03 0.  0.
         25    1    1    2    0    0  0.95255197483E+02  0.17444153350E+03  0.15556197859E+02  0.23269163403E+03  0.12000000000E+03 0.  0.
<mgrwt>
<rscale>  0 0.61928149E+03</rscale>
<asrwt>0</asrwt>
<pdfrwt beam="1">  1        2 0.11287900E+00 0.61928149E+03</pdfrwt>
<pdfrwt beam="2">  1       -2 0.20103715E-01 0.61928149E+03</pdfrwt>
<totfact> 0.82018688E+02</totfact>
</mgrwt>
</event>
<event>
 4    1  0.1728870E-004  0.2840923E+03  0.7818608E-02  0.1093475E+00
         -1   -1    0    0    0  501 -0.00000000000E+00  0.00000000000E+00  0.28368412288E+03  0.28368412288E+03  0.00000000000E+00 0.  1.
          1   -1    0    0  501    0  0.00000000000E+00 -0.00000000000E+00 -0.71125277316E+02  0.71125277316E+02  0.00000000000E+00 0.  1.
         25    1    1    2    0    0  0.50029319908E+02 -0.43183455147E+02  0.15316592810E+03  0.20549341882E+03  0.12000000000E+03 0.  0.
         25    1    1    2    0    0 -0.50029319908E+02  0.43183455147E+02  0.59392917467E+02  0.14931598138E+03  0.12000000000E+03 0.  0.
<mgrwt>
<rscale>  0 0.28409232E+03</rscale>
<asrwt>0</asrwt>
<pdfrwt beam="1">  1        1 0.10942351E-01 0.28409232E+03</pdfrwt>
<pdfrwt beam="2">  1       -1 0.43643711E-01 0.28409232E+03</pdfrwt>
<totfact> 0.29886669E+03</totfact>
</mgrwt>
</event>
<event>
 4    1  0.1728870E-004  0.3218281E+03  0.7818608E-02  0.1074811E+00
         -2   -1    0    0    0  501 -0.00000000000E+00  0.00000000000E+00  0.20683258251E+02  0.20683258251E+02  0.00000000000E+00 0.  1.
          2   -1    0    0  501    0  0.00000000000E+00 -0.00000000000E+00 -0.12518982666E+04  0.12518982666E+04  0.00000000000E+00 0.  1.
         25    1    1    2    0    0  0.42404759123E+02 -0.96209132510E+02 -0.53275966082E+03  0.55613596986E+03  0.12000000000E+03 0.  0.
         25    1    1    2    0    0 -0.42404759123E+02  0.96209132510E+02 -0.69845534752E+03  0.71644555498E+03  0.12000000000E+03 0.  0.
<mgrwt>
<rscale>  0 0.32182812E+03</rscale>
<asrwt>0</asrwt>
<pdfrwt beam="1">  1        2 0.19259979E+00 0.32182812E+03</pdfrwt>
<pdfrwt beam="2">  1       -2 0.31820388E-02 0.32182812E+03</pdfrwt>
<totfact> 0.72612151E+03</totfact>
</mgrwt>
</event>
<event>
 4    1  0.1728870E-004  0.3329451E+03  0.7818608E-02  0.1069841E+00
          1   -1    0    0  501    0  0.00000000000E+00  0.00000000000E+00  0.44903393009E+02  0.44903393009E+02  0.00000000000E+00 0. -1.
         -1   -1    0    0    0  501 -0.00000000000E+00 -0.00000000000E+00 -0.61717166880E+03  0.61717166880E+03  0.00000000000E+00 0. -1.
         25    1    1    2    0    0  0.44126388094E+02 -0.36531748167E+01 -0.74257691710E+02  0.14790094182E+03  0.12000000000E+03 0.  0.
         25    1    1    2    0    0 -0.44126388094E+02  0.36531748167E+01 -0.49801058408E+03  0.51417411999E+03  0.12000000000E+03 0.  0.
<mgrwt>
<rscale>  0 0.33294505E+03</rscale>
<asrwt>0</asrwt>
<pdfrwt beam="1">  1        1 0.69082136E-02 0.33294505E+03</pdfrwt>
<pdfrwt beam="2">  1       -1 0.94949497E-01 0.33294505E+03</pdfrwt>
<totfact> 0.12058354E+03</totfact>
</mgrwt>
</event>
<event>
 4    1  0.1728870E-004  0.2580295E+03  0.7818608E-02  0.1108333E+00
          2   -1    0    0  501    0  0.00000000000E+00  0.00000000000E+00  0.11901187558E+04  0.11901187558E+04  0.00000000000E+00 0.  1.
         -2   -1    0    0    0  501 -0.00000000000E+00 -0.00000000000E+00 -0.13985835444E+02  0.13985835444E+02  0.00000000000E+00 0.  1.
         25    1    1    2    0    0 -0.37594634725E+02 -0.24151062757E+02  0.51455186003E+03  0.53024545925E+03  0.12000000000E+03 0.  0.
         25    1    1    2    0    0  0.37594634725E+02  0.24151062757E+02  0.66158106032E+03  0.67385913199E+03  0.12000000000E+03 0.  0.
<mgrwt>
<rscale>  0 0.25802950E+03</rscale>
<asrwt>0</asrwt>
<pdfrwt beam="1">  1        2 0.18309511E+00 0.25802950E+03</pdfrwt>
<pdfrwt beam="2">  1       -2 0.21516679E-02 0.25802950E+03</pdfrwt>
<totfact> 0.13993742E+04</totfact>
</mgrwt>
</event>
<event>
 4    1  0.1728870E-004  0.3638373E+03  0.7818608E-02  0.1057075E+00
         -1   -1    0    0    0  501 -0.00000000000E+00  0.00000000000E+00  0.60195277046E+02  0.60195277046E+02  0.00000000000E+00 0.  1.
          1   -1    0    0  501    0  0.00000000000E+00 -0.00000000000E+00 -0.54978382983E+03  0.54978382983E+03  0.00000000000E+00 0.  1.
         25    1    1    2    0    0 -0.10032008763E+03  0.41942930026E+02 -0.38376383023E+03  0.41653091933E+03  0.12000000000E+03 0.  0.
         25    1    1    2    0    0  0.10032008763E+03 -0.41942930026E+02 -0.10582472255E+03  0.19344818754E+03  0.12000000000E+03 0.  0.
<mgrwt>
<rscale>  0 0.36383727E+03</rscale>
<asrwt>0</asrwt>
<pdfrwt beam="1">  1        1 0.84582127E-01 0.36383727E+03</pdfrwt>
<pdfrwt beam="2">  1       -1 0.92608120E-02 0.36383727E+03</pdfrwt>
<totfact> 0.27361653E+03</totfact>
</mgrwt>
</event>
<event>
 4    1  0.1728870E-004  0.3807312E+03  0.7818608E-02  0.1050664E+00
          2   -1    0    0  501    0  0.00000000000E+00  0.00000000000E+00  0.71177839248E+03  0.71177839248E+03  0.00000000000E+00 0.  1.
         -2   -1    0    0    0  501 -0.00000000000E+00 -0.00000000000E+00 -0.50913397443E+02  0.50913397443E+02  0.00000000000E+00 0.  1.
         25    1    1    2    0    0 -0.10071730069E+03 -0.10290773292E+03  0.26383966272E+03  0.32364385330E+03  0.12000000000E+03 0.  0.
         25    1    1    2    0    0  0.10071730069E+03  0.10290773292E+03  0.39702533231E+03  0.43904793662E+03  0.12000000000E+03 0.  0.
<mgrwt>
<rscale>  0 0.38073117E+03</rscale>
<asrwt>0</asrwt>
<pdfrwt beam="1">  1        2 0.10950436E+00 0.38073117E+03</pdfrwt>
<pdfrwt beam="2">  1       -2 0.78328309E-02 0.38073117E+03</pdfrwt>
<totfact> 0.40371378E+03</totfact>
</mgrwt>
</event>
<event>
 4    1  0.1728870E-004  0.3691777E+03  0.7818608E-02  0.1055008E+00
          1   -1    0    0  501    0  0.00000000000E+00  0.00000000000E+00  0.27833533372E+03  0.27833533372E+03  0.00000000000E+00 0. -1.
         -1   -1    0    0    0  501 -0.00000000000E+00 -0.00000000000E+00 -0.12241722635E+03  0.12241722635E+03  0.00000000000E+00 0. -1.
         25    1    1    2    0    0  0.42397279071E+02  0.34485467717E+02 -0.62264319610E+02  0.14582051383E+03  0.12000000000E+03 0.  0.
         25    1    1    2    0    0 -0.42397279071E+02 -0.34485467717E+02  0.21818242698E+03  0.25493204624E+03  0.12000000000E+03 0.  0.
<mgrwt>
<rscale>  0 0.36917768E+03</rscale>
<asrwt>0</asrwt>
<pdfrwt beam="1">  1        1 0.42820820E-01 0.36917768E+03</pdfrwt>
<pdfrwt beam="2">  1       -1 0.18833419E-01 0.36917768E+03</pdfrwt>
<totfact> 0.21529579E+03</totfact>
</mgrwt>
</event>
<event>
 4    1  0.1728870E-004  0.3510474E+03  0.7818608E-02  0.1062186E+00
          1   -1    0    0  501    0  0.00000000000E+00  0.00000000000E+00  0.15788671302E+04  0.15788671302E+04  0.00000000000E+00 0. -1.
         -1   -1    0    0    0  501 -0.00000000000E+00 -0.00000000000E+00 -0.19513086754E+02  0.19513086754E+02  0.00000000000E+00 0. -1.
         25    1    1    2    0    0 -0.37998411568E+00  0.27405678031E+02  0.20994119555E+03  0.24336499576E+03  0.12000000000E+03 0.  0.
         25    1    1    2    0    0  0.37998411568E+00 -0.27405678031E+02  0.13494128479E+04  0.13550152212E+04  0.12000000000E+03 0.  0.
<mgrwt>
<rscale>  0 0.35104741E+03</rscale>
<asrwt>0</asrwt>
<pdfrwt beam="1">  1        1 0.24290253E+00 0.35104741E+03</pdfrwt>
<pdfrwt beam="2">  1       -1 0.30020146E-02 0.35104741E+03</pdfrwt>
<totfact> 0.23903195E+03</totfact>
</mgrwt>
</event>
<event>
 4    1  0.1728870E-004  0.3266276E+03  0.7818608E-02  0.1072639E+00
         -3   -1    0    0    0  501 -0.00000000000E+00  0.00000000000E+00  0.36347520826E+03  0.36347520826E+03  0.00000000000E+00 0.  1.
          3   -1    0    0  501    0  0.00000000000E+00 -0.00000000000E+00 -0.73378876977E+02  0.73378876977E+02  0.00000000000E+00 0.  1.
         25    1    1    2    0    0  0.26125059867E+01  0.95174339256E+02  0.22078268184E+03  0.26871913337E+03  0.12000000000E+03 0.  0.
         25    1    1    2    0    0 -0.26125059867E+01 -0.95174339256E+02  0.69313649449E+02  0.16813495187E+03  0.12000000000E+03 0.  0.
<mgrwt>
<rscale>  0 0.32662763E+03</rscale>
<asrwt>0</asrwt>
<pdfrwt beam="1">  1        3 0.11289058E-01 0.32662763E+03</pdfrwt>
<pdfrwt beam="2">  1       -3 0.55919262E-01 0.32662763E+03</pdfrwt>
<totfact> 0.49410445E+02</totfact>
</mgrwt>
</event>
<event>
 4    1  0.1728870E-004  0.2511531E+03  0.7818608E-02  0.1112578E+00
          1   -1    0    0  501    0  0.00000000000E+00  0.00000000000E+00  0.21563414024E+03  0.21563414024E+03  0.00000000000E+00 0.  1.
         -1   -1    0    0    0  501 -0.00000000000E+00 -0.00000000000E+00 -0.73130683163E+02  0.73130683163E+02  0.00000000000E+00 0.  1.
         25    1    1    2    0    0 -0.30428211588E+02  0.10746296749E+02  0.50425172580E+02  0.13410464938E+03  0.12000000000E+03 0.  0.
         25    1    1    2    0    0  0.30428211588E+02 -0.10746296749E+02  0.92078284495E+02  0.15466017403E+03  0.12000000000E+03 0.  0.
<mgrwt>
<rscale>  0 0.25115312E+03</rscale>
<asrwt>0</asrwt>
<pdfrwt beam="1">  1        1 0.33174483E-01 0.25115312E+03</pdfrwt>
<pdfrwt beam="2">  1       -1 0.11250874E-01 0.25115312E+03</pdfrwt>
<totfact> 0.66693609E+03</totfact>
</mgrwt>
</event>
<event>
 4    1  0.1728870E-004  0.4277641E+03  0.7818608E-02  0.1034569E+00
          3   -1    0    0  501    0  0.00000000000E+00  0.00000000000E+00  0.14602812034E+03  0.14602812034E+03  0.00000000000E+00 0.  1.
         -3   -1    0    0    0  501 -0.00000000000E+00 -0.00000000000E+00 -0.31326515379E+03  0.31326515379E+03  0.00000000000E+00 0.  1.
         25    1    1    2    0    0 -0.10930998651E+03  0.11322371665E+03  0.34593118164E+01  0.19794001617E+03  0.12000000000E+03 0.  0.
         25    1    1    2    0    0  0.10930998651E+03 -0.11322371665E+03 -0.17069634526E+03  0.26135325796E+03  0.12000000000E+03 0.  0.
<mgrwt>
<rscale>  0 0.42776405E+03</rscale>
<asrwt>0</asrwt>
<pdfrwt beam="1">  1        3 0.22465865E-01 0.42776405E+03</pdfrwt>
<pdfrwt beam="2">  1       -3 0.48194638E-01 0.42776405E+03</pdfrwt>
<totfact> 0.20465935E+02</totfact>
</mgrwt>
</event>
<event>
 4    1  0.1728870E-004  0.6246555E+03  0.7818608E-02  0.9855534E-01
          1   -1    0    0  501    0  0.00000000000E+00  0.00000000000E+00  0.31561421041E+03  0.31561421041E+03  0.00000000000E+00 0. -1.
         -1   -1    0    0    0  501 -0.00000000000E+00 -0.00000000000E+00 -0.30907555979E+03  0.30907555979E+03  0.00000000000E+00 0. -1.
         25    1    1    2    0    0 -0.72766074017E+02  0.69933822147E+02 -0.26686211005E+03  0.30951740951E+03  0.12000000000E+03 0.  0.
         25    1    1    2    0    0  0.72766074017E+02 -0.69933822147E+02  0.27340076067E+03  0.31517236069E+03  0.12000000000E+03 0.  0.
<mgrwt>
<rscale>  0 0.62465555E+03</rscale>
<asrwt>0</asrwt>
<pdfrwt beam="1">  1        1 0.48556033E-01 0.62465555E+03</pdfrwt>
<pdfrwt beam="2">  1       -1 0.47550086E-01 0.62465555E+03</pdfrwt>
<totfact> 0.36705955E+02</totfact>
</mgrwt>
</event>
<event>
 4    1  0.1728870E-004  0.2509076E+03  0.7818608E-02  0.1112733E+00
         -1   -1    0    0    0  501 -0.00000000000E+00  0.00000000000E+00  0.70240173856E+02  0.70240173856E+02  0.00000000000E+00 0.  1.
          1   -1    0    0  501    0  0.00000000000E+00 -0.00000000000E+00 -0.22406909481E+03  0.22406909481E+03  0.00000000000E+00 0.  1.
         25    1    1    2    0    0 -0.33954186157E+01 -0.59619110374E+01 -0.11906961153E+03  0.16918819593E+03  0.12000000000E+03 0.  0.
         25    1    1    2    0    0  0.33954186157E+01  0.59619110374E+01 -0.34759309416E+02  0.12512107273E+03  0.12000000000E+03 0.  0.
<mgrwt>
<rscale>  0 0.25090757E+03</rscale>
<asrwt>0</asrwt>
<pdfrwt beam="1">  1        1 0.34472168E-01 0.25090757E+03</pdfrwt>
<pdfrwt beam="2">  1       -1 0.10806181E-01 0.25090757E+03</pdfrwt>
<totfact> 0.67658795E+03</totfact>
</mgrwt>
</event>
<event>
 4    1  0.1728870E-004  0.3246563E+03  0.7818608E-02  0.1073526E+00
         -2   -1    0    0    0  501 -0.00000000000E+00  0.00000000000E+00  0.26395490536E+02  0.26395490536E+02  0.00000000000E+00 0.  1.
          2   -1    0    0  501    0  0.00000000000E+00 -0.00000000000E+00 -0.99829298459E+03  0.99829298459E+03  0.00000000000E+00 0.  1.
         25    1    1    2    0    0  0.61361652354E+02  0.66987527745E+02 -0.29401880722E+03  0.33030234672E+03  0.12000000000E+03 0.  0.
         25    1    1    2    0    0 -0.61361652354E+02 -0.66987527745E+02 -0.67787868683E+03  0.69438612840E+03  0.12000000000E+03 0.  0.
<mgrwt>
<rscale>  0 0.32465633E+03</rscale>
<asrwt>0</asrwt>
<pdfrwt beam="1">  1        2 0.15358354E+00 0.32465633E+03</pdfrwt>
<pdfrwt beam="2">  1       -2 0.40608445E-02 0.32465633E+03</pdfrwt>
<totfact> 0.70912697E+03</totfact>
</mgrwt>
</event>
<event>
 4    1  0.1728870E-004  0.4266252E+03  0.7818608E-02  0.1034931E+00
          2   -1    0    0  501    0  0.00000000000E+00  0.00000000000E+00  0.10952942966E+04  0.10952942966E+04  0.00000000000E+00 0.  1.
         -2   -1    0    0    0  501 -0.00000000000E+00 -0.00000000000E+00 -0.41543411417E+02  0.41543411417E+02  0.00000000000E+00 0.  1.
         25    1    1    2    0    0  0.11005481619E+03  0.12188994157E+02  0.89264805940E+03  0.90745864484E+03  0.12000000000E+03 0.  0.
         25    1    1    2    0    0 -0.11005481619E+03 -0.12188994157E+02  0.16110282575E+03  0.22937906314E+03  0.12000000000E+03 0.  0.
<mgrwt>
<rscale>  0 0.42662518E+03</rscale>
<asrwt>0</asrwt>
<pdfrwt beam="1">  1        2 0.16850679E+00 0.42662518E+03</pdfrwt>
<pdfrwt beam="2">  1       -2 0.63912949E-02 0.42662518E+03</pdfrwt>
<totfact> 0.30950626E+03</totfact>
</mgrwt>
</event>
<event>
 4    1  0.1728870E-004  0.4293962E+03  0.7818608E-02  0.1034051E+00
         -2   -1    0    0    0  501 -0.00000000000E+00  0.00000000000E+00  0.47333088620E+02  0.47333088620E+02  0.00000000000E+00 0.  1.
          2   -1    0    0  501    0  0.00000000000E+00 -0.00000000000E+00 -0.97384889148E+03  0.97384889148E+03  0.00000000000E+00 0.  1.
         25    1    1    2    0    0 -0.12761356614E+03  0.85984275261E+02 -0.25032423833E+03  0.31739682127E+03  0.12000000000E+03 0.  0.
         25    1    1    2    0    0  0.12761356614E+03 -0.85984275261E+02 -0.67619156453E+03  0.70378515883E+03  0.12000000000E+03 0.  0.
<mgrwt>
<rscale>  0 0.42939621E+03</rscale>
<asrwt>0</asrwt>
<pdfrwt beam="1">  1        2 0.14982290E+00 0.42939621E+03</pdfrwt>
<pdfrwt beam="2">  1       -2 0.72820140E-02 0.42939621E+03</pdfrwt>
<totfact> 0.29970942E+03</totfact>
</mgrwt>
</event>
<event>
 4    1  0.1728870E-004  0.2549628E+03  0.7818608E-02  0.1110208E+00
          2   -1    0    0  501    0  0.00000000000E+00  0.00000000000E+00  0.21908812520E+02  0.21908812520E+02  0.00000000000E+00 0. -1.
         -2   -1    0    0    0  501 -0.00000000000E+00 -0.00000000000E+00 -0.74177932964E+03  0.74177932964E+03  0.00000000000E+00 0. -1.
         25    1    1    2    0    0  0.19216942692E+02  0.35277626458E+02 -0.40611548911E+03  0.42537464935E+03  0.12000000000E+03 0.  0.
         25    1    1    2    0    0 -0.19216942692E+02 -0.35277626458E+02 -0.31375502801E+03  0.33831349281E+03  0.12000000000E+03 0.  0.
<mgrwt>
<rscale>  0 0.25496278E+03</rscale>
<asrwt>0</asrwt>
<pdfrwt beam="1">  1        2 0.33705867E-02 0.25496278E+03</pdfrwt>
<pdfrwt beam="2">  1       -2 0.11411989E+00 0.25496278E+03</pdfrwt>
<totfact> 0.16696843E+03</totfact>
</mgrwt>
</event>
<event>
 4    1  0.1728870E-004  0.3578299E+03  0.7818608E-02  0.1059446E+00
          2   -1    0    0  501    0  0.00000000000E+00  0.00000000000E+00  0.32681819304E+02  0.32681819304E+02  0.00000000000E+00 0.  1.
         -2   -1    0    0    0  501 -0.00000000000E+00 -0.00000000000E+00 -0.97946059987E+03  0.97946059987E+03  0.00000000000E+00 0.  1.
         25    1    1    2    0    0  0.12973698518E+02  0.10806435505E+02 -0.10107707586E+03  0.15780263358E+03  0.12000000000E+03 0.  0.
         25    1    1    2    0    0 -0.12973698518E+02 -0.10806435505E+02 -0.84570170471E+03  0.85433978559E+03  0.12000000000E+03 0.  0.
<mgrwt>
<rscale>  0 0.35782987E+03</rscale>
<asrwt>0</asrwt>
<pdfrwt beam="1">  1        2 0.50279731E-02 0.35782987E+03</pdfrwt>
<pdfrwt beam="2">  1       -2 0.15068622E+00 0.35782987E+03</pdfrwt>
<totfact> 0.49102293E+02</totfact>
</mgrwt>
</event>
<event>
 4    1  0.1728870E-004  0.3791974E+03  0.7818608E-02  0.1051231E+00
         -2   -1    0    0    0  501 -0.00000000000E+00  0.00000000000E+00  0.10962277911E+03  0.10962277911E+03  0.00000000000E+00 0.  1.
          2   -1    0    0  501    0  0.00000000000E+00 -0.00000000000E+00 -0.32792154038E+03  0.32792154038E+03  0.00000000000E+00 0.  1.
         25    1    1    2    0    0 -0.14574168244E+02  0.55411817422E+02 -0.26509173080E+03  0.29657461393E+03  0.12000000000E+03 0.  0.
         25    1    1    2    0    0  0.14574168244E+02 -0.55411817422E+02  0.46792969520E+02  0.14096970556E+03  0.12000000000E+03 0.  0.
<mgrwt>
<rscale>  0 0.37919742E+03</rscale>
<asrwt>0</asrwt>
<pdfrwt beam="1">  1        2 0.50449467E-01 0.37919742E+03</pdfrwt>
<pdfrwt beam="2">  1       -2 0.16865043E-01 0.37919742E+03</pdfrwt>
<totfact> 0.28057347E+03</totfact>
</mgrwt>
</event>
<event>
 4    1  0.1728870E-004  0.2965358E+03  0.7818608E-02  0.1086985E+00
          2   -1    0    0  501    0  0.00000000000E+00  0.00000000000E+00  0.18128056668E+04  0.18128056668E+04  0.00000000000E+00 0.  1.
         -2   -1    0    0    0  501 -0.00000000000E+00 -0.00000000000E+00 -0.12126713476E+02  0.12126713476E+02  0.00000000000E+00 0.  1.
         25    1    1    2    0    0  0.64071018140E+02  0.51082124928E+02  0.10817462552E+04  0.10914620651E+04  0.12000000000E+03 0.  0.
         25    1    1    2    0    0 -0.64071018140E+02 -0.51082124928E+02  0.71893269811E+03  0.73347031519E+03  0.12000000000E+03 0.  0.
<mgrwt>
<rscale>  0 0.29653583E+03</rscale>
<asrwt>0</asrwt>
<pdfrwt beam="1">  1        2 0.27889296E+00 0.29653583E+03</pdfrwt>
<pdfrwt beam="2">  1       -2 0.18656497E-02 0.29653583E+03</pdfrwt>
<totfact> 0.79888383E+03</totfact>
</mgrwt>
</event>
<event>
 4    1  0.1728870E-004  0.3006490E+03  0.7818608E-02  0.1084917E+00
          1   -1    0    0  501    0  0.00000000000E+00  0.00000000000E+00  0.29966543529E+04  0.29966543529E+04  0.00000000000E+00 0.  1.
         -1   -1    0    0    0  501 -0.00000000000E+00 -0.00000000000E+00 -0.75408926916E+01  0.75408926916E+01  0.00000000000E+00 0.  1.
         25    1    1    2    0    0 -0.55333140254E+02  0.69831769340E+02  0.16554358808E+04  0.16621691213E+04  0.12000000000E+03 0.  0.
         25    1    1    2    0    0  0.55333140254E+02 -0.69831769340E+02  0.13336775794E+04  0.13420261243E+04  0.12000000000E+03 0.  0.
<mgrwt>
<rscale>  0 0.30064896E+03</rscale>
<asrwt>0</asrwt>
<pdfrwt beam="1">  1        1 0.46102280E+00 0.30064896E+03</pdfrwt>
<pdfrwt beam="2">  1       -1 0.11601397E-02 0.30064896E+03</pdfrwt>
<totfact> 0.11002885E+03</totfact>
</mgrwt>
</event>
<event>
 4    1  0.1728870E-004  0.2880915E+03  0.7818608E-02  0.1091350E+00
         -2   -1    0    0    0  501 -0.00000000000E+00  0.00000000000E+00  0.87776491239E+01  0.87776491239E+01  0.00000000000E+00 0. -1.
          2   -1    0    0  501    0  0.00000000000E+00 -0.00000000000E+00 -0.23638651806E+04  0.23638651806E+04  0.00000000000E+00 0. -1.
         25    1    1    2    0    0  0.18889505740E+02 -0.59435520713E+02 -0.15860046259E+04  0.15917600535E+04  0.12000000000E+03 0.  0.
         25    1    1    2    0    0 -0.18889505740E+02  0.59435520713E+02 -0.76908290555E+03  0.78088277619E+03  0.12000000000E+03 0.  0.
<mgrwt>
<rscale>  0 0.28809151E+03</rscale>
<asrwt>0</asrwt>
<pdfrwt beam="1">  1        2 0.36367137E+00 0.28809151E+03</pdfrwt>
<pdfrwt beam="2">  1       -2 0.13504083E-02 0.28809151E+03</pdfrwt>
<totfact> 0.65445897E+03</totfact>
</mgrwt>
</event>
<event>
 4    1  0.1728870E-004  0.3844234E+03  0.7818608E-02  0.1049311E+00
          2   -1    0    0  501    0  0.00000000000E+00  0.00000000000E+00  0.91462695373E+03  0.91462695373E+03  0.00000000000E+00 0.  1.
         -2   -1    0    0    0  501 -0.00000000000E+00 -0.00000000000E+00 -0.40393886411E+02  0.40393886411E+02  0.00000000000E+00 0.  1.
         25    1    1    2    0    0  0.13514120592E+03 -0.60273243434E+02  0.37381196472E+03  0.41956095430E+03  0.12000000000E+03 0.  0.
         25    1    1    2    0    0 -0.13514120592E+03  0.60273243434E+02  0.50042110260E+03  0.53545988583E+03  0.12000000000E+03 0.  0.
<mgrwt>
<rscale>  0 0.38442340E+03</rscale>
<asrwt>0</asrwt>
<pdfrwt beam="1">  1        2 0.14071182E+00 0.38442340E+03</pdfrwt>
<pdfrwt beam="2">  1       -2 0.62144448E-02 0.38442340E+03</pdfrwt>
<totfact> 0.41865099E+03</totfact>
</mgrwt>
</event>
<event>
 4    1  0.1728870E-004  0.3562580E+03  0.7818608E-02  0.1060075E+00
          3   -1    0    0  501    0  0.00000000000E+00  0.00000000000E+00  0.29528495901E+03  0.29528495901E+03  0.00000000000E+00 0.  1.
         -3   -1    0    0    0  501 -0.00000000000E+00 -0.00000000000E+00 -0.10745529781E+03  0.10745529781E+03  0.00000000000E+00 0.  1.
         25    1    1    2    0    0 -0.26441979945E+02  0.73379933244E+02  0.21379910435E+03  0.25728165486E+03  0.12000000000E+03 0.  0.
         25    1    1    2    0    0  0.26441979945E+02 -0.73379933244E+02 -0.25969443153E+02  0.14545860196E+03  0.12000000000E+03 0.  0.
<mgrwt>
<rscale>  0 0.35625796E+03</rscale>
<asrwt>0</asrwt>
<pdfrwt beam="1">  1        3 0.45428455E-01 0.35625796E+03</pdfrwt>
<pdfrwt beam="2">  1       -3 0.16531584E-01 0.35625796E+03</pdfrwt>
<totfact> 0.39356893E+02</totfact>
</mgrwt>
</event>
<event>
 4    1  0.1728870E-004  0.3120728E+03  0.7818608E-02  0.1079357E+00
         -2   -1    0    0    0  501 -0.00000000000E+00  0.00000000000E+00  0.23134050600E+02  0.23134050600E+02  0.00000000000E+00 0.  1.
          2   -1    0    0  501    0  0.00000000000E+00 -0.00000000000E+00 -0.10524468951E+04  0.10524468951E+04  0.00000000000E+00 0.  1.
         25    1    1    2    0    0 -0.49727295873E+02  0.52849429411E+02 -0.27883710142E+03  0.31211535572E+03  0.12000000000E+03 0.  0.
         25    1    1    2    0    0  0.49727295873E+02 -0.52849429411E+02 -0.75047574312E+03  0.76346559002E+03  0.12000000000E+03 0.  0.
<mgrwt>
<rscale>  0 0.31207281E+03</rscale>
<asrwt>0</asrwt>
<pdfrwt beam="1">  1        2 0.16191491E+00 0.31207281E+03</pdfrwt>
<pdfrwt beam="2">  1       -2 0.35590847E-02 0.31207281E+03</pdfrwt>
<totfact> 0.80114454E+03</totfact>
</mgrwt>
</event>
<event>
 4    1  0.1728870E-004  0.2697573E+03  0.7818608E-02  0.1101419E+00
         -2   -1    0    0    0  501 -0.00000000000E+00  0.00000000000E+00  0.12307575218E+02  0.12307575218E+02  0.00000000000E+00 0. -1.
          2   -1    0    0  501    0  0.00000000000E+00 -0.00000000000E+00 -0.14781346485E+04  0.14781346485E+04  0.00000000000E+00 0. -1.
         25    1    1    2    0    0  0.44984162025E+02  0.39205915514E+02 -0.81699252534E+03  0.82791150802E+03  0.12000000000E+03 0.  0.
         25    1    1    2    0    0 -0.44984162025E+02 -0.39205915514E+02 -0.64883454794E+03  0.66253071570E+03  0.12000000000E+03 0.  0.
<mgrwt>
<rscale>  0 0.26975732E+03</rscale>
<asrwt>0</asrwt>
<pdfrwt beam="1">  1        2 0.22740526E+00 0.26975732E+03</pdfrwt>
<pdfrwt beam="2">  1       -2 0.18934737E-02 0.26975732E+03</pdfrwt>
<totfact> 0.11739856E+04</totfact>
</mgrwt>
</event>
<event>
 4    1  0.1728870E-004  0.3302491E+03  0.7818608E-02  0.1071027E+00
         -1   -1    0    0    0  501 -0.00000000000E+00  0.00000000000E+00  0.25803365824E+02  0.25803365824E+02  0.00000000000E+00 0. -1.
          1   -1    0    0  501    0  0.00000000000E+00 -0.00000000000E+00 -0.10566886912E+04  0.10566886912E+04  0.00000000000E+00 0. -1.
         25    1    1    2    0    0  0.93101412073E+02 -0.41502584179E+02 -0.67853730350E+03  0.69656529461E+03  0.12000000000E+03 0.  0.
         25    1    1    2    0    0 -0.93101412073E+02  0.41502584179E+02 -0.35234802190E+03  0.38592676243E+03  0.12000000000E+03 0.  0.
<mgrwt>
<rscale>  0 0.33024915E+03</rscale>
<asrwt>0</asrwt>
<pdfrwt beam="1">  1        1 0.16256747E+00 0.33024915E+03</pdfrwt>
<pdfrwt beam="2">  1       -1 0.39697491E-02 0.33024915E+03</pdfrwt>
<totfact> 0.36183641E+03</totfact>
</mgrwt>
</event>
<event>
 4    1  0.1728870E-004  0.3285120E+03  0.7818608E-02  0.1071797E+00
          1   -1    0    0  501    0  0.00000000000E+00  0.00000000000E+00  0.11495726332E+04  0.11495726332E+04  0.00000000000E+00 0.  1.
         -1   -1    0    0    0  501 -0.00000000000E+00 -0.00000000000E+00 -0.23469621502E+02  0.23469621502E+02  0.00000000000E+00 0.  1.
         25    1    1    2    0    0 -0.12860642534E+02  0.11068211614E+03  0.60879473264E+03  0.63043394060E+03  0.12000000000E+03 0.  0.
         25    1    1    2    0    0  0.12860642534E+02 -0.11068211614E+03  0.51730827907E+03  0.54260831412E+03  0.12000000000E+03 0.  0.
<mgrwt>
<rscale>  0 0.32851201E+03</rscale>
<asrwt>0</asrwt>
<pdfrwt beam="1">  1        1 0.17685728E+00 0.32851201E+03</pdfrwt>
<pdfrwt beam="2">  1       -1 0.36107119E-02 0.32851201E+03</pdfrwt>
<totfact> 0.35693902E+03</totfact>
</mgrwt>
</event>
<event>
 4    1  0.1728870E-004  0.2875073E+03  0.7818608E-02  0.1091658E+00
         -1   -1    0    0    0  501 -0.00000000000E+00  0.00000000000E+00  0.48981321522E+02  0.48981321522E+02  0.00000000000E+00 0. -1.
          1   -1    0    0  501    0  0.00000000000E+00 -0.00000000000E+00 -0.42189786199E+03  0.42189786199E+03  0.00000000000E+00 0. -1.
         25    1    1    2    0    0  0.35974076741E+02  0.61961396740E+02 -0.24155665854E+03  0.27907520164E+03  0.12000000000E+03 0.  0.
         25    1    1    2    0    0 -0.35974076741E+02 -0.61961396740E+02 -0.13135988193E+03  0.19180398187E+03  0.12000000000E+03 0.  0.
<mgrwt>
<rscale>  0 0.28750732E+03</rscale>
<asrwt>0</asrwt>
<pdfrwt beam="1">  1        1 0.64907363E-01 0.28750732E+03</pdfrwt>
<pdfrwt beam="2">  1       -1 0.75355880E-02 0.28750732E+03</pdfrwt>
<totfact> 0.53170967E+03</totfact>
</mgrwt>
</event>
<event>
 4    1  0.1728870E-004  0.3445662E+03  0.7818608E-02  0.1064868E+00
         -1   -1    0    0    0  501 -0.00000000000E+00  0.00000000000E+00  0.20850579559E+02  0.20850579559E+02  0.00000000000E+00 0. -1.
          1   -1    0    0  501    0  0.00000000000E+00 -0.00000000000E+00 -0.14235318713E+04  0.14235318713E+04  0.00000000000E+00 0. -1.
         25    1    1    2    0    0  0.24586614738E+02 -0.48367255192E+02 -0.11669528836E+04  0.11743606454E+04  0.12000000000E+03 0.  0.
         25    1    1    2    0    0 -0.24586614738E+02  0.48367255192E+02 -0.23572840812E+03  0.27002180541E+03  0.12000000000E+03 0.  0.
<mgrwt>
<rscale>  0 0.34456619E+03</rscale>
<asrwt>0</asrwt>
<pdfrwt beam="1">  1        1 0.21900492E+00 0.34456619E+03</pdfrwt>
<pdfrwt beam="2">  1       -1 0.32077813E-02 0.34456619E+03</pdfrwt>
<totfact> 0.27513637E+03</totfact>
</mgrwt>
</event>
<event>
 4    1  0.1728870E-004  0.2532922E+03  0.7818608E-02  0.1111242E+00
          3   -1    0    0  501    0  0.00000000000E+00  0.00000000000E+00  0.38580660360E+03  0.38580660360E+03  0.00000000000E+00 0.  1.
         -3   -1    0    0    0  501 -0.00000000000E+00 -0.00000000000E+00 -0.41573252070E+02  0.41573252070E+02  0.00000000000E+00 0.  1.
         25    1    1    2    0    0 -0.42260491813E+00 -0.13491171985E+02  0.23652302566E+03  0.26556605954E+03  0.12000000000E+03 0.  0.
         25    1    1    2    0    0  0.42260491813E+00  0.13491171985E+02  0.10771032587E+03  0.16181379612E+03  0.12000000000E+03 0.  0.
<mgrwt>
<rscale>  0 0.25329220E+03</rscale>
<asrwt>0</asrwt>
<pdfrwt beam="1">  1        3 0.59354860E-01 0.25329220E+03</pdfrwt>
<pdfrwt beam="2">  1       -3 0.63958852E-02 0.25329220E+03</pdfrwt>
<totfact> 0.10900597E+03</totfact>
</mgrwt>
</event>
<event>
 4    1  0.1728870E-004  0.2530564E+03  0.7818608E-02  0.1111388E+00
         -2   -1    0    0    0  501 -0.00000000000E+00  0.00000000000E+00  0.54428989242E+02  0.54428989242E+02  0.00000000000E+00 0.  1.
          2   -1    0    0  501    0  0.00000000000E+00 -0.00000000000E+00 -0.29413335786E+03  0.29413335786E+03  0.00000000000E+00 0.  1.
         25    1    1    2    0    0 -0.37101133225E+02  0.14410609835E+02 -0.11293467760E+03  0.16952404303E+03  0.12000000000E+03 0.  0.
         25    1    1    2    0    0  0.37101133225E+02 -0.14410609835E+02 -0.12676969102E+03  0.17903830407E+03  0.12000000000E+03 0.  0.
<mgrwt>
<rscale>  0 0.25305637E+03</rscale>
<asrwt>0</asrwt>
<pdfrwt beam="1">  1        2 0.45251285E-01 0.25305637E+03</pdfrwt>
<pdfrwt beam="2">  1       -2 0.83736909E-02 0.25305637E+03</pdfrwt>
<totfact> 0.97015757E+03</totfact>
</mgrwt>
</event>
<event>
 4    1  0.1728870E-004  0.2669231E+03  0.7818608E-02  0.1103054E+00
          2   -1    0    0  501    0  0.00000000000E+00  0.00000000000E+00  0.13031850012E+04  0.13031850012E+04  0.00000000000E+00 0.  1.
         -2   -1    0    0    0  501 -0.00000000000E+00 -0.00000000000E+00 -0.13668043185E+02  0.13668043185E+02  0.00000000000E+00 0.  1.
         25    1    1    2    0    0 -0.50410288246E+02  0.16623168369E+02  0.76504394442E+03  0.77621502419E+03  0.12000000000E+03 0.  0.
         25    1    1    2    0    0  0.50410288246E+02 -0.16623168369E+02  0.52447301355E+03  0.54063802015E+03  0.12000000000E+03 0.  0.
<mgrwt>
<rscale>  0 0.26692313E+03</rscale>
<asrwt>0</asrwt>
<pdfrwt beam="1">  1        2 0.20048990E+00 0.26692313E+03</pdfrwt>
<pdfrwt beam="2">  1       -2 0.21027769E-02 0.26692313E+03</pdfrwt>
<totfact> 0.12523783E+04</totfact>
</mgrwt>
</event>
<event>
 4    1  0.1728870E-004  0.3122283E+03  0.7818608E-02  0.1079283E+00
         -2   -1    0    0    0  501 -0.00000000000E+00  0.00000000000E+00  0.25501766473E+02  0.25501766473E+02  0.00000000000E+00 0. -1.
          2   -1    0    0  501    0  0.00000000000E+00 -0.00000000000E+00 -0.95568387612E+03  0.95568387612E+03  0.00000000000E+00 0. -1.
         25    1    1    2    0    0  0.43754661798E+02 -0.47922016590E+02 -0.70360522154E+03  0.71670865621E+03  0.12000000000E+03 0.  0.
         25    1    1    2    0    0 -0.43754661798E+02  0.47922016590E+02 -0.22657688810E+03  0.26447698638E+03  0.12000000000E+03 0.  0.
<mgrwt>
<rscale>  0 0.31222829E+03</rscale>
<asrwt>0</asrwt>
<pdfrwt beam="1">  1        2 0.14702826E+00 0.31222829E+03</pdfrwt>
<pdfrwt beam="2">  1       -2 0.39233494E-02 0.31222829E+03</pdfrwt>
<totfact> 0.79345069E+03</totfact>
</mgrwt>
</event>
<event>
 4    1  0.1728870E-004  0.2585872E+03  0.7818608E-02  0.1107995E+00
         -3   -1    0    0    0  501 -0.00000000000E+00  0.00000000000E+00  0.61697313458E+03  0.61697313458E+03  0.00000000000E+00 0. -1.
          3   -1    0    0  501    0  0.00000000000E+00 -0.00000000000E+00 -0.27094909057E+02  0.27094909057E+02  0.00000000000E+00 0. -1.
         25    1    1    2    0    0 -0.30468109291E+01  0.36794854428E+02  0.37185704863E+03  0.39248032942E+03  0.12000000000E+03 0.  0.
         25    1    1    2    0    0  0.30468109291E+01 -0.36794854428E+02  0.21802117690E+03  0.25158771422E+03  0.12000000000E+03 0.  0.
<mgrwt>
<rscale>  0 0.25858717E+03</rscale>
<asrwt>0</asrwt>
<pdfrwt beam="1">  1        3 0.41684480E-02 0.25858717E+03</pdfrwt>
<pdfrwt beam="2">  1       -3 0.94918933E-01 0.25858717E+03</pdfrwt>
<totfact> 0.78228776E+02</totfact>
</mgrwt>
</event>
<event>
 4    1  0.1728870E-004  0.2961803E+03  0.7818608E-02  0.1087166E+00
         -2   -1    0    0    0  501 -0.00000000000E+00  0.00000000000E+00  0.15032579956E+02  0.15032579956E+02  0.00000000000E+00 0.  1.
          2   -1    0    0  501    0  0.00000000000E+00 -0.00000000000E+00 -0.14588777659E+04  0.14588777659E+04  0.00000000000E+00 0.  1.
         25    1    1    2    0    0 -0.17984298392E+02 -0.81409594570E+02 -0.60210203562E+03  0.61957874267E+03  0.12000000000E+03 0.  0.
         25    1    1    2    0    0  0.17984298392E+02  0.81409594570E+02 -0.84174315031E+03  0.85433160317E+03  0.12000000000E+03 0.  0.
<mgrwt>
<rscale>  0 0.29618033E+03</rscale>
<asrwt>0</asrwt>
<pdfrwt beam="1">  1        2 0.22444278E+00 0.29618033E+03</pdfrwt>
<pdfrwt beam="2">  1       -2 0.23127041E-02 0.29618033E+03</pdfrwt>
<totfact> 0.89694179E+03</totfact>
</mgrwt>
</event>
<event>
 4    1  0.1728870E-004  0.2793631E+03  0.7818608E-02  0.1096037E+00
          2   -1    0    0  501    0  0.00000000000E+00  0.00000000000E+00  0.62903666957E+02  0.62903666957E+02  0.00000000000E+00 0.  1.
         -2   -1    0    0    0  501 -0.00000000000E+00 -0.00000000000E+00 -0.31017169254E+03  0.31017169254E+03  0.00000000000E+00 0.  1.
         25    1    1    2    0    0 -0.44302327523E+01 -0.46934169422E+02 -0.51860663069E+02  0.13896751993E+03  0.12000000000E+03 0.  0.
         25    1    1    2    0    0  0.44302327523E+01  0.46934169422E+02 -0.19540736251E+03  0.23410783956E+03  0.12000000000E+03 0.  0.
<mgrwt>
<rscale>  0 0.27936311E+03</rscale>
<asrwt>0</asrwt>
<pdfrwt beam="1">  1        2 0.96774872E-02 0.27936311E+03</pdfrwt>
<pdfrwt beam="2">  1       -2 0.47718722E-01 0.27936311E+03</pdfrwt>
<totfact> 0.28077052E+03</totfact>
</mgrwt>
</event>
<event>
 4    1  0.1728870E-004  0.2822609E+03  0.7818608E-02  0.1094460E+00
         -4   -1    0    0    0  501 -0.00000000000E+00  0.00000000000E+00  0.16430754525E+02  0.16430754525E+02  0.00000000000E+00 0.  1.
          4   -1    0    0  501    0  0.00000000000E+00 -0.00000000000E+00 -0.12122265564E+04  0.12122265564E+04  0.00000000000E+00 0.  1.
         25    1    1    2    0    0 -0.12825643943E+02 -0.72609487908E+02 -0.63711331129E+03  0.65249521554E+03  0.12000000000E+03 0.  0.
         25    1    1    2    0    0  0.12825643943E+02  0.72609487908E+02 -0.55868249062E+03  0.57616209542E+03  0.12000000000E+03 0.  0.
<mgrwt>
<rscale>  0 0.28226085E+03</rscale>
<asrwt>0</asrwt>
<pdfrwt beam="1">  1        4 0.18649639E+00 0.28226085E+03</pdfrwt>
<pdfrwt beam="2">  1       -4 0.25278085E-02 0.28226085E+03</pdfrwt>
<totfact> 0.23279063E+02</totfact>
</mgrwt>
</event>
<event>
 4    1  0.1728870E-004  0.2579945E+03  0.7818608E-02  0.1108354E+00
         -4   -1    0    0    0  501 -0.00000000000E+00  0.00000000000E+00  0.30494055987E+03  0.30494055987E+03  0.00000000000E+00 0.  1.
          4   -1    0    0  501    0  0.00000000000E+00 -0.00000000000E+00 -0.54568974223E+02  0.54568974223E+02  0.00000000000E+00 0.  1.
         25    1    1    2    0    0 -0.35341115150E+02 -0.15691358614E+02  0.16322237564E+03  0.20624441099E+03  0.12000000000E+03 0.  0.
         25    1    1    2    0    0  0.35341115150E+02  0.15691358614E+02  0.87149210011E+02  0.15326512311E+03  0.12000000000E+03 0.  0.
<mgrwt>
<rscale>  0 0.25799452E+03</rscale>
<asrwt>0</asrwt>
<pdfrwt beam="1">  1        4 0.83952270E-02 0.25799452E+03</pdfrwt>
<pdfrwt beam="2">  1       -4 0.46913931E-01 0.25799452E+03</pdfrwt>
<totfact> 0.83642541E+02</totfact>
</mgrwt>
</event>
<event>
 4    1  0.1728870E-004  0.4267941E+03  0.7818608E-02  0.1034877E+00
         -2   -1    0    0    0  501 -0.00000000000E+00  0.00000000000E+00  0.15937997688E+03  0.15937997688E+03  0.00000000000E+00 0.  1.
          2   -1    0    0  501    0  0.00000000000E+00 -0.00000000000E+00 -0.28572160024E+03  0.28572160024E+03  0.00000000000E+00 0.  1.
         25    1    1    2    0    0  0.75335443448E+00 -0.17594669944E+03 -0.49159737001E+02  0.21857375947E+03  0.12000000000E+03 0.  0.
         25    1    1    2    0    0 -0.75335443448E+00  0.17594669944E+03 -0.77181886359E+02  0.22652781765E+03  0.12000000000E+03 0.  0.
<mgrwt>
<rscale>  0 0.42679411E+03</rscale>
<asrwt>0</asrwt>
<pdfrwt beam="1">  1        2 0.43957169E-01 0.42679411E+03</pdfrwt>
<pdfrwt beam="2">  1       -2 0.24519997E-01 0.42679411E+03</pdfrwt>
<totfact> 0.17084122E+03</totfact>
</mgrwt>
</event>
<event>
 4    1  0.1728870E-004  0.2740996E+03  0.7818608E-02  0.1098956E+00
         -1   -1    0    0    0  501 -0.00000000000E+00  0.00000000000E+00  0.87187346759E+02  0.87187346759E+02  0.00000000000E+00 0. -1.
          1   -1    0    0  501    0  0.00000000000E+00 -0.00000000000E+00 -0.21542858120E+03  0.21542858120E+03  0.00000000000E+00 0. -1.
         25    1    1    2    0    0 -0.28700401579E+02 -0.36107600786E+02 -0.11691387822E+02  0.12908973791E+03  0.12000000000E+03 0.  0.
         25    1    1    2    0    0  0.28700401579E+02  0.36107600786E+02 -0.11654984662E+03  0.17352619005E+03  0.12000000000E+03 0.  0.
<mgrwt>
<rscale>  0 0.27409959E+03</rscale>
<asrwt>0</asrwt>
<pdfrwt beam="1">  1        1 0.33142859E-01 0.27409959E+03</pdfrwt>
<pdfrwt beam="2">  1       -1 0.13413438E-01 0.27409959E+03</pdfrwt>
<totfact> 0.50888706E+03</totfact>
</mgrwt>
</event>
<event>
 4    1  0.1728870E-004  0.2680874E+03  0.7818608E-02  0.1102379E+00
          2   -1    0    0  501    0  0.00000000000E+00  0.00000000000E+00  0.14676674447E+03  0.14676674447E+03  0.00000000000E+00 0.  1.
         -2   -1    0    0    0  501 -0.00000000000E+00 -0.00000000000E+00 -0.12242357189E+03  0.12242357189E+03  0.00000000000E+00 0.  1.
         25    1    1    2    0    0  0.29796155862E+01  0.32390972147E+02 -0.38130983661E+02  0.13004624216E+03  0.12000000000E+03 0.  0.
         25    1    1    2    0    0 -0.29796155862E+01 -0.32390972147E+02  0.62474156240E+02  0.13914407420E+03  0.12000000000E+03 0.  0.
<mgrwt>
<rscale>  0 0.26808737E+03</rscale>
<asrwt>0</asrwt>
<pdfrwt beam="1">  1        2 0.22579499E-01 0.26808737E+03</pdfrwt>
<pdfrwt beam="2">  1       -2 0.18834396E-01 0.26808737E+03</pdfrwt>
<totfact> 0.55800737E+03</totfact>
</mgrwt>
</event>
<event>
 4    1  0.1728870E-004  0.2837189E+03  0.7818608E-02  0.1093675E+00
          2   -1    0    0  501    0  0.00000000000E+00  0.00000000000E+00  0.10886750413E+04  0.10886750413E+04  0.00000000000E+00 0. -1.
         -2   -1    0    0    0  501 -0.00000000000E+00 -0.00000000000E+00 -0.18484953289E+02  0.18484953289E+02  0.00000000000E+00 0. -1.
         25    1    1    2    0    0 -0.59326319474E+01 -0.69635282404E+02  0.64818394803E+03  0.66289267545E+03  0.12000000000E+03 0.  0.
         25    1    1    2    0    0  0.59326319474E+01  0.69635282404E+02  0.42200614002E+03  0.44426731918E+03  0.12000000000E+03 0.  0.
<mgrwt>
<rscale>  0 0.28371893E+03</rscale>
<asrwt>0</asrwt>
<pdfrwt beam="1">  1        2 0.16748842E+00 0.28371893E+03</pdfrwt>
<pdfrwt beam="2">  1       -2 0.28438398E-02 0.28371893E+03</pdfrwt>
<totfact> 0.10635789E+04</totfact>
</mgrwt>
</event>
<event>
 4    1  0.1728870E-004  0.2906955E+03  0.7818608E-02  0.1089987E+00
         -2   -1    0    0    0  501 -0.00000000000E+00  0.00000000000E+00  0.10066333165E+02  0.10066333165E+02  0.00000000000E+00 0. -1.
          2   -1    0    0  501    0  0.00000000000E+00 -0.00000000000E+00 -0.20986751852E+04  0.20986751852E+04  0.00000000000E+00 0. -1.
         25    1    1    2    0    0 -0.80984754598E+02  0.74754434122E+01 -0.96768805046E+03  0.97848585873E+03  0.12000000000E+03 0.  0.
         25    1    1    2    0    0  0.80984754598E+02 -0.74754434122E+01 -0.11209208016E+04  0.11302556596E+04  0.12000000000E+03 0.  0.
<mgrwt>
<rscale>  0 0.29069547E+03</rscale>
<asrwt>0</asrwt>
<pdfrwt beam="1">  1        2 0.32287306E+00 0.29069547E+03</pdfrwt>
<pdfrwt beam="2">  1       -2 0.15486669E-02 0.29069547E+03</pdfrwt>
<totfact> 0.74222869E+03</totfact>
</mgrwt>
</event>
<event>
 4    1  0.1728870E-004  0.2804072E+03  0.7818608E-02  0.1095467E+00
         -2   -1    0    0    0  501 -0.00000000000E+00  0.00000000000E+00  0.50934237318E+02  0.50934237318E+02  0.00000000000E+00 0. -1.
          2   -1    0    0  501    0  0.00000000000E+00 -0.00000000000E+00 -0.38592986497E+03  0.38592986497E+03  0.00000000000E+00 0. -1.
         25    1    1    2    0    0  0.71170704246E+02  0.13789599750E+02 -0.16551416085E+03  0.21691094865E+03  0.12000000000E+03 0.  0.
         25    1    1    2    0    0 -0.71170704246E+02 -0.13789599750E+02 -0.16948146680E+03  0.21995315364E+03  0.12000000000E+03 0.  0.
<mgrwt>
<rscale>  0 0.28040716E+03</rscale>
<asrwt>0</asrwt>
<pdfrwt beam="1">  1        2 0.59373827E-01 0.28040716E+03</pdfrwt>
<pdfrwt beam="2">  1       -2 0.78360363E-02 0.28040716E+03</pdfrwt>
<totfact> 0.80649257E+03</totfact>
</mgrwt>
</event>
<event>
 4    1  0.1728870E-004  0.3254030E+03  0.7818608E-02  0.1073189E+00
         -2   -1    0    0    0  501 -0.00000000000E+00  0.00000000000E+00  0.56538307156E+02  0.56538307156E+02  0.00000000000E+00 0.  1.
          2   -1    0    0  501    0  0.00000000000E+00 -0.00000000000E+00 -0.46820955243E+03  0.46820955243E+03  0.00000000000E+00 0.  1.
         25    1    1    2    0    0 -0.25320008670E+02  0.66010748145E+02 -0.34146031461E+03  0.36877319339E+03  0.12000000000E+03 0.  0.
         25    1    1    2    0    0  0.25320008670E+02 -0.66010748145E+02 -0.70210930660E+02  0.15597466619E+03  0.12000000000E+03 0.  0.
<mgrwt>
<rscale>  0 0.32540298E+03</rscale>
<asrwt>0</asrwt>
<pdfrwt beam="1">  1        2 0.72032237E-01 0.32540298E+03</pdfrwt>
<pdfrwt beam="2">  1       -2 0.86982013E-02 0.32540298E+03</pdfrwt>
<totfact> 0.55623050E+03</totfact>
</mgrwt>
</event>
<event>
 4    1  0.1728870E-004  0.3099166E+03  0.7818608E-02  0.1080386E+00
          1   -1    0    0  501    0  0.00000000000E+00  0.00000000000E+00  0.76233519203E+02  0.76233519203E+02  0.00000000000E+00 0.  1.
         -1   -1    0    0    0  501 -0.00000000000E+00 -0.00000000000E+00 -0.31498044739E+03  0.31498044739E+03  0.00000000000E+00 0.  1.
         25    1    1    2    0    0 -0.90078433713E+02  0.71168011500E+01 -0.16739633173E+03  0.22491399457E+03  0.12000000000E+03 0.  0.
         25    1    1    2    0    0  0.90078433713E+02 -0.71168011500E+01 -0.71350596460E+02  0.16629997202E+03  0.12000000000E+03 0.  0.
<mgrwt>
<rscale>  0 0.30991656E+03</rscale>
<asrwt>0</asrwt>
<pdfrwt beam="1">  1        1 0.11728234E-01 0.30991656E+03</pdfrwt>
<pdfrwt beam="2">  1       -1 0.48458530E-01 0.30991656E+03</pdfrwt>
<totfact> 0.22545937E+03</totfact>
</mgrwt>
</event>
<event>
 4    1  0.1728870E-004  0.3528977E+03  0.7818608E-02  0.1061432E+00
          2   -1    0    0  501    0  0.00000000000E+00  0.00000000000E+00  0.16078628348E+04  0.16078628348E+04  0.00000000000E+00 0. -1.
         -2   -1    0    0    0  501 -0.00000000000E+00 -0.00000000000E+00 -0.19363718734E+02  0.19363718734E+02  0.00000000000E+00 0. -1.
         25    1    1    2    0    0 -0.96748549812E+02 -0.81014712527E+02  0.66297339384E+03  0.68546144055E+03  0.12000000000E+03 0.  0.
         25    1    1    2    0    0  0.96748549812E+02  0.81014712527E+02  0.92552572220E+03  0.94176511296E+03  0.12000000000E+03 0.  0.
<mgrwt>
<rscale>  0 0.35289774E+03</rscale>
<asrwt>0</asrwt>
<pdfrwt beam="1">  1        2 0.24736341E+00 0.35289774E+03</pdfrwt>
<pdfrwt beam="2">  1       -2 0.29790349E-02 0.35289774E+03</pdfrwt>
<totfact> 0.51245618E+03</totfact>
</mgrwt>
</event>
<event>
 4    1  0.1728870E-004  0.2427518E+03  0.7818608E-02  0.1117973E+00
          3   -1    0    0  501    0  0.00000000000E+00  0.00000000000E+00  0.46392158819E+03  0.46392158819E+03  0.00000000000E+00 0.  1.
         -3   -1    0    0    0  501 -0.00000000000E+00 -0.00000000000E+00 -0.31755609552E+02  0.31755609552E+02  0.00000000000E+00 0.  1.
         25    1    1    2    0    0  0.14027528262E+02 -0.10401899920E+01  0.23974265331E+03  0.26846674535E+03  0.12000000000E+03 0.  0.
         25    1    1    2    0    0 -0.14027528262E+02  0.10401899920E+01  0.19242332533E+03  0.22721045239E+03  0.12000000000E+03 0.  0.
<mgrwt>
<rscale>  0 0.24275183E+03</rscale>
<asrwt>0</asrwt>
<pdfrwt beam="1">  1        3 0.71372547E-01 0.24275183E+03</pdfrwt>
<pdfrwt beam="2">  1       -3 0.48854787E-02 0.24275183E+03</pdfrwt>
<totfact> 0.11334300E+03</totfact>
</mgrwt>
</event>
<event>
 4    1  0.1728870E-004  0.2489350E+03  0.7818608E-02  0.1113980E+00
          2   -1    0    0  501    0  0.00000000000E+00  0.00000000000E+00  0.26474098419E+03  0.26474098419E+03  0.00000000000E+00 0.  1.
         -2   -1    0    0    0  501 -0.00000000000E+00 -0.00000000000E+00 -0.58518194880E+02  0.58518194880E+02  0.00000000000E+00 0.  1.
         25    1    1    2    0    0  0.21095200367E+02 -0.25420693612E+02  0.10184879944E+03  0.16082411849E+03  0.12000000000E+03 0.  0.
         25    1    1    2    0    0 -0.21095200367E+02  0.25420693612E+02  0.10437398987E+03  0.16243506057E+03  0.12000000000E+03 0.  0.
<mgrwt>
<rscale>  0 0.24893505E+03</rscale>
<asrwt>0</asrwt>
<pdfrwt beam="1">  1        2 0.40729381E-01 0.24893505E+03</pdfrwt>
<pdfrwt beam="2">  1       -2 0.90027994E-02 0.24893505E+03</pdfrwt>
<totfact> 0.96882383E+03</totfact>
</mgrwt>
</event>
<event>
 4    1  0.1728870E-004  0.2651210E+03  0.7818608E-02  0.1104105E+00
          1   -1    0    0  501    0  0.00000000000E+00  0.00000000000E+00  0.43686689329E+02  0.43686689329E+02  0.00000000000E+00 0.  1.
         -1   -1    0    0    0  501 -0.00000000000E+00 -0.00000000000E+00 -0.40223440961E+03  0.40223440961E+03  0.00000000000E+00 0.  1.
         25    1    1    2    0    0 -0.36030916353E+02  0.33415046369E+02 -0.22556569888E+03  0.26018200700E+03  0.12000000000E+03 0.  0.
         25    1    1    2    0    0  0.36030916353E+02 -0.33415046369E+02 -0.13298202140E+03  0.18573909194E+03  0.12000000000E+03 0.  0.
<mgrwt>
<rscale>  0 0.26512103E+03</rscale>
<asrwt>0</asrwt>
<pdfrwt beam="1">  1        1 0.67210289E-02 0.26512103E+03</pdfrwt>
<pdfrwt beam="2">  1       -1 0.61882219E-01 0.26512103E+03</pdfrwt>
<totfact> 0.30095167E+03</totfact>
</mgrwt>
</event>
<event>
 4    1  0.1728870E-004  0.2475270E+03  0.7818608E-02  0.1114878E+00
         -1   -1    0    0    0  501 -0.00000000000E+00  0.00000000000E+00  0.74850698265E+02  0.74850698265E+02  0.00000000000E+00 0. -1.
          1   -1    0    0  501    0  0.00000000000E+00 -0.00000000000E+00 -0.20463937968E+03  0.20463937968E+03  0.00000000000E+00 0. -1.
         25    1    1    2    0    0  0.17255188258E+02 -0.14703902375E+02 -0.87574232762E+02  0.15027705251E+03  0.12000000000E+03 0.  0.
         25    1    1    2    0    0 -0.17255188258E+02  0.14703902375E+02 -0.42214448649E+02  0.12921302543E+03  0.12000000000E+03 0.  0.
<mgrwt>
<rscale>  0 0.24752697E+03</rscale>
<asrwt>0</asrwt>
<pdfrwt beam="1">  1        1 0.31482981E-01 0.24752697E+03</pdfrwt>
<pdfrwt beam="2">  1       -1 0.11515492E-01 0.24752697E+03</pdfrwt>
<totfact> 0.68657467E+03</totfact>
</mgrwt>
</event>
<event>
 4    1  0.1728870E-004  0.2427892E+03  0.7818608E-02  0.1117949E+00
         -1   -1    0    0    0  501 -0.00000000000E+00  0.00000000000E+00  0.13515059301E+03  0.13515059301E+03  0.00000000000E+00 0.  1.
          1   -1    0    0  501    0  0.00000000000E+00 -0.00000000000E+00 -0.10903873653E+03  0.10903873653E+03  0.00000000000E+00 0.  1.
         25    1    1    2    0    0  0.43378929581E+01 -0.10685433090E+02  0.27408968047E+02  0.12362947596E+03  0.12000000000E+03 0.  0.
         25    1    1    2    0    0 -0.43378929581E+01  0.10685433090E+02 -0.12971115670E+01  0.12055985358E+03  0.12000000000E+03 0.  0.
<mgrwt>
<rscale>  0 0.24278921E+03</rscale>
<asrwt>0</asrwt>
<pdfrwt beam="1">  1        1 0.16775190E-01 0.24278921E+03</pdfrwt>
<pdfrwt beam="2">  1       -1 0.20792399E-01 0.24278921E+03</pdfrwt>
<totfact> 0.59930530E+03</totfact>
</mgrwt>
</event>
<event>
 4    1  0.1728870E-004  0.2500317E+03  0.7818608E-02  0.1113285E+00
          2   -1    0    0  501    0  0.00000000000E+00  0.00000000000E+00  0.25161990604E+04  0.25161990604E+04  0.00000000000E+00 0.  1.
         -2   -1    0    0    0  501 -0.00000000000E+00 -0.00000000000E+00 -0.62113372825E+01  0.62113372825E+01  0.00000000000E+00 0.  1.
         25    1    1    2    0    0 -0.11640044786E+02  0.30561952096E+02  0.13823781609E+04  0.13879621404E+04  0.12000000000E+03 0.  0.
         25    1    1    2    0    0  0.11640044786E+02 -0.30561952096E+02  0.11276095622E+04  0.11344482572E+04  0.12000000000E+03 0.  0.
<mgrwt>
<rscale>  0 0.25003169E+03</rscale>
<asrwt>0</asrwt>
<pdfrwt beam="1">  1        2 0.38710674E+00 0.25003169E+03</pdfrwt>
<pdfrwt beam="2">  1       -2 0.95559236E-03 0.25003169E+03</pdfrwt>
<totfact> 0.89451435E+03</totfact>
</mgrwt>
</event>
<event>
 4    1  0.1728870E-004  0.2658488E+03  0.7818608E-02  0.1103679E+00
         -2   -1    0    0    0  501 -0.00000000000E+00  0.00000000000E+00  0.25192775867E+02  0.25192775867E+02  0.00000000000E+00 0.  1.
          2   -1    0    0  501    0  0.00000000000E+00 -0.00000000000E+00 -0.70134785746E+03  0.70134785746E+03  0.00000000000E+00 0.  1.
         25    1    1    2    0    0  0.40516197435E+02 -0.35171027082E+02 -0.39207141058E+03  0.41351971464E+03  0.12000000000E+03 0.  0.
         25    1    1    2    0    0 -0.40516197435E+02  0.35171027082E+02 -0.28408367101E+03  0.31302091869E+03  0.12000000000E+03 0.  0.
<mgrwt>
<rscale>  0 0.26584882E+03</rscale>
<asrwt>0</asrwt>
<pdfrwt beam="1">  1        2 0.10789966E+00 0.26584882E+03</pdfrwt>
<pdfrwt beam="2">  1       -2 0.38758122E-02 0.26584882E+03</pdfrwt>
<totfact> 0.11991126E+04</totfact>
</mgrwt>
</event>
<event>
 4    1  0.1728870E-004  0.2466385E+03  0.7818608E-02  0.1115448E+00
         -1   -1    0    0    0  501 -0.00000000000E+00  0.00000000000E+00  0.34937688901E+02  0.34937688901E+02  0.00000000000E+00 0.  1.
          1   -1    0    0  501    0  0.00000000000E+00 -0.00000000000E+00 -0.43527882606E+03  0.43527882606E+03  0.00000000000E+00 0.  1.
         25    1    1    2    0    0 -0.10512321135E+02 -0.24725971092E+02 -0.18251574518E+03  0.22007698603E+03  0.12000000000E+03 0.  0.
         25    1    1    2    0    0  0.10512321135E+02  0.24725971092E+02 -0.21782539198E+03  0.25013952893E+03  0.12000000000E+03 0.  0.
<mgrwt>
<rscale>  0 0.24663849E+03</rscale>
<asrwt>0</asrwt>
<pdfrwt beam="1">  1        1 0.66965968E-01 0.24663849E+03</pdfrwt>
<pdfrwt beam="2">  1       -1 0.53750295E-02 0.24663849E+03</pdfrwt>
<totfact> 0.84651397E+03</totfact>
</mgrwt>
</event>
<event>
 4    1  0.1728870E-004  0.3199592E+03  0.7818608E-02  0.1075668E+00
         -2   -1    0    0    0  501 -0.00000000000E+00  0.00000000000E+00  0.11878002349E+03  0.11878002349E+03  0.00000000000E+00 0. -1.
          2   -1    0    0  501    0  0.00000000000E+00 -0.00000000000E+00 -0.21546945985E+03  0.21546945985E+03  0.00000000000E+00 0. -1.
         25    1    1    2    0    0  0.16784717393E+01  0.99331247500E+02 -0.86356003141E+02  0.17812038984E+03  0.12000000000E+03 0.  0.
         25    1    1    2    0    0 -0.16784717393E+01 -0.99331247500E+02 -0.10333433216E+02  0.15612909351E+03  0.12000000000E+03 0.  0.
<mgrwt>
<rscale>  0 0.31995917E+03</rscale>
<asrwt>0</asrwt>
<pdfrwt beam="1">  1        2 0.33149147E-01 0.31995917E+03</pdfrwt>
<pdfrwt beam="2">  1       -2 0.18273850E-01 0.31995917E+03</pdfrwt>
<totfact> 0.38556321E+03</totfact>
</mgrwt>
</event>
<event>
 4    1  0.1728870E-004  0.3131759E+03  0.7818608E-02  0.1078834E+00
          1   -1    0    0  501    0  0.00000000000E+00  0.00000000000E+00  0.26515467675E+02  0.26515467675E+02  0.00000000000E+00 0.  1.
         -1   -1    0    0    0  501 -0.00000000000E+00 -0.00000000000E+00 -0.92473525248E+03  0.92473525248E+03  0.00000000000E+00 0.  1.
         25    1    1    2    0    0 -0.32067239378E+02  0.91464817048E+02 -0.53093288620E+03  0.55288683313E+03  0.12000000000E+03 0.  0.
         25    1    1    2    0    0  0.32067239378E+02 -0.91464817048E+02 -0.36728689861E+03  0.39836388703E+03  0.12000000000E+03 0.  0.
<mgrwt>
<rscale>  0 0.31317591E+03</rscale>
<asrwt>0</asrwt>
<pdfrwt beam="1">  1        1 0.40793035E-02 0.31317591E+03</pdfrwt>
<pdfrwt beam="2">  1       -1 0.14226694E+00 0.31317591E+03</pdfrwt>
<totfact> 0.96151315E+02</totfact>
</mgrwt>
</event>
<event>
 4    1  0.1728870E-004  0.4615468E+03  0.7818608E-02  0.1024334E+00
          3   -1    0    0  501    0  0.00000000000E+00  0.00000000000E+00  0.90853289708E+03  0.90853289708E+03  0.00000000000E+00 0.  1.
         -3   -1    0    0    0  501 -0.00000000000E+00 -0.00000000000E+00 -0.58617969707E+02  0.58617969707E+02  0.00000000000E+00 0.  1.
         25    1    1    2    0    0  0.15631092403E+03  0.12005799462E+03  0.41855798268E+03  0.47795168365E+03  0.12000000000E+03 0.  0.
         25    1    1    2    0    0 -0.15631092403E+03 -0.12005799462E+03  0.43135694470E+03  0.48919918314E+03  0.12000000000E+03 0.  0.
<mgrwt>
<rscale>  0 0.46154676E+03</rscale>
<asrwt>0</asrwt>
<pdfrwt beam="1">  1        3 0.13977428E+00 0.46154676E+03</pdfrwt>
<pdfrwt beam="2">  1       -3 0.90181498E-02 0.46154676E+03</pdfrwt>
<totfact> 0.92884976E+01</totfact>
</mgrwt>
</event>
<event>
 4    1  0.1728870E-004  0.3272803E+03  0.7818608E-02  0.1072347E+00
         -2   -1    0    0    0  501 -0.00000000000E+00  0.00000000000E+00  0.24380246335E+03  0.24380246335E+03  0.00000000000E+00 0. -1.
          2   -1    0    0  501    0  0.00000000000E+00 -0.00000000000E+00 -0.10983525290E+03  0.10983525290E+03  0.00000000000E+00 0. -1.
         25    1    1    2    0    0 -0.54971111455E+02 -0.71178273109E+02  0.13775602491E+03  0.20362930058E+03  0.12000000000E+03 0.  0.
         25    1    1    2    0    0  0.54971111455E+02  0.71178273109E+02 -0.37888144556E+01  0.15000841567E+03  0.12000000000E+03 0.  0.
<mgrwt>
<rscale>  0 0.32728034E+03</rscale>
<asrwt>0</asrwt>
<pdfrwt beam="1">  1        2 0.16897731E-01 0.32728034E+03</pdfrwt>
<pdfrwt beam="2">  1       -2 0.37508071E-01 0.32728034E+03</pdfrwt>
<totfact> 0.22856529E+03</totfact>
</mgrwt>
</event>
<event>
 4    1  0.1728870E-004  0.2586097E+03  0.7818608E-02  0.1107981E+00
         -1   -1    0    0    0  501 -0.00000000000E+00  0.00000000000E+00  0.18581256340E+02  0.18581256340E+02  0.00000000000E+00 0. -1.
          1   -1    0    0  501    0  0.00000000000E+00 -0.00000000000E+00 -0.89981809436E+03  0.89981809436E+03  0.00000000000E+00 0. -1.
         25    1    1    2    0    0 -0.28969298904E+02 -0.74162856193E+01 -0.57470172744E+03  0.58785737819E+03  0.12000000000E+03 0.  0.
         25    1    1    2    0    0  0.28969298904E+02  0.74162856193E+01 -0.30653511058E+03  0.33054197251E+03  0.12000000000E+03 0.  0.
<mgrwt>
<rscale>  0 0.25860975E+03</rscale>
<asrwt>0</asrwt>
<pdfrwt beam="1">  1        1 0.13843354E+00 0.25860975E+03</pdfrwt>
<pdfrwt beam="2">  1       -1 0.28586551E-02 0.25860975E+03</pdfrwt>
<totfact> 0.77118238E+03</totfact>
</mgrwt>
</event>
<event>
 4    1  0.1728870E-004  0.2894251E+03  0.7818608E-02  0.1090650E+00
          2   -1    0    0  501    0  0.00000000000E+00  0.00000000000E+00  0.16508348306E+03  0.16508348306E+03  0.00000000000E+00 0. -1.
         -2   -1    0    0    0  501 -0.00000000000E+00 -0.00000000000E+00 -0.12685536402E+03  0.12685536402E+03  0.00000000000E+00 0. -1.
         25    1    1    2    0    0 -0.63374907049E+02 -0.42562226804E+02  0.46063202114E+02  0.14949829625E+03  0.12000000000E+03 0.  0.
         25    1    1    2    0    0  0.63374907049E+02  0.42562226804E+02 -0.78350830756E+01  0.14244055083E+03  0.12000000000E+03 0.  0.
<mgrwt>
<rscale>  0 0.28942512E+03</rscale>
<asrwt>0</asrwt>
<pdfrwt beam="1">  1        2 0.25397459E-01 0.28942512E+03</pdfrwt>
<pdfrwt beam="2">  1       -2 0.19516210E-01 0.28942512E+03</pdfrwt>
<totfact> 0.46143600E+03</totfact>
</mgrwt>
</event>
<event>
 4    1  0.1728870E-004  0.3419325E+03  0.7818608E-02  0.1065976E+00
         -2   -1    0    0    0  501 -0.00000000000E+00  0.00000000000E+00  0.53426590205E+02  0.53426590205E+02  0.00000000000E+00 0.  1.
          2   -1    0    0  501    0  0.00000000000E+00 -0.00000000000E+00 -0.54709556138E+03  0.54709556138E+03  0.00000000000E+00 0.  1.
         25    1    1    2    0    0 -0.84807598665E+02  0.71868414297E+02 -0.33415525729E+03  0.37204453193E+03  0.12000000000E+03 0.  0.
         25    1    1    2    0    0  0.84807598665E+02 -0.71868414297E+02 -0.15951371388E+03  0.22847761965E+03  0.12000000000E+03 0.  0.
<mgrwt>
<rscale>  0 0.34193245E+03</rscale>
<asrwt>0</asrwt>
<pdfrwt beam="1">  1        2 0.84168550E-01 0.34193245E+03</pdfrwt>
<pdfrwt beam="2">  1       -2 0.82194752E-02 0.34193245E+03</pdfrwt>
<totfact> 0.51064637E+03</totfact>
</mgrwt>
</event>
<event>
 4    1  0.1728870E-004  0.2532148E+03  0.7818608E-02  0.1111290E+00
         -1   -1    0    0    0  501 -0.00000000000E+00  0.00000000000E+00  0.13943142683E+03  0.13943142683E+03  0.00000000000E+00 0. -1.
          1   -1    0    0  501    0  0.00000000000E+00 -0.00000000000E+00 -0.11496284334E+03  0.11496284334E+03  0.00000000000E+00 0. -1.
         25    1    1    2    0    0 -0.90954608029E+01  0.36769443728E+02 -0.17846974379E+01  0.12584873676E+03  0.12000000000E+03 0.  0.
         25    1    1    2    0    0  0.90954608029E+01 -0.36769443728E+02  0.26253280926E+02  0.12854553341E+03  0.12000000000E+03 0.  0.
<mgrwt>
<rscale>  0 0.25321480E+03</rscale>
<asrwt>0</asrwt>
<pdfrwt beam="1">  1        1 0.17686591E-01 0.25321480E+03</pdfrwt>
<pdfrwt beam="2">  1       -1 0.21450989E-01 0.25321480E+03</pdfrwt>
<totfact> 0.53265437E+03</totfact>
</mgrwt>
</event>
<event>
 4    1  0.1728870E-004  0.2617570E+03  0.7818608E-02  0.1106092E+00
         -1   -1    0    0    0  501 -0.00000000000E+00  0.00000000000E+00  0.18120940441E+02  0.18120940441E+02  0.00000000000E+00 0.  1.
          1   -1    0    0  501    0  0.00000000000E+00 -0.00000000000E+00 -0.94526967406E+03  0.94526967406E+03  0.00000000000E+00 0.  1.
         25    1    1    2    0    0  0.35823572489E+02 -0.30502835334E+02 -0.38001664893E+03  0.40128095491E+03  0.12000000000E+03 0.  0.
         25    1    1    2    0    0 -0.35823572489E+02  0.30502835334E+02 -0.54713208469E+03  0.56210965959E+03  0.12000000000E+03 0.  0.
<mgrwt>
<rscale>  0 0.26175695E+03</rscale>
<asrwt>0</asrwt>
<pdfrwt beam="1">  1        1 0.14542614E+00 0.26175695E+03</pdfrwt>
<pdfrwt beam="2">  1       -1 0.27878363E-02 0.26175695E+03</pdfrwt>
<totfact> 0.73807338E+03</totfact>
</mgrwt>
</event>
<event>
 4    1  0.1728870E-004  0.2866366E+03  0.7818608E-02  0.1092118E+00
          2   -1    0    0  501    0  0.00000000000E+00  0.00000000000E+00  0.10987496403E+04  0.10987496403E+04  0.00000000000E+00 0.  1.
         -2   -1    0    0    0  501 -0.00000000000E+00 -0.00000000000E+00 -0.18694098075E+02  0.18694098075E+02  0.00000000000E+00 0.  1.
         25    1    1    2    0    0  0.77699918920E+02  0.89506352364E+01  0.55861912011E+03  0.57669117613E+03  0.12000000000E+03 0.  0.
         25    1    1    2    0    0 -0.77699918920E+02 -0.89506352364E+01  0.52143642216E+03  0.54075256230E+03  0.12000000000E+03 0.  0.
<mgrwt>
<rscale>  0 0.28663659E+03</rscale>
<asrwt>0</asrwt>
<pdfrwt beam="1">  1        2 0.16903836E+00 0.28663659E+03</pdfrwt>
<pdfrwt beam="2">  1       -2 0.28760159E-02 0.28663659E+03</pdfrwt>
<totfact> 0.10319938E+04</totfact>
</mgrwt>
</event>
<event>
 4    1  0.1728870E-004  0.2868275E+03  0.7818608E-02  0.1092017E+00
          2   -1    0    0  501    0  0.00000000000E+00  0.00000000000E+00  0.54470243852E+02  0.54470243852E+02  0.00000000000E+00 0. -1.
         -2   -1    0    0    0  501 -0.00000000000E+00 -0.00000000000E+00 -0.37759143254E+03  0.37759143254E+03  0.00000000000E+00 0. -1.
         25    1    1    2    0    0  0.67417480685E+02 -0.30173462217E+02 -0.20175333322E+03  0.24608933741E+03  0.12000000000E+03 0.  0.
         25    1    1    2    0    0 -0.67417480685E+02  0.30173462217E+02 -0.12136785547E+03  0.18597233898E+03  0.12000000000E+03 0.  0.
<mgrwt>
<rscale>  0 0.28682746E+03</rscale>
<asrwt>0</asrwt>
<pdfrwt beam="1">  1        2 0.83800376E-02 0.28682746E+03</pdfrwt>
<pdfrwt beam="2">  1       -2 0.58090989E-01 0.28682746E+03</pdfrwt>
<totfact> 0.22641116E+03</totfact>
</mgrwt>
</event>
<event>
 4    1  0.1728870E-004  0.3134196E+03  0.7818608E-02  0.1078718E+00
          1   -1    0    0  501    0  0.00000000000E+00  0.00000000000E+00  0.38128001628E+03  0.38128001628E+03  0.00000000000E+00 0.  1.
         -1   -1    0    0    0  501 -0.00000000000E+00 -0.00000000000E+00 -0.64409264875E+02  0.64409264875E+02  0.00000000000E+00 0.  1.
         25    1    1    2    0    0  0.13473878465E+02 -0.90140483615E+02  0.97253539089E+02  0.17934632155E+03  0.12000000000E+03 0.  0.
         25    1    1    2    0    0 -0.13473878465E+02  0.90140483615E+02  0.21961721231E+03  0.26634295960E+03  0.12000000000E+03 0.  0.
<mgrwt>
<rscale>  0 0.31341963E+03</rscale>
<asrwt>0</asrwt>
<pdfrwt beam="1">  1        1 0.58658463E-01 0.31341963E+03</pdfrwt>
<pdfrwt beam="2">  1       -1 0.99091179E-02 0.31341963E+03</pdfrwt>
<totfact> 0.39846375E+03</totfact>
</mgrwt>
</event>
<event>
 4    1  0.1728870E-004  0.3128837E+03  0.7818608E-02  0.1078972E+00
         -1   -1    0    0    0  501 -0.00000000000E+00  0.00000000000E+00  0.10951930378E+03  0.10951930378E+03  0.00000000000E+00 0. -1.
          1   -1    0    0  501    0  0.00000000000E+00 -0.00000000000E+00 -0.22346790568E+03  0.22346790568E+03  0.00000000000E+00 0. -1.
         25    1    1    2    0    0  0.82059138961E+02 -0.55670047325E+02 -0.73502555077E+02  0.17214959210E+03  0.12000000000E+03 0.  0.
         25    1    1    2    0    0 -0.82059138961E+02  0.55670047325E+02 -0.40446046829E+02  0.16083761737E+03  0.12000000000E+03 0.  0.
<mgrwt>
<rscale>  0 0.31288368E+03</rscale>
<asrwt>0</asrwt>
<pdfrwt beam="1">  1        1 0.34379678E-01 0.31288368E+03</pdfrwt>
<pdfrwt beam="2">  1       -1 0.16849124E-01 0.31288368E+03</pdfrwt>
<totfact> 0.33933301E+03</totfact>
</mgrwt>
</event>
<event>
 4    1  0.1728870E-004  0.2748722E+03  0.7818608E-02  0.1098523E+00
          2   -1    0    0  501    0  0.00000000000E+00  0.00000000000E+00  0.33590083817E+03  0.33590083817E+03  0.00000000000E+00 0.  1.
         -2   -1    0    0    0  501 -0.00000000000E+00 -0.00000000000E+00 -0.56232891224E+02  0.56232891224E+02  0.00000000000E+00 0.  1.
         25    1    1    2    0    0  0.57512508019E+02 -0.51894444625E+00  0.18885432686E+03  0.23102795211E+03  0.12000000000E+03 0.  0.
         25    1    1    2    0    0 -0.57512508019E+02  0.51894444625E+00  0.90813620086E+02  0.16110577729E+03  0.12000000000E+03 0.  0.
<mgrwt>
<rscale>  0 0.27487215E+03</rscale>
<asrwt>0</asrwt>
<pdfrwt beam="1">  1        2 0.51677051E-01 0.27487215E+03</pdfrwt>
<pdfrwt beam="2">  1       -2 0.86512142E-02 0.27487215E+03</pdfrwt>
<totfact> 0.80196093E+03</totfact>
</mgrwt>
</event>
<event>
 4    1  0.1728870E-004  0.2477962E+03  0.7818608E-02  0.1114706E+00
          4   -1    0    0  501    0  0.00000000000E+00  0.00000000000E+00  0.19679439344E+03  0.19679439344E+03  0.00000000000E+00 0. -1.
         -4   -1    0    0    0  501 -0.00000000000E+00 -0.00000000000E+00 -0.78003962828E+02  0.78003962828E+02  0.00000000000E+00 0. -1.
         25    1    1    2    0    0  0.20779994681E+02 -0.11506644827E+02  0.37592434690E+02  0.12797422475E+03  0.12000000000E+03 0.  0.
         25    1    1    2    0    0 -0.20779994681E+02  0.11506644827E+02  0.81197995917E+02  0.14682413151E+03  0.12000000000E+03 0.  0.
<mgrwt>
<rscale>  0 0.24779623E+03</rscale>
<asrwt>0</asrwt>
<pdfrwt beam="1">  1        4 0.30276060E-01 0.24779623E+03</pdfrwt>
<pdfrwt beam="2">  1       -4 0.12000610E-01 0.24779623E+03</pdfrwt>
<totfact> 0.10729834E+03</totfact>
</mgrwt>
</event>
<event>
 4    1  0.1728870E-004  0.2827900E+03  0.7818608E-02  0.1094175E+00
          2   -1    0    0  501    0  0.00000000000E+00  0.00000000000E+00  0.82638513469E+03  0.82638513469E+03  0.00000000000E+00 0. -1.
         -2   -1    0    0    0  501 -0.00000000000E+00 -0.00000000000E+00 -0.24192768292E+02  0.24192768292E+02  0.00000000000E+00 0. -1.
         25    1    1    2    0    0  0.37215422830E+02 -0.64729815409E+02  0.38847507510E+03  0.41338580125E+03  0.12000000000E+03 0.  0.
         25    1    1    2    0    0 -0.37215422830E+02  0.64729815409E+02  0.41371729129E+03  0.43719210173E+03  0.12000000000E+03 0.  0.
<mgrwt>
<rscale>  0 0.28278999E+03</rscale>
<asrwt>0</asrwt>
<pdfrwt beam="1">  1        2 0.12713615E+00 0.28278999E+03</pdfrwt>
<pdfrwt beam="2">  1       -2 0.37219650E-02 0.28278999E+03</pdfrwt>
<totfact> 0.10403147E+04</totfact>
</mgrwt>
</event>
<event>
 4    1  0.1728870E-004  0.2973966E+03  0.7818608E-02  0.1086549E+00
         -2   -1    0    0    0  501 -0.00000000000E+00  0.00000000000E+00  0.14441475533E+02  0.14441475533E+02  0.00000000000E+00 0.  1.
          2   -1    0    0  501    0  0.00000000000E+00 -0.00000000000E+00 -0.15310893842E+04  0.15310893842E+04  0.00000000000E+00 0.  1.
         25    1    1    2    0    0  0.78664783786E+02  0.39001372828E+02 -0.76555225309E+03  0.77985864585E+03  0.12000000000E+03 0.  0.
         25    1    1    2    0    0 -0.78664783786E+02 -0.39001372828E+02 -0.75109565561E+03  0.76567221392E+03  0.12000000000E+03 0.  0.
<mgrwt>
<rscale>  0 0.29739664E+03</rscale>
<asrwt>0</asrwt>
<pdfrwt beam="1">  1        2 0.23555218E+00 0.29739664E+03</pdfrwt>
<pdfrwt beam="2">  1       -2 0.22217658E-02 0.29739664E+03</pdfrwt>
<totfact> 0.87048215E+03</totfact>
</mgrwt>
</event>
<event>
 4    1  0.1728870E-004  0.2944677E+03  0.7818608E-02  0.1088039E+00
          2   -1    0    0  501    0  0.00000000000E+00  0.00000000000E+00  0.57913260210E+02  0.57913260210E+02  0.00000000000E+00 0. -1.
         -2   -1    0    0    0  501 -0.00000000000E+00 -0.00000000000E+00 -0.37431503225E+03  0.37431503225E+03  0.00000000000E+00 0. -1.
         25    1    1    2    0    0  0.17280154743E+02  0.23768281860E+02 -0.40643712587E+02  0.13005939544E+03  0.12000000000E+03 0.  0.
         25    1    1    2    0    0 -0.17280154743E+02 -0.23768281860E+02 -0.27575805946E+03  0.30216889702E+03  0.12000000000E+03 0.  0.
<mgrwt>
<rscale>  0 0.29446768E+03</rscale>
<asrwt>0</asrwt>
<pdfrwt beam="1">  1        2 0.89097326E-02 0.29446768E+03</pdfrwt>
<pdfrwt beam="2">  1       -2 0.57586926E-01 0.29446768E+03</pdfrwt>
<totfact> 0.21345965E+03</totfact>
</mgrwt>
</event>
<event>
 4    1  0.1728870E-004  0.2977443E+03  0.7818608E-02  0.1086374E+00
         -2   -1    0    0    0  501 -0.00000000000E+00  0.00000000000E+00  0.10690828600E+03  0.10690828600E+03  0.00000000000E+00 0. -1.
          2   -1    0    0  501    0  0.00000000000E+00 -0.00000000000E+00 -0.20730772803E+03  0.20730772803E+03  0.00000000000E+00 0. -1.
         25    1    1    2    0    0 -0.50556422900E+02  0.62355591490E+01  0.25666682195E+02  0.13286689832E+03  0.12000000000E+03 0.  0.
         25    1    1    2    0    0  0.50556422900E+02 -0.62355591490E+01 -0.12606612423E+03  0.18134911572E+03  0.12000000000E+03 0.  0.
<mgrwt>
<rscale>  0 0.29774428E+03</rscale>
<asrwt>0</asrwt>
<pdfrwt beam="1">  1        2 0.31893497E-01 0.29774428E+03</pdfrwt>
<pdfrwt beam="2">  1       -2 0.16447429E-01 0.29774428E+03</pdfrwt>
<totfact> 0.47932369E+03</totfact>
</mgrwt>
</event>
<event>
 4    1  0.1728870E-004  0.3625652E+03  0.7818608E-02  0.1057573E+00
          1   -1    0    0  501    0  0.00000000000E+00  0.00000000000E+00  0.14590283260E+04  0.14590283260E+04  0.00000000000E+00 0. -1.
         -1   -1    0    0    0  501 -0.00000000000E+00 -0.00000000000E+00 -0.22524154167E+02  0.22524154167E+02  0.00000000000E+00 0. -1.
         25    1    1    2    0    0  0.11010351381E+03 -0.53135293339E+02  0.96059575517E+03  0.97575117115E+03  0.12000000000E+03 0.  0.
         25    1    1    2    0    0 -0.11010351381E+03  0.53135293339E+02  0.47590841666E+03  0.50580130901E+03  0.12000000000E+03 0.  0.
<mgrwt>
<rscale>  0 0.36256519E+03</rscale>
<asrwt>0</asrwt>
<pdfrwt beam="1">  1        1 0.22446582E+00 0.36256519E+03</pdfrwt>
<pdfrwt beam="2">  1       -1 0.34652556E-02 0.36256519E+03</pdfrwt>
<totfact> 0.23201552E+03</totfact>
</mgrwt>
</event>
<event>
 4    1  0.1728870E-004  0.7995243E+03  0.7818608E-02  0.9560706E-01
          3   -1    0    0  501    0  0.00000000000E+00  0.00000000000E+00  0.20092889748E+03  0.20092889748E+03  0.00000000000E+00 0. -1.
         -3   -1    0    0    0  501 -0.00000000000E+00 -0.00000000000E+00 -0.79535484981E+03  0.79535484981E+03  0.00000000000E+00 0. -1.
         25    1    1    2    0    0 -0.10306303039E+03  0.35669718070E+03 -0.18890363388E+03  0.43351983789E+03  0.12000000000E+03 0.  0.
         25    1    1    2    0    0  0.10306303039E+03 -0.35669718070E+03 -0.40552231846E+03  0.56276390940E+03  0.12000000000E+03 0.  0.
<mgrwt>
<rscale>  0 0.79952429E+03</rscale>
<asrwt>0</asrwt>
<pdfrwt beam="1">  1        3 0.30912138E-01 0.79952429E+03</pdfrwt>
<pdfrwt beam="2">  1       -3 0.12236229E+00 0.79952429E+03</pdfrwt>
<totfact> 0.14548854E+01</totfact>
</mgrwt>
</event>
<event>
 4    1  0.1728870E-004  0.2522976E+03  0.7818608E-02  0.1111861E+00
          1   -1    0    0  501    0  0.00000000000E+00  0.00000000000E+00  0.17982186867E+03  0.17982186867E+03  0.00000000000E+00 0. -1.
         -1   -1    0    0    0  501 -0.00000000000E+00 -0.00000000000E+00 -0.88496051945E+02  0.88496051945E+02  0.00000000000E+00 0. -1.
         25    1    1    2    0    0  0.27655873334E+02 -0.26763889563E+02  0.51713855628E+02  0.13621848618E+03  0.12000000000E+03 0.  0.
         25    1    1    2    0    0 -0.27655873334E+02  0.26763889563E+02  0.39611961095E+02  0.13209943443E+03  0.12000000000E+03 0.  0.
<mgrwt>
<rscale>  0 0.25229765E+03</rscale>
<asrwt>0</asrwt>
<pdfrwt beam="1">  1        1 0.27664903E-01 0.25229765E+03</pdfrwt>
<pdfrwt beam="2">  1       -1 0.13614777E-01 0.25229765E+03</pdfrwt>
<totfact> 0.62235165E+03</totfact>
</mgrwt>
</event>
<event>
 4    1  0.1728870E-004  0.3472267E+03  0.7818608E-02  0.1063759E+00
          2   -1    0    0  501    0  0.00000000000E+00  0.00000000000E+00  0.16907730057E+04  0.16907730057E+04  0.00000000000E+00 0. -1.
         -2   -1    0    0    0  501 -0.00000000000E+00 -0.00000000000E+00 -0.17827113218E+02  0.17827113218E+02  0.00000000000E+00 0. -1.
         25    1    1    2    0    0  0.20050902546E+00  0.85377257148E+01  0.14524199165E+04  0.14573937515E+04  0.12000000000E+03 0.  0.
         25    1    1    2    0    0 -0.20050902546E+00 -0.85377257148E+01  0.22052597595E+03  0.25120636742E+03  0.12000000000E+03 0.  0.
<mgrwt>
<rscale>  0 0.34722674E+03</rscale>
<asrwt>0</asrwt>
<pdfrwt beam="1">  1        2 0.26011880E+00 0.34722674E+03</pdfrwt>
<pdfrwt beam="2">  1       -2 0.27426341E-02 0.34722674E+03</pdfrwt>
<totfact> 0.52379805E+03</totfact>
</mgrwt>
</event>
<event>
 4    1  0.1728870E-004  0.2461601E+03  0.7818608E-02  0.1115756E+00
          2   -1    0    0  501    0  0.00000000000E+00  0.00000000000E+00  0.11301083754E+04  0.11301083754E+04  0.00000000000E+00 0.  1.
         -2   -1    0    0    0  501 -0.00000000000E+00 -0.00000000000E+00 -0.13404639813E+02  0.13404639813E+02  0.00000000000E+00 0.  1.
         25    1    1    2    0    0 -0.12671112864E+01  0.31064396159E+01  0.43220197241E+03  0.44856415427E+03  0.12000000000E+03 0.  0.
         25    1    1    2    0    0  0.12671112864E+01 -0.31064396159E+01  0.68450176319E+03  0.69494886096E+03  0.12000000000E+03 0.  0.
<mgrwt>
<rscale>  0 0.24616008E+03</rscale>
<asrwt>0</asrwt>
<pdfrwt beam="1">  1        2 0.17386275E+00 0.24616008E+03</pdfrwt>
<pdfrwt beam="2">  1       -2 0.20622532E-02 0.24616008E+03</pdfrwt>
<totfact> 0.16095617E+04</totfact>
</mgrwt>
</event>
<event>
 4    1  0.1728870E-004  0.2731916E+03  0.7818608E-02  0.1099467E+00
          1   -1    0    0  501    0  0.00000000000E+00  0.00000000000E+00  0.10931175019E+02  0.10931175019E+02  0.00000000000E+00 0. -1.
         -1   -1    0    0    0  501 -0.00000000000E+00 -0.00000000000E+00 -0.17068993805E+04  0.17068993805E+04  0.00000000000E+00 0. -1.
         25    1    1    2    0    0  0.46608541569E+02 -0.58859649158E+01 -0.56318427561E+03  0.57774001854E+03  0.12000000000E+03 0.  0.
         25    1    1    2    0    0 -0.46608541569E+02  0.58859649158E+01 -0.11327839298E+04  0.11400905370E+04  0.12000000000E+03 0.  0.
<mgrwt>
<rscale>  0 0.27319162E+03</rscale>
<asrwt>0</asrwt>
<pdfrwt beam="1">  1        1 0.16817192E-02 0.27319162E+03</pdfrwt>
<pdfrwt beam="2">  1       -1 0.26259991E+00 0.27319162E+03</pdfrwt>
<totfact> 0.51152535E+02</totfact>
</mgrwt>
</event>
<event>
 4    1  0.1728870E-004  0.3673269E+03  0.7818608E-02  0.1055720E+00
          2   -1    0    0  501    0  0.00000000000E+00  0.00000000000E+00  0.11710336923E+03  0.11710336923E+03  0.00000000000E+00 0.  1.
         -2   -1    0    0    0  501 -0.00000000000E+00 -0.00000000000E+00 -0.28805548433E+03  0.28805548433E+03  0.00000000000E+00 0.  1.
         25    1    1    2    0    0 -0.42900170355E+02  0.84526508726E+02  0.26721177098E+02  0.15523909495E+03  0.12000000000E+03 0.  0.
         25    1    1    2    0    0  0.42900170355E+02 -0.84526508726E+02 -0.19767329221E+03  0.24991975861E+03  0.12000000000E+03 0.  0.
<mgrwt>
<rscale>  0 0.36732693E+03</rscale>
<asrwt>0</asrwt>
<pdfrwt beam="1">  1        2 0.18015903E-01 0.36732693E+03</pdfrwt>
<pdfrwt beam="2">  1       -2 0.44316228E-01 0.36732693E+03</pdfrwt>
<totfact> 0.15402526E+03</totfact>
</mgrwt>
</event>
<event>
 4    1  0.1728870E-004  0.3940816E+03  0.7818608E-02  0.1045849E+00
          2   -1    0    0  501    0  0.00000000000E+00  0.00000000000E+00  0.17617886130E+04  0.17617886130E+04  0.00000000000E+00 0.  1.
         -2   -1    0    0    0  501 -0.00000000000E+00 -0.00000000000E+00 -0.22037303310E+02  0.22037303310E+02  0.00000000000E+00 0.  1.
         25    1    1    2    0    0  0.51797503535E+02  0.12216672289E+03  0.49613089173E+03  0.52740264626E+03  0.12000000000E+03 0.  0.
         25    1    1    2    0    0 -0.51797503535E+02 -0.12216672289E+03  0.12436204180E+04  0.12564232700E+04  0.12000000000E+03 0.  0.
<mgrwt>
<rscale>  0 0.39408157E+03</rscale>
<asrwt>0</asrwt>
<pdfrwt beam="1">  1        2 0.27104429E+00 0.39408157E+03</pdfrwt>
<pdfrwt beam="2">  1       -2 0.33903557E-02 0.39408157E+03</pdfrwt>
<totfact> 0.34896334E+03</totfact>
</mgrwt>
</event>
<event>
 4    1  0.1728870E-004  0.2561512E+03  0.7818608E-02  0.1109478E+00
          2   -1    0    0  501    0  0.00000000000E+00  0.00000000000E+00  0.12047554580E+03  0.12047554580E+03  0.00000000000E+00 0.  1.
         -2   -1    0    0    0  501 -0.00000000000E+00 -0.00000000000E+00 -0.13615504475E+03  0.13615504475E+03  0.00000000000E+00 0.  1.
         25    1    1    2    0    0  0.18567052148E+02  0.10152757057E+02 -0.47353897235E+02  0.13072951268E+03  0.12000000000E+03 0.  0.
         25    1    1    2    0    0 -0.18567052148E+02 -0.10152757057E+02  0.31674398285E+02  0.12590107787E+03  0.12000000000E+03 0.  0.
<mgrwt>
<rscale>  0 0.25615115E+03</rscale>
<asrwt>0</asrwt>
<pdfrwt beam="1">  1        2 0.18534699E-01 0.25615115E+03</pdfrwt>
<pdfrwt beam="2">  1       -2 0.20946930E-01 0.25615115E+03</pdfrwt>
<totfact> 0.58191455E+03</totfact>
</mgrwt>
</event>
<event>
 4    1  0.1728870E-004  0.2730977E+03  0.7818608E-02  0.1099520E+00
          2   -1    0    0  501    0  0.00000000000E+00  0.00000000000E+00  0.14710037753E+04  0.14710037753E+04  0.00000000000E+00 0. -1.
         -2   -1    0    0    0  501 -0.00000000000E+00 -0.00000000000E+00 -0.12675418471E+02  0.12675418471E+02  0.00000000000E+00 0. -1.
         25    1    1    2    0    0 -0.45597085885E+02 -0.15286700205E+02  0.49031890242E+03  0.50707534303E+03  0.12000000000E+03 0.  0.
         25    1    1    2    0    0  0.45597085885E+02  0.15286700205E+02  0.96800945442E+03  0.97660385074E+03  0.12000000000E+03 0.  0.
<mgrwt>
<rscale>  0 0.27309770E+03</rscale>
<asrwt>0</asrwt>
<pdfrwt beam="1">  1        2 0.22630814E+00 0.27309770E+03</pdfrwt>
<pdfrwt beam="2">  1       -2 0.19500655E-02 0.27309770E+03</pdfrwt>
<totfact> 0.11345376E+04</totfact>
</mgrwt>
</event>
<event>
 4    1  0.1728870E-004  0.2966462E+03  0.7818608E-02  0.1086929E+00
          2   -1    0    0  501    0  0.00000000000E+00  0.00000000000E+00  0.79692842328E+02  0.79692842328E+02  0.00000000000E+00 0. -1.
         -2   -1    0    0    0  501 -0.00000000000E+00 -0.00000000000E+00 -0.27605673644E+03  0.27605673644E+03  0.00000000000E+00 0. -1.
         25    1    1    2    0    0 -0.89053112760E+01  0.86720467633E+02 -0.98234155645E+02  0.17790360708E+03  0.12000000000E+03 0.  0.
         25    1    1    2    0    0  0.89053112760E+01 -0.86720467633E+02 -0.98129738468E+02  0.17784597169E+03  0.12000000000E+03 0.  0.
<mgrwt>
<rscale>  0 0.29664623E+03</rscale>
<asrwt>0</asrwt>
<pdfrwt beam="1">  1        2 0.12260437E-01 0.29664623E+03</pdfrwt>
<pdfrwt beam="2">  1       -2 0.42470268E-01 0.29664623E+03</pdfrwt>
<totfact> 0.26385507E+03</totfact>
</mgrwt>
</event>
<event>
 4    1  0.1728870E-004  0.2782415E+03  0.7818608E-02  0.1096653E+00
          1   -1    0    0  501    0  0.00000000000E+00  0.00000000000E+00  0.81584198702E+03  0.81584198702E+03  0.00000000000E+00 0.  1.
         -1   -1    0    0    0  501 -0.00000000000E+00 -0.00000000000E+00 -0.23723441939E+02  0.23723441939E+02  0.00000000000E+00 0.  1.
         25    1    1    2    0    0 -0.64317680772E+02  0.25201373936E+02  0.43684515984E+03  0.45826364354E+03  0.12000000000E+03 0.  0.
         25    1    1    2    0    0  0.64317680772E+02 -0.25201373936E+02  0.35527338523E+03  0.38130178542E+03  0.12000000000E+03 0.  0.
<mgrwt>
<rscale>  0 0.27824148E+03</rscale>
<asrwt>0</asrwt>
<pdfrwt beam="1">  1        1 0.12551413E+00 0.27824148E+03</pdfrwt>
<pdfrwt beam="2">  1       -1 0.36497609E-02 0.27824148E+03</pdfrwt>
<totfact> 0.62920335E+03</totfact>
</mgrwt>
</event>
<event>
 4    1  0.1728870E-004  0.2760428E+03  0.7818608E-02  0.1097870E+00
          1   -1    0    0  501    0  0.00000000000E+00  0.00000000000E+00  0.17239952321E+04  0.17239952321E+04  0.00000000000E+00 0.  1.
         -1   -1    0    0    0  501 -0.00000000000E+00 -0.00000000000E+00 -0.11049861114E+02  0.11049861114E+02  0.00000000000E+00 0.  1.
         25    1    1    2    0    0 -0.28985071273E+02  0.48008021302E+02  0.11003116317E+04  0.11082556525E+04  0.12000000000E+03 0.  0.
         25    1    1    2    0    0  0.28985071273E+02 -0.48008021302E+02  0.61263373925E+03  0.62678944067E+03  0.12000000000E+03 0.  0.
<mgrwt>
<rscale>  0 0.27604281E+03</rscale>
<asrwt>0</asrwt>
<pdfrwt beam="1">  1        1 0.26522982E+00 0.27604281E+03</pdfrwt>
<pdfrwt beam="2">  1       -1 0.16999800E-02 0.27604281E+03</pdfrwt>
<totfact> 0.44347168E+03</totfact>
</mgrwt>
</event>
<event>
 4    1  0.1728870E-004  0.2887244E+03  0.7818608E-02  0.1091017E+00
         -2   -1    0    0    0  501 -0.00000000000E+00  0.00000000000E+00  0.30937684160E+03  0.30937684160E+03  0.00000000000E+00 0.  1.
          2   -1    0    0  501    0  0.00000000000E+00 -0.00000000000E+00 -0.67362665662E+02  0.67362665662E+02  0.00000000000E+00 0.  1.
         25    1    1    2    0    0  0.15306371899E+02 -0.51567329850E+02  0.19871883143E+03  0.23829110032E+03  0.12000000000E+03 0.  0.
         25    1    1    2    0    0 -0.15306371899E+02  0.51567329850E+02  0.43295344513E+02  0.13844840694E+03  0.12000000000E+03 0.  0.
<mgrwt>
<rscale>  0 0.28872443E+03</rscale>
<asrwt>0</asrwt>
<pdfrwt beam="1">  1        2 0.10363487E-01 0.28872443E+03</pdfrwt>
<pdfrwt beam="2">  1       -2 0.47596436E-01 0.28872443E+03</pdfrwt>
<totfact> 0.25938563E+03</totfact>
</mgrwt>
</event>
<event>
 4    1  0.1728870E-004  0.2537598E+03  0.7818608E-02  0.1110951E+00
         -4   -1    0    0    0  501 -0.00000000000E+00  0.00000000000E+00  0.28124751640E+02  0.28124751640E+02  0.00000000000E+00 0.  1.
          4   -1    0    0  501    0  0.00000000000E+00 -0.00000000000E+00 -0.57239670338E+03  0.57239670338E+03  0.00000000000E+00 0.  1.
         25    1    1    2    0    0  0.38046554687E+02  0.15838638586E+02 -0.27134284164E+03  0.29954188439E+03  0.12000000000E+03 0.  0.
         25    1    1    2    0    0 -0.38046554687E+02 -0.15838638586E+02 -0.27292911011E+03  0.30097957064E+03  0.12000000000E+03 0.  0.
<mgrwt>
<rscale>  0 0.25375985E+03</rscale>
<asrwt>0</asrwt>
<pdfrwt beam="1">  1        4 0.88061037E-01 0.25375985E+03</pdfrwt>
<pdfrwt beam="2">  1       -4 0.43268846E-02 0.25375985E+03</pdfrwt>
<totfact> 0.63948181E+02</totfact>
</mgrwt>
</event>
<event>
 4    1  0.1728870E-004  0.2635742E+03  0.7818608E-02  0.1105015E+00
          1   -1    0    0  501    0  0.00000000000E+00  0.00000000000E+00  0.14976339956E+04  0.14976339956E+04  0.00000000000E+00 0. -1.
         -1   -1    0    0    0  501 -0.00000000000E+00 -0.00000000000E+00 -0.11596850803E+02  0.11596850803E+02  0.00000000000E+00 0. -1.
         25    1    1    2    0    0 -0.84497940072E+01 -0.17853083505E+02  0.10337349656E+04  0.10408641174E+04  0.12000000000E+03 0.  0.
         25    1    1    2    0    0  0.84497940072E+01  0.17853083505E+02  0.45230217918E+03  0.46836672907E+03  0.12000000000E+03 0.  0.
<mgrwt>
<rscale>  0 0.26357419E+03</rscale>
<asrwt>0</asrwt>
<pdfrwt beam="1">  1        1 0.23040508E+00 0.26357419E+03</pdfrwt>
<pdfrwt beam="2">  1       -1 0.17841321E-02 0.26357419E+03</pdfrwt>
<totfact> 0.58164800E+03</totfact>
</mgrwt>
</event>
<event>
 4    1  0.1728870E-004  0.2747517E+03  0.7818608E-02  0.1098590E+00
          1   -1    0    0  501    0  0.00000000000E+00  0.00000000000E+00  0.86188968157E+03  0.86188968157E+03  0.00000000000E+00 0.  1.
         -1   -1    0    0    0  501 -0.00000000000E+00 -0.00000000000E+00 -0.21896225108E+02  0.21896225108E+02  0.00000000000E+00 0.  1.
         25    1    1    2    0    0  0.64456587444E+02 -0.63407461585E+01  0.47355924758E+03  0.49280139782E+03  0.12000000000E+03 0.  0.
         25    1    1    2    0    0 -0.64456587444E+02  0.63407461585E+01  0.36643420889E+03  0.39098450886E+03  0.12000000000E+03 0.  0.
<mgrwt>
<rscale>  0 0.27475175E+03</rscale>
<asrwt>0</asrwt>
<pdfrwt beam="1">  1        1 0.13259839E+00 0.27475175E+03</pdfrwt>
<pdfrwt beam="2">  1       -1 0.33686507E-02 0.27475175E+03</pdfrwt>
<totfact> 0.64971050E+03</totfact>
</mgrwt>
</event>
<event>
 4    1  0.1728870E-004  0.5158115E+03  0.7818608E-02  0.1009732E+00
          1   -1    0    0  501    0  0.00000000000E+00  0.00000000000E+00  0.25899994277E+04  0.25899994277E+04  0.00000000000E+00 0.  1.
         -1   -1    0    0    0  501 -0.00000000000E+00 -0.00000000000E+00 -0.25681614833E+02  0.25681614833E+02  0.00000000000E+00 0.  1.
         25    1    1    2    0    0 -0.19220410531E+03 -0.63554149271E+02  0.74708239905E+03  0.78327112736E+03  0.12000000000E+03 0.  0.
         25    1    1    2    0    0  0.19220410531E+03  0.63554149271E+02  0.18172354138E+04  0.18324099152E+04  0.12000000000E+03 0.  0.
<mgrwt>
<rscale>  0 0.51581147E+03</rscale>
<asrwt>0</asrwt>
<pdfrwt beam="1">  1        1 0.39846124E+00 0.51581147E+03</pdfrwt>
<pdfrwt beam="2">  1       -1 0.39510197E-02 0.51581147E+03</pdfrwt>
<totfact> 0.33355330E+02</totfact>
</mgrwt>
</event>
<event>
 4    1  0.1728870E-004  0.3235242E+03  0.7818608E-02  0.1074039E+00
          1   -1    0    0  501    0  0.00000000000E+00  0.00000000000E+00  0.13987458977E+04  0.13987458977E+04  0.00000000000E+00 0. -1.
         -1   -1    0    0    0  501 -0.00000000000E+00 -0.00000000000E+00 -0.18707454068E+02  0.18707454068E+02  0.00000000000E+00 0. -1.
         25    1    1    2    0    0 -0.57802430294E+02 -0.76436111548E+02  0.91270665549E+03  0.92553608200E+03  0.12000000000E+03 0.  0.
         25    1    1    2    0    0  0.57802430294E+02  0.76436111548E+02  0.46733178817E+03  0.49191726981E+03  0.12000000000E+03 0.  0.
<mgrwt>
<rscale>  0 0.32352419E+03</rscale>
<asrwt>0</asrwt>
<pdfrwt beam="1">  1        1 0.21519160E+00 0.32352419E+03</pdfrwt>
<pdfrwt beam="2">  1       -1 0.28780709E-02 0.32352419E+03</pdfrwt>
<totfact> 0.33594536E+03</totfact>
</mgrwt>
</event>
<event>
 4    1  0.1728870E-004  0.3859431E+03  0.7818608E-02  0.1048759E+00
          4   -1    0    0  501    0  0.00000000000E+00  0.00000000000E+00  0.37803703824E+02  0.37803703824E+02  0.00000000000E+00 0.  1.
         -4   -1    0    0    0  501 -0.00000000000E+00 -0.00000000000E+00 -0.98503645632E+03  0.98503645632E+03  0.00000000000E+00 0.  1.
         25    1    1    2    0    0 -0.30679108891E+02  0.38009971749E+02 -0.85262839776E+03  0.86241588015E+03  0.12000000000E+03 0.  0.
         25    1    1    2    0    0  0.30679108891E+02 -0.38009971749E+02 -0.94604354731E+02  0.16042427999E+03  0.12000000000E+03 0.  0.
<mgrwt>
<rscale>  0 0.38594314E+03</rscale>
<asrwt>0</asrwt>
<pdfrwt beam="1">  1        4 0.58159544E-02 0.38594314E+03</pdfrwt>
<pdfrwt beam="2">  1       -4 0.15154407E+00 0.38594314E+03</pdfrwt>
<totfact> 0.11049812E+02</totfact>
</mgrwt>
</event>
<event>
 4    1  0.1728870E-004  0.2951610E+03  0.7818608E-02  0.1087685E+00
         -1   -1    0    0    0  501 -0.00000000000E+00  0.00000000000E+00  0.51009301460E+02  0.51009301460E+02  0.00000000000E+00 0. -1.
          1   -1    0    0  501    0  0.00000000000E+00 -0.00000000000E+00 -0.42698098035E+03  0.42698098035E+03  0.00000000000E+00 0. -1.
         25    1    1    2    0    0  0.58908056013E+02 -0.58904900707E+02 -0.22195725736E+03  0.26571595828E+03  0.12000000000E+03 0.  0.
         25    1    1    2    0    0 -0.58908056013E+02  0.58904900707E+02 -0.15401442153E+03  0.21227432353E+03  0.12000000000E+03 0.  0.
<mgrwt>
<rscale>  0 0.29516098E+03</rscale>
<asrwt>0</asrwt>
<pdfrwt beam="1">  1        1 0.65689380E-01 0.29516098E+03</pdfrwt>
<pdfrwt beam="2">  1       -1 0.78475851E-02 0.29516098E+03</pdfrwt>
<totfact> 0.49241148E+03</totfact>
</mgrwt>
</event>
<event>
 4    1  0.1728870E-004  0.4109416E+03  0.7818608E-02  0.1040055E+00
         -2   -1    0    0    0  501 -0.00000000000E+00  0.00000000000E+00  0.33252177459E+02  0.33252177459E+02  0.00000000000E+00 0.  1.
          2   -1    0    0  501    0  0.00000000000E+00 -0.00000000000E+00 -0.12696387956E+04  0.12696387956E+04  0.00000000000E+00 0.  1.
         25    1    1    2    0    0  0.56857941640E+02 -0.12054489117E+03 -0.93610399042E+03  0.95312883557E+03  0.12000000000E+03 0.  0.
         25    1    1    2    0    0 -0.56857941640E+02  0.12054489117E+03 -0.30028262777E+03  0.34976213754E+03  0.12000000000E+03 0.  0.
<mgrwt>
<rscale>  0 0.41094162E+03</rscale>
<asrwt>0</asrwt>
<pdfrwt beam="1">  1        2 0.19532908E+00 0.41094162E+03</pdfrwt>
<pdfrwt beam="2">  1       -2 0.51157187E-02 0.41094162E+03</pdfrwt>
<totfact> 0.34581182E+03</totfact>
</mgrwt>
</event>
<event>
 4    1  0.1728870E-004  0.3089899E+03  0.7818608E-02  0.1080831E+00
          1   -1    0    0  501    0  0.00000000000E+00  0.00000000000E+00  0.32436198702E+03  0.32436198702E+03  0.00000000000E+00 0. -1.
         -1   -1    0    0    0  501 -0.00000000000E+00 -0.00000000000E+00 -0.73586590345E+02  0.73586590345E+02  0.00000000000E+00 0. -1.
         25    1    1    2    0    0  0.29729160374E+02 -0.73952574622E+02  0.19727852075E+03  0.24427775383E+03  0.12000000000E+03 0.  0.
         25    1    1    2    0    0 -0.29729160374E+02  0.73952574622E+02  0.53496875924E+02  0.15367082353E+03  0.12000000000E+03 0.  0.
<mgrwt>
<rscale>  0 0.30898992E+03</rscale>
<asrwt>0</asrwt>
<pdfrwt beam="1">  1        1 0.49901843E-01 0.30898992E+03</pdfrwt>
<pdfrwt beam="2">  1       -1 0.11321014E-01 0.30898992E+03</pdfrwt>
<totfact> 0.39785044E+03</totfact>
</mgrwt>
</event>
<event>
 4    1  0.1728870E-004  0.2849531E+03  0.7818608E-02  0.1093014E+00
         -2   -1    0    0    0  501 -0.00000000000E+00  0.00000000000E+00  0.25330094548E+03  0.25330094548E+03  0.00000000000E+00 0.  1.
          2   -1    0    0  501    0  0.00000000000E+00 -0.00000000000E+00 -0.80140094277E+02  0.80140094277E+02  0.00000000000E+00 0.  1.
         25    1    1    2    0    0  0.17619544852E+02 -0.14068221127E+02  0.17249926165E+03  0.21133943900E+03  0.12000000000E+03 0.  0.
         25    1    1    2    0    0 -0.17619544852E+02  0.14068221127E+02  0.66158954938E+00  0.12210160076E+03  0.12000000000E+03 0.  0.
<mgrwt>
<rscale>  0 0.28495306E+03</rscale>
<asrwt>0</asrwt>
<pdfrwt beam="1">  1        2 0.12329245E-01 0.28495306E+03</pdfrwt>
<pdfrwt beam="2">  1       -2 0.38969376E-01 0.28495306E+03</pdfrwt>
<totfact> 0.30878145E+03</totfact>
</mgrwt>
</event>
<event>
 4    1  0.1728870E-004  0.2630898E+03  0.7818608E-02  0.1105301E+00
          2   -1    0    0  501    0  0.00000000000E+00  0.00000000000E+00  0.74892509155E+03  0.74892509155E+03  0.00000000000E+00 0. -1.
         -2   -1    0    0    0  501 -0.00000000000E+00 -0.00000000000E+00 -0.23105195719E+02  0.23105195719E+02  0.00000000000E+00 0. -1.
         25    1    1    2    0    0  0.93053002927E+00  0.51936209701E+02  0.32081020474E+03  0.34643530887E+03  0.12000000000E+03 0.  0.
         25    1    1    2    0    0 -0.93053002927E+00 -0.51936209701E+02  0.40500969109E+03  0.42559497840E+03  0.12000000000E+03 0.  0.
<mgrwt>
<rscale>  0 0.26308980E+03</rscale>
<asrwt>0</asrwt>
<pdfrwt beam="1">  1        2 0.11521923E+00 0.26308980E+03</pdfrwt>
<pdfrwt beam="2">  1       -2 0.35546461E-02 0.26308980E+03</pdfrwt>
<totfact> 0.12590027E+04</totfact>
</mgrwt>
</event>
<event>
 4    1  0.1728870E-004  0.2823601E+03  0.7818608E-02  0.1094407E+00
          2   -1    0    0  501    0  0.00000000000E+00  0.00000000000E+00  0.28511071671E+03  0.28511071671E+03  0.00000000000E+00 0.  1.
         -2   -1    0    0    0  501 -0.00000000000E+00 -0.00000000000E+00 -0.69909010390E+02  0.69909010390E+02  0.00000000000E+00 0.  1.
         25    1    1    2    0    0  0.68748194122E+02  0.26880442370E+02  0.96150474574E+02  0.17056900697E+03  0.12000000000E+03 0.  0.
         25    1    1    2    0    0 -0.68748194122E+02 -0.26880442370E+02  0.11905123174E+03  0.18445072013E+03  0.12000000000E+03 0.  0.
<mgrwt>
<rscale>  0 0.28236011E+03</rscale>
<asrwt>0</asrwt>
<pdfrwt beam="1">  1        2 0.43863187E-01 0.28236011E+03</pdfrwt>
<pdfrwt beam="2">  1       -2 0.10755233E-01 0.28236011E+03</pdfrwt>
<totfact> 0.67816587E+03</totfact>
</mgrwt>
</event>
<event>
 4    1  0.1728870E-004  0.2431562E+03  0.7818608E-02  0.1117708E+00
          1   -1    0    0  501    0  0.00000000000E+00  0.00000000000E+00  0.33618752264E+03  0.33618752264E+03  0.00000000000E+00 0. -1.
         -1   -1    0    0    0  501 -0.00000000000E+00 -0.00000000000E+00 -0.43967243482E+02  0.43967243482E+02  0.00000000000E+00 0. -1.
         25    1    1    2    0    0 -0.17122018403E+02 -0.90342724520E+01  0.15008290383E+03  0.19313119793E+03  0.12000000000E+03 0.  0.
         25    1    1    2    0    0  0.17122018403E+02  0.90342724520E+01  0.14213737533E+03  0.18702356819E+03  0.12000000000E+03 0.  0.
<mgrwt>
<rscale>  0 0.24315624E+03</rscale>
<asrwt>0</asrwt>
<pdfrwt beam="1">  1        1 0.51721156E-01 0.24315624E+03</pdfrwt>
<pdfrwt beam="2">  1       -1 0.67641915E-02 0.24315624E+03</pdfrwt>
<totfact> 0.83191466E+03</totfact>
</mgrwt>
</event>
<event>
 4    1  0.1728870E-004  0.2717054E+03  0.7818608E-02  0.1100308E+00
          1   -1    0    0  501    0  0.00000000000E+00  0.00000000000E+00  0.10536557013E+04  0.10536557013E+04  0.00000000000E+00 0. -1.
         -1   -1    0    0    0  501 -0.00000000000E+00 -0.00000000000E+00 -0.17516113477E+02  0.17516113477E+02  0.00000000000E+00 0. -1.
         25    1    1    2    0    0  0.58463929089E+02  0.84945635636E+01  0.42429661415E+03  0.44487954031E+03  0.12000000000E+03 0.  0.
         25    1    1    2    0    0 -0.58463929089E+02 -0.84945635636E+01  0.61184297372E+03  0.62629227451E+03  0.12000000000E+03 0.  0.
<mgrwt>
<rscale>  0 0.27170538E+03</rscale>
<asrwt>0</asrwt>
<pdfrwt beam="1">  1        1 0.16210083E+00 0.27170538E+03</pdfrwt>
<pdfrwt beam="2">  1       -1 0.26947875E-02 0.27170538E+03</pdfrwt>
<totfact> 0.64423626E+03</totfact>
</mgrwt>
</event>
<event>
 4    1  0.1728870E-004  0.2862396E+03  0.7818608E-02  0.1092329E+00
          1   -1    0    0  501    0  0.00000000000E+00  0.00000000000E+00  0.12179908342E+03  0.12179908342E+03  0.00000000000E+00 0. -1.
         -1   -1    0    0    0  501 -0.00000000000E+00 -0.00000000000E+00 -0.16817269559E+03  0.16817269559E+03  0.00000000000E+00 0. -1.
         25    1    1    2    0    0 -0.13719603319E+01  0.45601959676E+02  0.40898267247E+02  0.13473711169E+03  0.12000000000E+03 0.  0.
         25    1    1    2    0    0  0.13719603319E+01 -0.45601959676E+02 -0.87271879416E+02  0.15523466732E+03  0.12000000000E+03 0.  0.
<mgrwt>
<rscale>  0 0.28623962E+03</rscale>
<asrwt>0</asrwt>
<pdfrwt beam="1">  1        1 0.18738321E-01 0.28623962E+03</pdfrwt>
<pdfrwt beam="2">  1       -1 0.25872722E-01 0.28623962E+03</pdfrwt>
<totfact> 0.36403096E+03</totfact>
</mgrwt>
</event>
<event>
 4    1  0.1728870E-004  0.3112296E+03  0.7818608E-02  0.1079758E+00
          4   -1    0    0  501    0  0.00000000000E+00  0.00000000000E+00  0.14066024518E+04  0.14066024518E+04  0.00000000000E+00 0.  1.
         -4   -1    0    0    0  501 -0.00000000000E+00 -0.00000000000E+00 -0.17215922327E+02  0.17215922327E+02  0.00000000000E+00 0.  1.
         25    1    1    2    0    0  0.83528569952E+02  0.18708916849E+02  0.46646016849E+03  0.48919539487E+03  0.12000000000E+03 0.  0.
         25    1    1    2    0    0 -0.83528569952E+02 -0.18708916849E+02  0.92292636095E+03  0.93462297923E+03  0.12000000000E+03 0.  0.
<mgrwt>
<rscale>  0 0.31122955E+03</rscale>
<asrwt>0</asrwt>
<pdfrwt beam="1">  1        4 0.21640029E+00 0.31122955E+03</pdfrwt>
<pdfrwt beam="2">  1       -4 0.26486046E-02 0.31122955E+03</pdfrwt>
<totfact> 0.14085885E+02</totfact>
</mgrwt>
</event>
<event>
 4    1  0.1728870E-004  0.3747128E+03  0.7818608E-02  0.1052905E+00
          2   -1    0    0  501    0  0.00000000000E+00  0.00000000000E+00  0.21122390621E+04  0.21122390621E+04  0.00000000000E+00 0. -1.
         -2   -1    0    0    0  501 -0.00000000000E+00 -0.00000000000E+00 -0.16618586289E+02  0.16618586289E+02  0.00000000000E+00 0. -1.
         25    1    1    2    0    0  0.88776381721E+02 -0.10911268388E+03  0.87589999764E+03  0.89520256345E+03  0.12000000000E+03 0.  0.
         25    1    1    2    0    0 -0.88776381721E+02  0.10911268388E+03  0.12197204782E+04  0.12336550850E+04  0.12000000000E+03 0.  0.
<mgrwt>
<rscale>  0 0.37471283E+03</rscale>
<asrwt>0</asrwt>
<pdfrwt beam="1">  1        2 0.32495964E+00 0.37471283E+03</pdfrwt>
<pdfrwt beam="2">  1       -2 0.25567073E-02 0.37471283E+03</pdfrwt>
<totfact> 0.34710161E+03</totfact>
</mgrwt>
</event>
<event>
 4    1  0.1728870E-004  0.3249035E+03  0.7818608E-02  0.1073414E+00
         -2   -1    0    0    0  501 -0.00000000000E+00  0.00000000000E+00  0.62941953283E+03  0.62941953283E+03  0.00000000000E+00 0. -1.
          2   -1    0    0  501    0  0.00000000000E+00 -0.00000000000E+00 -0.41928425005E+02  0.41928425005E+02  0.00000000000E+00 0. -1.
         25    1    1    2    0    0 -0.20552990599E+02  0.73817919615E+02  0.13211047698E+03  0.19422844490E+03  0.12000000000E+03 0.  0.
         25    1    1    2    0    0  0.20552990599E+02 -0.73817919615E+02  0.45538063085E+03  0.47711951294E+03  0.12000000000E+03 0.  0.
<mgrwt>
<rscale>  0 0.32490349E+03</rscale>
<asrwt>0</asrwt>
<pdfrwt beam="1">  1        2 0.64505274E-02 0.32490349E+03</pdfrwt>
<pdfrwt beam="2">  1       -2 0.96833767E-01 0.32490349E+03</pdfrwt>
<totfact> 0.10427631E+03</totfact>
</mgrwt>
</event>
<event>
 4    1  0.1728870E-004  0.3461062E+03  0.7818608E-02  0.1064225E+00
          2   -1    0    0  501    0  0.00000000000E+00  0.00000000000E+00  0.68164109169E+03  0.68164109169E+03  0.00000000000E+00 0. -1.
         -2   -1    0    0    0  501 -0.00000000000E+00 -0.00000000000E+00 -0.43934217640E+02  0.43934217640E+02  0.00000000000E+00 0. -1.
         25    1    1    2    0    0 -0.30958564712E+02  0.11083820875E+03  0.21823024611E+03  0.27435010765E+03  0.12000000000E+03 0.  0.
         25    1    1    2    0    0  0.30958564712E+02 -0.11083820875E+03  0.41947662794E+03  0.45122520169E+03  0.12000000000E+03 0.  0.
<mgrwt>
<rscale>  0 0.34610616E+03</rscale>
<asrwt>0</asrwt>
<pdfrwt beam="1">  1        2 0.10486785E+00 0.34610616E+03</pdfrwt>
<pdfrwt beam="2">  1       -2 0.67591109E-02 0.34610616E+03</pdfrwt>
<totfact> 0.53526744E+03</totfact>
</mgrwt>
</event>
<event>
 4    1  0.1728870E-004  0.2767200E+03  0.7818608E-02  0.1097494E+00
         -1   -1    0    0    0  501 -0.00000000000E+00  0.00000000000E+00  0.97895722119E+02  0.97895722119E+02  0.00000000000E+00 0. -1.
          1   -1    0    0  501    0  0.00000000000E+00 -0.00000000000E+00 -0.19554974036E+03  0.19554974036E+03  0.00000000000E+00 0. -1.
         25    1    1    2    0    0  0.46193739621E+02  0.41528658415E+02 -0.80373902234E+02  0.15722103934E+03  0.12000000000E+03 0.  0.
         25    1    1    2    0    0 -0.46193739621E+02 -0.41528658415E+02 -0.17280116003E+02  0.13622442314E+03  0.12000000000E+03 0.  0.
<mgrwt>
<rscale>  0 0.27671995E+03</rscale>
<asrwt>0</asrwt>
<pdfrwt beam="1">  1        1 0.30084575E-01 0.27671995E+03</pdfrwt>
<pdfrwt beam="2">  1       -1 0.15060881E-01 0.27671995E+03</pdfrwt>
<totfact> 0.47885654E+03</totfact>
</mgrwt>
</event>
<event>
 4    1  0.1728870E-004  0.3227938E+03  0.7818608E-02  0.1074371E+00
          1   -1    0    0  501    0  0.00000000000E+00  0.00000000000E+00  0.24745386798E+04  0.24745386798E+04  0.00000000000E+00 0. -1.
         -1   -1    0    0    0  501 -0.00000000000E+00 -0.00000000000E+00 -0.10526793718E+02  0.10526793718E+02  0.00000000000E+00 0. -1.
         25    1    1    2    0    0  0.12753557882E+02 -0.10045132528E+03  0.94437878166E+03  0.95734236574E+03  0.12000000000E+03 0.  0.
         25    1    1    2    0    0 -0.12753557882E+02  0.10045132528E+03  0.15196331045E+04  0.15277231078E+04  0.12000000000E+03 0.  0.
<mgrwt>
<rscale>  0 0.32279379E+03</rscale>
<asrwt>0</asrwt>
<pdfrwt beam="1">  1        1 0.38069780E+00 0.32279379E+03</pdfrwt>
<pdfrwt beam="2">  1       -1 0.16195087E-02 0.32279379E+03</pdfrwt>
<totfact> 0.15328939E+03</totfact>
</mgrwt>
</event>
<event>
 4    1  0.1728870E-004  0.3128417E+03  0.7818608E-02  0.1078992E+00
          2   -1    0    0  501    0  0.00000000000E+00  0.00000000000E+00  0.14954478480E+04  0.14954478480E+04  0.00000000000E+00 0.  1.
         -2   -1    0    0    0  501 -0.00000000000E+00 -0.00000000000E+00 -0.16361311740E+02  0.16361311740E+02  0.00000000000E+00 0.  1.
         25    1    1    2    0    0  0.10649185436E+02  0.39923743806E+02  0.11813985410E+04  0.11881960373E+04  0.12000000000E+03 0.  0.
         25    1    1    2    0    0 -0.10649185436E+02 -0.39923743806E+02  0.29768799529E+03  0.32361312243E+03  0.12000000000E+03 0.  0.
<mgrwt>
<rscale>  0 0.31284174E+03</rscale>
<asrwt>0</asrwt>
<pdfrwt beam="1">  1        2 0.23006879E+00 0.31284174E+03</pdfrwt>
<pdfrwt beam="2">  1       -2 0.25171261E-02 0.31284174E+03</pdfrwt>
<totfact> 0.75653805E+03</totfact>
</mgrwt>
</event>
<event>
 4    1  0.1728870E-004  0.2602715E+03  0.7818608E-02  0.1106980E+00
         -2   -1    0    0    0  501 -0.00000000000E+00  0.00000000000E+00  0.19190242650E+02  0.19190242650E+02  0.00000000000E+00 0.  1.
          2   -1    0    0  501    0  0.00000000000E+00 -0.00000000000E+00 -0.88249613294E+03  0.88249613294E+03  0.00000000000E+00 0.  1.
         25    1    1    2    0    0  0.30255598876E+02 -0.33388549654E+02 -0.35379095943E+03  0.37629541518E+03  0.12000000000E+03 0.  0.
         25    1    1    2    0    0 -0.30255598876E+02  0.33388549654E+02 -0.50951493086E+03  0.52539096041E+03  0.12000000000E+03 0.  0.
<mgrwt>
<rscale>  0 0.26027151E+03</rscale>
<asrwt>0</asrwt>
<pdfrwt beam="1">  1        2 0.13576862E+00 0.26027151E+03</pdfrwt>
<pdfrwt beam="2">  1       -2 0.29523454E-02 0.26027151E+03</pdfrwt>
<totfact> 0.13452822E+04</totfact>
</mgrwt>
</event>
<event>
 4    1  0.1728870E-004  0.3254099E+03  0.7818608E-02  0.1073186E+00
          2   -1    0    0  501    0  0.00000000000E+00  0.00000000000E+00  0.75915208999E+03  0.75915208999E+03  0.00000000000E+00 0.  1.
         -2   -1    0    0    0  501 -0.00000000000E+00 -0.00000000000E+00 -0.34871671458E+02  0.34871671458E+02  0.00000000000E+00 0.  1.
         25    1    1    2    0    0  0.22362360408E+00 -0.68712078119E+02  0.15292619031E+03  0.20617424517E+03  0.12000000000E+03 0.  0.
         25    1    1    2    0    0 -0.22362360408E+00  0.68712078119E+02  0.57135422822E+03  0.58784951628E+03  0.12000000000E+03 0.  0.
<mgrwt>
<rscale>  0 0.32540991E+03</rscale>
<asrwt>0</asrwt>
<pdfrwt beam="1">  1        2 0.11679262E+00 0.32540991E+03</pdfrwt>
<pdfrwt beam="2">  1       -2 0.53648731E-02 0.32540991E+03</pdfrwt>
<totfact> 0.66840720E+03</totfact>
</mgrwt>
</event>
<event>
 4    1  0.1728870E-004  0.6528394E+03  0.7818608E-02  0.9801466E-01
         -2   -1    0    0    0  501 -0.00000000000E+00  0.00000000000E+00  0.49925483256E+02  0.49925483256E+02  0.00000000000E+00 0.  1.
          2   -1    0    0  501    0  0.00000000000E+00 -0.00000000000E+00 -0.21341770865E+04  0.21341770865E+04  0.00000000000E+00 0.  1.
         25    1    1    2    0    0  0.42247616771E+02  0.12865879293E+02 -0.20469002138E+04  0.20508902645E+04  0.12000000000E+03 0.  0.
         25    1    1    2    0    0 -0.42247616771E+02 -0.12865879293E+02 -0.37351389485E+02  0.13321230525E+03  0.12000000000E+03 0.  0.
<mgrwt>
<rscale>  0 0.65283941E+03</rscale>
<asrwt>0</asrwt>
<pdfrwt beam="1">  1        2 0.32833503E+00 0.65283941E+03</pdfrwt>
<pdfrwt beam="2">  1       -2 0.76808413E-02 0.65283941E+03</pdfrwt>
<totfact> 0.61074039E+02</totfact>
</mgrwt>
</event>
<event>
 4    1  0.1728870E-004  0.2982612E+03  0.7818608E-02  0.1086113E+00
          2   -1    0    0  501    0  0.00000000000E+00  0.00000000000E+00  0.95577592702E+03  0.95577592702E+03  0.00000000000E+00 0.  1.
         -2   -1    0    0    0  501 -0.00000000000E+00 -0.00000000000E+00 -0.23268990197E+02  0.23268990197E+02  0.00000000000E+00 0.  1.
         25    1    1    2    0    0 -0.39627608645E+02 -0.65022849756E+02  0.31793558761E+03  0.34825472894E+03  0.12000000000E+03 0.  0.
         25    1    1    2    0    0  0.39627608645E+02  0.65022849756E+02  0.61457134921E+03  0.63079018827E+03  0.12000000000E+03 0.  0.
<mgrwt>
<rscale>  0 0.29826123E+03</rscale>
<asrwt>0</asrwt>
<pdfrwt beam="1">  1        2 0.14704242E+00 0.29826123E+03</pdfrwt>
<pdfrwt beam="2">  1       -2 0.35798454E-02 0.29826123E+03</pdfrwt>
<totfact> 0.90961263E+03</totfact>
</mgrwt>
</event>
<event>
 4    1  0.1728870E-004  0.2919787E+03  0.7818608E-02  0.1089321E+00
          4   -1    0    0  501    0  0.00000000000E+00  0.00000000000E+00  0.20940259093E+02  0.20940259093E+02  0.00000000000E+00 0.  1.
         -4   -1    0    0    0  501 -0.00000000000E+00 -0.00000000000E+00 -0.10177947797E+04  0.10177947797E+04  0.00000000000E+00 0.  1.
         25    1    1    2    0    0 -0.58542592582E+02 -0.14949356529E+02 -0.29523516374E+03  0.32436787806E+03  0.12000000000E+03 0.  0.
         25    1    1    2    0    0  0.58542592582E+02  0.14949356529E+02 -0.70161935684E+03  0.71436716071E+03  0.12000000000E+03 0.  0.
<mgrwt>
<rscale>  0 0.29197867E+03</rscale>
<asrwt>0</asrwt>
<pdfrwt beam="1">  1        4 0.32215783E-02 0.29197867E+03</pdfrwt>
<pdfrwt beam="2">  1       -4 0.15658382E+00 0.29197867E+03</pdfrwt>
<totfact> 0.25663029E+02</totfact>
</mgrwt>
</event>
<event>
 4    1  0.1728870E-004  0.2549652E+03  0.7818608E-02  0.1110207E+00
          2   -1    0    0  501    0  0.00000000000E+00  0.00000000000E+00  0.85475688565E+03  0.85475688565E+03  0.00000000000E+00 0. -1.
         -2   -1    0    0    0  501 -0.00000000000E+00 -0.00000000000E+00 -0.19013370685E+02  0.19013370685E+02  0.00000000000E+00 0. -1.
         25    1    1    2    0    0 -0.42485654818E+02  0.22158222560E+01  0.44004665119E+03  0.45809496391E+03  0.12000000000E+03 0.  0.
         25    1    1    2    0    0  0.42485654818E+02 -0.22158222560E+01  0.39569686378E+03  0.41567529243E+03  0.12000000000E+03 0.  0.
<mgrwt>
<rscale>  0 0.25496517E+03</rscale>
<asrwt>0</asrwt>
<pdfrwt beam="1">  1        2 0.13150103E+00 0.25496517E+03</pdfrwt>
<pdfrwt beam="2">  1       -2 0.29251346E-02 0.25496517E+03</pdfrwt>
<totfact> 0.14212234E+04</totfact>
</mgrwt>
</event>
<event>
 4    1  0.1728870E-004  0.4246913E+03  0.7818608E-02  0.1035550E+00
         -2   -1    0    0    0  501 -0.00000000000E+00  0.00000000000E+00  0.51456081493E+02  0.51456081493E+02  0.00000000000E+00 0.  1.
          2   -1    0    0  501    0  0.00000000000E+00 -0.00000000000E+00 -0.87629442115E+03  0.87629442115E+03  0.00000000000E+00 0.  1.
         25    1    1    2    0    0  0.13746419534E+03  0.44418956632E+02 -0.62891061041E+03  0.65635204318E+03  0.12000000000E+03 0.  0.
         25    1    1    2    0    0 -0.13746419534E+03 -0.44418956632E+02 -0.19592772925E+03  0.27139845946E+03  0.12000000000E+03 0.  0.
<mgrwt>
<rscale>  0 0.42469131E+03</rscale>
<asrwt>0</asrwt>
<pdfrwt beam="1">  1        2 0.13481452E+00 0.42469131E+03</pdfrwt>
<pdfrwt beam="2">  1       -2 0.79163207E-02 0.42469131E+03</pdfrwt>
<totfact> 0.30400580E+03</totfact>
</mgrwt>
</event>
<event>
 4    1  0.1728870E-004  0.3945602E+03  0.7818608E-02  0.1045680E+00
          1   -1    0    0  501    0  0.00000000000E+00  0.00000000000E+00  0.59770038987E+03  0.59770038987E+03  0.00000000000E+00 0.  1.
         -1   -1    0    0    0  501 -0.00000000000E+00 -0.00000000000E+00 -0.65115290023E+02  0.65115290023E+02  0.00000000000E+00 0.  1.
         25    1    1    2    0    0  0.56551901048E+02  0.13334316577E+03  0.16632998664E+03  0.25108600484E+03  0.12000000000E+03 0.  0.
         25    1    1    2    0    0 -0.56551901048E+02 -0.13334316577E+03  0.36625511321E+03  0.41172967505E+03  0.12000000000E+03 0.  0.
<mgrwt>
<rscale>  0 0.39456018E+03</rscale>
<asrwt>0</asrwt>
<pdfrwt beam="1">  1        1 0.91953903E-01 0.39456018E+03</pdfrwt>
<pdfrwt beam="2">  1       -1 0.10017737E-01 0.39456018E+03</pdfrwt>
<totfact> 0.21574191E+03</totfact>
</mgrwt>
</event>
<event>
 4    1  0.1728870E-004  0.3142487E+03  0.7818608E-02  0.1078327E+00
          2   -1    0    0  501    0  0.00000000000E+00  0.00000000000E+00  0.20445893928E+04  0.20445893928E+04  0.00000000000E+00 0.  1.
         -2   -1    0    0    0  501 -0.00000000000E+00 -0.00000000000E+00 -0.12074824237E+02  0.12074824237E+02  0.00000000000E+00 0.  1.
         25    1    1    2    0    0  0.72107408296E+02 -0.62817233684E+02  0.79503331726E+03  0.80970578529E+03  0.12000000000E+03 0.  0.
         25    1    1    2    0    0 -0.72107408296E+02  0.62817233684E+02  0.12374812513E+04  0.12469584318E+04  0.12000000000E+03 0.  0.
<mgrwt>
<rscale>  0 0.31424868E+03</rscale>
<asrwt>0</asrwt>
<pdfrwt beam="1">  1        2 0.31455194E+00 0.31424868E+03</pdfrwt>
<pdfrwt beam="2">  1       -2 0.18576669E-02 0.31424868E+03</pdfrwt>
<totfact> 0.60678536E+03</totfact>
</mgrwt>
</event>
<event>
 4    1  0.1728870E-004  0.2447151E+03  0.7818608E-02  0.1116691E+00
          2   -1    0    0  501    0  0.00000000000E+00  0.00000000000E+00  0.93118745202E+03  0.93118745202E+03  0.00000000000E+00 0.  1.
         -2   -1    0    0    0  501 -0.00000000000E+00 -0.00000000000E+00 -0.16077719700E+02  0.16077719700E+02  0.00000000000E+00 0.  1.
         25    1    1    2    0    0  0.51982584699E+01  0.62595317327E+01  0.37055304009E+03  0.38958408482E+03  0.12000000000E+03 0.  0.
         25    1    1    2    0    0 -0.51982584699E+01 -0.62595317327E+01  0.54455669224E+03  0.55768108690E+03  0.12000000000E+03 0.  0.
<mgrwt>
<rscale>  0 0.24471511E+03</rscale>
<asrwt>0</asrwt>
<pdfrwt beam="1">  1        2 0.14325957E+00 0.24471511E+03</pdfrwt>
<pdfrwt beam="2">  1       -2 0.24734961E-02 0.24471511E+03</pdfrwt>
<totfact> 0.16228111E+04</totfact>
</mgrwt>
</event>
<event>
 4    1  0.1728870E-004  0.2655303E+03  0.7818608E-02  0.1103865E+00
         -2   -1    0    0    0  501 -0.00000000000E+00  0.00000000000E+00  0.33946625835E+03  0.33946625835E+03  0.00000000000E+00 0.  1.
          2   -1    0    0  501    0  0.00000000000E+00 -0.00000000000E+00 -0.51924397879E+02  0.51924397879E+02  0.00000000000E+00 0.  1.
         25    1    1    2    0    0  0.26606212801E+01 -0.53406173285E+02  0.17201951666E+03  0.21644863677E+03  0.12000000000E+03 0.  0.
         25    1    1    2    0    0 -0.26606212801E+01  0.53406173285E+02  0.11552234382E+03  0.17494201946E+03  0.12000000000E+03 0.  0.
<mgrwt>
<rscale>  0 0.26553027E+03</rscale>
<asrwt>0</asrwt>
<pdfrwt beam="1">  1        2 0.79883691E-02 0.26553027E+03</pdfrwt>
<pdfrwt beam="2">  1       -2 0.52225577E-01 0.26553027E+03</pdfrwt>
<totfact> 0.29812311E+03</totfact>
</mgrwt>
</event>
<event>
 4    1  0.1728870E-004  0.2701908E+03  0.7818608E-02  0.1101170E+00
         -3   -1    0    0    0  501 -0.00000000000E+00  0.00000000000E+00  0.14995902399E+04  0.14995902399E+04  0.00000000000E+00 0. -1.
          3   -1    0    0  501    0  0.00000000000E+00 -0.00000000000E+00 -0.12170499140E+02  0.12170499140E+02  0.00000000000E+00 0. -1.
         25    1    1    2    0    0 -0.42952756596E+02 -0.44227582051E+02  0.70424775565E+03  0.71705363792E+03  0.12000000000E+03 0.  0.
         25    1    1    2    0    0  0.42952756596E+02  0.44227582051E+02  0.78317198512E+03  0.79470710113E+03  0.12000000000E+03 0.  0.
<mgrwt>
<rscale>  0 0.27019076E+03</rscale>
<asrwt>0</asrwt>
<pdfrwt beam="1">  1        3 0.18723857E-02 0.27019076E+03</pdfrwt>
<pdfrwt beam="2">  1       -3 0.23070604E+00 0.27019076E+03</pdfrwt>
<totfact> 0.28040506E+02</totfact>
</mgrwt>
</event>
<event>
 4    1  0.1728870E-004  0.3305363E+03  0.7818608E-02  0.1070900E+00
         -2   -1    0    0    0  501 -0.00000000000E+00  0.00000000000E+00  0.20224421277E+02  0.20224421277E+02  0.00000000000E+00 0. -1.
          2   -1    0    0  501    0  0.00000000000E+00 -0.00000000000E+00 -0.13505235806E+04  0.13505235806E+04  0.00000000000E+00 0. -1.
         25    1    1    2    0    0 -0.36195016472E+02  0.12239242981E+02 -0.22132535536E+03  0.25464640428E+03  0.12000000000E+03 0.  0.
         25    1    1    2    0    0  0.36195016472E+02 -0.12239242981E+02 -0.11089738039E+04  0.11161015976E+04  0.12000000000E+03 0.  0.
<mgrwt>
<rscale>  0 0.33053628E+03</rscale>
<asrwt>0</asrwt>
<pdfrwt beam="1">  1        2 0.20777283E+00 0.33053628E+03</pdfrwt>
<pdfrwt beam="2">  1       -2 0.31114498E-02 0.33053628E+03</pdfrwt>
<totfact> 0.66181808E+03</totfact>
</mgrwt>
</event>
<event>
 4    1  0.1728870E-004  0.2561786E+03  0.7818608E-02  0.1109461E+00
          1   -1    0    0  501    0  0.00000000000E+00  0.00000000000E+00  0.72384997369E+03  0.72384997369E+03  0.00000000000E+00 0. -1.
         -1   -1    0    0    0  501 -0.00000000000E+00 -0.00000000000E+00 -0.22666119258E+02  0.22666119258E+02  0.00000000000E+00 0. -1.
         25    1    1    2    0    0 -0.41954913022E+02 -0.15403829424E-01  0.39635773739E+03  0.41624472484E+03  0.12000000000E+03 0.  0.
         25    1    1    2    0    0  0.41954913022E+02  0.15403829424E-01  0.30482611704E+03  0.33027136811E+03  0.12000000000E+03 0.  0.
<mgrwt>
<rscale>  0 0.25617861E+03</rscale>
<asrwt>0</asrwt>
<pdfrwt beam="1">  1        1 0.11136152E+00 0.25617861E+03</pdfrwt>
<pdfrwt beam="2">  1       -1 0.34870958E-02 0.25617861E+03</pdfrwt>
<totfact> 0.80481157E+03</totfact>
</mgrwt>
</event>
<event>
 4    1  0.1728870E-004  0.4316483E+03  0.7818608E-02  0.1033341E+00
         -2   -1    0    0    0  501 -0.00000000000E+00  0.00000000000E+00  0.32499759324E+02  0.32499759324E+02  0.00000000000E+00 0. -1.
          2   -1    0    0  501    0  0.00000000000E+00 -0.00000000000E+00 -0.14332430458E+04  0.14332430458E+04  0.00000000000E+00 0. -1.
         25    1    1    2    0    0 -0.11001736804E+03 -0.13055925892E+03 -0.51343870421E+03  0.55422815189E+03  0.12000000000E+03 0.  0.
         25    1    1    2    0    0  0.11001736804E+03  0.13055925892E+03 -0.88730458228E+03  0.91151465325E+03  0.12000000000E+03 0.  0.
<mgrwt>
<rscale>  0 0.43164826E+03</rscale>
<asrwt>0</asrwt>
<pdfrwt beam="1">  1        2 0.22049890E+00 0.43164826E+03</pdfrwt>
<pdfrwt beam="2">  1       -2 0.49999637E-02 0.43164826E+03</pdfrwt>
<totfact> 0.29021007E+03</totfact>
</mgrwt>
</event>
<event>
 4    1  0.1728870E-004  0.2659437E+03  0.7818608E-02  0.1103624E+00
         -2   -1    0    0    0  501 -0.00000000000E+00  0.00000000000E+00  0.70008685555E+02  0.70008685555E+02  0.00000000000E+00 0.  1.
          2   -1    0    0  501    0  0.00000000000E+00 -0.00000000000E+00 -0.25256173727E+03  0.25256173727E+03  0.00000000000E+00 0.  1.
         25    1    1    2    0    0 -0.31201996897E+02 -0.77262928699E+01 -0.14878840994E+03  0.19383304967E+03  0.12000000000E+03 0.  0.
         25    1    1    2    0    0  0.31201996897E+02  0.77262928699E+01 -0.33764641772E+02  0.12873737315E+03  0.12000000000E+03 0.  0.
<mgrwt>
<rscale>  0 0.26594372E+03</rscale>
<asrwt>0</asrwt>
<pdfrwt beam="1">  1        2 0.38855652E-01 0.26594372E+03</pdfrwt>
<pdfrwt beam="2">  1       -2 0.10770567E-01 0.26594372E+03</pdfrwt>
<totfact> 0.76922643E+03</totfact>
</mgrwt>
</event>
<event>
 4    1  0.1728870E-004  0.3799700E+03  0.7818608E-02  0.1050945E+00
          2   -1    0    0  501    0  0.00000000000E+00  0.00000000000E+00  0.80159277987E+03  0.80159277987E+03  0.00000000000E+00 0.  1.
         -2   -1    0    0    0  501 -0.00000000000E+00 -0.00000000000E+00 -0.45028219262E+02  0.45028219262E+02  0.00000000000E+00 0.  1.
         25    1    1    2    0    0 -0.12309201961E+03  0.59254514652E+02  0.50096186973E+03  0.53294046358E+03  0.12000000000E+03 0.  0.
         25    1    1    2    0    0  0.12309201961E+03 -0.59254514652E+02  0.25560269087E+03  0.31368053555E+03  0.12000000000E+03 0.  0.
<mgrwt>
<rscale>  0 0.37996997E+03</rscale>
<asrwt>0</asrwt>
<pdfrwt beam="1">  1        2 0.12332196E+00 0.37996997E+03</pdfrwt>
<pdfrwt beam="2">  1       -2 0.69274190E-02 0.37996997E+03</pdfrwt>
<totfact> 0.42119991E+03</totfact>
</mgrwt>
</event>
<event>
 4    1  0.1728870E-004  0.3268034E+03  0.7818608E-02  0.1072560E+00
          2   -1    0    0  501    0  0.00000000000E+00  0.00000000000E+00  0.11727158430E+04  0.11727158430E+04  0.00000000000E+00 0. -1.
         -2   -1    0    0    0  501 -0.00000000000E+00 -0.00000000000E+00 -0.22767762138E+02  0.22767762138E+02  0.00000000000E+00 0. -1.
         25    1    1    2    0    0 -0.54271505013E+02  0.87666323722E+02  0.42551273088E+03  0.45397341851E+03  0.12000000000E+03 0.  0.
         25    1    1    2    0    0  0.54271505013E+02 -0.87666323722E+02  0.72443534999E+03  0.74151018664E+03  0.12000000000E+03 0.  0.
<mgrwt>
<rscale>  0 0.32680340E+03</rscale>
<asrwt>0</asrwt>
<pdfrwt beam="1">  1        2 0.18041778E+00 0.32680340E+03</pdfrwt>
<pdfrwt beam="2">  1       -2 0.35027335E-02 0.32680340E+03</pdfrwt>
<totfact> 0.69772915E+03</totfact>
</mgrwt>
</event>
<event>
 4    1  0.1728870E-004  0.2481302E+03  0.7818608E-02  0.1114492E+00
         -1   -1    0    0    0  501 -0.00000000000E+00  0.00000000000E+00  0.45450995166E+02  0.45450995166E+02  0.00000000000E+00 0. -1.
          1   -1    0    0  501    0  0.00000000000E+00 -0.00000000000E+00 -0.33865372956E+03  0.33865372956E+03  0.00000000000E+00 0. -1.
         25    1    1    2    0    0 -0.28064465147E+02  0.42936314660E+01 -0.16771887607E+03  0.20817221444E+03  0.12000000000E+03 0.  0.
         25    1    1    2    0    0  0.28064465147E+02 -0.42936314660E+01 -0.12548385832E+03  0.17593251028E+03  0.12000000000E+03 0.  0.
<mgrwt>
<rscale>  0 0.24813020E+03</rscale>
<asrwt>0</asrwt>
<pdfrwt beam="1">  1        1 0.52100573E-01 0.24813020E+03</pdfrwt>
<pdfrwt beam="2">  1       -1 0.69924609E-02 0.24813020E+03</pdfrwt>
<totfact> 0.78455758E+03</totfact>
</mgrwt>
</event>
<event>
 4    1  0.1728870E-004  0.3471768E+03  0.7818608E-02  0.1063780E+00
          1   -1    0    0  501    0  0.00000000000E+00  0.00000000000E+00  0.19993562124E+03  0.19993562124E+03  0.00000000000E+00 0.  1.
         -1   -1    0    0    0  501 -0.00000000000E+00 -0.00000000000E+00 -0.15071315191E+03  0.15071315191E+03  0.00000000000E+00 0.  1.
         25    1    1    2    0    0  0.21868970984E+02  0.58356224491E+02 -0.85331534173E+02  0.15989112406E+03  0.12000000000E+03 0.  0.
         25    1    1    2    0    0 -0.21868970984E+02 -0.58356224491E+02  0.13455400350E+03  0.19075764909E+03  0.12000000000E+03 0.  0.
<mgrwt>
<rscale>  0 0.34717677E+03</rscale>
<asrwt>0</asrwt>
<pdfrwt beam="1">  1        1 0.30759326E-01 0.34717677E+03</pdfrwt>
<pdfrwt beam="2">  1       -1 0.23186639E-01 0.34717677E+03</pdfrwt>
<totfact> 0.23243050E+03</totfact>
</mgrwt>
</event>
<event>
 4    1  0.1728870E-004  0.4445589E+03  0.7818608E-02  0.1029357E+00
          1   -1    0    0  501    0  0.00000000000E+00  0.00000000000E+00  0.81022884572E+03  0.81022884572E+03  0.00000000000E+00 0.  1.
         -1   -1    0    0    0  501 -0.00000000000E+00 -0.00000000000E+00 -0.60980493720E+02  0.60980493720E+02  0.00000000000E+00 0.  1.
         25    1    1    2    0    0  0.15708934155E+03  0.99499639334E+02  0.41530495934E+03  0.47059053189E+03  0.12000000000E+03 0.  0.
         25    1    1    2    0    0 -0.15708934155E+03 -0.99499639334E+02  0.33394339267E+03  0.40061880755E+03  0.12000000000E+03 0.  0.
<mgrwt>
<rscale>  0 0.44455891E+03</rscale>
<asrwt>0</asrwt>
<pdfrwt beam="1">  1        1 0.12465058E+00 0.44455891E+03</pdfrwt>
<pdfrwt beam="2">  1       -1 0.93816150E-02 0.44455891E+03</pdfrwt>
<totfact> 0.15217586E+03</totfact>
</mgrwt>
</event>
<event>
 4    1  0.1728870E-004  0.2483455E+03  0.7818608E-02  0.1114355E+00
          1   -1    0    0  501    0  0.00000000000E+00  0.00000000000E+00  0.11716257535E+04  0.11716257535E+04  0.00000000000E+00 0.  1.
         -1   -1    0    0    0  501 -0.00000000000E+00 -0.00000000000E+00 -0.13160233206E+02  0.13160233206E+02  0.00000000000E+00 0.  1.
         25    1    1    2    0    0 -0.12211102314E+02 -0.28261612226E+02  0.53902311358E+03  0.55307661921E+03  0.12000000000E+03 0.  0.
         25    1    1    2    0    0  0.12211102314E+02  0.28261612226E+02  0.61944240672E+03  0.63170936750E+03  0.12000000000E+03 0.  0.
<mgrwt>
<rscale>  0 0.24834547E+03</rscale>
<asrwt>0</asrwt>
<pdfrwt beam="1">  1        1 0.18025003E+00 0.24834547E+03</pdfrwt>
<pdfrwt beam="2">  1       -1 0.20246522E-02 0.24834547E+03</pdfrwt>
<totfact> 0.80446377E+03</totfact>
</mgrwt>
</event>
<event>
 4    1  0.1728870E-004  0.2815993E+03  0.7818608E-02  0.1094819E+00
          1   -1    0    0  501    0  0.00000000000E+00  0.00000000000E+00  0.93546411936E+03  0.93546411936E+03  0.00000000000E+00 0. -1.
         -1   -1    0    0    0  501 -0.00000000000E+00 -0.00000000000E+00 -0.21192195392E+02  0.21192195392E+02  0.00000000000E+00 0. -1.
         25    1    1    2    0    0  0.70508584112E+02 -0.10896666772E+02  0.51925417827E+03  0.53769424344E+03  0.12000000000E+03 0.  0.
         25    1    1    2    0    0 -0.70508584112E+02  0.10896666772E+02  0.39501774570E+03  0.41896207131E+03  0.12000000000E+03 0.  0.
<mgrwt>
<rscale>  0 0.28159928E+03</rscale>
<asrwt>0</asrwt>
<pdfrwt beam="1">  1        1 0.14391752E+00 0.28159928E+03</pdfrwt>
<pdfrwt beam="2">  1       -1 0.32603385E-02 0.28159928E+03</pdfrwt>
<totfact> 0.59712806E+03</totfact>
</mgrwt>
</event>
<event>
 4    1  0.1728870E-004  0.2676319E+03  0.7818608E-02  0.1102643E+00
          2   -1    0    0  501    0  0.00000000000E+00  0.00000000000E+00  0.26678133084E+04  0.26678133084E+04  0.00000000000E+00 0. -1.
         -2   -1    0    0    0  501 -0.00000000000E+00 -0.00000000000E+00 -0.67121275137E+01  0.67121275137E+01  0.00000000000E+00 0. -1.
         25    1    1    2    0    0  0.50388725791E+01 -0.57151638262E+02  0.14770821922E+04  0.14830588331E+04  0.12000000000E+03 0.  0.
         25    1    1    2    0    0 -0.50388725791E+01  0.57151638262E+02  0.11840189886E+04  0.11914666027E+04  0.12000000000E+03 0.  0.
<mgrwt>
<rscale>  0 0.26763186E+03</rscale>
<asrwt>0</asrwt>
<pdfrwt beam="1">  1        2 0.41043197E+00 0.26763186E+03</pdfrwt>
<pdfrwt beam="2">  1       -2 0.10326371E-02 0.26763186E+03</pdfrwt>
<totfact> 0.65881688E+03</totfact>
</mgrwt>
</event>
<event>
 4    1  0.1728870E-004  0.3948171E+03  0.7818608E-02  0.1045589E+00
         -2   -1    0    0    0  501 -0.00000000000E+00  0.00000000000E+00  0.45345809044E+02  0.45345809044E+02  0.00000000000E+00 0.  1.
          2   -1    0    0  501    0  0.00000000000E+00 -0.00000000000E+00 -0.85939884664E+03  0.85939884664E+03  0.00000000000E+00 0.  1.
         25    1    1    2    0    0 -0.59709588193E+02  0.93631468111E+02 -0.15352172962E+03  0.22427886260E+03  0.12000000000E+03 0.  0.
         25    1    1    2    0    0  0.59709588193E+02 -0.93631468111E+02 -0.66053130798E+03  0.68046579309E+03  0.12000000000E+03 0.  0.
<mgrwt>
<rscale>  0 0.39481710E+03</rscale>
<asrwt>0</asrwt>
<pdfrwt beam="1">  1        2 0.13221521E+00 0.39481710E+03</pdfrwt>
<pdfrwt beam="2">  1       -2 0.69762780E-02 0.39481710E+03</pdfrwt>
<totfact> 0.38041188E+03</totfact>
</mgrwt>
</event>
<event>
 4    1  0.1728870E-004  0.2573479E+03  0.7818608E-02  0.1108747E+00
          1   -1    0    0  501    0  0.00000000000E+00  0.00000000000E+00  0.36154481784E+03  0.36154481784E+03  0.00000000000E+00 0. -1.
         -1   -1    0    0    0  501 -0.00000000000E+00 -0.00000000000E+00 -0.45795129009E+02  0.45795129009E+02  0.00000000000E+00 0. -1.
         25    1    1    2    0    0  0.23901407640E+02  0.37812344548E+02  0.17764073078E+03  0.21899150650E+03  0.12000000000E+03 0.  0.
         25    1    1    2    0    0 -0.23901407640E+02 -0.37812344548E+02  0.13810895805E+03  0.18834844035E+03  0.12000000000E+03 0.  0.
<mgrwt>
<rscale>  0 0.25734795E+03</rscale>
<asrwt>0</asrwt>
<pdfrwt beam="1">  1        1 0.55622278E-01 0.25734795E+03</pdfrwt>
<pdfrwt beam="2">  1       -1 0.70454047E-02 0.25734795E+03</pdfrwt>
<totfact> 0.71504896E+03</totfact>
</mgrwt>
</event>
<event>
 4    1  0.1728870E-004  0.2879869E+03  0.7818608E-02  0.1091405E+00
          2   -1    0    0  501    0  0.00000000000E+00  0.00000000000E+00  0.57072867607E+03  0.57072867607E+03  0.00000000000E+00 0.  1.
         -2   -1    0    0    0  501 -0.00000000000E+00 -0.00000000000E+00 -0.36329201186E+02  0.36329201186E+02  0.00000000000E+00 0.  1.
         25    1    1    2    0    0 -0.42966815680E+02  0.65961406513E+02  0.24252135723E+03  0.28180429931E+03  0.12000000000E+03 0.  0.
         25    1    1    2    0    0  0.42966815680E+02 -0.65961406513E+02  0.29187811765E+03  0.32525357794E+03  0.12000000000E+03 0.  0.
<mgrwt>
<rscale>  0 0.28798692E+03</rscale>
<asrwt>0</asrwt>
<pdfrwt beam="1">  1        2 0.87804405E-01 0.28798692E+03</pdfrwt>
<pdfrwt beam="2">  1       -2 0.55891083E-02 0.28798692E+03</pdfrwt>
<totfact> 0.88065477E+03</totfact>
</mgrwt>
</event>
<event>
 4    1  0.1728870E-004  0.3665925E+03  0.7818608E-02  0.1056004E+00
         -3   -1    0    0    0  501 -0.00000000000E+00  0.00000000000E+00  0.17357207951E+03  0.17357207951E+03  0.00000000000E+00 0. -1.
          3   -1    0    0  501    0  0.00000000000E+00 -0.00000000000E+00 -0.19356520967E+03  0.19356520967E+03  0.00000000000E+00 0. -1.
         25    1    1    2    0    0  0.68168296273E+02  0.33021501173E+02 -0.12618699200E+03  0.18989600603E+03  0.12000000000E+03 0.  0.
         25    1    1    2    0    0 -0.68168296273E+02 -0.33021501173E+02  0.10619386185E+03  0.17724128314E+03  0.12000000000E+03 0.  0.
<mgrwt>
<rscale>  0 0.36659250E+03</rscale>
<asrwt>0</asrwt>
<pdfrwt beam="1">  1        3 0.29779263E-01 0.36659250E+03</pdfrwt>
<pdfrwt beam="2">  1       -3 0.26703397E-01 0.36659250E+03</pdfrwt>
<totfact> 0.37652567E+02</totfact>
</mgrwt>
</event>
<event>
 4    1  0.1728870E-004  0.4396433E+03  0.7818608E-02  0.1030856E+00
          1   -1    0    0  501    0  0.00000000000E+00  0.00000000000E+00  0.42870395143E+03  0.42870395143E+03  0.00000000000E+00 0.  1.
         -1   -1    0    0    0  501 -0.00000000000E+00 -0.00000000000E+00 -0.11271543337E+03  0.11271543337E+03  0.00000000000E+00 0.  1.
         25    1    1    2    0    0  0.11359977986E+03 -0.14486002340E+03  0.16498405513E+03  0.27478914610E+03  0.12000000000E+03 0.  0.
         25    1    1    2    0    0 -0.11359977986E+03  0.14486002340E+03  0.15100446293E+03  0.26663023870E+03  0.12000000000E+03 0.  0.
<mgrwt>
<rscale>  0 0.43964327E+03</rscale>
<asrwt>0</asrwt>
<pdfrwt beam="1">  1        1 0.65954453E-01 0.43964327E+03</pdfrwt>
<pdfrwt beam="2">  1       -1 0.17340836E-01 0.43964327E+03</pdfrwt>
<totfact> 0.14143701E+03</totfact>
</mgrwt>
</event>
<event>
 4    1  0.1728870E-004  0.2629757E+03  0.7818608E-02  0.1105368E+00
         -1   -1    0    0    0  501 -0.00000000000E+00  0.00000000000E+00  0.22349483266E+03  0.22349483266E+03  0.00000000000E+00 0.  1.
          1   -1    0    0  501    0  0.00000000000E+00 -0.00000000000E+00 -0.77357755304E+02  0.77357755304E+02  0.00000000000E+00 0.  1.
         25    1    1    2    0    0  0.38917783314E+02  0.30766726407E+02  0.49404129909E+02  0.13893147003E+03  0.12000000000E+03 0.  0.
         25    1    1    2    0    0 -0.38917783314E+02 -0.30766726407E+02  0.96732947443E+02  0.16192111793E+03  0.12000000000E+03 0.  0.
<mgrwt>
<rscale>  0 0.26297573E+03</rscale>
<asrwt>0</asrwt>
<pdfrwt beam="1">  1        1 0.11901193E-01 0.26297573E+03</pdfrwt>
<pdfrwt beam="2">  1       -1 0.34383820E-01 0.26297573E+03</pdfrwt>
<totfact> 0.40625329E+03</totfact>
</mgrwt>
</event>
<event>
 4    1  0.1728870E-004  0.3526143E+03  0.7818608E-02  0.1061547E+00
          2   -1    0    0  501    0  0.00000000000E+00  0.00000000000E+00  0.40542962792E+03  0.40542962792E+03  0.00000000000E+00 0. -1.
         -2   -1    0    0    0  501 -0.00000000000E+00 -0.00000000000E+00 -0.76669797375E+02  0.76669797375E+02  0.00000000000E+00 0. -1.
         25    1    1    2    0    0 -0.78825647882E+02  0.55330930382E+02  0.28206536008E+03  0.32130337996E+03  0.12000000000E+03 0.  0.
         25    1    1    2    0    0  0.78825647882E+02 -0.55330930382E+02  0.46694470464E+02  0.16079604533E+03  0.12000000000E+03 0.  0.
<mgrwt>
<rscale>  0 0.35261428E+03</rscale>
<asrwt>0</asrwt>
<pdfrwt beam="1">  1        2 0.62373788E-01 0.35261428E+03</pdfrwt>
<pdfrwt beam="2">  1       -2 0.11795354E-01 0.35261428E+03</pdfrwt>
<totfact> 0.40137687E+03</totfact>
</mgrwt>
</event>
<event>
 4    1  0.1728870E-004  0.3147748E+03  0.7818608E-02  0.1078080E+00
          2   -1    0    0  501    0  0.00000000000E+00  0.00000000000E+00  0.24560382073E+03  0.24560382073E+03  0.00000000000E+00 0. -1.
         -2   -1    0    0    0  501 -0.00000000000E+00 -0.00000000000E+00 -0.10085670733E+03  0.10085670733E+03  0.00000000000E+00 0. -1.
         25    1    1    2    0    0  0.50419043879E+02 -0.63442417050E+02  0.44905489550E+01  0.14486954579E+03  0.12000000000E+03 0.  0.
         25    1    1    2    0    0 -0.50419043879E+02  0.63442417050E+02  0.14025656444E+03  0.20159098228E+03  0.12000000000E+03 0.  0.
<mgrwt>
<rscale>  0 0.31477479E+03</rscale>
<asrwt>0</asrwt>
<pdfrwt beam="1">  1        2 0.37785203E-01 0.31477479E+03</pdfrwt>
<pdfrwt beam="2">  1       -2 0.15516417E-01 0.31477479E+03</pdfrwt>
<totfact> 0.43978207E+03</totfact>
</mgrwt>
</event>
<event>
 4    1  0.1728870E-004  0.2975427E+03  0.7818608E-02  0.1086475E+00
         -2   -1    0    0    0  501 -0.00000000000E+00  0.00000000000E+00  0.86955476361E+01  0.86955476361E+01  0.00000000000E+00 0.  1.
          2   -1    0    0  501    0  0.00000000000E+00 -0.00000000000E+00 -0.25453151099E+04  0.25453151099E+04  0.00000000000E+00 0.  1.
         25    1    1    2    0    0  0.70776422209E+02  0.27149895778E+02 -0.16508848408E+04  0.16569753095E+04  0.12000000000E+03 0.  0.
         25    1    1    2    0    0 -0.70776422209E+02 -0.27149895778E+02 -0.88573472152E+03  0.89703534807E+03  0.12000000000E+03 0.  0.
<mgrwt>
<rscale>  0 0.29754266E+03</rscale>
<asrwt>0</asrwt>
<pdfrwt beam="1">  1        2 0.39158678E+00 0.29754266E+03</pdfrwt>
<pdfrwt beam="2">  1       -2 0.13377771E-02 0.29754266E+03</pdfrwt>
<totfact> 0.52796106E+03</totfact>
</mgrwt>
</event>
<event>
 4    1  0.1728870E-004  0.2773967E+03  0.7818608E-02  0.1097119E+00
          1   -1    0    0  501    0  0.00000000000E+00  0.00000000000E+00  0.17419317658E+04  0.17419317658E+04  0.00000000000E+00 0.  1.
         -1   -1    0    0    0  501 -0.00000000000E+00 -0.00000000000E+00 -0.11043623104E+02  0.11043623104E+02  0.00000000000E+00 0.  1.
         25    1    1    2    0    0  0.20097829884E+02 -0.44098428289E+02  0.55019353711E+03  0.56520927312E+03  0.12000000000E+03 0.  0.
         25    1    1    2    0    0 -0.20097829884E+02  0.44098428289E+02  0.11806946056E+04  0.11877661158E+04  0.12000000000E+03 0.  0.
<mgrwt>
<rscale>  0 0.27739674E+03</rscale>
<asrwt>0</asrwt>
<pdfrwt beam="1">  1        1 0.26798929E+00 0.27739674E+03</pdfrwt>
<pdfrwt beam="2">  1       -1 0.16990203E-02 0.27739674E+03</pdfrwt>
<totfact> 0.43205557E+03</totfact>
</mgrwt>
</event>
<event>
 4    1  0.1728870E-004  0.2911852E+03  0.7818608E-02  0.1089732E+00
         -2   -1    0    0    0  501 -0.00000000000E+00  0.00000000000E+00  0.20457548502E+02  0.20457548502E+02  0.00000000000E+00 0. -1.
          2   -1    0    0  501    0  0.00000000000E+00 -0.00000000000E+00 -0.10361558925E+04  0.10361558925E+04  0.00000000000E+00 0. -1.
         25    1    1    2    0    0 -0.35619922849E+02  0.40346624731E+02 -0.28122229881E+03  0.31045548856E+03  0.12000000000E+03 0.  0.
         25    1    1    2    0    0  0.35619922849E+02 -0.40346624731E+02 -0.73447604516E+03  0.74615795241E+03  0.12000000000E+03 0.  0.
<mgrwt>
<rscale>  0 0.29118523E+03</rscale>
<asrwt>0</asrwt>
<pdfrwt beam="1">  1        2 0.15940857E+00 0.29118523E+03</pdfrwt>
<pdfrwt beam="2">  1       -2 0.31473157E-02 0.29118523E+03</pdfrwt>
<totfact> 0.98359146E+03</totfact>
</mgrwt>
</event>
<event>
 4    1  0.1728870E-004  0.3136975E+03  0.7818608E-02  0.1078587E+00
         -3   -1    0    0    0  501 -0.00000000000E+00  0.00000000000E+00  0.20529563527E+04  0.20529563527E+04  0.00000000000E+00 0.  1.
          3   -1    0    0  501    0  0.00000000000E+00 -0.00000000000E+00 -0.11983466390E+02  0.11983466390E+02  0.00000000000E+00 0.  1.
         25    1    1    2    0    0 -0.71299242459E+02  0.46919330511E+02  0.66499481129E+03  0.68110432724E+03  0.12000000000E+03 0.  0.
         25    1    1    2    0    0  0.71299242459E+02 -0.46919330511E+02  0.13759780750E+04  0.13838354918E+04  0.12000000000E+03 0.  0.
<mgrwt>
<rscale>  0 0.31369752E+03</rscale>
<asrwt>0</asrwt>
<pdfrwt beam="1">  1        3 0.18436118E-02 0.31369752E+03</pdfrwt>
<pdfrwt beam="2">  1       -3 0.31583916E+00 0.31369752E+03</pdfrwt>
<totfact> 0.98914762E+01</totfact>
</mgrwt>
</event>
<event>
 4    1  0.1728870E-004  0.3008117E+03  0.7818608E-02  0.1084836E+00
         -1   -1    0    0    0  501 -0.00000000000E+00  0.00000000000E+00  0.76839577161E+02  0.76839577161E+02  0.00000000000E+00 0. -1.
          1   -1    0    0  501    0  0.00000000000E+00 -0.00000000000E+00 -0.29440447417E+03  0.29440447417E+03  0.00000000000E+00 0. -1.
         25    1    1    2    0    0 -0.46379000442E+02  0.77552102629E+02 -0.99499688464E+02  0.18018193114E+03  0.12000000000E+03 0.  0.
         25    1    1    2    0    0  0.46379000442E+02 -0.77552102629E+02 -0.11806520855E+03  0.19106212020E+03  0.12000000000E+03 0.  0.
<mgrwt>
<rscale>  0 0.30081167E+03</rscale>
<asrwt>0</asrwt>
<pdfrwt beam="1">  1        1 0.45292996E-01 0.30081167E+03</pdfrwt>
<pdfrwt beam="2">  1       -1 0.11821473E-01 0.30081167E+03</pdfrwt>
<totfact> 0.42000729E+03</totfact>
</mgrwt>
</event>
<event>
 4    1  0.1728870E-004  0.2742988E+03  0.7818608E-02  0.1098844E+00
         -1   -1    0    0    0  501 -0.00000000000E+00  0.00000000000E+00  0.36133767588E+03  0.36133767588E+03  0.00000000000E+00 0.  1.
          1   -1    0    0  501    0  0.00000000000E+00 -0.00000000000E+00 -0.52056461591E+02  0.52056461591E+02  0.00000000000E+00 0.  1.
         25    1    1    2    0    0 -0.17683784807E+02 -0.55886289874E+02  0.10760653957E+03  0.17150848667E+03  0.12000000000E+03 0.  0.
         25    1    1    2    0    0  0.17683784807E+02  0.55886289874E+02  0.20167467472E+03  0.24188565080E+03  0.12000000000E+03 0.  0.
<mgrwt>
<rscale>  0 0.27429882E+03</rscale>
<asrwt>0</asrwt>
<pdfrwt beam="1">  1        1 0.80086866E-02 0.27429882E+03</pdfrwt>
<pdfrwt beam="2">  1       -1 0.55590410E-01 0.27429882E+03</pdfrwt>
<totfact> 0.29115193E+03</totfact>
</mgrwt>
</event>
<event>
 4    1  0.1728870E-004  0.3137067E+03  0.7818608E-02  0.1078583E+00
          2   -1    0    0  501    0  0.00000000000E+00  0.00000000000E+00  0.44949188804E+02  0.44949188804E+02  0.00000000000E+00 0. -1.
         -2   -1    0    0    0  501 -0.00000000000E+00 -0.00000000000E+00 -0.54735094490E+03  0.54735094490E+03  0.00000000000E+00 0. -1.
         25    1    1    2    0    0 -0.94498585553E+02 -0.35062524376E+02 -0.23873137238E+03  0.28557316304E+03  0.12000000000E+03 0.  0.
         25    1    1    2    0    0  0.94498585553E+02  0.35062524376E+02 -0.26367038371E+03  0.30672697067E+03  0.12000000000E+03 0.  0.
<mgrwt>
<rscale>  0 0.31370675E+03</rscale>
<asrwt>0</asrwt>
<pdfrwt beam="1">  1        2 0.69152600E-02 0.31370675E+03</pdfrwt>
<pdfrwt beam="2">  1       -2 0.84207836E-01 0.31370675E+03</pdfrwt>
<totfact> 0.13078774E+03</totfact>
</mgrwt>
</event>
<event>
 4    1  0.1728870E-004  0.3240172E+03  0.7818608E-02  0.1073815E+00
         -2   -1    0    0    0  501 -0.00000000000E+00  0.00000000000E+00  0.11951246880E+02  0.11951246880E+02  0.00000000000E+00 0. -1.
          2   -1    0    0  501    0  0.00000000000E+00 -0.00000000000E+00 -0.21961545820E+04  0.21961545820E+04  0.00000000000E+00 0. -1.
         25    1    1    2    0    0  0.40718344565E+02 -0.83023810439E+02 -0.70086867275E+03  0.71705497218E+03  0.12000000000E+03 0.  0.
         25    1    1    2    0    0 -0.40718344565E+02  0.83023810439E+02 -0.14833346624E+04  0.14910508567E+04  0.12000000000E+03 0.  0.
<mgrwt>
<rscale>  0 0.32401719E+03</rscale>
<asrwt>0</asrwt>
<pdfrwt beam="1">  1        2 0.33786996E+00 0.32401719E+03</pdfrwt>
<pdfrwt beam="2">  1       -2 0.18386533E-02 0.32401719E+03</pdfrwt>
<totfact> 0.51156264E+03</totfact>
</mgrwt>
</event>
<event>
 4    1  0.1728870E-004  0.3831207E+03  0.7818608E-02  0.1049786E+00
          2   -1    0    0  501    0  0.00000000000E+00  0.00000000000E+00  0.87994396902E+03  0.87994396902E+03  0.00000000000E+00 0.  1.
         -2   -1    0    0    0  501 -0.00000000000E+00 -0.00000000000E+00 -0.41701930137E+02  0.41701930137E+02  0.00000000000E+00 0.  1.
         25    1    1    2    0    0  0.77086707632E+02  0.27914970393E+01  0.11156534067E+03  0.18109935999E+03  0.12000000000E+03 0.  0.
         25    1    1    2    0    0 -0.77086707632E+02 -0.27914970393E+01  0.72667669822E+03  0.74054653917E+03  0.12000000000E+03 0.  0.
<mgrwt>
<rscale>  0 0.38312067E+03</rscale>
<asrwt>0</asrwt>
<pdfrwt beam="1">  1        2 0.13537598E+00 0.38312067E+03</pdfrwt>
<pdfrwt beam="2">  1       -2 0.64156822E-02 0.38312067E+03</pdfrwt>
<totfact> 0.41986372E+03</totfact>
</mgrwt>
</event>
<event>
 4    1  0.1728870E-004  0.2999451E+03  0.7818608E-02  0.1085268E+00
         -2   -1    0    0    0  501 -0.00000000000E+00  0.00000000000E+00  0.13386605166E+02  0.13386605166E+02  0.00000000000E+00 0.  1.
          2   -1    0    0  501    0  0.00000000000E+00 -0.00000000000E+00 -0.16801690191E+04  0.16801690191E+04  0.00000000000E+00 0.  1.
         25    1    1    2    0    0 -0.48123619288E+02  0.56830941014E+02 -0.11182943555E+04  0.11271769622E+04  0.12000000000E+03 0.  0.
         25    1    1    2    0    0  0.48123619288E+02 -0.56830941014E+02 -0.54848805845E+03  0.56637866208E+03  0.12000000000E+03 0.  0.
<mgrwt>
<rscale>  0 0.29994506E+03</rscale>
<asrwt>0</asrwt>
<pdfrwt beam="1">  1        2 0.25848750E+00 0.29994506E+03</pdfrwt>
<pdfrwt beam="2">  1       -2 0.20594781E-02 0.29994506E+03</pdfrwt>
<totfact> 0.81135737E+03</totfact>
</mgrwt>
</event>
<event>
 4    1  0.1728870E-004  0.2661224E+03  0.7818608E-02  0.1103520E+00
          2   -1    0    0  501    0  0.00000000000E+00  0.00000000000E+00  0.13034935388E+04  0.13034935388E+04  0.00000000000E+00 0.  1.
         -2   -1    0    0    0  501 -0.00000000000E+00 -0.00000000000E+00 -0.13582946211E+02  0.13582946211E+02  0.00000000000E+00 0.  1.
         25    1    1    2    0    0 -0.47871700062E+02 -0.10010659188E+02  0.49538241523E+03  0.51205043724E+03  0.12000000000E+03 0.  0.
         25    1    1    2    0    0  0.47871700062E+02  0.10010659188E+02  0.79452817733E+03  0.80502604774E+03  0.12000000000E+03 0.  0.
<mgrwt>
<rscale>  0 0.26612240E+03</rscale>
<asrwt>0</asrwt>
<pdfrwt beam="1">  1        2 0.20053737E+00 0.26612240E+03</pdfrwt>
<pdfrwt beam="2">  1       -2 0.20896851E-02 0.26612240E+03</pdfrwt>
<totfact> 0.12633416E+04</totfact>
</mgrwt>
</event>
<event>
 4    1  0.1728870E-004  0.2569038E+03  0.7818608E-02  0.1109018E+00
         -2   -1    0    0    0  501 -0.00000000000E+00  0.00000000000E+00  0.50857205809E+02  0.50857205809E+02  0.00000000000E+00 0.  1.
          2   -1    0    0  501    0  0.00000000000E+00 -0.00000000000E+00 -0.32443553839E+03  0.32443553839E+03  0.00000000000E+00 0.  1.
         25    1    1    2    0    0 -0.17970351850E+02 -0.15214298311E+02 -0.79360210299E+02  0.14578220535E+03  0.12000000000E+03 0.  0.
         25    1    1    2    0    0  0.17970351850E+02  0.15214298311E+02 -0.19421812228E+03  0.22951053884E+03  0.12000000000E+03 0.  0.
<mgrwt>
<rscale>  0 0.25690376E+03</rscale>
<asrwt>0</asrwt>
<pdfrwt beam="1">  1        2 0.49913161E-01 0.25690376E+03</pdfrwt>
<pdfrwt beam="2">  1       -2 0.78241853E-02 0.25690376E+03</pdfrwt>
<totfact> 0.97148871E+03</totfact>
</mgrwt>
</event>
<event>
 4    1  0.1728870E-004  0.2413812E+03  0.7818608E-02  0.1118876E+00
          2   -1    0    0  501    0  0.00000000000E+00  0.00000000000E+00  0.17103121124E+04  0.17103121124E+04  0.00000000000E+00 0. -1.
         -2   -1    0    0    0  501 -0.00000000000E+00 -0.00000000000E+00 -0.85167013491E+01  0.85167013491E+01  0.00000000000E+00 0. -1.
         25    1    1    2    0    0  0.11467299612E+02 -0.53381823346E+01  0.86866026441E+03  0.87700094078E+03  0.12000000000E+03 0.  0.
         25    1    1    2    0    0 -0.11467299612E+02  0.53381823346E+01  0.83313514659E+03  0.84182787293E+03  0.12000000000E+03 0.  0.
<mgrwt>
<rscale>  0 0.24138117E+03</rscale>
<asrwt>0</asrwt>
<pdfrwt beam="1">  1        2 0.26312467E+00 0.24138117E+03</pdfrwt>
<pdfrwt beam="2">  1       -2 0.13102631E-02 0.24138117E+03</pdfrwt>
<totfact> 0.15108035E+04</totfact>
</mgrwt>
</event>
<event>
 4    1  0.1728870E-004  0.3288207E+03  0.7818608E-02  0.1071660E+00
          2   -1    0    0  501    0  0.00000000000E+00  0.00000000000E+00  0.36003600846E+02  0.36003600846E+02  0.00000000000E+00 0.  1.
         -2   -1    0    0    0  501 -0.00000000000E+00 -0.00000000000E+00 -0.75077955344E+03  0.75077955344E+03  0.00000000000E+00 0.  1.
         25    1    1    2    0    0  0.37177349005E+02  0.10164093931E+02 -0.60999290207E+03  0.62287784088E+03  0.12000000000E+03 0.  0.
         25    1    1    2    0    0 -0.37177349005E+02 -0.10164093931E+02 -0.10478305052E+03  0.16390531340E+03  0.12000000000E+03 0.  0.
<mgrwt>
<rscale>  0 0.32882073E+03</rscale>
<asrwt>0</asrwt>
<pdfrwt beam="1">  1        2 0.55390159E-02 0.32882073E+03</pdfrwt>
<pdfrwt beam="2">  1       -2 0.11550454E+00 0.32882073E+03</pdfrwt>
<totfact> 0.83976238E+02</totfact>
</mgrwt>
</event>
<event>
 4    1  0.1728870E-004  0.2722590E+03  0.7818608E-02  0.1099994E+00
         -1   -1    0    0    0  501 -0.00000000000E+00  0.00000000000E+00  0.37828650330E+02  0.37828650330E+02  0.00000000000E+00 0.  1.
          1   -1    0    0  501    0  0.00000000000E+00 -0.00000000000E+00 -0.48987322247E+03  0.48987322247E+03  0.00000000000E+00 0.  1.
         25    1    1    2    0    0 -0.39741032534E+02 -0.48765407232E+02 -0.25157673500E+03  0.28574161090E+03  0.12000000000E+03 0.  0.
         25    1    1    2    0    0  0.39741032534E+02  0.48765407232E+02 -0.20046783714E+03  0.24196026190E+03  0.12000000000E+03 0.  0.
<mgrwt>
<rscale>  0 0.27225902E+03</rscale>
<asrwt>0</asrwt>
<pdfrwt beam="1">  1        1 0.75365106E-01 0.27225902E+03</pdfrwt>
<pdfrwt beam="2">  1       -1 0.58197927E-02 0.27225902E+03</pdfrwt>
<totfact> 0.64598271E+03</totfact>
</mgrwt>
</event>
<event>
 4    1  0.1728870E-004  0.2696343E+03  0.7818608E-02  0.1101489E+00
          2   -1    0    0  501    0  0.00000000000E+00  0.00000000000E+00  0.15919658618E+04  0.15919658618E+04  0.00000000000E+00 0. -1.
         -2   -1    0    0    0  501 -0.00000000000E+00 -0.00000000000E+00 -0.11417119606E+02  0.11417119606E+02  0.00000000000E+00 0. -1.
         25    1    1    2    0    0  0.15573160845E+02  0.54658373442E+02  0.92917387933E+03  0.93861289100E+03  0.12000000000E+03 0.  0.
         25    1    1    2    0    0 -0.15573160845E+02 -0.54658373442E+02  0.65137486291E+03  0.66477009045E+03  0.12000000000E+03 0.  0.
<mgrwt>
<rscale>  0 0.26963431E+03</rscale>
<asrwt>0</asrwt>
<pdfrwt beam="1">  1        2 0.24491765E+00 0.26963431E+03</pdfrwt>
<pdfrwt beam="2">  1       -2 0.17564812E-02 0.26963431E+03</pdfrwt>
<totfact> 0.11398874E+04</totfact>
</mgrwt>
</event>
<event>
 4    1  0.1728870E-004  0.2779248E+03  0.7818608E-02  0.1096828E+00
          1   -1    0    0  501    0  0.00000000000E+00  0.00000000000E+00  0.60959163714E+03  0.60959163714E+03  0.00000000000E+00 0.  1.
         -1   -1    0    0    0  501 -0.00000000000E+00 -0.00000000000E+00 -0.31677835261E+02  0.31677835261E+02  0.00000000000E+00 0.  1.
         25    1    1    2    0    0  0.57063709111E+02 -0.90866902890E+01  0.38043125249E+03  0.40307167193E+03  0.12000000000E+03 0.  0.
         25    1    1    2    0    0 -0.57063709111E+02  0.90866902890E+01  0.19748254939E+03  0.23819780047E+03  0.12000000000E+03 0.  0.
<mgrwt>
<rscale>  0 0.27792476E+03</rscale>
<asrwt>0</asrwt>
<pdfrwt beam="1">  1        1 0.93783320E-01 0.27792476E+03</pdfrwt>
<pdfrwt beam="2">  1       -1 0.48735136E-02 0.27792476E+03</pdfrwt>
<totfact> 0.62718128E+03</totfact>
</mgrwt>
</event>
<event>
 4    1  0.1728870E-004  0.3898029E+03  0.7818608E-02  0.1047369E+00
          2   -1    0    0  501    0  0.00000000000E+00  0.00000000000E+00  0.66690905409E+03  0.66690905409E+03  0.00000000000E+00 0. -1.
         -2   -1    0    0    0  501 -0.00000000000E+00 -0.00000000000E+00 -0.56959157610E+02  0.56959157610E+02  0.00000000000E+00 0. -1.
         25    1    1    2    0    0  0.10882663595E+03  0.38880132542E+01  0.10386638617E+03  0.19247488022E+03  0.12000000000E+03 0.  0.
         25    1    1    2    0    0 -0.10882663595E+03 -0.38880132542E+01  0.50608351031E+03  0.53139333148E+03  0.12000000000E+03 0.  0.
<mgrwt>
<rscale>  0 0.38980291E+03</rscale>
<asrwt>0</asrwt>
<pdfrwt beam="1">  1        2 0.10260139E+00 0.38980291E+03</pdfrwt>
<pdfrwt beam="2">  1       -2 0.87629478E-02 0.38980291E+03</pdfrwt>
<totfact> 0.36629598E+03</totfact>
</mgrwt>
</event>
<event>
 4    1  0.1728870E-004  0.3643957E+03  0.7818608E-02  0.1056857E+00
         -2   -1    0    0    0  501 -0.00000000000E+00  0.00000000000E+00  0.15440941086E+02  0.15440941086E+02  0.00000000000E+00 0. -1.
          2   -1    0    0  501    0  0.00000000000E+00 -0.00000000000E+00 -0.21498727258E+04  0.21498727258E+04  0.00000000000E+00 0. -1.
         25    1    1    2    0    0 -0.10615737331E+03  0.78506739252E+02 -0.12866242514E+04  0.12989359724E+04  0.12000000000E+03 0.  0.
         25    1    1    2    0    0  0.10615737331E+03 -0.78506739252E+02 -0.84780753326E+03  0.86637769446E+03  0.12000000000E+03 0.  0.
<mgrwt>
<rscale>  0 0.36439571E+03</rscale>
<asrwt>0</asrwt>
<pdfrwt beam="1">  1        2 0.33074953E+00 0.36439571E+03</pdfrwt>
<pdfrwt beam="2">  1       -2 0.23755303E-02 0.36439571E+03</pdfrwt>
<totfact> 0.36993327E+03</totfact>
</mgrwt>
</event>
<event>
 4    1  0.1728870E-004  0.3539820E+03  0.7818608E-02  0.1060992E+00
         -2   -1    0    0    0  501 -0.00000000000E+00  0.00000000000E+00  0.52947973761E+02  0.52947973761E+02  0.00000000000E+00 0.  1.
          2   -1    0    0  501    0  0.00000000000E+00 -0.00000000000E+00 -0.59163378119E+03  0.59163378119E+03  0.00000000000E+00 0.  1.
         25    1    1    2    0    0  0.92573467988E+02  0.44358111918E+02 -0.12380027357E+03  0.20065890662E+03  0.12000000000E+03 0.  0.
         25    1    1    2    0    0 -0.92573467988E+02 -0.44358111918E+02 -0.41488553386E+03  0.44392284833E+03  0.12000000000E+03 0.  0.
<mgrwt>
<rscale>  0 0.35398198E+03</rscale>
<asrwt>0</asrwt>
<pdfrwt beam="1">  1        2 0.91020579E-01 0.35398198E+03</pdfrwt>
<pdfrwt beam="2">  1       -2 0.81458424E-02 0.35398198E+03</pdfrwt>
<totfact> 0.47338363E+03</totfact>
</mgrwt>
</event>
<event>
 4    1  0.1728870E-004  0.3349275E+03  0.7818608E-02  0.1068977E+00
          2   -1    0    0  501    0  0.00000000000E+00  0.00000000000E+00  0.14449328101E+04  0.14449328101E+04  0.00000000000E+00 0.  1.
         -2   -1    0    0    0  501 -0.00000000000E+00 -0.00000000000E+00 -0.19408589982E+02  0.19408589982E+02  0.00000000000E+00 0.  1.
         25    1    1    2    0    0 -0.88133965149E+02 -0.76379584531E+02  0.74132233260E+03  0.75997384005E+03  0.12000000000E+03 0.  0.
         25    1    1    2    0    0  0.88133965149E+02  0.76379584531E+02  0.68420188757E+03  0.70436756008E+03  0.12000000000E+03 0.  0.
<mgrwt>
<rscale>  0 0.33492751E+03</rscale>
<asrwt>0</asrwt>
<pdfrwt beam="1">  1        2 0.22229727E+00 0.33492751E+03</pdfrwt>
<pdfrwt beam="2">  1       -2 0.29859380E-02 0.33492751E+03</pdfrwt>
<totfact> 0.62496403E+03</totfact>
</mgrwt>
</event>
<event>
 4    1  0.1728870E-004  0.2562982E+03  0.7818608E-02  0.1109388E+00
          2   -1    0    0  501    0  0.00000000000E+00  0.00000000000E+00  0.20713671245E+04  0.20713671245E+04  0.00000000000E+00 0. -1.
         -2   -1    0    0    0  501 -0.00000000000E+00 -0.00000000000E+00 -0.79281896479E+01  0.79281896479E+01  0.00000000000E+00 0. -1.
         25    1    1    2    0    0 -0.13949986039E+01  0.44877173945E+02  0.10113813607E+04  0.10194646456E+04  0.12000000000E+03 0.  0.
         25    1    1    2    0    0  0.13949986039E+01 -0.44877173945E+02  0.10520575741E+04  0.10598306686E+04  0.12000000000E+03 0.  0.
<mgrwt>
<rscale>  0 0.25629820E+03</rscale>
<asrwt>0</asrwt>
<pdfrwt beam="1">  1        2 0.31867143E+00 0.25629820E+03</pdfrwt>
<pdfrwt beam="2">  1       -2 0.12197231E-02 0.25629820E+03</pdfrwt>
<totfact> 0.10862591E+04</totfact>
</mgrwt>
</event>
<event>
 4    1  0.1728870E-004  0.2643459E+03  0.7818608E-02  0.1104560E+00
         -2   -1    0    0    0  501 -0.00000000000E+00  0.00000000000E+00  0.26879530775E+03  0.26879530775E+03  0.00000000000E+00 0.  1.
          2   -1    0    0  501    0  0.00000000000E+00 -0.00000000000E+00 -0.64992512883E+02  0.64992512883E+02  0.00000000000E+00 0.  1.
         25    1    1    2    0    0 -0.54288207083E+02  0.33656195288E+01  0.88589367831E+02  0.15876590602E+03  0.12000000000E+03 0.  0.
         25    1    1    2    0    0  0.54288207083E+02 -0.33656195288E+01  0.11521342703E+03  0.17502191460E+03  0.12000000000E+03 0.  0.
<mgrwt>
<rscale>  0 0.26434585E+03</rscale>
<asrwt>0</asrwt>
<pdfrwt beam="1">  1        2 0.99988483E-02 0.26434585E+03</pdfrwt>
<pdfrwt beam="2">  1       -2 0.41353124E-01 0.26434585E+03</pdfrwt>
<totfact> 0.35572092E+03</totfact>
</mgrwt>
</event>
<event>
 4    1  0.1728870E-004  0.2642661E+03  0.7818608E-02  0.1104607E+00
          2   -1    0    0  501    0  0.00000000000E+00  0.00000000000E+00  0.28258654180E+03  0.28258654180E+03  0.00000000000E+00 0.  1.
         -2   -1    0    0    0  501 -0.00000000000E+00 -0.00000000000E+00 -0.61783355666E+02  0.61783355666E+02  0.00000000000E+00 0.  1.
         25    1    1    2    0    0 -0.16887110236E+01 -0.18223765619E+02  0.17841620040E+03  0.21579457348E+03  0.12000000000E+03 0.  0.
         25    1    1    2    0    0  0.16887110236E+01  0.18223765619E+02  0.42386985732E+02  0.12857532398E+03  0.12000000000E+03 0.  0.
<mgrwt>
<rscale>  0 0.26426611E+03</rscale>
<asrwt>0</asrwt>
<pdfrwt beam="1">  1        2 0.43474852E-01 0.26426611E+03</pdfrwt>
<pdfrwt beam="2">  1       -2 0.95051318E-02 0.26426611E+03</pdfrwt>
<totfact> 0.83126924E+03</totfact>
</mgrwt>
</event>
<event>
 4    1  0.1728870E-004  0.3189139E+03  0.7818608E-02  0.1076150E+00
         -3   -1    0    0    0  501 -0.00000000000E+00  0.00000000000E+00  0.12301189718E+04  0.12301189718E+04  0.00000000000E+00 0.  1.
          3   -1    0    0  501    0  0.00000000000E+00 -0.00000000000E+00 -0.20669961993E+02  0.20669961993E+02  0.00000000000E+00 0.  1.
         25    1    1    2    0    0  0.18057072028E+02 -0.87253318036E+01  0.20046403853E+03  0.23449524518E+03  0.12000000000E+03 0.  0.
         25    1    1    2    0    0 -0.18057072028E+02  0.87253318036E+01  0.10089849712E+04  0.10162936886E+04  0.12000000000E+03 0.  0.
<mgrwt>
<rscale>  0 0.31891386E+03</rscale>
<asrwt>0</asrwt>
<pdfrwt beam="1">  1        3 0.31799951E-02 0.31891386E+03</pdfrwt>
<pdfrwt beam="2">  1       -3 0.18924902E+00 0.31891386E+03</pdfrwt>
<totfact> 0.22082443E+02</totfact>
</mgrwt>
</event>
<event>
 4    1  0.1728870E-004  0.3166454E+03  0.7818608E-02  0.1077204E+00
         -2   -1    0    0    0  501 -0.00000000000E+00  0.00000000000E+00  0.17943073877E+03  0.17943073877E+03  0.00000000000E+00 0.  1.
          2   -1    0    0  501    0  0.00000000000E+00 -0.00000000000E+00 -0.13969774830E+03  0.13969774830E+03  0.00000000000E+00 0.  1.
         25    1    1    2    0    0 -0.96998795520E+02 -0.21979859199E+02 -0.81759660784E+01  0.15607282583E+03  0.12000000000E+03 0.  0.
         25    1    1    2    0    0  0.96998795520E+02  0.21979859199E+02  0.47908956553E+02  0.16305566123E+03  0.12000000000E+03 0.  0.
<mgrwt>
<rscale>  0 0.31664535E+03</rscale>
<asrwt>0</asrwt>
<pdfrwt beam="1">  1        2 0.21491961E-01 0.31664535E+03</pdfrwt>
<pdfrwt beam="2">  1       -2 0.27604729E-01 0.31664535E+03</pdfrwt>
<totfact> 0.30438155E+03</totfact>
</mgrwt>
</event>
<event>
 4    1  0.1728870E-004  0.2828746E+03  0.7818608E-02  0.1094129E+00
         -2   -1    0    0    0  501 -0.00000000000E+00  0.00000000000E+00  0.11245015251E+03  0.11245015251E+03  0.00000000000E+00 0.  1.
          2   -1    0    0  501    0  0.00000000000E+00 -0.00000000000E+00 -0.17789667729E+03  0.17789667729E+03  0.00000000000E+00 0.  1.
         25    1    1    2    0    0  0.36526674604E+02 -0.28958665719E+02 -0.92851462075E+02  0.15872679763E+03  0.12000000000E+03 0.  0.
         25    1    1    2    0    0 -0.36526674604E+02  0.28958665719E+02  0.27404937298E+02  0.13162003216E+03  0.12000000000E+03 0.  0.
<mgrwt>
<rscale>  0 0.28287459E+03</rscale>
<asrwt>0</asrwt>
<pdfrwt beam="1">  1        2 0.27368719E-01 0.28287459E+03</pdfrwt>
<pdfrwt beam="2">  1       -2 0.17300024E-01 0.28287459E+03</pdfrwt>
<totfact> 0.52038340E+03</totfact>
</mgrwt>
</event>
<event>
 4    1  0.1728870E-004  0.3410749E+03  0.7818608E-02  0.1066339E+00
         -4   -1    0    0    0  501 -0.00000000000E+00  0.00000000000E+00  0.66316138023E+02  0.66316138023E+02  0.00000000000E+00 0. -1.
          4   -1    0    0  501    0  0.00000000000E+00 -0.00000000000E+00 -0.43855108078E+03  0.43855108078E+03  0.00000000000E+00 0. -1.
         25    1    1    2    0    0  0.88441115270E+02  0.10230542727E+02 -0.30778900331E+03  0.34214114841E+03  0.12000000000E+03 0.  0.
         25    1    1    2    0    0 -0.88441115270E+02 -0.10230542727E+02 -0.64445939444E+02  0.16272607039E+03  0.12000000000E+03 0.  0.
<mgrwt>
<rscale>  0 0.34107485E+03</rscale>
<asrwt>0</asrwt>
<pdfrwt beam="1">  1        4 0.67469393E-01 0.34107485E+03</pdfrwt>
<pdfrwt beam="2">  1       -4 0.10202483E-01 0.34107485E+03</pdfrwt>
<totfact> 0.29019434E+02</totfact>
</mgrwt>
</event>
<event>
 4    1  0.1728870E-004  0.2460966E+03  0.7818608E-02  0.1115797E+00
          1   -1    0    0  501    0  0.00000000000E+00  0.00000000000E+00  0.49355288428E+02  0.49355288428E+02  0.00000000000E+00 0.  1.
         -1   -1    0    0    0  501 -0.00000000000E+00 -0.00000000000E+00 -0.30677322522E+03  0.30677322522E+03  0.00000000000E+00 0.  1.
         25    1    1    2    0    0  0.22659011229E+02  0.74438759664E+01 -0.10972816684E+03  0.16434449391E+03  0.12000000000E+03 0.  0.
         25    1    1    2    0    0 -0.22659011229E+02 -0.74438759664E+01 -0.14768976995E+03  0.19178401974E+03  0.12000000000E+03 0.  0.
<mgrwt>
<rscale>  0 0.24609657E+03</rscale>
<asrwt>0</asrwt>
<pdfrwt beam="1">  1        1 0.75931213E-02 0.24609657E+03</pdfrwt>
<pdfrwt beam="2">  1       -1 0.47195881E-01 0.24609657E+03</pdfrwt>
<totfact> 0.42276476E+03</totfact>
</mgrwt>
</event>
<event>
 4    1  0.1728870E-004  0.3107591E+03  0.7818608E-02  0.1079983E+00
          1   -1    0    0  501    0  0.00000000000E+00  0.00000000000E+00  0.35824642793E+03  0.35824642793E+03  0.00000000000E+00 0.  1.
         -1   -1    0    0    0  501 -0.00000000000E+00 -0.00000000000E+00 -0.67391627503E+02  0.67391627503E+02  0.00000000000E+00 0.  1.
         25    1    1    2    0    0 -0.19401964267E+00 -0.15029946208E+02  0.27904500508E+03  0.30412505945E+03  0.12000000000E+03 0.  0.
         25    1    1    2    0    0  0.19401964267E+00  0.15029946208E+02  0.11809795348E+02  0.12151299598E+03  0.12000000000E+03 0.  0.
<mgrwt>
<rscale>  0 0.31075913E+03</rscale>
<asrwt>0</asrwt>
<pdfrwt beam="1">  1        1 0.55114834E-01 0.31075913E+03</pdfrwt>
<pdfrwt beam="2">  1       -1 0.10367943E-01 0.31075913E+03</pdfrwt>
<totfact> 0.40217194E+03</totfact>
</mgrwt>
</event>
<event>
 4    1  0.1728870E-004  0.3069213E+03  0.7818608E-02  0.1081831E+00
          2   -1    0    0  501    0  0.00000000000E+00  0.00000000000E+00  0.66541741602E+02  0.66541741602E+02  0.00000000000E+00 0. -1.
         -2   -1    0    0    0  501 -0.00000000000E+00 -0.00000000000E+00 -0.35391567084E+03  0.35391567084E+03  0.00000000000E+00 0. -1.
         25    1    1    2    0    0  0.40660799217E+02 -0.54640375081E+02 -0.23569920423E+03  0.27311716544E+03  0.12000000000E+03 0.  0.
         25    1    1    2    0    0 -0.40660799217E+02  0.54640375081E+02 -0.51674725005E+02  0.14734024700E+03  0.12000000000E+03 0.  0.
<mgrwt>
<rscale>  0 0.30692126E+03</rscale>
<asrwt>0</asrwt>
<pdfrwt beam="1">  1        2 0.10237191E-01 0.30692126E+03</pdfrwt>
<pdfrwt beam="2">  1       -2 0.54448564E-01 0.30692126E+03</pdfrwt>
<totfact> 0.20137226E+03</totfact>
</mgrwt>
</event>
<event>
 4    1  0.1728870E-004  0.3069386E+03  0.7818608E-02  0.1081823E+00
         -1   -1    0    0    0  501 -0.00000000000E+00  0.00000000000E+00  0.59177004269E+02  0.59177004269E+02  0.00000000000E+00 0. -1.
          1   -1    0    0  501    0  0.00000000000E+00 -0.00000000000E+00 -0.39800626424E+03  0.39800626424E+03  0.00000000000E+00 0. -1.
         25    1    1    2    0    0 -0.30047538190E+02 -0.83101831625E+02 -0.11480785720E+03  0.18812127218E+03  0.12000000000E+03 0.  0.
         25    1    1    2    0    0  0.30047538190E+02  0.83101831625E+02 -0.22402140277E+03  0.26906199633E+03  0.12000000000E+03 0.  0.
<mgrwt>
<rscale>  0 0.30693855E+03</rscale>
<asrwt>0</asrwt>
<pdfrwt beam="1">  1        1 0.61231733E-01 0.30693855E+03</pdfrwt>
<pdfrwt beam="2">  1       -1 0.91041545E-02 0.30693855E+03</pdfrwt>
<totfact> 0.42965720E+03</totfact>
</mgrwt>
</event>
<event>
 4    1  0.1728870E-004  0.2585877E+03  0.7818608E-02  0.1107995E+00
         -2   -1    0    0    0  501 -0.00000000000E+00  0.00000000000E+00  0.12225182383E+02  0.12225182383E+02  0.00000000000E+00 0.  1.
          2   -1    0    0  501    0  0.00000000000E+00 -0.00000000000E+00 -0.13674147768E+04  0.13674147768E+04  0.00000000000E+00 0.  1.
         25    1    1    2    0    0  0.30421760206E+02 -0.40818397970E+00 -0.47859173530E+03  0.49434370554E+03  0.12000000000E+03 0.  0.
         25    1    1    2    0    0 -0.30421760206E+02  0.40818397970E+00 -0.87659785907E+03  0.88529625360E+03  0.12000000000E+03 0.  0.
<mgrwt>
<rscale>  0 0.25858766E+03</rscale>
<asrwt>0</asrwt>
<pdfrwt beam="1">  1        2 0.21037143E+00 0.25858766E+03</pdfrwt>
<pdfrwt beam="2">  1       -2 0.18807979E-02 0.25858766E+03</pdfrwt>
<totfact> 0.13592210E+04</totfact>
</mgrwt>
</event>
<event>
 4    1  0.1728870E-004  0.2750710E+03  0.7818608E-02  0.1098412E+00
          2   -1    0    0  501    0  0.00000000000E+00  0.00000000000E+00  0.37081353144E+03  0.37081353144E+03  0.00000000000E+00 0.  1.
         -2   -1    0    0    0  501 -0.00000000000E+00 -0.00000000000E+00 -0.51012187155E+02  0.51012187155E+02  0.00000000000E+00 0.  1.
         25    1    1    2    0    0 -0.17104191036E+02 -0.53824584049E+02  0.21575034793E+03  0.25325451986E+03  0.12000000000E+03 0.  0.
         25    1    1    2    0    0  0.17104191036E+02  0.53824584049E+02  0.10405099635E+03  0.16857119873E+03  0.12000000000E+03 0.  0.
<mgrwt>
<rscale>  0 0.27507097E+03</rscale>
<asrwt>0</asrwt>
<pdfrwt beam="1">  1        2 0.57048234E-01 0.27507097E+03</pdfrwt>
<pdfrwt beam="2">  1       -2 0.78480290E-02 0.27507097E+03</pdfrwt>
<totfact> 0.83952979E+03</totfact>
</mgrwt>
</event>
<event>
 4    1  0.1728870E-004  0.2619985E+03  0.7818608E-02  0.1105948E+00
         -1   -1    0    0    0  501 -0.00000000000E+00  0.00000000000E+00  0.14860338734E+03  0.14860338734E+03  0.00000000000E+00 0. -1.
          1   -1    0    0  501    0  0.00000000000E+00 -0.00000000000E+00 -0.11548060175E+03  0.11548060175E+03  0.00000000000E+00 0. -1.
         25    1    1    2    0    0  0.23943114149E+02  0.40950352149E+02  0.39337816670E+02  0.13489873193E+03  0.12000000000E+03 0.  0.
         25    1    1    2    0    0 -0.23943114149E+02 -0.40950352149E+02 -0.62150310807E+01  0.12918525716E+03  0.12000000000E+03 0.  0.
<mgrwt>
<rscale>  0 0.26199854E+03</rscale>
<asrwt>0</asrwt>
<pdfrwt beam="1">  1        1 0.17766246E-01 0.26199854E+03</pdfrwt>
<pdfrwt beam="2">  1       -1 0.22862060E-01 0.26199854E+03</pdfrwt>
<totfact> 0.47760516E+03</totfact>
</mgrwt>
</event>
<event>
 4    1  0.1728870E-004  0.3036006E+03  0.7818608E-02  0.1083454E+00
          2   -1    0    0  501    0  0.00000000000E+00  0.00000000000E+00  0.12925685396E+04  0.12925685396E+04  0.00000000000E+00 0. -1.
         -2   -1    0    0    0  501 -0.00000000000E+00 -0.00000000000E+00 -0.17827555535E+02  0.17827555535E+02  0.00000000000E+00 0. -1.
         25    1    1    2    0    0  0.69558352229E+02 -0.33949008725E+02  0.85966181699E+03  0.87144095563E+03  0.12000000000E+03 0.  0.
         25    1    1    2    0    0 -0.69558352229E+02  0.33949008725E+02  0.41507916707E+03  0.43895513950E+03  0.12000000000E+03 0.  0.
<mgrwt>
<rscale>  0 0.30360064E+03</rscale>
<asrwt>0</asrwt>
<pdfrwt beam="1">  1        2 0.19885663E+00 0.30360064E+03</pdfrwt>
<pdfrwt beam="2">  1       -2 0.27427019E-02 0.30360064E+03</pdfrwt>
<totfact> 0.85929040E+03</totfact>
</mgrwt>
</event>
<event>
 4    1  0.1728870E-004  0.2452746E+03  0.7818608E-02  0.1116328E+00
          1   -1    0    0  501    0  0.00000000000E+00  0.00000000000E+00  0.16553663055E+04  0.16553663055E+04  0.00000000000E+00 0.  1.
         -1   -1    0    0    0  501 -0.00000000000E+00 -0.00000000000E+00 -0.90855431961E+01  0.90855431961E+01  0.00000000000E+00 0.  1.
         25    1    1    2    0    0 -0.20574311115E+01  0.21952007314E+02  0.73898799375E+03  0.74899224198E+03  0.12000000000E+03 0.  0.
         25    1    1    2    0    0  0.20574311115E+01 -0.21952007314E+02  0.90729276853E+03  0.91545960669E+03  0.12000000000E+03 0.  0.
<mgrwt>
<rscale>  0 0.24527456E+03</rscale>
<asrwt>0</asrwt>
<pdfrwt beam="1">  1        1 0.25467150E+00 0.24527456E+03</pdfrwt>
<pdfrwt beam="2">  1       -1 0.13977772E-02 0.24527456E+03</pdfrwt>
<totfact> 0.65274553E+03</totfact>
</mgrwt>
</event>
<event>
 4    1  0.1728870E-004  0.2441854E+03  0.7818608E-02  0.1117036E+00
         -1   -1    0    0    0  501 -0.00000000000E+00  0.00000000000E+00  0.12820534071E+04  0.12820534071E+04  0.00000000000E+00 0.  1.
          1   -1    0    0  501    0  0.00000000000E+00 -0.00000000000E+00 -0.11627152004E+02  0.11627152004E+02  0.00000000000E+00 0.  1.
         25    1    1    2    0    0 -0.16513046440E+02  0.42148709115E+01  0.71310983458E+03  0.72333676944E+03  0.12000000000E+03 0.  0.
         25    1    1    2    0    0  0.16513046440E+02 -0.42148709115E+01  0.55731642050E+03  0.57034378965E+03  0.12000000000E+03 0.  0.
<mgrwt>
<rscale>  0 0.24418542E+03</rscale>
<asrwt>0</asrwt>
<pdfrwt beam="1">  1        1 0.17887936E-02 0.24418542E+03</pdfrwt>
<pdfrwt beam="2">  1       -1 0.19723887E+00 0.24418542E+03</pdfrwt>
<totfact> 0.12315306E+03</totfact>
</mgrwt>
</event>
<event>
 4    1  0.1728870E-004  0.3010071E+03  0.7818608E-02  0.1084738E+00
          2   -1    0    0  501    0  0.00000000000E+00  0.00000000000E+00  0.11778246494E+04  0.11778246494E+04  0.00000000000E+00 0.  1.
         -2   -1    0    0    0  501 -0.00000000000E+00 -0.00000000000E+00 -0.19231485613E+02  0.19231485613E+02  0.00000000000E+00 0.  1.
         25    1    1    2    0    0 -0.88042374306E+02  0.15490876565E+02  0.51518547188E+03  0.53647693088E+03  0.12000000000E+03 0.  0.
         25    1    1    2    0    0  0.88042374306E+02 -0.15490876565E+02  0.64340769194E+03  0.66057920416E+03  0.12000000000E+03 0.  0.
<mgrwt>
<rscale>  0 0.30100709E+03</rscale>
<asrwt>0</asrwt>
<pdfrwt beam="1">  1        2 0.18120374E+00 0.30100709E+03</pdfrwt>
<pdfrwt beam="2">  1       -2 0.29586910E-02 0.30100709E+03</pdfrwt>
<totfact> 0.89099940E+03</totfact>
</mgrwt>
</event>
<event>
 4    1  0.1728870E-004  0.2642936E+03  0.7818608E-02  0.1104591E+00
         -1   -1    0    0    0  501 -0.00000000000E+00  0.00000000000E+00  0.93434280346E+03  0.93434280346E+03  0.00000000000E+00 0. -1.
          1   -1    0    0  501    0  0.00000000000E+00 -0.00000000000E+00 -0.18689897526E+02  0.18689897526E+02  0.00000000000E+00 0. -1.
         25    1    1    2    0    0 -0.50750208832E+02  0.21166794785E+02  0.43526270444E+03  0.45483759604E+03  0.12000000000E+03 0.  0.
         25    1    1    2    0    0  0.50750208832E+02 -0.21166794785E+02  0.48039020149E+03  0.49819510494E+03  0.12000000000E+03 0.  0.
<mgrwt>
<rscale>  0 0.26429356E+03</rscale>
<asrwt>0</asrwt>
<pdfrwt beam="1">  1        1 0.28753696E-02 0.26429356E+03</pdfrwt>
<pdfrwt beam="2">  1       -1 0.14374501E+00 0.26429356E+03</pdfrwt>
<totfact> 0.15264369E+03</totfact>
</mgrwt>
</event>
<event>
 4    1  0.1728870E-004  0.2544895E+03  0.7818608E-02  0.1110500E+00
         -2   -1    0    0    0  501 -0.00000000000E+00  0.00000000000E+00  0.33185694622E+02  0.33185694622E+02  0.00000000000E+00 0. -1.
          2   -1    0    0  501    0  0.00000000000E+00 -0.00000000000E+00 -0.48789794497E+03  0.48789794497E+03  0.00000000000E+00 0. -1.
         25    1    1    2    0    0  0.29064344239E+02 -0.24455620656E+02 -0.26557590954E+03  0.29389347937E+03  0.12000000000E+03 0.  0.
         25    1    1    2    0    0 -0.29064344239E+02  0.24455620656E+02 -0.18913634080E+03  0.22719016022E+03  0.12000000000E+03 0.  0.
<mgrwt>
<rscale>  0 0.25448955E+03</rscale>
<asrwt>0</asrwt>
<pdfrwt beam="1">  1        2 0.75061222E-01 0.25448955E+03</pdfrwt>
<pdfrwt beam="2">  1       -2 0.51054915E-02 0.25448955E+03</pdfrwt>
<totfact> 0.12009677E+04</totfact>
</mgrwt>
</event>
<event>
 4    1  0.1728870E-004  0.2800288E+03  0.7818608E-02  0.1095673E+00
         -2   -1    0    0    0  501 -0.00000000000E+00  0.00000000000E+00  0.91484039765E+01  0.91484039765E+01  0.00000000000E+00 0.  1.
          2   -1    0    0  501    0  0.00000000000E+00 -0.00000000000E+00 -0.21428902574E+04  0.21428902574E+04  0.00000000000E+00 0.  1.
         25    1    1    2    0    0  0.11772310908E+02  0.50006325816E+02 -0.14560725896E+04  0.14619119694E+04  0.12000000000E+03 0.  0.
         25    1    1    2    0    0 -0.11772310908E+02 -0.50006325816E+02 -0.67766926384E+03  0.69012669205E+03  0.12000000000E+03 0.  0.
<mgrwt>
<rscale>  0 0.28002875E+03</rscale>
<asrwt>0</asrwt>
<pdfrwt beam="1">  1        2 0.32967569E+00 0.28002875E+03</pdfrwt>
<pdfrwt beam="2">  1       -2 0.14074456E-02 0.28002875E+03</pdfrwt>
<totfact> 0.80878872E+03</totfact>
</mgrwt>
</event>
<event>
 4    1  0.1728870E-004  0.2878505E+03  0.7818608E-02  0.1091477E+00
          1   -1    0    0  501    0  0.00000000000E+00  0.00000000000E+00  0.19937468972E+04  0.19937468972E+04  0.00000000000E+00 0. -1.
         -1   -1    0    0    0  501 -0.00000000000E+00 -0.00000000000E+00 -0.10389720042E+02  0.10389720042E+02  0.00000000000E+00 0. -1.
         25    1    1    2    0    0  0.24080507174E+02  0.75108879948E+02  0.10589146241E+04  0.10686072224E+04  0.12000000000E+03 0.  0.
         25    1    1    2    0    0 -0.24080507174E+02 -0.75108879948E+02  0.92444255303E+03  0.93552939479E+03  0.12000000000E+03 0.  0.
<mgrwt>
<rscale>  0 0.28785046E+03</rscale>
<asrwt>0</asrwt>
<pdfrwt beam="1">  1        1 0.30672999E+00 0.28785046E+03</pdfrwt>
<pdfrwt beam="2">  1       -1 0.15984201E-02 0.28785046E+03</pdfrwt>
<totfact> 0.32393320E+03</totfact>
</mgrwt>
</event>
<event>
 4    1  0.1728870E-004  0.2633204E+03  0.7818608E-02  0.1105165E+00
          2   -1    0    0  501    0  0.00000000000E+00  0.00000000000E+00  0.27738595030E+04  0.27738595030E+04  0.00000000000E+00 0.  1.
         -2   -1    0    0    0  501 -0.00000000000E+00 -0.00000000000E+00 -0.62492008292E+01  0.62492008292E+01  0.00000000000E+00 0.  1.
         25    1    1    2    0    0  0.15562583547E+02 -0.15457792612E+02  0.19067426501E+04  0.19106409058E+04  0.12000000000E+03 0.  0.
         25    1    1    2    0    0 -0.15562583547E+02  0.15457792612E+02  0.86086765214E+03  0.86946779806E+03  0.12000000000E+03 0.  0.
<mgrwt>
<rscale>  0 0.26332038E+03</rscale>
<asrwt>0</asrwt>
<pdfrwt beam="1">  1        2 0.42674663E+00 0.26332038E+03</pdfrwt>
<pdfrwt beam="2">  1       -2 0.96141773E-03 0.26332038E+03</pdfrwt>
<totfact> 0.63682011E+03</totfact>
</mgrwt>
</event>
<event>
 4    1  0.1728870E-004  0.2502729E+03  0.7818608E-02  0.1113132E+00
         -2   -1    0    0    0  501 -0.00000000000E+00  0.00000000000E+00  0.11374127498E+02  0.11374127498E+02  0.00000000000E+00 0.  1.
          2   -1    0    0  501    0  0.00000000000E+00 -0.00000000000E+00 -0.13767327632E+04  0.13767327632E+04  0.00000000000E+00 0.  1.
         25    1    1    2    0    0  0.32919392207E+02 -0.12879850204E+01 -0.75579655953E+03  0.76597244381E+03  0.12000000000E+03 0.  0.
         25    1    1    2    0    0 -0.32919392207E+02  0.12879850204E+01 -0.60956207615E+03  0.62213444686E+03  0.12000000000E+03 0.  0.
<mgrwt>
<rscale>  0 0.25027292E+03</rscale>
<asrwt>0</asrwt>
<pdfrwt beam="1">  1        2 0.21180511E+00 0.25027292E+03</pdfrwt>
<pdfrwt beam="2">  1       -2 0.17498652E-02 0.25027292E+03</pdfrwt>
<totfact> 0.14917500E+04</totfact>
</mgrwt>
</event>
<event>
 4    1  0.1728870E-004  0.2672720E+03  0.7818608E-02  0.1102851E+00
          1   -1    0    0  501    0  0.00000000000E+00  0.00000000000E+00  0.15758531940E+03  0.15758531940E+03  0.00000000000E+00 0.  1.
         -1   -1    0    0    0  501 -0.00000000000E+00 -0.00000000000E+00 -0.11332639427E+03  0.11332639427E+03  0.00000000000E+00 0.  1.
         25    1    1    2    0    0 -0.20840103892E+02  0.30569034006E+02  0.68466340038E+02  0.14302592593E+03  0.12000000000E+03 0.  0.
         25    1    1    2    0    0  0.20840103892E+02 -0.30569034006E+02 -0.24207414901E+02  0.12788578774E+03  0.12000000000E+03 0.  0.
<mgrwt>
<rscale>  0 0.26727197E+03</rscale>
<asrwt>0</asrwt>
<pdfrwt beam="1">  1        1 0.24243895E-01 0.26727197E+03</pdfrwt>
<pdfrwt beam="2">  1       -1 0.17434830E-01 0.26727197E+03</pdfrwt>
<totfact> 0.49784130E+03</totfact>
</mgrwt>
</event>
<event>
 4    1  0.1728870E-004  0.3040817E+03  0.7818608E-02  0.1083218E+00
          2   -1    0    0  501    0  0.00000000000E+00  0.00000000000E+00  0.13710518548E+03  0.13710518548E+03  0.00000000000E+00 0.  1.
         -2   -1    0    0    0  501 -0.00000000000E+00 -0.00000000000E+00 -0.16860356680E+03  0.16860356680E+03  0.00000000000E+00 0.  1.
         25    1    1    2    0    0 -0.24568531910E+02  0.85658392372E+02 -0.43745098626E+02  0.15573890522E+03  0.12000000000E+03 0.  0.
         25    1    1    2    0    0  0.24568531910E+02 -0.85658392372E+02  0.12246717303E+02  0.14996984706E+03  0.12000000000E+03 0.  0.
<mgrwt>
<rscale>  0 0.30408172E+03</rscale>
<asrwt>0</asrwt>
<pdfrwt beam="1">  1        2 0.21093106E-01 0.30408172E+03</pdfrwt>
<pdfrwt beam="2">  1       -2 0.25939010E-01 0.30408172E+03</pdfrwt>
<totfact> 0.34721046E+03</totfact>
</mgrwt>
</event>
<event>
 4    1  0.1728870E-004  0.2700764E+03  0.7818608E-02  0.1101236E+00
          1   -1    0    0  501    0  0.00000000000E+00  0.00000000000E+00  0.41326681557E+03  0.41326681557E+03  0.00000000000E+00 0. -1.
         -1   -1    0    0    0  501 -0.00000000000E+00 -0.00000000000E+00 -0.44124784216E+02  0.44124784216E+02  0.00000000000E+00 0. -1.
         25    1    1    2    0    0  0.21207152030E+01  0.56592782952E+02  0.14212810628E+03  0.19444186563E+03  0.12000000000E+03 0.  0.
         25    1    1    2    0    0 -0.21207152030E+01 -0.56592782952E+02  0.22701392508E+03  0.26294973416E+03  0.12000000000E+03 0.  0.
<mgrwt>
<rscale>  0 0.27007635E+03</rscale>
<asrwt>0</asrwt>
<pdfrwt beam="1">  1        1 0.63579508E-01 0.27007635E+03</pdfrwt>
<pdfrwt beam="2">  1       -1 0.67884286E-02 0.27007635E+03</pdfrwt>
<totfact> 0.63882081E+03</totfact>
</mgrwt>
</event>
<event>
 4    1  0.1728870E-004  0.2618399E+03  0.7818608E-02  0.1106043E+00
          2   -1    0    0  501    0  0.00000000000E+00  0.00000000000E+00  0.24240956282E+04  0.24240956282E+04  0.00000000000E+00 0.  1.
         -2   -1    0    0    0  501 -0.00000000000E+00 -0.00000000000E+00 -0.70706914336E+01  0.70706914336E+01  0.00000000000E+00 0.  1.
         25    1    1    2    0    0 -0.43313441622E+02  0.21088173068E+02  0.10183940645E+04  0.10265706191E+04  0.12000000000E+03 0.  0.
         25    1    1    2    0    0  0.43313441622E+02 -0.21088173068E+02  0.13986308722E+04  0.14045957006E+04  0.12000000000E+03 0.  0.
<mgrwt>
<rscale>  0 0.26183989E+03</rscale>
<asrwt>0</asrwt>
<pdfrwt beam="1">  1        2 0.37293713E+00 0.26183989E+03</pdfrwt>
<pdfrwt beam="2">  1       -2 0.10878006E-02 0.26183989E+03</pdfrwt>
<totfact> 0.83210565E+03</totfact>
</mgrwt>
</event>
<event>
 4    1  0.1728870E-004  0.3584248E+03  0.7818608E-02  0.1059209E+00
         -2   -1    0    0    0  501 -0.00000000000E+00  0.00000000000E+00  0.19848018796E+02  0.19848018796E+02  0.00000000000E+00 0.  1.
          2   -1    0    0  501    0  0.00000000000E+00 -0.00000000000E+00 -0.16181505741E+04  0.16181505741E+04  0.00000000000E+00 0.  1.
         25    1    1    2    0    0 -0.12594818806E+03 -0.24590474160E+02 -0.63761348558E+03  0.66137628812E+03  0.12000000000E+03 0.  0.
         25    1    1    2    0    0  0.12594818806E+03  0.24590474160E+02 -0.96068906974E+03  0.97662230479E+03  0.12000000000E+03 0.  0.
<mgrwt>
<rscale>  0 0.35842479E+03</rscale>
<asrwt>0</asrwt>
<pdfrwt beam="1">  1        2 0.24894626E+00 0.35842479E+03</pdfrwt>
<pdfrwt beam="2">  1       -2 0.30535412E-02 0.35842479E+03</pdfrwt>
<totfact> 0.48760028E+03</totfact>
</mgrwt>
</event>
<event>
 4    1  0.1728870E-004  0.4094286E+03  0.7818608E-02  0.1040563E+00
          2   -1    0    0  501    0  0.00000000000E+00  0.00000000000E+00  0.12666423325E+04  0.12666423325E+04  0.00000000000E+00 0. -1.
         -2   -1    0    0    0  501 -0.00000000000E+00 -0.00000000000E+00 -0.33085854046E+02  0.33085854046E+02  0.00000000000E+00 0. -1.
         25    1    1    2    0    0 -0.76097722618E+00 -0.11848447423E+02  0.91622890018E+02  0.15144543165E+03  0.12000000000E+03 0.  0.
         25    1    1    2    0    0  0.76097722618E+00  0.11848447423E+02  0.11419335884E+04  0.11482827549E+04  0.12000000000E+03 0.  0.
<mgrwt>
<rscale>  0 0.40942859E+03</rscale>
<asrwt>0</asrwt>
<pdfrwt beam="1">  1        2 0.19486801E+00 0.40942859E+03</pdfrwt>
<pdfrwt beam="2">  1       -2 0.50901324E-02 0.40942859E+03</pdfrwt>
<totfact> 0.34985809E+03</totfact>
</mgrwt>
</event>
<event>
 4    1  0.1728870E-004  0.2643520E+03  0.7818608E-02  0.1104556E+00
          2   -1    0    0  501    0  0.00000000000E+00  0.00000000000E+00  0.42707533861E+03  0.42707533861E+03  0.00000000000E+00 0.  1.
         -2   -1    0    0    0  501 -0.00000000000E+00 -0.00000000000E+00 -0.40907279944E+02  0.40907279944E+02  0.00000000000E+00 0.  1.
         25    1    1    2    0    0  0.15931804945E+02 -0.50875785653E+02  0.16633417042E+03  0.21191796579E+03  0.12000000000E+03 0.  0.
         25    1    1    2    0    0 -0.15931804945E+02  0.50875785653E+02  0.21983388824E+03  0.25606465276E+03  0.12000000000E+03 0.  0.
<mgrwt>
<rscale>  0 0.26435197E+03</rscale>
<asrwt>0</asrwt>
<pdfrwt beam="1">  1        2 0.65703895E-01 0.26435197E+03</pdfrwt>
<pdfrwt beam="2">  1       -2 0.62934280E-02 0.26435197E+03</pdfrwt>
<totfact> 0.10119577E+04</totfact>
</mgrwt>
</event>
<event>
 4    1  0.1728870E-004  0.2579517E+03  0.7818608E-02  0.1108380E+00
         -2   -1    0    0    0  501 -0.00000000000E+00  0.00000000000E+00  0.60675591552E+02  0.60675591552E+02  0.00000000000E+00 0.  1.
          2   -1    0    0  501    0  0.00000000000E+00 -0.00000000000E+00 -0.27415913607E+03  0.27415913607E+03  0.00000000000E+00 0.  1.
         25    1    1    2    0    0 -0.34133065975E+02 -0.20045828799E+02 -0.73196069224E+02  0.14602933265E+03  0.12000000000E+03 0.  0.
         25    1    1    2    0    0  0.34133065975E+02  0.20045828799E+02 -0.14028747529E+03  0.18880539497E+03  0.12000000000E+03 0.  0.
<mgrwt>
<rscale>  0 0.25795168E+03</rscale>
<asrwt>0</asrwt>
<pdfrwt beam="1">  1        2 0.42178329E-01 0.25795168E+03</pdfrwt>
<pdfrwt beam="2">  1       -2 0.93347063E-02 0.25795168E+03</pdfrwt>
<totfact> 0.88276001E+03</totfact>
</mgrwt>
</event>
<event>
 4    1  0.1728870E-004  0.2877378E+03  0.7818608E-02  0.1091536E+00
          1   -1    0    0  501    0  0.00000000000E+00  0.00000000000E+00  0.26985359584E+02  0.26985359584E+02  0.00000000000E+00 0. -1.
         -1   -1    0    0    0  501 -0.00000000000E+00 -0.00000000000E+00 -0.76701817921E+03  0.76701817921E+03  0.00000000000E+00 0. -1.
         25    1    1    2    0    0  0.48650781595E+02 -0.61943210066E+02 -0.34320528268E+03  0.37201307219E+03  0.12000000000E+03 0.  0.
         25    1    1    2    0    0 -0.48650781595E+02  0.61943210066E+02 -0.39682753695E+03  0.42199046661E+03  0.12000000000E+03 0.  0.
<mgrwt>
<rscale>  0 0.28773781E+03</rscale>
<asrwt>0</asrwt>
<pdfrwt beam="1">  1        1 0.41515943E-02 0.28773781E+03</pdfrwt>
<pdfrwt beam="2">  1       -1 0.11800278E+00 0.28773781E+03</pdfrwt>
<totfact> 0.14865915E+03</totfact>
</mgrwt>
</event>
<event>
 4    1  0.1728870E-004  0.2936705E+03  0.7818608E-02  0.1088448E+00
          1   -1    0    0  501    0  0.00000000000E+00  0.00000000000E+00  0.13339755735E+03  0.13339755735E+03  0.00000000000E+00 0.  1.
         -1   -1    0    0    0  501 -0.00000000000E+00 -0.00000000000E+00 -0.16162652775E+03  0.16162652775E+03  0.00000000000E+00 0.  1.
         25    1    1    2    0    0 -0.37086929768E+02  0.59447399926E+02  0.33550499867E+02  0.14295128457E+03  0.12000000000E+03 0.  0.
         25    1    1    2    0    0  0.37086929768E+02 -0.59447399926E+02 -0.61779470270E+02  0.15207280054E+03  0.12000000000E+03 0.  0.
<mgrwt>
<rscale>  0 0.29367045E+03</rscale>
<asrwt>0</asrwt>
<pdfrwt beam="1">  1        1 0.20522701E-01 0.29367045E+03</pdfrwt>
<pdfrwt beam="2">  1       -1 0.24865620E-01 0.29367045E+03</pdfrwt>
<totfact> 0.34604065E+03</totfact>
</mgrwt>
</event>
<event>
 4    1  0.1728870E-004  0.2900706E+03  0.7818608E-02  0.1090312E+00
         -4   -1    0    0    0  501 -0.00000000000E+00  0.00000000000E+00  0.28187378796E+03  0.28187378796E+03  0.00000000000E+00 0.  1.
          4   -1    0    0  501    0  0.00000000000E+00 -0.00000000000E+00 -0.74626442996E+02  0.74626442996E+02  0.00000000000E+00 0.  1.
         25    1    1    2    0    0 -0.93969548526E+01 -0.73756034268E+02  0.62732784374E+02  0.15447866386E+03  0.12000000000E+03 0.  0.
         25    1    1    2    0    0  0.93969548526E+01  0.73756034268E+02  0.14451456059E+03  0.20202156710E+03  0.12000000000E+03 0.  0.
<mgrwt>
<rscale>  0 0.29007060E+03</rscale>
<asrwt>0</asrwt>
<pdfrwt beam="1">  1        4 0.11480991E-01 0.29007060E+03</pdfrwt>
<pdfrwt beam="2">  1       -4 0.43365198E-01 0.29007060E+03</pdfrwt>
<totfact> 0.58580220E+02</totfact>
</mgrwt>
</event>
<event>
 4    1  0.1728870E-004  0.2513469E+03  0.7818608E-02  0.1112457E+00
          1   -1    0    0  501    0  0.00000000000E+00  0.00000000000E+00  0.22539305104E+04  0.22539305104E+04  0.00000000000E+00 0.  1.
         -1   -1    0    0    0  501 -0.00000000000E+00 -0.00000000000E+00 -0.70072302570E+01  0.70072302570E+01  0.00000000000E+00 0.  1.
         25    1    1    2    0    0  0.10478137166E+02 -0.83546083282E+01  0.81001493735E+03  0.81896507225E+03  0.12000000000E+03 0.  0.
         25    1    1    2    0    0 -0.10478137166E+02  0.83546083282E+01  0.14369083428E+04  0.14419726684E+04  0.12000000000E+03 0.  0.
<mgrwt>
<rscale>  0 0.25134685E+03</rscale>
<asrwt>0</asrwt>
<pdfrwt beam="1">  1        1 0.34675796E+00 0.25134685E+03</pdfrwt>
<pdfrwt beam="2">  1       -1 0.10780372E-02 0.25134685E+03</pdfrwt>
<totfact> 0.38878422E+03</totfact>
</mgrwt>
</event>
<event>
 4    1  0.1728870E-004  0.2578076E+03  0.7818608E-02  0.1108468E+00
          1   -1    0    0  501    0  0.00000000000E+00  0.00000000000E+00  0.18617702031E+04  0.18617702031E+04  0.00000000000E+00 0.  1.
         -1   -1    0    0    0  501 -0.00000000000E+00 -0.00000000000E+00 -0.89249429581E+01  0.89249429581E+01  0.00000000000E+00 0.  1.
         25    1    1    2    0    0 -0.26175507610E+02  0.99483159088E+01  0.12010152627E+04  0.12073200849E+04  0.12000000000E+03 0.  0.
         25    1    1    2    0    0  0.26175507610E+02 -0.99483159088E+01  0.65182999743E+03  0.66337506114E+03  0.12000000000E+03 0.  0.
<mgrwt>
<rscale>  0 0.25780762E+03</rscale>
<asrwt>0</asrwt>
<pdfrwt beam="1">  1        1 0.28642588E+00 0.25780762E+03</pdfrwt>
<pdfrwt beam="2">  1       -1 0.13730696E-02 0.25780762E+03</pdfrwt>
<totfact> 0.49222682E+03</totfact>
</mgrwt>
</event>
<event>
 4    1  0.1728870E-004  0.3246580E+03  0.7818608E-02  0.1073525E+00
          3   -1    0    0  501    0  0.00000000000E+00  0.00000000000E+00  0.50648784737E+02  0.50648784737E+02  0.00000000000E+00 0.  1.
         -3   -1    0    0    0  501 -0.00000000000E+00 -0.00000000000E+00 -0.52026333194E+03  0.52026333194E+03  0.00000000000E+00 0.  1.
         25    1    1    2    0    0  0.61259453365E+02  0.64179104635E+02 -0.12249649122E+03  0.19307270252E+03  0.12000000000E+03 0.  0.
         25    1    1    2    0    0 -0.61259453365E+02 -0.64179104635E+02 -0.34711805598E+03  0.37783941415E+03  0.12000000000E+03 0.  0.
<mgrwt>
<rscale>  0 0.32465801E+03</rscale>
<asrwt>0</asrwt>
<pdfrwt beam="1">  1        3 0.77921209E-02 0.32465801E+03</pdfrwt>
<pdfrwt beam="2">  1       -3 0.80040511E-01 0.32465801E+03</pdfrwt>
<totfact> 0.42678939E+02</totfact>
</mgrwt>
</event>
<event>
 4    1  0.1728870E-004  0.2562965E+03  0.7818608E-02  0.1109389E+00
          1   -1    0    0  501    0  0.00000000000E+00  0.00000000000E+00  0.26785311477E+03  0.26785311477E+03  0.00000000000E+00 0.  1.
         -1   -1    0    0    0  501 -0.00000000000E+00 -0.00000000000E+00 -0.61309625220E+02  0.61309625220E+02  0.00000000000E+00 0.  1.
         25    1    1    2    0    0 -0.13682864713E+02 -0.30062652633E+02  0.64084877213E+02  0.13999234035E+03  0.12000000000E+03 0.  0.
         25    1    1    2    0    0  0.13682864713E+02  0.30062652633E+02  0.14245861234E+03  0.18917039964E+03  0.12000000000E+03 0.  0.
<mgrwt>
<rscale>  0 0.25629650E+03</rscale>
<asrwt>0</asrwt>
<pdfrwt beam="1">  1        1 0.41208171E-01 0.25629650E+03</pdfrwt>
<pdfrwt beam="2">  1       -1 0.94322502E-02 0.25629650E+03</pdfrwt>
<totfact> 0.66790493E+03</totfact>
</mgrwt>
</event>
<event>
 4    1  0.1728870E-004  0.2735222E+03  0.7818608E-02  0.1099281E+00
          2   -1    0    0  501    0  0.00000000000E+00  0.00000000000E+00  0.10077002576E+03  0.10077002576E+03  0.00000000000E+00 0.  1.
         -2   -1    0    0    0  501 -0.00000000000E+00 -0.00000000000E+00 -0.18560676510E+03  0.18560676510E+03  0.00000000000E+00 0.  1.
         25    1    1    2    0    0 -0.13379852210E+02  0.12595288384E+02 -0.10835369138E+03  0.16272118538E+03  0.12000000000E+03 0.  0.
         25    1    1    2    0    0  0.13379852210E+02 -0.12595288384E+02  0.23516952041E+02  0.12365560549E+03  0.12000000000E+03 0.  0.
<mgrwt>
<rscale>  0 0.27352220E+03</rscale>
<asrwt>0</asrwt>
<pdfrwt beam="1">  1        2 0.15503081E-01 0.27352220E+03</pdfrwt>
<pdfrwt beam="2">  1       -2 0.28554887E-01 0.27352220E+03</pdfrwt>
<totfact> 0.41670844E+03</totfact>
</mgrwt>
</event>
<event>
 4    1  0.1728870E-004  0.4293174E+03  0.7818608E-02  0.1034076E+00
         -1   -1    0    0    0  501 -0.00000000000E+00  0.00000000000E+00  0.34963348426E+02  0.34963348426E+02  0.00000000000E+00 0.  1.
          1   -1    0    0  501    0  0.00000000000E+00 -0.00000000000E+00 -0.13179044165E+04  0.13179044165E+04  0.00000000000E+00 0.  1.
         25    1    1    2    0    0  0.16267790959E+03  0.72208096568E+02 -0.64301375099E+03  0.67789733400E+03  0.12000000000E+03 0.  0.
         25    1    1    2    0    0 -0.16267790959E+03 -0.72208096568E+02 -0.63992731711E+03  0.67497043095E+03  0.12000000000E+03 0.  0.
<mgrwt>
<rscale>  0 0.42931737E+03</rscale>
<asrwt>0</asrwt>
<pdfrwt beam="1">  1        1 0.20275451E+00 0.42931737E+03</pdfrwt>
<pdfrwt beam="2">  1       -1 0.53789770E-02 0.42931737E+03</pdfrwt>
<totfact> 0.14899404E+03</totfact>
</mgrwt>
</event>
<event>
 4    1  0.1728870E-004  0.2722677E+03  0.7818608E-02  0.1099989E+00
          1   -1    0    0  501    0  0.00000000000E+00  0.00000000000E+00  0.44011486361E+03  0.44011486361E+03  0.00000000000E+00 0.  1.
         -1   -1    0    0    0  501 -0.00000000000E+00 -0.00000000000E+00 -0.42108164573E+02  0.42108164573E+02  0.00000000000E+00 0.  1.
         25    1    1    2    0    0 -0.22412875122E+02  0.14163294003E+02  0.30272436309E+03  0.32671849638E+03  0.12000000000E+03 0.  0.
         25    1    1    2    0    0  0.22412875122E+02 -0.14163294003E+02  0.95282335951E+02  0.15550453181E+03  0.12000000000E+03 0.  0.
<mgrwt>
<rscale>  0 0.27226773E+03</rscale>
<asrwt>0</asrwt>
<pdfrwt beam="1">  1        1 0.67709976E-01 0.27226773E+03</pdfrwt>
<pdfrwt beam="2">  1       -1 0.64781795E-02 0.27226773E+03</pdfrwt>
<totfact> 0.63228925E+03</totfact>
</mgrwt>
</event>
<event>
 4    1  0.1728870E-004  0.5560035E+03  0.7818608E-02  0.1000114E+00
         -2   -1    0    0    0  501 -0.00000000000E+00  0.00000000000E+00  0.77821933002E+02  0.77821933002E+02  0.00000000000E+00 0.  1.
          2   -1    0    0  501    0  0.00000000000E+00 -0.00000000000E+00 -0.99310020383E+03  0.99310020383E+03  0.00000000000E+00 0.  1.
         25    1    1    2    0    0 -0.15981045836E+03 -0.17899339262E+03 -0.59795386970E+03  0.65538297772E+03  0.12000000000E+03 0.  0.
         25    1    1    2    0    0  0.15981045836E+03  0.17899339262E+03 -0.31732440113E+03  0.41553915911E+03  0.12000000000E+03 0.  0.
<mgrwt>
<rscale>  0 0.55600352E+03</rscale>
<asrwt>0</asrwt>
<pdfrwt beam="1">  1        2 0.15278464E+00 0.55600352E+03</pdfrwt>
<pdfrwt beam="2">  1       -2 0.11972606E-01 0.55600352E+03</pdfrwt>
<totfact> 0.13099086E+03</totfact>
</mgrwt>
</event>
<event>
 4    1  0.1728870E-004  0.2458086E+03  0.7818608E-02  0.1115983E+00
         -2   -1    0    0    0  501 -0.00000000000E+00  0.00000000000E+00  0.26115959963E+02  0.26115959963E+02  0.00000000000E+00 0.  1.
          2   -1    0    0  501    0  0.00000000000E+00 -0.00000000000E+00 -0.57839971234E+03  0.57839971234E+03  0.00000000000E+00 0.  1.
         25    1    1    2    0    0 -0.19613550956E+02  0.17756953419E+02 -0.27039377602E+03  0.29700638863E+03  0.12000000000E+03 0.  0.
         25    1    1    2    0    0  0.19613550956E+02 -0.17756953419E+02 -0.28188997637E+03  0.30750928368E+03  0.12000000000E+03 0.  0.
<mgrwt>
<rscale>  0 0.24580857E+03</rscale>
<asrwt>0</asrwt>
<pdfrwt beam="1">  1        2 0.88984556E-01 0.24580857E+03</pdfrwt>
<pdfrwt beam="2">  1       -2 0.40178407E-02 0.24580857E+03</pdfrwt>
<totfact> 0.14207946E+04</totfact>
</mgrwt>
</event>
<event>
 4    1  0.1728870E-004  0.3869501E+03  0.7818608E-02  0.1048394E+00
         -1   -1    0    0    0  501 -0.00000000000E+00  0.00000000000E+00  0.27109980697E+02  0.27109980697E+02  0.00000000000E+00 0.  1.
          1   -1    0    0  501    0  0.00000000000E+00 -0.00000000000E+00 -0.13807680233E+04  0.13807680233E+04  0.00000000000E+00 0.  1.
         25    1    1    2    0    0  0.15052987414E+03 -0.74903130725E+01 -0.61202400983E+03  0.64162975025E+03  0.12000000000E+03 0.  0.
         25    1    1    2    0    0 -0.15052987414E+03  0.74903130725E+01 -0.74163403276E+03  0.76624825373E+03  0.12000000000E+03 0.  0.
<mgrwt>
<rscale>  0 0.38695010E+03</rscale>
<asrwt>0</asrwt>
<pdfrwt beam="1">  1        1 0.21242589E+00 0.38695010E+03</pdfrwt>
<pdfrwt beam="2">  1       -1 0.41707654E-02 0.38695010E+03</pdfrwt>
<totfact> 0.19845401E+03</totfact>
</mgrwt>
</event>
<event>
 4    1  0.1728870E-004  0.2845524E+03  0.7818608E-02  0.1093228E+00
          1   -1    0    0  501    0  0.00000000000E+00  0.00000000000E+00  0.33007333269E+03  0.33007333269E+03  0.00000000000E+00 0. -1.
         -1   -1    0    0    0  501 -0.00000000000E+00 -0.00000000000E+00 -0.61327320827E+02  0.61327320827E+02  0.00000000000E+00 0. -1.
         25    1    1    2    0    0  0.33519673664E+02  0.68637684090E+02  0.13052826200E+03  0.19306042417E+03  0.12000000000E+03 0.  0.
         25    1    1    2    0    0 -0.33519673664E+02 -0.68637684090E+02  0.13821774986E+03  0.19834022934E+03  0.12000000000E+03 0.  0.
<mgrwt>
<rscale>  0 0.28455237E+03</rscale>
<asrwt>0</asrwt>
<pdfrwt beam="1">  1        1 0.50780512E-01 0.28455237E+03</pdfrwt>
<pdfrwt beam="2">  1       -1 0.94349726E-02 0.28455237E+03</pdfrwt>
<totfact> 0.51523805E+03</totfact>
</mgrwt>
</event>
<event>
 4    1  0.1728870E-004  0.3434657E+03  0.7818608E-02  0.1065329E+00
         -3   -1    0    0    0  501 -0.00000000000E+00  0.00000000000E+00  0.51075207849E+02  0.51075207849E+02  0.00000000000E+00 0. -1.
          3   -1    0    0  501    0  0.00000000000E+00 -0.00000000000E+00 -0.57742648293E+03  0.57742648293E+03  0.00000000000E+00 0. -1.
         25    1    1    2    0    0 -0.40490888725E+02 -0.11076688342E+03 -0.20022762166E+03  0.26153377413E+03  0.12000000000E+03 0.  0.
         25    1    1    2    0    0  0.40490888725E+02  0.11076688342E+03 -0.32612365341E+03  0.36696791665E+03  0.12000000000E+03 0.  0.
<mgrwt>
<rscale>  0 0.34346573E+03</rscale>
<asrwt>0</asrwt>
<pdfrwt beam="1">  1        3 0.88834840E-01 0.34346573E+03</pdfrwt>
<pdfrwt beam="2">  1       -3 0.78577246E-02 0.34346573E+03</pdfrwt>
<totfact> 0.33585025E+02</totfact>
</mgrwt>
</event>
<event>
 4    1  0.1728870E-004  0.3581495E+03  0.7818608E-02  0.1059319E+00
         -2   -1    0    0    0  501 -0.00000000000E+00  0.00000000000E+00  0.12119272646E+03  0.12119272646E+03  0.00000000000E+00 0. -1.
          2   -1    0    0  501    0  0.00000000000E+00 -0.00000000000E+00 -0.26460145856E+03  0.26460145856E+03  0.00000000000E+00 0. -1.
         25    1    1    2    0    0  0.34084457378E+02 -0.11428948391E+03 -0.13491917238E+03  0.21639551623E+03  0.12000000000E+03 0.  0.
         25    1    1    2    0    0 -0.34084457378E+02  0.11428948391E+03 -0.84895597197E+01  0.16939866880E+03  0.12000000000E+03 0.  0.
<mgrwt>
<rscale>  0 0.35814953E+03</rscale>
<asrwt>0</asrwt>
<pdfrwt beam="1">  1        2 0.40707916E-01 0.35814953E+03</pdfrwt>
<pdfrwt beam="2">  1       -2 0.18645035E-01 0.35814953E+03</pdfrwt>
<totfact> 0.29853832E+03</totfact>
</mgrwt>
</event>
<event>
 4    1  0.1728870E-004  0.2710548E+03  0.7818608E-02  0.1100677E+00
          1   -1    0    0  501    0  0.00000000000E+00  0.00000000000E+00  0.12855057241E+03  0.12855057241E+03  0.00000000000E+00 0.  1.
         -1   -1    0    0    0  501 -0.00000000000E+00 -0.00000000000E+00 -0.14288288242E+03  0.14288288242E+03  0.00000000000E+00 0.  1.
         25    1    1    2    0    0 -0.86295750142E+01  0.36585881408E+02  0.43448295615E+02  0.13304416814E+03  0.12000000000E+03 0.  0.
         25    1    1    2    0    0  0.86295750142E+01 -0.36585881408E+02 -0.57780605627E+02  0.13838928669E+03  0.12000000000E+03 0.  0.
<mgrwt>
<rscale>  0 0.27105480E+03</rscale>
<asrwt>0</asrwt>
<pdfrwt beam="1">  1        1 0.19777011E-01 0.27105480E+03</pdfrwt>
<pdfrwt beam="2">  1       -1 0.21981982E-01 0.27105480E+03</pdfrwt>
<totfact> 0.44397336E+03</totfact>
</mgrwt>
</event>
<event>
 4    1  0.1728870E-004  0.2539441E+03  0.7818608E-02  0.1110837E+00
          2   -1    0    0  501    0  0.00000000000E+00  0.00000000000E+00  0.46811746818E+03  0.46811746818E+03  0.00000000000E+00 0. -1.
         -2   -1    0    0    0  501 -0.00000000000E+00 -0.00000000000E+00 -0.34439868754E+02  0.34439868754E+02  0.00000000000E+00 0. -1.
         25    1    1    2    0    0 -0.20421897141E+02  0.19187302066E+02  0.27740735105E+03  0.30354578709E+03  0.12000000000E+03 0.  0.
         25    1    1    2    0    0  0.20421897141E+02 -0.19187302066E+02  0.15627024837E+03  0.19901154984E+03  0.12000000000E+03 0.  0.
<mgrwt>
<rscale>  0 0.25394412E+03</rscale>
<asrwt>0</asrwt>
<pdfrwt beam="1">  1        2 0.72018067E-01 0.25394412E+03</pdfrwt>
<pdfrwt beam="2">  1       -2 0.52984417E-02 0.25394412E+03</pdfrwt>
<totfact> 0.11882731E+04</totfact>
</mgrwt>
</event>
<event>
 4    1  0.1728870E-004  0.3224374E+03  0.7818608E-02  0.1074533E+00
          1   -1    0    0  501    0  0.00000000000E+00  0.00000000000E+00  0.38234307991E+02  0.38234307991E+02  0.00000000000E+00 0. -1.
         -1   -1    0    0    0  501 -0.00000000000E+00 -0.00000000000E+00 -0.67979456064E+03  0.67979456064E+03  0.00000000000E+00 0. -1.
         25    1    1    2    0    0 -0.57734895838E+02 -0.86321627930E+02 -0.38403024571E+03  0.41552854446E+03  0.12000000000E+03 0.  0.
         25    1    1    2    0    0  0.57734895838E+02  0.86321627930E+02 -0.25753000694E+03  0.30250032416E+03  0.12000000000E+03 0.  0.
<mgrwt>
<rscale>  0 0.32243743E+03</rscale>
<asrwt>0</asrwt>
<pdfrwt beam="1">  1        1 0.58822015E-02 0.32243743E+03</pdfrwt>
<pdfrwt beam="2">  1       -1 0.10458377E+00 0.32243743E+03</pdfrwt>
<totfact> 0.12127335E+03</totfact>
</mgrwt>
</event>
<event>
 4    1  0.1728870E-004  0.2704930E+03  0.7818608E-02  0.1100998E+00
         -2   -1    0    0    0  501 -0.00000000000E+00  0.00000000000E+00  0.15617252463E+02  0.15617252463E+02  0.00000000000E+00 0.  1.
          2   -1    0    0  501    0  0.00000000000E+00 -0.00000000000E+00 -0.11712438724E+04  0.11712438724E+04  0.00000000000E+00 0.  1.
         25    1    1    2    0    0  0.11742386904E+02  0.29479694315E+02 -0.34214977378E+03  0.36396895984E+03  0.12000000000E+03 0.  0.
         25    1    1    2    0    0 -0.11742386904E+02 -0.29479694315E+02 -0.81347684615E+03  0.82289216502E+03  0.12000000000E+03 0.  0.
<mgrwt>
<rscale>  0 0.27049297E+03</rscale>
<asrwt>0</asrwt>
<pdfrwt beam="1">  1        2 0.18019143E+00 0.27049297E+03</pdfrwt>
<pdfrwt beam="2">  1       -2 0.24026533E-02 0.27049297E+03</pdfrwt>
<totfact> 0.12209220E+04</totfact>
</mgrwt>
</event>
<event>
 4    1  0.1728870E-004  0.2481139E+03  0.7818608E-02  0.1114503E+00
         -2   -1    0    0    0  501 -0.00000000000E+00  0.00000000000E+00  0.42845197376E+03  0.42845197376E+03  0.00000000000E+00 0. -1.
          2   -1    0    0  501    0  0.00000000000E+00 -0.00000000000E+00 -0.35920305261E+02  0.35920305261E+02  0.00000000000E+00 0. -1.
         25    1    1    2    0    0 -0.13093335087E+02 -0.24613179164E+02  0.22357348544E+03  0.25526916658E+03  0.12000000000E+03 0.  0.
         25    1    1    2    0    0  0.13093335087E+02  0.24613179164E+02  0.16895818306E+03  0.20910311245E+03  0.12000000000E+03 0.  0.
<mgrwt>
<rscale>  0 0.24811389E+03</rscale>
<asrwt>0</asrwt>
<pdfrwt beam="1">  1        2 0.55262011E-02 0.24811389E+03</pdfrwt>
<pdfrwt beam="2">  1       -2 0.65915684E-01 0.24811389E+03</pdfrwt>
<totfact> 0.29625726E+03</totfact>
</mgrwt>
</event>
<event>
 4    1  0.1728870E-004  0.2752485E+03  0.7818608E-02  0.1098313E+00
         -2   -1    0    0    0  501 -0.00000000000E+00  0.00000000000E+00  0.33177946643E+02  0.33177946643E+02  0.00000000000E+00 0.  1.
          2   -1    0    0  501    0  0.00000000000E+00 -0.00000000000E+00 -0.57087418008E+03  0.57087418008E+03  0.00000000000E+00 0.  1.
         25    1    1    2    0    0  0.54335447855E+02  0.12865621010E+02 -0.18607563333E+03  0.22834624240E+03  0.12000000000E+03 0.  0.
         25    1    1    2    0    0 -0.54335447855E+02 -0.12865621010E+02 -0.35162060011E+03  0.37570588433E+03  0.12000000000E+03 0.  0.
<mgrwt>
<rscale>  0 0.27524849E+03</rscale>
<asrwt>0</asrwt>
<pdfrwt beam="1">  1        2 0.87826801E-01 0.27524849E+03</pdfrwt>
<pdfrwt beam="2">  1       -2 0.51042993E-02 0.27524849E+03</pdfrwt>
<totfact> 0.10094934E+04</totfact>
</mgrwt>
</event>
<event>
 4    1  0.1728870E-004  0.2982315E+03  0.7818608E-02  0.1086128E+00
          1   -1    0    0  501    0  0.00000000000E+00  0.00000000000E+00  0.13640559343E+04  0.13640559343E+04  0.00000000000E+00 0. -1.
         -1   -1    0    0    0  501 -0.00000000000E+00 -0.00000000000E+00 -0.16301026950E+02  0.16301026950E+02  0.00000000000E+00 0. -1.
         25    1    1    2    0    0  0.84369679090E+01  0.67381772333E+02  0.93668459878E+03  0.94677849747E+03  0.12000000000E+03 0.  0.
         25    1    1    2    0    0 -0.84369679090E+01 -0.67381772333E+02  0.41107030856E+03  0.43357846378E+03  0.12000000000E+03 0.  0.
<mgrwt>
<rscale>  0 0.29823154E+03</rscale>
<asrwt>0</asrwt>
<pdfrwt beam="1">  1        1 0.20985467E+00 0.29823154E+03</pdfrwt>
<pdfrwt beam="2">  1       -1 0.25078514E-02 0.29823154E+03</pdfrwt>
<totfact> 0.43444652E+03</totfact>
</mgrwt>
</event>
<event>
 4    1  0.1728870E-004  0.2516095E+03  0.7818608E-02  0.1112292E+00
          1   -1    0    0  501    0  0.00000000000E+00  0.00000000000E+00  0.34291168675E+02  0.34291168675E+02  0.00000000000E+00 0.  1.
         -1   -1    0    0    0  501 -0.00000000000E+00 -0.00000000000E+00 -0.46154268390E+03  0.46154268390E+03  0.00000000000E+00 0.  1.
         25    1    1    2    0    0  0.16788779540E+02 -0.16254188337E+01 -0.14702097025E+03  0.19052472490E+03  0.12000000000E+03 0.  0.
         25    1    1    2    0    0 -0.16788779540E+02  0.16254188337E+01 -0.28023054498E+03  0.30530912768E+03  0.12000000000E+03 0.  0.
<mgrwt>
<rscale>  0 0.25160952E+03</rscale>
<asrwt>0</asrwt>
<pdfrwt beam="1">  1        1 0.52755648E-02 0.25160952E+03</pdfrwt>
<pdfrwt beam="2">  1       -1 0.71006562E-01 0.25160952E+03</pdfrwt>
<totfact> 0.31976611E+03</totfact>
</mgrwt>
</event>
<event>
 4    1  0.1728870E-004  0.2899232E+03  0.7818608E-02  0.1090389E+00
         -1   -1    0    0    0  501 -0.00000000000E+00  0.00000000000E+00  0.38652519365E+03  0.38652519365E+03  0.00000000000E+00 0.  1.
          1   -1    0    0  501    0  0.00000000000E+00 -0.00000000000E+00 -0.54366090244E+02  0.54366090244E+02  0.00000000000E+00 0.  1.
         25    1    1    2    0    0 -0.68677723537E+01 -0.57035923926E+02  0.25361796017E+03  0.28639541309E+03  0.12000000000E+03 0.  0.
         25    1    1    2    0    0  0.68677723537E+01  0.57035923926E+02  0.78541143229E+02  0.15449587080E+03  0.12000000000E+03 0.  0.
<mgrwt>
<rscale>  0 0.28992319E+03</rscale>
<asrwt>0</asrwt>
<pdfrwt beam="1">  1        1 0.83640142E-02 0.28992319E+03</pdfrwt>
<pdfrwt beam="2">  1       -1 0.59465412E-01 0.28992319E+03</pdfrwt>
<totfact> 0.24168423E+03</totfact>
</mgrwt>
</event>
<event>
 4    1  0.1728870E-004  0.2504992E+03  0.7818608E-02  0.1112990E+00
         -1   -1    0    0    0  501 -0.00000000000E+00  0.00000000000E+00  0.91030528796E+01  0.91030528796E+01  0.00000000000E+00 0. -1.
          1   -1    0    0  501    0  0.00000000000E+00 -0.00000000000E+00 -0.17233186797E+04  0.17233186797E+04  0.00000000000E+00 0. -1.
         25    1    1    2    0    0  0.43832630090E+01 -0.35485130129E+02 -0.87791715376E+03  0.88680152026E+03  0.12000000000E+03 0.  0.
         25    1    1    2    0    0 -0.43832630090E+01  0.35485130129E+02 -0.83629847310E+03  0.84562021237E+03  0.12000000000E+03 0.  0.
<mgrwt>
<rscale>  0 0.25049919E+03</rscale>
<asrwt>0</asrwt>
<pdfrwt beam="1">  1        1 0.26512611E+00 0.25049919E+03</pdfrwt>
<pdfrwt beam="2">  1       -1 0.14004688E-02 0.25049919E+03</pdfrwt>
<totfact> 0.58806809E+03</totfact>
</mgrwt>
</event>
<event>
 4    1  0.1728870E-004  0.2411000E+03  0.7818608E-02  0.1119062E+00
         -2   -1    0    0    0  501 -0.00000000000E+00  0.00000000000E+00  0.43853922381E+02  0.43853922381E+02  0.00000000000E+00 0. -1.
          2   -1    0    0  501    0  0.00000000000E+00 -0.00000000000E+00 -0.33137976329E+03  0.33137976329E+03  0.00000000000E+00 0. -1.
         25    1    1    2    0    0 -0.10917444594E+02  0.36970902116E+00 -0.14936901711E+03  0.19191255965E+03  0.12000000000E+03 0.  0.
         25    1    1    2    0    0  0.10917444594E+02 -0.36970902116E+00 -0.13815682380E+03  0.18332112602E+03  0.12000000000E+03 0.  0.
<mgrwt>
<rscale>  0 0.24110000E+03</rscale>
<asrwt>0</asrwt>
<pdfrwt beam="1">  1        2 0.50981502E-01 0.24110000E+03</pdfrwt>
<pdfrwt beam="2">  1       -2 0.67467573E-02 0.24110000E+03</pdfrwt>
<totfact> 0.11911433E+04</totfact>
</mgrwt>
</event>
<event>
 4    1  0.1728870E-004  0.2494976E+03  0.7818608E-02  0.1113623E+00
         -1   -1    0    0    0  501 -0.00000000000E+00  0.00000000000E+00  0.91304861420E+01  0.91304861420E+01  0.00000000000E+00 0. -1.
          1   -1    0    0  501    0  0.00000000000E+00 -0.00000000000E+00 -0.17044290781E+04  0.17044290781E+04  0.00000000000E+00 0. -1.
         25    1    1    2    0    0 -0.14233579334E+02 -0.17478061732E+02 -0.10233139140E+04  0.10305723866E+04  0.12000000000E+03 0.  0.
         25    1    1    2    0    0  0.14233579334E+02  0.17478061732E+02 -0.67198467795E+03  0.68298717764E+03  0.12000000000E+03 0.  0.
<mgrwt>
<rscale>  0 0.24949762E+03</rscale>
<asrwt>0</asrwt>
<pdfrwt beam="1">  1        1 0.26221980E+00 0.24949762E+03</pdfrwt>
<pdfrwt beam="2">  1       -1 0.14046905E-02 0.24949762E+03</pdfrwt>
<totfact> 0.60227332E+03</totfact>
</mgrwt>
</event>
<event>
 4    1  0.1728870E-004  0.3015471E+03  0.7818608E-02  0.1084470E+00
          2   -1    0    0  501    0  0.00000000000E+00  0.00000000000E+00  0.29969174071E+03  0.29969174071E+03  0.00000000000E+00 0. -1.
         -2   -1    0    0    0  501 -0.00000000000E+00 -0.00000000000E+00 -0.75853502191E+02  0.75853502191E+02  0.00000000000E+00 0. -1.
         25    1    1    2    0    0 -0.75588745909E+02  0.50298944633E+02  0.10016838686E+03  0.18076876961E+03  0.12000000000E+03 0.  0.
         25    1    1    2    0    0  0.75588745909E+02 -0.50298944633E+02  0.12366985166E+03  0.19477647329E+03  0.12000000000E+03 0.  0.
<mgrwt>
<rscale>  0 0.30154713E+03</rscale>
<asrwt>0</asrwt>
<pdfrwt beam="1">  1        2 0.46106421E-01 0.30154713E+03</pdfrwt>
<pdfrwt beam="2">  1       -2 0.11669770E-01 0.30154713E+03</pdfrwt>
<totfact> 0.56485845E+03</totfact>
</mgrwt>
</event>
<event>
 4    1  0.1728870E-004  0.3474387E+03  0.7818608E-02  0.1063671E+00
          1   -1    0    0  501    0  0.00000000000E+00  0.00000000000E+00  0.14018220583E+03  0.14018220583E+03  0.00000000000E+00 0.  1.
         -1   -1    0    0    0  501 -0.00000000000E+00 -0.00000000000E+00 -0.21527988182E+03  0.21527988182E+03  0.00000000000E+00 0.  1.
         25    1    1    2    0    0 -0.37867901318E+02 -0.11931571752E+03 -0.48190496003E+02  0.17997928298E+03  0.12000000000E+03 0.  0.
         25    1    1    2    0    0  0.37867901318E+02  0.11931571752E+03 -0.26907179986E+02  0.17548280466E+03  0.12000000000E+03 0.  0.
<mgrwt>
<rscale>  0 0.34743868E+03</rscale>
<asrwt>0</asrwt>
<pdfrwt beam="1">  1        1 0.21566493E-01 0.34743868E+03</pdfrwt>
<pdfrwt beam="2">  1       -1 0.33119982E-01 0.34743868E+03</pdfrwt>
<totfact> 0.20007590E+03</totfact>
</mgrwt>
</event>
<event>
 4    1  0.1728870E-004  0.2843503E+03  0.7818608E-02  0.1093336E+00
          1   -1    0    0  501    0  0.00000000000E+00  0.00000000000E+00  0.12454540615E+03  0.12454540615E+03  0.00000000000E+00 0. -1.
         -1   -1    0    0    0  501 -0.00000000000E+00 -0.00000000000E+00 -0.16230045607E+03  0.16230045607E+03  0.00000000000E+00 0. -1.
         25    1    1    2    0    0  0.80077602591E+01  0.48331130873E+02  0.40062588068E+02  0.13566515175E+03  0.12000000000E+03 0.  0.
         25    1    1    2    0    0 -0.80077602591E+01 -0.48331130873E+02 -0.77817637997E+02  0.15118071047E+03  0.12000000000E+03 0.  0.
<mgrwt>
<rscale>  0 0.28435032E+03</rscale>
<asrwt>0</asrwt>
<pdfrwt beam="1">  1        1 0.19160832E-01 0.28435032E+03</pdfrwt>
<pdfrwt beam="2">  1       -1 0.24969301E-01 0.28435032E+03</pdfrwt>
<totfact> 0.37521549E+03</totfact>
</mgrwt>
</event>
<event>
 4    1  0.1728870E-004  0.2805028E+03  0.7818608E-02  0.1095415E+00
          1   -1    0    0  501    0  0.00000000000E+00  0.00000000000E+00  0.76450045576E+02  0.76450045576E+02  0.00000000000E+00 0. -1.
         -1   -1    0    0    0  501 -0.00000000000E+00 -0.00000000000E+00 -0.25729821462E+03  0.25729821462E+03  0.00000000000E+00 0. -1.
         25    1    1    2    0    0 -0.41705068413E+02  0.35165444879E+02 -0.14741812874E+03  0.19775749272E+03  0.12000000000E+03 0.  0.
         25    1    1    2    0    0  0.41705068413E+02 -0.35165444879E+02 -0.33430040305E+02  0.13599076748E+03  0.12000000000E+03 0.  0.
<mgrwt>
<rscale>  0 0.28050284E+03</rscale>
<asrwt>0</asrwt>
<pdfrwt beam="1">  1        1 0.11761545E-01 0.28050284E+03</pdfrwt>
<pdfrwt beam="2">  1       -1 0.39584341E-01 0.28050284E+03</pdfrwt>
<totfact> 0.32307177E+03</totfact>
</mgrwt>
</event>
<event>
 4    1  0.1728870E-004  0.4661304E+03  0.7818608E-02  0.1023018E+00
         -2   -1    0    0    0  501 -0.00000000000E+00  0.00000000000E+00  0.14574275211E+03  0.14574275211E+03  0.00000000000E+00 0. -1.
          2   -1    0    0  501    0  0.00000000000E+00 -0.00000000000E+00 -0.37270734151E+03  0.37270734151E+03  0.00000000000E+00 0. -1.
         25    1    1    2    0    0  0.15035211561E+03  0.10441403507E+03 -0.20254052371E+03  0.29821253014E+03  0.12000000000E+03 0.  0.
         25    1    1    2    0    0 -0.15035211561E+03 -0.10441403507E+03 -0.24424065689E+02  0.22023756349E+03  0.12000000000E+03 0.  0.
<mgrwt>
<rscale>  0 0.46613043E+03</rscale>
<asrwt>0</asrwt>
<pdfrwt beam="1">  1        2 0.57339591E-01 0.46613043E+03</pdfrwt>
<pdfrwt beam="2">  1       -2 0.22421962E-01 0.46613043E+03</pdfrwt>
<totfact> 0.14960793E+03</totfact>
</mgrwt>
</event>
<event>
 4    1  0.1728870E-004  0.2502262E+03  0.7818608E-02  0.1113162E+00
         -2   -1    0    0    0  501 -0.00000000000E+00  0.00000000000E+00  0.10473685682E+03  0.10473685682E+03  0.00000000000E+00 0.  1.
          2   -1    0    0  501    0  0.00000000000E+00 -0.00000000000E+00 -0.14945349888E+03  0.14945349888E+03  0.00000000000E+00 0.  1.
         25    1    1    2    0    0  0.25497679841E+02  0.18641386866E+02 -0.61157461344E+01  0.12423781764E+03  0.12000000000E+03 0.  0.
         25    1    1    2    0    0 -0.25497679841E+02 -0.18641386866E+02 -0.38600895928E+02  0.12995253806E+03  0.12000000000E+03 0.  0.
<mgrwt>
<rscale>  0 0.25022622E+03</rscale>
<asrwt>0</asrwt>
<pdfrwt beam="1">  1        2 0.22992846E-01 0.25022622E+03</pdfrwt>
<pdfrwt beam="2">  1       -2 0.16113363E-01 0.25022622E+03</pdfrwt>
<totfact> 0.70848971E+03</totfact>
</mgrwt>
</event>
<event>
 4    1  0.1728870E-004  0.2968196E+03  0.7818608E-02  0.1086841E+00
          3   -1    0    0  501    0  0.00000000000E+00  0.00000000000E+00  0.50327687436E+03  0.50327687436E+03  0.00000000000E+00 0.  1.
         -3   -1    0    0    0  501 -0.00000000000E+00 -0.00000000000E+00 -0.43764123425E+02  0.43764123425E+02  0.00000000000E+00 0.  1.
         25    1    1    2    0    0  0.62500546165E+01  0.83361492500E+01  0.38954547286E+03  0.40774284788E+03  0.12000000000E+03 0.  0.
         25    1    1    2    0    0 -0.62500546165E+01 -0.83361492500E+01  0.69967278072E+02  0.13929814991E+03  0.12000000000E+03 0.  0.
<mgrwt>
<rscale>  0 0.29681962E+03</rscale>
<asrwt>0</asrwt>
<pdfrwt beam="1">  1        3 0.77427207E-01 0.29681962E+03</pdfrwt>
<pdfrwt beam="2">  1       -3 0.67329424E-02 0.29681962E+03</pdfrwt>
<totfact> 0.57919474E+02</totfact>
</mgrwt>
</event>
<event>
 4    1  0.1728870E-004  0.2791482E+03  0.7818608E-02  0.1096155E+00
          1   -1    0    0  501    0  0.00000000000E+00  0.00000000000E+00  0.72640783305E+03  0.72640783305E+03  0.00000000000E+00 0.  1.
         -1   -1    0    0    0  501 -0.00000000000E+00 -0.00000000000E+00 -0.26818177521E+02  0.26818177521E+02  0.00000000000E+00 0.  1.
         25    1    1    2    0    0  0.47342760756E+02  0.52955217168E+02  0.36583604066E+03  0.39151194193E+03  0.12000000000E+03 0.  0.
         25    1    1    2    0    0 -0.47342760756E+02 -0.52955217168E+02  0.33375361486E+03  0.36171406864E+03  0.12000000000E+03 0.  0.
<mgrwt>
<rscale>  0 0.27914823E+03</rscale>
<asrwt>0</asrwt>
<pdfrwt beam="1">  1        1 0.11175504E+00 0.27914823E+03</pdfrwt>
<pdfrwt beam="2">  1       -1 0.41258740E-02 0.27914823E+03</pdfrwt>
<totfact> 0.62533396E+03</totfact>
</mgrwt>
</event>
<event>
 4    1  0.1728870E-004  0.2877509E+03  0.7818608E-02  0.1091529E+00
         -4   -1    0    0    0  501 -0.00000000000E+00  0.00000000000E+00  0.85553097024E+02  0.85553097024E+02  0.00000000000E+00 0.  1.
          4   -1    0    0  501    0  0.00000000000E+00 -0.00000000000E+00 -0.24195666101E+03  0.24195666101E+03  0.00000000000E+00 0.  1.
         25    1    1    2    0    0  0.40264785698E+02  0.43406323003E+02 -0.13837197314E+03  0.19248938878E+03  0.12000000000E+03 0.  0.
         25    1    1    2    0    0 -0.40264785698E+02 -0.43406323003E+02 -0.18031590847E+02  0.13502036925E+03  0.12000000000E+03 0.  0.
<mgrwt>
<rscale>  0 0.28775088E+03</rscale>
<asrwt>0</asrwt>
<pdfrwt beam="1">  1        4 0.37224101E-01 0.28775088E+03</pdfrwt>
<pdfrwt beam="2">  1       -4 0.13162015E-01 0.28775088E+03</pdfrwt>
<totfact> 0.62596530E+02</totfact>
</mgrwt>
</event>
<event>
 4    1  0.1728870E-004  0.3146583E+03  0.7818608E-02  0.1078134E+00
          2   -1    0    0  501    0  0.00000000000E+00  0.00000000000E+00  0.58542862618E+03  0.58542862618E+03  0.00000000000E+00 0.  1.
         -2   -1    0    0    0  501 -0.00000000000E+00 -0.00000000000E+00 -0.42280929349E+02  0.42280929349E+02  0.00000000000E+00 0.  1.
         25    1    1    2    0    0  0.72381401278E+02  0.39654959629E+02  0.39028057026E+03  0.41656993002E+03  0.12000000000E+03 0.  0.
         25    1    1    2    0    0 -0.72381401278E+02 -0.39654959629E+02  0.15286712657E+03  0.21113962551E+03  0.12000000000E+03 0.  0.
<mgrwt>
<rscale>  0 0.31465833E+03</rscale>
<asrwt>0</asrwt>
<pdfrwt beam="1">  1        2 0.90065937E-01 0.31465833E+03</pdfrwt>
<pdfrwt beam="2">  1       -2 0.65047588E-02 0.31465833E+03</pdfrwt>
<totfact> 0.67894646E+03</totfact>
</mgrwt>
</event>
<event>
 4    1  0.1728870E-004  0.2611999E+03  0.7818608E-02  0.1106424E+00
          2   -1    0    0  501    0  0.00000000000E+00  0.00000000000E+00  0.55809740760E+03  0.55809740760E+03  0.00000000000E+00 0. -1.
         -2   -1    0    0    0  501 -0.00000000000E+00 -0.00000000000E+00 -0.30561600276E+02  0.30561600276E+02  0.00000000000E+00 0. -1.
         25    1    1    2    0    0  0.40605436240E+02  0.29852339961E+02  0.23945473537E+03  0.27254088491E+03  0.12000000000E+03 0.  0.
         25    1    1    2    0    0 -0.40605436240E+02 -0.29852339961E+02  0.28808107195E+03  0.31611812297E+03  0.12000000000E+03 0.  0.
<mgrwt>
<rscale>  0 0.26119992E+03</rscale>
<asrwt>0</asrwt>
<pdfrwt beam="1">  1        2 0.85861132E-01 0.26119992E+03</pdfrwt>
<pdfrwt beam="2">  1       -2 0.47017851E-02 0.26119992E+03</pdfrwt>
<totfact> 0.11710216E+04</totfact>
</mgrwt>
</event>
<event>
 4    1  0.1728870E-004  0.2537623E+03  0.7818608E-02  0.1110950E+00
          1   -1    0    0  501    0  0.00000000000E+00  0.00000000000E+00  0.15653055138E+04  0.15653055138E+04  0.00000000000E+00 0. -1.
         -1   -1    0    0    0  501 -0.00000000000E+00 -0.00000000000E+00 -0.10284783053E+02  0.10284783053E+02  0.00000000000E+00 0. -1.
         25    1    1    2    0    0 -0.26178914379E+02  0.21097339791E+02  0.62948333041E+03  0.64170062847E+03  0.12000000000E+03 0.  0.
         25    1    1    2    0    0  0.26178914379E+02 -0.21097339791E+02  0.92553740035E+03  0.93388966841E+03  0.12000000000E+03 0.  0.
<mgrwt>
<rscale>  0 0.25376231E+03</rscale>
<asrwt>0</asrwt>
<pdfrwt beam="1">  1        1 0.24081604E+00 0.25376231E+03</pdfrwt>
<pdfrwt beam="2">  1       -1 0.15822756E-02 0.25376231E+03</pdfrwt>
<totfact> 0.62477001E+03</totfact>
</mgrwt>
</event>
<event>
 4    1  0.1728870E-004  0.2759813E+03  0.7818608E-02  0.1097904E+00
          2   -1    0    0  501    0  0.00000000000E+00  0.00000000000E+00  0.34484856048E+02  0.34484856048E+02  0.00000000000E+00 0. -1.
         -2   -1    0    0    0  501 -0.00000000000E+00 -0.00000000000E+00 -0.55216758363E+03  0.55216758363E+03  0.00000000000E+00 0. -1.
         25    1    1    2    0    0 -0.18628889173E+02 -0.17356848229E+02 -0.39316660176E+03  0.41185952998E+03  0.12000000000E+03 0.  0.
         25    1    1    2    0    0  0.18628889173E+02  0.17356848229E+02 -0.12451612582E+03  0.17479290970E+03  0.12000000000E+03 0.  0.
<mgrwt>
<rscale>  0 0.27598130E+03</rscale>
<asrwt>0</asrwt>
<pdfrwt beam="1">  1        2 0.53053629E-02 0.27598130E+03</pdfrwt>
<pdfrwt beam="2">  1       -2 0.84948853E-01 0.27598130E+03</pdfrwt>
<totfact> 0.18076400E+03</totfact>
</mgrwt>
</event>
<event>
 4    1  0.1728870E-004  0.2497873E+03  0.7818608E-02  0.1113439E+00
          2   -1    0    0  501    0  0.00000000000E+00  0.00000000000E+00  0.29070231964E+02  0.29070231964E+02  0.00000000000E+00 0.  1.
         -2   -1    0    0    0  501 -0.00000000000E+00 -0.00000000000E+00 -0.53657718695E+03  0.53657718695E+03  0.00000000000E+00 0.  1.
         25    1    1    2    0    0 -0.39942424906E+01 -0.36857355645E+01 -0.17633202852E+03  0.21336007804E+03  0.12000000000E+03 0.  0.
         25    1    1    2    0    0  0.39942424906E+01  0.36857355645E+01 -0.33117492646E+03  0.35228734087E+03  0.12000000000E+03 0.  0.
<mgrwt>
<rscale>  0 0.24978730E+03</rscale>
<asrwt>0</asrwt>
<pdfrwt beam="1">  1        2 0.44723437E-02 0.24978730E+03</pdfrwt>
<pdfrwt beam="2">  1       -2 0.82550331E-01 0.24978730E+03</pdfrwt>
<totfact> 0.24075732E+03</totfact>
</mgrwt>
</event>
<event>
 4    1  0.1728870E-004  0.3285359E+03  0.7818608E-02  0.1071787E+00
          2   -1    0    0  501    0  0.00000000000E+00  0.00000000000E+00  0.76389298919E+03  0.76389298919E+03  0.00000000000E+00 0.  1.
         -2   -1    0    0    0  501 -0.00000000000E+00 -0.00000000000E+00 -0.35324269298E+02  0.35324269298E+02  0.00000000000E+00 0.  1.
         25    1    1    2    0    0 -0.67845920499E+02  0.51277652106E+01  0.58125008969E+03  0.59739520392E+03  0.12000000000E+03 0.  0.
         25    1    1    2    0    0  0.67845920499E+02 -0.51277652106E+01  0.14731863020E+03  0.20182205457E+03  0.12000000000E+03 0.  0.
<mgrwt>
<rscale>  0 0.32853591E+03</rscale>
<asrwt>0</asrwt>
<pdfrwt beam="1">  1        2 0.11752199E+00 0.32853591E+03</pdfrwt>
<pdfrwt beam="2">  1       -2 0.54345036E-02 0.32853591E+03</pdfrwt>
<totfact> 0.65035745E+03</totfact>
</mgrwt>
</event>
<event>
 4    1  0.1728870E-004  0.3460553E+03  0.7818608E-02  0.1064246E+00
         -4   -1    0    0    0  501 -0.00000000000E+00  0.00000000000E+00  0.10269716569E+03  0.10269716569E+03  0.00000000000E+00 0.  1.
          4   -1    0    0  501    0  0.00000000000E+00 -0.00000000000E+00 -0.29152290273E+03  0.29152290273E+03  0.00000000000E+00 0.  1.
         25    1    1    2    0    0  0.51724228530E+02 -0.37018863081E+02 -0.21653820776E+03  0.25560631342E+03  0.12000000000E+03 0.  0.
         25    1    1    2    0    0 -0.51724228530E+02  0.37018863081E+02  0.27712470716E+02  0.13861375500E+03  0.12000000000E+03 0.  0.
<mgrwt>
<rscale>  0 0.34605535E+03</rscale>
<asrwt>0</asrwt>
<pdfrwt beam="1">  1        4 0.44849677E-01 0.34605535E+03</pdfrwt>
<pdfrwt beam="2">  1       -4 0.15799564E-01 0.34605535E+03</pdfrwt>
<totfact> 0.31978367E+02</totfact>
</mgrwt>
</event>
<event>
 4    1  0.1728870E-004  0.3019148E+03  0.7818608E-02  0.1084287E+00
         -2   -1    0    0    0  501 -0.00000000000E+00  0.00000000000E+00  0.16125230565E+02  0.16125230565E+02  0.00000000000E+00 0. -1.
          2   -1    0    0  501    0  0.00000000000E+00 -0.00000000000E+00 -0.14131977063E+04  0.14131977063E+04  0.00000000000E+00 0. -1.
         25    1    1    2    0    0 -0.81053500474E+02  0.32771362836E+02 -0.56936071134E+03  0.58840058785E+03  0.12000000000E+03 0.  0.
         25    1    1    2    0    0  0.81053500474E+02 -0.32771362836E+02 -0.82771176438E+03  0.84092234900E+03  0.12000000000E+03 0.  0.
<mgrwt>
<rscale>  0 0.30191481E+03</rscale>
<asrwt>0</asrwt>
<pdfrwt beam="1">  1        2 0.21741507E+00 0.30191481E+03</pdfrwt>
<pdfrwt beam="2">  1       -2 0.24808042E-02 0.30191481E+03</pdfrwt>
<totfact> 0.85604517E+03</totfact>
</mgrwt>
</event>
<event>
 4    1  0.1728870E-004  0.3048475E+03  0.7818608E-02  0.1082842E+00
         -2   -1    0    0    0  501 -0.00000000000E+00  0.00000000000E+00  0.10682229229E+03  0.10682229229E+03  0.00000000000E+00 0. -1.
          2   -1    0    0  501    0  0.00000000000E+00 -0.00000000000E+00 -0.21749202269E+03  0.21749202269E+03  0.00000000000E+00 0. -1.
         25    1    1    2    0    0  0.60549534041E+02 -0.26099798581E+02 -0.12658593719E+03  0.18647103007E+03  0.12000000000E+03 0.  0.
         25    1    1    2    0    0 -0.60549534041E+02  0.26099798581E+02  0.15916206798E+02  0.13784328492E+03  0.12000000000E+03 0.  0.
<mgrwt>
<rscale>  0 0.30484748E+03</rscale>
<asrwt>0</asrwt>
<pdfrwt beam="1">  1        2 0.33460311E-01 0.30484748E+03</pdfrwt>
<pdfrwt beam="2">  1       -2 0.16434199E-01 0.30484748E+03</pdfrwt>
<totfact> 0.45574739E+03</totfact>
</mgrwt>
</event>
<event>
 4    1  0.1728870E-004  0.3371983E+03  0.7818608E-02  0.1067996E+00
         -1   -1    0    0    0  501 -0.00000000000E+00  0.00000000000E+00  0.45166544187E+02  0.45166544187E+02  0.00000000000E+00 0.  1.
          1   -1    0    0  501    0  0.00000000000E+00 -0.00000000000E+00 -0.62935222909E+03  0.62935222909E+03  0.00000000000E+00 0.  1.
         25    1    1    2    0    0 -0.78606743995E+02 -0.53048968396E+02 -0.15018756462E+03  0.21435838639E+03  0.12000000000E+03 0.  0.
         25    1    1    2    0    0  0.78606743995E+02  0.53048968396E+02 -0.43399812028E+03  0.46016038689E+03  0.12000000000E+03 0.  0.
<mgrwt>
<rscale>  0 0.33719825E+03</rscale>
<asrwt>0</asrwt>
<pdfrwt beam="1">  1        1 0.96823411E-01 0.33719825E+03</pdfrwt>
<pdfrwt beam="2">  1       -1 0.69486997E-02 0.33719825E+03</pdfrwt>
<totfact> 0.35218865E+03</totfact>
</mgrwt>
</event>
<event>
 4    1  0.1728870E-004  0.2452255E+03  0.7818608E-02  0.1116360E+00
          1   -1    0    0  501    0  0.00000000000E+00  0.00000000000E+00  0.78728820057E+03  0.78728820057E+03  0.00000000000E+00 0. -1.
         -1   -1    0    0    0  501 -0.00000000000E+00 -0.00000000000E+00 -0.19095786453E+02  0.19095786453E+02  0.00000000000E+00 0. -1.
         25    1    1    2    0    0 -0.23445281331E+02  0.16438855848E+01  0.41378312582E+03  0.43147289462E+03  0.12000000000E+03 0.  0.
         25    1    1    2    0    0  0.23445281331E+02 -0.16438855848E+01  0.35440928830E+03  0.37491109240E+03  0.12000000000E+03 0.  0.
<mgrwt>
<rscale>  0 0.24522551E+03</rscale>
<asrwt>0</asrwt>
<pdfrwt beam="1">  1        1 0.12112124E+00 0.24522551E+03</pdfrwt>
<pdfrwt beam="2">  1       -1 0.29378139E-02 0.24522551E+03</pdfrwt>
<totfact> 0.91240780E+03</totfact>
</mgrwt>
</event>
<event>
 4    1  0.1728870E-004  0.3778489E+03  0.7818608E-02  0.1051732E+00
         -3   -1    0    0    0  501 -0.00000000000E+00  0.00000000000E+00  0.33996588753E+02  0.33996588753E+02  0.00000000000E+00 0.  1.
          3   -1    0    0  501    0  0.00000000000E+00 -0.00000000000E+00 -0.10498830413E+04  0.10498830413E+04  0.00000000000E+00 0.  1.
         25    1    1    2    0    0 -0.14193101677E+03 -0.26358804829E+02 -0.44687322299E+03  0.48470081240E+03  0.12000000000E+03 0.  0.
         25    1    1    2    0    0  0.14193101677E+03  0.26358804829E+02 -0.56901322957E+03  0.59917881767E+03  0.12000000000E+03 0.  0.
<mgrwt>
<rscale>  0 0.37784887E+03</rscale>
<asrwt>0</asrwt>
<pdfrwt beam="1">  1        3 0.16152047E+00 0.37784887E+03</pdfrwt>
<pdfrwt beam="2">  1       -3 0.52302444E-02 0.37784887E+03</pdfrwt>
<totfact> 0.15542848E+02</totfact>
</mgrwt>
</event>
<event>
 4    1  0.1728870E-004  0.3114295E+03  0.7818608E-02  0.1079663E+00
          2   -1    0    0  501    0  0.00000000000E+00  0.00000000000E+00  0.76177065480E+02  0.76177065480E+02  0.00000000000E+00 0. -1.
         -2   -1    0    0    0  501 -0.00000000000E+00 -0.00000000000E+00 -0.31829902098E+03  0.31829902098E+03  0.00000000000E+00 0. -1.
         25    1    1    2    0    0 -0.12758562335E+02 -0.70725106412E+02 -0.20773498031E+03  0.25043690549E+03  0.12000000000E+03 0.  0.
         25    1    1    2    0    0  0.12758562335E+02  0.70725106412E+02 -0.34386975189E+02  0.14403918096E+03  0.12000000000E+03 0.  0.
<mgrwt>
<rscale>  0 0.31142951E+03</rscale>
<asrwt>0</asrwt>
<pdfrwt beam="1">  1        2 0.11719549E-01 0.31142951E+03</pdfrwt>
<pdfrwt beam="2">  1       -2 0.48969079E-01 0.31142951E+03</pdfrwt>
<totfact> 0.21104651E+03</totfact>
</mgrwt>
</event>
<event>
 4    1  0.1728870E-004  0.3751819E+03  0.7818608E-02  0.1052729E+00
          2   -1    0    0  501    0  0.00000000000E+00  0.00000000000E+00  0.27065214437E+04  0.27065214437E+04  0.00000000000E+00 0. -1.
         -2   -1    0    0    0  501 -0.00000000000E+00 -0.00000000000E+00 -0.13002067167E+02  0.13002067167E+02  0.00000000000E+00 0. -1.
         25    1    1    2    0    0 -0.41277287648E+02  0.11891994854E+03  0.83705728238E+03  0.85493313342E+03  0.12000000000E+03 0.  0.
         25    1    1    2    0    0  0.41277287648E+02 -0.11891994854E+03  0.18564620942E+04  0.18645903775E+04  0.12000000000E+03 0.  0.
<mgrwt>
<rscale>  0 0.37518195E+03</rscale>
<asrwt>0</asrwt>
<pdfrwt beam="1">  1        2 0.41638747E+00 0.37518195E+03</pdfrwt>
<pdfrwt beam="2">  1       -2 0.20003202E-02 0.37518195E+03</pdfrwt>
<totfact> 0.23577236E+03</totfact>
</mgrwt>
</event>
<event>
 4    1  0.1728870E-004  0.2566472E+03  0.7818608E-02  0.1109175E+00
          4   -1    0    0  501    0  0.00000000000E+00  0.00000000000E+00  0.19169554969E+03  0.19169554969E+03  0.00000000000E+00 0. -1.
         -4   -1    0    0    0  501 -0.00000000000E+00 -0.00000000000E+00 -0.85901583670E+02  0.85901583670E+02  0.00000000000E+00 0. -1.
         25    1    1    2    0    0 -0.53535232764E+01  0.16782419857E+01  0.40979491541E+01  0.12020095630E+03  0.12000000000E+03 0.  0.
         25    1    1    2    0    0  0.53535232764E+01 -0.16782419857E+01  0.10169601687E+03  0.15739617706E+03  0.12000000000E+03 0.  0.
<mgrwt>
<rscale>  0 0.25664724E+03</rscale>
<asrwt>0</asrwt>
<pdfrwt beam="1">  1        4 0.29491623E-01 0.25664724E+03</pdfrwt>
<pdfrwt beam="2">  1       -4 0.13215628E-01 0.25664724E+03</pdfrwt>
<totfact> 0.95954179E+02</totfact>
</mgrwt>
</event>
<event>
 4    1  0.1728870E-004  0.4374963E+03  0.7818608E-02  0.1031518E+00
          2   -1    0    0  501    0  0.00000000000E+00  0.00000000000E+00  0.47427284060E+03  0.47427284060E+03  0.00000000000E+00 0. -1.
         -2   -1    0    0    0  501 -0.00000000000E+00 -0.00000000000E+00 -0.10089289805E+03  0.10089289805E+03  0.00000000000E+00 0. -1.
         25    1    1    2    0    0  0.48007600158E+02  0.11218900608E+03  0.36579326721E+03  0.40385123138E+03  0.12000000000E+03 0.  0.
         25    1    1    2    0    0 -0.48007600158E+02 -0.11218900608E+03  0.75866753430E+01  0.17131450727E+03  0.12000000000E+03 0.  0.
<mgrwt>
<rscale>  0 0.43749634E+03</rscale>
<asrwt>0</asrwt>
<pdfrwt beam="1">  1        2 0.72965051E-01 0.43749634E+03</pdfrwt>
<pdfrwt beam="2">  1       -2 0.15521985E-01 0.43749634E+03</pdfrwt>
<totfact> 0.21496633E+03</totfact>
</mgrwt>
</event>
<event>
 4    1  0.1728870E-004  0.2922071E+03  0.7818608E-02  0.1089202E+00
         -1   -1    0    0    0  501 -0.00000000000E+00  0.00000000000E+00  0.98377454083E+03  0.98377454083E+03  0.00000000000E+00 0. -1.
          1   -1    0    0  501    0  0.00000000000E+00 -0.00000000000E+00 -0.21698311796E+02  0.21698311796E+02  0.00000000000E+00 0. -1.
         25    1    1    2    0    0  0.19092719564E+02  0.40367764272E+02  0.72318386658E+03  0.73443106770E+03  0.12000000000E+03 0.  0.
         25    1    1    2    0    0 -0.19092719564E+02 -0.40367764272E+02  0.23889236246E+03  0.27104178492E+03  0.12000000000E+03 0.  0.
<mgrwt>
<rscale>  0 0.29220710E+03</rscale>
<asrwt>0</asrwt>
<pdfrwt beam="1">  1        1 0.33382026E-02 0.29220710E+03</pdfrwt>
<pdfrwt beam="2">  1       -1 0.15134989E+00 0.29220710E+03</pdfrwt>
<totfact> 0.10836242E+03</totfact>
</mgrwt>
</event>
<event>
 4    1  0.1728870E-004  0.2621345E+03  0.7818608E-02  0.1105868E+00
         -1   -1    0    0    0  501 -0.00000000000E+00  0.00000000000E+00  0.45163754466E+03  0.45163754466E+03  0.00000000000E+00 0.  1.
          1   -1    0    0  501    0  0.00000000000E+00 -0.00000000000E+00 -0.38036299192E+02  0.38036299192E+02  0.00000000000E+00 0.  1.
         25    1    1    2    0    0  0.97010867684E+01 -0.46893396886E+02  0.16563962550E+03  0.21007043412E+03  0.12000000000E+03 0.  0.
         25    1    1    2    0    0 -0.97010867684E+01  0.46893396886E+02  0.24796161996E+03  0.27960340973E+03  0.12000000000E+03 0.  0.
<mgrwt>
<rscale>  0 0.26213448E+03</rscale>
<asrwt>0</asrwt>
<pdfrwt beam="1">  1        1 0.58517387E-02 0.26213448E+03</pdfrwt>
<pdfrwt beam="2">  1       -1 0.69482695E-01 0.26213448E+03</pdfrwt>
<totfact> 0.28981359E+03</totfact>
</mgrwt>
</event>
<event>
 4    1  0.1728870E-004  0.2438052E+03  0.7818608E-02  0.1117284E+00
          4   -1    0    0  501    0  0.00000000000E+00  0.00000000000E+00  0.33440601994E+02  0.33440601994E+02  0.00000000000E+00 0.  1.
         -4   -1    0    0    0  501 -0.00000000000E+00 -0.00000000000E+00 -0.44437742210E+03  0.44437742210E+03  0.00000000000E+00 0.  1.
         25    1    1    2    0    0 -0.19249965913E+02 -0.69921838996E+01 -0.21798632306E+03  0.24967476618E+03  0.12000000000E+03 0.  0.
         25    1    1    2    0    0  0.19249965913E+02  0.69921838996E+01 -0.19295049704E+03  0.22814325791E+03  0.12000000000E+03 0.  0.
<mgrwt>
<rscale>  0 0.24380524E+03</rscale>
<asrwt>0</asrwt>
<pdfrwt beam="1">  1        4 0.51447083E-02 0.24380524E+03</pdfrwt>
<pdfrwt beam="2">  1       -4 0.68365753E-01 0.24380524E+03</pdfrwt>
<totfact> 0.84337340E+02</totfact>
</mgrwt>
</event>
<event>
 4    1  0.1728870E-004  0.2883695E+03  0.7818608E-02  0.1091204E+00
          1   -1    0    0  501    0  0.00000000000E+00  0.00000000000E+00  0.16594938649E+03  0.16594938649E+03  0.00000000000E+00 0.  1.
         -1   -1    0    0    0  501 -0.00000000000E+00 -0.00000000000E+00 -0.12527456525E+03  0.12527456525E+03  0.00000000000E+00 0.  1.
         25    1    1    2    0    0  0.77957042933E+02  0.39776265585E+00  0.25053763300E+01  0.14312140185E+03  0.12000000000E+03 0.  0.
         25    1    1    2    0    0 -0.77957042933E+02 -0.39776265585E+00  0.38169444915E+02  0.14810254989E+03  0.12000000000E+03 0.  0.
<mgrwt>
<rscale>  0 0.28836947E+03</rscale>
<asrwt>0</asrwt>
<pdfrwt beam="1">  1        1 0.25530675E-01 0.28836947E+03</pdfrwt>
<pdfrwt beam="2">  1       -1 0.19273010E-01 0.28836947E+03</pdfrwt>
<totfact> 0.39741940E+03</totfact>
</mgrwt>
</event>
<event>
 4    1  0.1728870E-004  0.2423409E+03  0.7818608E-02  0.1118243E+00
          1   -1    0    0  501    0  0.00000000000E+00  0.00000000000E+00  0.54938038699E+03  0.54938038699E+03  0.00000000000E+00 0. -1.
         -1   -1    0    0    0  501 -0.00000000000E+00 -0.00000000000E+00 -0.26725160941E+02  0.26725160941E+02  0.00000000000E+00 0. -1.
         25    1    1    2    0    0 -0.48283515511E+01  0.22364869655E+01  0.22344309647E+03  0.25368313348E+03  0.12000000000E+03 0.  0.
         25    1    1    2    0    0  0.48283515511E+01 -0.22364869655E+01  0.29921212958E+03  0.32242241445E+03  0.12000000000E+03 0.  0.
<mgrwt>
<rscale>  0 0.24234091E+03</rscale>
<asrwt>0</asrwt>
<pdfrwt beam="1">  1        1 0.84520051E-01 0.24234091E+03</pdfrwt>
<pdfrwt beam="2">  1       -1 0.41115637E-02 0.24234091E+03</pdfrwt>
<totfact> 0.92777954E+03</totfact>
</mgrwt>
</event>
<event>
 4    1  0.1728870E-004  0.2655136E+03  0.7818608E-02  0.1103875E+00
          4   -1    0    0  501    0  0.00000000000E+00  0.00000000000E+00  0.14909510263E+02  0.14909510263E+02  0.00000000000E+00 0.  1.
         -4   -1    0    0    0  501 -0.00000000000E+00 -0.00000000000E+00 -0.11820892883E+04  0.11820892883E+04  0.00000000000E+00 0.  1.
         25    1    1    2    0    0 -0.16127653921E+02 -0.38746842037E+02 -0.75602358334E+03  0.76663751380E+03  0.12000000000E+03 0.  0.
         25    1    1    2    0    0  0.16127653921E+02  0.38746842037E+02 -0.41115619464E+03  0.43036128472E+03  0.12000000000E+03 0.  0.
<mgrwt>
<rscale>  0 0.26551363E+03</rscale>
<asrwt>0</asrwt>
<pdfrwt beam="1">  1        4 0.22937708E-02 0.26551363E+03</pdfrwt>
<pdfrwt beam="2">  1       -4 0.18185989E+00 0.26551363E+03</pdfrwt>
<totfact> 0.28898373E+02</totfact>
</mgrwt>
</event>
<event>
 4    1  0.1728870E-004  0.4024115E+03  0.7818608E-02  0.1042948E+00
          2   -1    0    0  501    0  0.00000000000E+00  0.00000000000E+00  0.36180762511E+03  0.36180762511E+03  0.00000000000E+00 0. -1.
         -2   -1    0    0    0  501 -0.00000000000E+00 -0.00000000000E+00 -0.11189305592E+03  0.11189305592E+03  0.00000000000E+00 0. -1.
         25    1    1    2    0    0 -0.15208152958E+03  0.20733941401E+01  0.61014149553E+02  0.20311528020E+03  0.12000000000E+03 0.  0.
         25    1    1    2    0    0  0.15208152958E+03 -0.20733941401E+01  0.18890041964E+03  0.27058540083E+03  0.12000000000E+03 0.  0.
<mgrwt>
<rscale>  0 0.40241153E+03</rscale>
<asrwt>0</asrwt>
<pdfrwt beam="1">  1        2 0.55662711E-01 0.40241153E+03</pdfrwt>
<pdfrwt beam="2">  1       -2 0.17214316E-01 0.40241153E+03</pdfrwt>
<totfact> 0.24361794E+03</totfact>
</mgrwt>
</event>
<event>
 4    1  0.1728870E-004  0.4075140E+03  0.7818608E-02  0.1041208E+00
          2   -1    0    0  501    0  0.00000000000E+00  0.00000000000E+00  0.23207804129E+04  0.23207804129E+04  0.00000000000E+00 0.  1.
         -2   -1    0    0    0  501 -0.00000000000E+00 -0.00000000000E+00 -0.17889204776E+02  0.17889204776E+02  0.00000000000E+00 0.  1.
         25    1    1    2    0    0  0.20704535937E+02  0.12399010847E+03  0.17618922173E+04  0.17704424335E+04  0.12000000000E+03 0.  0.
         25    1    1    2    0    0 -0.20704535937E+02 -0.12399010847E+03  0.54099899075E+03  0.56822718414E+03  0.12000000000E+03 0.  0.
<mgrwt>
<rscale>  0 0.40751400E+03</rscale>
<asrwt>0</asrwt>
<pdfrwt beam="1">  1        2 0.35704290E+00 0.40751400E+03</pdfrwt>
<pdfrwt beam="2">  1       -2 0.27521872E-02 0.40751400E+03</pdfrwt>
<totfact> 0.23943884E+03</totfact>
</mgrwt>
</event>
<event>
 4    1  0.1728870E-004  0.3058343E+03  0.7818608E-02  0.1082360E+00
         -2   -1    0    0    0  501 -0.00000000000E+00  0.00000000000E+00  0.22960927136E+02  0.22960927136E+02  0.00000000000E+00 0. -1.
          2   -1    0    0  501    0  0.00000000000E+00 -0.00000000000E+00 -0.10184108609E+04  0.10184108609E+04  0.00000000000E+00 0. -1.
         25    1    1    2    0    0  0.31473270999E+02  0.46286748706E+01 -0.19371057578E+03  0.23007776639E+03  0.12000000000E+03 0.  0.
         25    1    1    2    0    0 -0.31473270999E+02 -0.46286748706E+01 -0.80173935799E+03  0.81129402165E+03  0.12000000000E+03 0.  0.
<mgrwt>
<rscale>  0 0.30583432E+03</rscale>
<asrwt>0</asrwt>
<pdfrwt beam="1">  1        2 0.15667857E+00 0.30583432E+03</pdfrwt>
<pdfrwt beam="2">  1       -2 0.35324508E-02 0.30583432E+03</pdfrwt>
<totfact> 0.84925810E+03</totfact>
</mgrwt>
</event>
<event>
 4    1  0.1728870E-004  0.3062879E+03  0.7818608E-02  0.1082139E+00
         -2   -1    0    0    0  501 -0.00000000000E+00  0.00000000000E+00  0.10308267906E+02  0.10308267906E+02  0.00000000000E+00 0.  1.
          2   -1    0    0  501    0  0.00000000000E+00 -0.00000000000E+00 -0.22751712989E+04  0.22751712989E+04  0.00000000000E+00 0.  1.
         25    1    1    2    0    0  0.24217797341E+02  0.88907603357E+02 -0.13093283669E+04  0.13180409083E+04  0.12000000000E+03 0.  0.
         25    1    1    2    0    0 -0.24217797341E+02 -0.88907603357E+02 -0.95553466413E+03  0.96743865852E+03  0.12000000000E+03 0.  0.
<mgrwt>
<rscale>  0 0.30628794E+03</rscale>
<asrwt>0</asrwt>
<pdfrwt beam="1">  1        2 0.35002652E+00 0.30628794E+03</pdfrwt>
<pdfrwt beam="2">  1       -2 0.15858866E-02 0.30628794E+03</pdfrwt>
<totfact> 0.57712460E+03</totfact>
</mgrwt>
</event>
<event>
 4    1  0.1728870E-004  0.4104436E+03  0.7818608E-02  0.1040222E+00
         -1   -1    0    0    0  501 -0.00000000000E+00  0.00000000000E+00  0.66987811247E+02  0.66987811247E+02  0.00000000000E+00 0.  1.
          1   -1    0    0  501    0  0.00000000000E+00 -0.00000000000E+00 -0.62871116904E+03  0.62871116904E+03  0.00000000000E+00 0.  1.
         25    1    1    2    0    0 -0.62172919153E+02  0.15347432924E+03 -0.31003050816E+03  0.37140107377E+03  0.12000000000E+03 0.  0.
         25    1    1    2    0    0  0.62172919153E+02 -0.15347432924E+03 -0.25169284963E+03  0.32429790651E+03  0.12000000000E+03 0.  0.
<mgrwt>
<rscale>  0 0.41044359E+03</rscale>
<asrwt>0</asrwt>
<pdfrwt beam="1">  1        1 0.96724797E-01 0.41044359E+03</pdfrwt>
<pdfrwt beam="2">  1       -1 0.10305817E-01 0.41044359E+03</pdfrwt>
<totfact> 0.19213803E+03</totfact>
</mgrwt>
</event>
<event>
 4    1  0.1728870E-004  0.2623523E+03  0.7818608E-02  0.1105738E+00
          1   -1    0    0  501    0  0.00000000000E+00  0.00000000000E+00  0.43992060360E+02  0.43992060360E+02  0.00000000000E+00 0. -1.
         -1   -1    0    0    0  501 -0.00000000000E+00 -0.00000000000E+00 -0.39114288152E+03  0.39114288152E+03  0.00000000000E+00 0. -1.
         25    1    1    2    0    0 -0.40559541247E-01  0.76601694215E+01 -0.86621908312E+02  0.14819593395E+03  0.12000000000E+03 0.  0.
         25    1    1    2    0    0  0.40559541247E-01 -0.76601694215E+01 -0.26052891284E+03  0.28693900792E+03  0.12000000000E+03 0.  0.
<mgrwt>
<rscale>  0 0.26235229E+03</rscale>
<asrwt>0</asrwt>
<pdfrwt beam="1">  1        1 0.67680090E-02 0.26235229E+03</pdfrwt>
<pdfrwt beam="2">  1       -1 0.60175830E-01 0.26235229E+03</pdfrwt>
<totfact> 0.31453491E+03</totfact>
</mgrwt>
</event>
<event>
 4    1  0.1728870E-004  0.2991689E+03  0.7818608E-02  0.1085657E+00
         -1   -1    0    0    0  501 -0.00000000000E+00  0.00000000000E+00  0.21951143581E+03  0.21951143581E+03  0.00000000000E+00 0. -1.
          1   -1    0    0  501    0  0.00000000000E+00 -0.00000000000E+00 -0.10193321300E+03  0.10193321300E+03  0.00000000000E+00 0. -1.
         25    1    1    2    0    0 -0.88065631602E+00 -0.89282408605E+02  0.60765034981E+02  0.16144507895E+03  0.12000000000E+03 0.  0.
         25    1    1    2    0    0  0.88065631602E+00  0.89282408605E+02  0.56813187829E+02  0.15999956985E+03  0.12000000000E+03 0.  0.
<mgrwt>
<rscale>  0 0.29916889E+03</rscale>
<asrwt>0</asrwt>
<pdfrwt beam="1">  1        1 0.15682033E-01 0.29916889E+03</pdfrwt>
<pdfrwt beam="2">  1       -1 0.33770990E-01 0.29916889E+03</pdfrwt>
<totfact> 0.29213043E+03</totfact>
</mgrwt>
</event>
<event>
 4    1  0.1728870E-004  0.2529945E+03  0.7818608E-02  0.1111427E+00
         -2   -1    0    0    0  501 -0.00000000000E+00  0.00000000000E+00  0.34567251773E+03  0.34567251773E+03  0.00000000000E+00 0.  1.
          2   -1    0    0  501    0  0.00000000000E+00 -0.00000000000E+00 -0.46291080502E+02  0.46291080502E+02  0.00000000000E+00 0.  1.
         25    1    1    2    0    0 -0.11067691216E+02 -0.96345762016E+01  0.20737442568E+03  0.24004056173E+03  0.12000000000E+03 0.  0.
         25    1    1    2    0    0  0.11067691216E+02  0.96345762016E+01  0.92007011550E+02  0.15192303651E+03  0.12000000000E+03 0.  0.
<mgrwt>
<rscale>  0 0.25299450E+03</rscale>
<asrwt>0</asrwt>
<pdfrwt beam="1">  1        2 0.71217049E-02 0.25299450E+03</pdfrwt>
<pdfrwt beam="2">  1       -2 0.53180386E-01 0.25299450E+03</pdfrwt>
<totfact> 0.33227951E+03</totfact>
</mgrwt>
</event>
<event>
 4    1  0.1728870E-004  0.2636687E+03  0.7818608E-02  0.1104959E+00
         -1   -1    0    0    0  501 -0.00000000000E+00  0.00000000000E+00  0.53304804384E+02  0.53304804384E+02  0.00000000000E+00 0. -1.
          1   -1    0    0  501    0  0.00000000000E+00 -0.00000000000E+00 -0.32605490891E+03  0.32605490891E+03  0.00000000000E+00 0. -1.
         25    1    1    2    0    0 -0.66890385154E+01  0.55217120940E+00 -0.58425281322E+02  0.13363592940E+03  0.12000000000E+03 0.  0.
         25    1    1    2    0    0  0.66890385154E+01 -0.55217120940E+00 -0.21432482320E+03  0.24572378389E+03  0.12000000000E+03 0.  0.
<mgrwt>
<rscale>  0 0.26366868E+03</rscale>
<asrwt>0</asrwt>
<pdfrwt beam="1">  1        1 0.50162293E-01 0.26366868E+03</pdfrwt>
<pdfrwt beam="2">  1       -1 0.82007392E-02 0.26366868E+03</pdfrwt>
<totfact> 0.64728127E+03</totfact>
</mgrwt>
</event>
<event>
 4    1  0.1728870E-004  0.2817740E+03  0.7818608E-02  0.1094724E+00
         -1   -1    0    0    0  501 -0.00000000000E+00  0.00000000000E+00  0.93927811072E+01  0.93927811072E+01  0.00000000000E+00 0.  1.
          1   -1    0    0  501    0  0.00000000000E+00 -0.00000000000E+00 -0.21132346076E+04  0.21132346076E+04  0.00000000000E+00 0.  1.
         25    1    1    2    0    0  0.50935788747E+02 -0.38511438935E+02 -0.77293585585E+03  0.78479769543E+03  0.12000000000E+03 0.  0.
         25    1    1    2    0    0 -0.50935788747E+02  0.38511438935E+02 -0.13309059707E+04  0.13378296933E+04  0.12000000000E+03 0.  0.
<mgrwt>
<rscale>  0 0.28177402E+03</rscale>
<asrwt>0</asrwt>
<pdfrwt beam="1">  1        1 0.32511310E+00 0.28177402E+03</pdfrwt>
<pdfrwt beam="2">  1       -1 0.14450429E-02 0.28177402E+03</pdfrwt>
<totfact> 0.31376558E+03</totfact>
</mgrwt>
</event>
<event>
 4    1  0.1728870E-004  0.3523293E+03  0.7818608E-02  0.1061663E+00
         -1   -1    0    0    0  501 -0.00000000000E+00  0.00000000000E+00  0.23340817085E+02  0.23340817085E+02  0.00000000000E+00 0.  1.
          1   -1    0    0  501    0  0.00000000000E+00 -0.00000000000E+00 -0.13296017300E+04  0.13296017300E+04  0.00000000000E+00 0.  1.
         25    1    1    2    0    0  0.78950294979E+02 -0.42390216913E+02 -0.29694309489E+03  0.33257372291E+03  0.12000000000E+03 0.  0.
         25    1    1    2    0    0 -0.78950294979E+02  0.42390216913E+02 -0.10093178180E+04  0.10203688241E+04  0.12000000000E+03 0.  0.
<mgrwt>
<rscale>  0 0.35232934E+03</rscale>
<asrwt>0</asrwt>
<pdfrwt beam="1">  1        1 0.20455415E+00 0.35232934E+03</pdfrwt>
<pdfrwt beam="2">  1       -1 0.35908943E-02 0.35232934E+03</pdfrwt>
<totfact> 0.26937605E+03</totfact>
</mgrwt>
</event>
<event>
 4    1  0.1728870E-004  0.2547553E+03  0.7818608E-02  0.1110336E+00
         -2   -1    0    0    0  501 -0.00000000000E+00  0.00000000000E+00  0.28003656710E+02  0.28003656710E+02  0.00000000000E+00 0. -1.
          2   -1    0    0  501    0  0.00000000000E+00 -0.00000000000E+00 -0.57939081790E+03  0.57939081790E+03  0.00000000000E+00 0. -1.
         25    1    1    2    0    0 -0.42262453135E+02 -0.15519806900E+00 -0.29056828067E+03  0.31720035430E+03  0.12000000000E+03 0.  0.
         25    1    1    2    0    0  0.42262453135E+02  0.15519806900E+00 -0.26081888051E+03  0.29019412031E+03  0.12000000000E+03 0.  0.
<mgrwt>
<rscale>  0 0.25475527E+03</rscale>
<asrwt>0</asrwt>
<pdfrwt beam="1">  1        2 0.89137051E-01 0.25475527E+03</pdfrwt>
<pdfrwt beam="2">  1       -2 0.43082548E-02 0.25475527E+03</pdfrwt>
<totfact> 0.12788248E+04</totfact>
</mgrwt>
</event>
<event>
 4    1  0.1728870E-004  0.2606135E+03  0.7818608E-02  0.1106775E+00
         -2   -1    0    0    0  501 -0.00000000000E+00  0.00000000000E+00  0.41975349263E+02  0.41975349263E+02  0.00000000000E+00 0.  1.
          2   -1    0    0  501    0  0.00000000000E+00 -0.00000000000E+00 -0.40451955081E+03  0.40451955081E+03  0.00000000000E+00 0.  1.
         25    1    1    2    0    0  0.35135511792E+02  0.36651599054E+02 -0.18369834132E+03  0.22521750488E+03  0.12000000000E+03 0.  0.
         25    1    1    2    0    0 -0.35135511792E+02 -0.36651599054E+02 -0.17884586023E+03  0.22127739519E+03  0.12000000000E+03 0.  0.
<mgrwt>
<rscale>  0 0.26061350E+03</rscale>
<asrwt>0</asrwt>
<pdfrwt beam="1">  1        2 0.62233778E-01 0.26061350E+03</pdfrwt>
<pdfrwt beam="2">  1       -2 0.64577459E-02 0.26061350E+03</pdfrwt>
<totfact> 0.10312290E+04</totfact>
</mgrwt>
</event>
<event>
 4    1  0.1728870E-004  0.3213866E+03  0.7818608E-02  0.1075013E+00
         -3   -1    0    0    0  501 -0.00000000000E+00  0.00000000000E+00  0.19100592348E+03  0.19100592348E+03  0.00000000000E+00 0. -1.
          3   -1    0    0  501    0  0.00000000000E+00 -0.00000000000E+00 -0.13519130836E+03  0.13519130836E+03  0.00000000000E+00 0. -1.
         25    1    1    2    0    0  0.25801002711E+02 -0.66408095865E+02  0.10876540283E+03  0.17693399840E+03  0.12000000000E+03 0.  0.
         25    1    1    2    0    0 -0.25801002711E+02  0.66408095865E+02 -0.52950787705E+02  0.14926323344E+03  0.12000000000E+03 0.  0.
<mgrwt>
<rscale>  0 0.32138663E+03</rscale>
<asrwt>0</asrwt>
<pdfrwt beam="1">  1        3 0.20798663E-01 0.32138663E+03</pdfrwt>
<pdfrwt beam="2">  1       -3 0.29385527E-01 0.32138663E+03</pdfrwt>
<totfact> 0.60185208E+02</totfact>
</mgrwt>
</event>
<event>
 4    1  0.1728870E-004  0.2596558E+03  0.7818608E-02  0.1107350E+00
         -1   -1    0    0    0  501 -0.00000000000E+00  0.00000000000E+00  0.20903024915E+02  0.20903024915E+02  0.00000000000E+00 0. -1.
          1   -1    0    0  501    0  0.00000000000E+00 -0.00000000000E+00 -0.80635645044E+03  0.80635645044E+03  0.00000000000E+00 0. -1.
         25    1    1    2    0    0  0.24854895415E+02 -0.32473826757E+02 -0.48187587104E+03  0.49827369020E+03  0.12000000000E+03 0.  0.
         25    1    1    2    0    0 -0.24854895415E+02  0.32473826757E+02 -0.30357755449E+03  0.32898578516E+03  0.12000000000E+03 0.  0.
<mgrwt>
<rscale>  0 0.25965584E+03</rscale>
<asrwt>0</asrwt>
<pdfrwt beam="1">  1        1 0.12405483E+00 0.25965584E+03</pdfrwt>
<pdfrwt beam="2">  1       -1 0.32158501E-02 0.25965584E+03</pdfrwt>
<totfact> 0.77124705E+03</totfact>
</mgrwt>
</event>
<event>
 4    1  0.1728870E-004  0.2901309E+03  0.7818608E-02  0.1090281E+00
         -2   -1    0    0    0  501 -0.00000000000E+00  0.00000000000E+00  0.13566292375E+02  0.13566292375E+02  0.00000000000E+00 0. -1.
          2   -1    0    0  501    0  0.00000000000E+00 -0.00000000000E+00 -0.15511962367E+04  0.15511962367E+04  0.00000000000E+00 0. -1.
         25    1    1    2    0    0 -0.15474062695E+02  0.18093594354E+02 -0.34837431211E+03  0.36923093873E+03  0.12000000000E+03 0.  0.
         25    1    1    2    0    0  0.15474062695E+02 -0.18093594354E+02 -0.11892556322E+04  0.11955315903E+04  0.12000000000E+03 0.  0.
<mgrwt>
<rscale>  0 0.29013088E+03</rscale>
<asrwt>0</asrwt>
<pdfrwt beam="1">  1        2 0.23864545E+00 0.29013088E+03</pdfrwt>
<pdfrwt beam="2">  1       -2 0.20871230E-02 0.29013088E+03</pdfrwt>
<totfact> 0.93101461E+03</totfact>
</mgrwt>
</event>
<event>
 4    1  0.1728870E-004  0.2982856E+03  0.7818608E-02  0.1086101E+00
         -1   -1    0    0    0  501 -0.00000000000E+00  0.00000000000E+00  0.36632828893E+03  0.36632828893E+03  0.00000000000E+00 0. -1.
          1   -1    0    0  501    0  0.00000000000E+00 -0.00000000000E+00 -0.60720318300E+02  0.60720318300E+02  0.00000000000E+00 0. -1.
         25    1    1    2    0    0 -0.68563010263E+02  0.54866935526E+02  0.13633638074E+03  0.20173962354E+03  0.12000000000E+03 0.  0.
         25    1    1    2    0    0  0.68563010263E+02 -0.54866935526E+02  0.16927158989E+03  0.22530898370E+03  0.12000000000E+03 0.  0.
<mgrwt>
<rscale>  0 0.29828557E+03</rscale>
<asrwt>0</asrwt>
<pdfrwt beam="1">  1        1 0.93415877E-02 0.29828557E+03</pdfrwt>
<pdfrwt beam="2">  1       -1 0.56358197E-01 0.29828557E+03</pdfrwt>
<totfact> 0.23065216E+03</totfact>
</mgrwt>
</event>
<event>
 4    1  0.1728870E-004  0.3319008E+03  0.7818608E-02  0.1070299E+00
          2   -1    0    0  501    0  0.00000000000E+00  0.00000000000E+00  0.28290287077E+04  0.28290287077E+04  0.00000000000E+00 0. -1.
         -2   -1    0    0    0  501 -0.00000000000E+00 -0.00000000000E+00 -0.97346249761E+01  0.97346249761E+01  0.00000000000E+00 0. -1.
         25    1    1    2    0    0 -0.58012982465E+02  0.98752640896E+02  0.14497126592E+04  0.14591724999E+04  0.12000000000E+03 0.  0.
         25    1    1    2    0    0  0.58012982465E+02 -0.98752640896E+02  0.13695814235E+04  0.13795908328E+04  0.12000000000E+03 0.  0.
<mgrwt>
<rscale>  0 0.33190079E+03</rscale>
<asrwt>0</asrwt>
<pdfrwt beam="1">  1        2 0.43523453E+00 0.33190079E+03</pdfrwt>
<pdfrwt beam="2">  1       -2 0.14976369E-02 0.33190079E+03</pdfrwt>
<totfact> 0.30862230E+03</totfact>
</mgrwt>
</event>
<event>
 4    1  0.1728870E-004  0.3177792E+03  0.7818608E-02  0.1076676E+00
          1   -1    0    0  501    0  0.00000000000E+00  0.00000000000E+00  0.48413202487E+03  0.48413202487E+03  0.00000000000E+00 0. -1.
         -1   -1    0    0    0  501 -0.00000000000E+00 -0.00000000000E+00 -0.52146741349E+02  0.52146741349E+02  0.00000000000E+00 0. -1.
         25    1    1    2    0    0  0.11518106509E+02  0.96636145390E+02  0.27856297443E+03  0.31854127221E+03  0.12000000000E+03 0.  0.
         25    1    1    2    0    0 -0.11518106509E+02 -0.96636145390E+02  0.15342230909E+03  0.21773749401E+03  0.12000000000E+03 0.  0.
<mgrwt>
<rscale>  0 0.31777922E+03</rscale>
<asrwt>0</asrwt>
<pdfrwt beam="1">  1        1 0.74481847E-01 0.31777922E+03</pdfrwt>
<pdfrwt beam="2">  1       -1 0.80225759E-02 0.31777922E+03</pdfrwt>
<totfact> 0.40443494E+03</totfact>
</mgrwt>
</event>
<event>
 4    1  0.1728870E-004  0.3017226E+03  0.7818608E-02  0.1084383E+00
         -2   -1    0    0    0  501 -0.00000000000E+00  0.00000000000E+00  0.83715105423E+02  0.83715105423E+02  0.00000000000E+00 0.  1.
          2   -1    0    0  501    0  0.00000000000E+00 -0.00000000000E+00 -0.27186413866E+03  0.27186413866E+03  0.00000000000E+00 0.  1.
         25    1    1    2    0    0  0.40542135608E+02 -0.79488055410E+02 -0.70589599257E+02  0.16536295606E+03  0.12000000000E+03 0.  0.
         25    1    1    2    0    0 -0.40542135608E+02  0.79488055410E+02 -0.11755943398E+03  0.19021628802E+03  0.12000000000E+03 0.  0.
<mgrwt>
<rscale>  0 0.30172262E+03</rscale>
<asrwt>0</asrwt>
<pdfrwt beam="1">  1        2 0.41825252E-01 0.30172262E+03</pdfrwt>
<pdfrwt beam="2">  1       -2 0.12879247E-01 0.30172262E+03</pdfrwt>
<totfact> 0.53475565E+03</totfact>
</mgrwt>
</event>
<event>
 4    1  0.1728870E-004  0.2668045E+03  0.7818608E-02  0.1103123E+00
         -1   -1    0    0    0  501 -0.00000000000E+00  0.00000000000E+00  0.20431960470E+03  0.20431960470E+03  0.00000000000E+00 0.  1.
          1   -1    0    0  501    0  0.00000000000E+00 -0.00000000000E+00 -0.87099643182E+02  0.87099643182E+02  0.00000000000E+00 0.  1.
         25    1    1    2    0    0 -0.98053369174E+01  0.21853827664E+01  0.12131016650E+03  0.17093003547E+03  0.12000000000E+03 0.  0.
         25    1    1    2    0    0  0.98053369174E+01 -0.21853827664E+01 -0.40902049856E+01  0.12048921241E+03  0.12000000000E+03 0.  0.
<mgrwt>
<rscale>  0 0.26680453E+03</rscale>
<asrwt>0</asrwt>
<pdfrwt beam="1">  1        1 0.13399945E-01 0.26680453E+03</pdfrwt>
<pdfrwt beam="2">  1       -1 0.31433785E-01 0.26680453E+03</pdfrwt>
<totfact> 0.40531289E+03</totfact>
</mgrwt>
</event>
<event>
 4    1  0.1728870E-004  0.2619248E+03  0.7818608E-02  0.1105992E+00
          2   -1    0    0  501    0  0.00000000000E+00  0.00000000000E+00  0.28467113041E+02  0.28467113041E+02  0.00000000000E+00 0.  1.
         -2   -1    0    0    0  501 -0.00000000000E+00 -0.00000000000E+00 -0.60249017480E+03  0.60249017480E+03  0.00000000000E+00 0.  1.
         25    1    1    2    0    0  0.26469489891E+01  0.41562058372E+02 -0.36382356469E+03  0.38535956879E+03  0.12000000000E+03 0.  0.
         25    1    1    2    0    0 -0.26469489891E+01 -0.41562058372E+02 -0.21019949707E+03  0.24559771905E+03  0.12000000000E+03 0.  0.
<mgrwt>
<rscale>  0 0.26192484E+03</rscale>
<asrwt>0</asrwt>
<pdfrwt beam="1">  1        2 0.43795561E-02 0.26192484E+03</pdfrwt>
<pdfrwt beam="2">  1       -2 0.92690790E-01 0.26192484E+03</pdfrwt>
<totfact> 0.19113883E+03</totfact>
</mgrwt>
</event>
<event>
 4    1  0.1728870E-004  0.2516271E+03  0.7818608E-02  0.1112281E+00
          2   -1    0    0  501    0  0.00000000000E+00  0.00000000000E+00  0.95310893313E+03  0.95310893313E+03  0.00000000000E+00 0.  1.
         -2   -1    0    0    0  501 -0.00000000000E+00 -0.00000000000E+00 -0.16607805779E+02  0.16607805779E+02  0.00000000000E+00 0.  1.
         25    1    1    2    0    0  0.16866238414E+02  0.32406757883E+01  0.33847031822E+03  0.35952347391E+03  0.12000000000E+03 0.  0.
         25    1    1    2    0    0 -0.16866238414E+02 -0.32406757883E+01  0.59803080913E+03  0.61019326500E+03  0.12000000000E+03 0.  0.
<mgrwt>
<rscale>  0 0.25162709E+03</rscale>
<asrwt>0</asrwt>
<pdfrwt beam="1">  1        2 0.14663210E+00 0.25162709E+03</pdfrwt>
<pdfrwt beam="2">  1       -2 0.25550478E-02 0.25162709E+03</pdfrwt>
<totfact> 0.15003479E+04</totfact>
</mgrwt>
</event>
<event>
 4    1  0.1728870E-004  0.2470051E+03  0.7818608E-02  0.1115212E+00
         -4   -1    0    0    0  501 -0.00000000000E+00  0.00000000000E+00  0.81588352914E+02  0.81588352914E+02  0.00000000000E+00 0. -1.
          4   -1    0    0  501    0  0.00000000000E+00 -0.00000000000E+00 -0.18694917968E+03  0.18694917968E+03  0.00000000000E+00 0. -1.
         25    1    1    2    0    0 -0.50832547616E+01 -0.10407011188E+02 -0.23534202218E+02  0.12283323669E+03  0.12000000000E+03 0.  0.
         25    1    1    2    0    0  0.50832547616E+01  0.10407011188E+02 -0.81826624545E+02  0.14570429591E+03  0.12000000000E+03 0.  0.
<mgrwt>
<rscale>  0 0.24700507E+03</rscale>
<asrwt>0</asrwt>
<pdfrwt beam="1">  1        4 0.28761412E-01 0.24700507E+03</pdfrwt>
<pdfrwt beam="2">  1       -4 0.12552054E-01 0.24700507E+03</pdfrwt>
<totfact> 0.10941092E+03</totfact>
</mgrwt>
</event>
<event>
 4    1  0.1728870E-004  0.2514258E+03  0.7818608E-02  0.1112407E+00
         -2   -1    0    0    0  501 -0.00000000000E+00  0.00000000000E+00  0.26321500574E+02  0.26321500574E+02  0.00000000000E+00 0.  1.
          2   -1    0    0  501    0  0.00000000000E+00 -0.00000000000E+00 -0.60041169775E+03  0.60041169775E+03  0.00000000000E+00 0.  1.
         25    1    1    2    0    0 -0.17210674920E+02 -0.24231207162E+02 -0.23018176433E+03  0.26127955021E+03  0.12000000000E+03 0.  0.
         25    1    1    2    0    0  0.17210674920E+02  0.24231207162E+02 -0.34390843285E+03  0.36545364811E+03  0.12000000000E+03 0.  0.
<mgrwt>
<rscale>  0 0.25142583E+03</rscale>
<asrwt>0</asrwt>
<pdfrwt beam="1">  1        2 0.92371023E-01 0.25142583E+03</pdfrwt>
<pdfrwt beam="2">  1       -2 0.40494620E-02 0.25142583E+03</pdfrwt>
<totfact> 0.13464019E+04</totfact>
</mgrwt>
</event>
<event>
 4    1  0.1728870E-004  0.3436996E+03  0.7818608E-02  0.1065231E+00
          3   -1    0    0  501    0  0.00000000000E+00  0.00000000000E+00  0.19506439763E+03  0.19506439763E+03  0.00000000000E+00 0. -1.
         -3   -1    0    0    0  501 -0.00000000000E+00 -0.00000000000E+00 -0.15139795547E+03  0.15139795547E+03  0.00000000000E+00 0. -1.
         25    1    1    2    0    0  0.73495666891E+02 -0.77498894592E+02  0.83353786659E+02  0.18098493160E+03  0.12000000000E+03 0.  0.
         25    1    1    2    0    0 -0.73495666891E+02  0.77498894592E+02 -0.39687344498E+02  0.16547742151E+03  0.12000000000E+03 0.  0.
<mgrwt>
<rscale>  0 0.34369958E+03</rscale>
<asrwt>0</asrwt>
<pdfrwt beam="1">  1        3 0.30009908E-01 0.34369958E+03</pdfrwt>
<pdfrwt beam="2">  1       -3 0.23291993E-01 0.34369958E+03</pdfrwt>
<totfact> 0.47446785E+02</totfact>
</mgrwt>
</event>
<event>
 4    1  0.1728870E-004  0.4326906E+03  0.7818608E-02  0.1033013E+00
          2   -1    0    0  501    0  0.00000000000E+00  0.00000000000E+00  0.43622963341E+03  0.43622963341E+03  0.00000000000E+00 0.  1.
         -2   -1    0    0    0  501 -0.00000000000E+00 -0.00000000000E+00 -0.10729507083E+03  0.10729507083E+03  0.00000000000E+00 0.  1.
         25    1    1    2    0    0  0.13416424429E+03  0.94399827574E+02  0.71360161360E+02  0.21541505175E+03  0.12000000000E+03 0.  0.
         25    1    1    2    0    0 -0.13416424429E+03 -0.94399827574E+02  0.25757440122E+03  0.32810965249E+03  0.12000000000E+03 0.  0.
<mgrwt>
<rscale>  0 0.43269060E+03</rscale>
<asrwt>0</asrwt>
<pdfrwt beam="1">  1        2 0.67112250E-01 0.43269060E+03</pdfrwt>
<pdfrwt beam="2">  1       -2 0.16506934E-01 0.43269060E+03</pdfrwt>
<totfact> 0.21287502E+03</totfact>
</mgrwt>
</event>
<event>
 4    1  0.1728870E-004  0.2878784E+03  0.7818608E-02  0.1091462E+00
          2   -1    0    0  501    0  0.00000000000E+00  0.00000000000E+00  0.26822837957E+02  0.26822837957E+02  0.00000000000E+00 0.  1.
         -2   -1    0    0    0  501 -0.00000000000E+00 -0.00000000000E+00 -0.77242001689E+03  0.77242001689E+03  0.00000000000E+00 0.  1.
         25    1    1    2    0    0  0.63104276967E+00 -0.68574464314E+02 -0.26120425299E+03  0.29551737200E+03  0.12000000000E+03 0.  0.
         25    1    1    2    0    0 -0.63104276967E+00  0.68574464314E+02 -0.48439292594E+03  0.50372548285E+03  0.12000000000E+03 0.  0.
<mgrwt>
<rscale>  0 0.28787843E+03</rscale>
<asrwt>0</asrwt>
<pdfrwt beam="1">  1        2 0.41265910E-02 0.28787843E+03</pdfrwt>
<pdfrwt beam="2">  1       -2 0.11883383E+00 0.28787843E+03</pdfrwt>
<totfact> 0.11575473E+03</totfact>
</mgrwt>
</event>
<event>
 4    1  0.1728870E-004  0.2681090E+03  0.7818608E-02  0.1102367E+00
         -3   -1    0    0    0  501 -0.00000000000E+00  0.00000000000E+00  0.85985625890E+02  0.85985625890E+02  0.00000000000E+00 0. -1.
          3   -1    0    0  501    0  0.00000000000E+00 -0.00000000000E+00 -0.20899551803E+03  0.20899551803E+03  0.00000000000E+00 0. -1.
         25    1    1    2    0    0 -0.47518481502E+02  0.33439960383E+02 -0.46165797580E+02  0.14109400377E+03  0.12000000000E+03 0.  0.
         25    1    1    2    0    0  0.47518481502E+02 -0.33439960383E+02 -0.76844094564E+02  0.15388714015E+03  0.12000000000E+03 0.  0.
<mgrwt>
<rscale>  0 0.26810901E+03</rscale>
<asrwt>0</asrwt>
<pdfrwt beam="1">  1        3 0.32153156E-01 0.26810901E+03</pdfrwt>
<pdfrwt beam="2">  1       -3 0.13228558E-01 0.26810901E+03</pdfrwt>
<totfact> 0.11013371E+03</totfact>
</mgrwt>
</event>
<event>
 4    1  0.1728870E-004  0.2714282E+03  0.7818608E-02  0.1100465E+00
          2   -1    0    0  501    0  0.00000000000E+00  0.00000000000E+00  0.59068138425E+03  0.59068138425E+03  0.00000000000E+00 0. -1.
         -2   -1    0    0    0  501 -0.00000000000E+00 -0.00000000000E+00 -0.31181465796E+02  0.31181465796E+02  0.00000000000E+00 0. -1.
         25    1    1    2    0    0 -0.29990586454E+02 -0.45942948538E+02  0.35249379006E+03  0.37638020913E+03  0.12000000000E+03 0.  0.
         25    1    1    2    0    0  0.29990586454E+02  0.45942948538E+02  0.20700612839E+03  0.24548264091E+03  0.12000000000E+03 0.  0.
<mgrwt>
<rscale>  0 0.27142816E+03</rscale>
<asrwt>0</asrwt>
<pdfrwt beam="1">  1        2 0.90874051E-01 0.27142816E+03</pdfrwt>
<pdfrwt beam="2">  1       -2 0.47971490E-02 0.27142816E+03</pdfrwt>
<totfact> 0.10659482E+04</totfact>
</mgrwt>
</event>
<event>
 4    1  0.1728870E-004  0.2442356E+03  0.7818608E-02  0.1117003E+00
          1   -1    0    0  501    0  0.00000000000E+00  0.00000000000E+00  0.18958469929E+03  0.18958469929E+03  0.00000000000E+00 0. -1.
         -1   -1    0    0    0  501 -0.00000000000E+00 -0.00000000000E+00 -0.78660161100E+02  0.78660161100E+02  0.00000000000E+00 0. -1.
         25    1    1    2    0    0 -0.11205396415E+02 -0.11944684461E+02  0.38287717619E+02  0.12702041456E+03  0.12000000000E+03 0.  0.
         25    1    1    2    0    0  0.11205396415E+02  0.11944684461E+02  0.72636820570E+02  0.14122444582E+03  0.12000000000E+03 0.  0.
<mgrwt>
<rscale>  0 0.24423565E+03</rscale>
<asrwt>0</asrwt>
<pdfrwt beam="1">  1        1 0.29166877E-01 0.24423565E+03</pdfrwt>
<pdfrwt beam="2">  1       -1 0.12101563E-01 0.24423565E+03</pdfrwt>
<totfact> 0.69924839E+03</totfact>
</mgrwt>
</event>
<event>
 4    1  0.1728870E-004  0.2521472E+03  0.7818608E-02  0.1111955E+00
          1   -1    0    0  501    0  0.00000000000E+00  0.00000000000E+00  0.25378781344E+03  0.25378781344E+03  0.00000000000E+00 0. -1.
         -1   -1    0    0    0  501 -0.00000000000E+00 -0.00000000000E+00 -0.62629306833E+02  0.62629306833E+02  0.00000000000E+00 0. -1.
         25    1    1    2    0    0 -0.29830583266E+02 -0.24032567532E+02  0.10211515302E+03  0.16215712280E+03  0.12000000000E+03 0.  0.
         25    1    1    2    0    0  0.29830583266E+02  0.24032567532E+02  0.89043353586E+02  0.15425999747E+03  0.12000000000E+03 0.  0.
<mgrwt>
<rscale>  0 0.25214722E+03</rscale>
<asrwt>0</asrwt>
<pdfrwt beam="1">  1        1 0.39044278E-01 0.25214722E+03</pdfrwt>
<pdfrwt beam="2">  1       -1 0.96352781E-02 0.25214722E+03</pdfrwt>
<totfact> 0.69109353E+03</totfact>
</mgrwt>
</event>
<event>
 4    1  0.1728870E-004  0.2993322E+03  0.7818608E-02  0.1085575E+00
          1   -1    0    0  501    0  0.00000000000E+00  0.00000000000E+00  0.18997573283E+03  0.18997573283E+03  0.00000000000E+00 0.  1.
         -1   -1    0    0    0  501 -0.00000000000E+00 -0.00000000000E+00 -0.11790949022E+03  0.11790949022E+03  0.00000000000E+00 0.  1.
         25    1    1    2    0    0 -0.44009419165E+02 -0.64051021991E+02  0.81576749405E+02  0.16460294176E+03  0.12000000000E+03 0.  0.
         25    1    1    2    0    0  0.44009419165E+02  0.64051021991E+02 -0.95105067984E+01  0.14328228129E+03  0.12000000000E+03 0.  0.
<mgrwt>
<rscale>  0 0.29933220E+03</rscale>
<asrwt>0</asrwt>
<pdfrwt beam="1">  1        1 0.29227036E-01 0.29933220E+03</pdfrwt>
<pdfrwt beam="2">  1       -1 0.18139922E-01 0.29933220E+03</pdfrwt>
<totfact> 0.36955762E+03</totfact>
</mgrwt>
</event>
<event>
 4    1  0.1728870E-004  0.3282662E+03  0.7818608E-02  0.1071907E+00
         -2   -1    0    0    0  501 -0.00000000000E+00  0.00000000000E+00  0.14809208964E+02  0.14809208964E+02  0.00000000000E+00 0. -1.
          2   -1    0    0  501    0  0.00000000000E+00 -0.00000000000E+00 -0.18191165386E+04  0.18191165386E+04  0.00000000000E+00 0. -1.
         25    1    1    2    0    0  0.90181546014E+02 -0.59461682251E+02 -0.73724899637E+03  0.75472146223E+03  0.12000000000E+03 0.  0.
         25    1    1    2    0    0 -0.90181546014E+02  0.59461682251E+02 -0.10670583333E+04  0.10792042853E+04  0.12000000000E+03 0.  0.
<mgrwt>
<rscale>  0 0.32826621E+03</rscale>
<asrwt>0</asrwt>
<pdfrwt beam="1">  1        2 0.27986404E+00 0.32826621E+03</pdfrwt>
<pdfrwt beam="2">  1       -2 0.22783402E-02 0.32826621E+03</pdfrwt>
<totfact> 0.59029022E+03</totfact>
</mgrwt>
</event>
<event>
 4    1  0.1728870E-004  0.2919256E+03  0.7818608E-02  0.1089348E+00
         -2   -1    0    0    0  501 -0.00000000000E+00  0.00000000000E+00  0.16446070680E+02  0.16446070680E+02  0.00000000000E+00 0.  1.
          2   -1    0    0  501    0  0.00000000000E+00 -0.00000000000E+00 -0.12954548014E+04  0.12954548014E+04  0.00000000000E+00 0.  1.
         25    1    1    2    0    0 -0.28945425897E+02 -0.33092810290E+02 -0.32261929606E+03  0.34701034850E+03  0.12000000000E+03 0.  0.
         25    1    1    2    0    0  0.28945425897E+02  0.33092810290E+02 -0.95638943466E+03  0.96489052359E+03  0.12000000000E+03 0.  0.
<mgrwt>
<rscale>  0 0.29192562E+03</rscale>
<asrwt>0</asrwt>
<pdfrwt beam="1">  1        2 0.19930074E+00 0.29192562E+03</pdfrwt>
<pdfrwt beam="2">  1       -2 0.25301647E-02 0.29192562E+03</pdfrwt>
<totfact> 0.96436906E+03</totfact>
</mgrwt>
</event>
<event>
 4    1  0.1728870E-004  0.2769576E+03  0.7818608E-02  0.1097362E+00
         -1   -1    0    0    0  501 -0.00000000000E+00  0.00000000000E+00  0.98982122660E+01  0.98982122660E+01  0.00000000000E+00 0.  1.
          1   -1    0    0  501    0  0.00000000000E+00 -0.00000000000E+00 -0.19373583267E+04  0.19373583267E+04  0.00000000000E+00 0.  1.
         25    1    1    2    0    0  0.28557954105E+02  0.38858880153E+01 -0.14053750779E+04  0.14107833875E+04  0.12000000000E+03 0.  0.
         25    1    1    2    0    0 -0.28557954105E+02 -0.38858880153E+01 -0.52208503649E+03  0.53647315142E+03  0.12000000000E+03 0.  0.
<mgrwt>
<rscale>  0 0.27695764E+03</rscale>
<asrwt>0</asrwt>
<pdfrwt beam="1">  1        1 0.29805484E+00 0.27695764E+03</pdfrwt>
<pdfrwt beam="2">  1       -1 0.15228034E-02 0.27695764E+03</pdfrwt>
<totfact> 0.37829997E+03</totfact>
</mgrwt>
</event>
<event>
 4    1  0.1728870E-004  0.2730658E+03  0.7818608E-02  0.1099538E+00
         -2   -1    0    0    0  501 -0.00000000000E+00  0.00000000000E+00  0.64636316017E+03  0.64636316017E+03  0.00000000000E+00 0.  1.
          2   -1    0    0  501    0  0.00000000000E+00 -0.00000000000E+00 -0.28840179227E+02  0.28840179227E+02  0.00000000000E+00 0.  1.
         25    1    1    2    0    0  0.48366036353E+02  0.15031584258E+01  0.41653435184E+03  0.43616785670E+03  0.12000000000E+03 0.  0.
         25    1    1    2    0    0 -0.48366036353E+02 -0.15031584258E+01  0.20098862910E+03  0.23903548269E+03  0.12000000000E+03 0.  0.
<mgrwt>
<rscale>  0 0.27306578E+03</rscale>
<asrwt>0</asrwt>
<pdfrwt beam="1">  1        2 0.44369511E-02 0.27306578E+03</pdfrwt>
<pdfrwt beam="2">  1       -2 0.99440475E-01 0.27306578E+03</pdfrwt>
<totfact> 0.16003659E+03</totfact>
</mgrwt>
</event>
<event>
 4    1  0.1728870E-004  0.2839716E+03  0.7818608E-02  0.1093539E+00
          1   -1    0    0  501    0  0.00000000000E+00  0.00000000000E+00  0.11157291486E+04  0.11157291486E+04  0.00000000000E+00 0.  1.
         -1   -1    0    0    0  501 -0.00000000000E+00 -0.00000000000E+00 -0.18068873799E+02  0.18068873799E+02  0.00000000000E+00 0.  1.
         25    1    1    2    0    0 -0.23293553918E+02  0.28484255589E+02  0.81385360400E+03  0.82347533735E+03  0.12000000000E+03 0.  0.
         25    1    1    2    0    0  0.23293553918E+02 -0.28484255589E+02  0.28380667083E+03  0.31032268509E+03  0.12000000000E+03 0.  0.
<mgrwt>
<rscale>  0 0.28397161E+03</rscale>
<asrwt>0</asrwt>
<pdfrwt beam="1">  1        1 0.17165058E+00 0.28397161E+03</pdfrwt>
<pdfrwt beam="2">  1       -1 0.27798276E-02 0.28397161E+03</pdfrwt>
<totfact> 0.55529214E+03</totfact>
</mgrwt>
</event>
<event>
 4    1  0.1728870E-004  0.3034563E+03  0.7818608E-02  0.1083525E+00
          1   -1    0    0  501    0  0.00000000000E+00  0.00000000000E+00  0.12967654523E+03  0.12967654523E+03  0.00000000000E+00 0.  1.
         -1   -1    0    0    0  501 -0.00000000000E+00 -0.00000000000E+00 -0.17752969987E+03  0.17752969987E+03  0.00000000000E+00 0.  1.
         25    1    1    2    0    0  0.71830982348E+01 -0.91965770133E+02 -0.34646976430E+02  0.15527302648E+03  0.12000000000E+03 0.  0.
         25    1    1    2    0    0 -0.71830982348E+01  0.91965770133E+02 -0.13206178215E+02  0.15193321862E+03  0.12000000000E+03 0.  0.
<mgrwt>
<rscale>  0 0.30345634E+03</rscale>
<asrwt>0</asrwt>
<pdfrwt beam="1">  1        1 0.19950238E-01 0.30345634E+03</pdfrwt>
<pdfrwt beam="2">  1       -1 0.27312262E-01 0.30345634E+03</pdfrwt>
<totfact> 0.30693219E+03</totfact>
</mgrwt>
</event>
<event>
 4    1  0.1728870E-004  0.2562434E+03  0.7818608E-02  0.1109422E+00
          1   -1    0    0  501    0  0.00000000000E+00  0.00000000000E+00  0.12546656027E+04  0.12546656027E+04  0.00000000000E+00 0.  1.
         -1   -1    0    0    0  501 -0.00000000000E+00 -0.00000000000E+00 -0.13083302624E+02  0.13083302624E+02  0.00000000000E+00 0.  1.
         25    1    1    2    0    0  0.55741973352E+01 -0.59119283278E+01  0.40236588148E+03  0.41995752779E+03  0.12000000000E+03 0.  0.
         25    1    1    2    0    0 -0.55741973352E+01  0.59119283278E+01  0.83921641863E+03  0.84779137756E+03  0.12000000000E+03 0.  0.
<mgrwt>
<rscale>  0 0.25624340E+03</rscale>
<asrwt>0</asrwt>
<pdfrwt beam="1">  1        1 0.19302538E+00 0.25624340E+03</pdfrwt>
<pdfrwt beam="2">  1       -1 0.20128168E-02 0.25624340E+03</pdfrwt>
<totfact> 0.71085839E+03</totfact>
</mgrwt>
</event>
<event>
 4    1  0.1728870E-004  0.2650850E+03  0.7818608E-02  0.1104126E+00
         -2   -1    0    0    0  501 -0.00000000000E+00  0.00000000000E+00  0.42117924660E+02  0.42117924660E+02  0.00000000000E+00 0.  1.
          2   -1    0    0  501    0  0.00000000000E+00 -0.00000000000E+00 -0.41710313766E+03  0.41710313766E+03  0.00000000000E+00 0.  1.
         25    1    1    2    0    0  0.33103004943E+02 -0.45193421630E+02 -0.17812119166E+03  0.22195813392E+03  0.12000000000E+03 0.  0.
         25    1    1    2    0    0 -0.33103004943E+02  0.45193421630E+02 -0.19686402134E+03  0.23726292840E+03  0.12000000000E+03 0.  0.
<mgrwt>
<rscale>  0 0.26508503E+03</rscale>
<asrwt>0</asrwt>
<pdfrwt beam="1">  1        2 0.64169714E-01 0.26508503E+03</pdfrwt>
<pdfrwt beam="2">  1       -2 0.64796806E-02 0.26508503E+03</pdfrwt>
<totfact> 0.99293745E+03</totfact>
</mgrwt>
</event>
<event>
 4    1  0.1728870E-004  0.2866885E+03  0.7818608E-02  0.1092091E+00
          1   -1    0    0  501    0  0.00000000000E+00  0.00000000000E+00  0.31590073262E+03  0.31590073262E+03  0.00000000000E+00 0. -1.
         -1   -1    0    0    0  501 -0.00000000000E+00 -0.00000000000E+00 -0.65044407195E+02  0.65044407195E+02  0.00000000000E+00 0. -1.
         25    1    1    2    0    0  0.17145512605E+02  0.22812575976E+02  0.28389272286E+02  0.12657145415E+03  0.12000000000E+03 0.  0.
         25    1    1    2    0    0 -0.17145512605E+02 -0.22812575976E+02  0.22246705314E+03  0.25437368566E+03  0.12000000000E+03 0.  0.
<mgrwt>
<rscale>  0 0.28668851E+03</rscale>
<asrwt>0</asrwt>
<pdfrwt beam="1">  1        1 0.48600112E-01 0.28668851E+03</pdfrwt>
<pdfrwt beam="2">  1       -1 0.10006832E-01 0.28668851E+03</pdfrwt>
<totfact> 0.49739796E+03</totfact>
</mgrwt>
</event>
<event>
 4    1  0.1728870E-004  0.2782183E+03  0.7818608E-02  0.1096666E+00
          2   -1    0    0  501    0  0.00000000000E+00  0.00000000000E+00  0.19959104101E+04  0.19959104101E+04  0.00000000000E+00 0. -1.
         -2   -1    0    0    0  501 -0.00000000000E+00 -0.00000000000E+00 -0.96955028240E+01  0.96955028240E+01  0.00000000000E+00 0. -1.
         25    1    1    2    0    0 -0.80837030086E+01  0.22541183238E+02  0.51613530159E+03  0.53044236327E+03  0.12000000000E+03 0.  0.
         25    1    1    2    0    0  0.80837030086E+01 -0.22541183238E+02  0.14700796057E+04  0.14751635496E+04  0.12000000000E+03 0.  0.
<mgrwt>
<rscale>  0 0.27821830E+03</rscale>
<asrwt>0</asrwt>
<pdfrwt beam="1">  1        2 0.30706281E+00 0.27821830E+03</pdfrwt>
<pdfrwt beam="2">  1       -2 0.14916174E-02 0.27821830E+03</pdfrwt>
<totfact> 0.88826111E+03</totfact>
</mgrwt>
</event>
<event>
 4    1  0.1728870E-004  0.2582912E+03  0.7818608E-02  0.1108174E+00
          2   -1    0    0  501    0  0.00000000000E+00  0.00000000000E+00  0.25967352037E+04  0.25967352037E+04  0.00000000000E+00 0. -1.
         -2   -1    0    0    0  501 -0.00000000000E+00 -0.00000000000E+00 -0.64229049232E+01  0.64229049232E+01  0.00000000000E+00 0. -1.
         25    1    1    2    0    0  0.46926286872E+02 -0.39658665904E+01  0.12165842725E+04  0.12233949062E+04  0.12000000000E+03 0.  0.
         25    1    1    2    0    0 -0.46926286872E+02  0.39658665904E+01  0.13737280263E+04  0.13797632024E+04  0.12000000000E+03 0.  0.
<mgrwt>
<rscale>  0 0.25829118E+03</rscale>
<asrwt>0</asrwt>
<pdfrwt beam="1">  1        2 0.39949689E+00 0.25829118E+03</pdfrwt>
<pdfrwt beam="2">  1       -2 0.98814129E-03 0.25829118E+03</pdfrwt>
<totfact> 0.76945695E+03</totfact>
</mgrwt>
</event>
<event>
 4    1  0.1728870E-004  0.2528866E+03  0.7818608E-02  0.1111494E+00
          2   -1    0    0  501    0  0.00000000000E+00  0.00000000000E+00  0.81518371715E+02  0.81518371715E+02  0.00000000000E+00 0. -1.
         -2   -1    0    0    0  501 -0.00000000000E+00 -0.00000000000E+00 -0.19612637956E+03  0.19612637956E+03  0.00000000000E+00 0. -1.
         25    1    1    2    0    0 -0.18165458587E+02  0.20142110534E+02 -0.89354754605E+02  0.15205249315E+03  0.12000000000E+03 0.  0.
         25    1    1    2    0    0  0.18165458587E+02 -0.20142110534E+02 -0.25253253242E+02  0.12559225813E+03  0.12000000000E+03 0.  0.
<mgrwt>
<rscale>  0 0.25288656E+03</rscale>
<asrwt>0</asrwt>
<pdfrwt beam="1">  1        2 0.12541288E-01 0.25288656E+03</pdfrwt>
<pdfrwt beam="2">  1       -2 0.30173289E-01 0.25288656E+03</pdfrwt>
<totfact> 0.48453323E+03</totfact>
</mgrwt>
</event>
<event>
 4    1  0.1728870E-004  0.3032475E+03  0.7818608E-02  0.1083628E+00
         -2   -1    0    0    0  501 -0.00000000000E+00  0.00000000000E+00  0.20880351232E+04  0.20880351232E+04  0.00000000000E+00 0. -1.
          2   -1    0    0  501    0  0.00000000000E+00 -0.00000000000E+00 -0.11010236744E+02  0.11010236744E+02  0.00000000000E+00 0. -1.
         25    1    1    2    0    0  0.60662262057E+02  0.69506979049E+02  0.10998916282E+04  0.11102579538E+04  0.12000000000E+03 0.  0.
         25    1    1    2    0    0 -0.60662262057E+02 -0.69506979049E+02  0.97713325822E+03  0.98878740612E+03  0.12000000000E+03 0.  0.
<mgrwt>
<rscale>  0 0.30324750E+03</rscale>
<asrwt>0</asrwt>
<pdfrwt beam="1">  1        2 0.16938842E-02 0.30324750E+03</pdfrwt>
<pdfrwt beam="2">  1       -2 0.32123586E+00 0.30324750E+03</pdfrwt>
<totfact> 0.18903973E+02</totfact>
</mgrwt>
</event>
<event>
 4    1  0.1728870E-004  0.3625161E+03  0.7818608E-02  0.1057592E+00
          2   -1    0    0  501    0  0.00000000000E+00  0.00000000000E+00  0.30113466527E+04  0.30113466527E+04  0.00000000000E+00 0. -1.
         -2   -1    0    0    0  501 -0.00000000000E+00 -0.00000000000E+00 -0.10910227024E+02  0.10910227024E+02  0.00000000000E+00 0. -1.
         25    1    1    2    0    0  0.60500144590E+02  0.39352677400E+02  0.54073028291E+03  0.55856793640E+03  0.12000000000E+03 0.  0.
         25    1    1    2    0    0 -0.60500144590E+02 -0.39352677400E+02  0.24597061427E+04  0.24636889433E+04  0.12000000000E+03 0.  0.
<mgrwt>
<rscale>  0 0.36251607E+03</rscale>
<asrwt>0</asrwt>
<pdfrwt beam="1">  1        2 0.46328344E+00 0.36251607E+03</pdfrwt>
<pdfrwt beam="2">  1       -2 0.16784989E-02 0.36251607E+03</pdfrwt>
<totfact> 0.20315097E+03</totfact>
</mgrwt>
</event>
<event>
 4    1  0.1728870E-004  0.3390525E+03  0.7818608E-02  0.1067200E+00
          2   -1    0    0  501    0  0.00000000000E+00  0.00000000000E+00  0.12292958502E+04  0.12292958502E+04  0.00000000000E+00 0.  1.
         -2   -1    0    0    0  501 -0.00000000000E+00 -0.00000000000E+00 -0.23378540728E+02  0.23378540728E+02  0.00000000000E+00 0.  1.
         25    1    1    2    0    0  0.77749994263E+02  0.15983161431E+02  0.93421335302E+03  0.94522754510E+03  0.12000000000E+03 0.  0.
         25    1    1    2    0    0 -0.77749994263E+02 -0.15983161431E+02  0.27170395646E+03  0.30744684584E+03  0.12000000000E+03 0.  0.
<mgrwt>
<rscale>  0 0.33905246E+03</rscale>
<asrwt>0</asrwt>
<pdfrwt beam="1">  1        2 0.18912239E+00 0.33905246E+03</pdfrwt>
<pdfrwt beam="2">  1       -2 0.35966995E-02 0.33905246E+03</pdfrwt>
<totfact> 0.62257673E+03</totfact>
</mgrwt>
</event>
<event>
 4    1  0.1728870E-004  0.3403756E+03  0.7818608E-02  0.1066636E+00
          2   -1    0    0  501    0  0.00000000000E+00  0.00000000000E+00  0.42473424115E+03  0.42473424115E+03  0.00000000000E+00 0. -1.
         -2   -1    0    0    0  501 -0.00000000000E+00 -0.00000000000E+00 -0.68192981694E+02  0.68192981694E+02  0.00000000000E+00 0. -1.
         25    1    1    2    0    0 -0.85810201760E+02 -0.83966832356E+02  0.16052963248E+03  0.23363129621E+03  0.12000000000E+03 0.  0.
         25    1    1    2    0    0  0.85810201760E+02  0.83966832356E+02  0.19601162697E+03  0.25929592663E+03  0.12000000000E+03 0.  0.
<mgrwt>
<rscale>  0 0.34037564E+03</rscale>
<asrwt>0</asrwt>
<pdfrwt beam="1">  1        2 0.65343728E-01 0.34037564E+03</pdfrwt>
<pdfrwt beam="2">  1       -2 0.10491228E-01 0.34037564E+03</pdfrwt>
<totfact> 0.46036187E+03</totfact>
</mgrwt>
</event>
<event>
 4    1  0.1728870E-004  0.2461949E+03  0.7818608E-02  0.1115733E+00
         -4   -1    0    0    0  501 -0.00000000000E+00  0.00000000000E+00  0.34973059378E+02  0.34973059378E+02  0.00000000000E+00 0. -1.
          4   -1    0    0  501    0  0.00000000000E+00 -0.00000000000E+00 -0.43327583271E+03  0.43327583271E+03  0.00000000000E+00 0. -1.
         25    1    1    2    0    0  0.18120708749E+02  0.10850881026E+02 -0.23246960822E+03  0.26246565575E+03  0.12000000000E+03 0.  0.
         25    1    1    2    0    0 -0.18120708749E+02 -0.10850881026E+02 -0.16583316511E+03  0.20578323633E+03  0.12000000000E+03 0.  0.
<mgrwt>
<rscale>  0 0.24619489E+03</rscale>
<asrwt>0</asrwt>
<pdfrwt beam="1">  1        4 0.66657827E-01 0.24619489E+03</pdfrwt>
<pdfrwt beam="2">  1       -4 0.53804701E-02 0.24619489E+03</pdfrwt>
<totfact> 0.82946936E+02</totfact>
</mgrwt>
</event>
<event>
 4    1  0.1728870E-004  0.2859328E+03  0.7818608E-02  0.1092492E+00
          2   -1    0    0  501    0  0.00000000000E+00  0.00000000000E+00  0.29612760184E+03  0.29612760184E+03  0.00000000000E+00 0. -1.
         -2   -1    0    0    0  501 -0.00000000000E+00 -0.00000000000E+00 -0.69022224095E+02  0.69022224095E+02  0.00000000000E+00 0. -1.
         25    1    1    2    0    0  0.10280205365E+02 -0.52321485086E+02  0.18575012861E+03  0.22747819830E+03  0.12000000000E+03 0.  0.
         25    1    1    2    0    0 -0.10280205365E+02  0.52321485086E+02  0.41355249134E+02  0.13767162763E+03  0.12000000000E+03 0.  0.
<mgrwt>
<rscale>  0 0.28593276E+03</rscale>
<asrwt>0</asrwt>
<pdfrwt beam="1">  1        2 0.45558092E-01 0.28593276E+03</pdfrwt>
<pdfrwt beam="2">  1       -2 0.10618804E-01 0.28593276E+03</pdfrwt>
<totfact> 0.66475186E+03</totfact>
</mgrwt>
</event>
<event>
 4    1  0.1728870E-004  0.4153804E+03  0.7818608E-02  0.1038580E+00
         -4   -1    0    0    0  501 -0.00000000000E+00  0.00000000000E+00  0.12655795172E+03  0.12655795172E+03  0.00000000000E+00 0. -1.
          4   -1    0    0  501    0  0.00000000000E+00 -0.00000000000E+00 -0.34083365698E+03  0.34083365698E+03  0.00000000000E+00 0. -1.
         25    1    1    2    0    0 -0.13156912593E+02  0.77924144938E+02 -0.27588212410E+03  0.31105662364E+03  0.12000000000E+03 0.  0.
         25    1    1    2    0    0  0.13156912593E+02 -0.77924144938E+02  0.61606418838E+02  0.15633498507E+03  0.12000000000E+03 0.  0.
<mgrwt>
<rscale>  0 0.41538035E+03</rscale>
<asrwt>0</asrwt>
<pdfrwt beam="1">  1        4 0.52435947E-01 0.41538035E+03</pdfrwt>
<pdfrwt beam="2">  1       -4 0.19470454E-01 0.41538035E+03</pdfrwt>
<totfact> 0.16204059E+02</totfact>
</mgrwt>
</event>
<event>
 4    1  0.1728870E-004  0.2660817E+03  0.7818608E-02  0.1103543E+00
         -2   -1    0    0    0  501 -0.00000000000E+00  0.00000000000E+00  0.16245284061E+02  0.16245284061E+02  0.00000000000E+00 0. -1.
          2   -1    0    0  501    0  0.00000000000E+00 -0.00000000000E+00 -0.10895388205E+04  0.10895388205E+04  0.00000000000E+00 0. -1.
         25    1    1    2    0    0 -0.41538616131E+02 -0.22983919797E+02 -0.67106321405E+03  0.68335902310E+03  0.12000000000E+03 0.  0.
         25    1    1    2    0    0  0.41538616131E+02  0.22983919797E+02 -0.40223032240E+03  0.42242508147E+03  0.12000000000E+03 0.  0.
<mgrwt>
<rscale>  0 0.26608170E+03</rscale>
<asrwt>0</asrwt>
<pdfrwt beam="1">  1        2 0.16762133E+00 0.26608170E+03</pdfrwt>
<pdfrwt beam="2">  1       -2 0.24992749E-02 0.26608170E+03</pdfrwt>
<totfact> 0.12840815E+04</totfact>
</mgrwt>
</event>
<event>
 4    1  0.1728870E-004  0.2675669E+03  0.7818608E-02  0.1102680E+00
          1   -1    0    0  501    0  0.00000000000E+00  0.00000000000E+00  0.51456594417E+02  0.51456594417E+02  0.00000000000E+00 0. -1.
         -1   -1    0    0    0  501 -0.00000000000E+00 -0.00000000000E+00 -0.34782724214E+03  0.34782724214E+03  0.00000000000E+00 0. -1.
         25    1    1    2    0    0 -0.25018115261E+01 -0.10549240033E+02 -0.23494887233E+03  0.26404264454E+03  0.12000000000E+03 0.  0.
         25    1    1    2    0    0  0.25018115261E+01  0.10549240033E+02 -0.61421775395E+02  0.13524119202E+03  0.12000000000E+03 0.  0.
<mgrwt>
<rscale>  0 0.26756685E+03</rscale>
<asrwt>0</asrwt>
<pdfrwt beam="1">  1        1 0.79163989E-02 0.26756685E+03</pdfrwt>
<pdfrwt beam="2">  1       -1 0.53511885E-01 0.26756685E+03</pdfrwt>
<totfact> 0.31755033E+03</totfact>
</mgrwt>
</event>
<event>
 4    1  0.1728870E-004  0.3116554E+03  0.7818608E-02  0.1079555E+00
         -2   -1    0    0    0  501 -0.00000000000E+00  0.00000000000E+00  0.32112661819E+02  0.32112661819E+02  0.00000000000E+00 0. -1.
          2   -1    0    0  501    0  0.00000000000E+00 -0.00000000000E+00 -0.75615862828E+03  0.75615862828E+03  0.00000000000E+00 0. -1.
         25    1    1    2    0    0 -0.16108548876E+02  0.95716791960E+02 -0.41633396997E+03  0.44402158074E+03  0.12000000000E+03 0.  0.
         25    1    1    2    0    0  0.16108548876E+02 -0.95716791960E+02 -0.30771199649E+03  0.34424970936E+03  0.12000000000E+03 0.  0.
<mgrwt>
<rscale>  0 0.31165536E+03</rscale>
<asrwt>0</asrwt>
<pdfrwt beam="1">  1        2 0.11633208E+00 0.31165536E+03</pdfrwt>
<pdfrwt beam="2">  1       -2 0.49404102E-02 0.31165536E+03</pdfrwt>
<totfact> 0.76106706E+03</totfact>
</mgrwt>
</event>
<event>
 4    1  0.1728870E-004  0.2761998E+03  0.7818608E-02  0.1097783E+00
          1   -1    0    0  501    0  0.00000000000E+00  0.00000000000E+00  0.20035768061E+04  0.20035768061E+04  0.00000000000E+00 0.  1.
         -1   -1    0    0    0  501 -0.00000000000E+00 -0.00000000000E+00 -0.95187710384E+01  0.95187710384E+01  0.00000000000E+00 0.  1.
         25    1    1    2    0    0  0.49350023391E+02  0.40667309055E+02  0.11729133075E+04  0.11807687672E+04  0.12000000000E+03 0.  0.
         25    1    1    2    0    0 -0.49350023391E+02 -0.40667309055E+02  0.82114472759E+03  0.83232680990E+03  0.12000000000E+03 0.  0.
<mgrwt>
<rscale>  0 0.27619985E+03</rscale>
<asrwt>0</asrwt>
<pdfrwt beam="1">  1        1 0.30824225E+00 0.27619985E+03</pdfrwt>
<pdfrwt beam="2">  1       -1 0.14644279E-02 0.27619985E+03</pdfrwt>
<totfact> 0.36270861E+03</totfact>
</mgrwt>
</event>
<event>
 4    1  0.1728870E-004  0.3487530E+03  0.7818608E-02  0.1063128E+00
          1   -1    0    0  501    0  0.00000000000E+00  0.00000000000E+00  0.43001924639E+03  0.43001924639E+03  0.00000000000E+00 0.  1.
         -1   -1    0    0    0  501 -0.00000000000E+00 -0.00000000000E+00 -0.70711156743E+02  0.70711156743E+02  0.00000000000E+00 0.  1.
         25    1    1    2    0    0 -0.25426738077E+02  0.10465694101E+03  0.84333753100E+02  0.18196641509E+03  0.12000000000E+03 0.  0.
         25    1    1    2    0    0  0.25426738077E+02 -0.10465694101E+03  0.27497433655E+03  0.31876398804E+03  0.12000000000E+03 0.  0.
<mgrwt>
<rscale>  0 0.34875297E+03</rscale>
<asrwt>0</asrwt>
<pdfrwt beam="1">  1        1 0.66156805E-01 0.34875297E+03</pdfrwt>
<pdfrwt beam="2">  1       -1 0.10878640E-01 0.34875297E+03</pdfrwt>
<totfact> 0.29550773E+03</totfact>
</mgrwt>
</event>
<event>
 4    1  0.1728870E-004  0.3869905E+03  0.7818608E-02  0.1048380E+00
         -1   -1    0    0    0  501 -0.00000000000E+00  0.00000000000E+00  0.22331080316E+02  0.22331080316E+02  0.00000000000E+00 0.  1.
          1   -1    0    0  501    0  0.00000000000E+00 -0.00000000000E+00 -0.16766057757E+04  0.16766057757E+04  0.00000000000E+00 0.  1.
         25    1    1    2    0    0 -0.14587684251E+03 -0.33740082608E+02 -0.93662427602E+03  0.95607713119E+03  0.12000000000E+03 0.  0.
         25    1    1    2    0    0  0.14587684251E+03  0.33740082608E+02 -0.71765041931E+03  0.74285972478E+03  0.12000000000E+03 0.  0.
<mgrwt>
<rscale>  0 0.38699053E+03</rscale>
<asrwt>0</asrwt>
<pdfrwt beam="1">  1        1 0.25793942E+00 0.38699053E+03</pdfrwt>
<pdfrwt beam="2">  1       -1 0.34355499E-02 0.38699053E+03</pdfrwt>
<totfact> 0.16821008E+03</totfact>
</mgrwt>
</event>
<event>
 4    1  0.1728870E-004  0.2698261E+03  0.7818608E-02  0.1101379E+00
          2   -1    0    0  501    0  0.00000000000E+00  0.00000000000E+00  0.16543947524E+03  0.16543947524E+03  0.00000000000E+00 0. -1.
         -2   -1    0    0    0  501 -0.00000000000E+00 -0.00000000000E+00 -0.11001925593E+03  0.11001925593E+03  0.00000000000E+00 0. -1.
         25    1    1    2    0    0 -0.47497500262E+02 -0.39209634453E+02  0.24801062974E+02  0.13714408733E+03  0.12000000000E+03 0.  0.
         25    1    1    2    0    0  0.47497500262E+02  0.39209634453E+02  0.30619156335E+02  0.13831464384E+03  0.12000000000E+03 0.  0.
<mgrwt>
<rscale>  0 0.26982608E+03</rscale>
<asrwt>0</asrwt>
<pdfrwt beam="1">  1        2 0.25452227E-01 0.26982608E+03</pdfrwt>
<pdfrwt beam="2">  1       -2 0.16926039E-01 0.26982608E+03</pdfrwt>
<totfact> 0.58420612E+03</totfact>
</mgrwt>
</event>
<event>
 4    1  0.1728870E-004  0.2791659E+03  0.7818608E-02  0.1096145E+00
         -2   -1    0    0    0  501 -0.00000000000E+00  0.00000000000E+00  0.43863854771E+01  0.43863854771E+01  0.00000000000E+00 0. -1.
          2   -1    0    0  501    0  0.00000000000E+00 -0.00000000000E+00 -0.44417904489E+04  0.44417904489E+04  0.00000000000E+00 0. -1.
         25    1    1    2    0    0 -0.17950862830E+02  0.43320201668E+02 -0.30740876982E+04  0.30767863185E+04  0.12000000000E+03 0.  0.
         25    1    1    2    0    0  0.17950862830E+02 -0.43320201668E+02 -0.13633163651E+04  0.13693905158E+04  0.12000000000E+03 0.  0.
<mgrwt>
<rscale>  0 0.27916594E+03</rscale>
<asrwt>0</asrwt>
<pdfrwt beam="1">  1        2 0.68334957E+00 0.27916594E+03</pdfrwt>
<pdfrwt beam="2">  1       -2 0.67483131E-03 0.27916594E+03</pdfrwt>
<totfact> 0.72292191E+02</totfact>
</mgrwt>
</event>
<event>
 4    1  0.1728870E-004  0.3033591E+03  0.7818608E-02  0.1083573E+00
         -1   -1    0    0    0  501 -0.00000000000E+00  0.00000000000E+00  0.81209416402E+02  0.81209416402E+02  0.00000000000E+00 0.  1.
          1   -1    0    0  501    0  0.00000000000E+00 -0.00000000000E+00 -0.28330076720E+03  0.28330076720E+03  0.00000000000E+00 0.  1.
         25    1    1    2    0    0  0.76705592408E+02 -0.48291148981E+01 -0.38614134140E+02  0.14764186267E+03  0.12000000000E+03 0.  0.
         25    1    1    2    0    0 -0.76705592408E+02  0.48291148981E+01 -0.16347721666E+03  0.21686832093E+03  0.12000000000E+03 0.  0.
<mgrwt>
<rscale>  0 0.30335913E+03</rscale>
<asrwt>0</asrwt>
<pdfrwt beam="1">  1        1 0.43584733E-01 0.30335913E+03</pdfrwt>
<pdfrwt beam="2">  1       -1 0.12493756E-01 0.30335913E+03</pdfrwt>
<totfact> 0.40432902E+03</totfact>
</mgrwt>
</event>
<event>
 4    1  0.1728870E-004  0.6621340E+03  0.7818608E-02  0.9784273E-01
         -1   -1    0    0    0  501 -0.00000000000E+00  0.00000000000E+00  0.77115627783E+02  0.77115627783E+02  0.00000000000E+00 0. -1.
          1   -1    0    0  501    0  0.00000000000E+00 -0.00000000000E+00 -0.14213119897E+04  0.14213119897E+04  0.00000000000E+00 0. -1.
         25    1    1    2    0    0 -0.12239489226E+02 -0.30742786791E+03 -0.72486446009E+03  0.79654892164E+03  0.12000000000E+03 0.  0.
         25    1    1    2    0    0  0.12239489226E+02  0.30742786791E+03 -0.61933190184E+03  0.70187869585E+03  0.12000000000E+03 0.  0.
<mgrwt>
<rscale>  0 0.66213402E+03</rscale>
<asrwt>0</asrwt>
<pdfrwt beam="1">  1        1 0.21866337E+00 0.66213402E+03</pdfrwt>
<pdfrwt beam="2">  1       -1 0.11863943E-01 0.66213402E+03</pdfrwt>
<totfact> 0.36444299E+02</totfact>
</mgrwt>
</event>
<event>
 4    1  0.1728870E-004  0.2573956E+03  0.7818608E-02  0.1108718E+00
          2   -1    0    0  501    0  0.00000000000E+00  0.00000000000E+00  0.78894965117E+02  0.78894965117E+02  0.00000000000E+00 0. -1.
         -2   -1    0    0    0  501 -0.00000000000E+00 -0.00000000000E+00 -0.20993884578E+03  0.20993884578E+03  0.00000000000E+00 0. -1.
         25    1    1    2    0    0 -0.40177847293E+02 -0.22995750130E+02 -0.60496810961E+02  0.14213700459E+03  0.12000000000E+03 0.  0.
         25    1    1    2    0    0  0.40177847293E+02  0.22995750130E+02 -0.70547069702E+02  0.14669680631E+03  0.12000000000E+03 0.  0.
<mgrwt>
<rscale>  0 0.25739555E+03</rscale>
<asrwt>0</asrwt>
<pdfrwt beam="1">  1        2 0.12137687E-01 0.25739555E+03</pdfrwt>
<pdfrwt beam="2">  1       -2 0.32298283E-01 0.25739555E+03</pdfrwt>
<totfact> 0.44550850E+03</totfact>
</mgrwt>
</event>
<event>
 4    1  0.1728870E-004  0.3649084E+03  0.7818608E-02  0.1056657E+00
          2   -1    0    0  501    0  0.00000000000E+00  0.00000000000E+00  0.12931298799E+04  0.12931298799E+04  0.00000000000E+00 0. -1.
         -2   -1    0    0    0  501 -0.00000000000E+00 -0.00000000000E+00 -0.25743382164E+02  0.25743382164E+02  0.00000000000E+00 0. -1.
         25    1    1    2    0    0  0.10187699644E+03 -0.78054466461E+02  0.81142197484E+03  0.83022710350E+03  0.12000000000E+03 0.  0.
         25    1    1    2    0    0 -0.10187699644E+03  0.78054466461E+02  0.45596452295E+03  0.48864615861E+03  0.12000000000E+03 0.  0.
<mgrwt>
<rscale>  0 0.36490841E+03</rscale>
<asrwt>0</asrwt>
<pdfrwt beam="1">  1        2 0.19894301E+00 0.36490841E+03</pdfrwt>
<pdfrwt beam="2">  1       -2 0.39605213E-02 0.36490841E+03</pdfrwt>
<totfact> 0.49563817E+03</totfact>
</mgrwt>
</event>
<event>
 4    1  0.1728870E-004  0.3785120E+03  0.7818608E-02  0.1051485E+00
          1   -1    0    0  501    0  0.00000000000E+00  0.00000000000E+00  0.24747656774E+03  0.24747656774E+03  0.00000000000E+00 0.  1.
         -1   -1    0    0    0  501 -0.00000000000E+00 -0.00000000000E+00 -0.14473219359E+03  0.14473219359E+03  0.00000000000E+00 0.  1.
         25    1    1    2    0    0 -0.83431939074E+02  0.69176219566E+02 -0.50530723962E+02  0.16940953891E+03  0.12000000000E+03 0.  0.
         25    1    1    2    0    0  0.83431939074E+02 -0.69176219566E+02  0.15327509811E+03  0.22279922242E+03  0.12000000000E+03 0.  0.
<mgrwt>
<rscale>  0 0.37851196E+03</rscale>
<asrwt>0</asrwt>
<pdfrwt beam="1">  1        1 0.38073318E-01 0.37851196E+03</pdfrwt>
<pdfrwt beam="2">  1       -1 0.22266491E-01 0.37851196E+03</pdfrwt>
<totfact> 0.18982168E+03</totfact>
</mgrwt>
</event>
<event>
 4    1  0.1728870E-004  0.3056786E+03  0.7818608E-02  0.1082436E+00
          2   -1    0    0  501    0  0.00000000000E+00  0.00000000000E+00  0.31097473171E+03  0.31097473171E+03  0.00000000000E+00 0.  1.
         -2   -1    0    0    0  501 -0.00000000000E+00 -0.00000000000E+00 -0.75118178675E+02  0.75118178675E+02  0.00000000000E+00 0.  1.
         25    1    1    2    0    0  0.63257855167E+02 -0.69019277779E+02  0.10030684663E+03  0.18228187081E+03  0.12000000000E+03 0.  0.
         25    1    1    2    0    0 -0.63257855167E+02  0.69019277779E+02  0.13554970641E+03  0.20381103958E+03  0.12000000000E+03 0.  0.
<mgrwt>
<rscale>  0 0.30567863E+03</rscale>
<asrwt>0</asrwt>
<pdfrwt beam="1">  1        2 0.47842266E-01 0.30567863E+03</pdfrwt>
<pdfrwt beam="2">  1       -2 0.11556643E-01 0.30567863E+03</pdfrwt>
<totfact> 0.55159700E+03</totfact>
</mgrwt>
</event>
<event>
 4    1  0.1728870E-004  0.2968122E+03  0.7818608E-02  0.1086845E+00
          4   -1    0    0  501    0  0.00000000000E+00  0.00000000000E+00  0.10286753109E+03  0.10286753109E+03  0.00000000000E+00 0.  1.
         -4   -1    0    0    0  501 -0.00000000000E+00 -0.00000000000E+00 -0.21410415576E+03  0.21410415576E+03  0.00000000000E+00 0.  1.
         25    1    1    2    0    0  0.57084314401E+02  0.13649868472E+02  0.13421117264E+02  0.13425745509E+03  0.12000000000E+03 0.  0.
         25    1    1    2    0    0 -0.57084314401E+02 -0.13649868472E+02 -0.12465774194E+03  0.18271423175E+03  0.12000000000E+03 0.  0.
<mgrwt>
<rscale>  0 0.29681217E+03</rscale>
<asrwt>0</asrwt>
<pdfrwt beam="1">  1        4 0.15825774E-01 0.29681217E+03</pdfrwt>
<pdfrwt beam="2">  1       -4 0.32939100E-01 0.29681217E+03</pdfrwt>
<totfact> 0.57702825E+02</totfact>
</mgrwt>
</event>
<event>
 4    1  0.1728870E-004  0.2504516E+03  0.7818608E-02  0.1113020E+00
          2   -1    0    0  501    0  0.00000000000E+00  0.00000000000E+00  0.24690964132E+04  0.24690964132E+04  0.00000000000E+00 0.  1.
         -2   -1    0    0    0  501 -0.00000000000E+00 -0.00000000000E+00 -0.63511073392E+01  0.63511073392E+01  0.00000000000E+00 0.  1.
         25    1    1    2    0    0  0.16828843350E+02 -0.23355553679E+02  0.10210503434E+04  0.10284806734E+04  0.12000000000E+03 0.  0.
         25    1    1    2    0    0 -0.16828843350E+02  0.23355553679E+02  0.14416949625E+04  0.14469668471E+04  0.12000000000E+03 0.  0.
<mgrwt>
<rscale>  0 0.25045156E+03</rscale>
<asrwt>0</asrwt>
<pdfrwt beam="1">  1        2 0.37986022E+00 0.25045156E+03</pdfrwt>
<pdfrwt beam="2">  1       -2 0.97709541E-03 0.25045156E+03</pdfrwt>
<totfact> 0.91895871E+03</totfact>
</mgrwt>
</event>
<event>
 4    1  0.1728870E-004  0.2702369E+03  0.7818608E-02  0.1101144E+00
         -1   -1    0    0    0  501 -0.00000000000E+00  0.00000000000E+00  0.93838232050E+02  0.93838232050E+02  0.00000000000E+00 0.  1.
          1   -1    0    0  501    0  0.00000000000E+00 -0.00000000000E+00 -0.19455822784E+03  0.19455822784E+03  0.00000000000E+00 0.  1.
         25    1    1    2    0    0 -0.41529974445E+02  0.14558288234E+02 -0.35938336117E+01  0.12786554725E+03  0.12000000000E+03 0.  0.
         25    1    1    2    0    0  0.41529974445E+02 -0.14558288234E+02 -0.97126162182E+02  0.16053091264E+03  0.12000000000E+03 0.  0.
<mgrwt>
<rscale>  0 0.27023693E+03</rscale>
<asrwt>0</asrwt>
<pdfrwt beam="1">  1        1 0.29932035E-01 0.27023693E+03</pdfrwt>
<pdfrwt beam="2">  1       -1 0.14436651E-01 0.27023693E+03</pdfrwt>
<totfact> 0.51497418E+03</totfact>
</mgrwt>
</event>
<event>
 4    1  0.1728870E-004  0.2615220E+03  0.7818608E-02  0.1106232E+00
          4   -1    0    0  501    0  0.00000000000E+00  0.00000000000E+00  0.15144875480E+03  0.15144875480E+03  0.00000000000E+00 0.  1.
         -4   -1    0    0    0  501 -0.00000000000E+00 -0.00000000000E+00 -0.11289921504E+03  0.11289921504E+03  0.00000000000E+00 0.  1.
         25    1    1    2    0    0  0.97946295214E+01 -0.49656036277E+02  0.31096825175E+02  0.13389798072E+03  0.12000000000E+03 0.  0.
         25    1    1    2    0    0 -0.97946295214E+01  0.49656036277E+02  0.74527145847E+01  0.13044998912E+03  0.12000000000E+03 0.  0.
<mgrwt>
<rscale>  0 0.26152205E+03</rscale>
<asrwt>0</asrwt>
<pdfrwt beam="1">  1        4 0.23299808E-01 0.26152205E+03</pdfrwt>
<pdfrwt beam="2">  1       -4 0.17369110E-01 0.26152205E+03</pdfrwt>
<totfact> 0.92425316E+02</totfact>
</mgrwt>
</event>
<event>
 4    1  0.1728870E-004  0.2704153E+03  0.7818608E-02  0.1101042E+00
          2   -1    0    0  501    0  0.00000000000E+00  0.00000000000E+00  0.92050250030E+03  0.92050250030E+03  0.00000000000E+00 0. -1.
         -2   -1    0    0    0  501 -0.00000000000E+00 -0.00000000000E+00 -0.19859919911E+02  0.19859919911E+02  0.00000000000E+00 0. -1.
         25    1    1    2    0    0 -0.45640925553E+02  0.19550282167E+02  0.31947400015E+03  0.34486076087E+03  0.12000000000E+03 0.  0.
         25    1    1    2    0    0  0.45640925553E+02 -0.19550282167E+02  0.58116858024E+03  0.59550165934E+03  0.12000000000E+03 0.  0.
<mgrwt>
<rscale>  0 0.27041528E+03</rscale>
<asrwt>0</asrwt>
<pdfrwt beam="1">  1        2 0.14161574E+00 0.27041528E+03</pdfrwt>
<pdfrwt beam="2">  1       -2 0.30553730E-02 0.27041528E+03</pdfrwt>
<totfact> 0.12099319E+04</totfact>
</mgrwt>
</event>
<event>
 4    1  0.1728870E-004  0.2415222E+03  0.7818608E-02  0.1118783E+00
          2   -1    0    0  501    0  0.00000000000E+00  0.00000000000E+00  0.18032776452E+04  0.18032776452E+04  0.00000000000E+00 0. -1.
         -2   -1    0    0    0  501 -0.00000000000E+00 -0.00000000000E+00 -0.80870755641E+01  0.80870755641E+01  0.00000000000E+00 0. -1.
         25    1    1    2    0    0 -0.58781203788E+01 -0.55366144543E+01  0.81611426902E+03  0.82492890996E+03  0.12000000000E+03 0.  0.
         25    1    1    2    0    0  0.58781203788E+01  0.55366144543E+01  0.97907630067E+03  0.98643581085E+03  0.12000000000E+03 0.  0.
<mgrwt>
<rscale>  0 0.24152219E+03</rscale>
<asrwt>0</asrwt>
<pdfrwt beam="1">  1        2 0.27742701E+00 0.24152219E+03</pdfrwt>
<pdfrwt beam="2">  1       -2 0.12441669E-02 0.24152219E+03</pdfrwt>
<totfact> 0.14563515E+04</totfact>
</mgrwt>
</event>
<event>
 4    1  0.1728870E-004  0.2908979E+03  0.7818608E-02  0.1089881E+00
          2   -1    0    0  501    0  0.00000000000E+00  0.00000000000E+00  0.97261978624E+03  0.97261978624E+03  0.00000000000E+00 0.  1.
         -2   -1    0    0    0  501 -0.00000000000E+00 -0.00000000000E+00 -0.21750936987E+02  0.21750936987E+02  0.00000000000E+00 0.  1.
         25    1    1    2    0    0  0.57792733162E+02 -0.49171475916E+02  0.36747096418E+03  0.39394510222E+03  0.12000000000E+03 0.  0.
         25    1    1    2    0    0 -0.57792733162E+02  0.49171475916E+02  0.58339788507E+03  0.60042562100E+03  0.12000000000E+03 0.  0.
<mgrwt>
<rscale>  0 0.29089786E+03</rscale>
<asrwt>0</asrwt>
<pdfrwt beam="1">  1        2 0.14963378E+00 0.29089786E+03</pdfrwt>
<pdfrwt beam="2">  1       -2 0.33462988E-02 0.29089786E+03</pdfrwt>
<totfact> 0.98163464E+03</totfact>
</mgrwt>
</event>
<event>
 4    1  0.1728870E-004  0.3054099E+03  0.7818608E-02  0.1082567E+00
          1   -1    0    0  501    0  0.00000000000E+00  0.00000000000E+00  0.94058608982E+03  0.94058608982E+03  0.00000000000E+00 0.  1.
         -1   -1    0    0    0  501 -0.00000000000E+00 -0.00000000000E+00 -0.24791774157E+02  0.24791774157E+02  0.00000000000E+00 0.  1.
         25    1    1    2    0    0 -0.27086999226E+02  0.90045141955E+02  0.48562782553E+03  0.50899530258E+03  0.12000000000E+03 0.  0.
         25    1    1    2    0    0  0.27086999226E+02 -0.90045141955E+02  0.43016649013E+03  0.45638256140E+03  0.12000000000E+03 0.  0.
<mgrwt>
<rscale>  0 0.30540987E+03</rscale>
<asrwt>0</asrwt>
<pdfrwt beam="1">  1        1 0.14470552E+00 0.30540987E+03</pdfrwt>
<pdfrwt beam="2">  1       -1 0.38141198E-02 0.30540987E+03</pdfrwt>
<totfact> 0.46942152E+03</totfact>
</mgrwt>
</event>
<event>
 4    1  0.1728870E-004  0.3122927E+03  0.7818608E-02  0.1079252E+00
          2   -1    0    0  501    0  0.00000000000E+00  0.00000000000E+00  0.36218519037E+03  0.36218519037E+03  0.00000000000E+00 0. -1.
         -2   -1    0    0    0  501 -0.00000000000E+00 -0.00000000000E+00 -0.67318294896E+02  0.67318294896E+02  0.00000000000E+00 0. -1.
         25    1    1    2    0    0  0.66742106045E+02  0.70568601982E+02  0.11525990146E+03  0.19266364781E+03  0.12000000000E+03 0.  0.
         25    1    1    2    0    0 -0.66742106045E+02 -0.70568601982E+02  0.17960699402E+03  0.23683983745E+03  0.12000000000E+03 0.  0.
<mgrwt>
<rscale>  0 0.31229274E+03</rscale>
<asrwt>0</asrwt>
<pdfrwt beam="1">  1        2 0.55720797E-01 0.31229274E+03</pdfrwt>
<pdfrwt beam="2">  1       -2 0.10356661E-01 0.31229274E+03</pdfrwt>
<totfact> 0.55809485E+03</totfact>
</mgrwt>
</event>
<event>
 4    1  0.1728870E-004  0.3180786E+03  0.7818608E-02  0.1076537E+00
          2   -1    0    0  501    0  0.00000000000E+00  0.00000000000E+00  0.95201552502E+03  0.95201552502E+03  0.00000000000E+00 0.  1.
         -2   -1    0    0    0  501 -0.00000000000E+00 -0.00000000000E+00 -0.26568361306E+02  0.26568361306E+02  0.00000000000E+00 0.  1.
         25    1    1    2    0    0  0.85717658402E+02  0.55465878405E+02  0.52938689967E+03  0.55233546887E+03  0.12000000000E+03 0.  0.
         25    1    1    2    0    0 -0.85717658402E+02 -0.55465878405E+02  0.39606026404E+03  0.42624841746E+03  0.12000000000E+03 0.  0.
<mgrwt>
<rscale>  0 0.31807856E+03</rscale>
<asrwt>0</asrwt>
<pdfrwt beam="1">  1        2 0.14646390E+00 0.31807856E+03</pdfrwt>
<pdfrwt beam="2">  1       -2 0.40874409E-02 0.31807856E+03</pdfrwt>
<totfact> 0.75014058E+03</totfact>
</mgrwt>
</event>
<event>
 4    1  0.1728870E-004  0.2531194E+03  0.7818608E-02  0.1111349E+00
         -2   -1    0    0    0  501 -0.00000000000E+00  0.00000000000E+00  0.86280604760E+01  0.86280604760E+01  0.00000000000E+00 0.  1.
          2   -1    0    0  501    0  0.00000000000E+00 -0.00000000000E+00 -0.18564261661E+04  0.18564261661E+04  0.00000000000E+00 0.  1.
         25    1    1    2    0    0  0.98120368418E+01 -0.30370339955E+02 -0.11041922045E+04  0.11111521309E+04  0.12000000000E+03 0.  0.
         25    1    1    2    0    0 -0.98120368418E+01  0.30370339955E+02 -0.74360590111E+03  0.75390209562E+03  0.12000000000E+03 0.  0.
<mgrwt>
<rscale>  0 0.25311940E+03</rscale>
<asrwt>0</asrwt>
<pdfrwt beam="1">  1        2 0.28560382E+00 0.25311940E+03</pdfrwt>
<pdfrwt beam="2">  1       -2 0.13273949E-02 0.25311940E+03</pdfrwt>
<totfact> 0.12446722E+04</totfact>
</mgrwt>
</event>
<event>
 4    1  0.1728870E-004  0.3388520E+03  0.7818608E-02  0.1067286E+00
          2   -1    0    0  501    0  0.00000000000E+00  0.00000000000E+00  0.43456616958E+03  0.43456616958E+03  0.00000000000E+00 0.  1.
         -2   -1    0    0    0  501 -0.00000000000E+00 -0.00000000000E+00 -0.66054787292E+02  0.66054787292E+02  0.00000000000E+00 0.  1.
         25    1    1    2    0    0  0.87414429773E+02 -0.21504028168E+02  0.67911085357E+02  0.16466821574E+03  0.12000000000E+03 0.  0.
         25    1    1    2    0    0 -0.87414429773E+02  0.21504028168E+02  0.30060029693E+03  0.33595274113E+03  0.12000000000E+03 0.  0.
<mgrwt>
<rscale>  0 0.33885204E+03</rscale>
<asrwt>0</asrwt>
<pdfrwt beam="1">  1        2 0.66856332E-01 0.33885204E+03</pdfrwt>
<pdfrwt beam="2">  1       -2 0.10162275E-01 0.33885204E+03</pdfrwt>
<totfact> 0.47233950E+03</totfact>
</mgrwt>
</event>
<event>
 4    1  0.1728870E-004  0.2904400E+03  0.7818608E-02  0.1090120E+00
         -1   -1    0    0    0  501 -0.00000000000E+00  0.00000000000E+00  0.30349295862E+02  0.30349295862E+02  0.00000000000E+00 0.  1.
          1   -1    0    0  501    0  0.00000000000E+00 -0.00000000000E+00 -0.69487100022E+03  0.69487100022E+03  0.00000000000E+00 0.  1.
         25    1    1    2    0    0 -0.53133278863E+02 -0.60933899999E+02 -0.36312245583E+03  0.39088873534E+03  0.12000000000E+03 0.  0.
         25    1    1    2    0    0  0.53133278863E+02  0.60933899999E+02 -0.30139924853E+03  0.33433156074E+03  0.12000000000E+03 0.  0.
<mgrwt>
<rscale>  0 0.29043998E+03</rscale>
<asrwt>0</asrwt>
<pdfrwt beam="1">  1        1 0.10690323E+00 0.29043998E+03</pdfrwt>
<pdfrwt beam="2">  1       -1 0.46691226E-02 0.29043998E+03</pdfrwt>
<totfact> 0.55542942E+03</totfact>
</mgrwt>
</event>
<event>
 4    1  0.1728870E-004  0.3006153E+03  0.7818608E-02  0.1084933E+00
         -3   -1    0    0    0  501 -0.00000000000E+00  0.00000000000E+00  0.57736006685E+03  0.57736006685E+03  0.00000000000E+00 0.  1.
          3   -1    0    0  501    0  0.00000000000E+00 -0.00000000000E+00 -0.39130497759E+02  0.39130497759E+02  0.00000000000E+00 0.  1.
         25    1    1    2    0    0  0.59113633930E+02  0.33852266101E+02  0.39133729422E+03  0.41495213638E+03  0.12000000000E+03 0.  0.
         25    1    1    2    0    0 -0.59113633930E+02 -0.33852266101E+02  0.14689227486E+03  0.20153842823E+03  0.12000000000E+03 0.  0.
<mgrwt>
<rscale>  0 0.30061528E+03</rscale>
<asrwt>0</asrwt>
<pdfrwt beam="1">  1        3 0.60200770E-02 0.30061528E+03</pdfrwt>
<pdfrwt beam="2">  1       -3 0.88824620E-01 0.30061528E+03</pdfrwt>
<totfact> 0.51231860E+02</totfact>
</mgrwt>
</event>
<event>
 4    1  0.1728870E-004  0.2449791E+03  0.7818608E-02  0.1116520E+00
         -2   -1    0    0    0  501 -0.00000000000E+00  0.00000000000E+00  0.27588774490E+02  0.27588774490E+02  0.00000000000E+00 0.  1.
          2   -1    0    0  501    0  0.00000000000E+00 -0.00000000000E+00 -0.54383327275E+03  0.54383327275E+03  0.00000000000E+00 0.  1.
         25    1    1    2    0    0 -0.75067237105E+01  0.22002073114E+02 -0.27667306336E+03  0.30247053759E+03  0.12000000000E+03 0.  0.
         25    1    1    2    0    0  0.75067237105E+01 -0.22002073114E+02 -0.23957143491E+03  0.26895150965E+03  0.12000000000E+03 0.  0.
<mgrwt>
<rscale>  0 0.24497913E+03</rscale>
<asrwt>0</asrwt>
<pdfrwt beam="1">  1        2 0.83666652E-01 0.24497913E+03</pdfrwt>
<pdfrwt beam="2">  1       -2 0.42444271E-02 0.24497913E+03</pdfrwt>
<totfact> 0.14032978E+04</totfact>
</mgrwt>
</event>
<event>
 4    1  0.1728870E-004  0.6284696E+03  0.7818608E-02  0.9848040E-01
         -2   -1    0    0    0  501 -0.00000000000E+00  0.00000000000E+00  0.86269318103E+02  0.86269318103E+02  0.00000000000E+00 0. -1.
          2   -1    0    0  501    0  0.00000000000E+00 -0.00000000000E+00 -0.11445957746E+04  0.11445957746E+04  0.00000000000E+00 0. -1.
         25    1    1    2    0    0  0.52903810131E+02 -0.26038056004E+03 -0.29953535113E+03  0.41799315276E+03  0.12000000000E+03 0.  0.
         25    1    1    2    0    0 -0.52903810131E+02  0.26038056004E+03 -0.75879110540E+03  0.81287193998E+03  0.12000000000E+03 0.  0.
<mgrwt>
<rscale>  0 0.62846956E+03</rscale>
<asrwt>0</asrwt>
<pdfrwt beam="1">  1        2 0.17609165E+00 0.62846956E+03</pdfrwt>
<pdfrwt beam="2">  1       -2 0.13272203E-01 0.62846956E+03</pdfrwt>
<totfact> 0.88956365E+02</totfact>
</mgrwt>
</event>
<event>
 4    1  0.1728870E-004  0.4215479E+03  0.7818608E-02  0.1036564E+00
         -3   -1    0    0    0  501 -0.00000000000E+00  0.00000000000E+00  0.94751228494E+02  0.94751228494E+02  0.00000000000E+00 0. -1.
          3   -1    0    0  501    0  0.00000000000E+00 -0.00000000000E+00 -0.46886631419E+03  0.46886631419E+03  0.00000000000E+00 0. -1.
         25    1    1    2    0    0  0.10381049543E+03 -0.33840614871E+02 -0.36695419206E+03  0.40121962221E+03  0.12000000000E+03 0.  0.
         25    1    1    2    0    0 -0.10381049543E+03  0.33840614871E+02 -0.71608936306E+01  0.16239792047E+03  0.12000000000E+03 0.  0.
<mgrwt>
<rscale>  0 0.42154791E+03</rscale>
<asrwt>0</asrwt>
<pdfrwt beam="1">  1        3 0.72133279E-01 0.42154791E+03</pdfrwt>
<pdfrwt beam="2">  1       -3 0.14577112E-01 0.42154791E+03</pdfrwt>
<totfact> 0.18973804E+02</totfact>
</mgrwt>
</event>
<event>
 4    1  0.1728870E-004  0.3367464E+03  0.7818608E-02  0.1068190E+00
         -2   -1    0    0    0  501 -0.00000000000E+00  0.00000000000E+00  0.24524104488E+02  0.24524104488E+02  0.00000000000E+00 0.  1.
          2   -1    0    0  501    0  0.00000000000E+00 -0.00000000000E+00 -0.11559862694E+04  0.11559862694E+04  0.00000000000E+00 0.  1.
         25    1    1    2    0    0 -0.45260382158E+02  0.89810761581E+02 -0.78282746098E+03  0.79833157821E+03  0.12000000000E+03 0.  0.
         25    1    1    2    0    0  0.45260382158E+02 -0.89810761581E+02 -0.34863470396E+03  0.38217879571E+03  0.12000000000E+03 0.  0.
<mgrwt>
<rscale>  0 0.33674636E+03</rscale>
<asrwt>0</asrwt>
<pdfrwt beam="1">  1        2 0.17784401E+00 0.33674636E+03</pdfrwt>
<pdfrwt beam="2">  1       -2 0.37729399E-02 0.33674636E+03</pdfrwt>
<totfact> 0.63819142E+03</totfact>
</mgrwt>
</event>
<event>
 4    1  0.1728870E-004  0.2672130E+03  0.7818608E-02  0.1102885E+00
         -1   -1    0    0    0  501 -0.00000000000E+00  0.00000000000E+00  0.12793711473E+03  0.12793711473E+03  0.00000000000E+00 0. -1.
          1   -1    0    0  501    0  0.00000000000E+00 -0.00000000000E+00 -0.13952707040E+03  0.13952707040E+03  0.00000000000E+00 0. -1.
         25    1    1    2    0    0  0.21743086560E+01  0.17250615250E+02  0.50368198580E+02  0.13129838831E+03  0.12000000000E+03 0.  0.
         25    1    1    2    0    0 -0.21743086560E+01 -0.17250615250E+02 -0.61958154249E+02  0.13616579682E+03  0.12000000000E+03 0.  0.
<mgrwt>
<rscale>  0 0.26721295E+03</rscale>
<asrwt>0</asrwt>
<pdfrwt beam="1">  1        1 0.21465703E-01 0.26721295E+03</pdfrwt>
<pdfrwt beam="2">  1       -1 0.19682633E-01 0.26721295E+03</pdfrwt>
<totfact> 0.47827435E+03</totfact>
</mgrwt>
</event>
<event>
 4    1  0.1728870E-004  0.2686588E+03  0.7818608E-02  0.1102050E+00
         -2   -1    0    0    0  501 -0.00000000000E+00  0.00000000000E+00  0.54582715112E+02  0.54582715112E+02  0.00000000000E+00 0.  1.
          2   -1    0    0  501    0  0.00000000000E+00 -0.00000000000E+00 -0.33058802259E+03  0.33058802259E+03  0.00000000000E+00 0.  1.
         25    1    1    2    0    0  0.48822781006E+02 -0.30173613229E+02 -0.11117019685E+03  0.17335779056E+03  0.12000000000E+03 0.  0.
         25    1    1    2    0    0 -0.48822781006E+02  0.30173613229E+02 -0.16483511063E+03  0.21181294714E+03  0.12000000000E+03 0.  0.
<mgrwt>
<rscale>  0 0.26865883E+03</rscale>
<asrwt>0</asrwt>
<pdfrwt beam="1">  1        2 0.50859694E-01 0.26865883E+03</pdfrwt>
<pdfrwt beam="2">  1       -2 0.83973410E-02 0.26865883E+03</pdfrwt>
<totfact> 0.85410981E+03</totfact>
</mgrwt>
</event>
<event>
 4    1  0.1728870E-004  0.2420653E+03  0.7818608E-02  0.1118425E+00
          2   -1    0    0  501    0  0.00000000000E+00  0.00000000000E+00  0.27683331556E+03  0.27683331556E+03  0.00000000000E+00 0.  1.
         -2   -1    0    0    0  501 -0.00000000000E+00 -0.00000000000E+00 -0.52915982119E+02  0.52915982119E+02  0.00000000000E+00 0.  1.
         25    1    1    2    0    0  0.78653561043E+01  0.10834592514E+02  0.10058956805E+03  0.15715442540E+03  0.12000000000E+03 0.  0.
         25    1    1    2    0    0 -0.78653561043E+01 -0.10834592514E+02  0.12332776539E+03  0.17259487228E+03  0.12000000000E+03 0.  0.
<mgrwt>
<rscale>  0 0.24206534E+03</rscale>
<asrwt>0</asrwt>
<pdfrwt beam="1">  1        2 0.42589740E-01 0.24206534E+03</pdfrwt>
<pdfrwt beam="2">  1       -2 0.81409204E-02 0.24206534E+03</pdfrwt>
<totfact> 0.10797272E+04</totfact>
</mgrwt>
</event>
<event>
 4    1  0.1728870E-004  0.3308437E+03  0.7818608E-02  0.1070764E+00
          1   -1    0    0  501    0  0.00000000000E+00  0.00000000000E+00  0.24411628519E+03  0.24411628519E+03  0.00000000000E+00 0.  1.
         -1   -1    0    0    0  501 -0.00000000000E+00 -0.00000000000E+00 -0.11209571066E+03  0.11209571066E+03  0.00000000000E+00 0.  1.
         25    1    1    2    0    0  0.42856865065E+02 -0.99155393482E+02  0.27251605996E+02  0.16374111570E+03  0.12000000000E+03 0.  0.
         25    1    1    2    0    0 -0.42856865065E+02  0.99155393482E+02  0.10476896853E+03  0.19247088015E+03  0.12000000000E+03 0.  0.
<mgrwt>
<rscale>  0 0.33084370E+03</rscale>
<asrwt>0</asrwt>
<pdfrwt beam="1">  1        1 0.37556351E-01 0.33084370E+03</pdfrwt>
<pdfrwt beam="2">  1       -1 0.17245494E-01 0.33084370E+03</pdfrwt>
<totfact> 0.29269020E+03</totfact>
</mgrwt>
</event>
<event>
 4    1  0.1728870E-004  0.4193744E+03  0.7818608E-02  0.1037270E+00
         -2   -1    0    0    0  501 -0.00000000000E+00  0.00000000000E+00  0.12264856147E+04  0.12264856147E+04  0.00000000000E+00 0. -1.
          2   -1    0    0  501    0  0.00000000000E+00 -0.00000000000E+00 -0.35849364291E+02  0.35849364291E+02  0.00000000000E+00 0. -1.
         25    1    1    2    0    0  0.15869492634E+03  0.35869353139E+02  0.76285720841E+03  0.78919060471E+03  0.12000000000E+03 0.  0.
         25    1    1    2    0    0 -0.15869492634E+03 -0.35869353139E+02  0.42777904198E+03  0.47314437426E+03  0.12000000000E+03 0.  0.
<mgrwt>
<rscale>  0 0.41937444E+03</rscale>
<asrwt>0</asrwt>
<pdfrwt beam="1">  1        2 0.55152878E-02 0.41937444E+03</pdfrwt>
<pdfrwt beam="2">  1       -2 0.18869006E+00 0.41937444E+03</pdfrwt>
<totfact> 0.23504338E+02</totfact>
</mgrwt>
</event>
<event>
 4    1  0.1728870E-004  0.2512420E+03  0.7818608E-02  0.1112522E+00
         -1   -1    0    0    0  501 -0.00000000000E+00  0.00000000000E+00  0.14407252817E+02  0.14407252817E+02  0.00000000000E+00 0. -1.
          1   -1    0    0  501    0  0.00000000000E+00 -0.00000000000E+00 -0.10953258984E+04  0.10953258984E+04  0.00000000000E+00 0. -1.
         25    1    1    2    0    0 -0.23986428313E+01 -0.35309014105E+02 -0.49045612793E+03  0.50616172652E+03  0.12000000000E+03 0.  0.
         25    1    1    2    0    0  0.23986428313E+01  0.35309014105E+02 -0.59046251766E+03  0.60357142471E+03  0.12000000000E+03 0.  0.
<mgrwt>
<rscale>  0 0.25124201E+03</rscale>
<asrwt>0</asrwt>
<pdfrwt beam="1">  1        1 0.16851174E+00 0.25124201E+03</pdfrwt>
<pdfrwt beam="2">  1       -1 0.22164996E-02 0.25124201E+03</pdfrwt>
<totfact> 0.79882010E+03</totfact>
</mgrwt>
</event>
<event>
 4    1  0.1728870E-004  0.2677365E+03  0.7818608E-02  0.1102582E+00
         -1   -1    0    0    0  501 -0.00000000000E+00  0.00000000000E+00  0.36267004800E+02  0.36267004800E+02  0.00000000000E+00 0. -1.
          1   -1    0    0  501    0  0.00000000000E+00 -0.00000000000E+00 -0.49413253991E+03  0.49413253991E+03  0.00000000000E+00 0. -1.
         25    1    1    2    0    0 -0.34436848639E+02  0.48087115723E+02 -0.21954836659E+03  0.25709872134E+03  0.12000000000E+03 0.  0.
         25    1    1    2    0    0  0.34436848639E+02 -0.48087115723E+02 -0.23831716851E+03  0.27330082336E+03  0.12000000000E+03 0.  0.
<mgrwt>
<rscale>  0 0.26773649E+03</rscale>
<asrwt>0</asrwt>
<pdfrwt beam="1">  1        1 0.76020384E-01 0.26773649E+03</pdfrwt>
<pdfrwt beam="2">  1       -1 0.55795397E-02 0.26773649E+03</pdfrwt>
<totfact> 0.68007829E+03</totfact>
</mgrwt>
</event>
<event>
 4    1  0.1728870E-004  0.2480872E+03  0.7818608E-02  0.1114520E+00
         -4   -1    0    0    0  501 -0.00000000000E+00  0.00000000000E+00  0.71867986636E+03  0.71867986636E+03  0.00000000000E+00 0.  1.
          4   -1    0    0  501    0  0.00000000000E+00 -0.00000000000E+00 -0.21409838643E+02  0.21409838643E+02  0.00000000000E+00 0.  1.
         25    1    1    2    0    0  0.26690292062E+01  0.18766514449E+02  0.27390557734E+03  0.29963906801E+03  0.12000000000E+03 0.  0.
         25    1    1    2    0    0 -0.26690292062E+01 -0.18766514449E+02  0.42336445038E+03  0.44045063699E+03  0.12000000000E+03 0.  0.
<mgrwt>
<rscale>  0 0.24808724E+03</rscale>
<asrwt>0</asrwt>
<pdfrwt beam="1">  1        4 0.32938219E-02 0.24808724E+03</pdfrwt>
<pdfrwt beam="2">  1       -4 0.11056611E+00 0.24808724E+03</pdfrwt>
<totfact> 0.57954071E+02</totfact>
</mgrwt>
</event>
<event>
 4    1  0.1728870E-004  0.3216761E+03  0.7818608E-02  0.1074880E+00
         -1   -1    0    0    0  501 -0.00000000000E+00  0.00000000000E+00  0.82779740651E+02  0.82779740651E+02  0.00000000000E+00 0. -1.
          1   -1    0    0  501    0  0.00000000000E+00 -0.00000000000E+00 -0.31250250123E+03  0.31250250123E+03  0.00000000000E+00 0. -1.
         25    1    1    2    0    0 -0.99761655491E+02  0.35524991374E+02 -0.95259355968E+02  0.18624918206E+03  0.12000000000E+03 0.  0.
         25    1    1    2    0    0  0.99761655491E+02 -0.35524991374E+02 -0.13446340461E+03  0.20903305982E+03  0.12000000000E+03 0.  0.
<mgrwt>
<rscale>  0 0.32167609E+03</rscale>
<asrwt>0</asrwt>
<pdfrwt beam="1">  1        1 0.48077307E-01 0.32167609E+03</pdfrwt>
<pdfrwt beam="2">  1       -1 0.12735345E-01 0.32167609E+03</pdfrwt>
<totfact> 0.34707831E+03</totfact>
</mgrwt>
</event>
<event>
 4    1  0.1728870E-004  0.3194634E+03  0.7818608E-02  0.1075897E+00
          2   -1    0    0  501    0  0.00000000000E+00  0.00000000000E+00  0.42379504585E+02  0.42379504585E+02  0.00000000000E+00 0. -1.
         -2   -1    0    0    0  501 -0.00000000000E+00 -0.00000000000E+00 -0.60204153268E+03  0.60204153268E+03  0.00000000000E+00 0. -1.
         25    1    1    2    0    0  0.57995678639E+02 -0.86904116136E+02 -0.30824400310E+03  0.34688642174E+03  0.12000000000E+03 0.  0.
         25    1    1    2    0    0 -0.57995678639E+02  0.86904116136E+02 -0.25141802499E+03  0.29753461552E+03  0.12000000000E+03 0.  0.
<mgrwt>
<rscale>  0 0.31946344E+03</rscale>
<asrwt>0</asrwt>
<pdfrwt beam="1">  1        2 0.65199234E-02 0.31946344E+03</pdfrwt>
<pdfrwt beam="2">  1       -2 0.92621780E-01 0.31946344E+03</pdfrwt>
<totfact> 0.11386726E+03</totfact>
</mgrwt>
</event>
<event>
 4    1  0.1728870E-004  0.2994484E+03  0.7818608E-02  0.1085517E+00
          3   -1    0    0  501    0  0.00000000000E+00  0.00000000000E+00  0.35631414920E+03  0.35631414920E+03  0.00000000000E+00 0.  1.
         -3   -1    0    0    0  501 -0.00000000000E+00 -0.00000000000E+00 -0.62914525433E+02  0.62914525433E+02  0.00000000000E+00 0.  1.
         25    1    1    2    0    0  0.82533245819E+02 -0.28345459229E+02  0.17477445981E+03  0.22926254279E+03  0.12000000000E+03 0.  0.
         25    1    1    2    0    0 -0.82533245819E+02  0.28345459229E+02  0.11862516396E+03  0.18996613184E+03  0.12000000000E+03 0.  0.
<mgrwt>
<rscale>  0 0.29944840E+03</rscale>
<asrwt>0</asrwt>
<pdfrwt beam="1">  1        3 0.54817560E-01 0.29944840E+03</pdfrwt>
<pdfrwt beam="2">  1       -3 0.96791580E-02 0.29944840E+03</pdfrwt>
<totfact> 0.66178574E+02</totfact>
</mgrwt>
</event>
<event>
 4    1  0.1728870E-004  0.2642238E+03  0.7818608E-02  0.1104632E+00
          2   -1    0    0  501    0  0.00000000000E+00  0.00000000000E+00  0.13694514490E+04  0.13694514490E+04  0.00000000000E+00 0.  1.
         -2   -1    0    0    0  501 -0.00000000000E+00 -0.00000000000E+00 -0.12744919805E+02  0.12744919805E+02  0.00000000000E+00 0.  1.
         25    1    1    2    0    0 -0.45528363876E+02  0.21647631681E+02  0.55997444564E+03  0.57490245403E+03  0.12000000000E+03 0.  0.
         25    1    1    2    0    0  0.45528363876E+02 -0.21647631681E+02  0.79673208357E+03  0.80729391479E+03  0.12000000000E+03 0.  0.
<mgrwt>
<rscale>  0 0.26422376E+03</rscale>
<asrwt>0</asrwt>
<pdfrwt beam="1">  1        2 0.21068472E+00 0.26422376E+03</pdfrwt>
<pdfrwt beam="2">  1       -2 0.19607580E-02 0.26422376E+03</pdfrwt>
<totfact> 0.12761537E+04</totfact>
</mgrwt>
</event>
<event>
 4    1  0.1728870E-004  0.6444336E+03  0.7818608E-02  0.9817281E-01
          1   -1    0    0  501    0  0.00000000000E+00  0.00000000000E+00  0.18372917110E+04  0.18372917110E+04  0.00000000000E+00 0.  1.
         -1   -1    0    0    0  501 -0.00000000000E+00 -0.00000000000E+00 -0.56509078571E+02  0.56509078571E+02  0.00000000000E+00 0.  1.
         25    1    1    2    0    0  0.94740902100E+02 -0.28331809148E+03  0.85110903207E+03  0.90996239701E+03  0.12000000000E+03 0.  0.
         25    1    1    2    0    0 -0.94740902100E+02  0.28331809148E+03  0.92967360039E+03  0.98383839260E+03  0.12000000000E+03 0.  0.
<mgrwt>
<rscale>  0 0.64443359E+03</rscale>
<asrwt>0</asrwt>
<pdfrwt beam="1">  1        1 0.28266022E+00 0.64443359E+03</pdfrwt>
<pdfrwt beam="2">  1       -1 0.86937058E-02 0.64443359E+03</pdfrwt>
<totfact> 0.31257490E+02</totfact>
</mgrwt>
</event>
<event>
 4    1  0.1728870E-004  0.2884982E+03  0.7818608E-02  0.1091136E+00
          2   -1    0    0  501    0  0.00000000000E+00  0.00000000000E+00  0.23070762728E+03  0.23070762728E+03  0.00000000000E+00 0.  1.
         -2   -1    0    0    0  501 -0.00000000000E+00 -0.00000000000E+00 -0.90191243537E+02  0.90191243537E+02  0.00000000000E+00 0.  1.
         25    1    1    2    0    0  0.18933269948E+02  0.44075810231E+02  0.14153849063E+03  0.19166191611E+03  0.12000000000E+03 0.  0.
         25    1    1    2    0    0 -0.18933269948E+02 -0.44075810231E+02 -0.10221068861E+01  0.12923695470E+03  0.12000000000E+03 0.  0.
<mgrwt>
<rscale>  0 0.28849823E+03</rscale>
<asrwt>0</asrwt>
<pdfrwt beam="1">  1        2 0.35493481E-01 0.28849823E+03</pdfrwt>
<pdfrwt beam="2">  1       -2 0.13875576E-01 0.28849823E+03</pdfrwt>
<totfact> 0.56474072E+03</totfact>
</mgrwt>
</event>
<event>
 4    1  0.1728870E-004  0.3093387E+03  0.7818608E-02  0.1080663E+00
          1   -1    0    0  501    0  0.00000000000E+00  0.00000000000E+00  0.11193789961E+04  0.11193789961E+04  0.00000000000E+00 0. -1.
         -1   -1    0    0    0  501 -0.00000000000E+00 -0.00000000000E+00 -0.21371317204E+02  0.21371317204E+02  0.00000000000E+00 0. -1.
         25    1    1    2    0    0 -0.69357495463E+02 -0.64857212957E+02  0.63193079192E+03  0.65019492926E+03  0.12000000000E+03 0.  0.
         25    1    1    2    0    0  0.69357495463E+02  0.64857212957E+02  0.46607688699E+03  0.49055538407E+03  0.12000000000E+03 0.  0.
<mgrwt>
<rscale>  0 0.30933867E+03</rscale>
<asrwt>0</asrwt>
<pdfrwt beam="1">  1        1 0.17221211E+00 0.30933867E+03</pdfrwt>
<pdfrwt beam="2">  1       -1 0.32878958E-02 0.30933867E+03</pdfrwt>
<totfact> 0.43106035E+03</totfact>
</mgrwt>
</event>
<event>
 4    1  0.1728870E-004  0.4092365E+03  0.7818608E-02  0.1040628E+00
         -2   -1    0    0    0  501 -0.00000000000E+00  0.00000000000E+00  0.10835110674E+03  0.10835110674E+03  0.00000000000E+00 0. -1.
          2   -1    0    0  501    0  0.00000000000E+00 -0.00000000000E+00 -0.38641626551E+03  0.38641626551E+03  0.00000000000E+00 0. -1.
         25    1    1    2    0    0  0.11190630046E+03  0.72786304106E+02 -0.25778432821E+03  0.31412358399E+03  0.12000000000E+03 0.  0.
         25    1    1    2    0    0 -0.11190630046E+03 -0.72786304106E+02 -0.20280830563E+02  0.18064378826E+03  0.12000000000E+03 0.  0.
<mgrwt>
<rscale>  0 0.40923651E+03</rscale>
<asrwt>0</asrwt>
<pdfrwt beam="1">  1        2 0.59448656E-01 0.40923651E+03</pdfrwt>
<pdfrwt beam="2">  1       -2 0.16669401E-01 0.40923651E+03</pdfrwt>
<totfact> 0.23935769E+03</totfact>
</mgrwt>
</event>
<event>
 4    1  0.1728870E-004  0.2787282E+03  0.7818608E-02  0.1096386E+00
         -4   -1    0    0    0  501 -0.00000000000E+00  0.00000000000E+00  0.34451112311E+02  0.34451112311E+02  0.00000000000E+00 0. -1.
          4   -1    0    0  501    0  0.00000000000E+00 -0.00000000000E+00 -0.56376578426E+03  0.56376578426E+03  0.00000000000E+00 0. -1.
         25    1    1    2    0    0 -0.69921137665E+02  0.11482858597E+02 -0.26731799170E+03  0.30146265145E+03  0.12000000000E+03 0.  0.
         25    1    1    2    0    0  0.69921137665E+02 -0.11482858597E+02 -0.26199668025E+03  0.29675424512E+03  0.12000000000E+03 0.  0.
<mgrwt>
<rscale>  0 0.27872824E+03</rscale>
<asrwt>0</asrwt>
<pdfrwt beam="1">  1        4 0.86733199E-01 0.27872824E+03</pdfrwt>
<pdfrwt beam="2">  1       -4 0.53001711E-02 0.27872824E+03</pdfrwt>
<totfact> 0.48286390E+02</totfact>
</mgrwt>
</event>
<event>
 4    1  0.1728870E-004  0.2502442E+03  0.7818608E-02  0.1113151E+00
         -2   -1    0    0    0  501 -0.00000000000E+00  0.00000000000E+00  0.12712622639E+02  0.12712622639E+02  0.00000000000E+00 0.  1.
          2   -1    0    0  501    0  0.00000000000E+00 -0.00000000000E+00 -0.12314960579E+04  0.12314960579E+04  0.00000000000E+00 0.  1.
         25    1    1    2    0    0  0.19448358111E+02  0.21218178537E+02 -0.71214396982E+03  0.72275686333E+03  0.12000000000E+03 0.  0.
         25    1    1    2    0    0 -0.19448358111E+02 -0.21218178537E+02 -0.50663946546E+03  0.52145181723E+03  0.12000000000E+03 0.  0.
<mgrwt>
<rscale>  0 0.25024424E+03</rscale>
<asrwt>0</asrwt>
<pdfrwt beam="1">  1        2 0.18946108E+00 0.25024424E+03</pdfrwt>
<pdfrwt beam="2">  1       -2 0.19557866E-02 0.25024424E+03</pdfrwt>
<totfact> 0.15241195E+04</totfact>
</mgrwt>
</event>
<event>
 4    1  0.1728870E-004  0.2672021E+03  0.7818608E-02  0.1102892E+00
          1   -1    0    0  501    0  0.00000000000E+00  0.00000000000E+00  0.48369041899E+03  0.48369041899E+03  0.00000000000E+00 0. -1.
         -1   -1    0    0    0  501 -0.00000000000E+00 -0.00000000000E+00 -0.36902211173E+02  0.36902211173E+02  0.00000000000E+00 0. -1.
         25    1    1    2    0    0  0.11304526493E+02 -0.56564674190E+02  0.20188390461E+03  0.24183561695E+03  0.12000000000E+03 0.  0.
         25    1    1    2    0    0 -0.11304526493E+02  0.56564674190E+02  0.24490430321E+03  0.27875701321E+03  0.12000000000E+03 0.  0.
<mgrwt>
<rscale>  0 0.26720214E+03</rscale>
<asrwt>0</asrwt>
<pdfrwt beam="1">  1        1 0.74413906E-01 0.26720214E+03</pdfrwt>
<pdfrwt beam="2">  1       -1 0.56772636E-02 0.26720214E+03</pdfrwt>
<totfact> 0.68147777E+03</totfact>
</mgrwt>
</event>
<event>
 4    1  0.1728870E-004  0.3038640E+03  0.7818608E-02  0.1083325E+00
         -2   -1    0    0    0  501 -0.00000000000E+00  0.00000000000E+00  0.25536508872E+02  0.25536508872E+02  0.00000000000E+00 0. -1.
          2   -1    0    0  501    0  0.00000000000E+00 -0.00000000000E+00 -0.90393470159E+03  0.90393470159E+03  0.00000000000E+00 0. -1.
         25    1    1    2    0    0 -0.45772848080E+02  0.79055379951E+02 -0.38292727684E+03  0.41155583591E+03  0.12000000000E+03 0.  0.
         25    1    1    2    0    0  0.45772848080E+02 -0.79055379951E+02 -0.49547091588E+03  0.51791537456E+03  0.12000000000E+03 0.  0.
<mgrwt>
<rscale>  0 0.30386403E+03</rscale>
<asrwt>0</asrwt>
<pdfrwt beam="1">  1        2 0.13906687E+00 0.30386403E+03</pdfrwt>
<pdfrwt beam="2">  1       -2 0.39286938E-02 0.30386403E+03</pdfrwt>
<totfact> 0.85383182E+03</totfact>
</mgrwt>
</event>
<event>
 4    1  0.1728870E-004  0.2938622E+03  0.7818608E-02  0.1088350E+00
          1   -1    0    0  501    0  0.00000000000E+00  0.00000000000E+00  0.26693388693E+02  0.26693388693E+02  0.00000000000E+00 0. -1.
         -1   -1    0    0    0  501 -0.00000000000E+00 -0.00000000000E+00 -0.80876771970E+03  0.80876771970E+03  0.00000000000E+00 0. -1.
         25    1    1    2    0    0 -0.17751973702E+02 -0.87200263675E+00 -0.15534172970E+03  0.19709628597E+03  0.12000000000E+03 0.  0.
         25    1    1    2    0    0  0.17751973702E+02  0.87200263675E+00 -0.62673260131E+03  0.63836482242E+03  0.12000000000E+03 0.  0.
<mgrwt>
<rscale>  0 0.29386222E+03</rscale>
<asrwt>0</asrwt>
<pdfrwt beam="1">  1        1 0.41066759E-02 0.29386222E+03</pdfrwt>
<pdfrwt beam="2">  1       -1 0.12442578E+00 0.29386222E+03</pdfrwt>
<totfact> 0.13295748E+03</totfact>
</mgrwt>
</event>
<event>
 4    1  0.1728870E-004  0.3837376E+03  0.7818608E-02  0.1049561E+00
          2   -1    0    0  501    0  0.00000000000E+00  0.00000000000E+00  0.16084028930E+04  0.16084028930E+04  0.00000000000E+00 0. -1.
         -2   -1    0    0    0  501 -0.00000000000E+00 -0.00000000000E+00 -0.22888322810E+02  0.22888322810E+02  0.00000000000E+00 0. -1.
         25    1    1    2    0    0 -0.11343988112E+03 -0.61125129090E+01  0.37824800102E+03  0.41276811858E+03  0.12000000000E+03 0.  0.
         25    1    1    2    0    0  0.11343988112E+03  0.61125129090E+01  0.12072665692E+04  0.12185230972E+04  0.12000000000E+03 0.  0.
<mgrwt>
<rscale>  0 0.38373764E+03</rscale>
<asrwt>0</asrwt>
<pdfrwt beam="1">  1        2 0.24744651E+00 0.38373764E+03</pdfrwt>
<pdfrwt beam="2">  1       -2 0.35212817E-02 0.38373764E+03</pdfrwt>
<totfact> 0.39811528E+03</totfact>
</mgrwt>
</event>
<event>
 4    1  0.1728870E-004  0.3038610E+03  0.7818608E-02  0.1083326E+00
         -2   -1    0    0    0  501 -0.00000000000E+00  0.00000000000E+00  0.38032608390E+02  0.38032608390E+02  0.00000000000E+00 0. -1.
          2   -1    0    0  501    0  0.00000000000E+00 -0.00000000000E+00 -0.60692322202E+03  0.60692322202E+03  0.00000000000E+00 0. -1.
         25    1    1    2    0    0 -0.57227967730E+02 -0.32653928925E+02 -0.14459042168E+03  0.19911732573E+03  0.12000000000E+03 0.  0.
         25    1    1    2    0    0  0.57227967730E+02  0.32653928925E+02 -0.42430019195E+03  0.44583850468E+03  0.12000000000E+03 0.  0.
<mgrwt>
<rscale>  0 0.30386098E+03</rscale>
<asrwt>0</asrwt>
<pdfrwt beam="1">  1        2 0.93372807E-01 0.30386098E+03</pdfrwt>
<pdfrwt beam="2">  1       -2 0.58511703E-02 0.30386098E+03</pdfrwt>
<totfact> 0.76569573E+03</totfact>
</mgrwt>
</event>
<event>
 4    1  0.1728870E-004  0.2599501E+03  0.7818608E-02  0.1107173E+00
          1   -1    0    0  501    0  0.00000000000E+00  0.00000000000E+00  0.11965237593E+03  0.11965237593E+03  0.00000000000E+00 0. -1.
         -1   -1    0    0    0  501 -0.00000000000E+00 -0.00000000000E+00 -0.14118833321E+03  0.14118833321E+03  0.00000000000E+00 0. -1.
         25    1    1    2    0    0 -0.19642448514E+02 -0.45480232152E+02 -0.17053801009E+02  0.13093933492E+03  0.12000000000E+03 0.  0.
         25    1    1    2    0    0  0.19642448514E+02  0.45480232152E+02 -0.44821562724E+01  0.12990137422E+03  0.12000000000E+03 0.  0.
<mgrwt>
<rscale>  0 0.25995015E+03</rscale>
<asrwt>0</asrwt>
<pdfrwt beam="1">  1        1 0.18408058E-01 0.25995015E+03</pdfrwt>
<pdfrwt beam="2">  1       -1 0.21721282E-01 0.25995015E+03</pdfrwt>
<totfact> 0.49598884E+03</totfact>
</mgrwt>
</event>
<event>
 4    1  0.1728870E-004  0.2606140E+03  0.7818608E-02  0.1106775E+00
          1   -1    0    0  501    0  0.00000000000E+00  0.00000000000E+00  0.50309151053E+03  0.50309151053E+03  0.00000000000E+00 0. -1.
         -1   -1    0    0    0  501 -0.00000000000E+00 -0.00000000000E+00 -0.33751133374E+02  0.33751133374E+02  0.00000000000E+00 0. -1.
         25    1    1    2    0    0 -0.45060925686E+02 -0.58231961539E+01  0.28144033609E+03  0.30931061963E+03  0.12000000000E+03 0.  0.
         25    1    1    2    0    0  0.45060925686E+02  0.58231961539E+01  0.18790004106E+03  0.22753202427E+03  0.12000000000E+03 0.  0.
<mgrwt>
<rscale>  0 0.26061396E+03</rscale>
<asrwt>0</asrwt>
<pdfrwt beam="1">  1        1 0.77398689E-01 0.26061396E+03</pdfrwt>
<pdfrwt beam="2">  1       -1 0.51924824E-02 0.26061396E+03</pdfrwt>
<totfact> 0.73904613E+03</totfact>
</mgrwt>
</event>
<event>
 4    1  0.1728870E-004  0.2540632E+03  0.7818608E-02  0.1110764E+00
         -2   -1    0    0    0  501 -0.00000000000E+00  0.00000000000E+00  0.73977015783E+02  0.73977015783E+02  0.00000000000E+00 0.  1.
          2   -1    0    0  501    0  0.00000000000E+00 -0.00000000000E+00 -0.21813562018E+03  0.21813562018E+03  0.00000000000E+00 0.  1.
         25    1    1    2    0    0 -0.38484157927E+02 -0.96673698753E+01 -0.57421108783E+02  0.13882244842E+03  0.12000000000E+03 0.  0.
         25    1    1    2    0    0  0.38484157927E+02  0.96673698753E+01 -0.86737495617E+02  0.15329018755E+03  0.12000000000E+03 0.  0.
<mgrwt>
<rscale>  0 0.25406316E+03</rscale>
<asrwt>0</asrwt>
<pdfrwt beam="1">  1        2 0.33559326E-01 0.25406316E+03</pdfrwt>
<pdfrwt beam="2">  1       -2 0.11381080E-01 0.25406316E+03</pdfrwt>
<totfact> 0.82373519E+03</totfact>
</mgrwt>
</event>
<event>
 4    1  0.1728870E-004  0.3969475E+03  0.7818608E-02  0.1044842E+00
         -2   -1    0    0    0  501 -0.00000000000E+00  0.00000000000E+00  0.29721985478E+03  0.29721985478E+03  0.00000000000E+00 0. -1.
          2   -1    0    0  501    0  0.00000000000E+00 -0.00000000000E+00 -0.13253430016E+03  0.13253430016E+03  0.00000000000E+00 0. -1.
         25    1    1    2    0    0  0.35960646271E+02  0.14903283883E+03  0.12410365090E+03  0.23088020984E+03  0.12000000000E+03 0.  0.
         25    1    1    2    0    0 -0.35960646271E+02 -0.14903283883E+03  0.40581903711E+02  0.19887394510E+03  0.12000000000E+03 0.  0.
<mgrwt>
<rscale>  0 0.39694748E+03</rscale>
<asrwt>0</asrwt>
<pdfrwt beam="1">  1        2 0.20389893E-01 0.39694748E+03</pdfrwt>
<pdfrwt beam="2">  1       -2 0.45726131E-01 0.39694748E+03</pdfrwt>
<totfact> 0.12551185E+03</totfact>
</mgrwt>
</event>
<event>
 4    1  0.1728870E-004  0.2609012E+03  0.7818608E-02  0.1106603E+00
          2   -1    0    0  501    0  0.00000000000E+00  0.00000000000E+00  0.42914770039E+03  0.42914770039E+03  0.00000000000E+00 0.  1.
         -2   -1    0    0    0  501 -0.00000000000E+00 -0.00000000000E+00 -0.39653856932E+02  0.39653856932E+02  0.00000000000E+00 0.  1.
         25    1    1    2    0    0  0.26071008731E+02 -0.35134874888E+02  0.24239592101E+03  0.27398894038E+03  0.12000000000E+03 0.  0.
         25    1    1    2    0    0 -0.26071008731E+02  0.35134874888E+02  0.14709792244E+03  0.19481261693E+03  0.12000000000E+03 0.  0.
<mgrwt>
<rscale>  0 0.26090122E+03</rscale>
<asrwt>0</asrwt>
<pdfrwt beam="1">  1        2 0.66022720E-01 0.26090122E+03</pdfrwt>
<pdfrwt beam="2">  1       -2 0.61005937E-02 0.26090122E+03</pdfrwt>
<totfact> 0.10553071E+04</totfact>
</mgrwt>
</event>
<event>
 4    1  0.1728870E-004  0.3458117E+03  0.7818608E-02  0.1064347E+00
          1   -1    0    0  501    0  0.00000000000E+00  0.00000000000E+00  0.26996602664E+02  0.26996602664E+02  0.00000000000E+00 0.  1.
         -1   -1    0    0    0  501 -0.00000000000E+00 -0.00000000000E+00 -0.11074148014E+04  0.11074148014E+04  0.00000000000E+00 0.  1.
         25    1    1    2    0    0  0.75140215617E+02 -0.89964351228E+02 -0.67770575642E+03  0.69815809727E+03  0.12000000000E+03 0.  0.
         25    1    1    2    0    0 -0.75140215617E+02  0.89964351228E+02 -0.40271244232E+03  0.43625330680E+03  0.12000000000E+03 0.  0.
<mgrwt>
<rscale>  0 0.34581173E+03</rscale>
<asrwt>0</asrwt>
<pdfrwt beam="1">  1        1 0.41533237E-02 0.34581173E+03</pdfrwt>
<pdfrwt beam="2">  1       -1 0.17037150E+00 0.34581173E+03</pdfrwt>
<totfact> 0.57755165E+02</totfact>
</mgrwt>
</event>
<event>
 4    1  0.1728870E-004  0.3142447E+03  0.7818608E-02  0.1078329E+00
          3   -1    0    0  501    0  0.00000000000E+00  0.00000000000E+00  0.95395035033E+02  0.95395035033E+02  0.00000000000E+00 0.  1.
         -3   -1    0    0    0  501 -0.00000000000E+00 -0.00000000000E+00 -0.25879157359E+03  0.25879157359E+03  0.00000000000E+00 0.  1.
         25    1    1    2    0    0  0.64327674037E+02  0.13280284181E+02  0.54103270394E+01  0.13690758647E+03  0.12000000000E+03 0.  0.
         25    1    1    2    0    0 -0.64327674037E+02 -0.13280284181E+02 -0.16880686560E+03  0.21727902216E+03  0.12000000000E+03 0.  0.
<mgrwt>
<rscale>  0 0.31424469E+03</rscale>
<asrwt>0</asrwt>
<pdfrwt beam="1">  1        3 0.14676159E-01 0.31424469E+03</pdfrwt>
<pdfrwt beam="2">  1       -3 0.39814088E-01 0.31424469E+03</pdfrwt>
<totfact> 0.62124635E+02</totfact>
</mgrwt>
</event>
<event>
 4    1  0.1728870E-004  0.4251636E+03  0.7818608E-02  0.1035399E+00
          2   -1    0    0  501    0  0.00000000000E+00  0.00000000000E+00  0.87891461684E+03  0.87891461684E+03  0.00000000000E+00 0. -1.
         -2   -1    0    0    0  501 -0.00000000000E+00 -0.00000000000E+00 -0.51416839141E+02  0.51416839141E+02  0.00000000000E+00 0. -1.
         25    1    1    2    0    0  0.13990906614E+03  0.70306097062E+02  0.24043345757E+03  0.31100762305E+03  0.12000000000E+03 0.  0.
         25    1    1    2    0    0 -0.13990906614E+03 -0.70306097062E+02  0.58706432013E+03  0.61932383294E+03  0.12000000000E+03 0.  0.
<mgrwt>
<rscale>  0 0.42516355E+03</rscale>
<asrwt>0</asrwt>
<pdfrwt beam="1">  1        2 0.13521762E+00 0.42516355E+03</pdfrwt>
<pdfrwt beam="2">  1       -2 0.79102836E-02 0.42516355E+03</pdfrwt>
<totfact> 0.30315100E+03</totfact>
</mgrwt>
</event>
<event>
 4    1  0.1728870E-004  0.2471412E+03  0.7818608E-02  0.1115125E+00
         -2   -1    0    0    0  501 -0.00000000000E+00  0.00000000000E+00  0.91182971059E+03  0.91182971059E+03  0.00000000000E+00 0.  1.
          2   -1    0    0  501    0  0.00000000000E+00 -0.00000000000E+00 -0.16746215652E+02  0.16746215652E+02  0.00000000000E+00 0.  1.
         25    1    1    2    0    0  0.15438573341E+00  0.29095456130E+02  0.42947261904E+03  0.44687056281E+03  0.12000000000E+03 0.  0.
         25    1    1    2    0    0 -0.15438573341E+00 -0.29095456130E+02  0.46561087591E+03  0.48170536344E+03  0.12000000000E+03 0.  0.
<mgrwt>
<rscale>  0 0.24714123E+03</rscale>
<asrwt>0</asrwt>
<pdfrwt beam="1">  1        2 0.25763416E-02 0.24714123E+03</pdfrwt>
<pdfrwt beam="2">  1       -2 0.14028145E+00 0.24714123E+03</pdfrwt>
<totfact> 0.14474149E+03</totfact>
</mgrwt>
</event>
<event>
 4    1  0.1728870E-004  0.4302515E+03  0.7818608E-02  0.1033781E+00
          1   -1    0    0  501    0  0.00000000000E+00  0.00000000000E+00  0.19282460684E+03  0.19282460684E+03  0.00000000000E+00 0.  1.
         -1   -1    0    0    0  501 -0.00000000000E+00 -0.00000000000E+00 -0.24000615160E+03  0.24000615160E+03  0.00000000000E+00 0.  1.
         25    1    1    2    0    0  0.20198848521E+02  0.17642805663E+03 -0.42255680336E+02  0.21844998322E+03  0.12000000000E+03 0.  0.
         25    1    1    2    0    0 -0.20198848521E+02 -0.17642805663E+03 -0.49258644216E+01  0.21438077523E+03  0.12000000000E+03 0.  0.
<mgrwt>
<rscale>  0 0.43025152E+03</rscale>
<asrwt>0</asrwt>
<pdfrwt beam="1">  1        1 0.29665324E-01 0.43025152E+03</pdfrwt>
<pdfrwt beam="2">  1       -1 0.36924023E-01 0.43025152E+03</pdfrwt>
<totfact> 0.10987960E+03</totfact>
</mgrwt>
</event>
<event>
 4    1  0.1728870E-004  0.2939031E+03  0.7818608E-02  0.1088329E+00
          3   -1    0    0  501    0  0.00000000000E+00  0.00000000000E+00  0.42047289466E+02  0.42047289466E+02  0.00000000000E+00 0.  1.
         -3   -1    0    0    0  501 -0.00000000000E+00 -0.00000000000E+00 -0.51358250428E+03  0.51358250428E+03  0.00000000000E+00 0.  1.
         25    1    1    2    0    0 -0.55714935001E+02  0.60424214495E+02 -0.19613368511E+03  0.24417956940E+03  0.12000000000E+03 0.  0.
         25    1    1    2    0    0  0.55714935001E+02 -0.60424214495E+02 -0.27540152971E+03  0.31145022435E+03  0.12000000000E+03 0.  0.
<mgrwt>
<rscale>  0 0.29390306E+03</rscale>
<asrwt>0</asrwt>
<pdfrwt beam="1">  1        3 0.64688138E-02 0.29390306E+03</pdfrwt>
<pdfrwt beam="2">  1       -3 0.79012693E-01 0.29390306E+03</pdfrwt>
<totfact> 0.58998454E+02</totfact>
</mgrwt>
</event>
<event>
 4    1  0.1728870E-004  0.3165031E+03  0.7818608E-02  0.1077270E+00
         -2   -1    0    0    0  501 -0.00000000000E+00  0.00000000000E+00  0.17367543372E+02  0.17367543372E+02  0.00000000000E+00 0. -1.
          2   -1    0    0  501    0  0.00000000000E+00 -0.00000000000E+00 -0.14419742720E+04  0.14419742720E+04  0.00000000000E+00 0. -1.
         25    1    1    2    0    0 -0.78225355969E+02  0.42548095368E+02 -0.95250962288E+03  0.96415980440E+03  0.12000000000E+03 0.  0.
         25    1    1    2    0    0  0.78225355969E+02 -0.42548095368E+02 -0.47209710570E+03  0.49518201093E+03  0.12000000000E+03 0.  0.
<mgrwt>
<rscale>  0 0.31650309E+03</rscale>
<asrwt>0</asrwt>
<pdfrwt beam="1">  1        2 0.22184223E+00 0.31650309E+03</pdfrwt>
<pdfrwt beam="2">  1       -2 0.26719293E-02 0.31650309E+03</pdfrwt>
<totfact> 0.74001819E+03</totfact>
</mgrwt>
</event>
<event>
 4    1  0.1728870E-004  0.2548019E+03  0.7818608E-02  0.1110307E+00
          4   -1    0    0  501    0  0.00000000000E+00  0.00000000000E+00  0.30638740161E+02  0.30638740161E+02  0.00000000000E+00 0. -1.
         -4   -1    0    0    0  501 -0.00000000000E+00 -0.00000000000E+00 -0.52975436429E+03  0.52975436429E+03  0.00000000000E+00 0. -1.
         25    1    1    2    0    0 -0.79830820456E+01  0.46344070125E+01 -0.15766380647E+03  0.19835090924E+03  0.12000000000E+03 0.  0.
         25    1    1    2    0    0  0.79830820456E+01 -0.46344070125E+01 -0.34145181767E+03  0.36204219521E+03  0.12000000000E+03 0.  0.
<mgrwt>
<rscale>  0 0.25480193E+03</rscale>
<asrwt>0</asrwt>
<pdfrwt beam="1">  1        4 0.47136529E-02 0.25480193E+03</pdfrwt>
<pdfrwt beam="2">  1       -4 0.81500662E-01 0.25480193E+03</pdfrwt>
<totfact> 0.66384651E+02</totfact>
</mgrwt>
</event>
<event>
 4    1  0.1728870E-004  0.2526003E+03  0.7818608E-02  0.1111672E+00
         -2   -1    0    0    0  501 -0.00000000000E+00  0.00000000000E+00  0.79236580874E+01  0.79236580874E+01  0.00000000000E+00 0. -1.
          2   -1    0    0  501    0  0.00000000000E+00 -0.00000000000E+00 -0.20131769914E+04  0.20131769914E+04  0.00000000000E+00 0. -1.
         25    1    1    2    0    0  0.20258731254E+02  0.32454827491E+02 -0.92757143793E+03  0.93608359908E+03  0.12000000000E+03 0.  0.
         25    1    1    2    0    0 -0.20258731254E+02 -0.32454827491E+02 -0.10776818953E+04  0.10850170504E+04  0.12000000000E+03 0.  0.
<mgrwt>
<rscale>  0 0.25260029E+03</rscale>
<asrwt>0</asrwt>
<pdfrwt beam="1">  1        2 0.30971961E+00 0.25260029E+03</pdfrwt>
<pdfrwt beam="2">  1       -2 0.12190240E-02 0.25260029E+03</pdfrwt>
<totfact> 0.11662043E+04</totfact>
</mgrwt>
</event>
<event>
 4    1  0.1728870E-004  0.2829094E+03  0.7818608E-02  0.1094110E+00
          1   -1    0    0  501    0  0.00000000000E+00  0.00000000000E+00  0.45976198764E+02  0.45976198764E+02  0.00000000000E+00 0. -1.
         -1   -1    0    0    0  501 -0.00000000000E+00 -0.00000000000E+00 -0.43521296472E+03  0.43521296472E+03  0.00000000000E+00 0. -1.
         25    1    1    2    0    0  0.49612423937E+01  0.24521322777E+02 -0.31468903695E+03  0.33772044530E+03  0.12000000000E+03 0.  0.
         25    1    1    2    0    0 -0.49612423937E+01 -0.24521322777E+02 -0.74547729001E+02  0.14346871818E+03  0.12000000000E+03 0.  0.
<mgrwt>
<rscale>  0 0.28290944E+03</rscale>
<asrwt>0</asrwt>
<pdfrwt beam="1">  1        1 0.70732614E-02 0.28290944E+03</pdfrwt>
<pdfrwt beam="2">  1       -1 0.66955840E-01 0.28290944E+03</pdfrwt>
<totfact> 0.24091203E+03</totfact>
</mgrwt>
</event>
<event>
 4    1  0.1728870E-004  0.3651170E+03  0.7818608E-02  0.1056576E+00
          1   -1    0    0  501    0  0.00000000000E+00  0.00000000000E+00  0.34712032930E+03  0.34712032930E+03  0.00000000000E+00 0.  1.
         -1   -1    0    0    0  501 -0.00000000000E+00 -0.00000000000E+00 -0.96011695082E+02  0.96011695082E+02  0.00000000000E+00 0.  1.
         25    1    1    2    0    0  0.67997925447E+02  0.44900427609E+02 -0.89818062507E+01  0.14532872775E+03  0.12000000000E+03 0.  0.
         25    1    1    2    0    0 -0.67997925447E+02 -0.44900427609E+02  0.26009044047E+03  0.29780329664E+03  0.12000000000E+03 0.  0.
<mgrwt>
<rscale>  0 0.36511703E+03</rscale>
<asrwt>0</asrwt>
<pdfrwt beam="1">  1        1 0.53403127E-01 0.36511703E+03</pdfrwt>
<pdfrwt beam="2">  1       -1 0.14771030E-01 0.36511703E+03</pdfrwt>
<totfact> 0.24049599E+03</totfact>
</mgrwt>
</event>
<event>
 4    1  0.1728870E-004  0.2653800E+03  0.7818608E-02  0.1103953E+00
          3   -1    0    0  501    0  0.00000000000E+00  0.00000000000E+00  0.89899545876E+02  0.89899545876E+02  0.00000000000E+00 0. -1.
         -3   -1    0    0    0  501 -0.00000000000E+00 -0.00000000000E+00 -0.19584792698E+03  0.19584792698E+03  0.00000000000E+00 0. -1.
         25    1    1    2    0    0 -0.23146828612E+02 -0.31771670799E+02 -0.90853074528E+01  0.12660078022E+03  0.12000000000E+03 0.  0.
         25    1    1    2    0    0  0.23146828612E+02  0.31771670799E+02 -0.96863073647E+02  0.15914669263E+03  0.12000000000E+03 0.  0.
<mgrwt>
<rscale>  0 0.26538003E+03</rscale>
<asrwt>0</asrwt>
<pdfrwt beam="1">  1        3 0.13830700E-01 0.26538003E+03</pdfrwt>
<pdfrwt beam="2">  1       -3 0.30130450E-01 0.26538003E+03</pdfrwt>
<totfact> 0.11514389E+03</totfact>
</mgrwt>
</event>
<event>
 4    1  0.1728870E-004  0.2929082E+03  0.7818608E-02  0.1088840E+00
          2   -1    0    0  501    0  0.00000000000E+00  0.00000000000E+00  0.46442455021E+03  0.46442455021E+03  0.00000000000E+00 0.  1.
         -2   -1    0    0    0  501 -0.00000000000E+00 -0.00000000000E+00 -0.46183624396E+02  0.46183624396E+02  0.00000000000E+00 0.  1.
         25    1    1    2    0    0  0.83474682805E+02  0.89678128957E+01  0.20806778832E+03  0.25444183790E+03  0.12000000000E+03 0.  0.
         25    1    1    2    0    0 -0.83474682805E+02 -0.89678128957E+01  0.21017313749E+03  0.25616633670E+03  0.12000000000E+03 0.  0.
<mgrwt>
<rscale>  0 0.29290824E+03</rscale>
<asrwt>0</asrwt>
<pdfrwt beam="1">  1        2 0.71449927E-01 0.29290824E+03</pdfrwt>
<pdfrwt beam="2">  1       -2 0.71051733E-02 0.29290824E+03</pdfrwt>
<totfact> 0.76798966E+03</totfact>
</mgrwt>
</event>
<event>
 4    1  0.1728870E-004  0.2715997E+03  0.7818608E-02  0.1100368E+00
         -1   -1    0    0    0  501 -0.00000000000E+00  0.00000000000E+00  0.98079908284E+02  0.98079908284E+02  0.00000000000E+00 0.  1.
          1   -1    0    0  501    0  0.00000000000E+00 -0.00000000000E+00 -0.18802631390E+03  0.18802631390E+03  0.00000000000E+00 0.  1.
         25    1    1    2    0    0  0.53877185367E+02 -0.17968186720E+02 -0.14881816967E+02  0.13359294635E+03  0.12000000000E+03 0.  0.
         25    1    1    2    0    0 -0.53877185367E+02  0.17968186720E+02 -0.75064588646E+02  0.15251327583E+03  0.12000000000E+03 0.  0.
<mgrwt>
<rscale>  0 0.27159973E+03</rscale>
<asrwt>0</asrwt>
<pdfrwt beam="1">  1        1 0.28927125E-01 0.27159973E+03</pdfrwt>
<pdfrwt beam="2">  1       -1 0.15089217E-01 0.27159973E+03</pdfrwt>
<totfact> 0.50137066E+03</totfact>
</mgrwt>
</event>
<event>
 4    1  0.1728870E-004  0.2450778E+03  0.7818608E-02  0.1116456E+00
          1   -1    0    0  501    0  0.00000000000E+00  0.00000000000E+00  0.24057413109E+03  0.24057413109E+03  0.00000000000E+00 0.  1.
         -1   -1    0    0    0  501 -0.00000000000E+00 -0.00000000000E+00 -0.62416448438E+02  0.62416448438E+02  0.00000000000E+00 0.  1.
         25    1    1    2    0    0  0.14986493608E+02  0.19460685648E+02  0.84713171226E+02  0.14892828696E+03  0.12000000000E+03 0.  0.
         25    1    1    2    0    0 -0.14986493608E+02 -0.19460685648E+02  0.93444511426E+02  0.15406229257E+03  0.12000000000E+03 0.  0.
<mgrwt>
<rscale>  0 0.24507781E+03</rscale>
<asrwt>0</asrwt>
<pdfrwt beam="1">  1        1 0.37011404E-01 0.24507781E+03</pdfrwt>
<pdfrwt beam="2">  1       -1 0.96025307E-02 0.24507781E+03</pdfrwt>
<totfact> 0.74198770E+03</totfact>
</mgrwt>
</event>
<event>
 4    1  0.1728870E-004  0.2500662E+03  0.7818608E-02  0.1113263E+00
          1   -1    0    0  501    0  0.00000000000E+00  0.00000000000E+00  0.26142767521E+03  0.26142767521E+03  0.00000000000E+00 0.  1.
         -1   -1    0    0    0  501 -0.00000000000E+00 -0.00000000000E+00 -0.59799628504E+02  0.59799628504E+02  0.00000000000E+00 0.  1.
         25    1    1    2    0    0  0.33755766977E+02  0.45076994068E+01  0.11182741026E+03  0.16752653773E+03  0.12000000000E+03 0.  0.
         25    1    1    2    0    0 -0.33755766977E+02 -0.45076994068E+01  0.89800636444E+02  0.15370076598E+03  0.12000000000E+03 0.  0.
<mgrwt>
<rscale>  0 0.25006621E+03</rscale>
<asrwt>0</asrwt>
<pdfrwt beam="1">  1        1 0.40219642E-01 0.25006621E+03</pdfrwt>
<pdfrwt beam="2">  1       -1 0.91999430E-02 0.25006621E+03</pdfrwt>
<totfact> 0.71472544E+03</totfact>
</mgrwt>
</event>
<event>
 4    1  0.1728870E-004  0.2536505E+03  0.7818608E-02  0.1111019E+00
          3   -1    0    0  501    0  0.00000000000E+00  0.00000000000E+00  0.20599171307E+03  0.20599171307E+03  0.00000000000E+00 0. -1.
         -3   -1    0    0    0  501 -0.00000000000E+00 -0.00000000000E+00 -0.78083907816E+02  0.78083907816E+02  0.00000000000E+00 0. -1.
         25    1    1    2    0    0  0.33343349223E+02 -0.29370489742E+01  0.37351095507E+02  0.13005963836E+03  0.12000000000E+03 0.  0.
         25    1    1    2    0    0 -0.33343349223E+02  0.29370489742E+01  0.90556709750E+02  0.15401598253E+03  0.12000000000E+03 0.  0.
<mgrwt>
<rscale>  0 0.25365045E+03</rscale>
<asrwt>0</asrwt>
<pdfrwt beam="1">  1        3 0.31691033E-01 0.25365045E+03</pdfrwt>
<pdfrwt beam="2">  1       -3 0.12012909E-01 0.25365045E+03</pdfrwt>
<totfact> 0.13249101E+03</totfact>
</mgrwt>
</event>
<event>
 4    1  0.1728870E-004  0.2702684E+03  0.7818608E-02  0.1101126E+00
          1   -1    0    0  501    0  0.00000000000E+00  0.00000000000E+00  0.16381813309E+04  0.16381813309E+04  0.00000000000E+00 0.  1.
         -1   -1    0    0    0  501 -0.00000000000E+00 -0.00000000000E+00 -0.11147272220E+02  0.11147272220E+02  0.00000000000E+00 0.  1.
         25    1    1    2    0    0  0.35971471717E+02  0.40051578233E+02  0.62412352493E+03  0.63783089457E+03  0.12000000000E+03 0.  0.
         25    1    1    2    0    0 -0.35971471717E+02 -0.40051578233E+02  0.10029105338E+04  0.10114977086E+04  0.12000000000E+03 0.  0.
<mgrwt>
<rscale>  0 0.27026841E+03</rscale>
<asrwt>0</asrwt>
<pdfrwt beam="1">  1        1 0.25202771E+00 0.27026841E+03</pdfrwt>
<pdfrwt beam="2">  1       -1 0.17149663E-02 0.27026841E+03</pdfrwt>
<totfact> 0.49809459E+03</totfact>
</mgrwt>
</event>
<event>
 4    1  0.1728870E-004  0.3113912E+03  0.7818608E-02  0.1079681E+00
         -1   -1    0    0    0  501 -0.00000000000E+00  0.00000000000E+00  0.81048687754E+02  0.81048687754E+02  0.00000000000E+00 0.  1.
          1   -1    0    0  501    0  0.00000000000E+00 -0.00000000000E+00 -0.29909326213E+03  0.29909326213E+03  0.00000000000E+00 0.  1.
         25    1    1    2    0    0 -0.76037915887E+02 -0.31205755207E+02 -0.17683419626E+03  0.22896702115E+03  0.12000000000E+03 0.  0.
         25    1    1    2    0    0  0.76037915887E+02  0.31205755207E+02 -0.41210378114E+02  0.15117492872E+03  0.12000000000E+03 0.  0.
<mgrwt>
<rscale>  0 0.31139118E+03</rscale>
<asrwt>0</asrwt>
<pdfrwt beam="1">  1        1 0.46014349E-01 0.31139118E+03</pdfrwt>
<pdfrwt beam="2">  1       -1 0.12469029E-01 0.31139118E+03</pdfrwt>
<totfact> 0.37900213E+03</totfact>
</mgrwt>
</event>
<event>
 4    1  0.1728870E-004  0.4586084E+03  0.7818608E-02  0.1025186E+00
         -2   -1    0    0    0  501 -0.00000000000E+00  0.00000000000E+00  0.30879270600E+03  0.30879270600E+03  0.00000000000E+00 0.  1.
          2   -1    0    0  501    0  0.00000000000E+00 -0.00000000000E+00 -0.17027738018E+03  0.17027738018E+03  0.00000000000E+00 0.  1.
         25    1    1    2    0    0  0.87024676335E+02  0.13590197848E+03 -0.45829406279E+02  0.20625948833E+03  0.12000000000E+03 0.  0.
         25    1    1    2    0    0 -0.87024676335E+02 -0.13590197848E+03  0.18434473210E+03  0.27281059785E+03  0.12000000000E+03 0.  0.
<mgrwt>
<rscale>  0 0.45860839E+03</rscale>
<asrwt>0</asrwt>
<pdfrwt beam="1">  1        2 0.26196520E-01 0.45860839E+03</pdfrwt>
<pdfrwt beam="2">  1       -2 0.47506570E-01 0.45860839E+03</pdfrwt>
<totfact> 0.87436939E+02</totfact>
</mgrwt>
</event>
<event>
 4    1  0.1728870E-004  0.2804861E+03  0.7818608E-02  0.1095424E+00
          1   -1    0    0  501    0  0.00000000000E+00  0.00000000000E+00  0.49924653707E+03  0.49924653707E+03  0.00000000000E+00 0. -1.
         -1   -1    0    0    0  501 -0.00000000000E+00 -0.00000000000E+00 -0.39395588582E+02  0.39395588582E+02  0.00000000000E+00 0. -1.
         25    1    1    2    0    0  0.46145350934E-01 -0.63324115578E+02  0.29804284351E+03  0.32747439947E+03  0.12000000000E+03 0.  0.
         25    1    1    2    0    0 -0.46145350934E-01  0.63324115578E+02  0.16180810499E+03  0.21116772618E+03  0.12000000000E+03 0.  0.
<mgrwt>
<rscale>  0 0.28048609E+03</rscale>
<asrwt>0</asrwt>
<pdfrwt beam="1">  1        1 0.76807155E-01 0.28048609E+03</pdfrwt>
<pdfrwt beam="2">  1       -1 0.60608602E-02 0.28048609E+03</pdfrwt>
<totfact> 0.59309057E+03</totfact>
</mgrwt>
</event>
<event>
 4    1  0.1728870E-004  0.3188797E+03  0.7818608E-02  0.1076166E+00
          1   -1    0    0  501    0  0.00000000000E+00  0.00000000000E+00  0.74643542769E+02  0.74643542769E+02  0.00000000000E+00 0. -1.
         -1   -1    0    0    0  501 -0.00000000000E+00 -0.00000000000E+00 -0.34056607876E+03  0.34056607876E+03  0.00000000000E+00 0. -1.
         25    1    1    2    0    0 -0.15775944958E+02 -0.89604006031E+02 -0.64762382978E+02  0.16392658291E+03  0.12000000000E+03 0.  0.
         25    1    1    2    0    0  0.15775944958E+02  0.89604006031E+02 -0.20116015301E+03  0.25128303861E+03  0.12000000000E+03 0.  0.
<mgrwt>
<rscale>  0 0.31887966E+03</rscale>
<asrwt>0</asrwt>
<pdfrwt beam="1">  1        1 0.11483622E-01 0.31887966E+03</pdfrwt>
<pdfrwt beam="2">  1       -1 0.52394781E-01 0.31887966E+03</pdfrwt>
<totfact> 0.20067501E+03</totfact>
</mgrwt>
</event>
<event>
 4    1  0.1728870E-004  0.3306312E+03  0.7818608E-02  0.1070858E+00
         -2   -1    0    0    0  501 -0.00000000000E+00  0.00000000000E+00  0.14627242040E+03  0.14627242040E+03  0.00000000000E+00 0. -1.
          2   -1    0    0  501    0  0.00000000000E+00 -0.00000000000E+00 -0.18683800935E+03  0.18683800935E+03  0.00000000000E+00 0. -1.
         25    1    1    2    0    0  0.49893522835E+01 -0.97537274074E+02 -0.78950308306E+02  0.17369963918E+03  0.12000000000E+03 0.  0.
         25    1    1    2    0    0 -0.49893522835E+01  0.97537274074E+02  0.38384719354E+02  0.15941079057E+03  0.12000000000E+03 0.  0.
<mgrwt>
<rscale>  0 0.33063120E+03</rscale>
<asrwt>0</asrwt>
<pdfrwt beam="1">  1        2 0.28744309E-01 0.33063120E+03</pdfrwt>
<pdfrwt beam="2">  1       -2 0.22503449E-01 0.33063120E+03</pdfrwt>
<totfact> 0.31553224E+03</totfact>
</mgrwt>
</event>
<event>
 4    1  0.1728870E-004  0.2486505E+03  0.7818608E-02  0.1114161E+00
         -1   -1    0    0    0  501 -0.00000000000E+00  0.00000000000E+00  0.13014231030E+02  0.13014231030E+02  0.00000000000E+00 0.  1.
          1   -1    0    0  501    0  0.00000000000E+00 -0.00000000000E+00 -0.11876817390E+04  0.11876817390E+04  0.00000000000E+00 0.  1.
         25    1    1    2    0    0  0.20669054655E+02  0.20928744645E+02 -0.52050302655E+03  0.53496600155E+03  0.12000000000E+03 0.  0.
         25    1    1    2    0    0 -0.20669054655E+02 -0.20928744645E+02 -0.65416448141E+03  0.66572996847E+03  0.12000000000E+03 0.  0.
<mgrwt>
<rscale>  0 0.24865047E+03</rscale>
<asrwt>0</asrwt>
<pdfrwt beam="1">  1        1 0.18272023E+00 0.24865047E+03</pdfrwt>
<pdfrwt beam="2">  1       -1 0.20021898E-02 0.24865047E+03</pdfrwt>
<totfact> 0.79676577E+03</totfact>
</mgrwt>
</event>
<event>
 4    1  0.1728870E-004  0.4310961E+03  0.7818608E-02  0.1033514E+00
          2   -1    0    0  501    0  0.00000000000E+00  0.00000000000E+00  0.12866814103E+04  0.12866814103E+04  0.00000000000E+00 0. -1.
         -2   -1    0    0    0  501 -0.00000000000E+00 -0.00000000000E+00 -0.36109146735E+02  0.36109146735E+02  0.00000000000E+00 0. -1.
         25    1    1    2    0    0  0.14994797687E+03  0.81357687246E+02  0.45841575258E+03  0.50363525617E+03  0.12000000000E+03 0.  0.
         25    1    1    2    0    0 -0.14994797687E+03 -0.81357687246E+02  0.79215651099E+03  0.81915530087E+03  0.12000000000E+03 0.  0.
<mgrwt>
<rscale>  0 0.43109613E+03</rscale>
<asrwt>0</asrwt>
<pdfrwt beam="1">  1        2 0.19795095E+00 0.43109613E+03</pdfrwt>
<pdfrwt beam="2">  1       -2 0.55552543E-02 0.43109613E+03</pdfrwt>
<totfact> 0.29778598E+03</totfact>
</mgrwt>
</event>
<event>
 4    1  0.1728870E-004  0.2792875E+03  0.7818608E-02  0.1096079E+00
          1   -1    0    0  501    0  0.00000000000E+00  0.00000000000E+00  0.25235834916E+03  0.25235834916E+03  0.00000000000E+00 0. -1.
         -1   -1    0    0    0  501 -0.00000000000E+00 -0.00000000000E+00 -0.77272591186E+02  0.77272591186E+02  0.00000000000E+00 0. -1.
         25    1    1    2    0    0  0.20715561838E+02  0.27346475710E+02  0.13614912620E+02  0.12554811859E+03  0.12000000000E+03 0.  0.
         25    1    1    2    0    0 -0.20715561838E+02 -0.27346475710E+02  0.16147084535E+03  0.20408282175E+03  0.12000000000E+03 0.  0.
<mgrwt>
<rscale>  0 0.27928755E+03</rscale>
<asrwt>0</asrwt>
<pdfrwt beam="1">  1        1 0.38824361E-01 0.27928755E+03</pdfrwt>
<pdfrwt beam="2">  1       -1 0.11888091E-01 0.27928755E+03</pdfrwt>
<totfact> 0.50433698E+03</totfact>
</mgrwt>
</event>
<event>
 4    1  0.1728870E-004  0.2891352E+03  0.7818608E-02  0.1090802E+00
         -1   -1    0    0    0  501 -0.00000000000E+00  0.00000000000E+00  0.45198509277E+02  0.45198509277E+02  0.00000000000E+00 0. -1.
          1   -1    0    0  501    0  0.00000000000E+00 -0.00000000000E+00 -0.46240009221E+03  0.46240009221E+03  0.00000000000E+00 0. -1.
         25    1    1    2    0    0 -0.62359882021E+02  0.50622644740E+02 -0.22081280839E+03  0.26383650884E+03  0.12000000000E+03 0.  0.
         25    1    1    2    0    0  0.62359882021E+02 -0.50622644740E+02 -0.19638877454E+03  0.24376209265E+03  0.12000000000E+03 0.  0.
<mgrwt>
<rscale>  0 0.28913523E+03</rscale>
<asrwt>0</asrwt>
<pdfrwt beam="1">  1        1 0.71138475E-01 0.28913523E+03</pdfrwt>
<pdfrwt beam="2">  1       -1 0.69536169E-02 0.28913523E+03</pdfrwt>
<totfact> 0.53337795E+03</totfact>
</mgrwt>
</event>
<event>
 4    1  0.1728870E-004  0.3164696E+03  0.7818608E-02  0.1077286E+00
          2   -1    0    0  501    0  0.00000000000E+00  0.00000000000E+00  0.31650140142E+03  0.31650140142E+03  0.00000000000E+00 0.  1.
         -2   -1    0    0    0  501 -0.00000000000E+00 -0.00000000000E+00 -0.79109441376E+02  0.79109441376E+02  0.00000000000E+00 0.  1.
         25    1    1    2    0    0 -0.39150210567E+02 -0.81179599109E+02  0.18139175183E+03  0.23542691845E+03  0.12000000000E+03 0.  0.
         25    1    1    2    0    0  0.39150210567E+02  0.81179599109E+02  0.56000208217E+02  0.16018392435E+03  0.12000000000E+03 0.  0.
<mgrwt>
<rscale>  0 0.31646958E+03</rscale>
<asrwt>0</asrwt>
<pdfrwt beam="1">  1        2 0.48692523E-01 0.31646958E+03</pdfrwt>
<pdfrwt beam="2">  1       -2 0.12170683E-01 0.31646958E+03</pdfrwt>
<totfact> 0.49820239E+03</totfact>
</mgrwt>
</event>
<event>
 4    1  0.1728870E-004  0.2580238E+03  0.7818608E-02  0.1108336E+00
          2   -1    0    0  501    0  0.00000000000E+00  0.00000000000E+00  0.23509476686E+04  0.23509476686E+04  0.00000000000E+00 0.  1.
         -2   -1    0    0    0  501 -0.00000000000E+00 -0.00000000000E+00 -0.70797281656E+01  0.70797281656E+01  0.00000000000E+00 0.  1.
         25    1    1    2    0    0 -0.43465498422E+02 -0.17547005972E+02  0.12345353725E+04  0.12412391925E+04  0.12000000000E+03 0.  0.
         25    1    1    2    0    0  0.43465498422E+02  0.17547005972E+02  0.11093325678E+04  0.11167882042E+04  0.12000000000E+03 0.  0.
<mgrwt>
<rscale>  0 0.25802380E+03</rscale>
<asrwt>0</asrwt>
<pdfrwt beam="1">  1        2 0.36168363E+00 0.25802380E+03</pdfrwt>
<pdfrwt beam="2">  1       -2 0.10891908E-02 0.25802380E+03</pdfrwt>
<totfact> 0.90959153E+03</totfact>
</mgrwt>
</event>
<event>
 4    1  0.1728870E-004  0.3796623E+03  0.7818608E-02  0.1051059E+00
          2   -1    0    0  501    0  0.00000000000E+00  0.00000000000E+00  0.21641651755E+03  0.21641651755E+03  0.00000000000E+00 0. -1.
         -2   -1    0    0    0  501 -0.00000000000E+00 -0.00000000000E+00 -0.16651162936E+03  0.16651162936E+03  0.00000000000E+00 0. -1.
         25    1    1    2    0    0 -0.69809988911E+02  0.69895250952E+02  0.13487194886E+03  0.20578926903E+03  0.12000000000E+03 0.  0.
         25    1    1    2    0    0  0.69809988911E+02 -0.69895250952E+02 -0.84967060670E+02  0.17713887788E+03  0.12000000000E+03 0.  0.
<mgrwt>
<rscale>  0 0.37966231E+03</rscale>
<asrwt>0</asrwt>
<pdfrwt beam="1">  1        2 0.33294849E-01 0.37966231E+03</pdfrwt>
<pdfrwt beam="2">  1       -2 0.25617174E-01 0.37966231E+03</pdfrwt>
<totfact> 0.21395240E+03</totfact>
</mgrwt>
</event>
<event>
 4    1  0.1728870E-004  0.2525184E+03  0.7818608E-02  0.1111724E+00
          1   -1    0    0  501    0  0.00000000000E+00  0.00000000000E+00  0.85270556501E+03  0.85270556501E+03  0.00000000000E+00 0.  1.
         -1   -1    0    0    0  501 -0.00000000000E+00 -0.00000000000E+00 -0.18695060251E+02  0.18695060251E+02  0.00000000000E+00 0.  1.
         25    1    1    2    0    0 -0.37075760841E+02 -0.85994070492E+01  0.45025174508E+03  0.46752026244E+03  0.12000000000E+03 0.  0.
         25    1    1    2    0    0  0.37075760841E+02  0.85994070492E+01  0.38375875968E+03  0.40388036283E+03  0.12000000000E+03 0.  0.
<mgrwt>
<rscale>  0 0.25251837E+03</rscale>
<asrwt>0</asrwt>
<pdfrwt beam="1">  1        1 0.13118544E+00 0.25251837E+03</pdfrwt>
<pdfrwt beam="2">  1       -1 0.28761638E-02 0.25251837E+03</pdfrwt>
<totfact> 0.83247481E+03</totfact>
</mgrwt>
</event>
<event>
 4    1  0.1728870E-004  0.2961627E+03  0.7818608E-02  0.1087175E+00
          2   -1    0    0  501    0  0.00000000000E+00  0.00000000000E+00  0.22784258779E+03  0.22784258779E+03  0.00000000000E+00 0. -1.
         -2   -1    0    0    0  501 -0.00000000000E+00 -0.00000000000E+00 -0.96242265369E+02  0.96242265369E+02  0.00000000000E+00 0. -1.
         25    1    1    2    0    0 -0.77019093268E+02  0.80472656770E+01  0.10862255374E+03  0.17943120797E+03  0.12000000000E+03 0.  0.
         25    1    1    2    0    0  0.77019093268E+02 -0.80472656770E+01  0.22977768680E+02  0.14465364519E+03  0.12000000000E+03 0.  0.
<mgrwt>
<rscale>  0 0.29616270E+03</rscale>
<asrwt>0</asrwt>
<pdfrwt beam="1">  1        2 0.35052706E-01 0.29616270E+03</pdfrwt>
<pdfrwt beam="2">  1       -2 0.14806502E-01 0.29616270E+03</pdfrwt>
<totfact> 0.51482945E+03</totfact>
</mgrwt>
</event>
<event>
 4    1  0.1728870E-004  0.2838332E+03  0.7818608E-02  0.1093614E+00
         -2   -1    0    0    0  501 -0.00000000000E+00  0.00000000000E+00  0.45090256392E+02  0.45090256392E+02  0.00000000000E+00 0. -1.
          2   -1    0    0  501    0  0.00000000000E+00 -0.00000000000E+00 -0.44666689921E+03  0.44666689921E+03  0.00000000000E+00 0. -1.
         25    1    1    2    0    0  0.55914167053E+02 -0.12902658474E+02 -0.11507573972E+03  0.17588433286E+03  0.12000000000E+03 0.  0.
         25    1    1    2    0    0 -0.55914167053E+02  0.12902658474E+02 -0.28650090309E+03  0.31587282274E+03  0.12000000000E+03 0.  0.
<mgrwt>
<rscale>  0 0.28383323E+03</rscale>
<asrwt>0</asrwt>
<pdfrwt beam="1">  1        2 0.68717988E-01 0.28383323E+03</pdfrwt>
<pdfrwt beam="2">  1       -2 0.69369622E-02 0.28383323E+03</pdfrwt>
<totfact> 0.83127856E+03</totfact>
</mgrwt>
</event>
<event>
 4    1  0.1728870E-004  0.2491318E+03  0.7818608E-02  0.1113855E+00
         -2   -1    0    0    0  501 -0.00000000000E+00  0.00000000000E+00  0.22377204326E+02  0.22377204326E+02  0.00000000000E+00 0. -1.
          2   -1    0    0  501    0  0.00000000000E+00 -0.00000000000E+00 -0.69341401435E+03  0.69341401435E+03  0.00000000000E+00 0. -1.
         25    1    1    2    0    0  0.18130474065E+00 -0.31932171610E+02 -0.30722551901E+03  0.33137171875E+03  0.12000000000E+03 0.  0.
         25    1    1    2    0    0 -0.18130474065E+00  0.31932171610E+02 -0.36381129101E+03  0.38441949992E+03  0.12000000000E+03 0.  0.
<mgrwt>
<rscale>  0 0.24913183E+03</rscale>
<asrwt>0</asrwt>
<pdfrwt beam="1">  1        2 0.10667908E+00 0.24913183E+03</pdfrwt>
<pdfrwt beam="2">  1       -2 0.34426469E-02 0.24913183E+03</pdfrwt>
<totfact> 0.14477121E+04</totfact>
</mgrwt>
</event>
<event>
 4    1  0.1728870E-004  0.3180775E+03  0.7818608E-02  0.1076538E+00
         -2   -1    0    0    0  501 -0.00000000000E+00  0.00000000000E+00  0.12461701361E+02  0.12461701361E+02  0.00000000000E+00 0. -1.
          2   -1    0    0  501    0  0.00000000000E+00 -0.00000000000E+00 -0.20296847464E+04  0.20296847464E+04  0.00000000000E+00 0. -1.
         25    1    1    2    0    0 -0.53689531301E+02  0.48301599680E+02 -0.14923835055E+04  0.14989410054E+04  0.12000000000E+03 0.  0.
         25    1    1    2    0    0  0.53689531301E+02 -0.48301599680E+02 -0.52483953955E+03  0.54320544233E+03  0.12000000000E+03 0.  0.
<mgrwt>
<rscale>  0 0.31807751E+03</rscale>
<asrwt>0</asrwt>
<pdfrwt beam="1">  1        2 0.31225902E+00 0.31807751E+03</pdfrwt>
<pdfrwt beam="2">  1       -2 0.19171859E-02 0.31807751E+03</pdfrwt>
<totfact> 0.58980579E+03</totfact>
</mgrwt>
</event>
<event>
 4    1  0.1728870E-004  0.2773488E+03  0.7818608E-02  0.1097146E+00
         -2   -1    0    0    0  501 -0.00000000000E+00  0.00000000000E+00  0.11383907857E+02  0.11383907857E+02  0.00000000000E+00 0. -1.
          2   -1    0    0  501    0  0.00000000000E+00 -0.00000000000E+00 -0.16892782690E+04  0.16892782690E+04  0.00000000000E+00 0. -1.
         25    1    1    2    0    0  0.33589143739E+02 -0.58657647538E+02 -0.93813130345E+03  0.94818737215E+03  0.12000000000E+03 0.  0.
         25    1    1    2    0    0 -0.33589143739E+02  0.58657647538E+02 -0.73976305773E+03  0.75247480474E+03  0.12000000000E+03 0.  0.
<mgrwt>
<rscale>  0 0.27734879E+03</rscale>
<asrwt>0</asrwt>
<pdfrwt beam="1">  1        2 0.25988890E+00 0.27734879E+03</pdfrwt>
<pdfrwt beam="2">  1       -2 0.17513709E-02 0.27734879E+03</pdfrwt>
<totfact> 0.10174842E+04</totfact>
</mgrwt>
</event>
<event>
 4    1  0.1728870E-004  0.2546142E+03  0.7818608E-02  0.1110423E+00
         -2   -1    0    0    0  501 -0.00000000000E+00  0.00000000000E+00  0.39905101224E+02  0.39905101224E+02  0.00000000000E+00 0. -1.
          2   -1    0    0  501    0  0.00000000000E+00 -0.00000000000E+00 -0.40614089275E+03  0.40614089275E+03  0.00000000000E+00 0. -1.
         25    1    1    2    0    0  0.40490985698E+02 -0.12271517963E+02 -0.19033742522E+03  0.22895074910E+03  0.12000000000E+03 0.  0.
         25    1    1    2    0    0 -0.40490985698E+02  0.12271517963E+02 -0.17589836630E+03  0.21709524487E+03  0.12000000000E+03 0.  0.
<mgrwt>
<rscale>  0 0.25461417E+03</rscale>
<asrwt>0</asrwt>
<pdfrwt beam="1">  1        2 0.62483221E-01 0.25461417E+03</pdfrwt>
<pdfrwt beam="2">  1       -2 0.61392457E-02 0.25461417E+03</pdfrwt>
<totfact> 0.11086078E+04</totfact>
</mgrwt>
</event>
<event>
 4    1  0.1728870E-004  0.3103228E+03  0.7818608E-02  0.1080191E+00
         -2   -1    0    0    0  501 -0.00000000000E+00  0.00000000000E+00  0.42077940123E+03  0.42077940123E+03  0.00000000000E+00 0. -1.
          2   -1    0    0  501    0  0.00000000000E+00 -0.00000000000E+00 -0.57215391527E+02  0.57215391527E+02  0.00000000000E+00 0. -1.
         25    1    1    2    0    0  0.66073172712E+02  0.56901560895E+02  0.11167472459E+03  0.18567362736E+03  0.12000000000E+03 0.  0.
         25    1    1    2    0    0 -0.66073172712E+02 -0.56901560895E+02  0.25188928512E+03  0.29232116541E+03  0.12000000000E+03 0.  0.
<mgrwt>
<rscale>  0 0.31032279E+03</rscale>
<asrwt>0</asrwt>
<pdfrwt beam="1">  1        2 0.88023682E-02 0.31032279E+03</pdfrwt>
<pdfrwt beam="2">  1       -2 0.64735291E-01 0.31032279E+03</pdfrwt>
<totfact> 0.17006069E+03</totfact>
</mgrwt>
</event>
<event>
 4    1  0.1728870E-004  0.5252202E+03  0.7818608E-02  0.1007398E+00
          2   -1    0    0  501    0  0.00000000000E+00  0.00000000000E+00  0.27359131137E+03  0.27359131137E+03  0.00000000000E+00 0.  1.
         -2   -1    0    0    0  501 -0.00000000000E+00 -0.00000000000E+00 -0.25206965659E+03  0.25206965659E+03  0.00000000000E+00 0.  1.
         25    1    1    2    0    0 -0.13399250000E+03 -0.89380774713E+00  0.20225690685E+03  0.27067073228E+03  0.12000000000E+03 0.  0.
         25    1    1    2    0    0  0.13399250000E+03  0.89380774713E+00 -0.18073525207E+03  0.25499023567E+03  0.12000000000E+03 0.  0.
<mgrwt>
<rscale>  0 0.52522021E+03</rscale>
<asrwt>0</asrwt>
<pdfrwt beam="1">  1        2 0.42090971E-01 0.52522021E+03</pdfrwt>
<pdfrwt beam="2">  1       -2 0.38779947E-01 0.52522021E+03</pdfrwt>
<totfact> 0.76809088E+02</totfact>
</mgrwt>
</event>
<event>
 4    1  0.1728870E-004  0.3408350E+03  0.7818608E-02  0.1066441E+00
         -2   -1    0    0    0  501 -0.00000000000E+00  0.00000000000E+00  0.13273443338E+03  0.13273443338E+03  0.00000000000E+00 0.  1.
          2   -1    0    0  501    0  0.00000000000E+00 -0.00000000000E+00 -0.21879873191E+03  0.21879873191E+03  0.00000000000E+00 0.  1.
         25    1    1    2    0    0 -0.51394045026E+02  0.88740004036E+02 -0.10928219297E+03  0.19198628566E+03  0.12000000000E+03 0.  0.
         25    1    1    2    0    0  0.51394045026E+02 -0.88740004036E+02  0.23217894438E+02  0.15954687964E+03  0.12000000000E+03 0.  0.
<mgrwt>
<rscale>  0 0.34083501E+03</rscale>
<asrwt>0</asrwt>
<pdfrwt beam="1">  1        2 0.33661343E-01 0.34083501E+03</pdfrwt>
<pdfrwt beam="2">  1       -2 0.20420682E-01 0.34083501E+03</pdfrwt>
<totfact> 0.31401062E+03</totfact>
</mgrwt>
</event>
<event>
 4    1  0.1728870E-004  0.2797519E+03  0.7818608E-02  0.1095825E+00
          2   -1    0    0  501    0  0.00000000000E+00  0.00000000000E+00  0.31039296902E+03  0.31039296902E+03  0.00000000000E+00 0. -1.
         -2   -1    0    0    0  501 -0.00000000000E+00 -0.00000000000E+00 -0.63033904804E+02  0.63033904804E+02  0.00000000000E+00 0. -1.
         25    1    1    2    0    0  0.17626990403E+02  0.68340191712E+02  0.14179558210E+03  0.19871356194E+03  0.12000000000E+03 0.  0.
         25    1    1    2    0    0 -0.17626990403E+02 -0.68340191712E+02  0.10556348211E+03  0.17471331188E+03  0.12000000000E+03 0.  0.
<mgrwt>
<rscale>  0 0.27975190E+03</rscale>
<asrwt>0</asrwt>
<pdfrwt beam="1">  1        2 0.47752764E-01 0.27975190E+03</pdfrwt>
<pdfrwt beam="2">  1       -2 0.96975240E-02 0.27975190E+03</pdfrwt>
<totfact> 0.72963191E+03</totfact>
</mgrwt>
</event>
<event>
 4    1  0.1728870E-004  0.3743446E+03  0.7818608E-02  0.1053044E+00
          1   -1    0    0  501    0  0.00000000000E+00  0.00000000000E+00  0.13633450556E+04  0.13633450556E+04  0.00000000000E+00 0.  1.
         -1   -1    0    0    0  501 -0.00000000000E+00 -0.00000000000E+00 -0.25696705606E+02  0.25696705606E+02  0.00000000000E+00 0.  1.
         25    1    1    2    0    0  0.36172872364E+02  0.82018925686E+01  0.11837518362E+04  0.11903966387E+04  0.12000000000E+03 0.  0.
         25    1    1    2    0    0 -0.36172872364E+02 -0.82018925686E+01  0.15389651382E+03  0.19864512252E+03  0.12000000000E+03 0.  0.
<mgrwt>
<rscale>  0 0.37434464E+03</rscale>
<asrwt>0</asrwt>
<pdfrwt beam="1">  1        1 0.20974534E+00 0.37434464E+03</pdfrwt>
<pdfrwt beam="2">  1       -1 0.39533404E-02 0.37434464E+03</pdfrwt>
<totfact> 0.22110934E+03</totfact>
</mgrwt>
</event>
<event>
 4    1  0.1728870E-004  0.2851386E+03  0.7818608E-02  0.1092915E+00
          2   -1    0    0  501    0  0.00000000000E+00  0.00000000000E+00  0.28557451663E+04  0.28557451663E+04  0.00000000000E+00 0. -1.
         -2   -1    0    0    0  501 -0.00000000000E+00 -0.00000000000E+00 -0.71175833913E+01  0.71175833913E+01  0.00000000000E+00 0. -1.
         25    1    1    2    0    0 -0.24709988129E+01 -0.71078029646E+02  0.17200860301E+04  0.17257329293E+04  0.12000000000E+03 0.  0.
         25    1    1    2    0    0  0.24709988129E+01  0.71078029646E+02  0.11285415528E+04  0.11371298204E+04  0.12000000000E+03 0.  0.
<mgrwt>
<rscale>  0 0.28513859E+03</rscale>
<asrwt>0</asrwt>
<pdfrwt beam="1">  1        2 0.43934450E+00 0.28513859E+03</pdfrwt>
<pdfrwt beam="2">  1       -2 0.10950151E-02 0.28513859E+03</pdfrwt>
<totfact> 0.47254073E+03</totfact>
</mgrwt>
</event>
<event>
 4    1  0.1728870E-004  0.2993977E+03  0.7818608E-02  0.1085542E+00
         -1   -1    0    0    0  501 -0.00000000000E+00  0.00000000000E+00  0.32861858536E+02  0.32861858536E+02  0.00000000000E+00 0. -1.
          1   -1    0    0  501    0  0.00000000000E+00 -0.00000000000E+00 -0.68193780146E+03  0.68193780146E+03  0.00000000000E+00 0. -1.
         25    1    1    2    0    0  0.32769348342E+02  0.83280454744E+02 -0.32327638799E+03  0.35625424540E+03  0.12000000000E+03 0.  0.
         25    1    1    2    0    0 -0.32769348342E+02 -0.83280454744E+02 -0.32579955493E+03  0.35854541460E+03  0.12000000000E+03 0.  0.
<mgrwt>
<rscale>  0 0.29939769E+03</rscale>
<asrwt>0</asrwt>
<pdfrwt beam="1">  1        1 0.10491350E+00 0.29939769E+03</pdfrwt>
<pdfrwt beam="2">  1       -1 0.50556709E-02 0.29939769E+03</pdfrwt>
<totfact> 0.50696415E+03</totfact>
</mgrwt>
</event>
<event>
 4    1  0.1728870E-004  0.3446265E+03  0.7818608E-02  0.1064842E+00
         -1   -1    0    0    0  501 -0.00000000000E+00  0.00000000000E+00  0.21278997231E+03  0.21278997231E+03  0.00000000000E+00 0. -1.
          1   -1    0    0  501    0  0.00000000000E+00 -0.00000000000E+00 -0.13953596523E+03  0.13953596523E+03  0.00000000000E+00 0. -1.
         25    1    1    2    0    0 -0.10174420068E+03 -0.66450427073E+02  0.60036446887E+02  0.18103015380E+03  0.12000000000E+03 0.  0.
         25    1    1    2    0    0  0.10174420068E+03  0.66450427073E+02  0.13217560186E+02  0.17129578374E+03  0.12000000000E+03 0.  0.
<mgrwt>
<rscale>  0 0.34462649E+03</rscale>
<asrwt>0</asrwt>
<pdfrwt beam="1">  1        1 0.21467072E-01 0.34462649E+03</pdfrwt>
<pdfrwt beam="2">  1       -1 0.32736919E-01 0.34462649E+03</pdfrwt>
<totfact> 0.20535377E+03</totfact>
</mgrwt>
</event>
<event>
 4    1  0.1728870E-004  0.2591433E+03  0.7818608E-02  0.1107659E+00
         -1   -1    0    0    0  501 -0.00000000000E+00  0.00000000000E+00  0.40288060221E+02  0.40288060221E+02  0.00000000000E+00 0. -1.
          1   -1    0    0  501    0  0.00000000000E+00 -0.00000000000E+00 -0.41671928955E+03  0.41671928955E+03  0.00000000000E+00 0. -1.
         25    1    1    2    0    0  0.65775537244E+01  0.46482769379E+02 -0.21219573701E+03  0.24825580127E+03  0.12000000000E+03 0.  0.
         25    1    1    2    0    0 -0.65775537244E+01 -0.46482769379E+02 -0.16423549232E+03  0.20875154850E+03  0.12000000000E+03 0.  0.
<mgrwt>
<rscale>  0 0.25914329E+03</rscale>
<asrwt>0</asrwt>
<pdfrwt beam="1">  1        1 0.64110661E-01 0.25914329E+03</pdfrwt>
<pdfrwt beam="2">  1       -1 0.61981630E-02 0.25914329E+03</pdfrwt>
<totfact> 0.72416860E+03</totfact>
</mgrwt>
</event>
<event>
 4    1  0.1728870E-004  0.2506016E+03  0.7818608E-02  0.1112925E+00
          3   -1    0    0  501    0  0.00000000000E+00  0.00000000000E+00  0.43751005640E+03  0.43751005640E+03  0.00000000000E+00 0.  1.
         -3   -1    0    0    0  501 -0.00000000000E+00 -0.00000000000E+00 -0.35885554479E+02  0.35885554479E+02  0.00000000000E+00 0.  1.
         25    1    1    2    0    0  0.27400775222E+02 -0.11849468398E+02  0.16260517949E+03  0.20428327582E+03  0.12000000000E+03 0.  0.
         25    1    1    2    0    0 -0.27400775222E+02  0.11849468398E+02  0.23901932244E+03  0.26911233506E+03  0.12000000000E+03 0.  0.
<mgrwt>
<rscale>  0 0.25060160E+03</rscale>
<asrwt>0</asrwt>
<pdfrwt beam="1">  1        3 0.67309236E-01 0.25060160E+03</pdfrwt>
<pdfrwt beam="2">  1       -3 0.55208548E-02 0.25060160E+03</pdfrwt>
<totfact> 0.10600949E+03</totfact>
</mgrwt>
</event>
<event>
 4    1  0.1728870E-004  0.2550656E+03  0.7818608E-02  0.1110145E+00
          2   -1    0    0  501    0  0.00000000000E+00  0.00000000000E+00  0.51507009033E+03  0.51507009033E+03  0.00000000000E+00 0. -1.
         -2   -1    0    0    0  501 -0.00000000000E+00 -0.00000000000E+00 -0.31577477298E+02  0.31577477298E+02  0.00000000000E+00 0. -1.
         25    1    1    2    0    0 -0.38950819607E+02 -0.11185107908E+02  0.27370326326E+03  0.30158870885E+03  0.12000000000E+03 0.  0.
         25    1    1    2    0    0  0.38950819607E+02  0.11185107908E+02  0.20978934977E+03  0.24505885878E+03  0.12000000000E+03 0.  0.
<mgrwt>
<rscale>  0 0.25506559E+03</rscale>
<asrwt>0</asrwt>
<pdfrwt beam="1">  1        2 0.79241546E-01 0.25506559E+03</pdfrwt>
<pdfrwt beam="2">  1       -2 0.48580738E-02 0.25506559E+03</pdfrwt>
<totfact> 0.12190313E+04</totfact>
</mgrwt>
</event>
<event>
 4    1  0.1728870E-004  0.2551052E+03  0.7818608E-02  0.1110120E+00
          1   -1    0    0  501    0  0.00000000000E+00  0.00000000000E+00  0.35008001268E+03  0.35008001268E+03  0.00000000000E+00 0.  1.
         -1   -1    0    0    0  501 -0.00000000000E+00 -0.00000000000E+00 -0.46474127521E+02  0.46474127521E+02  0.00000000000E+00 0.  1.
         25    1    1    2    0    0  0.29522413329E+02  0.28635995587E+02  0.13105960593E+03  0.18239576048E+03  0.12000000000E+03 0.  0.
         25    1    1    2    0    0 -0.29522413329E+02 -0.28635995587E+02  0.17254627922E+03  0.21415837972E+03  0.12000000000E+03 0.  0.
<mgrwt>
<rscale>  0 0.25510518E+03</rscale>
<asrwt>0</asrwt>
<pdfrwt beam="1">  1        1 0.53858462E-01 0.25510518E+03</pdfrwt>
<pdfrwt beam="2">  1       -1 0.71498660E-02 0.25510518E+03</pdfrwt>
<totfact> 0.72816855E+03</totfact>
</mgrwt>
</event>
<event>
 4    1  0.1728870E-004  0.3257096E+03  0.7818608E-02  0.1073051E+00
         -1   -1    0    0    0  501 -0.00000000000E+00  0.00000000000E+00  0.14860488302E+03  0.14860488302E+03  0.00000000000E+00 0. -1.
          1   -1    0    0  501    0  0.00000000000E+00 -0.00000000000E+00 -0.17847118117E+03  0.17847118117E+03  0.00000000000E+00 0. -1.
         25    1    1    2    0    0  0.99226728395E+02  0.41401511354E+02 -0.38731946646E+02  0.16571117181E+03  0.12000000000E+03 0.  0.
         25    1    1    2    0    0 -0.99226728395E+02 -0.41401511354E+02  0.88656484899E+01  0.16136489238E+03  0.12000000000E+03 0.  0.
<mgrwt>
<rscale>  0 0.32570962E+03</rscale>
<asrwt>0</asrwt>
<pdfrwt beam="1">  1        1 0.27457105E-01 0.32570962E+03</pdfrwt>
<pdfrwt beam="2">  1       -1 0.22862290E-01 0.32570962E+03</pdfrwt>
<totfact> 0.27459072E+03</totfact>
</mgrwt>
</event>
<event>
 4    1  0.1728870E-004  0.2684566E+03  0.7818608E-02  0.1102166E+00
         -2   -1    0    0    0  501 -0.00000000000E+00  0.00000000000E+00  0.20038372787E+02  0.20038372787E+02  0.00000000000E+00 0. -1.
          2   -1    0    0  501    0  0.00000000000E+00 -0.00000000000E+00 -0.89913643872E+03  0.89913643872E+03  0.00000000000E+00 0. -1.
         25    1    1    2    0    0 -0.68345504250E+01  0.52808929915E+02 -0.34381762984E+03  0.36802996718E+03  0.12000000000E+03 0.  0.
         25    1    1    2    0    0  0.68345504250E+01 -0.52808929915E+02 -0.53528043610E+03  0.55114484433E+03  0.12000000000E+03 0.  0.
<mgrwt>
<rscale>  0 0.26845656E+03</rscale>
<asrwt>0</asrwt>
<pdfrwt beam="1">  1        2 0.13832862E+00 0.26845656E+03</pdfrwt>
<pdfrwt beam="2">  1       -2 0.30828280E-02 0.26845656E+03</pdfrwt>
<totfact> 0.12319131E+04</totfact>
</mgrwt>
</event>
<event>
 4    1  0.1728870E-004  0.2725000E+03  0.7818608E-02  0.1099857E+00
          1   -1    0    0  501    0  0.00000000000E+00  0.00000000000E+00  0.68003244868E+03  0.68003244868E+03  0.00000000000E+00 0.  1.
         -1   -1    0    0    0  501 -0.00000000000E+00 -0.00000000000E+00 -0.27298796732E+02  0.27298796732E+02  0.00000000000E+00 0.  1.
         25    1    1    2    0    0  0.58762017107E+02 -0.25135317088E+02  0.30325060280E+03  0.33233369813E+03  0.12000000000E+03 0.  0.
         25    1    1    2    0    0 -0.58762017107E+02  0.25135317088E+02  0.34948304916E+03  0.37499754728E+03  0.12000000000E+03 0.  0.
<mgrwt>
<rscale>  0 0.27250004E+03</rscale>
<asrwt>0</asrwt>
<pdfrwt beam="1">  1        1 0.10462036E+00 0.27250004E+03</pdfrwt>
<pdfrwt beam="2">  1       -1 0.41998154E-02 0.27250004E+03</pdfrwt>
<totfact> 0.67024023E+03</totfact>
</mgrwt>
</event>
<event>
 4    1  0.1728870E-004  0.2683431E+03  0.7818608E-02  0.1102232E+00
         -2   -1    0    0    0  501 -0.00000000000E+00  0.00000000000E+00  0.84326228804E+01  0.84326228804E+01  0.00000000000E+00 0. -1.
          2   -1    0    0  501    0  0.00000000000E+00 -0.00000000000E+00 -0.21348053985E+04  0.21348053985E+04  0.00000000000E+00 0. -1.
         25    1    1    2    0    0  0.12287596473E+02 -0.55996828693E+02 -0.92134717627E+03  0.93089593891E+03  0.12000000000E+03 0.  0.
         25    1    1    2    0    0 -0.12287596473E+02  0.55996828693E+02 -0.12050255993E+04  0.12123420825E+04  0.12000000000E+03 0.  0.
<mgrwt>
<rscale>  0 0.26834313E+03</rscale>
<asrwt>0</asrwt>
<pdfrwt beam="1">  1        2 0.32843189E+00 0.26834313E+03</pdfrwt>
<pdfrwt beam="2">  1       -2 0.12973255E-02 0.26834313E+03</pdfrwt>
<totfact> 0.91973611E+03</totfact>
</mgrwt>
</event>
<event>
 4    1  0.1728870E-004  0.3242868E+03  0.7818608E-02  0.1073693E+00
          2   -1    0    0  501    0  0.00000000000E+00  0.00000000000E+00  0.72553694167E+03  0.72553694167E+03  0.00000000000E+00 0.  1.
         -2   -1    0    0    0  501 -0.00000000000E+00 -0.00000000000E+00 -0.36235901623E+02  0.36235901623E+02  0.00000000000E+00 0.  1.
         25    1    1    2    0    0  0.47372136679E+02  0.92713679686E+02  0.26851235874E+03  0.31199171869E+03  0.12000000000E+03 0.  0.
         25    1    1    2    0    0 -0.47372136679E+02 -0.92713679686E+02  0.42078868131E+03  0.44978112461E+03  0.12000000000E+03 0.  0.
<mgrwt>
<rscale>  0 0.32428682E+03</rscale>
<asrwt>0</asrwt>
<pdfrwt beam="1">  1        2 0.11162106E+00 0.32428682E+03</pdfrwt>
<pdfrwt beam="2">  1       -2 0.55747546E-02 0.32428682E+03</pdfrwt>
<totfact> 0.66674929E+03</totfact>
</mgrwt>
</event>
<event>
 4    1  0.1728870E-004  0.2715138E+03  0.7818608E-02  0.1100416E+00
          1   -1    0    0  501    0  0.00000000000E+00  0.00000000000E+00  0.15612823755E+02  0.15612823755E+02  0.00000000000E+00 0. -1.
         -1   -1    0    0    0  501 -0.00000000000E+00 -0.00000000000E+00 -0.11804360042E+04  0.11804360042E+04  0.00000000000E+00 0. -1.
         25    1    1    2    0    0  0.40962561883E+02 -0.13439528875E+02 -0.37714155060E+03  0.39811342806E+03  0.12000000000E+03 0.  0.
         25    1    1    2    0    0 -0.40962561883E+02  0.13439528875E+02 -0.78768162984E+03  0.79793539989E+03  0.12000000000E+03 0.  0.
<mgrwt>
<rscale>  0 0.27151382E+03</rscale>
<asrwt>0</asrwt>
<pdfrwt beam="1">  1        1 0.24019729E-02 0.27151382E+03</pdfrwt>
<pdfrwt beam="2">  1       -1 0.18160554E+00 0.27151382E+03</pdfrwt>
<totfact> 0.10397204E+03</totfact>
</mgrwt>
</event>
<event>
 4    1  0.1728870E-004  0.2769824E+03  0.7818608E-02  0.1097349E+00
          2   -1    0    0  501    0  0.00000000000E+00  0.00000000000E+00  0.43744106121E+03  0.43744106121E+03  0.00000000000E+00 0.  1.
         -2   -1    0    0    0  501 -0.00000000000E+00 -0.00000000000E+00 -0.43845480580E+02  0.43845480580E+02  0.00000000000E+00 0.  1.
         25    1    1    2    0    0  0.22568009976E+02  0.24711419759E+02  0.30191718010E+03  0.32660978703E+03  0.12000000000E+03 0.  0.
         25    1    1    2    0    0 -0.22568009976E+02 -0.24711419759E+02  0.91678400531E+02  0.15467675477E+03  0.12000000000E+03 0.  0.
<mgrwt>
<rscale>  0 0.27698241E+03</rscale>
<asrwt>0</asrwt>
<pdfrwt beam="1">  1        2 0.67298622E-01 0.27698241E+03</pdfrwt>
<pdfrwt beam="2">  1       -2 0.67454589E-02 0.27698241E+03</pdfrwt>
<totfact> 0.88743270E+03</totfact>
</mgrwt>
</event>
<event>
 4    1  0.1728870E-004  0.2748537E+03  0.7818608E-02  0.1098533E+00
         -2   -1    0    0    0  501 -0.00000000000E+00  0.00000000000E+00  0.86972032037E+01  0.86972032037E+01  0.00000000000E+00 0.  1.
          2   -1    0    0  501    0  0.00000000000E+00 -0.00000000000E+00 -0.21715190008E+04  0.21715190008E+04  0.00000000000E+00 0.  1.
         25    1    1    2    0    0  0.34368609941E+01  0.63734437147E+02 -0.92035409581E+03  0.93033625758E+03  0.12000000000E+03 0.  0.
         25    1    1    2    0    0 -0.34368609941E+01 -0.63734437147E+02 -0.12424677018E+04  0.12498799464E+04  0.12000000000E+03 0.  0.
<mgrwt>
<rscale>  0 0.27485372E+03</rscale>
<asrwt>0</asrwt>
<pdfrwt beam="1">  1        2 0.33408040E+00 0.27485372E+03</pdfrwt>
<pdfrwt beam="2">  1       -2 0.13380290E-02 0.27485372E+03</pdfrwt>
<totfact> 0.84081080E+03</totfact>
</mgrwt>
</event>
<event>
 4    1  0.1728870E-004  0.2608248E+03  0.7818608E-02  0.1106649E+00
         -2   -1    0    0    0  501 -0.00000000000E+00  0.00000000000E+00  0.29023618089E+02  0.29023618089E+02  0.00000000000E+00 0. -1.
          2   -1    0    0  501    0  0.00000000000E+00 -0.00000000000E+00 -0.58598450033E+03  0.58598450033E+03  0.00000000000E+00 0. -1.
         25    1    1    2    0    0 -0.17845290320E+02  0.47774244376E+02 -0.27244231471E+03  0.30203583837E+03  0.12000000000E+03 0.  0.
         25    1    1    2    0    0  0.17845290320E+02 -0.47774244376E+02 -0.28451856753E+03  0.31297228005E+03  0.12000000000E+03 0.  0.
<mgrwt>
<rscale>  0 0.26082477E+03</rscale>
<asrwt>0</asrwt>
<pdfrwt beam="1">  1        2 0.90151452E-01 0.26082477E+03</pdfrwt>
<pdfrwt beam="2">  1       -2 0.44651725E-02 0.26082477E+03</pdfrwt>
<totfact> 0.11971862E+04</totfact>
</mgrwt>
</event>
<event>
 4    1  0.1728870E-004  0.2583658E+03  0.7818608E-02  0.1108129E+00
         -1   -1    0    0    0  501 -0.00000000000E+00  0.00000000000E+00  0.29714894475E+02  0.29714894475E+02  0.00000000000E+00 0.  1.
          1   -1    0    0  501    0  0.00000000000E+00 -0.00000000000E+00 -0.56161144344E+03  0.56161144344E+03  0.00000000000E+00 0.  1.
         25    1    1    2    0    0 -0.47517916580E+02 -0.47639931945E+01 -0.27224817430E+03  0.30132991295E+03  0.12000000000E+03 0.  0.
         25    1    1    2    0    0  0.47517916580E+02  0.47639931945E+01 -0.25964837466E+03  0.28999642496E+03  0.12000000000E+03 0.  0.
<mgrwt>
<rscale>  0 0.25836582E+03</rscale>
<asrwt>0</asrwt>
<pdfrwt beam="1">  1        1 0.86401751E-01 0.25836582E+03</pdfrwt>
<pdfrwt beam="2">  1       -1 0.45715227E-02 0.25836582E+03</pdfrwt>
<totfact> 0.77088003E+03</totfact>
</mgrwt>
</event>
<event>
 4    1  0.1728870E-004  0.3133341E+03  0.7818608E-02  0.1078759E+00
         -2   -1    0    0    0  501 -0.00000000000E+00  0.00000000000E+00  0.84215185435E+01  0.84215185435E+01  0.00000000000E+00 0.  1.
          2   -1    0    0  501    0  0.00000000000E+00 -0.00000000000E+00 -0.29145055236E+04  0.29145055236E+04  0.00000000000E+00 0.  1.
         25    1    1    2    0    0 -0.10863484070E+02  0.92898836039E+02 -0.18016264364E+04  0.18080392765E+04  0.12000000000E+03 0.  0.
         25    1    1    2    0    0  0.10863484070E+02 -0.92898836039E+02 -0.11044575686E+04  0.11148877656E+04  0.12000000000E+03 0.  0.
<mgrwt>
<rscale>  0 0.31333409E+03</rscale>
<asrwt>0</asrwt>
<pdfrwt beam="1">  1        2 0.44838529E+00 0.31333409E+03</pdfrwt>
<pdfrwt beam="2">  1       -2 0.12956187E-02 0.31333409E+03</pdfrwt>
<totfact> 0.34094032E+03</totfact>
</mgrwt>
</event>
<event>
 4    1  0.1728870E-004  0.2766059E+03  0.7818608E-02  0.1097557E+00
          2   -1    0    0  501    0  0.00000000000E+00  0.00000000000E+00  0.65405909417E+02  0.65405909417E+02  0.00000000000E+00 0. -1.
         -2   -1    0    0    0  501 -0.00000000000E+00 -0.00000000000E+00 -0.29244604154E+03  0.29244604154E+03  0.00000000000E+00 0. -1.
         25    1    1    2    0    0 -0.41360020676E+02  0.54711836762E+02 -0.11981333224E+03  0.18291875512E+03  0.12000000000E+03 0.  0.
         25    1    1    2    0    0  0.41360020676E+02 -0.54711836762E+02 -0.10722679988E+03  0.17493319583E+03  0.12000000000E+03 0.  0.
<mgrwt>
<rscale>  0 0.27660585E+03</rscale>
<asrwt>0</asrwt>
<pdfrwt beam="1">  1        2 0.10062447E-01 0.27660585E+03</pdfrwt>
<pdfrwt beam="2">  1       -2 0.44991699E-01 0.27660585E+03</pdfrwt>
<totfact> 0.30017020E+03</totfact>
</mgrwt>
</event>
<event>
 4    1  0.1728870E-004  0.2456276E+03  0.7818608E-02  0.1116100E+00
         -2   -1    0    0    0  501 -0.00000000000E+00  0.00000000000E+00  0.58851138797E+02  0.58851138797E+02  0.00000000000E+00 0.  1.
          2   -1    0    0  501    0  0.00000000000E+00 -0.00000000000E+00 -0.25629468827E+03  0.25629468827E+03  0.00000000000E+00 0.  1.
         25    1    1    2    0    0 -0.78054787220E+01 -0.23500791134E+02 -0.10945796780E+03  0.16429929822E+03  0.12000000000E+03 0.  0.
         25    1    1    2    0    0  0.78054787220E+01  0.23500791134E+02 -0.87985581677E+02  0.15084652885E+03  0.12000000000E+03 0.  0.
<mgrwt>
<rscale>  0 0.24562764E+03</rscale>
<asrwt>0</asrwt>
<pdfrwt beam="1">  1        2 0.39429953E-01 0.24562764E+03</pdfrwt>
<pdfrwt beam="2">  1       -2 0.90540212E-02 0.24562764E+03</pdfrwt>
<totfact> 0.99364950E+03</totfact>
</mgrwt>
</event>
<event>
 4    1  0.1728870E-004  0.3766286E+03  0.7818608E-02  0.1052187E+00
         -2   -1    0    0    0  501 -0.00000000000E+00  0.00000000000E+00  0.88852327642E+01  0.88852327642E+01  0.00000000000E+00 0. -1.
          2   -1    0    0  501    0  0.00000000000E+00 -0.00000000000E+00 -0.39911473980E+04  0.39911473980E+04  0.00000000000E+00 0. -1.
         25    1    1    2    0    0  0.92199495153E+02  0.11202150436E+03 -0.20289937096E+04  0.20377107346E+04  0.12000000000E+03 0.  0.
         25    1    1    2    0    0 -0.92199495153E+02 -0.11202150436E+03 -0.19532684556E+04  0.19623218961E+04  0.12000000000E+03 0.  0.
<mgrwt>
<rscale>  0 0.37662859E+03</rscale>
<asrwt>0</asrwt>
<pdfrwt beam="1">  1        2 0.61402274E+00 0.37662859E+03</pdfrwt>
<pdfrwt beam="2">  1       -2 0.13669587E-02 0.37662859E+03</pdfrwt>
<totfact> 0.59940262E+02</totfact>
</mgrwt>
</event>
<event>
 4    1  0.1728870E-004  0.2824257E+03  0.7818608E-02  0.1094371E+00
         -2   -1    0    0    0  501 -0.00000000000E+00  0.00000000000E+00  0.86147739004E+02  0.86147739004E+02  0.00000000000E+00 0. -1.
          2   -1    0    0  501    0  0.00000000000E+00 -0.00000000000E+00 -0.23147531878E+03  0.23147531878E+03  0.00000000000E+00 0. -1.
         25    1    1    2    0    0 -0.13077805353E+01  0.72123944552E+02 -0.52003057641E+02  0.14935826616E+03  0.12000000000E+03 0.  0.
         25    1    1    2    0    0  0.13077805353E+01 -0.72123944552E+02 -0.93324522138E+02  0.16826479162E+03  0.12000000000E+03 0.  0.
<mgrwt>
<rscale>  0 0.28242574E+03</rscale>
<asrwt>0</asrwt>
<pdfrwt beam="1">  1        2 0.35611587E-01 0.28242574E+03</pdfrwt>
<pdfrwt beam="2">  1       -2 0.13253499E-01 0.28242574E+03</pdfrwt>
<totfact> 0.60615174E+03</totfact>
</mgrwt>
</event>
<event>
 4    1  0.1728870E-004  0.4061640E+03  0.7818608E-02  0.1041666E+00
         -2   -1    0    0    0  501 -0.00000000000E+00  0.00000000000E+00  0.85277325573E+02  0.85277325573E+02  0.00000000000E+00 0.  1.
          2   -1    0    0  501    0  0.00000000000E+00 -0.00000000000E+00 -0.48362572814E+03  0.48362572814E+03  0.00000000000E+00 0.  1.
         25    1    1    2    0    0  0.95863236360E+02  0.74850553584E+02 -0.35292921462E+03  0.39211145863E+03  0.12000000000E+03 0.  0.
         25    1    1    2    0    0 -0.95863236360E+02 -0.74850553584E+02 -0.45419187944E+02  0.17679159508E+03  0.12000000000E+03 0.  0.
<mgrwt>
<rscale>  0 0.40616405E+03</rscale>
<asrwt>0</asrwt>
<pdfrwt beam="1">  1        2 0.74403957E-01 0.40616405E+03</pdfrwt>
<pdfrwt beam="2">  1       -2 0.13119589E-01 0.40616405E+03</pdfrwt>
<totfact> 0.27785368E+03</totfact>
</mgrwt>
</event>
<event>
 4    1  0.1728870E-004  0.3374589E+03  0.7818608E-02  0.1067883E+00
          2   -1    0    0  501    0  0.00000000000E+00  0.00000000000E+00  0.14577111807E+04  0.14577111807E+04  0.00000000000E+00 0.  1.
         -2   -1    0    0    0  501 -0.00000000000E+00 -0.00000000000E+00 -0.19530367161E+02  0.19530367161E+02  0.00000000000E+00 0.  1.
         25    1    1    2    0    0 -0.25817145779E+02 -0.47062066024E+02  0.11821235413E+04  0.11894105389E+04  0.12000000000E+03 0.  0.
         25    1    1    2    0    0  0.25817145779E+02  0.47062066024E+02  0.25605727228E+03  0.28783100904E+03  0.12000000000E+03 0.  0.
<mgrwt>
<rscale>  0 0.33745894E+03</rscale>
<asrwt>0</asrwt>
<pdfrwt beam="1">  1        2 0.22426317E+00 0.33745894E+03</pdfrwt>
<pdfrwt beam="2">  1       -2 0.30046730E-02 0.33745894E+03</pdfrwt>
<totfact> 0.60935591E+03</totfact>
</mgrwt>
</event>
<event>
 4    1  0.1728870E-004  0.3534188E+03  0.7818608E-02  0.1061221E+00
         -1   -1    0    0    0  501 -0.00000000000E+00  0.00000000000E+00  0.33249649475E+02  0.33249649475E+02  0.00000000000E+00 0.  1.
          1   -1    0    0  501    0  0.00000000000E+00 -0.00000000000E+00 -0.93914426490E+03  0.93914426490E+03  0.00000000000E+00 0.  1.
         25    1    1    2    0    0  0.42852182718E+02  0.15862766006E+02 -0.78696998867E+03  0.79737676163E+03  0.12000000000E+03 0.  0.
         25    1    1    2    0    0 -0.42852182718E+02 -0.15862766006E+02 -0.11892462676E+03  0.17501715275E+03  0.12000000000E+03 0.  0.
<mgrwt>
<rscale>  0 0.35341883E+03</rscale>
<asrwt>0</asrwt>
<pdfrwt beam="1">  1        1 0.14448374E+00 0.35341883E+03</pdfrwt>
<pdfrwt beam="2">  1       -1 0.51153305E-02 0.35341883E+03</pdfrwt>
<totfact> 0.30347092E+03</totfact>
</mgrwt>
</event>
<event>
 4    1  0.1728870E-004  0.2502223E+03  0.7818608E-02  0.1113164E+00
         -2   -1    0    0    0  501 -0.00000000000E+00  0.00000000000E+00  0.94455706891E+01  0.94455706891E+01  0.00000000000E+00 0. -1.
          2   -1    0    0  501    0  0.00000000000E+00 -0.00000000000E+00 -0.16571579209E+04  0.16571579209E+04  0.00000000000E+00 0. -1.
         25    1    1    2    0    0 -0.16067368263E+02  0.20946529650E+01 -0.10334505536E+04  0.10405203480E+04  0.12000000000E+03 0.  0.
         25    1    1    2    0    0  0.16067368263E+02 -0.20946529650E+01 -0.61426179660E+03  0.62608314357E+03  0.12000000000E+03 0.  0.
<mgrwt>
<rscale>  0 0.25022232E+03</rscale>
<asrwt>0</asrwt>
<pdfrwt beam="1">  1        2 0.25494722E+00 0.25022232E+03</pdfrwt>
<pdfrwt beam="2">  1       -2 0.14531656E-02 0.25022232E+03</pdfrwt>
<totfact> 0.13869844E+04</totfact>
</mgrwt>
</event>
<event>
 4    1  0.1728870E-004  0.2640319E+03  0.7818608E-02  0.1104745E+00
         -1   -1    0    0    0  501 -0.00000000000E+00  0.00000000000E+00  0.67860163087E+01  0.67860163087E+01  0.00000000000E+00 0. -1.
          1   -1    0    0  501    0  0.00000000000E+00 -0.00000000000E+00 -0.25682540396E+04  0.25682540396E+04  0.00000000000E+00 0. -1.
         25    1    1    2    0    0 -0.18203566010E+02 -0.35382463779E+02 -0.91001040420E+03  0.91875036017E+03  0.12000000000E+03 0.  0.
         25    1    1    2    0    0  0.18203566010E+02  0.35382463779E+02 -0.16514576191E+04  0.16562896958E+04  0.12000000000E+03 0.  0.
<mgrwt>
<rscale>  0 0.26403192E+03</rscale>
<asrwt>0</asrwt>
<pdfrwt beam="1">  1        1 0.39511560E+00 0.26403192E+03</pdfrwt>
<pdfrwt beam="2">  1       -1 0.10440036E-02 0.26403192E+03</pdfrwt>
<totfact> 0.25248402E+03</totfact>
</mgrwt>
</event>
<event>
 4    1  0.1728870E-004  0.2674775E+03  0.7818608E-02  0.1102732E+00
         -2   -1    0    0    0  501 -0.00000000000E+00  0.00000000000E+00  0.95801468948E+02  0.95801468948E+02  0.00000000000E+00 0. -1.
          2   -1    0    0  501    0  0.00000000000E+00 -0.00000000000E+00 -0.18669910059E+03  0.18669910059E+03  0.00000000000E+00 0. -1.
         25    1    1    2    0    0  0.44627957836E+02  0.38655810312E+02 -0.45080221622E+02  0.14113168557E+03  0.12000000000E+03 0.  0.
         25    1    1    2    0    0 -0.44627957836E+02 -0.38655810312E+02 -0.45817410015E+02  0.14136888396E+03  0.12000000000E+03 0.  0.
<mgrwt>
<rscale>  0 0.26747746E+03</rscale>
<asrwt>0</asrwt>
<pdfrwt beam="1">  1        2 0.28722938E-01 0.26747746E+03</pdfrwt>
<pdfrwt beam="2">  1       -2 0.14738688E-01 0.26747746E+03</pdfrwt>
<totfact> 0.64279705E+03</totfact>
</mgrwt>
</event>
<event>
 4    1  0.1728870E-004  0.2780446E+03  0.7818608E-02  0.1096762E+00
         -1   -1    0    0    0  501 -0.00000000000E+00  0.00000000000E+00  0.68026191906E+02  0.68026191906E+02  0.00000000000E+00 0.  1.
          1   -1    0    0  501    0  0.00000000000E+00 -0.00000000000E+00 -0.28411413723E+03  0.28411413723E+03  0.00000000000E+00 0.  1.
         25    1    1    2    0    0  0.73231437996E+01  0.51781061216E+02 -0.48744494393E+02  0.13968153947E+03  0.12000000000E+03 0.  0.
         25    1    1    2    0    0 -0.73231437996E+01 -0.51781061216E+02 -0.16734345093E+03  0.21245878966E+03  0.12000000000E+03 0.  0.
<mgrwt>
<rscale>  0 0.27804462E+03</rscale>
<asrwt>0</asrwt>
<pdfrwt beam="1">  1        1 0.43709866E-01 0.27804462E+03</pdfrwt>
<pdfrwt beam="2">  1       -1 0.10465568E-01 0.27804462E+03</pdfrwt>
<totfact> 0.52984580E+03</totfact>
</mgrwt>
</event>
<event>
 4    1  0.1728870E-004  0.3432933E+03  0.7818608E-02  0.1065402E+00
          1   -1    0    0  501    0  0.00000000000E+00  0.00000000000E+00  0.13110938629E+03  0.13110938629E+03  0.00000000000E+00 0. -1.
         -1   -1    0    0    0  501 -0.00000000000E+00 -0.00000000000E+00 -0.22471747497E+03  0.22471747497E+03  0.00000000000E+00 0. -1.
         25    1    1    2    0    0 -0.26977533819E+02 -0.91835609206E+02  0.32818557548E+02  0.15696695247E+03  0.12000000000E+03 0.  0.
         25    1    1    2    0    0  0.26977533819E+02  0.91835609206E+02 -0.12642664623E+03  0.19885990879E+03  0.12000000000E+03 0.  0.
<mgrwt>
<rscale>  0 0.34329329E+03</rscale>
<asrwt>0</asrwt>
<pdfrwt beam="1">  1        1 0.20170675E-01 0.34329329E+03</pdfrwt>
<pdfrwt beam="2">  1       -1 0.34571919E-01 0.34329329E+03</pdfrwt>
<totfact> 0.20245801E+03</totfact>
</mgrwt>
</event>
<event>
 4    1  0.1728870E-004  0.3833632E+03  0.7818608E-02  0.1049698E+00
         -1   -1    0    0    0  501 -0.00000000000E+00  0.00000000000E+00  0.71871782783E+03  0.71871782783E+03  0.00000000000E+00 0. -1.
          1   -1    0    0  501    0  0.00000000000E+00 -0.00000000000E+00 -0.51121356982E+02  0.51121356982E+02  0.00000000000E+00 0. -1.
         25    1    1    2    0    0 -0.67119489685E+02 -0.49924683854E+02  0.85047944971E+02  0.16920594817E+03  0.12000000000E+03 0.  0.
         25    1    1    2    0    0  0.67119489685E+02  0.49924683854E+02  0.58254852587E+03  0.60063323664E+03  0.12000000000E+03 0.  0.
<mgrwt>
<rscale>  0 0.38336317E+03</rscale>
<asrwt>0</asrwt>
<pdfrwt beam="1">  1        1 0.78648247E-02 0.38336317E+03</pdfrwt>
<pdfrwt beam="2">  1       -1 0.11057197E+00 0.38336317E+03</pdfrwt>
<totfact> 0.71483980E+02</totfact>
</mgrwt>
</event>
<event>
 4    1  0.1728870E-004  0.2846364E+03  0.7818608E-02  0.1093183E+00
          1   -1    0    0  501    0  0.00000000000E+00  0.00000000000E+00  0.32849925331E+03  0.32849925331E+03  0.00000000000E+00 0. -1.
         -1   -1    0    0    0  501 -0.00000000000E+00 -0.00000000000E+00 -0.61657587071E+02  0.61657587071E+02  0.00000000000E+00 0. -1.
         25    1    1    2    0    0  0.20539516581E+02  0.58539023438E+02  0.72031817122E+02  0.15309236325E+03  0.12000000000E+03 0.  0.
         25    1    1    2    0    0 -0.20539516581E+02 -0.58539023438E+02  0.19480984912E+03  0.23706447714E+03  0.12000000000E+03 0.  0.
<mgrwt>
<rscale>  0 0.28463641E+03</rscale>
<asrwt>0</asrwt>
<pdfrwt beam="1">  1        1 0.50538346E-01 0.28463641E+03</pdfrwt>
<pdfrwt beam="2">  1       -1 0.94857828E-02 0.28463641E+03</pdfrwt>
<totfact> 0.51409051E+03</totfact>
</mgrwt>
</event>
<event>
 4    1  0.1728870E-004  0.3124563E+03  0.7818608E-02  0.1079174E+00
         -2   -1    0    0    0  501 -0.00000000000E+00  0.00000000000E+00  0.15553977712E+03  0.15553977712E+03  0.00000000000E+00 0.  1.
          2   -1    0    0  501    0  0.00000000000E+00 -0.00000000000E+00 -0.15691955665E+03  0.15691955665E+03  0.00000000000E+00 0.  1.
         25    1    1    2    0    0  0.86854186918E+02  0.38736600473E+02  0.30343602548E+02  0.15609262704E+03  0.12000000000E+03 0.  0.
         25    1    1    2    0    0 -0.86854186918E+02 -0.38736600473E+02 -0.31723382073E+02  0.15636670672E+03  0.12000000000E+03 0.  0.
<mgrwt>
<rscale>  0 0.31245629E+03</rscale>
<asrwt>0</asrwt>
<pdfrwt beam="1">  1        2 0.24141470E-01 0.31245629E+03</pdfrwt>
<pdfrwt beam="2">  1       -2 0.23929196E-01 0.31245629E+03</pdfrwt>
<totfact> 0.34384824E+03</totfact>
</mgrwt>
</event>
<event>
 4    1  0.1728870E-004  0.3518900E+03  0.7818608E-02  0.1061842E+00
          2   -1    0    0  501    0  0.00000000000E+00  0.00000000000E+00  0.10470418959E+04  0.10470418959E+04  0.00000000000E+00 0.  1.
         -2   -1    0    0    0  501 -0.00000000000E+00 -0.00000000000E+00 -0.29565804226E+02  0.29565804226E+02  0.00000000000E+00 0.  1.
         25    1    1    2    0    0 -0.21767804329E+02 -0.73201877560E+02  0.82557421337E+03  0.83773810584E+03  0.12000000000E+03 0.  0.
         25    1    1    2    0    0  0.21767804329E+02  0.73201877560E+02  0.19190187833E+03  0.23886959432E+03  0.12000000000E+03 0.  0.
<mgrwt>
<rscale>  0 0.35188996E+03</rscale>
<asrwt>0</asrwt>
<pdfrwt beam="1">  1        2 0.16108334E+00 0.35188996E+03</pdfrwt>
<pdfrwt beam="2">  1       -2 0.45485861E-02 0.35188996E+03</pdfrwt>
<totfact> 0.55809525E+03</totfact>
</mgrwt>
</event>
<event>
 4    1  0.1728870E-004  0.2447263E+03  0.7818608E-02  0.1116684E+00
         -1   -1    0    0    0  501 -0.00000000000E+00  0.00000000000E+00  0.17801262454E+04  0.17801262454E+04  0.00000000000E+00 0. -1.
          1   -1    0    0  501    0  0.00000000000E+00 -0.00000000000E+00 -0.84110572200E+01  0.84110572200E+01  0.00000000000E+00 0. -1.
         25    1    1    2    0    0  0.15494126365E+02 -0.21413899407E+01  0.10182350239E+04  0.10254010032E+04  0.12000000000E+03 0.  0.
         25    1    1    2    0    0 -0.15494126365E+02  0.21413899407E+01  0.75348016430E+03  0.76313629942E+03  0.12000000000E+03 0.  0.
<mgrwt>
<rscale>  0 0.24472633E+03</rscale>
<asrwt>0</asrwt>
<pdfrwt beam="1">  1        1 0.12940102E-02 0.24472633E+03</pdfrwt>
<pdfrwt beam="2">  1       -1 0.27386528E+00 0.24472633E+03</pdfrwt>
<totfact> 0.63078744E+02</totfact>
</mgrwt>
</event>
<event>
 4    1  0.1728870E-004  0.2700743E+03  0.7818608E-02  0.1101237E+00
         -2   -1    0    0    0  501 -0.00000000000E+00  0.00000000000E+00  0.16741616706E+02  0.16741616706E+02  0.00000000000E+00 0.  1.
          2   -1    0    0  501    0  0.00000000000E+00 -0.00000000000E+00 -0.10892038134E+04  0.10892038134E+04  0.00000000000E+00 0.  1.
         25    1    1    2    0    0  0.29915759657E+02 -0.12071942636E+02 -0.31976459778E+03  0.34305988176E+03  0.12000000000E+03 0.  0.
         25    1    1    2    0    0 -0.29915759657E+02  0.12071942636E+02 -0.75269759891E+03  0.76288554835E+03  0.12000000000E+03 0.  0.
<mgrwt>
<rscale>  0 0.27007431E+03</rscale>
<asrwt>0</asrwt>
<pdfrwt beam="1">  1        2 0.16756978E+00 0.27007431E+03</pdfrwt>
<pdfrwt beam="2">  1       -2 0.25756339E-02 0.27007431E+03</pdfrwt>
<totfact> 0.12293016E+04</totfact>
</mgrwt>
</event>
<event>
 4    1  0.1728870E-004  0.3176865E+03  0.7818608E-02  0.1076719E+00
          2   -1    0    0  501    0  0.00000000000E+00  0.00000000000E+00  0.86473342396E+03  0.86473342396E+03  0.00000000000E+00 0. -1.
         -2   -1    0    0    0  501 -0.00000000000E+00 -0.00000000000E+00 -0.29177989971E+02  0.29177989971E+02  0.00000000000E+00 0. -1.
         25    1    1    2    0    0 -0.85231163510E+02  0.39604251721E+02  0.29199242967E+03  0.32938188622E+03  0.12000000000E+03 0.  0.
         25    1    1    2    0    0  0.85231163510E+02 -0.39604251721E+02  0.54356300432E+03  0.56452952771E+03  0.12000000000E+03 0.  0.
<mgrwt>
<rscale>  0 0.31768653E+03</rscale>
<asrwt>0</asrwt>
<pdfrwt beam="1">  1        2 0.13303589E+00 0.31768653E+03</pdfrwt>
<pdfrwt beam="2">  1       -2 0.44889222E-02 0.31768653E+03</pdfrwt>
<totfact> 0.74127194E+03</totfact>
</mgrwt>
</event>
<event>
 4    1  0.1728870E-004  0.3553250E+03  0.7818608E-02  0.1060450E+00
          1   -1    0    0  501    0  0.00000000000E+00  0.00000000000E+00  0.56886214909E+03  0.56886214909E+03  0.00000000000E+00 0.  1.
         -1   -1    0    0    0  501 -0.00000000000E+00 -0.00000000000E+00 -0.55486142248E+02  0.55486142248E+02  0.00000000000E+00 0.  1.
         25    1    1    2    0    0  0.30070074251E+02  0.34821212140E+02  0.41147163595E+02  0.13494374847E+03  0.12000000000E+03 0.  0.
         25    1    1    2    0    0 -0.30070074251E+02 -0.34821212140E+02  0.47222884325E+03  0.48940454286E+03  0.12000000000E+03 0.  0.
<mgrwt>
<rscale>  0 0.35532501E+03</rscale>
<asrwt>0</asrwt>
<pdfrwt beam="1">  1        1 0.87517250E-01 0.35532501E+03</pdfrwt>
<pdfrwt beam="2">  1       -1 0.85363300E-02 0.35532501E+03</pdfrwt>
<totfact> 0.29604781E+03</totfact>
</mgrwt>
</event>
<event>
 4    1  0.1728870E-004  0.3055080E+03  0.7818608E-02  0.1082519E+00
         -2   -1    0    0    0  501 -0.00000000000E+00  0.00000000000E+00  0.12282580619E+03  0.12282580619E+03  0.00000000000E+00 0.  1.
          2   -1    0    0  501    0  0.00000000000E+00 -0.00000000000E+00 -0.18997455732E+03  0.18997455732E+03  0.00000000000E+00 0.  1.
         25    1    1    2    0    0  0.60530017456E+02  0.57206444658E+02 -0.79332510134E+02  0.16622306545E+03  0.12000000000E+03 0.  0.
         25    1    1    2    0    0 -0.60530017456E+02 -0.57206444658E+02  0.12183759007E+02  0.14657729806E+03  0.12000000000E+03 0.  0.
<mgrwt>
<rscale>  0 0.30550796E+03</rscale>
<asrwt>0</asrwt>
<pdfrwt beam="1">  1        2 0.29226855E-01 0.30550796E+03</pdfrwt>
<pdfrwt beam="2">  1       -2 0.18896278E-01 0.30550796E+03</pdfrwt>
<totfact> 0.41779019E+03</totfact>
</mgrwt>
</event>
<event>
 4    1  0.1728870E-004  0.2686988E+03  0.7818608E-02  0.1102027E+00
         -1   -1    0    0    0  501 -0.00000000000E+00  0.00000000000E+00  0.32266344378E+03  0.32266344378E+03  0.00000000000E+00 0.  1.
          1   -1    0    0  501    0  0.00000000000E+00 -0.00000000000E+00 -0.55939891664E+02  0.55939891664E+02  0.00000000000E+00 0.  1.
         25    1    1    2    0    0 -0.56820600314E+02 -0.20494451075E+02  0.13487603181E+03  0.19036845091E+03  0.12000000000E+03 0.  0.
         25    1    1    2    0    0  0.56820600314E+02  0.20494451075E+02  0.13184752031E+03  0.18823488454E+03  0.12000000000E+03 0.  0.
<mgrwt>
<rscale>  0 0.26869878E+03</rscale>
<asrwt>0</asrwt>
<pdfrwt beam="1">  1        1 0.86061374E-02 0.26869878E+03</pdfrwt>
<pdfrwt beam="2">  1       -1 0.49640529E-01 0.26869878E+03</pdfrwt>
<totfact> 0.32604796E+03</totfact>
</mgrwt>
</event>
<event>
 4    1  0.1728870E-004  0.2494495E+03  0.7818608E-02  0.1113653E+00
         -3   -1    0    0    0  501 -0.00000000000E+00  0.00000000000E+00  0.20563629571E+03  0.20563629571E+03  0.00000000000E+00 0.  1.
          3   -1    0    0  501    0  0.00000000000E+00 -0.00000000000E+00 -0.75649391700E+02  0.75649391700E+02  0.00000000000E+00 0.  1.
         25    1    1    2    0    0 -0.22455114449E+02 -0.25277387578E+02  0.60914906274E+02  0.13875807830E+03  0.12000000000E+03 0.  0.
         25    1    1    2    0    0  0.22455114449E+02  0.25277387578E+02  0.69071997740E+02  0.14252760911E+03  0.12000000000E+03 0.  0.
<mgrwt>
<rscale>  0 0.24944948E+03</rscale>
<asrwt>0</asrwt>
<pdfrwt beam="1">  1        3 0.11638368E-01 0.24944948E+03</pdfrwt>
<pdfrwt beam="2">  1       -3 0.31636353E-01 0.24944948E+03</pdfrwt>
<totfact> 0.13993084E+03</totfact>
</mgrwt>
</event>
<event>
 4    1  0.1728870E-004  0.2645007E+03  0.7818608E-02  0.1104469E+00
         -2   -1    0    0    0  501 -0.00000000000E+00  0.00000000000E+00  0.86442977270E+01  0.86442977270E+01  0.00000000000E+00 0. -1.
          2   -1    0    0  501    0  0.00000000000E+00 -0.00000000000E+00 -0.20233177360E+04  0.20233177360E+04  0.00000000000E+00 0. -1.
         25    1    1    2    0    0 -0.35499777467E+02  0.22981900340E+02 -0.73016176824E+03  0.74116436081E+03  0.12000000000E+03 0.  0.
         25    1    1    2    0    0  0.35499777467E+02 -0.22981900340E+02 -0.12845116701E+04  0.12907976729E+04  0.12000000000E+03 0.  0.
<mgrwt>
<rscale>  0 0.26450074E+03</rscale>
<asrwt>0</asrwt>
<pdfrwt beam="1">  1        2 0.31128002E+00 0.26450074E+03</pdfrwt>
<pdfrwt beam="2">  1       -2 0.13298904E-02 0.26450074E+03</pdfrwt>
<totfact> 0.10155332E+04</totfact>
</mgrwt>
</event>
<event>
 4    1  0.1728870E-004  0.2929653E+03  0.7818608E-02  0.1088811E+00
          2   -1    0    0  501    0  0.00000000000E+00  0.00000000000E+00  0.22531307806E+04  0.22531307806E+04  0.00000000000E+00 0.  1.
         -2   -1    0    0    0  501 -0.00000000000E+00 -0.00000000000E+00 -0.95232640951E+01  0.95232640951E+01  0.00000000000E+00 0.  1.
         25    1    1    2    0    0  0.70042649956E+02 -0.46355131010E+02  0.11098676446E+04  0.11194913843E+04  0.12000000000E+03 0.  0.
         25    1    1    2    0    0 -0.70042649956E+02  0.46355131010E+02  0.11337398719E+04  0.11431626604E+04  0.12000000000E+03 0.  0.
<mgrwt>
<rscale>  0 0.29296525E+03</rscale>
<asrwt>0</asrwt>
<pdfrwt beam="1">  1        2 0.34663508E+00 0.29296525E+03</pdfrwt>
<pdfrwt beam="2">  1       -2 0.14651193E-02 0.29296525E+03</pdfrwt>
<totfact> 0.66622651E+03</totfact>
</mgrwt>
</event>
<event>
 4    1  0.1728870E-004  0.2652535E+03  0.7818608E-02  0.1104027E+00
          2   -1    0    0  501    0  0.00000000000E+00  0.00000000000E+00  0.34998238872E+02  0.34998238872E+02  0.00000000000E+00 0. -1.
         -2   -1    0    0    0  501 -0.00000000000E+00 -0.00000000000E+00 -0.50259265345E+03  0.50259265345E+03  0.00000000000E+00 0. -1.
         25    1    1    2    0    0  0.35546615572E+02  0.34216158841E+02 -0.17808858158E+03  0.22034030565E+03  0.12000000000E+03 0.  0.
         25    1    1    2    0    0 -0.35546615572E+02 -0.34216158841E+02 -0.28950583300E+03  0.31725058668E+03  0.12000000000E+03 0.  0.
<mgrwt>
<rscale>  0 0.26525352E+03</rscale>
<asrwt>0</asrwt>
<pdfrwt beam="1">  1        2 0.53843448E-02 0.26525352E+03</pdfrwt>
<pdfrwt beam="2">  1       -2 0.77321941E-01 0.26525352E+03</pdfrwt>
<totfact> 0.21803088E+03</totfact>
</mgrwt>
</event>
<event>
 4    1  0.1728870E-004  0.2731886E+03  0.7818608E-02  0.1099468E+00
         -2   -1    0    0    0  501 -0.00000000000E+00  0.00000000000E+00  0.60567898905E+01  0.60567898905E+01  0.00000000000E+00 0.  1.
          2   -1    0    0  501    0  0.00000000000E+00 -0.00000000000E+00 -0.30805090854E+04  0.30805090854E+04  0.00000000000E+00 0.  1.
         25    1    1    2    0    0  0.64057805098E+02 -0.54975742289E+01 -0.16632265309E+04  0.16687888179E+04  0.12000000000E+03 0.  0.
         25    1    1    2    0    0 -0.64057805098E+02  0.54975742289E+01 -0.14112257646E+04  0.14177770574E+04  0.12000000000E+03 0.  0.
<mgrwt>
<rscale>  0 0.27318855E+03</rscale>
<asrwt>0</asrwt>
<pdfrwt beam="1">  1        2 0.47392224E+00 0.27318855E+03</pdfrwt>
<pdfrwt beam="2">  1       -2 0.93181822E-03 0.27318855E+03</pdfrwt>
<totfact> 0.44069172E+03</totfact>
</mgrwt>
</event>
<event>
 4    1  0.1728870E-004  0.2540737E+03  0.7818608E-02  0.1110757E+00
          1   -1    0    0  501    0  0.00000000000E+00  0.00000000000E+00  0.27494463480E+04  0.27494463480E+04  0.00000000000E+00 0.  1.
         -1   -1    0    0    0  501 -0.00000000000E+00 -0.00000000000E+00 -0.58696753507E+01  0.58696753507E+01  0.00000000000E+00 0.  1.
         25    1    1    2    0    0 -0.34289516447E+01  0.59253306284E+01  0.92577638070E+03  0.93354634288E+03  0.12000000000E+03 0.  0.
         25    1    1    2    0    0  0.34289516447E+01 -0.59253306284E+01  0.18178002920E+04  0.18217696805E+04  0.12000000000E+03 0.  0.
<mgrwt>
<rscale>  0 0.25407367E+03</rscale>
<asrwt>0</asrwt>
<pdfrwt beam="1">  1        1 0.42299072E+00 0.25407367E+03</pdfrwt>
<pdfrwt beam="2">  1       -1 0.90302917E-03 0.25407367E+03</pdfrwt>
<totfact> 0.23524566E+03</totfact>
</mgrwt>
</event>
<event>
 4    1  0.1728870E-004  0.2826846E+03  0.7818608E-02  0.1094232E+00
         -1   -1    0    0    0  501 -0.00000000000E+00  0.00000000000E+00  0.16914194458E+02  0.16914194458E+02  0.00000000000E+00 0.  1.
          1   -1    0    0  501    0  0.00000000000E+00 -0.00000000000E+00 -0.11811171733E+04  0.11811171733E+04  0.00000000000E+00 0.  1.
         25    1    1    2    0    0 -0.24921464668E+02 -0.56439813361E+02 -0.40374486163E+03  0.42569524924E+03  0.12000000000E+03 0.  0.
         25    1    1    2    0    0  0.24921464668E+02  0.56439813361E+02 -0.76045811722E+03  0.77233611853E+03  0.12000000000E+03 0.  0.
<mgrwt>
<rscale>  0 0.28268460E+03</rscale>
<asrwt>0</asrwt>
<pdfrwt beam="1">  1        1 0.18171035E+00 0.28268460E+03</pdfrwt>
<pdfrwt beam="2">  1       -1 0.26021835E-02 0.28268460E+03</pdfrwt>
<totfact> 0.54986387E+03</totfact>
</mgrwt>
</event>
<event>
 4    1  0.1728870E-004  0.2529825E+03  0.7818608E-02  0.1111434E+00
          2   -1    0    0  501    0  0.00000000000E+00  0.00000000000E+00  0.85060799759E+03  0.85060799759E+03  0.00000000000E+00 0.  1.
         -2   -1    0    0    0  501 -0.00000000000E+00 -0.00000000000E+00 -0.18810114571E+02  0.18810114571E+02  0.00000000000E+00 0.  1.
         25    1    1    2    0    0 -0.33650414738E+02  0.18393891608E+01  0.34184679751E+03  0.36386119157E+03  0.12000000000E+03 0.  0.
         25    1    1    2    0    0  0.33650414738E+02 -0.18393891608E+01  0.48995108552E+03  0.50555692060E+03  0.12000000000E+03 0.  0.
<mgrwt>
<rscale>  0 0.25298248E+03</rscale>
<asrwt>0</asrwt>
<pdfrwt beam="1">  1        2 0.13086274E+00 0.25298248E+03</pdfrwt>
<pdfrwt beam="2">  1       -2 0.28938644E-02 0.25298248E+03</pdfrwt>
<totfact> 0.14527949E+04</totfact>
</mgrwt>
</event>
<event>
 4    1  0.1728870E-004  0.5249366E+03  0.7818608E-02  0.1007468E+00
         -1   -1    0    0    0  501 -0.00000000000E+00  0.00000000000E+00  0.89715284294E+02  0.89715284294E+02  0.00000000000E+00 0.  1.
          1   -1    0    0  501    0  0.00000000000E+00 -0.00000000000E+00 -0.76786925303E+03  0.76786925303E+03  0.00000000000E+00 0.  1.
         25    1    1    2    0    0  0.19775824983E+03 -0.36500858994E+02 -0.53271576309E+03  0.58191642212E+03  0.12000000000E+03 0.  0.
         25    1    1    2    0    0 -0.19775824983E+03  0.36500858994E+02 -0.14543820565E+03  0.27566811521E+03  0.12000000000E+03 0.  0.
<mgrwt>
<rscale>  0 0.52493660E+03</rscale>
<asrwt>0</asrwt>
<pdfrwt beam="1">  1        1 0.11813373E+00 0.52493660E+03</pdfrwt>
<pdfrwt beam="2">  1       -1 0.13802351E-01 0.52493660E+03</pdfrwt>
<totfact> 0.89717717E+02</totfact>
</mgrwt>
</event>
<event>
 4    1  0.1728870E-004  0.2563199E+03  0.7818608E-02  0.1109375E+00
         -2   -1    0    0    0  501 -0.00000000000E+00  0.00000000000E+00  0.66863677038E+02  0.66863677038E+02  0.00000000000E+00 0. -1.
          2   -1    0    0  501    0  0.00000000000E+00 -0.00000000000E+00 -0.24564861227E+03  0.24564861227E+03  0.00000000000E+00 0. -1.
         25    1    1    2    0    0 -0.44224248459E+02 -0.66917634579E+01 -0.83369232836E+02  0.15281031652E+03  0.12000000000E+03 0.  0.
         25    1    1    2    0    0  0.44224248459E+02  0.66917634579E+01 -0.95415702395E+02  0.15970197279E+03  0.12000000000E+03 0.  0.
<mgrwt>
<rscale>  0 0.25631987E+03</rscale>
<asrwt>0</asrwt>
<pdfrwt beam="1">  1        2 0.37792094E-01 0.25631987E+03</pdfrwt>
<pdfrwt beam="2">  1       -2 0.10286719E-01 0.25631987E+03</pdfrwt>
<totfact> 0.85159050E+03</totfact>
</mgrwt>
</event>
<event>
 4    1  0.1728870E-004  0.2872319E+03  0.7818608E-02  0.1091803E+00
          4   -1    0    0  501    0  0.00000000000E+00  0.00000000000E+00  0.25092007588E+03  0.25092007588E+03  0.00000000000E+00 0. -1.
         -4   -1    0    0    0  501 -0.00000000000E+00 -0.00000000000E+00 -0.82199635249E+02  0.82199635249E+02  0.00000000000E+00 0. -1.
         25    1    1    2    0    0  0.56027945521E+02  0.54455506015E+02  0.71602562273E+02  0.16009828150E+03  0.12000000000E+03 0.  0.
         25    1    1    2    0    0 -0.56027945521E+02 -0.54455506015E+02  0.97117878361E+02  0.17302142963E+03  0.12000000000E+03 0.  0.
<mgrwt>
<rscale>  0 0.28723188E+03</rscale>
<asrwt>0</asrwt>
<pdfrwt beam="1">  1        4 0.38603088E-01 0.28723188E+03</pdfrwt>
<pdfrwt beam="2">  1       -4 0.12646098E-01 0.28723188E+03</pdfrwt>
<totfact> 0.62442505E+02</totfact>
</mgrwt>
</event>
<event>
 4    1  0.1728870E-004  0.3497837E+03  0.7818608E-02  0.1062704E+00
         -2   -1    0    0    0  501 -0.00000000000E+00  0.00000000000E+00  0.24495679478E+02  0.24495679478E+02  0.00000000000E+00 0. -1.
          2   -1    0    0  501    0  0.00000000000E+00 -0.00000000000E+00 -0.12486755728E+04  0.12486755728E+04  0.00000000000E+00 0. -1.
         25    1    1    2    0    0  0.43147443764E+02 -0.98157132676E+02 -0.36280103813E+03  0.39688930178E+03  0.12000000000E+03 0.  0.
         25    1    1    2    0    0 -0.43147443764E+02  0.98157132676E+02 -0.86137885516E+03  0.87628195047E+03  0.12000000000E+03 0.  0.
<mgrwt>
<rscale>  0 0.34978369E+03</rscale>
<asrwt>0</asrwt>
<pdfrwt beam="1">  1        2 0.19210394E+00 0.34978369E+03</pdfrwt>
<pdfrwt beam="2">  1       -2 0.37685660E-02 0.34978369E+03</pdfrwt>
<totfact> 0.56590666E+03</totfact>
</mgrwt>
</event>
<event>
 4    1  0.1728870E-004  0.2717264E+03  0.7818608E-02  0.1100296E+00
          1   -1    0    0  501    0  0.00000000000E+00  0.00000000000E+00  0.76592355206E+02  0.76592355206E+02  0.00000000000E+00 0.  1.
         -1   -1    0    0    0  501 -0.00000000000E+00 -0.00000000000E+00 -0.24100063420E+03  0.24100063420E+03  0.00000000000E+00 0.  1.
         25    1    1    2    0    0 -0.45710565662E+02  0.40915666115E+02 -0.10228768611E+03  0.16919313898E+03  0.12000000000E+03 0.  0.
         25    1    1    2    0    0  0.45710565662E+02 -0.40915666115E+02 -0.62120592879E+02  0.14839985043E+03  0.12000000000E+03 0.  0.
<mgrwt>
<rscale>  0 0.27172638E+03</rscale>
<asrwt>0</asrwt>
<pdfrwt beam="1">  1        1 0.11783439E-01 0.27172638E+03</pdfrwt>
<pdfrwt beam="2">  1       -1 0.37077021E-01 0.27172638E+03</pdfrwt>
<totfact> 0.36134601E+03</totfact>
</mgrwt>
</event>
<event>
 4    1  0.1728870E-004  0.2591890E+03  0.7818608E-02  0.1107631E+00
          2   -1    0    0  501    0  0.00000000000E+00  0.00000000000E+00  0.28975721666E+04  0.28975721666E+04  0.00000000000E+00 0. -1.
         -2   -1    0    0    0  501 -0.00000000000E+00 -0.00000000000E+00 -0.57961386978E+01  0.57961386978E+01  0.00000000000E+00 0. -1.
         25    1    1    2    0    0 -0.27048380707E+01 -0.21777758041E+02  0.19358465945E+04  0.19396864758E+04  0.12000000000E+03 0.  0.
         25    1    1    2    0    0  0.27048380707E+01  0.21777758041E+02  0.95592943339E+03  0.96368182951E+03  0.12000000000E+03 0.  0.
<mgrwt>
<rscale>  0 0.25918897E+03</rscale>
<asrwt>0</asrwt>
<pdfrwt beam="1">  1        2 0.44577918E+00 0.25918897E+03</pdfrwt>
<pdfrwt beam="2">  1       -2 0.89171596E-03 0.25918897E+03</pdfrwt>
<totfact> 0.60305830E+03</totfact>
</mgrwt>
</event>
<event>
 4    1  0.1728870E-004  0.2490629E+03  0.7818608E-02  0.1113898E+00
         -1   -1    0    0    0  501 -0.00000000000E+00  0.00000000000E+00  0.39850119628E+02  0.39850119628E+02  0.00000000000E+00 0.  1.
          1   -1    0    0  501    0  0.00000000000E+00 -0.00000000000E+00 -0.38916030357E+03  0.38916030357E+03  0.00000000000E+00 0.  1.
         25    1    1    2    0    0 -0.98631945307E+01 -0.23305018787E+02 -0.13740457500E+03  0.18417498131E+03  0.12000000000E+03 0.  0.
         25    1    1    2    0    0  0.98631945307E+01  0.23305018787E+02 -0.21190560893E+03  0.24483544189E+03  0.12000000000E+03 0.  0.
<mgrwt>
<rscale>  0 0.24906292E+03</rscale>
<asrwt>0</asrwt>
<pdfrwt beam="1">  1        1 0.59870819E-01 0.24906292E+03</pdfrwt>
<pdfrwt beam="2">  1       -1 0.61307873E-02 0.24906292E+03</pdfrwt>
<totfact> 0.80242721E+03</totfact>
</mgrwt>
</event>
<event>
 4    1  0.1728870E-004  0.2549104E+03  0.7818608E-02  0.1110240E+00
          1   -1    0    0  501    0  0.00000000000E+00  0.00000000000E+00  0.10796171777E+04  0.10796171777E+04  0.00000000000E+00 0. -1.
         -1   -1    0    0    0  501 -0.00000000000E+00 -0.00000000000E+00 -0.15046842674E+02  0.15046842674E+02  0.00000000000E+00 0. -1.
         25    1    1    2    0    0  0.12594158016E+02 -0.28230416771E+02  0.40422685221E+03  0.42279417840E+03  0.12000000000E+03 0.  0.
         25    1    1    2    0    0 -0.12594158016E+02  0.28230416771E+02  0.66034348285E+03  0.67186984200E+03  0.12000000000E+03 0.  0.
<mgrwt>
<rscale>  0 0.25491041E+03</rscale>
<asrwt>0</asrwt>
<pdfrwt beam="1">  1        1 0.16609489E+00 0.25491041E+03</pdfrwt>
<pdfrwt beam="2">  1       -1 0.23148997E-02 0.25491041E+03</pdfrwt>
<totfact> 0.76975094E+03</totfact>
</mgrwt>
</event>
<event>
 4    1  0.1728870E-004  0.2711624E+03  0.7818608E-02  0.1100616E+00
          1   -1    0    0  501    0  0.00000000000E+00  0.00000000000E+00  0.87191380965E+01  0.87191380965E+01  0.00000000000E+00 0. -1.
         -1   -1    0    0    0  501 -0.00000000000E+00 -0.00000000000E+00 -0.21082652761E+04  0.21082652761E+04  0.00000000000E+00 0. -1.
         25    1    1    2    0    0 -0.36729432165E+02  0.46356182096E+02 -0.87796258758E+03  0.88809698344E+03  0.12000000000E+03 0.  0.
         25    1    1    2    0    0  0.36729432165E+02 -0.46356182096E+02 -0.12215835505E+04  0.12288874308E+04  0.12000000000E+03 0.  0.
<mgrwt>
<rscale>  0 0.27116236E+03</rscale>
<asrwt>0</asrwt>
<pdfrwt beam="1">  1        1 0.13414056E-02 0.27116236E+03</pdfrwt>
<pdfrwt beam="2">  1       -1 0.32434858E+00 0.27116236E+03</pdfrwt>
<totfact> 0.28977896E+02</totfact>
</mgrwt>
</event>
<event>
 4    1  0.1728870E-004  0.2656976E+03  0.7818608E-02  0.1103768E+00
          1   -1    0    0  501    0  0.00000000000E+00  0.00000000000E+00  0.79436706197E+03  0.79436706197E+03  0.00000000000E+00 0. -1.
         -1   -1    0    0    0  501 -0.00000000000E+00 -0.00000000000E+00 -0.22217435051E+02  0.22217435051E+02  0.00000000000E+00 0. -1.
         25    1    1    2    0    0 -0.12948031844E+02  0.51120724253E+02  0.45254889069E+03  0.47114910425E+03  0.12000000000E+03 0.  0.
         25    1    1    2    0    0  0.12948031844E+02 -0.51120724253E+02  0.31960073623E+03  0.34543539277E+03  0.12000000000E+03 0.  0.
<mgrwt>
<rscale>  0 0.26569756E+03</rscale>
<asrwt>0</asrwt>
<pdfrwt beam="1">  1        1 0.12221029E+00 0.26569756E+03</pdfrwt>
<pdfrwt beam="2">  1       -1 0.34180676E-02 0.26569756E+03</pdfrwt>
<totfact> 0.72169023E+03</totfact>
</mgrwt>
</event>
<event>
 4    1  0.1728870E-004  0.2464422E+03  0.7818608E-02  0.1115574E+00
         -2   -1    0    0    0  501 -0.00000000000E+00  0.00000000000E+00  0.40898492070E+02  0.40898492070E+02  0.00000000000E+00 0. -1.
          2   -1    0    0  501    0  0.00000000000E+00 -0.00000000000E+00 -0.37124692301E+03  0.37124692301E+03  0.00000000000E+00 0. -1.
         25    1    1    2    0    0 -0.12505865825E+02  0.19259351000E+02 -0.19193859576E+03  0.22752525975E+03  0.12000000000E+03 0.  0.
         25    1    1    2    0    0  0.12505865825E+02 -0.19259351000E+02 -0.13840983518E+03  0.18462015534E+03  0.12000000000E+03 0.  0.
<mgrwt>
<rscale>  0 0.24644220E+03</rscale>
<asrwt>0</asrwt>
<pdfrwt beam="1">  1        2 0.57114911E-01 0.24644220E+03</pdfrwt>
<pdfrwt beam="2">  1       -2 0.62920757E-02 0.24644220E+03</pdfrwt>
<totfact> 0.11747202E+04</totfact>
</mgrwt>
</event>
<event>
 4    1  0.1728870E-004  0.2628300E+03  0.7818608E-02  0.1105455E+00
          2   -1    0    0  501    0  0.00000000000E+00  0.00000000000E+00  0.75847270150E+03  0.75847270150E+03  0.00000000000E+00 0.  1.
         -2   -1    0    0    0  501 -0.00000000000E+00 -0.00000000000E+00 -0.22769306518E+02  0.22769306518E+02  0.00000000000E+00 0.  1.
         25    1    1    2    0    0  0.27659744673E+02 -0.45580169680E+02  0.35232548979E+03  0.37599981929E+03  0.12000000000E+03 0.  0.
         25    1    1    2    0    0 -0.27659744673E+02  0.45580169680E+02  0.38337790519E+03  0.40524218873E+03  0.12000000000E+03 0.  0.
<mgrwt>
<rscale>  0 0.26282996E+03</rscale>
<asrwt>0</asrwt>
<pdfrwt beam="1">  1        2 0.11668809E+00 0.26282996E+03</pdfrwt>
<pdfrwt beam="2">  1       -2 0.35029708E-02 0.26282996E+03</pdfrwt>
<totfact> 0.12667319E+04</totfact>
</mgrwt>
</event>
<event>
 4    1  0.1728870E-004  0.3180717E+03  0.7818608E-02  0.1076540E+00
         -3   -1    0    0    0  501 -0.00000000000E+00  0.00000000000E+00  0.26988892436E+03  0.26988892436E+03  0.00000000000E+00 0.  1.
          3   -1    0    0  501    0  0.00000000000E+00 -0.00000000000E+00 -0.93714094437E+02  0.93714094437E+02  0.00000000000E+00 0.  1.
         25    1    1    2    0    0 -0.10394218816E+03 -0.40218010699E+00  0.98826676293E+02  0.18700495228E+03  0.12000000000E+03 0.  0.
         25    1    1    2    0    0  0.10394218816E+03  0.40218010699E+00  0.77348153634E+02  0.17659806652E+03  0.12000000000E+03 0.  0.
<mgrwt>
<rscale>  0 0.31807167E+03</rscale>
<asrwt>0</asrwt>
<pdfrwt beam="1">  1        3 0.14417553E-01 0.31807167E+03</pdfrwt>
<pdfrwt beam="2">  1       -3 0.41521373E-01 0.31807167E+03</pdfrwt>
<totfact> 0.59073682E+02</totfact>
</mgrwt>
</event>
<event>
 4    1  0.1728870E-004  0.2434823E+03  0.7818608E-02  0.1117495E+00
          2   -1    0    0  501    0  0.00000000000E+00  0.00000000000E+00  0.11345958146E+04  0.11345958146E+04  0.00000000000E+00 0. -1.
         -2   -1    0    0    0  501 -0.00000000000E+00 -0.00000000000E+00 -0.13062719059E+02  0.13062719059E+02  0.00000000000E+00 0. -1.
         25    1    1    2    0    0 -0.50308655421E+01  0.19544684923E+02  0.54338263364E+03  0.55684108223E+03  0.12000000000E+03 0.  0.
         25    1    1    2    0    0  0.50308655421E+01 -0.19544684923E+02  0.57815046189E+03  0.59081745142E+03  0.12000000000E+03 0.  0.
<mgrwt>
<rscale>  0 0.24348229E+03</rscale>
<asrwt>0</asrwt>
<pdfrwt beam="1">  1        2 0.17455312E+00 0.24348229E+03</pdfrwt>
<pdfrwt beam="2">  1       -2 0.20096500E-02 0.24348229E+03</pdfrwt>
<totfact> 0.16611160E+04</totfact>
</mgrwt>
</event>
<event>
 4    1  0.1728870E-004  0.2790802E+03  0.7818608E-02  0.1096192E+00
          2   -1    0    0  501    0  0.00000000000E+00  0.00000000000E+00  0.12266694140E+03  0.12266694140E+03  0.00000000000E+00 0.  1.
         -2   -1    0    0    0  501 -0.00000000000E+00 -0.00000000000E+00 -0.15873416423E+03  0.15873416423E+03  0.00000000000E+00 0.  1.
         25    1    1    2    0    0 -0.67630948554E+02 -0.20369955772E+02 -0.88721193662E+01  0.13952632297E+03  0.12000000000E+03 0.  0.
         25    1    1    2    0    0  0.67630948554E+02  0.20369955772E+02 -0.27195103467E+02  0.14187478265E+03  0.12000000000E+03 0.  0.
<mgrwt>
<rscale>  0 0.27908016E+03</rscale>
<asrwt>0</asrwt>
<pdfrwt beam="1">  1        2 0.18871837E-01 0.27908016E+03</pdfrwt>
<pdfrwt beam="2">  1       -2 0.24420641E-01 0.27908016E+03</pdfrwt>
<totfact> 0.43784866E+03</totfact>
</mgrwt>
</event>
<event>
 4    1  0.1728870E-004  0.2483407E+03  0.7818608E-02  0.1114358E+00
         -2   -1    0    0    0  501 -0.00000000000E+00  0.00000000000E+00  0.70440976510E+01  0.70440976510E+01  0.00000000000E+00 0. -1.
          2   -1    0    0  501    0  0.00000000000E+00 -0.00000000000E+00 -0.21888227087E+04  0.21888227087E+04  0.00000000000E+00 0. -1.
         25    1    1    2    0    0  0.20331704304E+02  0.12373544281E+02 -0.90294454512E+03  0.91119445474E+03  0.12000000000E+03 0.  0.
         25    1    1    2    0    0 -0.20331704304E+02 -0.12373544281E+02 -0.12788340660E+04  0.12846723516E+04  0.12000000000E+03 0.  0.
<mgrwt>
<rscale>  0 0.24834074E+03</rscale>
<asrwt>0</asrwt>
<pdfrwt beam="1">  1        2 0.33674194E+00 0.24834074E+03</pdfrwt>
<pdfrwt beam="2">  1       -2 0.10837074E-02 0.24834074E+03</pdfrwt>
<totfact> 0.11177568E+04</totfact>
</mgrwt>
</event>
<event>
 4    1  0.1728870E-004  0.2618397E+03  0.7818608E-02  0.1106043E+00
         -1   -1    0    0    0  501 -0.00000000000E+00  0.00000000000E+00  0.85082633782E+01  0.85082633782E+01  0.00000000000E+00 0.  1.
          1   -1    0    0  501    0  0.00000000000E+00 -0.00000000000E+00 -0.20145126084E+04  0.20145126084E+04  0.00000000000E+00 0.  1.
         25    1    1    2    0    0 -0.38155908525E+02 -0.11747765121E+02 -0.12645674266E+04  0.12708755485E+04  0.12000000000E+03 0.  0.
         25    1    1    2    0    0  0.38155908525E+02  0.11747765121E+02 -0.74143691845E+03  0.75214532331E+03  0.12000000000E+03 0.  0.
<mgrwt>
<rscale>  0 0.26183967E+03</rscale>
<asrwt>0</asrwt>
<pdfrwt beam="1">  1        1 0.30992483E+00 0.26183967E+03</pdfrwt>
<pdfrwt beam="2">  1       -1 0.13089644E-02 0.26183967E+03</pdfrwt>
<totfact> 0.42007413E+03</totfact>
</mgrwt>
</event>
<event>
 4    1  0.1728870E-004  0.2534847E+03  0.7818608E-02  0.1111122E+00
          2   -1    0    0  501    0  0.00000000000E+00  0.00000000000E+00  0.62614968673E+03  0.62614968673E+03  0.00000000000E+00 0. -1.
         -2   -1    0    0    0  501 -0.00000000000E+00 -0.00000000000E+00 -0.25654597633E+02  0.25654597633E+02  0.00000000000E+00 0. -1.
         25    1    1    2    0    0 -0.38753753284E+02 -0.11606055959E+02  0.31362471516E+03  0.33822627912E+03  0.12000000000E+03 0.  0.
         25    1    1    2    0    0  0.38753753284E+02  0.11606055959E+02  0.28687037393E+03  0.31357800524E+03  0.12000000000E+03 0.  0.
<mgrwt>
<rscale>  0 0.25348466E+03</rscale>
<asrwt>0</asrwt>
<pdfrwt beam="1">  1        2 0.96330709E-01 0.25348466E+03</pdfrwt>
<pdfrwt beam="2">  1       -2 0.39468617E-02 0.25348466E+03</pdfrwt>
<totfact> 0.13330157E+04</totfact>
</mgrwt>
</event>
<event>
 4    1  0.1728870E-004  0.3442270E+03  0.7818608E-02  0.1065010E+00
          2   -1    0    0  501    0  0.00000000000E+00  0.00000000000E+00  0.25720951862E+03  0.25720951862E+03  0.00000000000E+00 0. -1.
         -2   -1    0    0    0  501 -0.00000000000E+00 -0.00000000000E+00 -0.11517095119E+03  0.11517095119E+03  0.00000000000E+00 0. -1.
         25    1    1    2    0    0  0.19063589369E+02 -0.53153105796E+02 -0.47654278388E+02  0.14092410491E+03  0.12000000000E+03 0.  0.
         25    1    1    2    0    0 -0.19063589369E+02  0.53153105796E+02  0.18969284582E+03  0.23145636490E+03  0.12000000000E+03 0.  0.
<mgrwt>
<rscale>  0 0.34422705E+03</rscale>
<asrwt>0</asrwt>
<pdfrwt beam="1">  1        2 0.39570695E-01 0.34422705E+03</pdfrwt>
<pdfrwt beam="2">  1       -2 0.17718608E-01 0.34422705E+03</pdfrwt>
<totfact> 0.33546925E+03</totfact>
</mgrwt>
</event>
<event>
 4    1  0.1728870E-004  0.3269625E+03  0.7818608E-02  0.1072489E+00
          2   -1    0    0  501    0  0.00000000000E+00  0.00000000000E+00  0.38907317847E+03  0.38907317847E+03  0.00000000000E+00 0.  1.
         -2   -1    0    0    0  501 -0.00000000000E+00 -0.00000000000E+00 -0.68691766457E+02  0.68691766457E+02  0.00000000000E+00 0.  1.
         25    1    1    2    0    0  0.36345570092E+02  0.54391969064E+02  0.28577975051E+03  0.31677997501E+03  0.12000000000E+03 0.  0.
         25    1    1    2    0    0 -0.36345570092E+02 -0.54391969064E+02  0.34601661501E+02  0.14098496992E+03  0.12000000000E+03 0.  0.
<mgrwt>
<rscale>  0 0.32696253E+03</rscale>
<asrwt>0</asrwt>
<pdfrwt beam="1">  1        2 0.59857411E-01 0.32696253E+03</pdfrwt>
<pdfrwt beam="2">  1       -2 0.10567964E-01 0.32696253E+03</pdfrwt>
<totfact> 0.50044267E+03</totfact>
</mgrwt>
</event>
<event>
 4    1  0.1728870E-004  0.2513681E+03  0.7818608E-02  0.1112443E+00
          2   -1    0    0  501    0  0.00000000000E+00  0.00000000000E+00  0.98597301445E+03  0.98597301445E+03  0.00000000000E+00 0.  1.
         -2   -1    0    0    0  501 -0.00000000000E+00 -0.00000000000E+00 -0.16021207719E+02  0.16021207719E+02  0.00000000000E+00 0.  1.
         25    1    1    2    0    0  0.97917863902E+01  0.63635283379E+01  0.62647655216E+03  0.63797276116E+03  0.12000000000E+03 0.  0.
         25    1    1    2    0    0 -0.97917863902E+01 -0.63635283379E+01  0.34347525457E+03  0.36402146101E+03  0.12000000000E+03 0.  0.
<mgrwt>
<rscale>  0 0.25136808E+03</rscale>
<asrwt>0</asrwt>
<pdfrwt beam="1">  1        2 0.15168811E+00 0.25136808E+03</pdfrwt>
<pdfrwt beam="2">  1       -2 0.24648020E-02 0.25136808E+03</pdfrwt>
<totfact> 0.15096368E+04</totfact>
</mgrwt>
</event>
<event>
 4    1  0.1728870E-004  0.2679796E+03  0.7818608E-02  0.1102442E+00
         -1   -1    0    0    0  501 -0.00000000000E+00  0.00000000000E+00  0.26283178155E+02  0.26283178155E+02  0.00000000000E+00 0. -1.
          1   -1    0    0  501    0  0.00000000000E+00 -0.00000000000E+00 -0.68307078573E+03  0.68307078573E+03  0.00000000000E+00 0. -1.
         25    1    1    2    0    0 -0.19069091365E+01 -0.13757066514E+02 -0.48183969847E+03  0.49675183765E+03  0.12000000000E+03 0.  0.
         25    1    1    2    0    0  0.19069091365E+01  0.13757066514E+02 -0.17494790910E+03  0.21260212623E+03  0.12000000000E+03 0.  0.
<mgrwt>
<rscale>  0 0.26797963E+03</rscale>
<asrwt>0</asrwt>
<pdfrwt beam="1">  1        1 0.10508782E+00 0.26797963E+03</pdfrwt>
<pdfrwt beam="2">  1       -1 0.40435658E-02 0.26797963E+03</pdfrwt>
<totfact> 0.70423953E+03</totfact>
</mgrwt>
</event>
<event>
 4    1  0.1728870E-004  0.2659298E+03  0.7818608E-02  0.1103632E+00
         -2   -1    0    0    0  501 -0.00000000000E+00  0.00000000000E+00  0.17708577677E+02  0.17708577677E+02  0.00000000000E+00 0.  1.
          2   -1    0    0  501    0  0.00000000000E+00 -0.00000000000E+00 -0.99836736699E+03  0.99836736699E+03  0.00000000000E+00 0.  1.
         25    1    1    2    0    0  0.17452493908E+02  0.41389296427E+02 -0.62606359269E+03  0.63904091066E+03  0.12000000000E+03 0.  0.
         25    1    1    2    0    0 -0.17452493908E+02 -0.41389296427E+02 -0.35459519662E+03  0.37703503400E+03  0.12000000000E+03 0.  0.
<mgrwt>
<rscale>  0 0.26592981E+03</rscale>
<asrwt>0</asrwt>
<pdfrwt beam="1">  1        2 0.15359499E+00 0.26592981E+03</pdfrwt>
<pdfrwt beam="2">  1       -2 0.27243964E-02 0.26592981E+03</pdfrwt>
<totfact> 0.12818630E+04</totfact>
</mgrwt>
</event>
<event>
 4    1  0.1728870E-004  0.2616682E+03  0.7818608E-02  0.1106145E+00
         -2   -1    0    0    0  501 -0.00000000000E+00  0.00000000000E+00  0.14332737335E+02  0.14332737335E+02  0.00000000000E+00 0.  1.
          2   -1    0    0  501    0  0.00000000000E+00 -0.00000000000E+00 -0.11942978164E+04  0.11942978164E+04  0.00000000000E+00 0.  1.
         25    1    1    2    0    0  0.11609195159E+02 -0.32045690210E+02 -0.77217380571E+03  0.78218545493E+03  0.12000000000E+03 0.  0.
         25    1    1    2    0    0 -0.11609195159E+02  0.32045690210E+02 -0.40779127335E+03  0.42644509881E+03  0.12000000000E+03 0.  0.
<mgrwt>
<rscale>  0 0.26166816E+03</rscale>
<asrwt>0</asrwt>
<pdfrwt beam="1">  1        2 0.18373817E+00 0.26166816E+03</pdfrwt>
<pdfrwt beam="2">  1       -2 0.22050360E-02 0.26166816E+03</pdfrwt>
<totfact> 0.13430411E+04</totfact>
</mgrwt>
</event>
<event>
 4    1  0.1728870E-004  0.3065501E+03  0.7818608E-02  0.1082011E+00
          2   -1    0    0  501    0  0.00000000000E+00  0.00000000000E+00  0.13998704347E+04  0.13998704347E+04  0.00000000000E+00 0. -1.
         -2   -1    0    0    0  501 -0.00000000000E+00 -0.00000000000E+00 -0.16782437037E+02  0.16782437037E+02  0.00000000000E+00 0. -1.
         25    1    1    2    0    0  0.91879777268E+02 -0.24925231197E+02  0.71688815844E+03  0.73307011420E+03  0.12000000000E+03 0.  0.
         25    1    1    2    0    0 -0.91879777268E+02  0.24925231197E+02  0.66619983918E+03  0.68358275750E+03  0.12000000000E+03 0.  0.
<mgrwt>
<rscale>  0 0.30655008E+03</rscale>
<asrwt>0</asrwt>
<pdfrwt beam="1">  1        2 0.21536459E+00 0.30655008E+03</pdfrwt>
<pdfrwt beam="2">  1       -2 0.25819145E-02 0.30655008E+03</pdfrwt>
<totfact> 0.82053985E+03</totfact>
</mgrwt>
</event>
<event>
 4    1  0.1728870E-004  0.2730850E+03  0.7818608E-02  0.1099527E+00
          3   -1    0    0  501    0  0.00000000000E+00  0.00000000000E+00  0.22357806684E+03  0.22357806684E+03  0.00000000000E+00 0. -1.
         -3   -1    0    0    0  501 -0.00000000000E+00 -0.00000000000E+00 -0.83388563456E+02  0.83388563456E+02  0.00000000000E+00 0. -1.
         25    1    1    2    0    0  0.29328745321E+02  0.55026220332E+02  0.48891992294E+02  0.14380016390E+03  0.12000000000E+03 0.  0.
         25    1    1    2    0    0 -0.29328745321E+02 -0.55026220332E+02  0.91297511090E+02  0.16316646640E+03  0.12000000000E+03 0.  0.
<mgrwt>
<rscale>  0 0.27308500E+03</rscale>
<asrwt>0</asrwt>
<pdfrwt beam="1">  1        3 0.34396625E-01 0.27308500E+03</pdfrwt>
<pdfrwt beam="2">  1       -3 0.12829010E-01 0.27308500E+03</pdfrwt>
<totfact> 0.10233614E+03</totfact>
</mgrwt>
</event>
<event>
 4    1  0.1728870E-004  0.2548079E+03  0.7818608E-02  0.1110303E+00
          2   -1    0    0  501    0  0.00000000000E+00  0.00000000000E+00  0.12155555895E+04  0.12155555895E+04  0.00000000000E+00 0.  1.
         -2   -1    0    0    0  501 -0.00000000000E+00 -0.00000000000E+00 -0.13353373285E+02  0.13353373285E+02  0.00000000000E+00 0.  1.
         25    1    1    2    0    0  0.25242613791E+02 -0.13465649871E+02  0.44758073135E+03  0.46427042158E+03  0.12000000000E+03 0.  0.
         25    1    1    2    0    0 -0.25242613791E+02  0.13465649871E+02  0.75462148490E+03  0.76463854124E+03  0.12000000000E+03 0.  0.
<mgrwt>
<rscale>  0 0.25480791E+03</rscale>
<asrwt>0</asrwt>
<pdfrwt beam="1">  1        2 0.18700846E+00 0.25480791E+03</pdfrwt>
<pdfrwt beam="2">  1       -2 0.20543661E-02 0.25480791E+03</pdfrwt>
<totfact> 0.14484476E+04</totfact>
</mgrwt>
</event>
<event>
 4    1  0.1728870E-004  0.3227620E+03  0.7818608E-02  0.1074385E+00
          2   -1    0    0  501    0  0.00000000000E+00  0.00000000000E+00  0.11440934039E+04  0.11440934039E+04  0.00000000000E+00 0. -1.
         -2   -1    0    0    0  501 -0.00000000000E+00 -0.00000000000E+00 -0.22763722007E+02  0.22763722007E+02  0.00000000000E+00 0. -1.
         25    1    1    2    0    0  0.36037163108E+02 -0.96967543361E+02  0.67164945224E+03  0.69008287060E+03  0.12000000000E+03 0.  0.
         25    1    1    2    0    0 -0.36037163108E+02  0.96967543361E+02  0.44968022966E+03  0.47677425532E+03  0.12000000000E+03 0.  0.
<mgrwt>
<rscale>  0 0.32276198E+03</rscale>
<asrwt>0</asrwt>
<pdfrwt beam="1">  1        2 0.17601432E+00 0.32276198E+03</pdfrwt>
<pdfrwt beam="2">  1       -2 0.35021120E-02 0.32276198E+03</pdfrwt>
<totfact> 0.72494694E+03</totfact>
</mgrwt>
</event>
<event>
 4    1  0.1728870E-004  0.3466394E+03  0.7818608E-02  0.1064003E+00
          1   -1    0    0  501    0  0.00000000000E+00  0.00000000000E+00  0.93062768855E+03  0.93062768855E+03  0.00000000000E+00 0.  1.
         -1   -1    0    0    0  501 -0.00000000000E+00 -0.00000000000E+00 -0.32278991628E+02  0.32278991628E+02  0.00000000000E+00 0.  1.
         25    1    1    2    0    0 -0.10844402580E+03  0.12032548442E+02  0.61893690834E+03  0.63983418591E+03  0.12000000000E+03 0.  0.
         25    1    1    2    0    0  0.10844402580E+03 -0.12032548442E+02  0.27941178858E+03  0.32307249427E+03  0.12000000000E+03 0.  0.
<mgrwt>
<rscale>  0 0.34663943E+03</rscale>
<asrwt>0</asrwt>
<pdfrwt beam="1">  1        1 0.14317347E+00 0.34663943E+03</pdfrwt>
<pdfrwt beam="2">  1       -1 0.49659994E-02 0.34663943E+03</pdfrwt>
<totfact> 0.32219526E+03</totfact>
</mgrwt>
</event>
<event>
 4    1  0.1728870E-004  0.3826050E+03  0.7818608E-02  0.1049975E+00
          2   -1    0    0  501    0  0.00000000000E+00  0.00000000000E+00  0.11747960712E+03  0.11747960712E+03  0.00000000000E+00 0. -1.
         -2   -1    0    0    0  501 -0.00000000000E+00 -0.00000000000E+00 -0.31151493778E+03  0.31151493778E+03  0.00000000000E+00 0. -1.
         25    1    1    2    0    0  0.10344264782E+03 -0.10688327739E+03 -0.10654734538E+03  0.21880757112E+03  0.12000000000E+03 0.  0.
         25    1    1    2    0    0 -0.10344264782E+03  0.10688327739E+03 -0.87487985283E+02  0.21018697377E+03  0.12000000000E+03 0.  0.
<mgrwt>
<rscale>  0 0.38260503E+03</rscale>
<asrwt>0</asrwt>
<pdfrwt beam="1">  1        2 0.18073786E-01 0.38260503E+03</pdfrwt>
<pdfrwt beam="2">  1       -2 0.47925375E-01 0.38260503E+03</pdfrwt>
<totfact> 0.13151465E+03</totfact>
</mgrwt>
</event>
<event>
 4    1  0.1728870E-004  0.2493445E+03  0.7818608E-02  0.1113720E+00
          2   -1    0    0  501    0  0.00000000000E+00  0.00000000000E+00  0.60233243161E+03  0.60233243161E+03  0.00000000000E+00 0.  1.
         -2   -1    0    0    0  501 -0.00000000000E+00 -0.00000000000E+00 -0.25804961300E+02  0.25804961300E+02  0.00000000000E+00 0.  1.
         25    1    1    2    0    0 -0.27715973490E+02 -0.19301528472E+02  0.29219950684E+03  0.31768109164E+03  0.12000000000E+03 0.  0.
         25    1    1    2    0    0  0.27715973490E+02  0.19301528472E+02  0.28432796347E+03  0.31045630127E+03  0.12000000000E+03 0.  0.
<mgrwt>
<rscale>  0 0.24934446E+03</rscale>
<asrwt>0</asrwt>
<pdfrwt beam="1">  1        2 0.92666518E-01 0.24934446E+03</pdfrwt>
<pdfrwt beam="2">  1       -2 0.39699945E-02 0.24934446E+03</pdfrwt>
<totfact> 0.13814209E+04</totfact>
</mgrwt>
</event>
<event>
 4    1  0.1728870E-004  0.3504887E+03  0.7818608E-02  0.1062415E+00
         -2   -1    0    0    0  501 -0.00000000000E+00  0.00000000000E+00  0.27121755881E+02  0.27121755881E+02  0.00000000000E+00 0.  1.
          2   -1    0    0  501    0  0.00000000000E+00 -0.00000000000E+00 -0.11323227273E+04  0.11323227273E+04  0.00000000000E+00 0.  1.
         25    1    1    2    0    0 -0.12360676094E+03 -0.32114091053E+02 -0.54996563927E+03  0.57721066395E+03  0.12000000000E+03 0.  0.
         25    1    1    2    0    0  0.12360676094E+03  0.32114091053E+02 -0.55523533211E+03  0.58223381920E+03  0.12000000000E+03 0.  0.
<mgrwt>
<rscale>  0 0.35048869E+03</rscale>
<asrwt>0</asrwt>
<pdfrwt beam="1">  1        2 0.17420348E+00 0.35048869E+03</pdfrwt>
<pdfrwt beam="2">  1       -2 0.41725781E-02 0.35048869E+03</pdfrwt>
<totfact> 0.56600610E+03</totfact>
</mgrwt>
</event>
<event>
 4    1  0.1728870E-004  0.2853479E+03  0.7818608E-02  0.1092803E+00
         -2   -1    0    0    0  501 -0.00000000000E+00  0.00000000000E+00  0.20169980498E+02  0.20169980498E+02  0.00000000000E+00 0.  1.
          2   -1    0    0  501    0  0.00000000000E+00 -0.00000000000E+00 -0.10092154327E+04  0.10092154327E+04  0.00000000000E+00 0.  1.
         25    1    1    2    0    0  0.99276019755E+01 -0.14080293431E+02 -0.76590086230E+03  0.77543596951E+03  0.12000000000E+03 0.  0.
         25    1    1    2    0    0 -0.99276019755E+01  0.14080293431E+02 -0.22314458989E+03  0.25394944367E+03  0.12000000000E+03 0.  0.
<mgrwt>
<rscale>  0 0.28534790E+03</rscale>
<asrwt>0</asrwt>
<pdfrwt beam="1">  1        2 0.15526394E+00 0.28534790E+03</pdfrwt>
<pdfrwt beam="2">  1       -2 0.31030734E-02 0.28534790E+03</pdfrwt>
<totfact> 0.10426091E+04</totfact>
</mgrwt>
</event>
<event>
 4    1  0.1728870E-004  0.2482833E+03  0.7818608E-02  0.1114395E+00
         -2   -1    0    0    0  501 -0.00000000000E+00  0.00000000000E+00  0.55278272827E+01  0.55278272827E+01  0.00000000000E+00 0.  1.
          2   -1    0    0  501    0  0.00000000000E+00 -0.00000000000E+00 -0.27879208111E+04  0.27879208111E+04  0.00000000000E+00 0.  1.
         25    1    1    2    0    0  0.27119126192E+02 -0.32715587213E+01 -0.15743485375E+04  0.15791515025E+04  0.12000000000E+03 0.  0.
         25    1    1    2    0    0 -0.27119126192E+02  0.32715587213E+01 -0.12080444463E+04  0.12142971359E+04  0.12000000000E+03 0.  0.
<mgrwt>
<rscale>  0 0.24828326E+03</rscale>
<asrwt>0</asrwt>
<pdfrwt beam="1">  1        2 0.42891192E+00 0.24828326E+03</pdfrwt>
<pdfrwt beam="2">  1       -2 0.85043294E-03 0.24828326E+03</pdfrwt>
<totfact> 0.74697645E+03</totfact>
</mgrwt>
</event>
<event>
 4    1  0.1728870E-004  0.2853417E+03  0.7818608E-02  0.1092807E+00
          1   -1    0    0  501    0  0.00000000000E+00  0.00000000000E+00  0.90757828993E+03  0.90757828993E+03  0.00000000000E+00 0. -1.
         -1   -1    0    0    0  501 -0.00000000000E+00 -0.00000000000E+00 -0.22427790325E+02  0.22427790325E+02  0.00000000000E+00 0. -1.
         25    1    1    2    0    0  0.74144099285E+02  0.19182856934E+02  0.41171593531E+03  0.43563211641E+03  0.12000000000E+03 0.  0.
         25    1    1    2    0    0 -0.74144099285E+02 -0.19182856934E+02  0.47343456430E+03  0.49437396385E+03  0.12000000000E+03 0.  0.
<mgrwt>
<rscale>  0 0.28534173E+03</rscale>
<asrwt>0</asrwt>
<pdfrwt beam="1">  1        1 0.13962740E+00 0.28534173E+03</pdfrwt>
<pdfrwt beam="2">  1       -1 0.34504300E-02 0.28534173E+03</pdfrwt>
<totfact> 0.57732005E+03</totfact>
</mgrwt>
</event>
<event>
 4    1  0.1728870E-004  0.2463066E+03  0.7818608E-02  0.1115661E+00
         -1   -1    0    0    0  501 -0.00000000000E+00  0.00000000000E+00  0.26687702348E+02  0.26687702348E+02  0.00000000000E+00 0. -1.
          1   -1    0    0  501    0  0.00000000000E+00 -0.00000000000E+00 -0.56830418598E+03  0.56830418598E+03  0.00000000000E+00 0. -1.
         25    1    1    2    0    0 -0.14729363843E+02 -0.40815580765E+01 -0.21503223895E+03  0.24672348300E+03  0.12000000000E+03 0.  0.
         25    1    1    2    0    0  0.14729363843E+02  0.40815580765E+01 -0.32658424468E+03  0.34826840533E+03  0.12000000000E+03 0.  0.
<mgrwt>
<rscale>  0 0.24630658E+03</rscale>
<asrwt>0</asrwt>
<pdfrwt beam="1">  1        1 0.87431402E-01 0.24630658E+03</pdfrwt>
<pdfrwt beam="2">  1       -1 0.41058009E-02 0.24630658E+03</pdfrwt>
<totfact> 0.88849472E+03</totfact>
</mgrwt>
</event>
<event>
 4    1  0.1728870E-004  0.2753933E+03  0.7818608E-02  0.1098232E+00
          2   -1    0    0  501    0  0.00000000000E+00  0.00000000000E+00  0.36377527974E+03  0.36377527974E+03  0.00000000000E+00 0.  1.
         -2   -1    0    0    0  501 -0.00000000000E+00 -0.00000000000E+00 -0.52121105955E+02  0.52121105955E+02  0.00000000000E+00 0.  1.
         25    1    1    2    0    0  0.54868540583E+01 -0.66147577112E+02  0.17461438987E+03  0.22202655849E+03  0.12000000000E+03 0.  0.
         25    1    1    2    0    0 -0.54868540583E+01  0.66147577112E+02  0.13703978391E+03  0.19386982720E+03  0.12000000000E+03 0.  0.
<mgrwt>
<rscale>  0 0.27539332E+03</rscale>
<asrwt>0</asrwt>
<pdfrwt beam="1">  1        2 0.55965426E-01 0.27539332E+03</pdfrwt>
<pdfrwt beam="2">  1       -2 0.80186319E-02 0.27539332E+03</pdfrwt>
<totfact> 0.82885561E+03</totfact>
</mgrwt>
</event>
<event>
 4    1  0.1728870E-004  0.4138930E+03  0.7818608E-02  0.1039072E+00
          2   -1    0    0  501    0  0.00000000000E+00  0.00000000000E+00  0.13626632274E+04  0.13626632274E+04  0.00000000000E+00 0.  1.
         -2   -1    0    0    0  501 -0.00000000000E+00 -0.00000000000E+00 -0.31428788370E+02  0.31428788370E+02  0.00000000000E+00 0.  1.
         25    1    1    2    0    0  0.11059820207E+03 -0.10154470083E+03  0.92397625694E+03  0.94375601294E+03  0.12000000000E+03 0.  0.
         25    1    1    2    0    0 -0.11059820207E+03  0.10154470083E+03  0.40725818210E+03  0.45033600284E+03  0.12000000000E+03 0.  0.
<mgrwt>
<rscale>  0 0.41389300E+03</rscale>
<asrwt>0</asrwt>
<pdfrwt beam="1">  1        2 0.20964045E+00 0.41389300E+03</pdfrwt>
<pdfrwt beam="2">  1       -2 0.48351993E-02 0.41389300E+03</pdfrwt>
<totfact> 0.33436698E+03</totfact>
</mgrwt>
</event>
<event>
 4    1  0.1728870E-004  0.2947578E+03  0.7818608E-02  0.1087891E+00
          4   -1    0    0  501    0  0.00000000000E+00  0.00000000000E+00  0.41666657462E+02  0.41666657462E+02  0.00000000000E+00 0. -1.
         -4   -1    0    0    0  501 -0.00000000000E+00 -0.00000000000E+00 -0.52129305433E+03  0.52129305433E+03  0.00000000000E+00 0. -1.
         25    1    1    2    0    0  0.17282044207E+02  0.75341627104E+01 -0.39920864084E+03  0.41728044715E+03  0.12000000000E+03 0.  0.
         25    1    1    2    0    0 -0.17282044207E+02 -0.75341627104E+01 -0.80417756031E+02  0.14567926464E+03  0.12000000000E+03 0.  0.
<mgrwt>
<rscale>  0 0.29475779E+03</rscale>
<asrwt>0</asrwt>
<pdfrwt beam="1">  1        4 0.64102551E-02 0.29475779E+03</pdfrwt>
<pdfrwt beam="2">  1       -4 0.80198930E-01 0.29475779E+03</pdfrwt>
<totfact> 0.42488819E+02</totfact>
</mgrwt>
</event>
<event>
 4    1  0.1728870E-004  0.2434321E+03  0.7818608E-02  0.1117527E+00
          1   -1    0    0  501    0  0.00000000000E+00  0.00000000000E+00  0.15396887360E+04  0.15396887360E+04  0.00000000000E+00 0. -1.
         -1   -1    0    0    0  501 -0.00000000000E+00 -0.00000000000E+00 -0.96219402195E+01  0.96219402195E+01  0.00000000000E+00 0. -1.
         25    1    1    2    0    0 -0.19214990122E+02 -0.65590453824E+01  0.75485813608E+03  0.76460646252E+03  0.12000000000E+03 0.  0.
         25    1    1    2    0    0  0.19214990122E+02  0.65590453824E+01  0.77520865966E+03  0.78470421366E+03  0.12000000000E+03 0.  0.
<mgrwt>
<rscale>  0 0.24343207E+03</rscale>
<asrwt>0</asrwt>
<pdfrwt beam="1">  1        1 0.23687499E+00 0.24343207E+03</pdfrwt>
<pdfrwt beam="2">  1       -1 0.14802997E-02 0.24343207E+03</pdfrwt>
<totfact> 0.71494937E+03</totfact>
</mgrwt>
</event>
<event>
 4    1  0.1728870E-004  0.2455740E+03  0.7818608E-02  0.1116134E+00
         -2   -1    0    0    0  501 -0.00000000000E+00  0.00000000000E+00  0.61415969440E+02  0.61415969440E+02  0.00000000000E+00 0.  1.
          2   -1    0    0  501    0  0.00000000000E+00 -0.00000000000E+00 -0.24548421399E+03  0.24548421399E+03  0.00000000000E+00 0.  1.
         25    1    1    2    0    0 -0.14636146146E+02  0.17721235242E+02 -0.76810429780E+02  0.14431944109E+03  0.12000000000E+03 0.  0.
         25    1    1    2    0    0  0.14636146146E+02 -0.17721235242E+02 -0.10725781477E+03  0.16258074235E+03  0.12000000000E+03 0.  0.
<mgrwt>
<rscale>  0 0.24557403E+03</rscale>
<asrwt>0</asrwt>
<pdfrwt beam="1">  1        2 0.37766803E-01 0.24557403E+03</pdfrwt>
<pdfrwt beam="2">  1       -2 0.94486104E-02 0.24557403E+03</pdfrwt>
<totfact> 0.97319988E+03</totfact>
</mgrwt>
</event>
<event>
 4    1  0.1728870E-004  0.2559877E+03  0.7818608E-02  0.1109578E+00
          1   -1    0    0  501    0  0.00000000000E+00  0.00000000000E+00  0.36511459983E+03  0.36511459983E+03  0.00000000000E+00 0. -1.
         -1   -1    0    0    0  501 -0.00000000000E+00 -0.00000000000E+00 -0.44869281455E+02  0.44869281455E+02  0.00000000000E+00 0. -1.
         25    1    1    2    0    0  0.21177787121E+02 -0.38690238335E+02  0.15038110737E+03  0.19738265036E+03  0.12000000000E+03 0.  0.
         25    1    1    2    0    0 -0.21177787121E+02  0.38690238335E+02  0.16986421100E+03  0.21260123092E+03  0.12000000000E+03 0.  0.
<mgrwt>
<rscale>  0 0.25598773E+03</rscale>
<asrwt>0</asrwt>
<pdfrwt beam="1">  1        1 0.56171475E-01 0.25598773E+03</pdfrwt>
<pdfrwt beam="2">  1       -1 0.69029666E-02 0.25598773E+03</pdfrwt>
<totfact> 0.72824373E+03</totfact>
</mgrwt>
</event>
<event>
 4    1  0.1728870E-004  0.2448111E+03  0.7818608E-02  0.1116629E+00
         -1   -1    0    0    0  501 -0.00000000000E+00  0.00000000000E+00  0.24568293122E+03  0.24568293122E+03  0.00000000000E+00 0.  1.
          1   -1    0    0  501    0  0.00000000000E+00 -0.00000000000E+00 -0.60985592271E+02  0.60985592271E+02  0.00000000000E+00 0.  1.
         25    1    1    2    0    0 -0.16092726631E+02 -0.96726395815E+01  0.73326853201E+02  0.14187798704E+03  0.12000000000E+03 0.  0.
         25    1    1    2    0    0  0.16092726631E+02  0.96726395815E+01  0.11137048574E+03  0.16479053645E+03  0.12000000000E+03 0.  0.
<mgrwt>
<rscale>  0 0.24481110E+03</rscale>
<asrwt>0</asrwt>
<pdfrwt beam="1">  1        1 0.93823989E-02 0.24481110E+03</pdfrwt>
<pdfrwt beam="2">  1       -1 0.37797374E-01 0.24481110E+03</pdfrwt>
<totfact> 0.47229063E+03</totfact>
</mgrwt>
</event>
<event>
 4    1  0.1728870E-004  0.2829381E+03  0.7818608E-02  0.1094095E+00
          1   -1    0    0  501    0  0.00000000000E+00  0.00000000000E+00  0.22816464865E+04  0.22816464865E+04  0.00000000000E+00 0. -1.
         -1   -1    0    0    0  501 -0.00000000000E+00 -0.00000000000E+00 -0.87715129788E+01  0.87715129788E+01  0.00000000000E+00 0. -1.
         25    1    1    2    0    0  0.66631347676E+02 -0.32168046128E+02  0.10410070076E+04  0.10505094524E+04  0.12000000000E+03 0.  0.
         25    1    1    2    0    0 -0.66631347676E+02  0.32168046128E+02  0.12318679659E+04  0.12399085470E+04  0.12000000000E+03 0.  0.
<mgrwt>
<rscale>  0 0.28293810E+03</rscale>
<asrwt>0</asrwt>
<pdfrwt beam="1">  1        1 0.35102206E+00 0.28293810E+03</pdfrwt>
<pdfrwt beam="2">  1       -1 0.13494653E-02 0.28293810E+03</pdfrwt>
<totfact> 0.26900397E+03</totfact>
</mgrwt>
</event>
<event>
 4    1  0.1728870E-004  0.2517612E+03  0.7818608E-02  0.1112197E+00
          2   -1    0    0  501    0  0.00000000000E+00  0.00000000000E+00  0.30668024874E+04  0.30668024874E+04  0.00000000000E+00 0.  1.
         -2   -1    0    0    0  501 -0.00000000000E+00 -0.00000000000E+00 -0.51669202819E+01  0.51669202819E+01  0.00000000000E+00 0.  1.
         25    1    1    2    0    0  0.23405980346E+02  0.14950809701E+02  0.18477289522E+04  0.18518298106E+04  0.12000000000E+03 0.  0.
         25    1    1    2    0    0 -0.23405980346E+02 -0.14950809701E+02  0.12139066149E+04  0.12201395971E+04  0.12000000000E+03 0.  0.
<mgrwt>
<rscale>  0 0.25176119E+03</rscale>
<asrwt>0</asrwt>
<pdfrwt beam="1">  1        2 0.47181431E+00 0.25176119E+03</pdfrwt>
<pdfrwt beam="2">  1       -2 0.79491326E-03 0.25176119E+03</pdfrwt>
<totfact> 0.56616793E+03</totfact>
</mgrwt>
</event>
<event>
 4    1  0.1728870E-004  0.3750462E+03  0.7818608E-02  0.1052780E+00
         -2   -1    0    0    0  501 -0.00000000000E+00  0.00000000000E+00  0.21260758673E+02  0.21260758673E+02  0.00000000000E+00 0. -1.
          2   -1    0    0  501    0  0.00000000000E+00 -0.00000000000E+00 -0.16539819197E+04  0.16539819197E+04  0.00000000000E+00 0. -1.
         25    1    1    2    0    0 -0.63111124739E+02 -0.10907264113E+03 -0.11285568568E+04  0.11418933549E+04  0.12000000000E+03 0.  0.
         25    1    1    2    0    0  0.63111124739E+02  0.10907264113E+03 -0.50416430422E+03  0.53334932339E+03  0.12000000000E+03 0.  0.
<mgrwt>
<rscale>  0 0.37504619E+03</rscale>
<asrwt>0</asrwt>
<pdfrwt beam="1">  1        2 0.25445877E+00 0.37504619E+03</pdfrwt>
<pdfrwt beam="2">  1       -2 0.32708858E-02 0.37504619E+03</pdfrwt>
<totfact> 0.42069073E+03</totfact>
</mgrwt>
</event>
<event>
 4    1  0.1728870E-004  0.2947606E+03  0.7818608E-02  0.1087889E+00
          1   -1    0    0  501    0  0.00000000000E+00  0.00000000000E+00  0.12288954730E+04  0.12288954730E+04  0.00000000000E+00 0. -1.
         -1   -1    0    0    0  501 -0.00000000000E+00 -0.00000000000E+00 -0.17675186522E+02  0.17675186522E+02  0.00000000000E+00 0. -1.
         25    1    1    2    0    0 -0.85340974431E+02 -0.40352863403E+01  0.62526121773E+03  0.64237913715E+03  0.12000000000E+03 0.  0.
         25    1    1    2    0    0  0.85340974431E+02  0.40352863403E+01  0.58595906872E+03  0.60419152234E+03  0.12000000000E+03 0.  0.
<mgrwt>
<rscale>  0 0.29476063E+03</rscale>
<asrwt>0</asrwt>
<pdfrwt beam="1">  1        1 0.18906078E+00 0.29476063E+03</pdfrwt>
<pdfrwt beam="2">  1       -1 0.27192604E-02 0.29476063E+03</pdfrwt>
<totfact> 0.47738670E+03</totfact>
</mgrwt>
</event>
<event>
 4    1  0.1728870E-004  0.2672917E+03  0.7818608E-02  0.1102840E+00
         -2   -1    0    0    0  501 -0.00000000000E+00  0.00000000000E+00  0.39996679435E+02  0.39996679435E+02  0.00000000000E+00 0.  1.
          2   -1    0    0  501    0  0.00000000000E+00 -0.00000000000E+00 -0.44656728119E+03  0.44656728119E+03  0.00000000000E+00 0.  1.
         25    1    1    2    0    0  0.24069298878E+02  0.16001818262E+02 -0.11000564797E+03  0.16533793250E+03  0.12000000000E+03 0.  0.
         25    1    1    2    0    0 -0.24069298878E+02 -0.16001818262E+02 -0.29656495378E+03  0.32122602813E+03  0.12000000000E+03 0.  0.
<mgrwt>
<rscale>  0 0.26729166E+03</rscale>
<asrwt>0</asrwt>
<pdfrwt beam="1">  1        2 0.68702661E-01 0.26729166E+03</pdfrwt>
<pdfrwt beam="2">  1       -2 0.61533351E-02 0.26729166E+03</pdfrwt>
<totfact> 0.99802694E+03</totfact>
</mgrwt>
</event>
<event>
 4    1  0.1728870E-004  0.3379980E+03  0.7818608E-02  0.1067652E+00
         -3   -1    0    0    0  501 -0.00000000000E+00  0.00000000000E+00  0.12639003618E+03  0.12639003618E+03  0.00000000000E+00 0.  1.
          3   -1    0    0  501    0  0.00000000000E+00 -0.00000000000E+00 -0.22597236745E+03  0.22597236745E+03  0.00000000000E+00 0.  1.
         25    1    1    2    0    0 -0.68808300716E+02 -0.51556423563E+01  0.51280096995E+02  0.14761711027E+03  0.12000000000E+03 0.  0.
         25    1    1    2    0    0  0.68808300716E+02  0.51556423563E+01 -0.15086242827E+03  0.20474529337E+03  0.12000000000E+03 0.  0.
<mgrwt>
<rscale>  0 0.33799796E+03</rscale>
<asrwt>0</asrwt>
<pdfrwt beam="1">  1        3 0.34764979E-01 0.33799796E+03</pdfrwt>
<pdfrwt beam="2">  1       -3 0.19444621E-01 0.33799796E+03</pdfrwt>
<totfact> 0.49618473E+02</totfact>
</mgrwt>
</event>
<event>
 4    1  0.1728870E-004  0.4091459E+03  0.7818608E-02  0.1040658E+00
         -1   -1    0    0    0  501 -0.00000000000E+00  0.00000000000E+00  0.68701373724E+02  0.68701373724E+02  0.00000000000E+00 0.  1.
          1   -1    0    0  501    0  0.00000000000E+00 -0.00000000000E+00 -0.60915938965E+03  0.60915938965E+03  0.00000000000E+00 0.  1.
         25    1    1    2    0    0 -0.14452318093E+03  0.75771269432E+02 -0.22273278538E+03  0.30106166940E+03  0.12000000000E+03 0.  0.
         25    1    1    2    0    0  0.14452318093E+03 -0.75771269432E+02 -0.31772523055E+03  0.37679909398E+03  0.12000000000E+03 0.  0.
<mgrwt>
<rscale>  0 0.40914588E+03</rscale>
<asrwt>0</asrwt>
<pdfrwt beam="1">  1        1 0.93716829E-01 0.40914588E+03</pdfrwt>
<pdfrwt beam="2">  1       -1 0.10569442E-01 0.40914588E+03</pdfrwt>
<totfact> 0.19317403E+03</totfact>
</mgrwt>
</event>
<event>
 4    1  0.1728870E-004  0.3244904E+03  0.7818608E-02  0.1073601E+00
         -2   -1    0    0    0  501 -0.00000000000E+00  0.00000000000E+00  0.13897843166E+03  0.13897843166E+03  0.00000000000E+00 0.  1.
          2   -1    0    0  501    0  0.00000000000E+00 -0.00000000000E+00 -0.18940715680E+03  0.18940715680E+03  0.00000000000E+00 0.  1.
         25    1    1    2    0    0  0.37699034255E+02  0.38751707419E+02  0.70795947112E+02  0.14944891481E+03  0.12000000000E+03 0.  0.
         25    1    1    2    0    0 -0.37699034255E+02 -0.38751707419E+02 -0.12122467225E+03  0.17893667364E+03  0.12000000000E+03 0.  0.
<mgrwt>
<rscale>  0 0.32449043E+03</rscale>
<asrwt>0</asrwt>
<pdfrwt beam="1">  1        2 0.29139562E-01 0.32449043E+03</pdfrwt>
<pdfrwt beam="2">  1       -2 0.21381297E-01 0.32449043E+03</pdfrwt>
<totfact> 0.33956171E+03</totfact>
</mgrwt>
</event>
<event>
 4    1  0.1728870E-004  0.3157956E+03  0.7818608E-02  0.1077601E+00
         -2   -1    0    0    0  501 -0.00000000000E+00  0.00000000000E+00  0.58316077382E+03  0.58316077382E+03  0.00000000000E+00 0. -1.
          2   -1    0    0  501    0  0.00000000000E+00 -0.00000000000E+00 -0.42752732345E+02  0.42752732345E+02  0.00000000000E+00 0. -1.
         25    1    1    2    0    0 -0.93355541270E+02  0.37694238635E+02  0.30962600189E+03  0.34699333388E+03  0.12000000000E+03 0.  0.
         25    1    1    2    0    0  0.93355541270E+02 -0.37694238635E+02  0.23078203959E+03  0.27892017229E+03  0.12000000000E+03 0.  0.
<mgrwt>
<rscale>  0 0.31579561E+03</rscale>
<asrwt>0</asrwt>
<pdfrwt beam="1">  1        2 0.65773438E-02 0.31579561E+03</pdfrwt>
<pdfrwt beam="2">  1       -2 0.89717037E-01 0.31579561E+03</pdfrwt>
<totfact> 0.12102294E+03</totfact>
</mgrwt>
</event>
<event>
 4    1  0.1728870E-004  0.3187515E+03  0.7818608E-02  0.1076225E+00
         -2   -1    0    0    0  501 -0.00000000000E+00  0.00000000000E+00  0.44225271289E+02  0.44225271289E+02  0.00000000000E+00 0.  1.
          2   -1    0    0  501    0  0.00000000000E+00 -0.00000000000E+00 -0.57434659860E+03  0.57434659860E+03  0.00000000000E+00 0.  1.
         25    1    1    2    0    0  0.61360307523E+02 -0.11329538430E+02 -0.10145934356E+03  0.16907821910E+03  0.12000000000E+03 0.  0.
         25    1    1    2    0    0 -0.61360307523E+02  0.11329538430E+02 -0.42866198376E+03  0.44949365079E+03  0.12000000000E+03 0.  0.
<mgrwt>
<rscale>  0 0.31875153E+03</rscale>
<asrwt>0</asrwt>
<pdfrwt beam="1">  1        2 0.88361011E-01 0.31875153E+03</pdfrwt>
<pdfrwt beam="2">  1       -2 0.68038882E-02 0.31875153E+03</pdfrwt>
<totfact> 0.64765805E+03</totfact>
</mgrwt>
</event>
<event>
 4    1  0.1728870E-004  0.2691461E+03  0.7818608E-02  0.1101769E+00
          1   -1    0    0  501    0  0.00000000000E+00  0.00000000000E+00  0.17817488114E+03  0.17817488114E+03  0.00000000000E+00 0.  1.
         -1   -1    0    0    0  501 -0.00000000000E+00 -0.00000000000E+00 -0.10164119748E+03  0.10164119748E+03  0.00000000000E+00 0.  1.
         25    1    1    2    0    0  0.43018200706E+02  0.34026321956E+02  0.10729975894E+02  0.13237631420E+03  0.12000000000E+03 0.  0.
         25    1    1    2    0    0 -0.43018200706E+02 -0.34026321956E+02  0.65803707763E+02  0.14743976442E+03  0.12000000000E+03 0.  0.
<mgrwt>
<rscale>  0 0.26914612E+03</rscale>
<asrwt>0</asrwt>
<pdfrwt beam="1">  1        1 0.27411520E-01 0.26914612E+03</pdfrwt>
<pdfrwt beam="2">  1       -1 0.15637107E-01 0.26914612E+03</pdfrwt>
<totfact> 0.50695164E+03</totfact>
</mgrwt>
</event>
<event>
 4    1  0.1728870E-004  0.3090692E+03  0.7818608E-02  0.1080793E+00
          1   -1    0    0  501    0  0.00000000000E+00  0.00000000000E+00  0.10733571397E+04  0.10733571397E+04  0.00000000000E+00 0. -1.
         -1   -1    0    0    0  501 -0.00000000000E+00 -0.00000000000E+00 -0.22248827224E+02  0.22248827224E+02  0.00000000000E+00 0. -1.
         25    1    1    2    0    0 -0.71423446940E+02  0.25918409305E+02  0.30969988143E+03  0.34071555478E+03  0.12000000000E+03 0.  0.
         25    1    1    2    0    0  0.71423446940E+02 -0.25918409305E+02  0.74140843102E+03  0.75489041212E+03  0.12000000000E+03 0.  0.
<mgrwt>
<rscale>  0 0.30906917E+03</rscale>
<asrwt>0</asrwt>
<pdfrwt beam="1">  1        1 0.16513183E+00 0.30906917E+03</pdfrwt>
<pdfrwt beam="2">  1       -1 0.34228973E-02 0.30906917E+03</pdfrwt>
<totfact> 0.43847480E+03</totfact>
</mgrwt>
</event>
<event>
 4    1  0.1728870E-004  0.2753413E+03  0.7818608E-02  0.1098261E+00
         -2   -1    0    0    0  501 -0.00000000000E+00  0.00000000000E+00  0.14318588514E+04  0.14318588514E+04  0.00000000000E+00 0.  1.
          2   -1    0    0  501    0  0.00000000000E+00 -0.00000000000E+00 -0.13236783017E+02  0.13236783017E+02  0.00000000000E+00 0.  1.
         25    1    1    2    0    0 -0.63533836122E+02  0.20318845600E+01  0.59049253035E+03  0.60590602018E+03  0.12000000000E+03 0.  0.
         25    1    1    2    0    0  0.63533836122E+02 -0.20318845600E+01  0.82812953806E+03  0.83918961427E+03  0.12000000000E+03 0.  0.
<mgrwt>
<rscale>  0 0.27534128E+03</rscale>
<asrwt>0</asrwt>
<pdfrwt beam="1">  1        2 0.20364293E-02 0.27534128E+03</pdfrwt>
<pdfrwt beam="2">  1       -2 0.22028585E+00 0.27534128E+03</pdfrwt>
<totfact> 0.57652343E+02</totfact>
</mgrwt>
</event>
<event>
 4    1  0.1728870E-004  0.2708237E+03  0.7818608E-02  0.1100809E+00
         -1   -1    0    0    0  501 -0.00000000000E+00  0.00000000000E+00  0.13749663651E+02  0.13749663651E+02  0.00000000000E+00 0.  1.
          1   -1    0    0  501    0  0.00000000000E+00 -0.00000000000E+00 -0.13335866897E+04  0.13335866897E+04  0.00000000000E+00 0.  1.
         25    1    1    2    0    0  0.32331472897E+02 -0.39669937765E+02 -0.84048550487E+03  0.85054977044E+03  0.12000000000E+03 0.  0.
         25    1    1    2    0    0 -0.32331472897E+02  0.39669937765E+02 -0.47935152118E+03  0.49678658291E+03  0.12000000000E+03 0.  0.
<mgrwt>
<rscale>  0 0.27082369E+03</rscale>
<asrwt>0</asrwt>
<pdfrwt beam="1">  1        1 0.20516722E+00 0.27082369E+03</pdfrwt>
<pdfrwt beam="2">  1       -1 0.21153325E-02 0.27082369E+03</pdfrwt>
<totfact> 0.58439030E+03</totfact>
</mgrwt>
</event>
<event>
 4    1  0.1728870E-004  0.3591173E+03  0.7818608E-02  0.1058934E+00
          2   -1    0    0  501    0  0.00000000000E+00  0.00000000000E+00  0.14415394452E+04  0.14415394452E+04  0.00000000000E+00 0.  1.
         -2   -1    0    0    0  501 -0.00000000000E+00 -0.00000000000E+00 -0.22365882201E+02  0.22365882201E+02  0.00000000000E+00 0.  1.
         25    1    1    2    0    0 -0.61054002930E+02  0.58342083767E+02  0.28772551429E+03  0.32298198338E+03  0.12000000000E+03 0.  0.
         25    1    1    2    0    0  0.61054002930E+02 -0.58342083767E+02  0.11314480487E+04  0.11409233440E+04  0.12000000000E+03 0.  0.
<mgrwt>
<rscale>  0 0.35911726E+03</rscale>
<asrwt>0</asrwt>
<pdfrwt beam="1">  1        2 0.22177523E+00 0.35911726E+03</pdfrwt>
<pdfrwt beam="2">  1       -2 0.34409061E-02 0.35911726E+03</pdfrwt>
<totfact> 0.50743452E+03</totfact>
</mgrwt>
</event>
<event>
 4    1  0.1728870E-004  0.2917874E+03  0.7818608E-02  0.1089420E+00
          4   -1    0    0  501    0  0.00000000000E+00  0.00000000000E+00  0.39986226635E+03  0.39986226635E+03  0.00000000000E+00 0.  1.
         -4   -1    0    0    0  501 -0.00000000000E+00 -0.00000000000E+00 -0.53230765110E+02  0.53230765110E+02  0.00000000000E+00 0.  1.
         25    1    1    2    0    0 -0.18843741508E+02 -0.80537885753E+02  0.18356161916E+03  0.23438495187E+03  0.12000000000E+03 0.  0.
         25    1    1    2    0    0  0.18843741508E+02  0.80537885753E+02  0.16306988208E+03  0.21870807959E+03  0.12000000000E+03 0.  0.
<mgrwt>
<rscale>  0 0.29178742E+03</rscale>
<asrwt>0</asrwt>
<pdfrwt beam="1">  1        4 0.61517270E-01 0.29178742E+03</pdfrwt>
<pdfrwt beam="2">  1       -4 0.81893487E-02 0.29178742E+03</pdfrwt>
<totfact> 0.50425488E+02</totfact>
</mgrwt>
</event>
<event>
 4    1  0.1728870E-004  0.2696561E+03  0.7818608E-02  0.1101477E+00
          2   -1    0    0  501    0  0.00000000000E+00  0.00000000000E+00  0.24370002884E+04  0.24370002884E+04  0.00000000000E+00 0. -1.
         -2   -1    0    0    0  501 -0.00000000000E+00 -0.00000000000E+00 -0.74594165903E+01  0.74594165903E+01  0.00000000000E+00 0. -1.
         25    1    1    2    0    0  0.57150689822E+02 -0.21397400754E+02  0.11478172667E+04  0.11556853065E+04  0.12000000000E+03 0.  0.
         25    1    1    2    0    0 -0.57150689822E+02  0.21397400754E+02  0.12817236051E+04  0.12887743984E+04  0.12000000000E+03 0.  0.
<mgrwt>
<rscale>  0 0.26965608E+03</rscale>
<asrwt>0</asrwt>
<pdfrwt beam="1">  1        2 0.37492249E+00 0.26965608E+03</pdfrwt>
<pdfrwt beam="2">  1       -2 0.11476045E-02 0.26965608E+03</pdfrwt>
<totfact> 0.75749456E+03</totfact>
</mgrwt>
</event>
<event>
 4    1  0.1728870E-004  0.3550988E+03  0.7818608E-02  0.1060542E+00
          2   -1    0    0  501    0  0.00000000000E+00  0.00000000000E+00  0.32030340990E+03  0.32030340990E+03  0.00000000000E+00 0. -1.
         -2   -1    0    0    0  501 -0.00000000000E+00 -0.00000000000E+00 -0.98418536445E+02  0.98418536445E+02  0.00000000000E+00 0. -1.
         25    1    1    2    0    0 -0.12190646516E+03  0.46048191712E+02  0.12500231028E+03  0.21681143831E+03  0.12000000000E+03 0.  0.
         25    1    1    2    0    0  0.12190646516E+03 -0.46048191712E+02  0.96882563178E+02  0.20191050804E+03  0.12000000000E+03 0.  0.
<mgrwt>
<rscale>  0 0.35509882E+03</rscale>
<asrwt>0</asrwt>
<pdfrwt beam="1">  1        2 0.49277447E-01 0.35509882E+03</pdfrwt>
<pdfrwt beam="2">  1       -2 0.15141313E-01 0.35509882E+03</pdfrwt>
<totfact> 0.34443994E+03</totfact>
</mgrwt>
</event>
<event>
 4    1  0.1728870E-004  0.3091813E+03  0.7818608E-02  0.1080739E+00
          2   -1    0    0  501    0  0.00000000000E+00  0.00000000000E+00  0.53497064402E+03  0.53497064402E+03  0.00000000000E+00 0.  1.
         -2   -1    0    0    0  501 -0.00000000000E+00 -0.00000000000E+00 -0.44672111258E+02  0.44672111258E+02  0.00000000000E+00 0.  1.
         25    1    1    2    0    0  0.49686175691E+02  0.83757423469E+02  0.25222538363E+03  0.29580680552E+03  0.12000000000E+03 0.  0.
         25    1    1    2    0    0 -0.49686175691E+02 -0.83757423469E+02  0.23807314912E+03  0.28383594976E+03  0.12000000000E+03 0.  0.
<mgrwt>
<rscale>  0 0.30918129E+03</rscale>
<asrwt>0</asrwt>
<pdfrwt beam="1">  1        2 0.82303171E-01 0.30918129E+03</pdfrwt>
<pdfrwt beam="2">  1       -2 0.68726329E-02 0.30918129E+03</pdfrwt>
<totfact> 0.69114301E+03</totfact>
</mgrwt>
</event>
<event>
 4    1  0.1728870E-004  0.2776055E+03  0.7818608E-02  0.1097004E+00
         -2   -1    0    0    0  501 -0.00000000000E+00  0.00000000000E+00  0.13642162622E+02  0.13642162622E+02  0.00000000000E+00 0. -1.
          2   -1    0    0  501    0  0.00000000000E+00 -0.00000000000E+00 -0.14122545620E+04  0.14122545620E+04  0.00000000000E+00 0. -1.
         25    1    1    2    0    0 -0.13015557835E+02 -0.19443541700E+02 -0.36175549353E+03  0.38185663954E+03  0.12000000000E+03 0.  0.
         25    1    1    2    0    0  0.13015557835E+02  0.19443541700E+02 -0.10368569059E+04  0.10440400851E+04  0.12000000000E+03 0.  0.
<mgrwt>
<rscale>  0 0.27760552E+03</rscale>
<asrwt>0</asrwt>
<pdfrwt beam="1">  1        2 0.21727001E+00 0.27760552E+03</pdfrwt>
<pdfrwt beam="2">  1       -2 0.20987935E-02 0.27760552E+03</pdfrwt>
<totfact> 0.10957096E+04</totfact>
</mgrwt>
</event>
<event>
 4    1  0.1728870E-004  0.2811108E+03  0.7818608E-02  0.1095084E+00
         -1   -1    0    0    0  501 -0.00000000000E+00  0.00000000000E+00  0.19774644885E+03  0.19774644885E+03  0.00000000000E+00 0. -1.
          1   -1    0    0  501    0  0.00000000000E+00 -0.00000000000E+00 -0.99904836095E+02  0.99904836095E+02  0.00000000000E+00 0. -1.
         25    1    1    2    0    0  0.23045151414E+02 -0.67553306592E+02  0.66036656580E+02  0.15445183148E+03  0.12000000000E+03 0.  0.
         25    1    1    2    0    0 -0.23045151414E+02  0.67553306592E+02  0.31804956175E+02  0.14319945346E+03  0.12000000000E+03 0.  0.
<mgrwt>
<rscale>  0 0.28111084E+03</rscale>
<asrwt>0</asrwt>
<pdfrwt beam="1">  1        1 0.15369975E-01 0.28111084E+03</pdfrwt>
<pdfrwt beam="2">  1       -1 0.30422531E-01 0.28111084E+03</pdfrwt>
<totfact> 0.35837824E+03</totfact>
</mgrwt>
</event>
<event>
 4    1  0.1728870E-004  0.2751366E+03  0.7818608E-02  0.1098375E+00
          2   -1    0    0  501    0  0.00000000000E+00  0.00000000000E+00  0.79919041984E+03  0.79919041984E+03  0.00000000000E+00 0. -1.
         -2   -1    0    0    0  501 -0.00000000000E+00 -0.00000000000E+00 -0.23680258196E+02  0.23680258196E+02  0.00000000000E+00 0. -1.
         25    1    1    2    0    0 -0.53361624120E+02  0.23417162705E+02  0.28725407333E+03  0.31671869077E+03  0.12000000000E+03 0.  0.
         25    1    1    2    0    0  0.53361624120E+02 -0.23417162705E+02  0.48825608831E+03  0.50615198727E+03  0.12000000000E+03 0.  0.
<mgrwt>
<rscale>  0 0.27513659E+03</rscale>
<asrwt>0</asrwt>
<pdfrwt beam="1">  1        2 0.12295235E+00 0.27513659E+03</pdfrwt>
<pdfrwt beam="2">  1       -2 0.36431172E-02 0.27513659E+03</pdfrwt>
<totfact> 0.11203122E+04</totfact>
</mgrwt>
</event>
<event>
 4    1  0.1728870E-004  0.2598838E+03  0.7818608E-02  0.1107213E+00
         -2   -1    0    0    0  501 -0.00000000000E+00  0.00000000000E+00  0.12303639697E+02  0.12303639697E+02  0.00000000000E+00 0.  1.
          2   -1    0    0  501    0  0.00000000000E+00 -0.00000000000E+00 -0.13723494468E+04  0.13723494468E+04  0.00000000000E+00 0.  1.
         25    1    1    2    0    0  0.32360980136E+02  0.33351334861E+02 -0.58392005328E+03  0.59793157902E+03  0.12000000000E+03 0.  0.
         25    1    1    2    0    0 -0.32360980136E+02 -0.33351334861E+02 -0.77612575383E+03  0.78672150748E+03  0.12000000000E+03 0.  0.
<mgrwt>
<rscale>  0 0.25988377E+03</rscale>
<asrwt>0</asrwt>
<pdfrwt beam="1">  1        2 0.21113048E+00 0.25988377E+03</pdfrwt>
<pdfrwt beam="2">  1       -2 0.18928694E-02 0.25988377E+03</pdfrwt>
<totfact> 0.13384112E+04</totfact>
</mgrwt>
</event>
<event>
 4    1  0.1728870E-004  0.2843636E+03  0.7818608E-02  0.1093329E+00
         -1   -1    0    0    0  501 -0.00000000000E+00  0.00000000000E+00  0.11607159790E+03  0.11607159790E+03  0.00000000000E+00 0.  1.
          1   -1    0    0  501    0  0.00000000000E+00 -0.00000000000E+00 -0.17416545519E+03  0.17416545519E+03  0.00000000000E+00 0.  1.
         25    1    1    2    0    0  0.94679816365E+01 -0.75329969173E+02 -0.21728346323E+02  0.14365363889E+03  0.12000000000E+03 0.  0.
         25    1    1    2    0    0 -0.94679816365E+01  0.75329969173E+02 -0.36365510971E+02  0.14658341421E+03  0.12000000000E+03 0.  0.
<mgrwt>
<rscale>  0 0.28436359E+03</rscale>
<asrwt>0</asrwt>
<pdfrwt beam="1">  1        1 0.26794685E-01 0.28436359E+03</pdfrwt>
<pdfrwt beam="2">  1       -1 0.17857169E-01 0.28436359E+03</pdfrwt>
<totfact> 0.42262950E+03</totfact>
</mgrwt>
</event>
<event>
 4    1  0.1728870E-004  0.2900763E+03  0.7818608E-02  0.1090309E+00
          3   -1    0    0  501    0  0.00000000000E+00  0.00000000000E+00  0.49605458086E+03  0.49605458086E+03  0.00000000000E+00 0.  1.
         -3   -1    0    0    0  501 -0.00000000000E+00 -0.00000000000E+00 -0.42406749927E+02  0.42406749927E+02  0.00000000000E+00 0.  1.
         25    1    1    2    0    0 -0.35390611050E+02  0.67717414879E+02  0.27925896500E+03  0.31340662591E+03  0.12000000000E+03 0.  0.
         25    1    1    2    0    0  0.35390611050E+02 -0.67717414879E+02  0.17438886593E+03  0.22505470488E+03  0.12000000000E+03 0.  0.
<mgrwt>
<rscale>  0 0.29007628E+03</rscale>
<asrwt>0</asrwt>
<pdfrwt beam="1">  1        3 0.76316085E-01 0.29007628E+03</pdfrwt>
<pdfrwt beam="2">  1       -3 0.65241157E-02 0.29007628E+03</pdfrwt>
<totfact> 0.62781134E+02</totfact>
</mgrwt>
</event>
<event>
 4    1  0.1728870E-004  0.3342970E+03  0.7818608E-02  0.1069251E+00
          1   -1    0    0  501    0  0.00000000000E+00  0.00000000000E+00  0.78138687208E+02  0.78138687208E+02  0.00000000000E+00 0.  1.
         -1   -1    0    0    0  501 -0.00000000000E+00 -0.00000000000E+00 -0.35755177332E+03  0.35755177332E+03  0.00000000000E+00 0.  1.
         25    1    1    2    0    0  0.27078434169E+02 -0.11257271569E+03 -0.15472387104E+03  0.22747600793E+03  0.12000000000E+03 0.  0.
         25    1    1    2    0    0 -0.27078434169E+02  0.11257271569E+03 -0.12468921507E+03  0.20821445259E+03  0.12000000000E+03 0.  0.
<mgrwt>
<rscale>  0 0.33429703E+03</rscale>
<asrwt>0</asrwt>
<pdfrwt beam="1">  1        1 0.12021336E-01 0.33429703E+03</pdfrwt>
<pdfrwt beam="2">  1       -1 0.55007966E-01 0.33429703E+03</pdfrwt>
<totfact> 0.17232272E+03</totfact>
</mgrwt>
</event>
<event>
 4    1  0.1728870E-004  0.2724477E+03  0.7818608E-02  0.1099887E+00
          1   -1    0    0  501    0  0.00000000000E+00  0.00000000000E+00  0.20886842794E+03  0.20886842794E+03  0.00000000000E+00 0.  1.
         -1   -1    0    0    0  501 -0.00000000000E+00 -0.00000000000E+00 -0.88845084993E+02  0.88845084993E+02  0.00000000000E+00 0.  1.
         25    1    1    2    0    0 -0.62105640680E+02  0.17155520008E+02  0.57446471373E+02  0.14782259484E+03  0.12000000000E+03 0.  0.
         25    1    1    2    0    0  0.62105640680E+02 -0.17155520008E+02  0.62576871569E+02  0.14989091809E+03  0.12000000000E+03 0.  0.
<mgrwt>
<rscale>  0 0.27244767E+03</rscale>
<asrwt>0</asrwt>
<pdfrwt beam="1">  1        1 0.32133604E-01 0.27244767E+03</pdfrwt>
<pdfrwt beam="2">  1       -1 0.13668475E-01 0.27244767E+03</pdfrwt>
<totfact> 0.51351582E+03</totfact>
</mgrwt>
</event>
<event>
 4    1  0.1728870E-004  0.3045470E+03  0.7818608E-02  0.1082989E+00
          2   -1    0    0  501    0  0.00000000000E+00  0.00000000000E+00  0.29962019341E+03  0.29962019341E+03  0.00000000000E+00 0. -1.
         -2   -1    0    0    0  501 -0.00000000000E+00 -0.00000000000E+00 -0.77388717888E+02  0.77388717888E+02  0.00000000000E+00 0. -1.
         25    1    1    2    0    0 -0.19381080715E+02  0.68800819421E+02  0.18619252671E+03  0.23275918037E+03  0.12000000000E+03 0.  0.
         25    1    1    2    0    0  0.19381080715E+02 -0.68800819421E+02  0.36038948815E+02  0.14424973093E+03  0.12000000000E+03 0.  0.
<mgrwt>
<rscale>  0 0.30454703E+03</rscale>
<asrwt>0</asrwt>
<pdfrwt beam="1">  1        2 0.46095414E-01 0.30454703E+03</pdfrwt>
<pdfrwt beam="2">  1       -2 0.11905957E-01 0.30454703E+03</pdfrwt>
<totfact> 0.54716277E+03</totfact>
</mgrwt>
</event>
<event>
 4    1  0.1728870E-004  0.4409109E+03  0.7818608E-02  0.1030468E+00
          2   -1    0    0  501    0  0.00000000000E+00  0.00000000000E+00  0.43125540034E+03  0.43125540034E+03  0.00000000000E+00 0.  1.
         -2   -1    0    0    0  501 -0.00000000000E+00 -0.00000000000E+00 -0.11269564521E+03  0.11269564521E+03  0.00000000000E+00 0.  1.
         25    1    1    2    0    0 -0.11435661606E+02 -0.63370562482E+02  0.37315493680E+03  0.39722941659E+03  0.12000000000E+03 0.  0.
         25    1    1    2    0    0  0.11435661606E+02  0.63370562482E+02 -0.54595181661E+02  0.14672162897E+03  0.12000000000E+03 0.  0.
<mgrwt>
<rscale>  0 0.44091090E+03</rscale>
<asrwt>0</asrwt>
<pdfrwt beam="1">  1        2 0.66346984E-01 0.44091090E+03</pdfrwt>
<pdfrwt beam="2">  1       -2 0.17337792E-01 0.44091090E+03</pdfrwt>
<totfact> 0.19843402E+03</totfact>
</mgrwt>
</event>
<event>
 4    1  0.1728870E-004  0.2536938E+03  0.7818608E-02  0.1110992E+00
         -2   -1    0    0    0  501 -0.00000000000E+00  0.00000000000E+00  0.76303405324E+02  0.76303405324E+02  0.00000000000E+00 0.  1.
          2   -1    0    0  501    0  0.00000000000E+00 -0.00000000000E+00 -0.21087045271E+03  0.21087045271E+03  0.00000000000E+00 0.  1.
         25    1    1    2    0    0  0.15517074408E+02 -0.31343326776E+02 -0.42822748202E+02  0.13212483300E+03  0.12000000000E+03 0.  0.
         25    1    1    2    0    0 -0.15517074408E+02  0.31343326776E+02 -0.91744299183E+02  0.15504902503E+03  0.12000000000E+03 0.  0.
<mgrwt>
<rscale>  0 0.25369378E+03</rscale>
<asrwt>0</asrwt>
<pdfrwt beam="1">  1        2 0.32441607E-01 0.25369378E+03</pdfrwt>
<pdfrwt beam="2">  1       -2 0.11738986E-01 0.25369378E+03</pdfrwt>
<totfact> 0.81312232E+03</totfact>
</mgrwt>
</event>
<event>
 4    1  0.1728870E-004  0.2684461E+03  0.7818608E-02  0.1102172E+00
          2   -1    0    0  501    0  0.00000000000E+00  0.00000000000E+00  0.23200253760E+03  0.23200253760E+03  0.00000000000E+00 0.  1.
         -2   -1    0    0    0  501 -0.00000000000E+00 -0.00000000000E+00 -0.77653555626E+02  0.77653555626E+02  0.00000000000E+00 0.  1.
         25    1    1    2    0    0 -0.52495289820E+02  0.23884621801E+02  0.57544713157E+02  0.14504352665E+03  0.12000000000E+03 0.  0.
         25    1    1    2    0    0  0.52495289820E+02 -0.23884621801E+02  0.96804268812E+02  0.16461256657E+03  0.12000000000E+03 0.  0.
<mgrwt>
<rscale>  0 0.26844606E+03</rscale>
<asrwt>0</asrwt>
<pdfrwt beam="1">  1        2 0.35692698E-01 0.26844606E+03</pdfrwt>
<pdfrwt beam="2">  1       -2 0.11946701E-01 0.26844606E+03</pdfrwt>
<totfact> 0.71422134E+03</totfact>
</mgrwt>
</event>
<event>
 4    1  0.1728870E-004  0.2615956E+03  0.7818608E-02  0.1106188E+00
          1   -1    0    0  501    0  0.00000000000E+00  0.00000000000E+00  0.11191269448E+04  0.11191269448E+04  0.00000000000E+00 0.  1.
         -1   -1    0    0    0  501 -0.00000000000E+00 -0.00000000000E+00 -0.15286977696E+02  0.15286977696E+02  0.00000000000E+00 0.  1.
         25    1    1    2    0    0 -0.34820554518E+02  0.29413267403E+02  0.44303476967E+03  0.46125634787E+03  0.12000000000E+03 0.  0.
         25    1    1    2    0    0  0.34820554518E+02 -0.29413267403E+02  0.66080519742E+03  0.67315757461E+03  0.12000000000E+03 0.  0.
<mgrwt>
<rscale>  0 0.26159563E+03</rscale>
<asrwt>0</asrwt>
<pdfrwt beam="1">  1        1 0.17217331E+00 0.26159563E+03</pdfrwt>
<pdfrwt beam="2">  1       -1 0.23518436E-02 0.26159563E+03</pdfrwt>
<totfact> 0.70488881E+03</totfact>
</mgrwt>
</event>
<event>
 4    1  0.1728870E-004  0.2486039E+03  0.7818608E-02  0.1114190E+00
         -3   -1    0    0    0  501 -0.00000000000E+00  0.00000000000E+00  0.37442575799E+02  0.37442575799E+02  0.00000000000E+00 0.  1.
          3   -1    0    0  501    0  0.00000000000E+00 -0.00000000000E+00 -0.41265794205E+03  0.41265794205E+03  0.00000000000E+00 0.  1.
         25    1    1    2    0    0  0.15943247462E+02  0.22108460741E+02 -0.21938231347E+03  0.25153840788E+03  0.12000000000E+03 0.  0.
         25    1    1    2    0    0 -0.15943247462E+02 -0.22108460741E+02 -0.15583305279E+03  0.19856210997E+03  0.12000000000E+03 0.  0.
<mgrwt>
<rscale>  0 0.24860391E+03</rscale>
<asrwt>0</asrwt>
<pdfrwt beam="1">  1        3 0.63485836E-01 0.24860391E+03</pdfrwt>
<pdfrwt beam="2">  1       -3 0.57603964E-02 0.24860391E+03</pdfrwt>
<totfact> 0.11191590E+03</totfact>
</mgrwt>
</event>
<event>
 4    1  0.1728870E-004  0.3925939E+03  0.7818608E-02  0.1046375E+00
         -1   -1    0    0    0  501 -0.00000000000E+00  0.00000000000E+00  0.45915643085E+02  0.45915643085E+02  0.00000000000E+00 0.  1.
          1   -1    0    0  501    0  0.00000000000E+00 -0.00000000000E+00 -0.83920165324E+03  0.83920165324E+03  0.00000000000E+00 0.  1.
         25    1    1    2    0    0  0.70575485469E+02 -0.88506757718E+02 -0.15679018529E+03  0.22759065779E+03  0.12000000000E+03 0.  0.
         25    1    1    2    0    0 -0.70575485469E+02  0.88506757718E+02 -0.63649582486E+03  0.65752663853E+03  0.12000000000E+03 0.  0.
<mgrwt>
<rscale>  0 0.39259385E+03</rscale>
<asrwt>0</asrwt>
<pdfrwt beam="1">  1        1 0.12910793E+00 0.39259385E+03</pdfrwt>
<pdfrwt beam="2">  1       -1 0.70639462E-02 0.39259385E+03</pdfrwt>
<totfact> 0.22330846E+03</totfact>
</mgrwt>
</event>
<event>
 4    1  0.1728870E-004  0.2425007E+03  0.7818608E-02  0.1118138E+00
          1   -1    0    0  501    0  0.00000000000E+00  0.00000000000E+00  0.12886175550E+02  0.12886175550E+02  0.00000000000E+00 0.  1.
         -1   -1    0    0    0  501 -0.00000000000E+00 -0.00000000000E+00 -0.11408855375E+04  0.11408855375E+04  0.00000000000E+00 0.  1.
         25    1    1    2    0    0 -0.11967345305E+02  0.20074611120E-01 -0.50411297507E+03  0.51833686864E+03  0.12000000000E+03 0.  0.
         25    1    1    2    0    0  0.11967345305E+02 -0.20074611120E-01 -0.62388638689E+03  0.63543484442E+03  0.12000000000E+03 0.  0.
<mgrwt>
<rscale>  0 0.24250073E+03</rscale>
<asrwt>0</asrwt>
<pdfrwt beam="1">  1        1 0.19824889E-02 0.24250073E+03</pdfrwt>
<pdfrwt beam="2">  1       -1 0.17552082E+00 0.24250073E+03</pdfrwt>
<totfact> 0.15004785E+03</totfact>
</mgrwt>
</event>
<event>
 4    1  0.1728870E-004  0.3736405E+03  0.7818608E-02  0.1053310E+00
         -1   -1    0    0    0  501 -0.00000000000E+00  0.00000000000E+00  0.67054482389E+02  0.67054482389E+02  0.00000000000E+00 0.  1.
          1   -1    0    0  501    0  0.00000000000E+00 -0.00000000000E+00 -0.52049923662E+03  0.52049923662E+03  0.00000000000E+00 0.  1.
         25    1    1    2    0    0  0.40751662083E+02 -0.12964629530E+03 -0.15582067496E+03  0.23905845016E+03  0.12000000000E+03 0.  0.
         25    1    1    2    0    0 -0.40751662083E+02  0.12964629530E+03 -0.29762407927E+03  0.34849526885E+03  0.12000000000E+03 0.  0.
<mgrwt>
<rscale>  0 0.37364051E+03</rscale>
<asrwt>0</asrwt>
<pdfrwt beam="1">  1        1 0.80076805E-01 0.37364051E+03</pdfrwt>
<pdfrwt beam="2">  1       -1 0.10316074E-01 0.37364051E+03</pdfrwt>
<totfact> 0.24930983E+03</totfact>
</mgrwt>
</event>
<event>
 4    1  0.1728870E-004  0.3053213E+03  0.7818608E-02  0.1082610E+00
          2   -1    0    0  501    0  0.00000000000E+00  0.00000000000E+00  0.16588839717E+03  0.16588839717E+03  0.00000000000E+00 0.  1.
         -2   -1    0    0    0  501 -0.00000000000E+00 -0.00000000000E+00 -0.14048767866E+03  0.14048767866E+03  0.00000000000E+00 0.  1.
         25    1    1    2    0    0 -0.82637085963E+02  0.33648365574E+02  0.43533946854E+02  0.15574435788E+03  0.12000000000E+03 0.  0.
         25    1    1    2    0    0  0.82637085963E+02 -0.33648365574E+02 -0.18133228349E+02  0.15063171795E+03  0.12000000000E+03 0.  0.
<mgrwt>
<rscale>  0 0.30532131E+03</rscale>
<asrwt>0</asrwt>
<pdfrwt beam="1">  1        2 0.25521292E-01 0.30532131E+03</pdfrwt>
<pdfrwt beam="2">  1       -2 0.21613489E-01 0.30532131E+03</pdfrwt>
<totfact> 0.38562462E+03</totfact>
</mgrwt>
</event>
<event>
 4    1  0.1728870E-004  0.3392017E+03  0.7818608E-02  0.1067136E+00
          1   -1    0    0  501    0  0.00000000000E+00  0.00000000000E+00  0.42314143590E+03  0.42314143590E+03  0.00000000000E+00 0. -1.
         -1   -1    0    0    0  501 -0.00000000000E+00 -0.00000000000E+00 -0.67978315045E+02  0.67978315045E+02  0.00000000000E+00 0. -1.
         25    1    1    2    0    0  0.30967467512E+02  0.46176863662E+02  0.23853846396E+02  0.13438858869E+03  0.12000000000E+03 0.  0.
         25    1    1    2    0    0 -0.30967467512E+02 -0.46176863662E+02  0.33130927446E+03  0.35673116226E+03  0.12000000000E+03 0.  0.
<mgrwt>
<rscale>  0 0.33920166E+03</rscale>
<asrwt>0</asrwt>
<pdfrwt beam="1">  1        1 0.65098681E-01 0.33920166E+03</pdfrwt>
<pdfrwt beam="2">  1       -1 0.10458203E-01 0.33920166E+03</pdfrwt>
<totfact> 0.32080163E+03</totfact>
</mgrwt>
</event>
<event>
 4    1  0.1728870E-004  0.3236648E+03  0.7818608E-02  0.1073975E+00
          2   -1    0    0  501    0  0.00000000000E+00  0.00000000000E+00  0.45083335490E+03  0.45083335490E+03  0.00000000000E+00 0. -1.
         -2   -1    0    0    0  501 -0.00000000000E+00 -0.00000000000E+00 -0.58091814906E+02  0.58091814906E+02  0.00000000000E+00 0. -1.
         25    1    1    2    0    0  0.48691762111E+02 -0.76742480502E+01  0.44247688428E+02  0.13706801126E+03  0.12000000000E+03 0.  0.
         25    1    1    2    0    0 -0.48691762111E+02  0.76742480502E+01  0.34849385157E+03  0.37185715855E+03  0.12000000000E+03 0.  0.
<mgrwt>
<rscale>  0 0.32366481E+03</rscale>
<asrwt>0</asrwt>
<pdfrwt beam="1">  1        2 0.69358975E-01 0.32366481E+03</pdfrwt>
<pdfrwt beam="2">  1       -2 0.89372026E-02 0.32366481E+03</pdfrwt>
<totfact> 0.55570387E+03</totfact>
</mgrwt>
</event>
<event>
 4    1  0.1728870E-004  0.2593798E+03  0.7818608E-02  0.1107516E+00
         -1   -1    0    0    0  501 -0.00000000000E+00  0.00000000000E+00  0.54981005833E+02  0.54981005833E+02  0.00000000000E+00 0. -1.
          1   -1    0    0  501    0  0.00000000000E+00 -0.00000000000E+00 -0.30591421278E+03  0.30591421278E+03  0.00000000000E+00 0. -1.
         25    1    1    2    0    0  0.47500052889E+02  0.96894893730E+01 -0.13705184833E+03  0.18850291870E+03  0.12000000000E+03 0.  0.
         25    1    1    2    0    0 -0.47500052889E+02 -0.96894893730E+01 -0.11388135862E+03  0.17239229992E+03  0.12000000000E+03 0.  0.
<mgrwt>
<rscale>  0 0.25937981E+03</rscale>
<asrwt>0</asrwt>
<pdfrwt beam="1">  1        1 0.47063725E-01 0.25937981E+03</pdfrwt>
<pdfrwt beam="2">  1       -1 0.84586163E-02 0.25937981E+03</pdfrwt>
<totfact> 0.66854397E+03</totfact>
</mgrwt>
</event>
<event>
 4    1  0.1728870E-004  0.3524590E+03  0.7818608E-02  0.1061610E+00
         -1   -1    0    0    0  501 -0.00000000000E+00  0.00000000000E+00  0.36507675568E+02  0.36507675568E+02  0.00000000000E+00 0.  1.
          1   -1    0    0  501    0  0.00000000000E+00 -0.00000000000E+00 -0.85069326554E+03  0.85069326554E+03  0.00000000000E+00 0.  1.
         25    1    1    2    0    0 -0.22403867260E+02 -0.83934395118E+02 -0.16683878858E+03  0.22311902054E+03  0.12000000000E+03 0.  0.
         25    1    1    2    0    0  0.22403867260E+02  0.83934395118E+02 -0.64734680139E+03  0.66408192056E+03  0.12000000000E+03 0.  0.
<mgrwt>
<rscale>  0 0.35245898E+03</rscale>
<asrwt>0</asrwt>
<pdfrwt beam="1">  1        1 0.13087588E+00 0.35245898E+03</pdfrwt>
<pdfrwt beam="2">  1       -1 0.56165656E-02 0.35245898E+03</pdfrwt>
<totfact> 0.30980672E+03</totfact>
</mgrwt>
</event>
<event>
 4    1  0.1728870E-004  0.2505628E+03  0.7818608E-02  0.1112950E+00
         -1   -1    0    0    0  501 -0.00000000000E+00  0.00000000000E+00  0.11918581693E+02  0.11918581693E+02  0.00000000000E+00 0.  1.
          1   -1    0    0  501    0  0.00000000000E+00 -0.00000000000E+00 -0.13168878012E+04  0.13168878012E+04  0.00000000000E+00 0.  1.
         25    1    1    2    0    0  0.30723308843E+02  0.99210370559E+01 -0.73685289620E+03  0.74725801389E+03  0.12000000000E+03 0.  0.
         25    1    1    2    0    0 -0.30723308843E+02 -0.99210370559E+01 -0.56811632326E+03  0.58154836896E+03  0.12000000000E+03 0.  0.
<mgrwt>
<rscale>  0 0.25056285E+03</rscale>
<asrwt>0</asrwt>
<pdfrwt beam="1">  1        1 0.20259818E+00 0.25056285E+03</pdfrwt>
<pdfrwt beam="2">  1       -1 0.18336274E-02 0.25056285E+03</pdfrwt>
<totfact> 0.73802239E+03</totfact>
</mgrwt>
</event>
<event>
 4    1  0.1728870E-004  0.4869736E+03  0.7818608E-02  0.1017236E+00
         -2   -1    0    0    0  501 -0.00000000000E+00  0.00000000000E+00  0.16643701229E+02  0.16643701229E+02  0.00000000000E+00 0. -1.
          2   -1    0    0  501    0  0.00000000000E+00 -0.00000000000E+00 -0.35620582087E+04  0.35620582087E+04  0.00000000000E+00 0. -1.
         25    1    1    2    0    0 -0.38175475008E+02  0.62832709957E+02 -0.31251016161E+03  0.34273592961E+03  0.12000000000E+03 0.  0.
         25    1    1    2    0    0  0.38175475008E+02 -0.62832709957E+02 -0.32329043459E+04  0.32359659803E+04  0.12000000000E+03 0.  0.
<mgrwt>
<rscale>  0 0.48697364E+03</rscale>
<asrwt>0</asrwt>
<pdfrwt beam="1">  1        2 0.54800864E+00 0.48697364E+03</pdfrwt>
<pdfrwt beam="2">  1       -2 0.25605709E-02 0.48697364E+03</pdfrwt>
<totfact> 0.47308269E+02</totfact>
</mgrwt>
</event>
<event>
 4    1  0.1728870E-004  0.2526193E+03  0.7818608E-02  0.1111661E+00
          2   -1    0    0  501    0  0.00000000000E+00  0.00000000000E+00  0.72647262243E+03  0.72647262243E+03  0.00000000000E+00 0. -1.
         -2   -1    0    0    0  501 -0.00000000000E+00 -0.00000000000E+00 -0.21961088322E+02  0.21961088322E+02  0.00000000000E+00 0. -1.
         25    1    1    2    0    0  0.13668484853E+02 -0.10152088398E+02  0.24691389162E+03  0.27505701637E+03  0.12000000000E+03 0.  0.
         25    1    1    2    0    0 -0.13668484853E+02  0.10152088398E+02  0.45759764249E+03  0.47337669439E+03  0.12000000000E+03 0.  0.
<mgrwt>
<rscale>  0 0.25261931E+03</rscale>
<asrwt>0</asrwt>
<pdfrwt beam="1">  1        2 0.11176500E+00 0.25261931E+03</pdfrwt>
<pdfrwt beam="2">  1       -2 0.33786295E-02 0.25261931E+03</pdfrwt>
<totfact> 0.14077676E+04</totfact>
</mgrwt>
</event>
<event>
 4    1  0.1728870E-004  0.2986820E+03  0.7818608E-02  0.1085901E+00
          1   -1    0    0  501    0  0.00000000000E+00  0.00000000000E+00  0.46834180769E+03  0.46834180769E+03  0.00000000000E+00 0.  1.
         -1   -1    0    0    0  501 -0.00000000000E+00 -0.00000000000E+00 -0.47620624134E+02  0.47620624134E+02  0.00000000000E+00 0.  1.
         25    1    1    2    0    0  0.44876045302E+02 -0.13444841306E+01  0.34290407778E+03  0.36605856586E+03  0.12000000000E+03 0.  0.
         25    1    1    2    0    0 -0.44876045302E+02  0.13444841306E+01  0.77817105771E+02  0.14990386596E+03  0.12000000000E+03 0.  0.
<mgrwt>
<rscale>  0 0.29868197E+03</rscale>
<asrwt>0</asrwt>
<pdfrwt beam="1">  1        1 0.72052582E-01 0.29868197E+03</pdfrwt>
<pdfrwt beam="2">  1       -1 0.73262502E-02 0.29868197E+03</pdfrwt>
<totfact> 0.48482788E+03</totfact>
</mgrwt>
</event>
<event>
 4    1  0.1728870E-004  0.2948852E+03  0.7818608E-02  0.1087826E+00
          2   -1    0    0  501    0  0.00000000000E+00  0.00000000000E+00  0.35064252127E+04  0.35064252127E+04  0.00000000000E+00 0. -1.
         -2   -1    0    0    0  501 -0.00000000000E+00 -0.00000000000E+00 -0.61998511470E+01  0.61998511470E+01  0.00000000000E+00 0. -1.
         25    1    1    2    0    0  0.71098103415E+02 -0.17021130238E+02  0.12181112569E+04  0.12261890936E+04  0.12000000000E+03 0.  0.
         25    1    1    2    0    0 -0.71098103415E+02  0.17021130238E+02  0.22821141047E+04  0.22864359702E+04  0.12000000000E+03 0.  0.
<mgrwt>
<rscale>  0 0.29488516E+03</rscale>
<asrwt>0</asrwt>
<pdfrwt beam="1">  1        2 0.53944845E+00 0.29488516E+03</pdfrwt>
<pdfrwt beam="2">  1       -2 0.95382605E-03 0.29488516E+03</pdfrwt>
<totfact> 0.22869984E+03</totfact>
</mgrwt>
</event>
<event>
 4    1  0.1728870E-004  0.2535562E+03  0.7818608E-02  0.1111078E+00
          3   -1    0    0  501    0  0.00000000000E+00  0.00000000000E+00  0.13238118450E+03  0.13238118450E+03  0.00000000000E+00 0.  1.
         -3   -1    0    0    0  501 -0.00000000000E+00 -0.00000000000E+00 -0.12141220440E+03  0.12141220440E+03  0.00000000000E+00 0.  1.
         25    1    1    2    0    0 -0.25507017352E+02 -0.30728784919E+02 -0.33456244587E+01  0.12651505586E+03  0.12000000000E+03 0.  0.
         25    1    1    2    0    0  0.25507017352E+02  0.30728784919E+02  0.14314604564E+02  0.12727833304E+03  0.12000000000E+03 0.  0.
<mgrwt>
<rscale>  0 0.25355624E+03</rscale>
<asrwt>0</asrwt>
<pdfrwt beam="1">  1        3 0.20366336E-01 0.25355624E+03</pdfrwt>
<pdfrwt beam="2">  1       -3 0.18678801E-01 0.25355624E+03</pdfrwt>
<totfact> 0.13874532E+03</totfact>
</mgrwt>
</event>
<event>
 4    1  0.1728870E-004  0.2933849E+03  0.7818608E-02  0.1088595E+00
          1   -1    0    0  501    0  0.00000000000E+00  0.00000000000E+00  0.17051030819E+03  0.17051030819E+03  0.00000000000E+00 0. -1.
         -1   -1    0    0    0  501 -0.00000000000E+00 -0.00000000000E+00 -0.12620159783E+03  0.12620159783E+03  0.00000000000E+00 0. -1.
         25    1    1    2    0    0 -0.75034027388E+02  0.13950365916E+02 -0.14225157665E+02  0.14292331190E+03  0.12000000000E+03 0.  0.
         25    1    1    2    0    0  0.75034027388E+02 -0.13950365916E+02  0.58533868018E+02  0.15378859412E+03  0.12000000000E+03 0.  0.
<mgrwt>
<rscale>  0 0.29338489E+03</rscale>
<asrwt>0</asrwt>
<pdfrwt beam="1">  1        1 0.26232355E-01 0.29338489E+03</pdfrwt>
<pdfrwt beam="2">  1       -1 0.19415630E-01 0.29338489E+03</pdfrwt>
<totfact> 0.37953530E+03</totfact>
</mgrwt>
</event>
<event>
 4    1  0.1728870E-004  0.3373228E+03  0.7818608E-02  0.1067942E+00
         -2   -1    0    0    0  501 -0.00000000000E+00  0.00000000000E+00  0.13196551179E+02  0.13196551179E+02  0.00000000000E+00 0.  1.
          2   -1    0    0  501    0  0.00000000000E+00 -0.00000000000E+00 -0.21556141364E+04  0.21556141364E+04  0.00000000000E+00 0.  1.
         25    1    1    2    0    0  0.22286770253E+02  0.10277233455E+03 -0.14226503262E+04  0.14315700485E+04  0.12000000000E+03 0.  0.
         25    1    1    2    0    0 -0.22286770253E+02 -0.10277233455E+03 -0.71976725902E+03  0.73724063917E+03  0.12000000000E+03 0.  0.
<mgrwt>
<rscale>  0 0.33732283E+03</rscale>
<asrwt>0</asrwt>
<pdfrwt beam="1">  1        2 0.33163326E+00 0.33732283E+03</pdfrwt>
<pdfrwt beam="2">  1       -2 0.20302367E-02 0.33732283E+03</pdfrwt>
<totfact> 0.46427829E+03</totfact>
</mgrwt>
</event>
<event>
 4    1  0.1728870E-004  0.2818565E+03  0.7818608E-02  0.1094679E+00
          1   -1    0    0  501    0  0.00000000000E+00  0.00000000000E+00  0.61128193695E+03  0.61128193695E+03  0.00000000000E+00 0. -1.
         -1   -1    0    0    0  501 -0.00000000000E+00 -0.00000000000E+00 -0.32490362830E+02  0.32490362830E+02  0.00000000000E+00 0. -1.
         25    1    1    2    0    0 -0.46159439045E+02  0.47003863357E+02  0.36585887076E+03  0.39063124593E+03  0.12000000000E+03 0.  0.
         25    1    1    2    0    0  0.46159439045E+02 -0.47003863357E+02  0.21293270336E+03  0.25314105385E+03  0.12000000000E+03 0.  0.
<mgrwt>
<rscale>  0 0.28185650E+03</rscale>
<asrwt>0</asrwt>
<pdfrwt beam="1">  1        1 0.94043366E-01 0.28185650E+03</pdfrwt>
<pdfrwt beam="2">  1       -1 0.49985178E-02 0.28185650E+03</pdfrwt>
<totfact> 0.60172992E+03</totfact>
</mgrwt>
</event>
<event>
 4    1  0.1728870E-004  0.2757479E+03  0.7818608E-02  0.1098034E+00
         -4   -1    0    0    0  501 -0.00000000000E+00  0.00000000000E+00  0.35481545909E+02  0.35481545909E+02  0.00000000000E+00 0.  1.
          4   -1    0    0  501    0  0.00000000000E+00 -0.00000000000E+00 -0.53574950955E+03  0.53574950955E+03  0.00000000000E+00 0.  1.
         25    1    1    2    0    0 -0.67851598629E+02  0.16916243159E+00 -0.24534118735E+03  0.28141813421E+03  0.12000000000E+03 0.  0.
         25    1    1    2    0    0  0.67851598629E+02 -0.16916243159E+00 -0.25492677629E+03  0.28981292125E+03  0.12000000000E+03 0.  0.
<mgrwt>
<rscale>  0 0.27574786E+03</rscale>
<asrwt>0</asrwt>
<pdfrwt beam="1">  1        4 0.82423005E-01 0.27574786E+03</pdfrwt>
<pdfrwt beam="2">  1       -4 0.54586991E-02 0.27574786E+03</pdfrwt>
<totfact> 0.51567850E+02</totfact>
</mgrwt>
</event>
<event>
 4    1  0.1728870E-004  0.2496679E+03  0.7818608E-02  0.1113515E+00
          1   -1    0    0  501    0  0.00000000000E+00  0.00000000000E+00  0.72838850488E+03  0.72838850488E+03  0.00000000000E+00 0. -1.
         -1   -1    0    0    0  501 -0.00000000000E+00 -0.00000000000E+00 -0.21394504066E+02  0.21394504066E+02  0.00000000000E+00 0. -1.
         25    1    1    2    0    0 -0.29129577431E+02  0.16096146512E+01  0.29874557755E+03  0.32326466440E+03  0.12000000000E+03 0.  0.
         25    1    1    2    0    0  0.29129577431E+02 -0.16096146512E+01  0.40824842327E+03  0.42651834455E+03  0.12000000000E+03 0.  0.
<mgrwt>
<rscale>  0 0.24966787E+03</rscale>
<asrwt>0</asrwt>
<pdfrwt beam="1">  1        1 0.11205975E+00 0.24966787E+03</pdfrwt>
<pdfrwt beam="2">  1       -1 0.32914627E-02 0.24966787E+03</pdfrwt>
<totfact> 0.86767696E+03</totfact>
</mgrwt>
</event>
<event>
 4    1  0.1728870E-004  0.2681378E+03  0.7818608E-02  0.1102350E+00
         -2   -1    0    0    0  501 -0.00000000000E+00  0.00000000000E+00  0.24986677761E+02  0.24986677761E+02  0.00000000000E+00 0.  1.
          2   -1    0    0  501    0  0.00000000000E+00 -0.00000000000E+00 -0.71936225284E+03  0.71936225284E+03  0.00000000000E+00 0.  1.
         25    1    1    2    0    0  0.47063516444E+01 -0.49439356027E+02 -0.43959432673E+03  0.45837710650E+03  0.12000000000E+03 0.  0.
         25    1    1    2    0    0 -0.47063516444E+01  0.49439356027E+02 -0.25478124836E+03  0.28597182411E+03  0.12000000000E+03 0.  0.
<mgrwt>
<rscale>  0 0.26813782E+03</rscale>
<asrwt>0</asrwt>
<pdfrwt beam="1">  1        2 0.11067113E+00 0.26813782E+03</pdfrwt>
<pdfrwt beam="2">  1       -2 0.38441039E-02 0.26813782E+03</pdfrwt>
<totfact> 0.11774533E+04</totfact>
</mgrwt>
</event>
<event>
 4    1  0.1728870E-004  0.4816430E+03  0.7818608E-02  0.1018685E+00
         -2   -1    0    0    0  501 -0.00000000000E+00  0.00000000000E+00  0.67656816680E+02  0.67656816680E+02  0.00000000000E+00 0.  1.
          2   -1    0    0  501    0  0.00000000000E+00 -0.00000000000E+00 -0.85719357488E+03  0.85719357488E+03  0.00000000000E+00 0.  1.
         25    1    1    2    0    0  0.18113572045E+03  0.10123024204E+03 -0.43927714512E+03  0.50042194331E+03  0.12000000000E+03 0.  0.
         25    1    1    2    0    0 -0.18113572045E+03 -0.10123024204E+03 -0.35025961308E+03  0.42442844825E+03  0.12000000000E+03 0.  0.
<mgrwt>
<rscale>  0 0.48164297E+03</rscale>
<asrwt>0</asrwt>
<pdfrwt beam="1">  1        2 0.13187593E+00 0.48164297E+03</pdfrwt>
<pdfrwt beam="2">  1       -2 0.10408741E-01 0.48164297E+03</pdfrwt>
<totfact> 0.20222288E+03</totfact>
</mgrwt>
</event>
<event>
 4    1  0.1728870E-004  0.2453447E+03  0.7818608E-02  0.1116283E+00
          2   -1    0    0  501    0  0.00000000000E+00  0.00000000000E+00  0.18638052743E+03  0.18638052743E+03  0.00000000000E+00 0. -1.
         -2   -1    0    0    0  501 -0.00000000000E+00 -0.00000000000E+00 -0.80740766969E+02  0.80740766969E+02  0.00000000000E+00 0. -1.
         25    1    1    2    0    0 -0.23681549926E+02 -0.84371153625E+00  0.42665832323E+02  0.12954497637E+03  0.12000000000E+03 0.  0.
         25    1    1    2    0    0  0.23681549926E+02  0.84371153625E+00  0.62973928137E+02  0.13757631802E+03  0.12000000000E+03 0.  0.
<mgrwt>
<rscale>  0 0.24534471E+03</rscale>
<asrwt>0</asrwt>
<pdfrwt beam="1">  1        2 0.28673927E-01 0.24534471E+03</pdfrwt>
<pdfrwt beam="2">  1       -2 0.12421657E-01 0.24534471E+03</pdfrwt>
<totfact> 0.84832114E+03</totfact>
</mgrwt>
</event>
<event>
 4    1  0.1728870E-004  0.2865564E+03  0.7818608E-02  0.1092161E+00
          1   -1    0    0  501    0  0.00000000000E+00  0.00000000000E+00  0.20056149215E+03  0.20056149215E+03  0.00000000000E+00 0.  1.
         -1   -1    0    0    0  501 -0.00000000000E+00 -0.00000000000E+00 -0.10235584775E+03  0.10235584775E+03  0.00000000000E+00 0.  1.
         25    1    1    2    0    0 -0.57864362950E+02 -0.30822687337E+02  0.38779417987E+01  0.13679678719E+03  0.12000000000E+03 0.  0.
         25    1    1    2    0    0  0.57864362950E+02  0.30822687337E+02  0.94327702597E+02  0.16612055271E+03  0.12000000000E+03 0.  0.
<mgrwt>
<rscale>  0 0.28655639E+03</rscale>
<asrwt>0</asrwt>
<pdfrwt beam="1">  1        1 0.30855614E-01 0.28655639E+03</pdfrwt>
<pdfrwt beam="2">  1       -1 0.15747054E-01 0.28655639E+03</pdfrwt>
<totfact> 0.43250780E+03</totfact>
</mgrwt>
</event>
<event>
 4    1  0.1728870E-004  0.3327447E+03  0.7818608E-02  0.1069929E+00
         -2   -1    0    0    0  501 -0.00000000000E+00  0.00000000000E+00  0.28750396610E+02  0.28750396610E+02  0.00000000000E+00 0.  1.
          2   -1    0    0  501    0  0.00000000000E+00 -0.00000000000E+00 -0.96276108010E+03  0.96276108010E+03  0.00000000000E+00 0.  1.
         25    1    1    2    0    0  0.10531689110E+03  0.19914129132E+02 -0.34088063732E+03  0.37694539258E+03  0.12000000000E+03 0.  0.
         25    1    1    2    0    0 -0.10531689110E+03 -0.19914129132E+02 -0.59313004617E+03  0.61456608413E+03  0.12000000000E+03 0.  0.
<mgrwt>
<rscale>  0 0.33274472E+03</rscale>
<asrwt>0</asrwt>
<pdfrwt beam="1">  1        2 0.14811706E+00 0.33274472E+03</pdfrwt>
<pdfrwt beam="2">  1       -2 0.44231387E-02 0.33274472E+03</pdfrwt>
<totfact> 0.65587878E+03</totfact>
</mgrwt>
</event>
<event>
 4    1  0.1728870E-004  0.3583771E+03  0.7818608E-02  0.1059228E+00
         -1   -1    0    0    0  501 -0.00000000000E+00  0.00000000000E+00  0.48675885026E+02  0.48675885026E+02  0.00000000000E+00 0. -1.
          1   -1    0    0  501    0  0.00000000000E+00 -0.00000000000E+00 -0.65963955280E+03  0.65963955280E+03  0.00000000000E+00 0. -1.
         25    1    1    2    0    0  0.51939992019E+02 -0.11346139512E+03 -0.39685485207E+03  0.43297231386E+03  0.12000000000E+03 0.  0.
         25    1    1    2    0    0 -0.51939992019E+02  0.11346139512E+03 -0.21410881570E+03  0.27534312396E+03  0.12000000000E+03 0.  0.
<mgrwt>
<rscale>  0 0.35837711E+03</rscale>
<asrwt>0</asrwt>
<pdfrwt beam="1">  1        1 0.10148301E+00 0.35837711E+03</pdfrwt>
<pdfrwt beam="2">  1       -1 0.74885978E-02 0.35837711E+03</pdfrwt>
<totfact> 0.29384706E+03</totfact>
</mgrwt>
</event>
<event>
 4    1  0.1728870E-004  0.2490120E+03  0.7818608E-02  0.1113931E+00
         -2   -1    0    0    0  501 -0.00000000000E+00  0.00000000000E+00  0.11850219938E+02  0.11850219938E+02  0.00000000000E+00 0.  1.
          2   -1    0    0  501    0  0.00000000000E+00 -0.00000000000E+00 -0.13081399821E+04  0.13081399821E+04  0.00000000000E+00 0.  1.
         25    1    1    2    0    0  0.32535888399E+02 -0.12004448623E+01 -0.68238457015E+03  0.69362001606E+03  0.12000000000E+03 0.  0.
         25    1    1    2    0    0 -0.32535888399E+02  0.12004448623E+01 -0.61390519198E+03  0.62637018595E+03  0.12000000000E+03 0.  0.
<mgrwt>
<rscale>  0 0.24901202E+03</rscale>
<asrwt>0</asrwt>
<pdfrwt beam="1">  1        2 0.20125222E+00 0.24901202E+03</pdfrwt>
<pdfrwt beam="2">  1       -2 0.18231115E-02 0.24901202E+03</pdfrwt>
<totfact> 0.15313205E+04</totfact>
</mgrwt>
</event>
<event>
 4    1  0.1728870E-004  0.2634484E+03  0.7818608E-02  0.1105089E+00
          1   -1    0    0  501    0  0.00000000000E+00  0.00000000000E+00  0.14056620009E+04  0.14056620009E+04  0.00000000000E+00 0. -1.
         -1   -1    0    0    0  501 -0.00000000000E+00 -0.00000000000E+00 -0.12343836685E+02  0.12343836685E+02  0.00000000000E+00 0. -1.
         25    1    1    2    0    0 -0.26964201044E+02  0.27710540050E+02  0.90206402722E+03  0.91083173604E+03  0.12000000000E+03 0.  0.
         25    1    1    2    0    0  0.26964201044E+02 -0.27710540050E+02  0.49125413703E+03  0.50717410158E+03  0.12000000000E+03 0.  0.
<mgrwt>
<rscale>  0 0.26344838E+03</rscale>
<asrwt>0</asrwt>
<pdfrwt beam="1">  1        1 0.21625557E+00 0.26344838E+03</pdfrwt>
<pdfrwt beam="2">  1       -1 0.18990529E-02 0.26344838E+03</pdfrwt>
<totfact> 0.61146821E+03</totfact>
</mgrwt>
</event>
<event>
 4    1  0.1728870E-004  0.2568148E+03  0.7818608E-02  0.1109072E+00
         -3   -1    0    0    0  501 -0.00000000000E+00  0.00000000000E+00  0.58801136205E+02  0.58801136205E+02  0.00000000000E+00 0. -1.
          3   -1    0    0  501    0  0.00000000000E+00 -0.00000000000E+00 -0.28041066396E+03  0.28041066396E+03  0.00000000000E+00 0. -1.
         25    1    1    2    0    0  0.19374770079E+02 -0.45522999287E+01 -0.56467561606E+02  0.13410701199E+03  0.12000000000E+03 0.  0.
         25    1    1    2    0    0 -0.19374770079E+02  0.45522999287E+01 -0.16514196615E+03  0.20510478818E+03  0.12000000000E+03 0.  0.
<mgrwt>
<rscale>  0 0.25681484E+03</rscale>
<asrwt>0</asrwt>
<pdfrwt beam="1">  1        3 0.43140102E-01 0.25681484E+03</pdfrwt>
<pdfrwt beam="2">  1       -3 0.90463286E-02 0.25681484E+03</pdfrwt>
<totfact> 0.11789221E+03</totfact>
</mgrwt>
</event>
<event>
 4    1  0.1728870E-004  0.2505713E+03  0.7818608E-02  0.1112944E+00
         -2   -1    0    0    0  501 -0.00000000000E+00  0.00000000000E+00  0.51547971138E+01  0.51547971138E+01  0.00000000000E+00 0. -1.
          2   -1    0    0  501    0  0.00000000000E+00 -0.00000000000E+00 -0.30450272233E+04  0.30450272233E+04  0.00000000000E+00 0. -1.
         25    1    1    2    0    0  0.27164761292E+02  0.92952519611E+01 -0.12554248685E+04  0.12614737122E+04  0.12000000000E+03 0.  0.
         25    1    1    2    0    0 -0.27164761292E+02 -0.92952519611E+01 -0.17844475576E+04  0.17887083082E+04  0.12000000000E+03 0.  0.
<mgrwt>
<rscale>  0 0.25057133E+03</rscale>
<asrwt>0</asrwt>
<pdfrwt beam="1">  1        2 0.46846462E+00 0.25057133E+03</pdfrwt>
<pdfrwt beam="2">  1       -2 0.79304759E-03 0.25057133E+03</pdfrwt>
<totfact> 0.58540522E+03</totfact>
</mgrwt>
</event>
<event>
 4    1  0.1728870E-004  0.2643384E+03  0.7818608E-02  0.1104564E+00
          2   -1    0    0  501    0  0.00000000000E+00  0.00000000000E+00  0.15907563834E+03  0.15907563834E+03  0.00000000000E+00 0. -1.
         -2   -1    0    0    0  501 -0.00000000000E+00 -0.00000000000E+00 -0.10981378585E+03  0.10981378585E+03  0.00000000000E+00 0. -1.
         25    1    1    2    0    0 -0.47770688227E+02 -0.65603987709E+01 -0.31079690307E+01  0.12936281134E+03  0.12000000000E+03 0.  0.
         25    1    1    2    0    0  0.47770688227E+02  0.65603987709E+01  0.52369821522E+02  0.13952661285E+03  0.12000000000E+03 0.  0.
<mgrwt>
<rscale>  0 0.26433840E+03</rscale>
<asrwt>0</asrwt>
<pdfrwt beam="1">  1        2 0.24473175E-01 0.26433840E+03</pdfrwt>
<pdfrwt beam="2">  1       -2 0.16894429E-01 0.26433840E+03</pdfrwt>
<totfact> 0.61180783E+03</totfact>
</mgrwt>
</event>
<event>
 4    1  0.1728870E-004  0.2806881E+03  0.7818608E-02  0.1095314E+00
         -2   -1    0    0    0  501 -0.00000000000E+00  0.00000000000E+00  0.13548725073E+02  0.13548725073E+02  0.00000000000E+00 0.  1.
          2   -1    0    0  501    0  0.00000000000E+00 -0.00000000000E+00 -0.14537490055E+04  0.14537490055E+04  0.00000000000E+00 0.  1.
         25    1    1    2    0    0  0.34723708772E+02  0.40649459169E+02 -0.46196884513E+03  0.48028463264E+03  0.12000000000E+03 0.  0.
         25    1    1    2    0    0 -0.34723708772E+02 -0.40649459169E+02 -0.97823143526E+03  0.98701309789E+03  0.12000000000E+03 0.  0.
<mgrwt>
<rscale>  0 0.28068805E+03</rscale>
<asrwt>0</asrwt>
<pdfrwt beam="1">  1        2 0.22365355E+00 0.28068805E+03</pdfrwt>
<pdfrwt beam="2">  1       -2 0.20844206E-02 0.28068805E+03</pdfrwt>
<totfact> 0.10513946E+04</totfact>
</mgrwt>
</event>
<event>
 4    1  0.1728870E-004  0.2813197E+03  0.7818608E-02  0.1094970E+00
          2   -1    0    0  501    0  0.00000000000E+00  0.00000000000E+00  0.91352826354E+02  0.91352826354E+02  0.00000000000E+00 0.  1.
         -2   -1    0    0    0  501 -0.00000000000E+00 -0.00000000000E+00 -0.21657998795E+03  0.21657998795E+03  0.00000000000E+00 0.  1.
         25    1    1    2    0    0  0.20961064403E+02 -0.17307699213E+02 -0.13722548155E+03  0.18430885888E+03  0.12000000000E+03 0.  0.
         25    1    1    2    0    0 -0.20961064403E+02  0.17307699213E+02  0.11998319959E+02  0.12362395542E+03  0.12000000000E+03 0.  0.
<mgrwt>
<rscale>  0 0.28131970E+03</rscale>
<asrwt>0</asrwt>
<pdfrwt beam="1">  1        2 0.14054281E-01 0.28131970E+03</pdfrwt>
<pdfrwt beam="2">  1       -2 0.33319998E-01 0.28131970E+03</pdfrwt>
<totfact> 0.35360459E+03</totfact>
</mgrwt>
</event>
<event>
 4    1  0.1728870E-004  0.3134429E+03  0.7818608E-02  0.1078707E+00
         -1   -1    0    0    0  501 -0.00000000000E+00  0.00000000000E+00  0.83630247949E+03  0.83630247949E+03  0.00000000000E+00 0. -1.
          1   -1    0    0  501    0  0.00000000000E+00 -0.00000000000E+00 -0.29369302593E+02  0.29369302593E+02  0.00000000000E+00 0. -1.
         25    1    1    2    0    0 -0.38432841553E+02  0.38112108474E+02  0.63833472334E+03  0.65176747014E+03  0.12000000000E+03 0.  0.
         25    1    1    2    0    0  0.38432841553E+02 -0.38112108474E+02  0.16859845356E+03  0.21390431194E+03  0.12000000000E+03 0.  0.
<mgrwt>
<rscale>  0 0.31344295E+03</rscale>
<asrwt>0</asrwt>
<pdfrwt beam="1">  1        1 0.45183549E-02 0.31344295E+03</pdfrwt>
<pdfrwt beam="2">  1       -1 0.12866190E+00 0.31344295E+03</pdfrwt>
<totfact> 0.10728351E+03</totfact>
</mgrwt>
</event>
<event>
 4    1  0.1728870E-004  0.4306958E+03  0.7818608E-02  0.1033640E+00
          3   -1    0    0  501    0  0.00000000000E+00  0.00000000000E+00  0.11763947367E+04  0.11763947367E+04  0.00000000000E+00 0.  1.
         -3   -1    0    0    0  501 -0.00000000000E+00 -0.00000000000E+00 -0.39421057119E+02  0.39421057119E+02  0.00000000000E+00 0.  1.
         25    1    1    2    0    0 -0.16342423170E+03  0.64628939778E+02  0.47527329302E+03  0.52073897725E+03  0.12000000000E+03 0.  0.
         25    1    1    2    0    0  0.16342423170E+03 -0.64628939778E+02  0.66170038654E+03  0.69507681656E+03  0.12000000000E+03 0.  0.
<mgrwt>
<rscale>  0 0.43069583E+03</rscale>
<asrwt>0</asrwt>
<pdfrwt beam="1">  1        3 0.18098378E+00 0.43069583E+03</pdfrwt>
<pdfrwt beam="2">  1       -3 0.60647789E-02 0.43069583E+03</pdfrwt>
<totfact> 0.90879842E+01</totfact>
</mgrwt>
</event>
<event>
 4    1  0.1728870E-004  0.4520257E+03  0.7818608E-02  0.1027120E+00
         -2   -1    0    0    0  501 -0.00000000000E+00  0.00000000000E+00  0.37609801035E+03  0.37609801035E+03  0.00000000000E+00 0.  1.
          2   -1    0    0  501    0  0.00000000000E+00 -0.00000000000E+00 -0.13582047366E+03  0.13582047366E+03  0.00000000000E+00 0.  1.
         25    1    1    2    0    0  0.15985432732E+03 -0.20305885423E+00  0.67029520227E+00  0.19988470800E+03  0.12000000000E+03 0.  0.
         25    1    1    2    0    0 -0.15985432732E+03  0.20305885423E+00  0.23960724149E+03  0.31203377601E+03  0.12000000000E+03 0.  0.
<mgrwt>
<rscale>  0 0.45202571E+03</rscale>
<asrwt>0</asrwt>
<pdfrwt beam="1">  1        2 0.20895458E-01 0.45202571E+03</pdfrwt>
<pdfrwt beam="2">  1       -2 0.57861232E-01 0.45202571E+03</pdfrwt>
<totfact> 0.75788346E+02</totfact>
</mgrwt>
</event>
<event>
 4    1  0.1728870E-004  0.2802266E+03  0.7818608E-02  0.1095565E+00
          2   -1    0    0  501    0  0.00000000000E+00  0.00000000000E+00  0.47742775190E+03  0.47742775190E+03  0.00000000000E+00 0. -1.
         -2   -1    0    0    0  501 -0.00000000000E+00 -0.00000000000E+00 -0.41119816311E+02  0.41119816311E+02  0.00000000000E+00 0. -1.
         25    1    1    2    0    0  0.73226786941E+01 -0.42933756253E+02  0.11129403473E+03  0.16936142186E+03  0.12000000000E+03 0.  0.
         25    1    1    2    0    0 -0.73226786941E+01  0.42933756253E+02  0.32501390086E+03  0.34918614635E+03  0.12000000000E+03 0.  0.
<mgrwt>
<rscale>  0 0.28022663E+03</rscale>
<asrwt>0</asrwt>
<pdfrwt beam="1">  1        2 0.73450419E-01 0.28022663E+03</pdfrwt>
<pdfrwt beam="2">  1       -2 0.63261259E-02 0.28022663E+03</pdfrwt>
<totfact> 0.88998420E+03</totfact>
</mgrwt>
</event>
<event>
 4    1  0.1728870E-004  0.2444671E+03  0.7818608E-02  0.1116852E+00
         -2   -1    0    0    0  501 -0.00000000000E+00  0.00000000000E+00  0.82439553150E+03  0.82439553150E+03  0.00000000000E+00 0. -1.
          2   -1    0    0  501    0  0.00000000000E+00 -0.00000000000E+00 -0.18123638450E+02  0.18123638450E+02  0.00000000000E+00 0. -1.
         25    1    1    2    0    0  0.15164336237E+02  0.95781178791E+01  0.45417789342E+03  0.47010557996E+03  0.12000000000E+03 0.  0.
         25    1    1    2    0    0 -0.15164336237E+02 -0.95781178791E+01  0.35209399963E+03  0.37241358999E+03  0.12000000000E+03 0.  0.
<mgrwt>
<rscale>  0 0.24446715E+03</rscale>
<asrwt>0</asrwt>
<pdfrwt beam="1">  1        2 0.27882527E-02 0.24446715E+03</pdfrwt>
<pdfrwt beam="2">  1       -2 0.12683005E+00 0.24446715E+03</pdfrwt>
<totfact> 0.16695811E+03</totfact>
</mgrwt>
</event>
<event>
 4    1  0.1728870E-004  0.4950127E+03  0.7818608E-02  0.1015089E+00
          1   -1    0    0  501    0  0.00000000000E+00  0.00000000000E+00  0.23149988774E+04  0.23149988774E+04  0.00000000000E+00 0. -1.
         -1   -1    0    0    0  501 -0.00000000000E+00 -0.00000000000E+00 -0.26461950755E+02  0.26461950755E+02  0.00000000000E+00 0. -1.
         25    1    1    2    0    0  0.92182052556E+02  0.19585527311E+03  0.11366892593E+04  0.11633225224E+04  0.12000000000E+03 0.  0.
         25    1    1    2    0    0 -0.92182052556E+02 -0.19585527311E+03  0.11518476673E+04  0.11781383058E+04  0.12000000000E+03 0.  0.
<mgrwt>
<rscale>  0 0.49501267E+03</rscale>
<asrwt>0</asrwt>
<pdfrwt beam="1">  1        1 0.35615351E+00 0.49501267E+03</pdfrwt>
<pdfrwt beam="2">  1       -1 0.40710712E-02 0.49501267E+03</pdfrwt>
<totfact> 0.48955137E+02</totfact>
</mgrwt>
</event>
<event>
 4    1  0.1728870E-004  0.4573349E+03  0.7818608E-02  0.1025557E+00
          4   -1    0    0  501    0  0.00000000000E+00  0.00000000000E+00  0.23970027746E+03  0.23970027746E+03  0.00000000000E+00 0. -1.
         -4   -1    0    0    0  501 -0.00000000000E+00 -0.00000000000E+00 -0.21814242793E+03  0.21814242793E+03  0.00000000000E+00 0. -1.
         25    1    1    2    0    0 -0.52431401493E+02  0.33297725593E+02 -0.17390087026E+03  0.22022557315E+03  0.12000000000E+03 0.  0.
         25    1    1    2    0    0  0.52431401493E+02 -0.33297725593E+02  0.19545871979E+03  0.23761713224E+03  0.12000000000E+03 0.  0.
<mgrwt>
<rscale>  0 0.45733489E+03</rscale>
<asrwt>0</asrwt>
<pdfrwt beam="1">  1        4 0.36876966E-01 0.45733489E+03</pdfrwt>
<pdfrwt beam="2">  1       -4 0.33560374E-01 0.45733489E+03</pdfrwt>
<totfact> 0.11969491E+02</totfact>
</mgrwt>
</event>
<event>
 4    1  0.1728870E-004  0.2535572E+03  0.7818608E-02  0.1111077E+00
          2   -1    0    0  501    0  0.00000000000E+00  0.00000000000E+00  0.30584391406E+03  0.30584391406E+03  0.00000000000E+00 0.  1.
         -2   -1    0    0    0  501 -0.00000000000E+00 -0.00000000000E+00 -0.52552360412E+02  0.52552360412E+02  0.00000000000E+00 0.  1.
         25    1    1    2    0    0  0.23977925249E+02  0.22479444036E+02  0.92238431549E+02  0.15488122726E+03  0.12000000000E+03 0.  0.
         25    1    1    2    0    0 -0.23977925249E+02 -0.22479444036E+02  0.16105312210E+03  0.20351504721E+03  0.12000000000E+03 0.  0.
<mgrwt>
<rscale>  0 0.25355725E+03</rscale>
<asrwt>0</asrwt>
<pdfrwt beam="1">  1        2 0.47052909E-01 0.25355725E+03</pdfrwt>
<pdfrwt beam="2">  1       -2 0.80849788E-02 0.25355725E+03</pdfrwt>
<totfact> 0.98288083E+03</totfact>
</mgrwt>
</event>
<event>
 4    1  0.1728870E-004  0.2558128E+03  0.7818608E-02  0.1109685E+00
          1   -1    0    0  501    0  0.00000000000E+00  0.00000000000E+00  0.31525174719E+04  0.31525174719E+04  0.00000000000E+00 0. -1.
         -1   -1    0    0    0  501 -0.00000000000E+00 -0.00000000000E+00 -0.51895196720E+01  0.51895196720E+01  0.00000000000E+00 0. -1.
         25    1    1    2    0    0  0.29908606208E+02  0.32598481787E+02  0.15527679069E+04  0.15580261096E+04  0.12000000000E+03 0.  0.
         25    1    1    2    0    0 -0.29908606208E+02 -0.32598481787E+02  0.15945600454E+04  0.15996808819E+04  0.12000000000E+03 0.  0.
<mgrwt>
<rscale>  0 0.25581283E+03</rscale>
<asrwt>0</asrwt>
<pdfrwt beam="1">  1        1 0.48500116E+00 0.25581283E+03</pdfrwt>
<pdfrwt beam="2">  1       -1 0.79839016E-03 0.25581283E+03</pdfrwt>
<totfact> 0.14737091E+03</totfact>
</mgrwt>
</event>
<event>
 4    1  0.1728870E-004  0.3118688E+03  0.7818608E-02  0.1079454E+00
         -2   -1    0    0    0  501 -0.00000000000E+00  0.00000000000E+00  0.23364563822E+02  0.23364563822E+02  0.00000000000E+00 0. -1.
          2   -1    0    0  501    0  0.00000000000E+00 -0.00000000000E+00 -0.10407012475E+04  0.10407012475E+04  0.00000000000E+00 0. -1.
         25    1    1    2    0    0 -0.65530462669E+02  0.11030698256E+02 -0.76169290127E+03  0.77394573046E+03  0.12000000000E+03 0.  0.
         25    1    1    2    0    0  0.65530462669E+02 -0.11030698256E+02 -0.25564378244E+03  0.29012008090E+03  0.12000000000E+03 0.  0.
<mgrwt>
<rscale>  0 0.31186876E+03</rscale>
<asrwt>0</asrwt>
<pdfrwt beam="1">  1        2 0.16010780E+00 0.31186876E+03</pdfrwt>
<pdfrwt beam="2">  1       -2 0.35945502E-02 0.31186876E+03</pdfrwt>
<totfact> 0.80226580E+03</totfact>
</mgrwt>
</event>
<event>
 4    1  0.1728870E-004  0.2460074E+03  0.7818608E-02  0.1115854E+00
          2   -1    0    0  501    0  0.00000000000E+00  0.00000000000E+00  0.87441740169E+01  0.87441740169E+01  0.00000000000E+00 0.  1.
         -2   -1    0    0    0  501 -0.00000000000E+00 -0.00000000000E+00 -0.17302846192E+04  0.17302846192E+04  0.00000000000E+00 0.  1.
         25    1    1    2    0    0  0.67919124447E+00 -0.25160614328E+02 -0.79136708706E+03  0.80080920592E+03  0.12000000000E+03 0.  0.
         25    1    1    2    0    0 -0.67919124447E+00  0.25160614328E+02 -0.93017335813E+03  0.93821958730E+03  0.12000000000E+03 0.  0.
<mgrwt>
<rscale>  0 0.24600740E+03</rscale>
<asrwt>0</asrwt>
<pdfrwt beam="1">  1        2 0.13452577E-02 0.24600740E+03</pdfrwt>
<pdfrwt beam="2">  1       -2 0.26619761E+00 0.24600740E+03</pdfrwt>
<totfact> 0.54776142E+02</totfact>
</mgrwt>
</event>
<event>
 4    1  0.1728870E-004  0.2915006E+03  0.7818608E-02  0.1089568E+00
          3   -1    0    0  501    0  0.00000000000E+00  0.00000000000E+00  0.23250267102E+03  0.23250267102E+03  0.00000000000E+00 0.  1.
         -3   -1    0    0    0  501 -0.00000000000E+00 -0.00000000000E+00 -0.91367312835E+02  0.91367312835E+02  0.00000000000E+00 0.  1.
         25    1    1    2    0    0  0.34352225218E+01  0.92485528917E+01  0.16182091756E+03  0.20170113001E+03  0.12000000000E+03 0.  0.
         25    1    1    2    0    0 -0.34352225218E+01 -0.92485528917E+01 -0.20685559378E+02  0.12216885385E+03  0.12000000000E+03 0.  0.
<mgrwt>
<rscale>  0 0.29150056E+03</rscale>
<asrwt>0</asrwt>
<pdfrwt beam="1">  1        3 0.35769642E-01 0.29150056E+03</pdfrwt>
<pdfrwt beam="2">  1       -3 0.14056510E-01 0.29150056E+03</pdfrwt>
<totfact> 0.81760870E+02</totfact>
</mgrwt>
</event>
<event>
 4    1  0.1728870E-004  0.3221978E+03  0.7818608E-02  0.1074642E+00
          1   -1    0    0  501    0  0.00000000000E+00  0.00000000000E+00  0.24822168129E+03  0.24822168129E+03  0.00000000000E+00 0. -1.
         -1   -1    0    0    0  501 -0.00000000000E+00 -0.00000000000E+00 -0.10455516538E+03  0.10455516538E+03  0.00000000000E+00 0. -1.
         25    1    1    2    0    0  0.90232383130E+02  0.54709982728E+02  0.49453341976E+02  0.16727432023E+03  0.12000000000E+03 0.  0.
         25    1    1    2    0    0 -0.90232383130E+02 -0.54709982728E+02  0.94213173935E+02  0.18550252645E+03  0.12000000000E+03 0.  0.
<mgrwt>
<rscale>  0 0.32219782E+03</rscale>
<asrwt>0</asrwt>
<pdfrwt beam="1">  1        1 0.38187951E-01 0.32219782E+03</pdfrwt>
<pdfrwt beam="2">  1       -1 0.16085410E-01 0.32219782E+03</pdfrwt>
<totfact> 0.32035953E+03</totfact>
</mgrwt>
</event>
<event>
 4    1  0.1728870E-004  0.2446301E+03  0.7818608E-02  0.1116746E+00
         -2   -1    0    0    0  501 -0.00000000000E+00  0.00000000000E+00  0.10870213510E+02  0.10870213510E+02  0.00000000000E+00 0. -1.
          2   -1    0    0  501    0  0.00000000000E+00 -0.00000000000E+00 -0.13763273229E+04  0.13763273229E+04  0.00000000000E+00 0. -1.
         25    1    1    2    0    0  0.13947663950E+02  0.18689590085E+02 -0.65925630859E+03  0.67049438366E+03  0.12000000000E+03 0.  0.
         25    1    1    2    0    0 -0.13947663950E+02 -0.18689590085E+02 -0.70620080084E+03  0.71670315279E+03  0.12000000000E+03 0.  0.
<mgrwt>
<rscale>  0 0.24463010E+03</rscale>
<asrwt>0</asrwt>
<pdfrwt beam="1">  1        2 0.21174255E+00 0.24463010E+03</pdfrwt>
<pdfrwt beam="2">  1       -2 0.16723414E-02 0.24463010E+03</pdfrwt>
<totfact> 0.15935478E+04</totfact>
</mgrwt>
</event>
<event>
 4    1  0.1728870E-004  0.2404706E+03  0.7818608E-02  0.1119480E+00
         -2   -1    0    0    0  501 -0.00000000000E+00  0.00000000000E+00  0.51363858359E+01  0.51363858359E+01  0.00000000000E+00 0.  1.
          2   -1    0    0  501    0  0.00000000000E+00 -0.00000000000E+00 -0.28145325152E+04  0.28145325152E+04  0.00000000000E+00 0.  1.
         25    1    1    2    0    0 -0.58616565340E+01  0.29443443236E+01 -0.14477756152E+04  0.14527550585E+04  0.12000000000E+03 0.  0.
         25    1    1    2    0    0  0.58616565340E+01 -0.29443443236E+01 -0.13616205141E+04  0.13669138425E+04  0.12000000000E+03 0.  0.
<mgrwt>
<rscale>  0 0.24047058E+03</rscale>
<asrwt>0</asrwt>
<pdfrwt beam="1">  1        2 0.43300495E+00 0.24047058E+03</pdfrwt>
<pdfrwt beam="2">  1       -2 0.79021329E-03 0.24047058E+03</pdfrwt>
<totfact> 0.80212337E+03</totfact>
</mgrwt>
</event>
<event>
 4    1  0.1728870E-004  0.2532354E+03  0.7818608E-02  0.1111277E+00
         -2   -1    0    0    0  501 -0.00000000000E+00  0.00000000000E+00  0.59357809699E+02  0.59357809699E+02  0.00000000000E+00 0. -1.
          2   -1    0    0  501    0  0.00000000000E+00 -0.00000000000E+00 -0.27009157568E+03  0.27009157568E+03  0.00000000000E+00 0. -1.
         25    1    1    2    0    0  0.22226814830E+02  0.18870640145E+02 -0.68988516775E+02  0.14145510879E+03  0.12000000000E+03 0.  0.
         25    1    1    2    0    0 -0.22226814830E+02 -0.18870640145E+02 -0.14174524921E+03  0.18799427659E+03  0.12000000000E+03 0.  0.
<mgrwt>
<rscale>  0 0.25323542E+03</rscale>
<asrwt>0</asrwt>
<pdfrwt beam="1">  1        2 0.41552549E-01 0.25323542E+03</pdfrwt>
<pdfrwt beam="2">  1       -2 0.91319709E-02 0.25323542E+03</pdfrwt>
<totfact> 0.92790827E+03</totfact>
</mgrwt>
</event>
<event>
 4    1  0.1728870E-004  0.2431118E+03  0.7818608E-02  0.1117737E+00
          2   -1    0    0  501    0  0.00000000000E+00  0.00000000000E+00  0.93181093848E+02  0.93181093848E+02  0.00000000000E+00 0. -1.
         -2   -1    0    0    0  501 -0.00000000000E+00 -0.00000000000E+00 -0.15857114228E+03  0.15857114228E+03  0.00000000000E+00 0. -1.
         25    1    1    2    0    0 -0.18900193446E+02 -0.74336673613E+00 -0.37096084297E+02  0.12701924806E+03  0.12000000000E+03 0.  0.
         25    1    1    2    0    0  0.18900193446E+02  0.74336673613E+00 -0.28293964133E+02  0.12473298807E+03  0.12000000000E+03 0.  0.
<mgrwt>
<rscale>  0 0.24311176E+03</rscale>
<asrwt>0</asrwt>
<pdfrwt beam="1">  1        2 0.14335553E-01 0.24311176E+03</pdfrwt>
<pdfrwt beam="2">  1       -2 0.24395560E-01 0.24311176E+03</pdfrwt>
<totfact> 0.60214744E+03</totfact>
</mgrwt>
</event>
<event>
 4    1  0.1728870E-004  0.2860158E+03  0.7818608E-02  0.1092448E+00
         -2   -1    0    0    0  501 -0.00000000000E+00  0.00000000000E+00  0.31093963963E+02  0.31093963963E+02  0.00000000000E+00 0. -1.
          2   -1    0    0  501    0  0.00000000000E+00 -0.00000000000E+00 -0.65772442672E+03  0.65772442672E+03  0.00000000000E+00 0. -1.
         25    1    1    2    0    0  0.54808301698E+02  0.28439929134E+02 -0.19937126640E+03  0.24075232371E+03  0.12000000000E+03 0.  0.
         25    1    1    2    0    0 -0.54808301698E+02 -0.28439929134E+02 -0.42725919635E+03  0.44806606697E+03  0.12000000000E+03 0.  0.
<mgrwt>
<rscale>  0 0.28601580E+03</rscale>
<asrwt>0</asrwt>
<pdfrwt beam="1">  1        2 0.10118836E+00 0.28601580E+03</pdfrwt>
<pdfrwt beam="2">  1       -2 0.47836874E-02 0.28601580E+03</pdfrwt>
<totfact> 0.94535181E+03</totfact>
</mgrwt>
</event>
<event>
 4    1  0.1728870E-004  0.2990619E+03  0.7818608E-02  0.1085710E+00
         -1   -1    0    0    0  501 -0.00000000000E+00  0.00000000000E+00  0.83154342039E+02  0.83154342039E+02  0.00000000000E+00 0. -1.
          1   -1    0    0  501    0  0.00000000000E+00 -0.00000000000E+00 -0.26889167066E+03  0.26889167066E+03  0.00000000000E+00 0. -1.
         25    1    1    2    0    0 -0.75906150642E+02  0.33460994787E+02 -0.54216530750E+02  0.15563037648E+03  0.12000000000E+03 0.  0.
         25    1    1    2    0    0  0.75906150642E+02 -0.33460994787E+02 -0.13152079787E+03  0.19641563621E+03  0.12000000000E+03 0.  0.
<mgrwt>
<rscale>  0 0.29906193E+03</rscale>
<asrwt>0</asrwt>
<pdfrwt beam="1">  1        1 0.41367950E-01 0.29906193E+03</pdfrwt>
<pdfrwt beam="2">  1       -1 0.12792976E-01 0.29906193E+03</pdfrwt>
<totfact> 0.41588129E+03</totfact>
</mgrwt>
</event>
<event>
 4    1  0.1728870E-004  0.3403760E+03  0.7818608E-02  0.1066636E+00
          2   -1    0    0  501    0  0.00000000000E+00  0.00000000000E+00  0.24023401145E+04  0.24023401145E+04  0.00000000000E+00 0. -1.
         -2   -1    0    0    0  501 -0.00000000000E+00 -0.00000000000E+00 -0.12056561374E+02  0.12056561374E+02  0.00000000000E+00 0. -1.
         25    1    1    2    0    0 -0.73853772355E+02  0.40468135743E+02  0.58199350788E+03  0.60017371895E+03  0.12000000000E+03 0.  0.
         25    1    1    2    0    0  0.73853772355E+02 -0.40468135743E+02  0.18082900453E+04  0.18142229569E+04  0.12000000000E+03 0.  0.
<mgrwt>
<rscale>  0 0.34037603E+03</rscale>
<asrwt>0</asrwt>
<pdfrwt beam="1">  1        2 0.36959041E+00 0.34037603E+03</pdfrwt>
<pdfrwt beam="2">  1       -2 0.18548575E-02 0.34037603E+03</pdfrwt>
<totfact> 0.39048441E+03</totfact>
</mgrwt>
</event>
<event>
 4    1  0.1728870E-004  0.3231138E+03  0.7818608E-02  0.1074225E+00
         -2   -1    0    0    0  501 -0.00000000000E+00  0.00000000000E+00  0.34710514770E+02  0.34710514770E+02  0.00000000000E+00 0. -1.
          2   -1    0    0  501    0  0.00000000000E+00 -0.00000000000E+00 -0.75195178758E+03  0.75195178758E+03  0.00000000000E+00 0. -1.
         25    1    1    2    0    0  0.28131657014E+02 -0.77576613082E+02 -0.52889005325E+03  0.54857470727E+03  0.12000000000E+03 0.  0.
         25    1    1    2    0    0 -0.28131657014E+02  0.77576613082E+02 -0.18835121956E+03  0.23808759509E+03  0.12000000000E+03 0.  0.
<mgrwt>
<rscale>  0 0.32311381E+03</rscale>
<asrwt>0</asrwt>
<pdfrwt beam="1">  1        2 0.11568489E+00 0.32311381E+03</pdfrwt>
<pdfrwt beam="2">  1       -2 0.53400794E-02 0.32311381E+03</pdfrwt>
<totfact> 0.68114525E+03</totfact>
</mgrwt>
</event>
<event>
 4    1  0.1728870E-004  0.2461045E+03  0.7818608E-02  0.1115792E+00
          2   -1    0    0  501    0  0.00000000000E+00  0.00000000000E+00  0.43319760894E+03  0.43319760894E+03  0.00000000000E+00 0.  1.
         -2   -1    0    0    0  501 -0.00000000000E+00 -0.00000000000E+00 -0.34953683090E+02  0.34953683090E+02  0.00000000000E+00 0.  1.
         25    1    1    2    0    0 -0.12226628190E+02 -0.22137333882E+02  0.21836193527E+03  0.25044258177E+03  0.12000000000E+03 0.  0.
         25    1    1    2    0    0  0.12226628190E+02  0.22137333882E+02  0.17988199058E+03  0.21770871026E+03  0.12000000000E+03 0.  0.
<mgrwt>
<rscale>  0 0.24610447E+03</rscale>
<asrwt>0</asrwt>
<pdfrwt beam="1">  1        2 0.66645782E-01 0.24610447E+03</pdfrwt>
<pdfrwt beam="2">  1       -2 0.53774900E-02 0.24610447E+03</pdfrwt>
<totfact> 0.12632119E+04</totfact>
</mgrwt>
</event>
<event>
 4    1  0.1728870E-004  0.2522543E+03  0.7818608E-02  0.1111888E+00
          2   -1    0    0  501    0  0.00000000000E+00  0.00000000000E+00  0.18971591538E+04  0.18971591538E+04  0.00000000000E+00 0.  1.
         -2   -1    0    0    0  501 -0.00000000000E+00 -0.00000000000E+00 -0.83851991443E+01  0.83851991443E+01  0.00000000000E+00 0.  1.
         25    1    1    2    0    0  0.20795530311E+02 -0.19186149983E+02  0.11453157556E+04  0.11519326119E+04  0.12000000000E+03 0.  0.
         25    1    1    2    0    0 -0.20795530311E+02  0.19186149983E+02  0.74345819906E+03  0.75361174101E+03  0.12000000000E+03 0.  0.
<mgrwt>
<rscale>  0 0.25225429E+03</rscale>
<asrwt>0</asrwt>
<pdfrwt beam="1">  1        2 0.29187030E+00 0.25225429E+03</pdfrwt>
<pdfrwt beam="2">  1       -2 0.12900321E-02 0.25225429E+03</pdfrwt>
<totfact> 0.12352847E+04</totfact>
</mgrwt>
</event>
<event>
 4    1  0.1728870E-004  0.2819703E+03  0.7818608E-02  0.1094618E+00
          2   -1    0    0  501    0  0.00000000000E+00  0.00000000000E+00  0.15661317347E+03  0.15661317347E+03  0.00000000000E+00 0.  1.
         -2   -1    0    0    0  501 -0.00000000000E+00 -0.00000000000E+00 -0.12691663505E+03  0.12691663505E+03  0.00000000000E+00 0.  1.
         25    1    1    2    0    0  0.68841132039E+01  0.71753490752E+02 -0.20033723118E+01  0.13999988554E+03  0.12000000000E+03 0.  0.
         25    1    1    2    0    0 -0.68841132039E+01 -0.71753490752E+02  0.31699910733E+02  0.14352992298E+03  0.12000000000E+03 0.  0.
<mgrwt>
<rscale>  0 0.28197033E+03</rscale>
<asrwt>0</asrwt>
<pdfrwt beam="1">  1        2 0.24094335E-01 0.28197033E+03</pdfrwt>
<pdfrwt beam="2">  1       -2 0.19525636E-01 0.28197033E+03</pdfrwt>
<totfact> 0.48868941E+03</totfact>
</mgrwt>
</event>
<event>
 4    1  0.1728870E-004  0.2468344E+03  0.7818608E-02  0.1115322E+00
         -1   -1    0    0    0  501 -0.00000000000E+00  0.00000000000E+00  0.16345888656E+02  0.16345888656E+02  0.00000000000E+00 0. -1.
          1   -1    0    0  501    0  0.00000000000E+00 -0.00000000000E+00 -0.93184340712E+03  0.93184340712E+03  0.00000000000E+00 0. -1.
         25    1    1    2    0    0 -0.23094593633E+02 -0.14992861063E+02 -0.42477925892E+03  0.44226187372E+03  0.12000000000E+03 0.  0.
         25    1    1    2    0    0  0.23094593633E+02  0.14992861063E+02 -0.49071825954E+03  0.50592742205E+03  0.12000000000E+03 0.  0.
<mgrwt>
<rscale>  0 0.24683443E+03</rscale>
<asrwt>0</asrwt>
<pdfrwt beam="1">  1        1 0.14336050E+00 0.24683443E+03</pdfrwt>
<pdfrwt beam="2">  1       -1 0.25147525E-02 0.24683443E+03</pdfrwt>
<totfact> 0.87783355E+03</totfact>
</mgrwt>
</event>
<event>
 4    1  0.1728870E-004  0.2627778E+03  0.7818608E-02  0.1105486E+00
         -2   -1    0    0    0  501 -0.00000000000E+00  0.00000000000E+00  0.39966238892E+02  0.39966238892E+02  0.00000000000E+00 0.  1.
          2   -1    0    0  501    0  0.00000000000E+00 -0.00000000000E+00 -0.43194062422E+03  0.43194062422E+03  0.00000000000E+00 0.  1.
         25    1    1    2    0    0 -0.44747408326E+02 -0.30656050949E+01 -0.24838491875E+03  0.27947593161E+03  0.12000000000E+03 0.  0.
         25    1    1    2    0    0  0.44747408326E+02  0.30656050949E+01 -0.14358946658E+03  0.19243093150E+03  0.12000000000E+03 0.  0.
<mgrwt>
<rscale>  0 0.26277779E+03</rscale>
<asrwt>0</asrwt>
<pdfrwt beam="1">  1        2 0.66452408E-01 0.26277779E+03</pdfrwt>
<pdfrwt beam="2">  1       -2 0.61486518E-02 0.26277779E+03</pdfrwt>
<totfact> 0.10356226E+04</totfact>
</mgrwt>
</event>
<event>
 4    1  0.1728870E-004  0.3107734E+03  0.7818608E-02  0.1079976E+00
          1   -1    0    0  501    0  0.00000000000E+00  0.00000000000E+00  0.37245681065E+03  0.37245681065E+03  0.00000000000E+00 0. -1.
         -1   -1    0    0    0  501 -0.00000000000E+00 -0.00000000000E+00 -0.64826358880E+02  0.64826358880E+02  0.00000000000E+00 0. -1.
         25    1    1    2    0    0 -0.79375218739E+02  0.54763787304E+02  0.18351499974E+03  0.23953549398E+03  0.12000000000E+03 0.  0.
         25    1    1    2    0    0  0.79375218739E+02 -0.54763787304E+02  0.12411545203E+03  0.19774767554E+03  0.12000000000E+03 0.  0.
<mgrwt>
<rscale>  0 0.31077335E+03</rscale>
<asrwt>0</asrwt>
<pdfrwt beam="1">  1        1 0.57301047E-01 0.31077335E+03</pdfrwt>
<pdfrwt beam="2">  1       -1 0.99732862E-02 0.31077335E+03</pdfrwt>
<totfact> 0.40642594E+03</totfact>
</mgrwt>
</event>
<event>
 4    1  0.1728870E-004  0.2795448E+03  0.7818608E-02  0.1095938E+00
         -1   -1    0    0    0  501 -0.00000000000E+00  0.00000000000E+00  0.69541546125E+02  0.69541546125E+02  0.00000000000E+00 0. -1.
          1   -1    0    0  501    0  0.00000000000E+00 -0.00000000000E+00 -0.28093034417E+03  0.28093034417E+03  0.00000000000E+00 0. -1.
         25    1    1    2    0    0 -0.60764453046E+02  0.37621348148E+02 -0.98984238507E+02  0.17118867972E+03  0.12000000000E+03 0.  0.
         25    1    1    2    0    0  0.60764453046E+02 -0.37621348148E+02 -0.11240455954E+03  0.17928321058E+03  0.12000000000E+03 0.  0.
<mgrwt>
<rscale>  0 0.27954485E+03</rscale>
<asrwt>0</asrwt>
<pdfrwt beam="1">  1        1 0.43220052E-01 0.27954485E+03</pdfrwt>
<pdfrwt beam="2">  1       -1 0.10698700E-01 0.27954485E+03</pdfrwt>
<totfact> 0.51943573E+03</totfact>
</mgrwt>
</event>
<event>
 4    1  0.1728870E-004  0.2499494E+03  0.7818608E-02  0.1113337E+00
          2   -1    0    0  501    0  0.00000000000E+00  0.00000000000E+00  0.83485501867E+02  0.83485501867E+02  0.00000000000E+00 0.  1.
         -2   -1    0    0    0  501 -0.00000000000E+00 -0.00000000000E+00 -0.18708253213E+03  0.18708253213E+03  0.00000000000E+00 0.  1.
         25    1    1    2    0    0  0.15319438696E+02 -0.41541968549E+00 -0.85751851200E+02  0.14828431394E+03  0.12000000000E+03 0.  0.
         25    1    1    2    0    0 -0.15319438696E+02  0.41541968549E+00 -0.17845179059E+02  0.12228372006E+03  0.12000000000E+03 0.  0.
<mgrwt>
<rscale>  0 0.24994943E+03</rscale>
<asrwt>0</asrwt>
<pdfrwt beam="1">  1        2 0.12843923E-01 0.24994943E+03</pdfrwt>
<pdfrwt beam="2">  1       -2 0.28781928E-01 0.24994943E+03</pdfrwt>
<totfact> 0.51250459E+03</totfact>
</mgrwt>
</event>
<event>
 4    1  0.1728870E-004  0.2622142E+03  0.7818608E-02  0.1105820E+00
          2   -1    0    0  501    0  0.00000000000E+00  0.00000000000E+00  0.18301808210E+04  0.18301808210E+04  0.00000000000E+00 0.  1.
         -2   -1    0    0    0  501 -0.00000000000E+00 -0.00000000000E+00 -0.93920093962E+01  0.93920093962E+01  0.00000000000E+00 0.  1.
         25    1    1    2    0    0 -0.52802963371E+02  0.39243846381E+00  0.91654458857E+03  0.92587379798E+03  0.12000000000E+03 0.  0.
         25    1    1    2    0    0  0.52802963371E+02 -0.39243846381E+00  0.90424422303E+03  0.91369903241E+03  0.12000000000E+03 0.  0.
<mgrwt>
<rscale>  0 0.26221423E+03</rscale>
<asrwt>0</asrwt>
<pdfrwt beam="1">  1        2 0.28156600E+00 0.26221423E+03</pdfrwt>
<pdfrwt beam="2">  1       -2 0.14449260E-02 0.26221423E+03</pdfrwt>
<totfact> 0.11359712E+04</totfact>
</mgrwt>
</event>
<event>
 4    1  0.1728870E-004  0.2484960E+03  0.7818608E-02  0.1114259E+00
          2   -1    0    0  501    0  0.00000000000E+00  0.00000000000E+00  0.25860609828E+03  0.25860609828E+03  0.00000000000E+00 0. -1.
         -2   -1    0    0    0  501 -0.00000000000E+00 -0.00000000000E+00 -0.59695294768E+02  0.59695294768E+02  0.00000000000E+00 0. -1.
         25    1    1    2    0    0  0.95925251211E+00  0.17258971384E+02  0.13427110802E+03  0.18090749766E+03  0.12000000000E+03 0.  0.
         25    1    1    2    0    0 -0.95925251211E+00 -0.17258971384E+02  0.64639695493E+02  0.13739389540E+03  0.12000000000E+03 0.  0.
<mgrwt>
<rscale>  0 0.24849601E+03</rscale>
<asrwt>0</asrwt>
<pdfrwt beam="1">  1        2 0.39785553E-01 0.24849601E+03</pdfrwt>
<pdfrwt beam="2">  1       -2 0.91838916E-02 0.24849601E+03</pdfrwt>
<totfact> 0.96279894E+03</totfact>
</mgrwt>
</event>
<event>
 4    1  0.1728870E-004  0.2714485E+03  0.7818608E-02  0.1100453E+00
         -2   -1    0    0    0  501 -0.00000000000E+00  0.00000000000E+00  0.84798793198E+01  0.84798793198E+01  0.00000000000E+00 0.  1.
          2   -1    0    0  501    0  0.00000000000E+00 -0.00000000000E+00 -0.21723266187E+04  0.21723266187E+04  0.00000000000E+00 0.  1.
         25    1    1    2    0    0  0.80162017711E+01 -0.40517403564E+02 -0.14684853406E+04  0.14739589936E+04  0.12000000000E+03 0.  0.
         25    1    1    2    0    0 -0.80162017711E+01  0.40517403564E+02 -0.69536139877E+03  0.70684750433E+03  0.12000000000E+03 0.  0.
<mgrwt>
<rscale>  0 0.27144847E+03</rscale>
<asrwt>0</asrwt>
<pdfrwt beam="1">  1        2 0.33420427E+00 0.27144847E+03</pdfrwt>
<pdfrwt beam="2">  1       -2 0.13045961E-02 0.27144847E+03</pdfrwt>
<totfact> 0.87152009E+03</totfact>
</mgrwt>
</event>
<event>
 4    1  0.1728870E-004  0.3232904E+03  0.7818608E-02  0.1074145E+00
          2   -1    0    0  501    0  0.00000000000E+00  0.00000000000E+00  0.15349863156E+04  0.15349863156E+04  0.00000000000E+00 0. -1.
         -2   -1    0    0    0  501 -0.00000000000E+00 -0.00000000000E+00 -0.17022417322E+02  0.17022417322E+02  0.00000000000E+00 0. -1.
         25    1    1    2    0    0  0.10092738192E+03 -0.21666116246E+02  0.91626657136E+03  0.92983879614E+03  0.12000000000E+03 0.  0.
         25    1    1    2    0    0 -0.10092738192E+03  0.21666116246E+02  0.60169732691E+03  0.62216993678E+03  0.12000000000E+03 0.  0.
<mgrwt>
<rscale>  0 0.32329044E+03</rscale>
<asrwt>0</asrwt>
<pdfrwt beam="1">  1        2 0.23615163E+00 0.32329044E+03</pdfrwt>
<pdfrwt beam="2">  1       -2 0.26188346E-02 0.32329044E+03</pdfrwt>
<totfact> 0.67940979E+03</totfact>
</mgrwt>
</event>
<event>
 4    1  0.1728870E-004  0.2433204E+03  0.7818608E-02  0.1117600E+00
         -1   -1    0    0    0  501 -0.00000000000E+00  0.00000000000E+00  0.32695955150E+01  0.32695955150E+01  0.00000000000E+00 0.  1.
          1   -1    0    0  501    0  0.00000000000E+00 -0.00000000000E+00 -0.45269230082E+04  0.45269230082E+04  0.00000000000E+00 0.  1.
         25    1    1    2    0    0 -0.31851788575E+01  0.16245866016E+02 -0.20518996873E+04  0.20554723059E+04  0.12000000000E+03 0.  0.
         25    1    1    2    0    0  0.31851788575E+01 -0.16245866016E+02 -0.24717537254E+04  0.24747202978E+04  0.12000000000E+03 0.  0.
<mgrwt>
<rscale>  0 0.24332042E+03</rscale>
<asrwt>0</asrwt>
<pdfrwt beam="1">  1        1 0.69644957E+00 0.24332042E+03</pdfrwt>
<pdfrwt beam="2">  1       -1 0.50301478E-03 0.24332042E+03</pdfrwt>
<totfact> 0.21241031E+02</totfact>
</mgrwt>
</event>
<event>
 4    1  0.1728870E-004  0.3956602E+03  0.7818608E-02  0.1045293E+00
          1   -1    0    0  501    0  0.00000000000E+00  0.00000000000E+00  0.60803300679E+03  0.60803300679E+03  0.00000000000E+00 0. -1.
         -1   -1    0    0    0  501 -0.00000000000E+00 -0.00000000000E+00 -0.64366147265E+02  0.64366147265E+02  0.00000000000E+00 0. -1.
         25    1    1    2    0    0 -0.15586194953E+03 -0.44854768318E+00  0.23604048429E+03  0.30725926956E+03  0.12000000000E+03 0.  0.
         25    1    1    2    0    0  0.15586194953E+03  0.44854768318E+00  0.30762637523E+03  0.36513988449E+03  0.12000000000E+03 0.  0.
<mgrwt>
<rscale>  0 0.39566017E+03</rscale>
<asrwt>0</asrwt>
<pdfrwt beam="1">  1        1 0.93543535E-01 0.39566017E+03</pdfrwt>
<pdfrwt beam="2">  1       -1 0.99024846E-02 0.39566017E+03</pdfrwt>
<totfact> 0.21443173E+03</totfact>
</mgrwt>
</event>
<event>
 4    1  0.1728870E-004  0.2473602E+03  0.7818608E-02  0.1114985E+00
         -2   -1    0    0    0  501 -0.00000000000E+00  0.00000000000E+00  0.14877211144E+02  0.14877211144E+02  0.00000000000E+00 0. -1.
          2   -1    0    0  501    0  0.00000000000E+00 -0.00000000000E+00 -0.10282009199E+04  0.10282009199E+04  0.00000000000E+00 0. -1.
         25    1    1    2    0    0  0.86307788447E+01  0.26922540788E+02 -0.46503486765E+03  0.48109951328E+03  0.12000000000E+03 0.  0.
         25    1    1    2    0    0 -0.86307788447E+01 -0.26922540788E+02 -0.54828884114E+03  0.56197861780E+03  0.12000000000E+03 0.  0.
<mgrwt>
<rscale>  0 0.24736016E+03</rscale>
<asrwt>0</asrwt>
<pdfrwt beam="1">  1        2 0.15818475E+00 0.24736016E+03</pdfrwt>
<pdfrwt beam="2">  1       -2 0.22888017E-02 0.24736016E+03</pdfrwt>
<totfact> 0.15861391E+04</totfact>
</mgrwt>
</event>
<event>
 4    1  0.1728870E-004  0.3150766E+03  0.7818608E-02  0.1077938E+00
          2   -1    0    0  501    0  0.00000000000E+00  0.00000000000E+00  0.23773430222E+04  0.23773430222E+04  0.00000000000E+00 0. -1.
         -2   -1    0    0    0  501 -0.00000000000E+00 -0.00000000000E+00 -0.10439520518E+02  0.10439520518E+02  0.00000000000E+00 0. -1.
         25    1    1    2    0    0 -0.56870113106E+02  0.71582670555E+02  0.15274178495E+04  0.15348496915E+04  0.12000000000E+03 0.  0.
         25    1    1    2    0    0  0.56870113106E+02 -0.71582670555E+02  0.83948565211E+03  0.85293285116E+03  0.12000000000E+03 0.  0.
<mgrwt>
<rscale>  0 0.31507663E+03</rscale>
<asrwt>0</asrwt>
<pdfrwt beam="1">  1        2 0.36574465E+00 0.31507663E+03</pdfrwt>
<pdfrwt beam="2">  1       -2 0.16060820E-02 0.31507663E+03</pdfrwt>
<totfact> 0.49877531E+03</totfact>
</mgrwt>
</event>
<event>
 4    1  0.1728870E-004  0.2605431E+03  0.7818608E-02  0.1106817E+00
          2   -1    0    0  501    0  0.00000000000E+00  0.00000000000E+00  0.44220520025E+03  0.44220520025E+03  0.00000000000E+00 0.  1.
         -2   -1    0    0    0  501 -0.00000000000E+00 -0.00000000000E+00 -0.38377382127E+02  0.38377382127E+02  0.00000000000E+00 0.  1.
         25    1    1    2    0    0 -0.16294324319E+02 -0.47977334335E+02  0.19853868351E+03  0.23745512937E+03  0.12000000000E+03 0.  0.
         25    1    1    2    0    0  0.16294324319E+02  0.47977334335E+02  0.20528913462E+03  0.24312745301E+03  0.12000000000E+03 0.  0.
<mgrwt>
<rscale>  0 0.26054311E+03</rscale>
<asrwt>0</asrwt>
<pdfrwt beam="1">  1        2 0.68031566E-01 0.26054311E+03</pdfrwt>
<pdfrwt beam="2">  1       -2 0.59042129E-02 0.26054311E+03</pdfrwt>
<totfact> 0.10736825E+04</totfact>
</mgrwt>
</event>
<event>
 4    1  0.1728870E-004  0.2613163E+03  0.7818608E-02  0.1106355E+00
         -1   -1    0    0    0  501 -0.00000000000E+00  0.00000000000E+00  0.89135816604E+02  0.89135816604E+02  0.00000000000E+00 0.  1.
          1   -1    0    0  501    0  0.00000000000E+00 -0.00000000000E+00 -0.19152298606E+03  0.19152298606E+03  0.00000000000E+00 0.  1.
         25    1    1    2    0    0 -0.13491470931E+02 -0.35823907097E+02 -0.88494473140E+02  0.15393714264E+03  0.12000000000E+03 0.  0.
         25    1    1    2    0    0  0.13491470931E+02  0.35823907097E+02 -0.13892696311E+02  0.12672166002E+03  0.12000000000E+03 0.  0.
<mgrwt>
<rscale>  0 0.26131634E+03</rscale>
<asrwt>0</asrwt>
<pdfrwt beam="1">  1        1 0.29465075E-01 0.26131634E+03</pdfrwt>
<pdfrwt beam="2">  1       -1 0.13713203E-01 0.26131634E+03</pdfrwt>
<totfact> 0.56902119E+03</totfact>
</mgrwt>
</event>
<event>
 4    1  0.1728870E-004  0.3205970E+03  0.7818608E-02  0.1075375E+00
          2   -1    0    0  501    0  0.00000000000E+00  0.00000000000E+00  0.30567414241E+03  0.30567414241E+03  0.00000000000E+00 0.  1.
         -2   -1    0    0    0  501 -0.00000000000E+00 -0.00000000000E+00 -0.84062078046E+02  0.84062078046E+02  0.00000000000E+00 0.  1.
         25    1    1    2    0    0  0.53228283897E+02  0.27149437766E+02  0.21765441523E+03  0.25562430762E+03  0.12000000000E+03 0.  0.
         25    1    1    2    0    0 -0.53228283897E+02 -0.27149437766E+02  0.39576491338E+01  0.13411191284E+03  0.12000000000E+03 0.  0.
<mgrwt>
<rscale>  0 0.32059697E+03</rscale>
<asrwt>0</asrwt>
<pdfrwt beam="1">  1        2 0.47026791E-01 0.32059697E+03</pdfrwt>
<pdfrwt beam="2">  1       -2 0.12932627E-01 0.32059697E+03</pdfrwt>
<totfact> 0.46879345E+03</totfact>
</mgrwt>
</event>
<event>
 4    1  0.1728870E-004  0.3457373E+03  0.7818608E-02  0.1064378E+00
         -2   -1    0    0    0  501 -0.00000000000E+00  0.00000000000E+00  0.57170269132E+02  0.57170269132E+02  0.00000000000E+00 0. -1.
          2   -1    0    0  501    0  0.00000000000E+00 -0.00000000000E+00 -0.52271158458E+03  0.52271158458E+03  0.00000000000E+00 0. -1.
         25    1    1    2    0    0  0.98428972328E+01 -0.11568060336E+02 -0.43991304368E+03  0.45623917921E+03  0.12000000000E+03 0.  0.
         25    1    1    2    0    0 -0.98428972328E+01  0.11568060336E+02 -0.25628271777E+02  0.12364267451E+03  0.12000000000E+03 0.  0.
<mgrwt>
<rscale>  0 0.34573725E+03</rscale>
<asrwt>0</asrwt>
<pdfrwt beam="1">  1        2 0.80417166E-01 0.34573725E+03</pdfrwt>
<pdfrwt beam="2">  1       -2 0.87954261E-02 0.34573725E+03</pdfrwt>
<totfact> 0.48352834E+03</totfact>
</mgrwt>
</event>
<event>
 4    1  0.1728870E-004  0.3064761E+03  0.7818608E-02  0.1082047E+00
          2   -1    0    0  501    0  0.00000000000E+00  0.00000000000E+00  0.24288014141E+03  0.24288014141E+03  0.00000000000E+00 0. -1.
         -2   -1    0    0    0  501 -0.00000000000E+00 -0.00000000000E+00 -0.96681009308E+02  0.96681009308E+02  0.00000000000E+00 0. -1.
         25    1    1    2    0    0  0.45887421180E+02 -0.78849692801E+02  0.42576154918E+02  0.15663862373E+03  0.12000000000E+03 0.  0.
         25    1    1    2    0    0 -0.45887421180E+02  0.78849692801E+02  0.10362297718E+03  0.18292252698E+03  0.12000000000E+03 0.  0.
<mgrwt>
<rscale>  0 0.30647608E+03</rscale>
<asrwt>0</asrwt>
<pdfrwt beam="1">  1        2 0.37366175E-01 0.30647608E+03</pdfrwt>
<pdfrwt beam="2">  1       -2 0.14874002E-01 0.30647608E+03</pdfrwt>
<totfact> 0.47714504E+03</totfact>
</mgrwt>
</event>
<event>
 4    1  0.1728870E-004  0.4124762E+03  0.7818608E-02  0.1039543E+00
         -2   -1    0    0    0  501 -0.00000000000E+00  0.00000000000E+00  0.52129677544E+02  0.52129677544E+02  0.00000000000E+00 0. -1.
          2   -1    0    0  501    0  0.00000000000E+00 -0.00000000000E+00 -0.81592981582E+03  0.81592981582E+03  0.00000000000E+00 0. -1.
         25    1    1    2    0    0  0.24623900920E+02 -0.16490550093E+03 -0.42036120963E+03  0.46787146451E+03  0.12000000000E+03 0.  0.
         25    1    1    2    0    0 -0.24623900920E+02  0.16490550093E+03 -0.34343892864E+03  0.40018802886E+03  0.12000000000E+03 0.  0.
<mgrwt>
<rscale>  0 0.41247622E+03</rscale>
<asrwt>0</asrwt>
<pdfrwt beam="1">  1        2 0.12552766E+00 0.41247622E+03</pdfrwt>
<pdfrwt beam="2">  1       -2 0.80199510E-02 0.41247622E+03</pdfrwt>
<totfact> 0.32733288E+03</totfact>
</mgrwt>
</event>
<event>
 4    1  0.1728870E-004  0.2487700E+03  0.7818608E-02  0.1114085E+00
         -1   -1    0    0    0  501 -0.00000000000E+00  0.00000000000E+00  0.47422227560E+02  0.47422227560E+02  0.00000000000E+00 0. -1.
          1   -1    0    0  501    0  0.00000000000E+00 -0.00000000000E+00 -0.32625255514E+03  0.32625255514E+03  0.00000000000E+00 0. -1.
         25    1    1    2    0    0 -0.16671667185E+02  0.27837019875E+02 -0.13290594013E+03  0.18198030960E+03  0.12000000000E+03 0.  0.
         25    1    1    2    0    0  0.16671667185E+02 -0.27837019875E+02 -0.14592438746E+03  0.19169447310E+03  0.12000000000E+03 0.  0.
<mgrwt>
<rscale>  0 0.24876996E+03</rscale>
<asrwt>0</asrwt>
<pdfrwt beam="1">  1        1 0.50192700E-01 0.24876996E+03</pdfrwt>
<pdfrwt beam="2">  1       -1 0.72957275E-02 0.24876996E+03</pdfrwt>
<totfact> 0.77113778E+03</totfact>
</mgrwt>
</event>
<event>
 4    1  0.1728870E-004  0.2442418E+03  0.7818608E-02  0.1116999E+00
          4   -1    0    0  501    0  0.00000000000E+00  0.00000000000E+00  0.19876148034E+02  0.19876148034E+02  0.00000000000E+00 0. -1.
         -4   -1    0    0    0  501 -0.00000000000E+00 -0.00000000000E+00 -0.75032198744E+03  0.75032198744E+03  0.00000000000E+00 0. -1.
         25    1    1    2    0    0  0.97248916728E+01 -0.97536882461E+01 -0.30847853187E+03  0.33128343239E+03  0.12000000000E+03 0.  0.
         25    1    1    2    0    0 -0.97248916728E+01  0.97536882461E+01 -0.42196730754E+03  0.43891470309E+03  0.12000000000E+03 0.  0.
<mgrwt>
<rscale>  0 0.24424177E+03</rscale>
<asrwt>0</asrwt>
<pdfrwt beam="1">  1        4 0.30578691E-02 0.24424177E+03</pdfrwt>
<pdfrwt beam="2">  1       -4 0.11543415E+00 0.24424177E+03</pdfrwt>
<totfact> 0.58672559E+02</totfact>
</mgrwt>
</event>
<event>
 4    1  0.1728870E-004  0.2785987E+03  0.7818608E-02  0.1096457E+00
          1   -1    0    0  501    0  0.00000000000E+00  0.00000000000E+00  0.46310753552E+03  0.46310753552E+03  0.00000000000E+00 0.  1.
         -1   -1    0    0    0  501 -0.00000000000E+00 -0.00000000000E+00 -0.41900207914E+02  0.41900207914E+02  0.00000000000E+00 0.  1.
         25    1    1    2    0    0 -0.23946636465E+02 -0.18131577233E+02  0.94506263134E+02  0.15567154288E+03  0.12000000000E+03 0.  0.
         25    1    1    2    0    0  0.23946636465E+02  0.18131577233E+02  0.32670106447E+03  0.34933620055E+03  0.12000000000E+03 0.  0.
<mgrwt>
<rscale>  0 0.27859865E+03</rscale>
<asrwt>0</asrwt>
<pdfrwt beam="1">  1        1 0.71247310E-01 0.27859865E+03</pdfrwt>
<pdfrwt beam="2">  1       -1 0.64461862E-02 0.27859865E+03</pdfrwt>
<totfact> 0.59652783E+03</totfact>
</mgrwt>
</event>
<event>
 4    1  0.1728870E-004  0.3013815E+03  0.7818608E-02  0.1084552E+00
         -1   -1    0    0    0  501 -0.00000000000E+00  0.00000000000E+00  0.84258419029E+02  0.84258419029E+02  0.00000000000E+00 0. -1.
          1   -1    0    0  501    0  0.00000000000E+00 -0.00000000000E+00 -0.26950065896E+03  0.26950065896E+03  0.00000000000E+00 0. -1.
         25    1    1    2    0    0  0.24907002236E+02 -0.87162255177E+02 -0.81480484864E+02  0.17104586198E+03  0.12000000000E+03 0.  0.
         25    1    1    2    0    0 -0.24907002236E+02  0.87162255177E+02 -0.10376175506E+03  0.18271321600E+03  0.12000000000E+03 0.  0.
<mgrwt>
<rscale>  0 0.30138148E+03</rscale>
<asrwt>0</asrwt>
<pdfrwt beam="1">  1        1 0.41461639E-01 0.30138148E+03</pdfrwt>
<pdfrwt beam="2">  1       -1 0.12962834E-01 0.30138148E+03</pdfrwt>
<totfact> 0.40626048E+03</totfact>
</mgrwt>
</event>
<event>
 4    1  0.1728870E-004  0.2613849E+03  0.7818608E-02  0.1106314E+00
          4   -1    0    0  501    0  0.00000000000E+00  0.00000000000E+00  0.58811471271E+02  0.58811471271E+02  0.00000000000E+00 0. -1.
         -4   -1    0    0    0  501 -0.00000000000E+00 -0.00000000000E+00 -0.29042834739E+03  0.29042834739E+03  0.00000000000E+00 0. -1.
         25    1    1    2    0    0  0.12885918328E+02  0.24516238713E+02 -0.17425366101E+03  0.21338095329E+03  0.12000000000E+03 0.  0.
         25    1    1    2    0    0 -0.12885918328E+02 -0.24516238713E+02 -0.57363215106E+02  0.13585886537E+03  0.12000000000E+03 0.  0.
<mgrwt>
<rscale>  0 0.26138491E+03</rscale>
<asrwt>0</asrwt>
<pdfrwt beam="1">  1        4 0.90479188E-02 0.26138491E+03</pdfrwt>
<pdfrwt beam="2">  1       -4 0.44681283E-01 0.26138491E+03</pdfrwt>
<totfact> 0.81568391E+02</totfact>
</mgrwt>
</event>
<event>
 4    1  0.1728870E-004  0.3020651E+03  0.7818608E-02  0.1084213E+00
         -2   -1    0    0    0  501 -0.00000000000E+00  0.00000000000E+00  0.24179469992E+02  0.24179469992E+02  0.00000000000E+00 0. -1.
          2   -1    0    0  501    0  0.00000000000E+00 -0.00000000000E+00 -0.94339674683E+03  0.94339674683E+03  0.00000000000E+00 0. -1.
         25    1    1    2    0    0  0.68149031820E+02 -0.58018535678E+02 -0.39551314761E+03  0.42289607583E+03  0.12000000000E+03 0.  0.
         25    1    1    2    0    0 -0.68149031820E+02  0.58018535678E+02 -0.52370412922E+03  0.54468014099E+03  0.12000000000E+03 0.  0.
<mgrwt>
<rscale>  0 0.30206511E+03</rscale>
<asrwt>0</asrwt>
<pdfrwt beam="1">  1        2 0.14513796E+00 0.30206511E+03</pdfrwt>
<pdfrwt beam="2">  1       -2 0.37199186E-02 0.30206511E+03</pdfrwt>
<totfact> 0.87449584E+03</totfact>
</mgrwt>
</event>
<event>
 4    1  0.1728870E-004  0.3167374E+03  0.7818608E-02  0.1077161E+00
         -2   -1    0    0    0  501 -0.00000000000E+00  0.00000000000E+00  0.23697266449E+02  0.23697266449E+02  0.00000000000E+00 0.  1.
          2   -1    0    0  501    0  0.00000000000E+00 -0.00000000000E+00 -0.10583772598E+04  0.10583772598E+04  0.00000000000E+00 0.  1.
         25    1    1    2    0    0 -0.41252286405E+02 -0.60301875907E+02 -0.76704850554E+03  0.77980861577E+03  0.12000000000E+03 0.  0.
         25    1    1    2    0    0  0.41252286405E+02  0.60301875907E+02 -0.26763148780E+03  0.30226591047E+03  0.12000000000E+03 0.  0.
<mgrwt>
<rscale>  0 0.31673742E+03</rscale>
<asrwt>0</asrwt>
<pdfrwt beam="1">  1        2 0.16282726E+00 0.31673742E+03</pdfrwt>
<pdfrwt beam="2">  1       -2 0.36457335E-02 0.31673742E+03</pdfrwt>
<totfact> 0.76660118E+03</totfact>
</mgrwt>
</event>
<event>
 4    1  0.1728870E-004  0.2610224E+03  0.7818608E-02  0.1106531E+00
         -2   -1    0    0    0  501 -0.00000000000E+00  0.00000000000E+00  0.69599867782E+01  0.69599867782E+01  0.00000000000E+00 0.  1.
          2   -1    0    0  501    0  0.00000000000E+00 -0.00000000000E+00 -0.24472991155E+04  0.24472991155E+04  0.00000000000E+00 0.  1.
         25    1    1    2    0    0 -0.30920715589E+02  0.28479265033E+02 -0.94347271842E+03  0.95200206386E+03  0.12000000000E+03 0.  0.
         25    1    1    2    0    0  0.30920715589E+02 -0.28479265033E+02 -0.14968664103E+04  0.15022570384E+04  0.12000000000E+03 0.  0.
<mgrwt>
<rscale>  0 0.26102237E+03</rscale>
<asrwt>0</asrwt>
<pdfrwt beam="1">  1        2 0.37650750E+00 0.26102237E+03</pdfrwt>
<pdfrwt beam="2">  1       -2 0.10707674E-02 0.26102237E+03</pdfrwt>
<totfact> 0.82705174E+03</totfact>
</mgrwt>
</event>
<event>
 4    1  0.1728870E-004  0.3179397E+03  0.7818608E-02  0.1076601E+00
         -2   -1    0    0    0  501 -0.00000000000E+00  0.00000000000E+00  0.34839917387E+02  0.34839917387E+02  0.00000000000E+00 0. -1.
          2   -1    0    0  501    0  0.00000000000E+00 -0.00000000000E+00 -0.72535819724E+03  0.72535819724E+03  0.00000000000E+00 0. -1.
         25    1    1    2    0    0 -0.87454721454E+00 -0.28266942949E+02 -0.10530295037E+03  0.16213727595E+03  0.12000000000E+03 0.  0.
         25    1    1    2    0    0  0.87454721454E+00  0.28266942949E+02 -0.58521532948E+03  0.59806083867E+03  0.12000000000E+03 0.  0.
<mgrwt>
<rscale>  0 0.31793974E+03</rscale>
<asrwt>0</asrwt>
<pdfrwt beam="1">  1        2 0.11159356E+00 0.31793974E+03</pdfrwt>
<pdfrwt beam="2">  1       -2 0.53599877E-02 0.31793974E+03</pdfrwt>
<totfact> 0.70800488E+03</totfact>
</mgrwt>
</event>
<event>
 4    1  0.1728870E-004  0.3885919E+03  0.7818608E-02  0.1047803E+00
         -1   -1    0    0    0  501 -0.00000000000E+00  0.00000000000E+00  0.77247767651E+02  0.77247767651E+02  0.00000000000E+00 0. -1.
          1   -1    0    0  501    0  0.00000000000E+00 -0.00000000000E+00 -0.48869913258E+03  0.48869913258E+03  0.00000000000E+00 0. -1.
         25    1    1    2    0    0 -0.71400074535E+02  0.10546840183E+03 -0.82753384366E+02  0.19357085796E+03  0.12000000000E+03 0.  0.
         25    1    1    2    0    0  0.71400074535E+02 -0.10546840183E+03 -0.32869798057E+03  0.37237604227E+03  0.12000000000E+03 0.  0.
<mgrwt>
<rscale>  0 0.38859190E+03</rscale>
<asrwt>0</asrwt>
<pdfrwt beam="1">  1        1 0.75184482E-01 0.38859190E+03</pdfrwt>
<pdfrwt beam="2">  1       -1 0.11884272E-01 0.38859190E+03</pdfrwt>
<totfact> 0.21745591E+03</totfact>
</mgrwt>
</event>
<event>
 4    1  0.1728870E-004  0.2482789E+03  0.7818608E-02  0.1114397E+00
          4   -1    0    0  501    0  0.00000000000E+00  0.00000000000E+00  0.77779630113E+02  0.77779630113E+02  0.00000000000E+00 0. -1.
         -4   -1    0    0    0  501 -0.00000000000E+00 -0.00000000000E+00 -0.19813167526E+03  0.19813167526E+03  0.00000000000E+00 0. -1.
         25    1    1    2    0    0  0.27611321632E+01 -0.30727603207E+02 -0.68697491254E+02  0.14167270293E+03  0.12000000000E+03 0.  0.
         25    1    1    2    0    0 -0.27611321632E+01  0.30727603207E+02 -0.51654553896E+02  0.13423860245E+03  0.12000000000E+03 0.  0.
<mgrwt>
<rscale>  0 0.24827894E+03</rscale>
<asrwt>0</asrwt>
<pdfrwt beam="1">  1        4 0.11966097E-01 0.24827894E+03</pdfrwt>
<pdfrwt beam="2">  1       -4 0.30481796E-01 0.24827894E+03</pdfrwt>
<totfact> 0.10647881E+03</totfact>
</mgrwt>
</event>
<event>
 4    1  0.1728870E-004  0.2929349E+03  0.7818608E-02  0.1088827E+00
         -1   -1    0    0    0  501 -0.00000000000E+00  0.00000000000E+00  0.12372516468E+02  0.12372516468E+02  0.00000000000E+00 0.  1.
          1   -1    0    0  501    0  0.00000000000E+00 -0.00000000000E+00 -0.17339005187E+04  0.17339005187E+04  0.00000000000E+00 0.  1.
         25    1    1    2    0    0 -0.43933189538E+02 -0.70750282534E+02 -0.92524122320E+03  0.93670008473E+03  0.12000000000E+03 0.  0.
         25    1    1    2    0    0  0.43933189538E+02  0.70750282534E+02 -0.79628677905E+03  0.80957295046E+03  0.12000000000E+03 0.  0.
<mgrwt>
<rscale>  0 0.29293489E+03</rscale>
<asrwt>0</asrwt>
<pdfrwt beam="1">  1        1 0.26675387E+00 0.29293489E+03</pdfrwt>
<pdfrwt beam="2">  1       -1 0.19034645E-02 0.29293489E+03</pdfrwt>
<totfact> 0.37041548E+03</totfact>
</mgrwt>
</event>
<event>
 4    1  0.1728870E-004  0.2666155E+03  0.7818608E-02  0.1103232E+00
         -2   -1    0    0    0  501 -0.00000000000E+00  0.00000000000E+00  0.89665546874E+02  0.89665546874E+02  0.00000000000E+00 0.  1.
          2   -1    0    0  501    0  0.00000000000E+00 -0.00000000000E+00 -0.19819163980E+03  0.19819163980E+03  0.00000000000E+00 0.  1.
         25    1    1    2    0    0 -0.55521297206E+02  0.93039949950E+01 -0.38926276470E+02  0.13814642147E+03  0.12000000000E+03 0.  0.
         25    1    1    2    0    0  0.55521297206E+02 -0.93039949950E+01 -0.69599816458E+02  0.14971076520E+03  0.12000000000E+03 0.  0.
<mgrwt>
<rscale>  0 0.26661554E+03</rscale>
<asrwt>0</asrwt>
<pdfrwt beam="1">  1        2 0.30491021E-01 0.26661554E+03</pdfrwt>
<pdfrwt beam="2">  1       -2 0.13794700E-01 0.26661554E+03</pdfrwt>
<totfact> 0.67103602E+03</totfact>
</mgrwt>
</event>
<event>
 4    1  0.1728870E-004  0.2799244E+03  0.7818608E-02  0.1095730E+00
         -3   -1    0    0    0  501 -0.00000000000E+00  0.00000000000E+00  0.17051857744E+04  0.17051857744E+04  0.00000000000E+00 0.  1.
          3   -1    0    0  501    0  0.00000000000E+00 -0.00000000000E+00 -0.11488145824E+02  0.11488145824E+02  0.00000000000E+00 0.  1.
         25    1    1    2    0    0 -0.60560136526E+02  0.36160594921E+02  0.93662521811E+03  0.94691177940E+03  0.12000000000E+03 0.  0.
         25    1    1    2    0    0  0.60560136526E+02 -0.36160594921E+02  0.75707241044E+03  0.76976214080E+03  0.12000000000E+03 0.  0.
<mgrwt>
<rscale>  0 0.27992444E+03</rscale>
<asrwt>0</asrwt>
<pdfrwt beam="1">  1        3 0.17674084E-02 0.27992444E+03</pdfrwt>
<pdfrwt beam="2">  1       -3 0.26233607E+00 0.27992444E+03</pdfrwt>
<totfact> 0.20439021E+02</totfact>
</mgrwt>
</event>
<event>
 4    1  0.1728870E-004  0.3550236E+03  0.7818608E-02  0.1060572E+00
          2   -1    0    0  501    0  0.00000000000E+00  0.00000000000E+00  0.73528311375E+03  0.73528311375E+03  0.00000000000E+00 0.  1.
         -2   -1    0    0    0  501 -0.00000000000E+00 -0.00000000000E+00 -0.42854849660E+02  0.42854849660E+02  0.00000000000E+00 0.  1.
         25    1    1    2    0    0 -0.41103314219E+02  0.12376504405E+03  0.32395058243E+03  0.36925769921E+03  0.12000000000E+03 0.  0.
         25    1    1    2    0    0  0.41103314219E+02 -0.12376504405E+03  0.36847768166E+03  0.40888026420E+03  0.12000000000E+03 0.  0.
<mgrwt>
<rscale>  0 0.35502365E+03</rscale>
<asrwt>0</asrwt>
<pdfrwt beam="1">  1        2 0.11312047E+00 0.35502365E+03</pdfrwt>
<pdfrwt beam="2">  1       -2 0.65930543E-02 0.35502365E+03</pdfrwt>
<totfact> 0.50708334E+03</totfact>
</mgrwt>
</event>
<event>
 4    1  0.1728870E-004  0.2488246E+03  0.7818608E-02  0.1114050E+00
         -3   -1    0    0    0  501 -0.00000000000E+00  0.00000000000E+00  0.93400168310E+02  0.93400168310E+02  0.00000000000E+00 0.  1.
          3   -1    0    0  501    0  0.00000000000E+00 -0.00000000000E+00 -0.16572151350E+03  0.16572151350E+03  0.00000000000E+00 0.  1.
         25    1    1    2    0    0 -0.92152006199E+01 -0.14052625542E+02 -0.65542091047E+02  0.13776124965E+03  0.12000000000E+03 0.  0.
         25    1    1    2    0    0  0.92152006199E+01  0.14052625542E+02 -0.67792541440E+01  0.12136043216E+03  0.12000000000E+03 0.  0.
<mgrwt>
<rscale>  0 0.24882457E+03</rscale>
<asrwt>0</asrwt>
<pdfrwt beam="1">  1        3 0.25495617E-01 0.24882457E+03</pdfrwt>
<pdfrwt beam="2">  1       -3 0.14369257E-01 0.24882457E+03</pdfrwt>
<totfact> 0.14575590E+03</totfact>
</mgrwt>
</event>
<event>
 4    1  0.1728870E-004  0.2872846E+03  0.7818608E-02  0.1091775E+00
          1   -1    0    0  501    0  0.00000000000E+00  0.00000000000E+00  0.13202941936E+03  0.13202941936E+03  0.00000000000E+00 0. -1.
         -1   -1    0    0    0  501 -0.00000000000E+00 -0.00000000000E+00 -0.15627665675E+03  0.15627665675E+03  0.00000000000E+00 0. -1.
         25    1    1    2    0    0 -0.54161999890E+02 -0.56346091922E+02 -0.23330774510E+02  0.14509558693E+03  0.12000000000E+03 0.  0.
         25    1    1    2    0    0  0.54161999890E+02  0.56346091922E+02 -0.91646288594E+00  0.14321048918E+03  0.12000000000E+03 0.  0.
<mgrwt>
<rscale>  0 0.28728464E+03</rscale>
<asrwt>0</asrwt>
<pdfrwt beam="1">  1        1 0.20312218E-01 0.28728464E+03</pdfrwt>
<pdfrwt beam="2">  1       -1 0.24042563E-01 0.28728464E+03</pdfrwt>
<totfact> 0.37064512E+03</totfact>
</mgrwt>
</event>
<event>
 4    1  0.1728870E-004  0.2726321E+03  0.7818608E-02  0.1099783E+00
          1   -1    0    0  501    0  0.00000000000E+00  0.00000000000E+00  0.34243084330E+03  0.34243084330E+03  0.00000000000E+00 0.  1.
         -1   -1    0    0    0  501 -0.00000000000E+00 -0.00000000000E+00 -0.54265152369E+02  0.54265152369E+02  0.00000000000E+00 0.  1.
         25    1    1    2    0    0 -0.31547064805E+02 -0.43010099532E+02  0.90879044037E+02  0.15969998937E+03  0.12000000000E+03 0.  0.
         25    1    1    2    0    0  0.31547064805E+02  0.43010099532E+02  0.19728664690E+03  0.23699600630E+03  0.12000000000E+03 0.  0.
<mgrwt>
<rscale>  0 0.27263207E+03</rscale>
<asrwt>0</asrwt>
<pdfrwt beam="1">  1        1 0.52681667E-01 0.27263207E+03</pdfrwt>
<pdfrwt beam="2">  1       -1 0.83484852E-02 0.27263207E+03</pdfrwt>
<totfact> 0.59271900E+03</totfact>
</mgrwt>
</event>
<event>
 4    1  0.1728870E-004  0.4342717E+03  0.7818608E-02  0.1032519E+00
         -1   -1    0    0    0  501 -0.00000000000E+00  0.00000000000E+00  0.11924075807E+03  0.11924075807E+03  0.00000000000E+00 0. -1.
          1   -1    0    0  501    0  0.00000000000E+00 -0.00000000000E+00 -0.39540147899E+03  0.39540147899E+03  0.00000000000E+00 0. -1.
         25    1    1    2    0    0 -0.34365635377E+02  0.17400350455E+03 -0.18063996991E+03  0.28015891066E+03  0.12000000000E+03 0.  0.
         25    1    1    2    0    0  0.34365635377E+02 -0.17400350455E+03 -0.95520751007E+02  0.23448332641E+03  0.12000000000E+03 0.  0.
<mgrwt>
<rscale>  0 0.43427168E+03</rscale>
<asrwt>0</asrwt>
<pdfrwt beam="1">  1        1 0.60830997E-01 0.43427168E+03</pdfrwt>
<pdfrwt beam="2">  1       -1 0.18344732E-01 0.43427168E+03</pdfrwt>
<totfact> 0.14345352E+03</totfact>
</mgrwt>
</event>
<event>
 4    1  0.1728870E-004  0.2889096E+03  0.7818608E-02  0.1090920E+00
          2   -1    0    0  501    0  0.00000000000E+00  0.00000000000E+00  0.13527015840E+04  0.13527015840E+04  0.00000000000E+00 0. -1.
         -2   -1    0    0    0  501 -0.00000000000E+00 -0.00000000000E+00 -0.15426302459E+02  0.15426302459E+02  0.00000000000E+00 0. -1.
         25    1    1    2    0    0 -0.12538155159E+01  0.79723233808E+02  0.61901258928E+03  0.63555798457E+03  0.12000000000E+03 0.  0.
         25    1    1    2    0    0  0.12538155159E+01 -0.79723233808E+02  0.71826269229E+03  0.73256990192E+03  0.12000000000E+03 0.  0.
<mgrwt>
<rscale>  0 0.28890956E+03</rscale>
<asrwt>0</asrwt>
<pdfrwt beam="1">  1        2 0.20810784E+00 0.28890956E+03</pdfrwt>
<pdfrwt beam="2">  1       -2 0.23732784E-02 0.28890956E+03</pdfrwt>
<totfact> 0.98564486E+03</totfact>
</mgrwt>
</event>
<event>
 4    1  0.1728870E-004  0.2456823E+03  0.7818608E-02  0.1116064E+00
          2   -1    0    0  501    0  0.00000000000E+00  0.00000000000E+00  0.16048940299E+02  0.16048940299E+02  0.00000000000E+00 0.  1.
         -2   -1    0    0    0  501 -0.00000000000E+00 -0.00000000000E+00 -0.94024598184E+03  0.94024598184E+03  0.00000000000E+00 0.  1.
         25    1    1    2    0    0 -0.72660802619E+01  0.77804387503E+01 -0.36863051826E+03  0.38781669657E+03  0.12000000000E+03 0.  0.
         25    1    1    2    0    0  0.72660802619E+01 -0.77804387503E+01 -0.55556652328E+03  0.56847822556E+03  0.12000000000E+03 0.  0.
<mgrwt>
<rscale>  0 0.24568233E+03</rscale>
<asrwt>0</asrwt>
<pdfrwt beam="1">  1        2 0.24690680E-02 0.24568233E+03</pdfrwt>
<pdfrwt beam="2">  1       -2 0.14465321E+00 0.24568233E+03</pdfrwt>
<totfact> 0.14186820E+03</totfact>
</mgrwt>
</event>
<event>
 4    1  0.1728870E-004  0.3905601E+03  0.7818608E-02  0.1047098E+00
          3   -1    0    0  501    0  0.00000000000E+00  0.00000000000E+00  0.10002280013E+03  0.10002280013E+03  0.00000000000E+00 0. -1.
         -3   -1    0    0    0  501 -0.00000000000E+00 -0.00000000000E+00 -0.38125601490E+03  0.38125601490E+03  0.00000000000E+00 0. -1.
         25    1    1    2    0    0  0.14781283764E+03  0.20534808734E+02 -0.18776605281E+03  0.26819098406E+03  0.12000000000E+03 0.  0.
         25    1    1    2    0    0 -0.14781283764E+03 -0.20534808734E+02 -0.93467161967E+02  0.21308783097E+03  0.12000000000E+03 0.  0.
<mgrwt>
<rscale>  0 0.39056008E+03</rscale>
<asrwt>0</asrwt>
<pdfrwt beam="1">  1        3 0.15388123E-01 0.39056008E+03</pdfrwt>
<pdfrwt beam="2">  1       -3 0.58654772E-01 0.39056008E+03</pdfrwt>
<totfact> 0.26653551E+02</totfact>
</mgrwt>
</event>
<event>
 4    1  0.1728870E-004  0.2558014E+03  0.7818608E-02  0.1109692E+00
          3   -1    0    0  501    0  0.00000000000E+00  0.00000000000E+00  0.18093377504E+03  0.18093377504E+03  0.00000000000E+00 0.  1.
         -3   -1    0    0    0  501 -0.00000000000E+00 -0.00000000000E+00 -0.90412015840E+02  0.90412015840E+02  0.00000000000E+00 0.  1.
         25    1    1    2    0    0 -0.22725698532E+02 -0.36790241108E+02  0.35275675270E+02  0.13234180171E+03  0.12000000000E+03 0.  0.
         25    1    1    2    0    0  0.22725698532E+02  0.36790241108E+02  0.55246083926E+02  0.13900398916E+03  0.12000000000E+03 0.  0.
<mgrwt>
<rscale>  0 0.25580139E+03</rscale>
<asrwt>0</asrwt>
<pdfrwt beam="1">  1        3 0.27835965E-01 0.25580139E+03</pdfrwt>
<pdfrwt beam="2">  1       -3 0.13909541E-01 0.25580139E+03</pdfrwt>
<totfact> 0.13158004E+03</totfact>
</mgrwt>
</event>
<event>
 4    1  0.1728870E-004  0.2544453E+03  0.7818608E-02  0.1110527E+00
          1   -1    0    0  501    0  0.00000000000E+00  0.00000000000E+00  0.57065887424E+03  0.57065887424E+03  0.00000000000E+00 0. -1.
         -1   -1    0    0    0  501 -0.00000000000E+00 -0.00000000000E+00 -0.28363011963E+02  0.28363011963E+02  0.00000000000E+00 0. -1.
         25    1    1    2    0    0  0.47231652848E+01  0.68271346000E+01  0.17360546788E+03  0.21120553150E+03  0.12000000000E+03 0.  0.
         25    1    1    2    0    0 -0.47231652848E+01 -0.68271346000E+01  0.36869039439E+03  0.38781635470E+03  0.12000000000E+03 0.  0.
<mgrwt>
<rscale>  0 0.25444531E+03</rscale>
<asrwt>0</asrwt>
<pdfrwt beam="1">  1        1 0.87793665E-01 0.25444531E+03</pdfrwt>
<pdfrwt beam="2">  1       -1 0.43635407E-02 0.25444531E+03</pdfrwt>
<totfact> 0.80801162E+03</totfact>
</mgrwt>
</event>
<event>
 4    1  0.1728870E-004  0.3435684E+03  0.7818608E-02  0.1065286E+00
         -1   -1    0    0    0  501 -0.00000000000E+00  0.00000000000E+00  0.75970708312E+03  0.75970708312E+03  0.00000000000E+00 0.  1.
          1   -1    0    0  501    0  0.00000000000E+00 -0.00000000000E+00 -0.38843673426E+02  0.38843673426E+02  0.00000000000E+00 0.  1.
         25    1    1    2    0    0  0.93987738263E+01  0.37826174501E+02  0.89468994706E+02  0.15467338957E+03  0.12000000000E+03 0.  0.
         25    1    1    2    0    0 -0.93987738263E+01 -0.37826174501E+02  0.63139441499E+03  0.64387736698E+03  0.12000000000E+03 0.  0.
<mgrwt>
<rscale>  0 0.34356841E+03</rscale>
<asrwt>0</asrwt>
<pdfrwt beam="1">  1        1 0.59759503E-02 0.34356841E+03</pdfrwt>
<pdfrwt beam="2">  1       -1 0.11687800E+00 0.34356841E+03</pdfrwt>
<totfact> 0.91725316E+02</totfact>
</mgrwt>
</event>
<event>
 4    1  0.1728870E-004  0.2837294E+03  0.7818608E-02  0.1093669E+00
          2   -1    0    0  501    0  0.00000000000E+00  0.00000000000E+00  0.35666093211E+04  0.35666093211E+04  0.00000000000E+00 0.  1.
         -2   -1    0    0    0  501 -0.00000000000E+00 -0.00000000000E+00 -0.56427786699E+01  0.56427786699E+01  0.00000000000E+00 0.  1.
         25    1    1    2    0    0  0.14126558493E+02  0.59175233353E+02  0.12140127515E+04  0.12214451395E+04  0.12000000000E+03 0.  0.
         25    1    1    2    0    0 -0.14126558493E+02 -0.59175233353E+02  0.23469537910E+04  0.23508069603E+04  0.12000000000E+03 0.  0.
<mgrwt>
<rscale>  0 0.28372936E+03</rscale>
<asrwt>0</asrwt>
<pdfrwt beam="1">  1        2 0.54870733E+00 0.28372936E+03</pdfrwt>
<pdfrwt beam="2">  1       -2 0.86812264E-03 0.28372936E+03</pdfrwt>
<totfact> 0.23933810E+03</totfact>
</mgrwt>
</event>
<event>
 4    1  0.1728870E-004  0.5812368E+03  0.7818608E-02  0.9945117E-01
          2   -1    0    0  501    0  0.00000000000E+00  0.00000000000E+00  0.37576700933E+04  0.37576700933E+04  0.00000000000E+00 0.  1.
         -2   -1    0    0    0  501 -0.00000000000E+00 -0.00000000000E+00 -0.22476442277E+02  0.22476442277E+02  0.00000000000E+00 0.  1.
         25    1    1    2    0    0  0.23279656488E+03  0.86289977911E+02  0.12708611249E+04  0.13004338506E+04  0.12000000000E+03 0.  0.
         25    1    1    2    0    0 -0.23279656488E+03 -0.86289977911E+02  0.24643325261E+04  0.24797126850E+04  0.12000000000E+03 0.  0.
<mgrwt>
<rscale>  0 0.58123680E+03</rscale>
<asrwt>0</asrwt>
<pdfrwt beam="1">  1        2 0.57810259E+00 0.58123680E+03</pdfrwt>
<pdfrwt beam="2">  1       -2 0.34579172E-02 0.58123680E+03</pdfrwt>
<totfact> 0.21519772E+02</totfact>
</mgrwt>
</event>
<event>
 4    1  0.1728870E-004  0.2423975E+03  0.7818608E-02  0.1118206E+00
          3   -1    0    0  501    0  0.00000000000E+00  0.00000000000E+00  0.98662596507E+02  0.98662596507E+02  0.00000000000E+00 0. -1.
         -3   -1    0    0    0  501 -0.00000000000E+00 -0.00000000000E+00 -0.14888250262E+03  0.14888250262E+03  0.00000000000E+00 0. -1.
         25    1    1    2    0    0  0.11657175467E+02 -0.84015429915E+01 -0.34394705073E+02  0.12565616340E+03  0.12000000000E+03 0.  0.
         25    1    1    2    0    0 -0.11657175467E+02  0.84015429915E+01 -0.15825201044E+02  0.12188893573E+03  0.12000000000E+03 0.  0.
<mgrwt>
<rscale>  0 0.24239748E+03</rscale>
<asrwt>0</asrwt>
<pdfrwt beam="1">  1        3 0.15178861E-01 0.24239748E+03</pdfrwt>
<pdfrwt beam="2">  1       -3 0.22905000E-01 0.24239748E+03</pdfrwt>
<totfact> 0.16057896E+03</totfact>
</mgrwt>
</event>
<event>
 4    1  0.1728870E-004  0.2487563E+03  0.7818608E-02  0.1114093E+00
          2   -1    0    0  501    0  0.00000000000E+00  0.00000000000E+00  0.20934975195E+04  0.20934975195E+04  0.00000000000E+00 0.  1.
         -2   -1    0    0    0  501 -0.00000000000E+00 -0.00000000000E+00 -0.73895104189E+01  0.73895104189E+01  0.00000000000E+00 0.  1.
         25    1    1    2    0    0 -0.20521000137E+02  0.25410622664E+02  0.10579492158E+04  0.10652339435E+04  0.12000000000E+03 0.  0.
         25    1    1    2    0    0  0.20521000137E+02 -0.25410622664E+02  0.10281587934E+04  0.10356530865E+04  0.12000000000E+03 0.  0.
<mgrwt>
<rscale>  0 0.24875628E+03</rscale>
<asrwt>0</asrwt>
<pdfrwt beam="1">  1        2 0.32207607E+00 0.24875628E+03</pdfrwt>
<pdfrwt beam="2">  1       -2 0.11368494E-02 0.24875628E+03</pdfrwt>
<totfact> 0.11708496E+04</totfact>
</mgrwt>
</event>
<event>
 4    1  0.1728870E-004  0.3370937E+03  0.7818608E-02  0.1068041E+00
         -2   -1    0    0    0  501 -0.00000000000E+00  0.00000000000E+00  0.25988116591E+02  0.25988116591E+02  0.00000000000E+00 0. -1.
          2   -1    0    0  501    0  0.00000000000E+00 -0.00000000000E+00 -0.10931165513E+04  0.10931165513E+04  0.00000000000E+00 0. -1.
         25    1    1    2    0    0  0.73936226442E+02  0.19134410524E+02 -0.23339011017E+03  0.27331965676E+03  0.12000000000E+03 0.  0.
         25    1    1    2    0    0 -0.73936226442E+02 -0.19134410524E+02 -0.83373832449E+03  0.84578501108E+03  0.12000000000E+03 0.  0.
<mgrwt>
<rscale>  0 0.33709370E+03</rscale>
<asrwt>0</asrwt>
<pdfrwt beam="1">  1        2 0.16817176E+00 0.33709370E+03</pdfrwt>
<pdfrwt beam="2">  1       -2 0.39981722E-02 0.33709370E+03</pdfrwt>
<totfact> 0.63655576E+03</totfact>
</mgrwt>
</event>
<event>
 4    1  0.1728870E-004  0.2437393E+03  0.7818608E-02  0.1117327E+00
          1   -1    0    0  501    0  0.00000000000E+00  0.00000000000E+00  0.92530776271E+02  0.92530776271E+02  0.00000000000E+00 0. -1.
         -1   -1    0    0    0  501 -0.00000000000E+00 -0.00000000000E+00 -0.16051098622E+03  0.16051098622E+03  0.00000000000E+00 0. -1.
         25    1    1    2    0    0  0.40560331726E+01 -0.20844748376E+02 -0.32828836212E+02  0.12620890391E+03  0.12000000000E+03 0.  0.
         25    1    1    2    0    0 -0.40560331726E+01  0.20844748376E+02 -0.35151373741E+02  0.12683285858E+03  0.12000000000E+03 0.  0.
<mgrwt>
<rscale>  0 0.24373926E+03</rscale>
<asrwt>0</asrwt>
<pdfrwt beam="1">  1        1 0.14235504E-01 0.24373926E+03</pdfrwt>
<pdfrwt beam="2">  1       -1 0.24693998E-01 0.24373926E+03</pdfrwt>
<totfact> 0.56001275E+03</totfact>
</mgrwt>
</event>
<event>
 4    1  0.1728870E-004  0.4781171E+03  0.7818608E-02  0.1019654E+00
          1   -1    0    0  501    0  0.00000000000E+00  0.00000000000E+00  0.60682379107E+03  0.60682379107E+03  0.00000000000E+00 0.  1.
         -1   -1    0    0    0  501 -0.00000000000E+00 -0.00000000000E+00 -0.94177227052E+02  0.94177227052E+02  0.00000000000E+00 0.  1.
         25    1    1    2    0    0  0.13662616075E+03 -0.12706660623E+03  0.12570773984E+03  0.25498052097E+03  0.12000000000E+03 0.  0.
         25    1    1    2    0    0 -0.13662616075E+03  0.12706660623E+03  0.38693882418E+03  0.44602049715E+03  0.12000000000E+03 0.  0.
<mgrwt>
<rscale>  0 0.47811706E+03</rscale>
<asrwt>0</asrwt>
<pdfrwt beam="1">  1        1 0.93357504E-01 0.47811706E+03</pdfrwt>
<pdfrwt beam="2">  1       -1 0.14488805E-01 0.47811706E+03</pdfrwt>
<totfact> 0.11773529E+03</totfact>
</mgrwt>
</event>
<event>
 4    1  0.1728870E-004  0.2422625E+03  0.7818608E-02  0.1118295E+00
          1   -1    0    0  501    0  0.00000000000E+00  0.00000000000E+00  0.67245075406E+03  0.67245075406E+03  0.00000000000E+00 0. -1.
         -1   -1    0    0    0  501 -0.00000000000E+00 -0.00000000000E+00 -0.21819857302E+02  0.21819857302E+02  0.00000000000E+00 0. -1.
         25    1    1    2    0    0 -0.42355390698E+01 -0.45462054001E+00  0.27958557956E+03  0.30427987572E+03  0.12000000000E+03 0.  0.
         25    1    1    2    0    0  0.42355390698E+01  0.45462054001E+00  0.37104531720E+03  0.38999073564E+03  0.12000000000E+03 0.  0.
<mgrwt>
<rscale>  0 0.24226250E+03</rscale>
<asrwt>0</asrwt>
<pdfrwt beam="1">  1        1 0.10345395E+00 0.24226250E+03</pdfrwt>
<pdfrwt beam="2">  1       -1 0.33569016E-02 0.24226250E+03</pdfrwt>
<totfact> 0.94567045E+03</totfact>
</mgrwt>
</event>
<event>
 4    1  0.1728870E-004  0.3040252E+03  0.7818608E-02  0.1083246E+00
         -2   -1    0    0    0  501 -0.00000000000E+00  0.00000000000E+00  0.42081887772E+02  0.42081887772E+02  0.00000000000E+00 0. -1.
          2   -1    0    0  501    0  0.00000000000E+00 -0.00000000000E+00 -0.54911590823E+03  0.54911590823E+03  0.00000000000E+00 0. -1.
         25    1    1    2    0    0 -0.30778881086E+02 -0.22559704747E+02 -0.87925243270E+02  0.15358101511E+03  0.12000000000E+03 0.  0.
         25    1    1    2    0    0  0.30778881086E+02  0.22559704747E+02 -0.41910877719E+03  0.43761678089E+03  0.12000000000E+03 0.  0.
<mgrwt>
<rscale>  0 0.30402522E+03</rscale>
<asrwt>0</asrwt>
<pdfrwt beam="1">  1        2 0.84479365E-01 0.30402522E+03</pdfrwt>
<pdfrwt beam="2">  1       -2 0.64741370E-02 0.30402522E+03</pdfrwt>
<totfact> 0.73553207E+03</totfact>
</mgrwt>
</event>
<event>
 4    1  0.1728870E-004  0.2818694E+03  0.7818608E-02  0.1094672E+00
         -2   -1    0    0    0  501 -0.00000000000E+00  0.00000000000E+00  0.55405709561E+02  0.55405709561E+02  0.00000000000E+00 0.  1.
          2   -1    0    0  501    0  0.00000000000E+00 -0.00000000000E+00 -0.35849346539E+03  0.35849346539E+03  0.00000000000E+00 0.  1.
         25    1    1    2    0    0  0.52006239754E+02 -0.84147111464E+01 -0.75425259158E+02  0.15120987420E+03  0.12000000000E+03 0.  0.
         25    1    1    2    0    0 -0.52006239754E+02  0.84147111464E+01 -0.22766249667E+03  0.26268930075E+03  0.12000000000E+03 0.  0.
<mgrwt>
<rscale>  0 0.28186937E+03</rscale>
<asrwt>0</asrwt>
<pdfrwt beam="1">  1        2 0.55152840E-01 0.28186937E+03</pdfrwt>
<pdfrwt beam="2">  1       -2 0.85239555E-02 0.28186937E+03</pdfrwt>
<totfact> 0.76586784E+03</totfact>
</mgrwt>
</event>
<event>
 4    1  0.1728870E-004  0.3112472E+03  0.7818608E-02  0.1079750E+00
          1   -1    0    0  501    0  0.00000000000E+00  0.00000000000E+00  0.57340164179E+03  0.57340164179E+03  0.00000000000E+00 0. -1.
         -1   -1    0    0    0  501 -0.00000000000E+00 -0.00000000000E+00 -0.42236891612E+02  0.42236891612E+02  0.00000000000E+00 0. -1.
         25    1    1    2    0    0  0.50153098637E+01  0.61448841077E+02  0.41901992005E+03  0.44020314266E+03  0.12000000000E+03 0.  0.
         25    1    1    2    0    0 -0.50153098637E+01 -0.61448841077E+02  0.11214483013E+03  0.17543539075E+03  0.12000000000E+03 0.  0.
<mgrwt>
<rscale>  0 0.31124719E+03</rscale>
<asrwt>0</asrwt>
<pdfrwt beam="1">  1        1 0.88215631E-01 0.31124719E+03</pdfrwt>
<pdfrwt beam="2">  1       -1 0.64979837E-02 0.31124719E+03</pdfrwt>
<totfact> 0.44365609E+03</totfact>
</mgrwt>
</event>
<event>
 4    1  0.1728870E-004  0.2674594E+03  0.7818608E-02  0.1102743E+00
          1   -1    0    0  501    0  0.00000000000E+00  0.00000000000E+00  0.23193132085E+04  0.23193132085E+04  0.00000000000E+00 0. -1.
         -1   -1    0    0    0  501 -0.00000000000E+00 -0.00000000000E+00 -0.77107457458E+01  0.77107457458E+01  0.00000000000E+00 0. -1.
         25    1    1    2    0    0  0.17711880660E+02 -0.18022541237E+02  0.69172146858E+03  0.70250773149E+03  0.12000000000E+03 0.  0.
         25    1    1    2    0    0 -0.17711880660E+02  0.18022541237E+02  0.16198809941E+04  0.16245162227E+04  0.12000000000E+03 0.  0.
<mgrwt>
<rscale>  0 0.26745941E+03</rscale>
<asrwt>0</asrwt>
<pdfrwt beam="1">  1        1 0.35681686E+00 0.26745941E+03</pdfrwt>
<pdfrwt beam="2">  1       -1 0.11862704E-02 0.26745941E+03</pdfrwt>
<totfact> 0.30661644E+03</totfact>
</mgrwt>
</event>
<event>
 4    1  0.1728870E-004  0.3020658E+03  0.7818608E-02  0.1084212E+00
         -4   -1    0    0    0  501 -0.00000000000E+00  0.00000000000E+00  0.17633850586E+03  0.17633850586E+03  0.00000000000E+00 0. -1.
          4   -1    0    0  501    0  0.00000000000E+00 -0.00000000000E+00 -0.12935875598E+03  0.12935875598E+03  0.00000000000E+00 0. -1.
         25    1    1    2    0    0 -0.38586266529E+02  0.26260666519E+02  0.10338457471E+03  0.16512689926E+03  0.12000000000E+03 0.  0.
         25    1    1    2    0    0  0.38586266529E+02 -0.26260666519E+02 -0.56404824832E+02  0.14057036258E+03  0.12000000000E+03 0.  0.
<mgrwt>
<rscale>  0 0.30206575E+03</rscale>
<asrwt>0</asrwt>
<pdfrwt beam="1">  1        4 0.19901347E-01 0.30206575E+03</pdfrwt>
<pdfrwt beam="2">  1       -4 0.27129001E-01 0.30206575E+03</pdfrwt>
<totfact> 0.55525611E+02</totfact>
</mgrwt>
</event>
<event>
 4    1  0.1728870E-004  0.3093158E+03  0.7818608E-02  0.1080674E+00
         -2   -1    0    0    0  501 -0.00000000000E+00  0.00000000000E+00  0.27391549941E+02  0.27391549941E+02  0.00000000000E+00 0.  1.
          2   -1    0    0  501    0  0.00000000000E+00 -0.00000000000E+00 -0.87322774618E+03  0.87322774618E+03  0.00000000000E+00 0.  1.
         25    1    1    2    0    0 -0.61162810505E+02 -0.31425902385E+02 -0.22139100244E+03  0.26104109387E+03  0.12000000000E+03 0.  0.
         25    1    1    2    0    0  0.61162810505E+02  0.31425902385E+02 -0.62444519380E+03  0.63957820224E+03  0.12000000000E+03 0.  0.
<mgrwt>
<rscale>  0 0.30931577E+03</rscale>
<asrwt>0</asrwt>
<pdfrwt beam="1">  1        2 0.13434273E+00 0.30931577E+03</pdfrwt>
<pdfrwt beam="2">  1       -2 0.42140845E-02 0.30931577E+03</pdfrwt>
<totfact> 0.80473554E+03</totfact>
</mgrwt>
</event>
<event>
 4    1  0.1728870E-004  0.3270865E+03  0.7818608E-02  0.1072433E+00
          1   -1    0    0  501    0  0.00000000000E+00  0.00000000000E+00  0.66557268721E+03  0.66557268721E+03  0.00000000000E+00 0.  1.
         -1   -1    0    0    0  501 -0.00000000000E+00 -0.00000000000E+00 -0.40185539382E+02  0.40185539382E+02  0.00000000000E+00 0.  1.
         25    1    1    2    0    0 -0.78991352768E+02  0.23749180568E+01  0.14415542849E+03  0.20353393233E+03  0.12000000000E+03 0.  0.
         25    1    1    2    0    0  0.78991352768E+02 -0.23749180568E+01  0.48123171934E+03  0.50222429426E+03  0.12000000000E+03 0.  0.
<mgrwt>
<rscale>  0 0.32708652E+03</rscale>
<asrwt>0</asrwt>
<pdfrwt beam="1">  1        1 0.10239579E+00 0.32708652E+03</pdfrwt>
<pdfrwt beam="2">  1       -1 0.61823912E-02 0.32708652E+03</pdfrwt>
<totfact> 0.38817222E+03</totfact>
</mgrwt>
</event>
<event>
 4    1  0.1728870E-004  0.2466013E+03  0.7818608E-02  0.1115472E+00
          1   -1    0    0  501    0  0.00000000000E+00  0.00000000000E+00  0.55265014083E+02  0.55265014083E+02  0.00000000000E+00 0.  1.
         -1   -1    0    0    0  501 -0.00000000000E+00 -0.00000000000E+00 -0.27509357020E+03  0.27509357020E+03  0.00000000000E+00 0.  1.
         25    1    1    2    0    0  0.10305541469E+02 -0.62413683391E+01 -0.75553161620E+02  0.14231457794E+03  0.12000000000E+03 0.  0.
         25    1    1    2    0    0 -0.10305541469E+02  0.62413683391E+01 -0.14427539450E+03  0.18804400634E+03  0.12000000000E+03 0.  0.
<mgrwt>
<rscale>  0 0.24660130E+03</rscale>
<asrwt>0</asrwt>
<pdfrwt beam="1">  1        1 0.85023099E-02 0.24660130E+03</pdfrwt>
<pdfrwt beam="2">  1       -1 0.42322088E-01 0.24660130E+03</pdfrwt>
<totfact> 0.44160788E+03</totfact>
</mgrwt>
</event>
<event>
 4    1  0.1728870E-004  0.2665840E+03  0.7818608E-02  0.1103251E+00
          2   -1    0    0  501    0  0.00000000000E+00  0.00000000000E+00  0.91098612796E+03  0.91098612796E+03  0.00000000000E+00 0. -1.
         -2   -1    0    0    0  501 -0.00000000000E+00 -0.00000000000E+00 -0.19502774205E+02  0.19502774205E+02  0.00000000000E+00 0. -1.
         25    1    1    2    0    0 -0.36426453168E+02  0.31245325674E+02  0.55957417475E+03  0.57430515748E+03  0.12000000000E+03 0.  0.
         25    1    1    2    0    0  0.36426453168E+02 -0.31245325674E+02  0.33190917901E+03  0.35618374469E+03  0.12000000000E+03 0.  0.
<mgrwt>
<rscale>  0 0.26658400E+03</rscale>
<asrwt>0</asrwt>
<pdfrwt beam="1">  1        2 0.14015168E+00 0.26658400E+03</pdfrwt>
<pdfrwt beam="2">  1       -2 0.30004275E-02 0.26658400E+03</pdfrwt>
<totfact> 0.12599594E+04</totfact>
</mgrwt>
</event>
<event>
 4    1  0.1728870E-004  0.2510242E+03  0.7818608E-02  0.1112659E+00
         -1   -1    0    0    0  501 -0.00000000000E+00  0.00000000000E+00  0.38931515233E+02  0.38931515233E+02  0.00000000000E+00 0.  1.
          1   -1    0    0  501    0  0.00000000000E+00 -0.00000000000E+00 -0.40464097088E+03  0.40464097088E+03  0.00000000000E+00 0.  1.
         25    1    1    2    0    0  0.23932276270E+02  0.12127004491E+02 -0.22732925880E+03  0.25845388369E+03  0.12000000000E+03 0.  0.
         25    1    1    2    0    0 -0.23932276270E+02 -0.12127004491E+02 -0.13838019685E+03  0.18511860243E+03  0.12000000000E+03 0.  0.
<mgrwt>
<rscale>  0 0.25102419E+03</rscale>
<asrwt>0</asrwt>
<pdfrwt beam="1">  1        1 0.62252462E-01 0.25102419E+03</pdfrwt>
<pdfrwt beam="2">  1       -1 0.59894634E-02 0.25102419E+03</pdfrwt>
<totfact> 0.79092519E+03</totfact>
</mgrwt>
</event>
<event>
 4    1  0.1728870E-004  0.2535126E+03  0.7818608E-02  0.1111105E+00
         -1   -1    0    0    0  501 -0.00000000000E+00  0.00000000000E+00  0.37987005517E+02  0.37987005517E+02  0.00000000000E+00 0. -1.
          1   -1    0    0  501    0  0.00000000000E+00 -0.00000000000E+00 -0.42296476743E+03  0.42296476743E+03  0.00000000000E+00 0. -1.
         25    1    1    2    0    0 -0.24936577310E+02 -0.32251549918E+02 -0.18835475143E+03  0.22702314364E+03  0.12000000000E+03 0.  0.
         25    1    1    2    0    0  0.24936577310E+02  0.32251549918E+02 -0.19662301048E+03  0.23392862931E+03  0.12000000000E+03 0.  0.
<mgrwt>
<rscale>  0 0.25351264E+03</rscale>
<asrwt>0</asrwt>
<pdfrwt beam="1">  1        1 0.65071504E-01 0.25351264E+03</pdfrwt>
<pdfrwt beam="2">  1       -1 0.58441546E-02 0.25351264E+03</pdfrwt>
<totfact> 0.77559286E+03</totfact>
</mgrwt>
</event>
<event>
 4    1  0.1728870E-004  0.5654629E+03  0.7818608E-02  0.9979769E-01
          3   -1    0    0  501    0  0.00000000000E+00  0.00000000000E+00  0.47463918082E+03  0.47463918082E+03  0.00000000000E+00 0.  1.
         -3   -1    0    0    0  501 -0.00000000000E+00 -0.00000000000E+00 -0.16841652849E+03  0.16841652849E+03  0.00000000000E+00 0.  1.
         25    1    1    2    0    0  0.19113235309E+03 -0.82485661649E+02 -0.16336815283E+02  0.24083677524E+03  0.12000000000E+03 0.  0.
         25    1    1    2    0    0 -0.19113235309E+03  0.82485661649E+02  0.32255946761E+03  0.40221893407E+03  0.12000000000E+03 0.  0.
<mgrwt>
<rscale>  0 0.56546294E+03</rscale>
<asrwt>0</asrwt>
<pdfrwt beam="1">  1        3 0.73021412E-01 0.56546294E+03</pdfrwt>
<pdfrwt beam="2">  1       -3 0.25910235E-01 0.56546294E+03</pdfrwt>
<totfact> 0.66694527E+01</totfact>
</mgrwt>
</event>
<event>
 4    1  0.1728870E-004  0.2406476E+03  0.7818608E-02  0.1119362E+00
         -3   -1    0    0    0  501 -0.00000000000E+00  0.00000000000E+00  0.13793817212E+03  0.13793817212E+03  0.00000000000E+00 0. -1.
          3   -1    0    0  501    0  0.00000000000E+00 -0.00000000000E+00 -0.10495875593E+03  0.10495875593E+03  0.00000000000E+00 0. -1.
         25    1    1    2    0    0  0.69087796279E+01 -0.29383015405E+01  0.21164857582E+02  0.12208323410E+03  0.12000000000E+03 0.  0.
         25    1    1    2    0    0 -0.69087796279E+01  0.29383015405E+01  0.11814558605E+02  0.12081369395E+03  0.12000000000E+03 0.  0.
<mgrwt>
<rscale>  0 0.24064762E+03</rscale>
<asrwt>0</asrwt>
<pdfrwt beam="1">  1        3 0.16147501E-01 0.24064762E+03</pdfrwt>
<pdfrwt beam="2">  1       -3 0.21221257E-01 0.24064762E+03</pdfrwt>
<totfact> 0.16531727E+03</totfact>
</mgrwt>
</event>
<event>
 4    1  0.1728870E-004  0.4219605E+03  0.7818608E-02  0.1036430E+00
          2   -1    0    0  501    0  0.00000000000E+00  0.00000000000E+00  0.71092482042E+03  0.71092482042E+03  0.00000000000E+00 0. -1.
         -2   -1    0    0    0  501 -0.00000000000E+00 -0.00000000000E+00 -0.62612352207E+02  0.62612352207E+02  0.00000000000E+00 0. -1.
         25    1    1    2    0    0  0.14602235101E+03 -0.92143254613E+02  0.29241654856E+03  0.36016710599E+03  0.12000000000E+03 0.  0.
         25    1    1    2    0    0 -0.14602235101E+03  0.92143254613E+02  0.35589591965E+03  0.41337006664E+03  0.12000000000E+03 0.  0.
<mgrwt>
<rscale>  0 0.42196054E+03</rscale>
<asrwt>0</asrwt>
<pdfrwt beam="1">  1        2 0.10937304E+00 0.42196054E+03</pdfrwt>
<pdfrwt beam="2">  1       -2 0.96326701E-02 0.42196054E+03</pdfrwt>
<totfact> 0.29146070E+03</totfact>
</mgrwt>
</event>
<event>
 4    1  0.1728870E-004  0.2716773E+03  0.7818608E-02  0.1100323E+00
         -3   -1    0    0    0  501 -0.00000000000E+00  0.00000000000E+00  0.27501475610E+03  0.27501475610E+03  0.00000000000E+00 0.  1.
          3   -1    0    0  501    0  0.00000000000E+00 -0.00000000000E+00 -0.67095071388E+02  0.67095071388E+02  0.00000000000E+00 0.  1.
         25    1    1    2    0    0 -0.43914218413E+02  0.33581909854E+02  0.64219924179E+02  0.14690269538E+03  0.12000000000E+03 0.  0.
         25    1    1    2    0    0  0.43914218413E+02 -0.33581909854E+02  0.14369976053E+03  0.19520713211E+03  0.12000000000E+03 0.  0.
<mgrwt>
<rscale>  0 0.27167727E+03</rscale>
<asrwt>0</asrwt>
<pdfrwt beam="1">  1        3 0.10322319E-01 0.27167727E+03</pdfrwt>
<pdfrwt beam="2">  1       -3 0.42309962E-01 0.27167727E+03</pdfrwt>
<totfact> 0.98906814E+02</totfact>
</mgrwt>
</event>
<event>
 4    1  0.1728870E-004  0.2526701E+03  0.7818608E-02  0.1111629E+00
          2   -1    0    0  501    0  0.00000000000E+00  0.00000000000E+00  0.86614476936E+03  0.86614476936E+03  0.00000000000E+00 0. -1.
         -2   -1    0    0    0  501 -0.00000000000E+00 -0.00000000000E+00 -0.18427111210E+02  0.18427111210E+02  0.00000000000E+00 0. -1.
         25    1    1    2    0    0 -0.28921774585E+02 -0.26893350850E+02  0.42067970647E+03  0.43923927055E+03  0.12000000000E+03 0.  0.
         25    1    1    2    0    0  0.28921774585E+02  0.26893350850E+02  0.42703795168E+03  0.44533261001E+03  0.12000000000E+03 0.  0.
<mgrwt>
<rscale>  0 0.25267011E+03</rscale>
<asrwt>0</asrwt>
<pdfrwt beam="1">  1        2 0.13325301E+00 0.25267011E+03</pdfrwt>
<pdfrwt beam="2">  1       -2 0.28349409E-02 0.25267011E+03</pdfrwt>
<totfact> 0.14627185E+04</totfact>
</mgrwt>
</event>
<event>
 4    1  0.1728870E-004  0.3011012E+03  0.7818608E-02  0.1084691E+00
         -2   -1    0    0    0  501 -0.00000000000E+00  0.00000000000E+00  0.22660452476E+02  0.22660452476E+02  0.00000000000E+00 0. -1.
          2   -1    0    0  501    0  0.00000000000E+00 -0.00000000000E+00 -0.10002221247E+04  0.10002221247E+04  0.00000000000E+00 0. -1.
         25    1    1    2    0    0 -0.11431451526E+02  0.34372680645E+02 -0.77205670801E+03  0.78216604353E+03  0.12000000000E+03 0.  0.
         25    1    1    2    0    0  0.11431451526E+02 -0.34372680645E+02 -0.20550496425E+03  0.24071653368E+03  0.12000000000E+03 0.  0.
<mgrwt>
<rscale>  0 0.30110122E+03</rscale>
<asrwt>0</asrwt>
<pdfrwt beam="1">  1        2 0.15388032E+00 0.30110122E+03</pdfrwt>
<pdfrwt beam="2">  1       -2 0.34862237E-02 0.30110122E+03</pdfrwt>
<totfact> 0.88839465E+03</totfact>
</mgrwt>
</event>
<event>
 4    1  0.1728870E-004  0.3553432E+03  0.7818608E-02  0.1060443E+00
          2   -1    0    0  501    0  0.00000000000E+00  0.00000000000E+00  0.14422269549E+04  0.14422269549E+04  0.00000000000E+00 0.  1.
         -2   -1    0    0    0  501 -0.00000000000E+00 -0.00000000000E+00 -0.21887815229E+02  0.21887815229E+02  0.00000000000E+00 0.  1.
         25    1    1    2    0    0  0.11356613604E+03  0.55497188686E+02  0.85230394279E+03  0.86994207629E+03  0.12000000000E+03 0.  0.
         25    1    1    2    0    0 -0.11356613604E+03 -0.55497188686E+02  0.56803519689E+03  0.59417269385E+03  0.12000000000E+03 0.  0.
<mgrwt>
<rscale>  0 0.35534320E+03</rscale>
<asrwt>0</asrwt>
<pdfrwt beam="1">  1        2 0.22188100E+00 0.35534320E+03</pdfrwt>
<pdfrwt beam="2">  1       -2 0.33673573E-02 0.35534320E+03</pdfrwt>
<totfact> 0.52374580E+03</totfact>
</mgrwt>
</event>
<event>
 4    1  0.1728870E-004  0.2771640E+03  0.7818608E-02  0.1097248E+00
         -3   -1    0    0    0  501 -0.00000000000E+00  0.00000000000E+00  0.59060924657E+02  0.59060924657E+02  0.00000000000E+00 0.  1.
          3   -1    0    0  501    0  0.00000000000E+00 -0.00000000000E+00 -0.32517215163E+03  0.32517215163E+03  0.00000000000E+00 0.  1.
         25    1    1    2    0    0  0.17260676362E+02  0.60762293014E+02 -0.17263158945E+03  0.21952597313E+03  0.12000000000E+03 0.  0.
         25    1    1    2    0    0 -0.17260676362E+02 -0.60762293014E+02 -0.93479637525E+02  0.16470710316E+03  0.12000000000E+03 0.  0.
<mgrwt>
<rscale>  0 0.27716398E+03</rscale>
<asrwt>0</asrwt>
<pdfrwt beam="1">  1        3 0.50026485E-01 0.27716398E+03</pdfrwt>
<pdfrwt beam="2">  1       -3 0.90862960E-02 0.27716398E+03</pdfrwt>
<totfact> 0.87874750E+02</totfact>
</mgrwt>
</event>
<event>
 4    1  0.1728870E-004  0.3982316E+03  0.7818608E-02  0.1044394E+00
          1   -1    0    0  501    0  0.00000000000E+00  0.00000000000E+00  0.11438027453E+04  0.11438027453E+04  0.00000000000E+00 0. -1.
         -1   -1    0    0    0  501 -0.00000000000E+00 -0.00000000000E+00 -0.34662542829E+02  0.34662542829E+02  0.00000000000E+00 0. -1.
         25    1    1    2    0    0  0.92590608190E+02 -0.39420755819E+02  0.19069002147E+03  0.24675838588E+03  0.12000000000E+03 0.  0.
         25    1    1    2    0    0 -0.92590608190E+02  0.39420755819E+02  0.91845018101E+03  0.93170690226E+03  0.12000000000E+03 0.  0.
<mgrwt>
<rscale>  0 0.39823165E+03</rscale>
<asrwt>0</asrwt>
<pdfrwt beam="1">  1        1 0.17596962E+00 0.39823165E+03</pdfrwt>
<pdfrwt beam="2">  1       -1 0.53326998E-02 0.39823165E+03</pdfrwt>
<totfact> 0.20045281E+03</totfact>
</mgrwt>
</event>
<event>
 4    1  0.1728870E-004  0.3789618E+03  0.7818608E-02  0.1051318E+00
          2   -1    0    0  501    0  0.00000000000E+00  0.00000000000E+00  0.67027918999E+02  0.67027918999E+02  0.00000000000E+00 0. -1.
         -2   -1    0    0    0  501 -0.00000000000E+00 -0.00000000000E+00 -0.53564256080E+03  0.53564256080E+03  0.00000000000E+00 0. -1.
         25    1    1    2    0    0  0.95168512462E+02 -0.14289769793E+02 -0.41026430049E+03  0.43815298646E+03  0.12000000000E+03 0.  0.
         25    1    1    2    0    0 -0.95168512462E+02  0.14289769793E+02 -0.58350341315E+02  0.16451749335E+03  0.12000000000E+03 0.  0.
<mgrwt>
<rscale>  0 0.37896177E+03</rscale>
<asrwt>0</asrwt>
<pdfrwt beam="1">  1        2 0.10311987E-01 0.37896177E+03</pdfrwt>
<pdfrwt beam="2">  1       -2 0.82406549E-01 0.37896177E+03</pdfrwt>
<totfact> 0.82737245E+02</totfact>
</mgrwt>
</event>
<event>
 4    1  0.1728870E-004  0.3808233E+03  0.7818608E-02  0.1050630E+00
         -2   -1    0    0    0  501 -0.00000000000E+00  0.00000000000E+00  0.60621744716E+02  0.60621744716E+02  0.00000000000E+00 0. -1.
          2   -1    0    0  501    0  0.00000000000E+00 -0.00000000000E+00 -0.59807921823E+03  0.59807921823E+03  0.00000000000E+00 0. -1.
         25    1    1    2    0    0  0.90539369367E+02 -0.33770345163E+02 -0.46225768840E+03  0.48725761574E+03  0.12000000000E+03 0.  0.
         25    1    1    2    0    0 -0.90539369367E+02  0.33770345163E+02 -0.75199785115E+02  0.17144334720E+03  0.12000000000E+03 0.  0.
<mgrwt>
<rscale>  0 0.38082335E+03</rscale>
<asrwt>0</asrwt>
<pdfrwt beam="1">  1        2 0.92012187E-01 0.38082335E+03</pdfrwt>
<pdfrwt beam="2">  1       -2 0.93264223E-02 0.38082335E+03</pdfrwt>
<totfact> 0.37767249E+03</totfact>
</mgrwt>
</event>
<event>
 4    1  0.1728870E-004  0.2438698E+03  0.7818608E-02  0.1117241E+00
         -2   -1    0    0    0  501 -0.00000000000E+00  0.00000000000E+00  0.27155873105E+02  0.27155873105E+02  0.00000000000E+00 0. -1.
          2   -1    0    0  501    0  0.00000000000E+00 -0.00000000000E+00 -0.54751037373E+03  0.54751037373E+03  0.00000000000E+00 0. -1.
         25    1    1    2    0    0 -0.12791520796E+02 -0.12559525520E+01 -0.30119037943E+03  0.32447009890E+03  0.12000000000E+03 0.  0.
         25    1    1    2    0    0  0.12791520796E+02  0.12559525520E+01 -0.21916412120E+03  0.25019614794E+03  0.12000000000E+03 0.  0.
<mgrwt>
<rscale>  0 0.24386982E+03</rscale>
<asrwt>0</asrwt>
<pdfrwt beam="1">  1        2 0.84232363E-01 0.24386982E+03</pdfrwt>
<pdfrwt beam="2">  1       -2 0.41778268E-02 0.24386982E+03</pdfrwt>
<totfact> 0.14258372E+04</totfact>
</mgrwt>
</event>
<event>
 4    1  0.1728870E-004  0.2593610E+03  0.7818608E-02  0.1107528E+00
          2   -1    0    0  501    0  0.00000000000E+00  0.00000000000E+00  0.29949734320E+03  0.29949734320E+03  0.00000000000E+00 0.  1.
         -2   -1    0    0    0  501 -0.00000000000E+00 -0.00000000000E+00 -0.56150834639E+02  0.56150834639E+02  0.00000000000E+00 0.  1.
         25    1    1    2    0    0 -0.47788281116E+02  0.32136249772E+01  0.10646670194E+03  0.16741925164E+03  0.12000000000E+03 0.  0.
         25    1    1    2    0    0  0.47788281116E+02 -0.32136249772E+01  0.13687980662E+03  0.18822892620E+03  0.12000000000E+03 0.  0.
<mgrwt>
<rscale>  0 0.25936095E+03</rscale>
<asrwt>0</asrwt>
<pdfrwt beam="1">  1        2 0.46076513E-01 0.25936095E+03</pdfrwt>
<pdfrwt beam="2">  1       -2 0.86385902E-02 0.25936095E+03</pdfrwt>
<totfact> 0.90717840E+03</totfact>
</mgrwt>
</event>
<event>
 4    1  0.1728870E-004  0.2767472E+03  0.7818608E-02  0.1097479E+00
          1   -1    0    0  501    0  0.00000000000E+00  0.00000000000E+00  0.27091320229E+03  0.27091320229E+03  0.00000000000E+00 0. -1.
         -1   -1    0    0    0  501 -0.00000000000E+00 -0.00000000000E+00 -0.70676706671E+02  0.70676706671E+02  0.00000000000E+00 0. -1.
         25    1    1    2    0    0  0.15447080751E+02 -0.20322353863E+01  0.18295930043E+03  0.21935552854E+03  0.12000000000E+03 0.  0.
         25    1    1    2    0    0 -0.15447080751E+02  0.20322353863E+01  0.17277195186E+02  0.12223438043E+03  0.12000000000E+03 0.  0.
<mgrwt>
<rscale>  0 0.27674720E+03</rscale>
<asrwt>0</asrwt>
<pdfrwt beam="1">  1        1 0.41678954E-01 0.27674720E+03</pdfrwt>
<pdfrwt beam="2">  1       -1 0.10873340E-01 0.27674720E+03</pdfrwt>
<totfact> 0.52999433E+03</totfact>
</mgrwt>
</event>
<event>
 4    1  0.1728870E-004  0.3479473E+03  0.7818608E-02  0.1063461E+00
          2   -1    0    0  501    0  0.00000000000E+00  0.00000000000E+00  0.42123115323E+03  0.42123115323E+03  0.00000000000E+00 0.  1.
         -2   -1    0    0    0  501 -0.00000000000E+00 -0.00000000000E+00 -0.71853261799E+02  0.71853261799E+02  0.00000000000E+00 0.  1.
         25    1    1    2    0    0  0.35349736484E+00 -0.11788761992E+03  0.11180286608E+03  0.20198390222E+03  0.12000000000E+03 0.  0.
         25    1    1    2    0    0 -0.35349736484E+00  0.11788761992E+03  0.23757502534E+03  0.29110051281E+03  0.12000000000E+03 0.  0.
<mgrwt>
<rscale>  0 0.34794731E+03</rscale>
<asrwt>0</asrwt>
<pdfrwt beam="1">  1        2 0.64804791E-01 0.34794731E+03</pdfrwt>
<pdfrwt beam="2">  1       -2 0.11054348E-01 0.34794731E+03</pdfrwt>
<totfact> 0.42730823E+03</totfact>
</mgrwt>
</event>
<event>
 4    1  0.1728870E-004  0.2444072E+03  0.7818608E-02  0.1116891E+00
         -2   -1    0    0    0  501 -0.00000000000E+00  0.00000000000E+00  0.27807269969E+02  0.27807269969E+02  0.00000000000E+00 0.  1.
          2   -1    0    0  501    0  0.00000000000E+00 -0.00000000000E+00 -0.53704380348E+03  0.53704380348E+03  0.00000000000E+00 0.  1.
         25    1    1    2    0    0  0.86310928840E+01 -0.21426486846E+02 -0.25545769641E+03  0.28318231717E+03  0.12000000000E+03 0.  0.
         25    1    1    2    0    0 -0.86310928840E+01  0.21426486846E+02 -0.25377883710E+03  0.28166875628E+03  0.12000000000E+03 0.  0.
<mgrwt>
<rscale>  0 0.24440722E+03</rscale>
<asrwt>0</asrwt>
<pdfrwt beam="1">  1        2 0.82622128E-01 0.24440722E+03</pdfrwt>
<pdfrwt beam="2">  1       -2 0.42780413E-02 0.24440722E+03</pdfrwt>
<totfact> 0.14064166E+04</totfact>
</mgrwt>
</event>
<event>
 4    1  0.1728870E-004  0.4510515E+03  0.7818608E-02  0.1027409E+00
          2   -1    0    0  501    0  0.00000000000E+00  0.00000000000E+00  0.38487066766E+03  0.38487066766E+03  0.00000000000E+00 0.  1.
         -2   -1    0    0    0  501 -0.00000000000E+00 -0.00000000000E+00 -0.13215310899E+03  0.13215310899E+03  0.00000000000E+00 0.  1.
         25    1    1    2    0    0 -0.28430234851E+02 -0.14848837620E+03 -0.73408395999E+01  0.19316046191E+03  0.12000000000E+03 0.  0.
         25    1    1    2    0    0  0.28430234851E+02  0.14848837620E+03  0.26005839827E+03  0.32386331473E+03  0.12000000000E+03 0.  0.
<mgrwt>
<rscale>  0 0.45105146E+03</rscale>
<asrwt>0</asrwt>
<pdfrwt beam="1">  1        2 0.59210871E-01 0.45105146E+03</pdfrwt>
<pdfrwt beam="2">  1       -2 0.20331248E-01 0.45105146E+03</pdfrwt>
<totfact> 0.17129830E+03</totfact>
</mgrwt>
</event>
<event>
 4    1  0.1728870E-004  0.2681899E+03  0.7818608E-02  0.1102320E+00
          1   -1    0    0  501    0  0.00000000000E+00  0.00000000000E+00  0.17616380123E+03  0.17616380123E+03  0.00000000000E+00 0.  1.
         -1   -1    0    0    0  501 -0.00000000000E+00 -0.00000000000E+00 -0.10207233064E+03  0.10207233064E+03  0.00000000000E+00 0.  1.
         25    1    1    2    0    0 -0.43904086717E+02  0.23835953525E+02  0.71230433438E+02  0.14822110565E+03  0.12000000000E+03 0.  0.
         25    1    1    2    0    0  0.43904086717E+02 -0.23835953525E+02  0.28610371582E+01  0.13001502623E+03  0.12000000000E+03 0.  0.
<mgrwt>
<rscale>  0 0.26818986E+03</rscale>
<asrwt>0</asrwt>
<pdfrwt beam="1">  1        1 0.27102123E-01 0.26818986E+03</pdfrwt>
<pdfrwt beam="2">  1       -1 0.15703436E-01 0.26818986E+03</pdfrwt>
<totfact> 0.51077756E+03</totfact>
</mgrwt>
</event>
<event>
 4    1  0.1728870E-004  0.3823527E+03  0.7818608E-02  0.1050068E+00
         -2   -1    0    0    0  501 -0.00000000000E+00  0.00000000000E+00  0.28324115975E+02  0.28324115975E+02  0.00000000000E+00 0.  1.
          2   -1    0    0  501    0  0.00000000000E+00 -0.00000000000E+00 -0.12903630956E+04  0.12903630956E+04  0.00000000000E+00 0.  1.
         25    1    1    2    0    0 -0.42262663745E+02  0.13909608044E+03 -0.74087265780E+03  0.76447769582E+03  0.12000000000E+03 0.  0.
         25    1    1    2    0    0  0.42262663745E+02 -0.13909608044E+03 -0.52116632184E+03  0.55420951576E+03  0.12000000000E+03 0.  0.
<mgrwt>
<rscale>  0 0.38235269E+03</rscale>
<asrwt>0</asrwt>
<pdfrwt beam="1">  1        2 0.19851740E+00 0.38235269E+03</pdfrwt>
<pdfrwt beam="2">  1       -2 0.43575563E-02 0.38235269E+03</pdfrwt>
<totfact> 0.43028268E+03</totfact>
</mgrwt>
</event>
<event>
 4    1  0.1728870E-004  0.2858779E+03  0.7818608E-02  0.1092521E+00
          2   -1    0    0  501    0  0.00000000000E+00  0.00000000000E+00  0.12912798214E+04  0.12912798214E+04  0.00000000000E+00 0.  1.
         -2   -1    0    0    0  501 -0.00000000000E+00 -0.00000000000E+00 -0.15822708961E+02  0.15822708961E+02  0.00000000000E+00 0.  1.
         25    1    1    2    0    0  0.51549013198E+02 -0.19936529939E+02  0.38826773907E+03  0.41012998329E+03  0.12000000000E+03 0.  0.
         25    1    1    2    0    0 -0.51549013198E+02  0.19936529939E+02  0.88718937337E+03  0.89697254707E+03  0.12000000000E+03 0.  0.
<mgrwt>
<rscale>  0 0.28587791E+03</rscale>
<asrwt>0</asrwt>
<pdfrwt beam="1">  1        2 0.19865835E+00 0.28587791E+03</pdfrwt>
<pdfrwt beam="2">  1       -2 0.24342639E-02 0.28587791E+03</pdfrwt>
<totfact> 0.10262064E+04</totfact>
</mgrwt>
</event>
<event>
 4    1  0.1728870E-004  0.3068917E+03  0.7818608E-02  0.1081845E+00
         -2   -1    0    0    0  501 -0.00000000000E+00  0.00000000000E+00  0.70803471484E+02  0.70803471484E+02  0.00000000000E+00 0. -1.
          2   -1    0    0  501    0  0.00000000000E+00 -0.00000000000E+00 -0.33254903133E+03  0.33254903133E+03  0.00000000000E+00 0. -1.
         25    1    1    2    0    0  0.83828634704E+02  0.19982914502E+02 -0.18536647961E+03  0.23703858047E+03  0.12000000000E+03 0.  0.
         25    1    1    2    0    0 -0.83828634704E+02 -0.19982914502E+02 -0.76379080238E+02  0.16631392235E+03  0.12000000000E+03 0.  0.
<mgrwt>
<rscale>  0 0.30689168E+03</rscale>
<asrwt>0</asrwt>
<pdfrwt beam="1">  1        2 0.51161389E-01 0.30689168E+03</pdfrwt>
<pdfrwt beam="2">  1       -2 0.10892842E-01 0.30689168E+03</pdfrwt>
<totfact> 0.56434337E+03</totfact>
</mgrwt>
</event>
<event>
 4    1  0.1728870E-004  0.4201130E+03  0.7818608E-02  0.1037030E+00
          1   -1    0    0  501    0  0.00000000000E+00  0.00000000000E+00  0.19373572615E+04  0.19373572615E+04  0.00000000000E+00 0.  1.
         -1   -1    0    0    0  501 -0.00000000000E+00 -0.00000000000E+00 -0.22775212896E+02  0.22775212896E+02  0.00000000000E+00 0.  1.
         25    1    1    2    0    0  0.91538298999E+02 -0.26915797955E+02  0.16272739235E+04  0.16344797774E+04  0.12000000000E+03 0.  0.
         25    1    1    2    0    0 -0.91538298999E+02  0.26915797955E+02  0.28730812511E+03  0.32565269708E+03  0.12000000000E+03 0.  0.
<mgrwt>
<rscale>  0 0.42011296E+03</rscale>
<asrwt>0</asrwt>
<pdfrwt beam="1">  1        1 0.29805483E+00 0.42011296E+03</pdfrwt>
<pdfrwt beam="2">  1       -1 0.35038804E-02 0.42011296E+03</pdfrwt>
<totfact> 0.10978146E+03</totfact>
</mgrwt>
</event>
<event>
 4    1  0.1728870E-004  0.2540923E+03  0.7818608E-02  0.1110746E+00
         -1   -1    0    0    0  501 -0.00000000000E+00  0.00000000000E+00  0.66073164629E+01  0.66073164629E+01  0.00000000000E+00 0.  1.
          1   -1    0    0  501    0  0.00000000000E+00 -0.00000000000E+00 -0.24428566199E+04  0.24428566199E+04  0.00000000000E+00 0.  1.
         25    1    1    2    0    0 -0.29365761681E+02 -0.12591280761E+02 -0.14767654498E+04  0.14819774230E+04  0.12000000000E+03 0.  0.
         25    1    1    2    0    0  0.29365761681E+02  0.12591280761E+02 -0.95948385358E+03  0.96748651339E+03  0.12000000000E+03 0.  0.
<mgrwt>
<rscale>  0 0.25409232E+03</rscale>
<asrwt>0</asrwt>
<pdfrwt beam="1">  1        1 0.37582421E+00 0.25409232E+03</pdfrwt>
<pdfrwt beam="2">  1       -1 0.10165099E-02 0.25409232E+03</pdfrwt>
<totfact> 0.31805019E+03</totfact>
</mgrwt>
</event>
<event>
 4    1  0.1728870E-004  0.2460047E+03  0.7818608E-02  0.1115856E+00
          2   -1    0    0  501    0  0.00000000000E+00  0.00000000000E+00  0.22628957414E+03  0.22628957414E+03  0.00000000000E+00 0. -1.
         -2   -1    0    0    0  501 -0.00000000000E+00 -0.00000000000E+00 -0.66859386563E+02  0.66859386563E+02  0.00000000000E+00 0. -1.
         25    1    1    2    0    0 -0.63671017546E+01  0.15400169931E+02  0.10504624714E+03  0.16035092534E+03  0.12000000000E+03 0.  0.
         25    1    1    2    0    0  0.63671017546E+01 -0.15400169931E+02  0.54383940433E+02  0.13279803536E+03  0.12000000000E+03 0.  0.
<mgrwt>
<rscale>  0 0.24600473E+03</rscale>
<asrwt>0</asrwt>
<pdfrwt beam="1">  1        2 0.34813780E-01 0.24600473E+03</pdfrwt>
<pdfrwt beam="2">  1       -2 0.10286060E-01 0.24600473E+03</pdfrwt>
<totfact> 0.92904108E+03</totfact>
</mgrwt>
</event>
<event>
 4    1  0.1728870E-004  0.2888298E+03  0.7818608E-02  0.1090962E+00
         -2   -1    0    0    0  501 -0.00000000000E+00  0.00000000000E+00  0.13804693685E+03  0.13804693685E+03  0.00000000000E+00 0. -1.
          2   -1    0    0  501    0  0.00000000000E+00 -0.00000000000E+00 -0.15107659420E+03  0.15107659420E+03  0.00000000000E+00 0. -1.
         25    1    1    2    0    0  0.72922006882E+02  0.18988555991E+02 -0.34426456035E+02  0.14581963250E+03  0.12000000000E+03 0.  0.
         25    1    1    2    0    0 -0.72922006882E+02 -0.18988555991E+02  0.21396798685E+02  0.14330389855E+03  0.12000000000E+03 0.  0.
<mgrwt>
<rscale>  0 0.28882978E+03</rscale>
<asrwt>0</asrwt>
<pdfrwt beam="1">  1        2 0.23242553E-01 0.28882978E+03</pdfrwt>
<pdfrwt beam="2">  1       -2 0.21237990E-01 0.28882978E+03</pdfrwt>
<totfact> 0.44083776E+03</totfact>
</mgrwt>
</event>
<event>
 4    1  0.1728870E-004  0.3612925E+03  0.7818608E-02  0.1058073E+00
          2   -1    0    0  501    0  0.00000000000E+00  0.00000000000E+00  0.12316981007E+04  0.12316981007E+04  0.00000000000E+00 0. -1.
         -2   -1    0    0    0  501 -0.00000000000E+00 -0.00000000000E+00 -0.26494365029E+02  0.26494365029E+02  0.00000000000E+00 0. -1.
         25    1    1    2    0    0  0.20175605682E+02  0.11353785379E+03  0.84724825115E+03  0.86343934262E+03  0.12000000000E+03 0.  0.
         25    1    1    2    0    0 -0.20175605682E+02 -0.11353785379E+03  0.35795548456E+03  0.39475312315E+03  0.12000000000E+03 0.  0.
<mgrwt>
<rscale>  0 0.36129245E+03</rscale>
<asrwt>0</asrwt>
<pdfrwt beam="1">  1        2 0.18949197E+00 0.36129245E+03</pdfrwt>
<pdfrwt beam="2">  1       -2 0.40760571E-02 0.36129245E+03</pdfrwt>
<totfact> 0.51397232E+03</totfact>
</mgrwt>
</event>
<event>
 4    1  0.1728870E-004  0.2524135E+03  0.7818608E-02  0.1111789E+00
          1   -1    0    0  501    0  0.00000000000E+00  0.00000000000E+00  0.79881840745E+03  0.79881840745E+03  0.00000000000E+00 0.  1.
         -1   -1    0    0    0  501 -0.00000000000E+00 -0.00000000000E+00 -0.19939623136E+02  0.19939623136E+02  0.00000000000E+00 0.  1.
         25    1    1    2    0    0  0.38682554877E+02 -0.27022261953E+01  0.40549363963E+03  0.42465130856E+03  0.12000000000E+03 0.  0.
         25    1    1    2    0    0 -0.38682554877E+02  0.27022261953E+01  0.37338514469E+03  0.39410672203E+03  0.12000000000E+03 0.  0.
<mgrwt>
<rscale>  0 0.25241345E+03</rscale>
<asrwt>0</asrwt>
<pdfrwt beam="1">  1        1 0.12289512E+00 0.25241345E+03</pdfrwt>
<pdfrwt beam="2">  1       -1 0.30676349E-02 0.25241345E+03</pdfrwt>
<totfact> 0.83812669E+03</totfact>
</mgrwt>
</event>
<event>
 4    1  0.1728870E-004  0.4802311E+03  0.7818608E-02  0.1019072E+00
          2   -1    0    0  501    0  0.00000000000E+00  0.00000000000E+00  0.12638138928E+04  0.12638138928E+04  0.00000000000E+00 0. -1.
         -2   -1    0    0    0  501 -0.00000000000E+00 -0.00000000000E+00 -0.45620235211E+02  0.45620235211E+02  0.00000000000E+00 0. -1.
         25    1    1    2    0    0 -0.95107285086E+02  0.10918587922E+03  0.10161715189E+04  0.10334270694E+04  0.12000000000E+03 0.  0.
         25    1    1    2    0    0  0.95107285086E+02 -0.10918587922E+03  0.20202213871E+03  0.27600705865E+03  0.12000000000E+03 0.  0.
<mgrwt>
<rscale>  0 0.48023114E+03</rscale>
<asrwt>0</asrwt>
<pdfrwt beam="1">  1        2 0.19443288E+00 0.48023114E+03</pdfrwt>
<pdfrwt beam="2">  1       -2 0.70184987E-02 0.48023114E+03</pdfrwt>
<totfact> 0.21294177E+03</totfact>
</mgrwt>
</event>
<event>
 4    1  0.1728870E-004  0.2579509E+03  0.7818608E-02  0.1108381E+00
          2   -1    0    0  501    0  0.00000000000E+00  0.00000000000E+00  0.77061781999E+03  0.77061781999E+03  0.00000000000E+00 0. -1.
         -2   -1    0    0    0  501 -0.00000000000E+00 -0.00000000000E+00 -0.21586142622E+02  0.21586142622E+02  0.00000000000E+00 0. -1.
         25    1    1    2    0    0 -0.80336102628E+00  0.31656790942E+02  0.26672493285E+03  0.29418529468E+03  0.12000000000E+03 0.  0.
         25    1    1    2    0    0  0.80336102628E+00 -0.31656790942E+02  0.48230674452E+03  0.49801866793E+03  0.12000000000E+03 0.  0.
<mgrwt>
<rscale>  0 0.25795090E+03</rscale>
<asrwt>0</asrwt>
<pdfrwt beam="1">  1        2 0.11855657E+00 0.25795090E+03</pdfrwt>
<pdfrwt beam="2">  1       -2 0.33209456E-02 0.25795090E+03</pdfrwt>
<totfact> 0.13438435E+04</totfact>
</mgrwt>
</event>
<event>
 4    1  0.1728870E-004  0.2537843E+03  0.7818608E-02  0.1110936E+00
         -1   -1    0    0    0  501 -0.00000000000E+00  0.00000000000E+00  0.46101472463E+02  0.46101472463E+02  0.00000000000E+00 0.  1.
          1   -1    0    0  501    0  0.00000000000E+00 -0.00000000000E+00 -0.34926482525E+03  0.34926482525E+03  0.00000000000E+00 0.  1.
         25    1    1    2    0    0 -0.20514070971E+01  0.26415301778E+02 -0.20083754760E+03  0.23545211183E+03  0.12000000000E+03 0.  0.
         25    1    1    2    0    0  0.20514070971E+01 -0.26415301778E+02 -0.10232580518E+03  0.15991418588E+03  0.12000000000E+03 0.  0.
<mgrwt>
<rscale>  0 0.25378434E+03</rscale>
<asrwt>0</asrwt>
<pdfrwt beam="1">  1        1 0.53733047E-01 0.25378434E+03</pdfrwt>
<pdfrwt beam="2">  1       -1 0.70925346E-02 0.25378434E+03</pdfrwt>
<totfact> 0.73914544E+03</totfact>
</mgrwt>
</event>
<event>
 4    1  0.1728870E-004  0.2911592E+03  0.7818608E-02  0.1089745E+00
          2   -1    0    0  501    0  0.00000000000E+00  0.00000000000E+00  0.86797816465E+03  0.86797816465E+03  0.00000000000E+00 0. -1.
         -2   -1    0    0    0  501 -0.00000000000E+00 -0.00000000000E+00 -0.24416996142E+02  0.24416996142E+02  0.00000000000E+00 0. -1.
         25    1    1    2    0    0 -0.28115421963E+02  0.24329497198E+02  0.19632230532E+03  0.23307691639E+03  0.12000000000E+03 0.  0.
         25    1    1    2    0    0  0.28115421963E+02 -0.24329497198E+02  0.64723886319E+03  0.65931824441E+03  0.12000000000E+03 0.  0.
<mgrwt>
<rscale>  0 0.29115920E+03</rscale>
<asrwt>0</asrwt>
<pdfrwt beam="1">  1        2 0.13353508E+00 0.29115920E+03</pdfrwt>
<pdfrwt beam="2">  1       -2 0.37564616E-02 0.29115920E+03</pdfrwt>
<totfact> 0.96312449E+03</totfact>
</mgrwt>
</event>
<event>
 4    1  0.1728870E-004  0.2590448E+03  0.7818608E-02  0.1107719E+00
         -1   -1    0    0    0  501 -0.00000000000E+00  0.00000000000E+00  0.31405538934E+03  0.31405538934E+03  0.00000000000E+00 0. -1.
          1   -1    0    0  501    0  0.00000000000E+00 -0.00000000000E+00 -0.53417483611E+02  0.53417483611E+02  0.00000000000E+00 0. -1.
         25    1    1    2    0    0  0.33850115562E+02 -0.33898296507E+02  0.11754208069E+03  0.17467416971E+03  0.12000000000E+03 0.  0.
         25    1    1    2    0    0 -0.33850115562E+02  0.33898296507E+02  0.14309582504E+03  0.19279870325E+03  0.12000000000E+03 0.  0.
<mgrwt>
<rscale>  0 0.25904477E+03</rscale>
<asrwt>0</asrwt>
<pdfrwt beam="1">  1        1 0.82180746E-02 0.25904477E+03</pdfrwt>
<pdfrwt beam="2">  1       -1 0.48316213E-01 0.25904477E+03</pdfrwt>
<totfact> 0.36438984E+03</totfact>
</mgrwt>
</event>
<event>
 4    1  0.1728870E-004  0.2780333E+03  0.7818608E-02  0.1096768E+00
          2   -1    0    0  501    0  0.00000000000E+00  0.00000000000E+00  0.26918177076E+03  0.26918177076E+03  0.00000000000E+00 0.  1.
         -2   -1    0    0    0  501 -0.00000000000E+00 -0.00000000000E+00 -0.71793958191E+02  0.71793958191E+02  0.00000000000E+00 0.  1.
         25    1    1    2    0    0 -0.40563949613E+02  0.12669178297E+02  0.30195272110E+02  0.13083461524E+03  0.12000000000E+03 0.  0.
         25    1    1    2    0    0  0.40563949613E+02 -0.12669178297E+02  0.16719254046E+03  0.21014111371E+03  0.12000000000E+03 0.  0.
<mgrwt>
<rscale>  0 0.27803327E+03</rscale>
<asrwt>0</asrwt>
<pdfrwt beam="1">  1        2 0.41412580E-01 0.27803327E+03</pdfrwt>
<pdfrwt beam="2">  1       -2 0.11045224E-01 0.27803327E+03</pdfrwt>
<totfact> 0.69098436E+03</totfact>
</mgrwt>
</event>
<event>
 4    1  0.1728870E-004  0.2810938E+03  0.7818608E-02  0.1095093E+00
         -1   -1    0    0    0  501 -0.00000000000E+00  0.00000000000E+00  0.61110938768E+02  0.61110938768E+02  0.00000000000E+00 0. -1.
          1   -1    0    0  501    0  0.00000000000E+00 -0.00000000000E+00 -0.32323898984E+03  0.32323898984E+03  0.00000000000E+00 0. -1.
         25    1    1    2    0    0 -0.71835318451E+02 -0.74863964277E+01 -0.14707290507E+03  0.20309307845E+03  0.12000000000E+03 0.  0.
         25    1    1    2    0    0  0.71835318451E+02  0.74863964277E+01 -0.11505514601E+03  0.18125685016E+03  0.12000000000E+03 0.  0.
<mgrwt>
<rscale>  0 0.28109385E+03</rscale>
<asrwt>0</asrwt>
<pdfrwt beam="1">  1        1 0.49729075E-01 0.28109385E+03</pdfrwt>
<pdfrwt beam="2">  1       -1 0.94016830E-02 0.28109385E+03</pdfrwt>
<totfact> 0.53174983E+03</totfact>
</mgrwt>
</event>
<event>
 4    1  0.1728870E-004  0.3173601E+03  0.7818608E-02  0.1076871E+00
         -2   -1    0    0    0  501 -0.00000000000E+00  0.00000000000E+00  0.13904405715E+03  0.13904405715E+03  0.00000000000E+00 0.  1.
          2   -1    0    0  501    0  0.00000000000E+00 -0.00000000000E+00 -0.18108903169E+03  0.18108903169E+03  0.00000000000E+00 0.  1.
         25    1    1    2    0    0  0.52227486004E+01  0.12084519126E+02 -0.12490798633E+03  0.17371044227E+03  0.12000000000E+03 0.  0.
         25    1    1    2    0    0 -0.52227486004E+01 -0.12084519126E+02  0.82863011794E+02  0.14642264657E+03  0.12000000000E+03 0.  0.
<mgrwt>
<rscale>  0 0.31736007E+03</rscale>
<asrwt>0</asrwt>
<pdfrwt beam="1">  1        2 0.27859851E-01 0.31736007E+03</pdfrwt>
<pdfrwt beam="2">  1       -2 0.21391393E-01 0.31736007E+03</pdfrwt>
<totfact> 0.35639758E+03</totfact>
</mgrwt>
</event>
<event>
 4    1  0.1728870E-004  0.2773732E+03  0.7818608E-02  0.1097132E+00
         -2   -1    0    0    0  501 -0.00000000000E+00  0.00000000000E+00  0.32091573482E+03  0.32091573482E+03  0.00000000000E+00 0. -1.
          2   -1    0    0  501    0  0.00000000000E+00 -0.00000000000E+00 -0.59934640613E+02  0.59934640613E+02  0.00000000000E+00 0. -1.
         25    1    1    2    0    0 -0.39583684047E+02  0.40897021689E+02  0.75661974978E+02  0.15285342287E+03  0.12000000000E+03 0.  0.
         25    1    1    2    0    0  0.39583684047E+02 -0.40897021689E+02  0.18531911923E+03  0.22799695256E+03  0.12000000000E+03 0.  0.
<mgrwt>
<rscale>  0 0.27737317E+03</rscale>
<asrwt>0</asrwt>
<pdfrwt beam="1">  1        2 0.92207141E-02 0.27737317E+03</pdfrwt>
<pdfrwt beam="2">  1       -2 0.49371651E-01 0.27737317E+03</pdfrwt>
<totfact> 0.27872767E+03</totfact>
</mgrwt>
</event>
<event>
 4    1  0.1728870E-004  0.3416482E+03  0.7818608E-02  0.1066096E+00
          2   -1    0    0  501    0  0.00000000000E+00  0.00000000000E+00  0.75828915860E+02  0.75828915860E+02  0.00000000000E+00 0. -1.
         -2   -1    0    0    0  501 -0.00000000000E+00 -0.00000000000E+00 -0.38482506081E+03  0.38482506081E+03  0.00000000000E+00 0. -1.
         25    1    1    2    0    0  0.26597682920E+02 -0.97470831520E+02 -0.24567606738E+03  0.29148710060E+03  0.12000000000E+03 0.  0.
         25    1    1    2    0    0 -0.26597682920E+02  0.97470831520E+02 -0.63320077564E+02  0.16916687606E+03  0.12000000000E+03 0.  0.
<mgrwt>
<rscale>  0 0.34164816E+03</rscale>
<asrwt>0</asrwt>
<pdfrwt beam="1">  1        2 0.11665987E-01 0.34164816E+03</pdfrwt>
<pdfrwt beam="2">  1       -2 0.59203854E-01 0.34164816E+03</pdfrwt>
<totfact> 0.14454030E+03</totfact>
</mgrwt>
</event>
<event>
 4    1  0.1728870E-004  0.2711513E+03  0.7818608E-02  0.1100623E+00
         -2   -1    0    0    0  501 -0.00000000000E+00  0.00000000000E+00  0.19306012495E+02  0.19306012495E+02  0.00000000000E+00 0. -1.
          2   -1    0    0  501    0  0.00000000000E+00 -0.00000000000E+00 -0.95207394902E+03  0.95207394902E+03  0.00000000000E+00 0. -1.
         25    1    1    2    0    0 -0.42646560552E+02  0.24460253778E+02 -0.60804708332E+03  0.62172203489E+03  0.12000000000E+03 0.  0.
         25    1    1    2    0    0  0.42646560552E+02 -0.24460253778E+02 -0.32472085321E+03  0.34965792662E+03  0.12000000000E+03 0.  0.
<mgrwt>
<rscale>  0 0.27115126E+03</rscale>
<asrwt>0</asrwt>
<pdfrwt beam="1">  1        2 0.14647295E+00 0.27115126E+03</pdfrwt>
<pdfrwt beam="2">  1       -2 0.29701550E-02 0.27115126E+03</pdfrwt>
<totfact> 0.12053549E+04</totfact>
</mgrwt>
</event>
<event>
 4    1  0.1728870E-004  0.3643283E+03  0.7818608E-02  0.1056883E+00
         -2   -1    0    0    0  501 -0.00000000000E+00  0.00000000000E+00  0.10346767208E+03  0.10346767208E+03  0.00000000000E+00 0.  1.
          2   -1    0    0  501    0  0.00000000000E+00 -0.00000000000E+00 -0.32071642734E+03  0.32071642734E+03  0.00000000000E+00 0.  1.
         25    1    1    2    0    0  0.18301951263E+02 -0.92887149093E+02 -0.22400552203E+03  0.27118528313E+03  0.12000000000E+03 0.  0.
         25    1    1    2    0    0 -0.18301951263E+02  0.92887149093E+02  0.67567667766E+01  0.15299881628E+03  0.12000000000E+03 0.  0.
<mgrwt>
<rscale>  0 0.36432833E+03</rscale>
<asrwt>0</asrwt>
<pdfrwt beam="1">  1        2 0.49340988E-01 0.36432833E+03</pdfrwt>
<pdfrwt beam="2">  1       -2 0.15918104E-01 0.36432833E+03</pdfrwt>
<totfact> 0.31654664E+03</totfact>
</mgrwt>
</event>
<event>
 4    1  0.1728870E-004  0.2942439E+03  0.7818608E-02  0.1088154E+00
          2   -1    0    0  501    0  0.00000000000E+00  0.00000000000E+00  0.18433753217E+03  0.18433753217E+03  0.00000000000E+00 0.  1.
         -2   -1    0    0    0  501 -0.00000000000E+00 -0.00000000000E+00 -0.11741977721E+03  0.11741977721E+03  0.00000000000E+00 0.  1.
         25    1    1    2    0    0 -0.17676446947E+02  0.42295643193E+02  0.10700832261E+03  0.16718899281E+03  0.12000000000E+03 0.  0.
         25    1    1    2    0    0  0.17676446947E+02 -0.42295643193E+02 -0.40090567645E+02  0.13456831657E+03  0.12000000000E+03 0.  0.
<mgrwt>
<rscale>  0 0.29424393E+03</rscale>
<asrwt>0</asrwt>
<pdfrwt beam="1">  1        2 0.28359621E-01 0.29424393E+03</pdfrwt>
<pdfrwt beam="2">  1       -2 0.18064581E-01 0.29424393E+03</pdfrwt>
<totfact> 0.46569477E+03</totfact>
</mgrwt>
</event>
<event>
 4    1  0.1728870E-004  0.2986872E+03  0.7818608E-02  0.1085899E+00
         -3   -1    0    0    0  501 -0.00000000000E+00  0.00000000000E+00  0.26063442421E+03  0.26063442421E+03  0.00000000000E+00 0.  1.
          3   -1    0    0  501    0  0.00000000000E+00 -0.00000000000E+00 -0.85573903793E+02  0.85573903793E+02  0.00000000000E+00 0.  1.
         25    1    1    2    0    0  0.27974866967E+02 -0.84175674312E+02  0.80636993690E+02  0.16961857823E+03  0.12000000000E+03 0.  0.
         25    1    1    2    0    0 -0.27974866967E+02  0.84175674312E+02  0.94423526731E+02  0.17658974978E+03  0.12000000000E+03 0.  0.
<mgrwt>
<rscale>  0 0.29868716E+03</rscale>
<asrwt>0</asrwt>
<pdfrwt beam="1">  1        3 0.13165216E-01 0.29868716E+03</pdfrwt>
<pdfrwt beam="2">  1       -3 0.40097603E-01 0.29868716E+03</pdfrwt>
<totfact> 0.73508823E+02</totfact>
</mgrwt>
</event>
<event>
 4    1  0.1728870E-004  0.2869441E+03  0.7818608E-02  0.1091956E+00
         -2   -1    0    0    0  501 -0.00000000000E+00  0.00000000000E+00  0.10357628895E+03  0.10357628895E+03  0.00000000000E+00 0. -1.
          2   -1    0    0  501    0  0.00000000000E+00 -0.00000000000E+00 -0.19873495506E+03  0.19873495506E+03  0.00000000000E+00 0. -1.
         25    1    1    2    0    0 -0.71660404890E+02 -0.10653065910E+01 -0.81683928789E+02  0.16189074319E+03  0.12000000000E+03 0.  0.
         25    1    1    2    0    0  0.71660404890E+02  0.10653065910E+01 -0.13474737324E+02  0.14042050083E+03  0.12000000000E+03 0.  0.
<mgrwt>
<rscale>  0 0.28694410E+03</rscale>
<asrwt>0</asrwt>
<pdfrwt beam="1">  1        2 0.30574608E-01 0.28694410E+03</pdfrwt>
<pdfrwt beam="2">  1       -2 0.15934814E-01 0.28694410E+03</pdfrwt>
<totfact> 0.52868650E+03</totfact>
</mgrwt>
</event>
<event>
 4    1  0.1728870E-004  0.2427011E+03  0.7818608E-02  0.1118006E+00
         -1   -1    0    0    0  501 -0.00000000000E+00  0.00000000000E+00  0.73798521504E+02  0.73798521504E+02  0.00000000000E+00 0.  1.
          1   -1    0    0  501    0  0.00000000000E+00 -0.00000000000E+00 -0.19954268230E+03  0.19954268230E+03  0.00000000000E+00 0.  1.
         25    1    1    2    0    0 -0.13811075926E+01  0.22026486011E+01 -0.42750505684E+02  0.12741414700E+03  0.12000000000E+03 0.  0.
         25    1    1    2    0    0  0.13811075926E+01 -0.22026486011E+01 -0.82993655111E+02  0.14592705680E+03  0.12000000000E+03 0.  0.
<mgrwt>
<rscale>  0 0.24270109E+03</rscale>
<asrwt>0</asrwt>
<pdfrwt beam="1">  1        1 0.30698874E-01 0.24270109E+03</pdfrwt>
<pdfrwt beam="2">  1       -1 0.11353619E-01 0.24270109E+03</pdfrwt>
<totfact> 0.72385751E+03</totfact>
</mgrwt>
</event>
<event>
 4    1  0.1728870E-004  0.2887572E+03  0.7818608E-02  0.1091000E+00
          2   -1    0    0  501    0  0.00000000000E+00  0.00000000000E+00  0.24258781993E+03  0.24258781993E+03  0.00000000000E+00 0. -1.
         -2   -1    0    0    0  501 -0.00000000000E+00 -0.00000000000E+00 -0.85928385825E+02  0.85928385825E+02  0.00000000000E+00 0. -1.
         25    1    1    2    0    0  0.32407425640E+02 -0.73344281245E+02  0.82816741397E+02  0.16639782896E+03  0.12000000000E+03 0.  0.
         25    1    1    2    0    0 -0.32407425640E+02  0.73344281245E+02  0.73842692712E+02  0.16211837680E+03  0.12000000000E+03 0.  0.
<mgrwt>
<rscale>  0 0.28875720E+03</rscale>
<asrwt>0</asrwt>
<pdfrwt beam="1">  1        2 0.37321203E-01 0.28875720E+03</pdfrwt>
<pdfrwt beam="2">  1       -2 0.13219752E-01 0.28875720E+03</pdfrwt>
<totfact> 0.57890182E+03</totfact>
</mgrwt>
</event>
<event>
 4    1  0.1728870E-004  0.3133690E+03  0.7818608E-02  0.1078742E+00
         -2   -1    0    0    0  501 -0.00000000000E+00  0.00000000000E+00  0.49002665831E+02  0.49002665831E+02  0.00000000000E+00 0. -1.
          2   -1    0    0  501    0  0.00000000000E+00 -0.00000000000E+00 -0.50099381669E+03  0.50099381669E+03  0.00000000000E+00 0. -1.
         25    1    1    2    0    0  0.74877059479E+02 -0.44976228268E+02 -0.31411174806E+03  0.34741275943E+03  0.12000000000E+03 0.  0.
         25    1    1    2    0    0 -0.74877059479E+02  0.44976228268E+02 -0.13787940280E+03  0.20258372309E+03  0.12000000000E+03 0.  0.
<mgrwt>
<rscale>  0 0.31336900E+03</rscale>
<asrwt>0</asrwt>
<pdfrwt beam="1">  1        2 0.77075970E-01 0.31336900E+03</pdfrwt>
<pdfrwt beam="2">  1       -2 0.75388718E-02 0.31336900E+03</pdfrwt>
<totfact> 0.64480399E+03</totfact>
</mgrwt>
</event>
<event>
 4    1  0.1728870E-004  0.2723222E+03  0.7818608E-02  0.1099958E+00
          3   -1    0    0  501    0  0.00000000000E+00  0.00000000000E+00  0.22799908682E+03  0.22799908682E+03  0.00000000000E+00 0.  1.
         -3   -1    0    0    0  501 -0.00000000000E+00 -0.00000000000E+00 -0.81315457394E+02  0.81315457394E+02  0.00000000000E+00 0.  1.
         25    1    1    2    0    0 -0.52989971490E+02 -0.27778280634E+02  0.10022742054E+03  0.16740700637E+03  0.12000000000E+03 0.  0.
         25    1    1    2    0    0  0.52989971490E+02  0.27778280634E+02  0.46456208888E+02  0.14190753785E+03  0.12000000000E+03 0.  0.
<mgrwt>
<rscale>  0 0.27232224E+03</rscale>
<asrwt>0</asrwt>
<pdfrwt beam="1">  1        3 0.35076782E-01 0.27232224E+03</pdfrwt>
<pdfrwt beam="2">  1       -3 0.12510070E-01 0.27232224E+03</pdfrwt>
<totfact> 0.10287030E+03</totfact>
</mgrwt>
</event>
<event>
 4    1  0.1728870E-004  0.2490860E+03  0.7818608E-02  0.1113884E+00
          2   -1    0    0  501    0  0.00000000000E+00  0.00000000000E+00  0.19480958838E+03  0.19480958838E+03  0.00000000000E+00 0. -1.
         -2   -1    0    0    0  501 -0.00000000000E+00 -0.00000000000E+00 -0.79621131721E+02  0.79621131721E+02  0.00000000000E+00 0. -1.
         25    1    1    2    0    0 -0.11858361769E+02  0.11722897637E+02  0.25797446537E+02  0.12386910559E+03  0.12000000000E+03 0.  0.
         25    1    1    2    0    0  0.11858361769E+02 -0.11722897637E+02  0.89391010126E+02  0.15056161451E+03  0.12000000000E+03 0.  0.
<mgrwt>
<rscale>  0 0.24908601E+03</rscale>
<asrwt>0</asrwt>
<pdfrwt beam="1">  1        2 0.29970706E-01 0.24908601E+03</pdfrwt>
<pdfrwt beam="2">  1       -2 0.12249405E-01 0.24908601E+03</pdfrwt>
<totfact> 0.82714460E+03</totfact>
</mgrwt>
</event>
<event>
 4    1  0.1728870E-004  0.3144836E+03  0.7818608E-02  0.1078216E+00
          4   -1    0    0  501    0  0.00000000000E+00  0.00000000000E+00  0.11353603027E+02  0.11353603027E+02  0.00000000000E+00 0. -1.
         -4   -1    0    0    0  501 -0.00000000000E+00 -0.00000000000E+00 -0.21777212517E+04  0.21777212517E+04  0.00000000000E+00 0. -1.
         25    1    1    2    0    0 -0.75773132222E+02 -0.27581446419E+02 -0.15135583190E+04  0.15204476607E+04  0.12000000000E+03 0.  0.
         25    1    1    2    0    0  0.75773132222E+02  0.27581446419E+02 -0.65280932962E+03  0.66862719402E+03  0.12000000000E+03 0.  0.
<mgrwt>
<rscale>  0 0.31448359E+03</rscale>
<asrwt>0</asrwt>
<pdfrwt beam="1">  1        4 0.17467085E-02 0.31448359E+03</pdfrwt>
<pdfrwt beam="2">  1       -4 0.33503397E+00 0.31448359E+03</pdfrwt>
<totfact> 0.52518000E+01</totfact>
</mgrwt>
</event>
<event>
 4    1  0.1728870E-004  0.3904028E+03  0.7818608E-02  0.1047154E+00
          2   -1    0    0  501    0  0.00000000000E+00  0.00000000000E+00  0.55075896609E+03  0.55075896609E+03  0.00000000000E+00 0.  1.
         -2   -1    0    0    0  501 -0.00000000000E+00 -0.00000000000E+00 -0.69183794487E+02  0.69183794487E+02  0.00000000000E+00 0.  1.
         25    1    1    2    0    0  0.91745536135E+02 -0.53397680507E+02  0.63710566182E+02  0.17241691311E+03  0.12000000000E+03 0.  0.
         25    1    1    2    0    0 -0.91745536135E+02  0.53397680507E+02  0.41786460542E+03  0.44752584747E+03  0.12000000000E+03 0.  0.
<mgrwt>
<rscale>  0 0.39040284E+03</rscale>
<asrwt>0</asrwt>
<pdfrwt beam="1">  1        2 0.84732146E-01 0.39040284E+03</pdfrwt>
<pdfrwt beam="2">  1       -2 0.10643661E-01 0.39040284E+03</pdfrwt>
<totfact> 0.33651785E+03</totfact>
</mgrwt>
</event>
<event>
 4    1  0.1728870E-004  0.3565855E+03  0.7818608E-02  0.1059944E+00
          1   -1    0    0  501    0  0.00000000000E+00  0.00000000000E+00  0.12923605694E+04  0.12923605694E+04  0.00000000000E+00 0. -1.
         -1   -1    0    0    0  501 -0.00000000000E+00 -0.00000000000E+00 -0.24597082937E+02  0.24597082937E+02  0.00000000000E+00 0. -1.
         25    1    1    2    0    0  0.99245969311E+02  0.58227577422E+02  0.39601589852E+03  0.42949831790E+03  0.12000000000E+03 0.  0.
         25    1    1    2    0    0 -0.99245969311E+02 -0.58227577422E+02  0.87174758794E+03  0.88745933443E+03  0.12000000000E+03 0.  0.
<mgrwt>
<rscale>  0 0.35658547E+03</rscale>
<asrwt>0</asrwt>
<pdfrwt beam="1">  1        1 0.19882465E+00 0.35658547E+03</pdfrwt>
<pdfrwt beam="2">  1       -1 0.37841676E-02 0.35658547E+03</pdfrwt>
<totfact> 0.26421333E+03</totfact>
</mgrwt>
</event>
<event>
 4    1  0.1728870E-004  0.2668261E+03  0.7818608E-02  0.1103110E+00
         -3   -1    0    0    0  501 -0.00000000000E+00  0.00000000000E+00  0.70143873041E+02  0.70143873041E+02  0.00000000000E+00 0. -1.
          3   -1    0    0  501    0  0.00000000000E+00 -0.00000000000E+00 -0.25375042211E+03  0.25375042211E+03  0.00000000000E+00 0. -1.
         25    1    1    2    0    0 -0.33727094467E+02  0.23257010526E+01 -0.14946071181E+03  0.19463152407E+03  0.12000000000E+03 0.  0.
         25    1    1    2    0    0  0.33727094467E+02 -0.23257010526E+01 -0.34145837265E+02  0.12926277109E+03  0.12000000000E+03 0.  0.
<mgrwt>
<rscale>  0 0.26682607E+03</rscale>
<asrwt>0</asrwt>
<pdfrwt beam="1">  1        3 0.39038526E-01 0.26682607E+03</pdfrwt>
<pdfrwt beam="2">  1       -3 0.10791365E-01 0.26682607E+03</pdfrwt>
<totfact> 0.10723829E+03</totfact>
</mgrwt>
</event>
<event>
 4    1  0.1728870E-004  0.4069171E+03  0.7818608E-02  0.1041411E+00
          2   -1    0    0  501    0  0.00000000000E+00  0.00000000000E+00  0.17967290190E+04  0.17967290190E+04  0.00000000000E+00 0.  1.
         -2   -1    0    0    0  501 -0.00000000000E+00 -0.00000000000E+00 -0.23039302609E+02  0.23039302609E+02  0.00000000000E+00 0.  1.
         25    1    1    2    0    0 -0.58119758239E+02 -0.14702362381E+03  0.10869191757E+04  0.11048923689E+04  0.12000000000E+03 0.  0.
         25    1    1    2    0    0  0.58119758239E+02  0.14702362381E+03  0.68677054064E+03  0.71487595270E+03  0.12000000000E+03 0.  0.
<mgrwt>
<rscale>  0 0.40691711E+03</rscale>
<asrwt>0</asrwt>
<pdfrwt beam="1">  1        2 0.27641974E+00 0.40691711E+03</pdfrwt>
<pdfrwt beam="2">  1       -2 0.35445095E-02 0.40691711E+03</pdfrwt>
<totfact> 0.31245874E+03</totfact>
</mgrwt>
</event>
<event>
 4    1  0.1728870E-004  0.3268784E+03  0.7818608E-02  0.1072527E+00
         -2   -1    0    0    0  501 -0.00000000000E+00  0.00000000000E+00  0.78983641601E+02  0.78983641601E+02  0.00000000000E+00 0. -1.
          2   -1    0    0  501    0  0.00000000000E+00 -0.00000000000E+00 -0.33820127589E+03  0.33820127589E+03  0.00000000000E+00 0. -1.
         25    1    1    2    0    0 -0.71721748421E+02  0.73531937703E+02 -0.76044812128E+02  0.17531049173E+03  0.12000000000E+03 0.  0.
         25    1    1    2    0    0  0.71721748421E+02 -0.73531937703E+02 -0.18317282216E+03  0.24187442576E+03  0.12000000000E+03 0.  0.
<mgrwt>
<rscale>  0 0.32687838E+03</rscale>
<asrwt>0</asrwt>
<pdfrwt beam="1">  1        2 0.52030963E-01 0.32687838E+03</pdfrwt>
<pdfrwt beam="2">  1       -2 0.12151330E-01 0.32687838E+03</pdfrwt>
<totfact> 0.46528439E+03</totfact>
</mgrwt>
</event>
<event>
 4    1  0.1728870E-004  0.5972989E+03  0.7818608E-02  0.9911026E-01
         -2   -1    0    0    0  501 -0.00000000000E+00  0.00000000000E+00  0.18819229423E+03  0.18819229423E+03  0.00000000000E+00 0.  1.
          2   -1    0    0  501    0  0.00000000000E+00 -0.00000000000E+00 -0.47393803800E+03  0.47393803800E+03  0.00000000000E+00 0.  1.
         25    1    1    2    0    0  0.14109617147E+03  0.12886923612E+03  0.74005126504E+02  0.23747035261E+03  0.12000000000E+03 0.  0.
         25    1    1    2    0    0 -0.14109617147E+03 -0.12886923612E+03 -0.35975087027E+03  0.42465997961E+03  0.12000000000E+03 0.  0.
<mgrwt>
<rscale>  0 0.59729888E+03</rscale>
<asrwt>0</asrwt>
<pdfrwt beam="1">  1        2 0.72913544E-01 0.59729888E+03</pdfrwt>
<pdfrwt beam="2">  1       -2 0.28952661E-01 0.59729888E+03</pdfrwt>
<totfact> 0.72146574E+02</totfact>
</mgrwt>
</event>
<event>
 4    1  0.1728870E-004  0.3005895E+03  0.7818608E-02  0.1084946E+00
          1   -1    0    0  501    0  0.00000000000E+00  0.00000000000E+00  0.12205588713E+03  0.12205588713E+03  0.00000000000E+00 0. -1.
         -1   -1    0    0    0  501 -0.00000000000E+00 -0.00000000000E+00 -0.18506700671E+03  0.18506700671E+03  0.00000000000E+00 0. -1.
         25    1    1    2    0    0 -0.62275264626E+02 -0.19290953186E+02  0.32613251346E+02  0.14040645862E+03  0.12000000000E+03 0.  0.
         25    1    1    2    0    0  0.62275264626E+02  0.19290953186E+02 -0.95624370921E+02  0.16671643522E+03  0.12000000000E+03 0.  0.
<mgrwt>
<rscale>  0 0.30058954E+03</rscale>
<asrwt>0</asrwt>
<pdfrwt beam="1">  1        1 0.18777829E-01 0.30058954E+03</pdfrwt>
<pdfrwt beam="2">  1       -1 0.28471847E-01 0.30058954E+03</pdfrwt>
<totfact> 0.30938511E+03</totfact>
</mgrwt>
</event>
<event>
 4    1  0.1728870E-004  0.2865096E+03  0.7818608E-02  0.1092186E+00
         -3   -1    0    0    0  501 -0.00000000000E+00  0.00000000000E+00  0.29832348145E+02  0.29832348145E+02  0.00000000000E+00 0. -1.
          3   -1    0    0  501    0  0.00000000000E+00 -0.00000000000E+00 -0.68790865769E+03  0.68790865769E+03  0.00000000000E+00 0. -1.
         25    1    1    2    0    0  0.24881606413E+02  0.62188292878E+02 -0.43034705911E+03  0.45175775521E+03  0.12000000000E+03 0.  0.
         25    1    1    2    0    0 -0.24881606413E+02 -0.62188292878E+02 -0.22772925044E+03  0.26598325062E+03  0.12000000000E+03 0.  0.
<mgrwt>
<rscale>  0 0.28650955E+03</rscale>
<asrwt>0</asrwt>
<pdfrwt beam="1">  1        3 0.10583209E+00 0.28650955E+03</pdfrwt>
<pdfrwt beam="2">  1       -3 0.45895925E-02 0.28650955E+03</pdfrwt>
<totfact> 0.52926803E+02</totfact>
</mgrwt>
</event>
<event>
 4    1  0.1728870E-004  0.2450298E+03  0.7818608E-02  0.1116487E+00
         -2   -1    0    0    0  501 -0.00000000000E+00  0.00000000000E+00  0.27937540068E+02  0.27937540068E+02  0.00000000000E+00 0.  1.
          2   -1    0    0  501    0  0.00000000000E+00 -0.00000000000E+00 -0.53726643418E+03  0.53726643418E+03  0.00000000000E+00 0.  1.
         25    1    1    2    0    0  0.10896756320E+02 -0.21425216349E+02 -0.26773808972E+03  0.29438319225E+03  0.12000000000E+03 0.  0.
         25    1    1    2    0    0 -0.10896756320E+02  0.21425216349E+02 -0.24159080439E+03  0.27082078200E+03  0.12000000000E+03 0.  0.
<mgrwt>
<rscale>  0 0.24502981E+03</rscale>
<asrwt>0</asrwt>
<pdfrwt beam="1">  1        2 0.82656365E-01 0.24502981E+03</pdfrwt>
<pdfrwt beam="2">  1       -2 0.42980836E-02 0.24502981E+03</pdfrwt>
<totfact> 0.13960734E+04</totfact>
</mgrwt>
</event>
<event>
 4    1  0.1728870E-004  0.2479896E+03  0.7818608E-02  0.1114582E+00
          2   -1    0    0  501    0  0.00000000000E+00  0.00000000000E+00  0.10987863151E+04  0.10987863151E+04  0.00000000000E+00 0. -1.
         -2   -1    0    0    0  501 -0.00000000000E+00 -0.00000000000E+00 -0.13992448961E+02  0.13992448961E+02  0.00000000000E+00 0. -1.
         25    1    1    2    0    0 -0.20597508087E+01 -0.20883968471E+02  0.43867284965E+03  0.45527382061E+03  0.12000000000E+03 0.  0.
         25    1    1    2    0    0  0.20597508087E+01  0.20883968471E+02  0.64612101645E+03  0.65750494341E+03  0.12000000000E+03 0.  0.
<mgrwt>
<rscale>  0 0.24798961E+03</rscale>
<asrwt>0</asrwt>
<pdfrwt beam="1">  1        2 0.16904398E+00 0.24798961E+03</pdfrwt>
<pdfrwt beam="2">  1       -2 0.21526853E-02 0.24798961E+03</pdfrwt>
<totfact> 0.15764159E+04</totfact>
</mgrwt>
</event>
<event>
 4    1  0.1728870E-004  0.2712841E+03  0.7818608E-02  0.1100547E+00
         -2   -1    0    0    0  501 -0.00000000000E+00  0.00000000000E+00  0.24619360883E+02  0.24619360883E+02  0.00000000000E+00 0.  1.
          2   -1    0    0  501    0  0.00000000000E+00 -0.00000000000E+00 -0.74732939210E+03  0.74732939210E+03  0.00000000000E+00 0.  1.
         25    1    1    2    0    0  0.60121102302E+02 -0.15161596208E+02 -0.39670741257E+03  0.41907182216E+03  0.12000000000E+03 0.  0.
         25    1    1    2    0    0 -0.60121102302E+02  0.15161596208E+02 -0.32600261864E+03  0.35287693082E+03  0.12000000000E+03 0.  0.
<mgrwt>
<rscale>  0 0.27128415E+03</rscale>
<asrwt>0</asrwt>
<pdfrwt beam="1">  1        2 0.11497374E+00 0.27128415E+03</pdfrwt>
<pdfrwt beam="2">  1       -2 0.37875943E-02 0.27128415E+03</pdfrwt>
<totfact> 0.11491752E+04</totfact>
</mgrwt>
</event>
<event>
 4    1  0.1728870E-004  0.2654076E+03  0.7818608E-02  0.1103937E+00
          2   -1    0    0  501    0  0.00000000000E+00  0.00000000000E+00  0.51909549620E+03  0.51909549620E+03  0.00000000000E+00 0.  1.
         -2   -1    0    0    0  501 -0.00000000000E+00 -0.00000000000E+00 -0.33924959527E+02  0.33924959527E+02  0.00000000000E+00 0.  1.
         25    1    1    2    0    0 -0.44667828945E+02  0.26405307155E+00  0.16995499914E+03  0.21279094529E+03  0.12000000000E+03 0.  0.
         25    1    1    2    0    0  0.44667828945E+02 -0.26405307155E+00  0.31521553753E+03  0.34022951043E+03  0.12000000000E+03 0.  0.
<mgrwt>
<rscale>  0 0.26540756E+03</rscale>
<asrwt>0</asrwt>
<pdfrwt beam="1">  1        2 0.79860840E-01 0.26540756E+03</pdfrwt>
<pdfrwt beam="2">  1       -2 0.52192249E-02 0.26540756E+03</pdfrwt>
<totfact> 0.10856042E+04</totfact>
</mgrwt>
</event>
<event>
 4    1  0.1728870E-004  0.2799854E+03  0.7818608E-02  0.1095697E+00
          1   -1    0    0  501    0  0.00000000000E+00  0.00000000000E+00  0.20763209704E+04  0.20763209704E+04  0.00000000000E+00 0. -1.
         -1   -1    0    0    0  501 -0.00000000000E+00 -0.00000000000E+00 -0.94387865097E+01  0.94387865097E+01  0.00000000000E+00 0. -1.
         25    1    1    2    0    0 -0.40278243494E+02  0.16061773082E+02  0.60435629536E+03  0.61767859700E+03  0.12000000000E+03 0.  0.
         25    1    1    2    0    0  0.40278243494E+02 -0.16061773082E+02  0.14625258885E+04  0.14680811599E+04  0.12000000000E+03 0.  0.
<mgrwt>
<rscale>  0 0.27998536E+03</rscale>
<asrwt>0</asrwt>
<pdfrwt beam="1">  1        1 0.31943363E+00 0.27998536E+03</pdfrwt>
<pdfrwt beam="2">  1       -1 0.14521227E-02 0.27998536E+03</pdfrwt>
<totfact> 0.32928381E+03</totfact>
</mgrwt>
</event>
<event>
 4    1  0.1728870E-004  0.2874653E+03  0.7818608E-02  0.1091680E+00
         -1   -1    0    0    0  501 -0.00000000000E+00  0.00000000000E+00  0.11372450780E+02  0.11372450780E+02  0.00000000000E+00 0.  1.
          1   -1    0    0  501    0  0.00000000000E+00 -0.00000000000E+00 -0.18165894940E+04  0.18165894940E+04  0.00000000000E+00 0.  1.
         25    1    1    2    0    0  0.39623561892E+02  0.12081885490E+02 -0.13312130185E+04  0.13372524441E+04  0.12000000000E+03 0.  0.
         25    1    1    2    0    0 -0.39623561892E+02 -0.12081885490E+02 -0.47400402477E+03  0.49070950073E+03  0.12000000000E+03 0.  0.
<mgrwt>
<rscale>  0 0.28746530E+03</rscale>
<asrwt>0</asrwt>
<pdfrwt beam="1">  1        1 0.27947533E+00 0.28746530E+03</pdfrwt>
<pdfrwt beam="2">  1       -1 0.17496076E-02 0.28746530E+03</pdfrwt>
<totfact> 0.37011428E+03</totfact>
</mgrwt>
</event>
<event>
 4    1  0.1728870E-004  0.2931816E+03  0.7818608E-02  0.1088700E+00
          2   -1    0    0  501    0  0.00000000000E+00  0.00000000000E+00  0.22726637456E+03  0.22726637456E+03  0.00000000000E+00 0.  1.
         -2   -1    0    0    0  501 -0.00000000000E+00 -0.00000000000E+00 -0.94553631096E+02  0.94553631096E+02  0.00000000000E+00 0.  1.
         25    1    1    2    0    0  0.12316843101E+02 -0.29303030685E+02  0.15193674017E+03  0.19620179725E+03  0.12000000000E+03 0.  0.
         25    1    1    2    0    0 -0.12316843101E+02  0.29303030685E+02 -0.19223996713E+02  0.12561820840E+03  0.12000000000E+03 0.  0.
<mgrwt>
<rscale>  0 0.29318159E+03</rscale>
<asrwt>0</asrwt>
<pdfrwt beam="1">  1        2 0.34964057E-01 0.29318159E+03</pdfrwt>
<pdfrwt beam="2">  1       -2 0.14546713E-01 0.29318159E+03</pdfrwt>
<totfact> 0.53139846E+03</totfact>
</mgrwt>
</event>
<event>
 4    1  0.1728870E-004  0.2607272E+03  0.7818608E-02  0.1106707E+00
         -2   -1    0    0    0  501 -0.00000000000E+00  0.00000000000E+00  0.94327135285E+02  0.94327135285E+02  0.00000000000E+00 0. -1.
          2   -1    0    0  501    0  0.00000000000E+00 -0.00000000000E+00 -0.18016728351E+03  0.18016728351E+03  0.00000000000E+00 0. -1.
         25    1    1    2    0    0 -0.37200927294E+02 -0.10183858831E+02 -0.77949226431E+02  0.14820155827E+03  0.12000000000E+03 0.  0.
         25    1    1    2    0    0  0.37200927294E+02  0.10183858831E+02 -0.78909217916E+01  0.12629286052E+03  0.12000000000E+03 0.  0.
<mgrwt>
<rscale>  0 0.26072717E+03</rscale>
<asrwt>0</asrwt>
<pdfrwt beam="1">  1        2 0.27718043E-01 0.26072717E+03</pdfrwt>
<pdfrwt beam="2">  1       -2 0.14511867E-01 0.26072717E+03</pdfrwt>
<totfact> 0.68513275E+03</totfact>
</mgrwt>
</event>
<event>
 4    1  0.1728870E-004  0.2572590E+03  0.7818608E-02  0.1108801E+00
          1   -1    0    0  501    0  0.00000000000E+00  0.00000000000E+00  0.85935395617E+03  0.85935395617E+03  0.00000000000E+00 0.  1.
         -1   -1    0    0    0  501 -0.00000000000E+00 -0.00000000000E+00 -0.19253473393E+02  0.19253473393E+02  0.00000000000E+00 0.  1.
         25    1    1    2    0    0 -0.30902741591E+01  0.30993880227E+02  0.30296205139E+03  0.32734717807E+03  0.12000000000E+03 0.  0.
         25    1    1    2    0    0  0.30902741591E+01 -0.30993880227E+02  0.53713843138E+03  0.55126025149E+03  0.12000000000E+03 0.  0.
<mgrwt>
<rscale>  0 0.25725900E+03</rscale>
<asrwt>0</asrwt>
<pdfrwt beam="1">  1        1 0.13220827E+00 0.25725900E+03</pdfrwt>
<pdfrwt beam="2">  1       -1 0.29620735E-02 0.25725900E+03</pdfrwt>
<totfact> 0.78787961E+03</totfact>
</mgrwt>
</event>
<event>
 4    1  0.1728870E-004  0.2729619E+03  0.7818608E-02  0.1099596E+00
         -1   -1    0    0    0  501 -0.00000000000E+00  0.00000000000E+00  0.31502500382E+02  0.31502500382E+02  0.00000000000E+00 0. -1.
          1   -1    0    0  501    0  0.00000000000E+00 -0.00000000000E+00 -0.59128818818E+03  0.59128818818E+03  0.00000000000E+00 0. -1.
         25    1    1    2    0    0  0.18847743863E+02  0.54657689754E+02 -0.34774341908E+03  0.37238177454E+03  0.12000000000E+03 0.  0.
         25    1    1    2    0    0 -0.18847743863E+02 -0.54657689754E+02 -0.21204226872E+03  0.25040891403E+03  0.12000000000E+03 0.  0.
<mgrwt>
<rscale>  0 0.27296195E+03</rscale>
<asrwt>0</asrwt>
<pdfrwt beam="1">  1        1 0.90967407E-01 0.27296195E+03</pdfrwt>
<pdfrwt beam="2">  1       -1 0.48465389E-02 0.27296195E+03</pdfrwt>
<totfact> 0.65942726E+03</totfact>
</mgrwt>
</event>
<event>
 4    1  0.1728870E-004  0.2848008E+03  0.7818608E-02  0.1093095E+00
         -2   -1    0    0    0  501 -0.00000000000E+00  0.00000000000E+00  0.66996800240E+02  0.66996800240E+02  0.00000000000E+00 0.  1.
          2   -1    0    0  501    0  0.00000000000E+00 -0.00000000000E+00 -0.30266932058E+03  0.30266932058E+03  0.00000000000E+00 0.  1.
         25    1    1    2    0    0  0.55343987953E+02  0.35403423150E+02 -0.16912732680E+03  0.21753255399E+03  0.12000000000E+03 0.  0.
         25    1    1    2    0    0 -0.55343987953E+02 -0.35403423150E+02 -0.66545193533E+02  0.15213356683E+03  0.12000000000E+03 0.  0.
<mgrwt>
<rscale>  0 0.28480081E+03</rscale>
<asrwt>0</asrwt>
<pdfrwt beam="1">  1        2 0.46564511E-01 0.28480081E+03</pdfrwt>
<pdfrwt beam="2">  1       -2 0.10307200E-01 0.28480081E+03</pdfrwt>
<totfact> 0.68083166E+03</totfact>
</mgrwt>
</event>
<event>
 4    1  0.1728870E-004  0.2500746E+03  0.7818608E-02  0.1113258E+00
         -2   -1    0    0    0  501 -0.00000000000E+00  0.00000000000E+00  0.58092488118E+03  0.58092488118E+03  0.00000000000E+00 0.  1.
          2   -1    0    0  501    0  0.00000000000E+00 -0.00000000000E+00 -0.26912821008E+02  0.26912821008E+02  0.00000000000E+00 0.  1.
         25    1    1    2    0    0  0.75627649034E+01 -0.25023070896E+02  0.33405990043E+03  0.35592044978E+03  0.12000000000E+03 0.  0.
         25    1    1    2    0    0 -0.75627649034E+01  0.25023070896E+02  0.21995215974E+03  0.25191725242E+03  0.12000000000E+03 0.  0.
<mgrwt>
<rscale>  0 0.25007461E+03</rscale>
<asrwt>0</asrwt>
<pdfrwt beam="1">  1        2 0.41404345E-02 0.25007461E+03</pdfrwt>
<pdfrwt beam="2">  1       -2 0.89373049E-01 0.25007461E+03</pdfrwt>
<totfact> 0.22340781E+03</totfact>
</mgrwt>
</event>
<event>
 4    1  0.1728870E-004  0.2908062E+03  0.7818608E-02  0.1089929E+00
         -2   -1    0    0    0  501 -0.00000000000E+00  0.00000000000E+00  0.48184401305E+02  0.48184401305E+02  0.00000000000E+00 0. -1.
          2   -1    0    0  501    0  0.00000000000E+00 -0.00000000000E+00 -0.43877412343E+03  0.43877412343E+03  0.00000000000E+00 0. -1.
         25    1    1    2    0    0  0.56889193530E+01 -0.79695635183E+02 -0.16359787771E+03  0.21805509318E+03  0.12000000000E+03 0.  0.
         25    1    1    2    0    0 -0.56889193530E+01  0.79695635183E+02 -0.22699184441E+03  0.26890343155E+03  0.12000000000E+03 0.  0.
<mgrwt>
<rscale>  0 0.29080625E+03</rscale>
<asrwt>0</asrwt>
<pdfrwt beam="1">  1        2 0.67503711E-01 0.29080625E+03</pdfrwt>
<pdfrwt beam="2">  1       -2 0.74129848E-02 0.29080625E+03</pdfrwt>
<totfact> 0.76535687E+03</totfact>
</mgrwt>
</event>
<event>
 4    1  0.1728870E-004  0.2980154E+03  0.7818608E-02  0.1086237E+00
         -1   -1    0    0    0  501 -0.00000000000E+00  0.00000000000E+00  0.11865346178E+03  0.11865346178E+03  0.00000000000E+00 0.  1.
          1   -1    0    0  501    0  0.00000000000E+00 -0.00000000000E+00 -0.18712718441E+03  0.18712718441E+03  0.00000000000E+00 0.  1.
         25    1    1    2    0    0 -0.17414303920E+02 -0.14702977995E+02  0.53332448516E+02  0.13328085237E+03  0.12000000000E+03 0.  0.
         25    1    1    2    0    0  0.17414303920E+02  0.14702977995E+02 -0.12180617115E+03  0.17249979383E+03  0.12000000000E+03 0.  0.
<mgrwt>
<rscale>  0 0.29801536E+03</rscale>
<asrwt>0</asrwt>
<pdfrwt beam="1">  1        1 0.28788798E-01 0.29801536E+03</pdfrwt>
<pdfrwt beam="2">  1       -1 0.18254379E-01 0.29801536E+03</pdfrwt>
<totfact> 0.37285061E+03</totfact>
</mgrwt>
</event>
<event>
 4    1  0.1728870E-004  0.2902662E+03  0.7818608E-02  0.1090210E+00
          1   -1    0    0  501    0  0.00000000000E+00  0.00000000000E+00  0.51501900651E+03  0.51501900651E+03  0.00000000000E+00 0. -1.
         -1   -1    0    0    0  501 -0.00000000000E+00 -0.00000000000E+00 -0.40898711156E+02  0.40898711156E+02  0.00000000000E+00 0. -1.
         25    1    1    2    0    0  0.38938099088E+02 -0.60955774880E+02  0.30953044485E+03  0.33976591698E+03  0.12000000000E+03 0.  0.
         25    1    1    2    0    0 -0.38938099088E+02  0.60955774880E+02  0.16458985051E+03  0.21615180069E+03  0.12000000000E+03 0.  0.
<mgrwt>
<rscale>  0 0.29026618E+03</rscale>
<asrwt>0</asrwt>
<pdfrwt beam="1">  1        1 0.79233689E-01 0.29026618E+03</pdfrwt>
<pdfrwt beam="2">  1       -1 0.62921098E-02 0.29026618E+03</pdfrwt>
<totfact> 0.53815057E+03</totfact>
</mgrwt>
</event>
<event>
 4    1  0.1728870E-004  0.3117813E+03  0.7818608E-02  0.1079495E+00
         -2   -1    0    0    0  501 -0.00000000000E+00  0.00000000000E+00  0.11307529019E+02  0.11307529019E+02  0.00000000000E+00 0.  1.
          2   -1    0    0  501    0  0.00000000000E+00 -0.00000000000E+00 -0.21491782997E+04  0.21491782997E+04  0.00000000000E+00 0.  1.
         25    1    1    2    0    0 -0.66847892804E+01 -0.99050652316E+02 -0.10218465178E+04  0.10336469533E+04  0.12000000000E+03 0.  0.
         25    1    1    2    0    0  0.66847892804E+01  0.99050652316E+02 -0.11160242529E+04  0.11268388754E+04  0.12000000000E+03 0.  0.
<mgrwt>
<rscale>  0 0.31178131E+03</rscale>
<asrwt>0</asrwt>
<pdfrwt beam="1">  1        2 0.33064240E+00 0.31178131E+03</pdfrwt>
<pdfrwt beam="2">  1       -2 0.17396220E-02 0.31178131E+03</pdfrwt>
<totfact> 0.58819441E+03</totfact>
</mgrwt>
</event>
<event>
 4    1  0.1728870E-004  0.2667082E+03  0.7818608E-02  0.1103178E+00
         -1   -1    0    0    0  501 -0.00000000000E+00  0.00000000000E+00  0.31182247331E+03  0.31182247331E+03  0.00000000000E+00 0. -1.
          1   -1    0    0  501    0  0.00000000000E+00 -0.00000000000E+00 -0.57030260846E+02  0.57030260846E+02  0.00000000000E+00 0. -1.
         25    1    1    2    0    0  0.34214420070E+02  0.36235197423E+02  0.85913531132E+02  0.15577147012E+03  0.12000000000E+03 0.  0.
         25    1    1    2    0    0 -0.34214420070E+02 -0.36235197423E+02  0.16887868134E+03  0.21308126404E+03  0.12000000000E+03 0.  0.
<mgrwt>
<rscale>  0 0.26670821E+03</rscale>
<asrwt>0</asrwt>
<pdfrwt beam="1">  1        1 0.87738865E-02 0.26670821E+03</pdfrwt>
<pdfrwt beam="2">  1       -1 0.47972687E-01 0.26670821E+03</pdfrwt>
<totfact> 0.33817505E+03</totfact>
</mgrwt>
</event>
<event>
 4    1  0.1728870E-004  0.2658564E+03  0.7818608E-02  0.1103675E+00
         -2   -1    0    0    0  501 -0.00000000000E+00  0.00000000000E+00  0.21549179128E+02  0.21549179128E+02  0.00000000000E+00 0. -1.
          2   -1    0    0  501    0  0.00000000000E+00 -0.00000000000E+00 -0.81998030488E+03  0.81998030488E+03  0.00000000000E+00 0. -1.
         25    1    1    2    0    0  0.55919908979E+02 -0.18186140095E+00 -0.43704560400E+03  0.45665734339E+03  0.12000000000E+03 0.  0.
         25    1    1    2    0    0 -0.55919908979E+02  0.18186140095E+00 -0.36138552175E+03  0.38487214062E+03  0.12000000000E+03 0.  0.
<mgrwt>
<rscale>  0 0.26585637E+03</rscale>
<asrwt>0</asrwt>
<pdfrwt beam="1">  1        2 0.12615082E+00 0.26585637E+03</pdfrwt>
<pdfrwt beam="2">  1       -2 0.33152582E-02 0.26585637E+03</pdfrwt>
<totfact> 0.12467798E+04</totfact>
</mgrwt>
</event>
<event>
 4    1  0.1728870E-004  0.2745982E+03  0.7818608E-02  0.1098676E+00
          1   -1    0    0  501    0  0.00000000000E+00  0.00000000000E+00  0.27576117067E+03  0.27576117067E+03  0.00000000000E+00 0.  1.
         -1   -1    0    0    0  501 -0.00000000000E+00 -0.00000000000E+00 -0.68360032686E+02  0.68360032686E+02  0.00000000000E+00 0.  1.
         25    1    1    2    0    0 -0.21172761273E+02  0.17482025265E+02  0.17989907211E+03  0.21798528201E+03  0.12000000000E+03 0.  0.
         25    1    1    2    0    0  0.21172761273E+02 -0.17482025265E+02  0.27502065880E+02  0.12613592135E+03  0.12000000000E+03 0.  0.
<mgrwt>
<rscale>  0 0.27459820E+03</rscale>
<asrwt>0</asrwt>
<pdfrwt beam="1">  1        1 0.42424795E-01 0.27459820E+03</pdfrwt>
<pdfrwt beam="2">  1       -1 0.10516928E-01 0.27459820E+03</pdfrwt>
<totfact> 0.54569503E+03</totfact>
</mgrwt>
</event>
<event>
 4    1  0.1728870E-004  0.2811126E+03  0.7818608E-02  0.1095083E+00
         -2   -1    0    0    0  501 -0.00000000000E+00  0.00000000000E+00  0.17918800650E+02  0.17918800650E+02  0.00000000000E+00 0. -1.
          2   -1    0    0  501    0  0.00000000000E+00 -0.00000000000E+00 -0.11025330356E+04  0.11025330356E+04  0.00000000000E+00 0. -1.
         25    1    1    2    0    0 -0.52845805239E+02 -0.26269582701E+02 -0.71481801667E+03  0.72721906401E+03  0.12000000000E+03 0.  0.
         25    1    1    2    0    0  0.52845805239E+02  0.26269582701E+02 -0.36979621825E+03  0.39323277221E+03  0.12000000000E+03 0.  0.
<mgrwt>
<rscale>  0 0.28111257E+03</rscale>
<asrwt>0</asrwt>
<pdfrwt beam="1">  1        2 0.16962050E+00 0.28111257E+03</pdfrwt>
<pdfrwt beam="2">  1       -2 0.27567381E-02 0.28111257E+03</pdfrwt>
<totfact> 0.10928847E+04</totfact>
</mgrwt>
</event>
<event>
 4    1  0.1728870E-004  0.2628608E+03  0.7818608E-02  0.1105436E+00
         -2   -1    0    0    0  501 -0.00000000000E+00  0.00000000000E+00  0.28601651340E+02  0.28601651340E+02  0.00000000000E+00 0. -1.
          2   -1    0    0  501    0  0.00000000000E+00 -0.00000000000E+00 -0.60394952434E+03  0.60394952434E+03  0.00000000000E+00 0. -1.
         25    1    1    2    0    0 -0.33358819903E+02  0.35754557806E+02 -0.34054681319E+03  0.36436702820E+03  0.12000000000E+03 0.  0.
         25    1    1    2    0    0  0.33358819903E+02 -0.35754557806E+02 -0.23480105981E+03  0.26818414748E+03  0.12000000000E+03 0.  0.
<mgrwt>
<rscale>  0 0.26286083E+03</rscale>
<asrwt>0</asrwt>
<pdfrwt beam="1">  1        2 0.92915301E-01 0.26286083E+03</pdfrwt>
<pdfrwt beam="2">  1       -2 0.44002545E-02 0.26286083E+03</pdfrwt>
<totfact> 0.11823002E+04</totfact>
</mgrwt>
</event>
<event>
 4    1  0.1728870E-004  0.2611602E+03  0.7818608E-02  0.1106448E+00
          2   -1    0    0  501    0  0.00000000000E+00  0.00000000000E+00  0.27493485973E+03  0.27493485973E+03  0.00000000000E+00 0.  1.
         -2   -1    0    0    0  501 -0.00000000000E+00 -0.00000000000E+00 -0.62018929006E+02  0.62018929006E+02  0.00000000000E+00 0.  1.
         25    1    1    2    0    0 -0.48674697632E+02 -0.16411369327E+02  0.11103893459E+03  0.17137153856E+03  0.12000000000E+03 0.  0.
         25    1    1    2    0    0  0.48674697632E+02  0.16411369327E+02  0.10187699613E+03  0.16558225017E+03  0.12000000000E+03 0.  0.
<mgrwt>
<rscale>  0 0.26116022E+03</rscale>
<asrwt>0</asrwt>
<pdfrwt beam="1">  1        2 0.42297670E-01 0.26116022E+03</pdfrwt>
<pdfrwt beam="2">  1       -2 0.95413738E-02 0.26116022E+03</pdfrwt>
<totfact> 0.85059747E+03</totfact>
</mgrwt>
</event>
<event>
 4    1  0.1728870E-004  0.2655005E+03  0.7818608E-02  0.1103883E+00
          3   -1    0    0  501    0  0.00000000000E+00  0.00000000000E+00  0.48416464162E+03  0.48416464162E+03  0.00000000000E+00 0.  1.
         -3   -1    0    0    0  501 -0.00000000000E+00 -0.00000000000E+00 -0.36398008304E+02  0.36398008304E+02  0.00000000000E+00 0.  1.
         25    1    1    2    0    0 -0.30007199463E+02 -0.32021627843E+02  0.29449005834E+03  0.32101434724E+03  0.12000000000E+03 0.  0.
         25    1    1    2    0    0  0.30007199463E+02  0.32021627843E+02  0.15327657497E+03  0.19954830269E+03  0.12000000000E+03 0.  0.
<mgrwt>
<rscale>  0 0.26550050E+03</rscale>
<asrwt>0</asrwt>
<pdfrwt beam="1">  1        3 0.74486863E-01 0.26550050E+03</pdfrwt>
<pdfrwt beam="2">  1       -3 0.55996939E-02 0.26550050E+03</pdfrwt>
<totfact> 0.83942861E+02</totfact>
</mgrwt>
</event>
<event>
 4    1  0.1728870E-004  0.2553131E+03  0.7818608E-02  0.1109992E+00
          2   -1    0    0  501    0  0.00000000000E+00  0.00000000000E+00  0.17984103746E+04  0.17984103746E+04  0.00000000000E+00 0. -1.
         -2   -1    0    0    0  501 -0.00000000000E+00 -0.00000000000E+00 -0.90614428359E+01  0.90614428359E+01  0.00000000000E+00 0. -1.
         25    1    1    2    0    0 -0.36811857670E+02 -0.23090189368E+02  0.87474728385E+03  0.88400852955E+03  0.12000000000E+03 0.  0.
         25    1    1    2    0    0  0.36811857670E+02  0.23090189368E+02  0.91460164791E+03  0.92346328789E+03  0.12000000000E+03 0.  0.
<mgrwt>
<rscale>  0 0.25531308E+03</rscale>
<asrwt>0</asrwt>
<pdfrwt beam="1">  1        2 0.27667824E+00 0.25531308E+03</pdfrwt>
<pdfrwt beam="2">  1       -2 0.13940696E-02 0.25531308E+03</pdfrwt>
<totfact> 0.12430371E+04</totfact>
</mgrwt>
</event>
<event>
 4    1  0.1728870E-004  0.2722611E+03  0.7818608E-02  0.1099992E+00
         -1   -1    0    0    0  501 -0.00000000000E+00  0.00000000000E+00  0.17478537330E+02  0.17478537330E+02  0.00000000000E+00 0.  1.
          1   -1    0    0  501    0  0.00000000000E+00 -0.00000000000E+00 -0.10602447168E+04  0.10602447168E+04  0.00000000000E+00 0.  1.
         25    1    1    2    0    0  0.48581520899E+02  0.39434066332E+02 -0.57960240372E+03  0.59519253705E+03  0.12000000000E+03 0.  0.
         25    1    1    2    0    0 -0.48581520899E+02 -0.39434066332E+02 -0.46316377578E+03  0.48253071711E+03  0.12000000000E+03 0.  0.
<mgrwt>
<rscale>  0 0.27226110E+03</rscale>
<asrwt>0</asrwt>
<pdfrwt beam="1">  1        1 0.16311463E+00 0.27226110E+03</pdfrwt>
<pdfrwt beam="2">  1       -1 0.26890048E-02 0.27226110E+03</pdfrwt>
<totfact> 0.63916791E+03</totfact>
</mgrwt>
</event>
<event>
 4    1  0.1728870E-004  0.2681129E+03  0.7818608E-02  0.1102365E+00
         -3   -1    0    0    0  501 -0.00000000000E+00  0.00000000000E+00  0.28400916602E+02  0.28400916602E+02  0.00000000000E+00 0.  1.
          3   -1    0    0  501    0  0.00000000000E+00 -0.00000000000E+00 -0.63276599430E+03  0.63276599430E+03  0.00000000000E+00 0.  1.
         25    1    1    2    0    0  0.51227939683E+02 -0.29691647053E+02 -0.32210052537E+03  0.34879025811E+03  0.12000000000E+03 0.  0.
         25    1    1    2    0    0 -0.51227939683E+02  0.29691647053E+02 -0.28226455233E+03  0.31237665280E+03  0.12000000000E+03 0.  0.
<mgrwt>
<rscale>  0 0.26811292E+03</rscale>
<asrwt>0</asrwt>
<pdfrwt beam="1">  1        3 0.97348610E-01 0.26811292E+03</pdfrwt>
<pdfrwt beam="2">  1       -3 0.43693720E-02 0.26811292E+03</pdfrwt>
<totfact> 0.68941880E+02</totfact>
</mgrwt>
</event>
