<event>
 9    1  0.4497870E-036  0.9997167E+03  0.7818608E-02  0.8681308E-01
         -2   -1    0    0    0  501 -0.00000000000E+00  0.00000000000E+00  0.14662135337E+03  0.14662135337E+03  0.00000000000E+00 0. -1.
          2   -1    0    0  501    0  0.00000000000E+00 -0.00000000000E+00 -0.17041064429E+04  0.17041064429E+04  0.00000000000E+00 0. -1.
         36    2    1    2    0    0 -0.21316282073E-13  0.14210854715E-13 -0.15574850896E+04  0.18507277963E+04  0.99971674579E+03 0.  0.
         25    2    3    3    0    0  0.97425287124E+00  0.75280856357E+02 -0.74270893297E+02  0.16344220066E+03  0.12461553220E+03 0.  0.
         35    2    3    3    0    0 -0.97425287124E+00 -0.75280856357E+02 -0.14832141963E+04  0.16872855956E+04  0.80083716994E+03 0.  0.
         22    1    5    5    0    0  0.32369057048E+03 -0.25916994114E+03 -0.60892854258E+03  0.73670795691E+03  0.00000000000E+00 0.  1.
         22    1    5    5    0    0 -0.32466482335E+03  0.18388908478E+03 -0.87428565368E+03  0.95057763873E+03  0.00000000000E+00 0.  1.
          5    1    4    4  502    0  0.53388114962E+02  0.70465661395E+02 -0.64905200628E+02  0.10977465702E+03  0.47000000000E+01 0.  1.
         -5    1    4    4    0  502 -0.52413862091E+02  0.48151949619E+01 -0.93656926695E+01  0.53667543646E+02  0.47000000000E+01 0.  1.
<mgrwt>
<rscale>  0 0.99971675E+03</rscale>
<asrwt>0</asrwt>
<pdfrwt beam="1">  1        2 0.26217021E+00 0.99971675E+03</pdfrwt>
<pdfrwt beam="2">  1       -2 0.22557132E-01 0.99971675E+03</pdfrwt>
<totfact> 0.19985556E+02</totfact>
</mgrwt>
</event>
<event>
 9    1  0.4497870E-036  0.1000029E+04  0.7818608E-02  0.8681010E-01
          2   -1    0    0  501    0  0.00000000000E+00  0.00000000000E+00  0.17135437833E+04  0.17135437833E+04  0.00000000000E+00 0. -1.
         -2   -1    0    0    0  501 -0.00000000000E+00 -0.00000000000E+00 -0.14590503207E+03  0.14590503207E+03  0.00000000000E+00 0. -1.
         36    2    1    2    0    0  0.00000000000E+00  0.00000000000E+00  0.15676387512E+04  0.18594488154E+04  0.10000293209E+04 0.  0.
         25    2    3    3    0    0  0.45728671087E+02  0.12925267427E+03  0.24543995219E+03  0.30843314546E+03  0.12685767586E+03 0.  0.
         35    2    3    3    0    0 -0.45728671087E+02 -0.12925267427E+03  0.13221987991E+04  0.15510156699E+04  0.79915116152E+03 0.  0.
         22    1    5    5    0    0  0.74320061471E+02  0.11403442598E+03 -0.55400215141E+02  0.14695749618E+03  0.00000000000E+00 0. -1.
         22    1    5    5    0    0 -0.12004873256E+03 -0.24328710025E+03  0.13775990142E+04  0.14040581737E+04  0.00000000000E+00 0. -1.
          5    1    4    4  502    0  0.43056296818E+02 -0.12378639617E+02  0.60461417294E+02  0.75397270479E+02  0.47000000000E+01 0.  1.
         -5    1    4    4    0  502  0.26723742689E+01  0.14163131389E+03  0.18497853490E+03  0.23303587499E+03  0.47000000000E+01 0.  1.
<mgrwt>
<rscale>  0 0.10000293E+04</rscale>
<asrwt>0</asrwt>
<pdfrwt beam="1">  1        2 0.26362211E+00 0.10000293E+04</pdfrwt>
<pdfrwt beam="2">  1       -2 0.22446929E-01 0.10000293E+04</pdfrwt>
<totfact> 0.19912660E+02</totfact>
</mgrwt>
</event>
<event>
 9    1  0.4497870E-036  0.9999839E+03  0.7818608E-02  0.8681053E-01
         -1   -1    0    0    0  501 -0.00000000000E+00  0.00000000000E+00  0.59363898522E+03  0.59363898522E+03  0.00000000000E+00 0.  1.
          1   -1    0    0  501    0  0.00000000000E+00 -0.00000000000E+00 -0.42111778802E+03  0.42111778802E+03  0.00000000000E+00 0.  1.
         36    2    1    2    0    0 -0.56843418861E-13  0.14210854715E-13  0.17252119720E+03  0.10147567732E+04  0.99998387255E+03 0.  0.
         25    2    3    3    0    0 -0.10434570476E+03  0.51971659673E+02 -0.47653929487E+02  0.17722058782E+03  0.12468825222E+03 0.  0.
         35    2    3    3    0    0  0.10434570476E+03 -0.51971659673E+02  0.22017512669E+03  0.83753618542E+03  0.79962534725E+03 0.  0.
         22    1    5    5    0    0  0.43512137325E+03  0.90913424305E+02  0.15878714658E+03  0.47202671333E+03  0.00000000000E+00 0. -1.
         22    1    5    5    0    0 -0.33077566849E+03 -0.14288508398E+03  0.61387980110E+02  0.36550947209E+03  0.00000000000E+00 0. -1.
          5    1    4    4  502    0 -0.10249550890E+03 -0.70460474473E+01 -0.27346770761E+01  0.10288121592E+03  0.47000000000E+01 0. -1.
         -5    1    4    4    0  502 -0.18501958571E+01  0.59017707120E+02 -0.44919252411E+02  0.74339371908E+02  0.47000000000E+01 0. -1.
<mgrwt>
<rscale>  0 0.99998387E+03</rscale>
<asrwt>0</asrwt>
<pdfrwt beam="1">  1        1 0.64787352E-01 0.99998387E+03</pdfrwt>
<pdfrwt beam="2">  1       -1 0.91329075E-01 0.99998387E+03</pdfrwt>
<totfact> 0.78015996E+01</totfact>
</mgrwt>
</event>
<event>
 9    1  0.4497870E-036  0.1001101E+04  0.7818608E-02  0.8679990E-01
          3   -1    0    0  501    0  0.00000000000E+00  0.00000000000E+00  0.52433636591E+03  0.52433636591E+03  0.00000000000E+00 0.  1.
         -3   -1    0    0    0  501 -0.00000000000E+00 -0.00000000000E+00 -0.47784389580E+03  0.47784389580E+03  0.00000000000E+00 0.  1.
         36    2    1    2    0    0  0.21316282073E-13  0.28421709430E-13  0.46492470106E+02  0.10021802617E+04  0.10011012572E+04 0.  0.
         25    2    3    3    0    0  0.31041154378E+01 -0.13988261294E+03  0.27530148802E+02  0.18983126333E+03  0.12530450315E+03 0.  0.
         35    2    3    3    0    0 -0.31041154378E+01  0.13988261294E+03  0.18962321305E+02  0.81234899839E+03  0.79998409023E+03 0.  0.
         22    1    5    5    0    0 -0.21286578240E+03 -0.10660942908E+03  0.30049637476E+03  0.38337381617E+03  0.00000000000E+00 0. -1.
         22    1    5    5    0    0  0.20976166696E+03  0.24649204201E+03 -0.28153405345E+03  0.42897518221E+03  0.00000000000E+00 0. -1.
          5    1    4    4  502    0 -0.24643247355E+02 -0.12140162495E+02  0.49871984804E+02  0.57131235361E+02  0.47000000000E+01 0. -1.
         -5    1    4    4    0  502  0.27747362793E+02 -0.12774245044E+03 -0.22341836002E+02  0.13270002797E+03  0.47000000000E+01 0. -1.
<mgrwt>
<rscale>  0 0.10011013E+04</rscale>
<asrwt>0</asrwt>
<pdfrwt beam="1">  1        3 0.80667133E-01 0.10011013E+04</pdfrwt>
<pdfrwt beam="2">  1       -3 0.73514446E-01 0.10011013E+04</pdfrwt>
<totfact> 0.10053811E+01</totfact>
</mgrwt>
</event>
<event>
 9    1  0.4497870E-036  0.9998812E+03  0.7818608E-02  0.8681151E-01
          4   -1    0    0  501    0  0.00000000000E+00  0.00000000000E+00  0.22077663101E+03  0.22077663101E+03  0.00000000000E+00 0. -1.
         -4   -1    0    0    0  501 -0.00000000000E+00 -0.00000000000E+00 -0.11320972077E+04  0.11320972077E+04  0.00000000000E+00 0. -1.
         36    2    1    2    0    0  0.00000000000E+00 -0.21316282073E-13 -0.91132057673E+03  0.13528738388E+04  0.99988120796E+03 0.  0.
         25    2    3    3    0    0 -0.12887188728E+03  0.41372694348E+02 -0.12535077144E+03  0.22348667566E+03  0.12614997078E+03 0.  0.
         35    2    3    3    0    0  0.12887188728E+03 -0.41372694348E+02 -0.78596980529E+03  0.11293871631E+04  0.79965440422E+03 0.  0.
         22    1    5    5    0    0  0.30442545396E+03  0.28113670004E+03 -0.26447969780E+03  0.49159150895E+03  0.00000000000E+00 0. -1.
         22    1    5    5    0    0 -0.17555356668E+03 -0.32250939438E+03 -0.52149010749E+03  0.63779565415E+03  0.00000000000E+00 0. -1.
          5    1    4    4  502    0 -0.41939722815E+02 -0.43070312961E+02 -0.22156498566E+02  0.64241673678E+02  0.47000000000E+01 0. -1.
         -5    1    4    4    0  502 -0.86932164462E+02  0.84443007308E+02 -0.10319427287E+03  0.15924500198E+03  0.47000000000E+01 0. -1.
<mgrwt>
<rscale>  0 0.99988121E+03</rscale>
<asrwt>0</asrwt>
<pdfrwt beam="1">  1        4 0.33965636E-01 0.99988121E+03</pdfrwt>
<pdfrwt beam="2">  1       -4 0.17416880E+00 0.99988121E+03</pdfrwt>
<totfact> 0.31503093E+00</totfact>
</mgrwt>
</event>
<event>
 9    1  0.4497870E-036  0.9988308E+03  0.7818608E-02  0.8682152E-01
          2   -1    0    0  501    0  0.00000000000E+00  0.00000000000E+00  0.20605437707E+04  0.20605437707E+04  0.00000000000E+00 0.  1.
         -2   -1    0    0    0  501 -0.00000000000E+00 -0.00000000000E+00 -0.12104365738E+03  0.12104365738E+03  0.00000000000E+00 0.  1.
         36    2    1    2    0    0 -0.71054273576E-14  0.14210854715E-13  0.19395001133E+04  0.21815874280E+04  0.99883082490E+03 0.  0.
         25    2    3    3    0    0  0.49369627787E+02 -0.78389910101E+02  0.13562057869E+03  0.20618348326E+03  0.12464489261E+03 0.  0.
         35    2    3    3    0    0 -0.49369627787E+02  0.78389910101E+02  0.18038795346E+04  0.19754039448E+04  0.79978561601E+03 0.  0.
         22    1    5    5    0    0 -0.61865491157E+02  0.10263103269E+03  0.18855222945E+04  0.18893265443E+04  0.00000000000E+00 0. -1.
         22    1    5    5    0    0  0.12495863370E+02 -0.24241122590E+02 -0.81642759923E+02  0.86077400482E+02  0.00000000000E+00 0. -1.
          5    1    4    4  502    0  0.77361984345E+02 -0.69388574788E+01  0.59126268991E+02  0.97729371479E+02  0.47000000000E+01 0. -1.
         -5    1    4    4    0  502 -0.27992356558E+02 -0.71451052622E+02  0.76494309694E+02  0.10845411178E+03  0.47000000000E+01 0. -1.
<mgrwt>
<rscale>  0 0.99883082E+03</rscale>
<asrwt>0</asrwt>
<pdfrwt beam="1">  1        2 0.31700671E+00 0.99883082E+03</pdfrwt>
<pdfrwt beam="2">  1       -2 0.18622103E-01 0.99883082E+03</pdfrwt>
<totfact> 0.17506701E+02</totfact>
</mgrwt>
</event>
<event>
 9    1  0.4497870E-036  0.9993435E+03  0.7818608E-02  0.8681663E-01
         -2   -1    0    0    0  501 -0.00000000000E+00  0.00000000000E+00  0.20435343471E+03  0.20435343471E+03  0.00000000000E+00 0.  1.
          2   -1    0    0  501    0  0.00000000000E+00 -0.00000000000E+00 -0.12217649202E+04  0.12217649202E+04  0.00000000000E+00 0.  1.
         36    2    1    2    0    0 -0.28421709430E-13 -0.71054273576E-14 -0.10174114855E+04  0.14261183549E+04  0.99934350020E+03 0.  0.
         25    2    3    3    0    0  0.11190712659E+03 -0.20053373587E+02 -0.75214231775E+02  0.18482175764E+03  0.12480608423E+03 0.  0.
         35    2    3    3    0    0 -0.11190712659E+03  0.20053373587E+02 -0.94219725370E+03  0.12412965973E+04  0.80009764073E+03 0.  0.
         22    1    5    5    0    0  0.16663295788E+03 -0.31039430625E+03 -0.27754212950E+03  0.44848723688E+03  0.00000000000E+00 0. -1.
         22    1    5    5    0    0 -0.27854008447E+03  0.33044767983E+03 -0.66465512420E+03  0.79280936037E+03  0.00000000000E+00 0. -1.
          5    1    4    4  502    0  0.60713802300E+02  0.23277268391E+02 -0.94564493798E+02  0.11485874151E+03  0.47000000000E+01 0. -1.
         -5    1    4    4    0  502  0.51193324290E+02 -0.43330641978E+02  0.19350262022E+02  0.69963016133E+02  0.47000000000E+01 0. -1.
<mgrwt>
<rscale>  0 0.99934350E+03</rscale>
<asrwt>0</asrwt>
<pdfrwt beam="1">  1        2 0.18796383E+00 0.99934350E+03</pdfrwt>
<pdfrwt beam="2">  1       -2 0.31438990E-01 0.99934350E+03</pdfrwt>
<totfact> 0.20779891E+02</totfact>
</mgrwt>
</event>
<event>
 9    1  0.4497870E-036  0.1000357E+04  0.7818608E-02  0.8680698E-01
         -2   -1    0    0    0  501 -0.00000000000E+00  0.00000000000E+00  0.22243140252E+03  0.22243140252E+03  0.00000000000E+00 0. -1.
          2   -1    0    0  501    0  0.00000000000E+00 -0.00000000000E+00 -0.11247443264E+04  0.11247443264E+04  0.00000000000E+00 0. -1.
         36    2    1    2    0    0 -0.21316282073E-13 -0.28421709430E-13 -0.90231292391E+03  0.13471757290E+04  0.10003568523E+04 0.  0.
         25    2    3    3    0    0 -0.12831842968E+02 -0.13783487250E+03 -0.13792484207E+03  0.23190980714E+03  0.12488309860E+03 0.  0.
         35    2    3    3    0    0  0.12831842968E+02  0.13783487250E+03 -0.76438808184E+03  0.11152659218E+04  0.80022861011E+03 0.  0.
         22    1    5    5    0    0 -0.25487097648E+03 -0.23896775891E+03 -0.34885607643E+03  0.49372600348E+03  0.00000000000E+00 0. -1.
         22    1    5    5    0    0  0.26770281944E+03  0.37680263141E+03 -0.41553200541E+03  0.62153991834E+03  0.00000000000E+00 0. -1.
          5    1    4    4  502    0  0.31280946327E+02 -0.52714056778E+02 -0.11919100128E+03  0.13411134990E+03  0.47000000000E+01 0.  1.
         -5    1    4    4    0  502 -0.44112789295E+02 -0.85120815721E+02 -0.18733840791E+02  0.97798457243E+02  0.47000000000E+01 0.  1.
<mgrwt>
<rscale>  0 0.10003569E+04</rscale>
<asrwt>0</asrwt>
<pdfrwt beam="1">  1        2 0.17303759E+00 0.10003569E+04</pdfrwt>
<pdfrwt beam="2">  1       -2 0.34220216E-01 0.10003569E+04</pdfrwt>
<totfact> 0.20294332E+02</totfact>
</mgrwt>
</event>
<event>
 9    1  0.4497870E-036  0.9994620E+03  0.7818608E-02  0.8681550E-01
         -2   -1    0    0    0  501 -0.00000000000E+00  0.00000000000E+00  0.22093140870E+03  0.22093140870E+03  0.00000000000E+00 0.  1.
          2   -1    0    0  501    0  0.00000000000E+00 -0.00000000000E+00 -0.11303557431E+04  0.11303557431E+04  0.00000000000E+00 0.  1.
         36    2    1    2    0    0  0.00000000000E+00 -0.14210854715E-13 -0.90942433435E+03  0.13512871518E+04  0.99946202859E+03 0.  0.
         25    2    3    3    0    0  0.11908750333E+03 -0.66721990249E+02 -0.98738857689E+02  0.20903300413E+03  0.12374076678E+03 0.  0.
         35    2    3    3    0    0 -0.11908750333E+03  0.66721990249E+02 -0.81068547666E+03  0.11422541476E+04  0.79303211680E+03 0.  0.
         22    1    5    5    0    0  0.26211819071E+03 -0.43119511839E+02 -0.30999561529E+02  0.26744384648E+03  0.00000000000E+00 0. -1.
         22    1    5    5    0    0 -0.38120569404E+03  0.10984150209E+03 -0.77968591513E+03  0.87481030115E+03  0.00000000000E+00 0. -1.
          5    1    4    4  502    0  0.11185280933E+03  0.45838072756E+01 -0.66600788651E+02  0.13034499335E+03  0.47000000000E+01 0.  1.
         -5    1    4    4    0  502  0.72346940039E+01 -0.71305797524E+02 -0.32138069038E+02  0.78688010773E+02  0.47000000000E+01 0.  1.
<mgrwt>
<rscale>  0 0.99946203E+03</rscale>
<asrwt>0</asrwt>
<pdfrwt beam="1">  1        2 0.17390088E+00 0.99946203E+03</pdfrwt>
<pdfrwt beam="2">  1       -2 0.33989448E-01 0.99946203E+03</pdfrwt>
<totfact> 0.20392206E+02</totfact>
</mgrwt>
</event>
<event>
 9    1  0.4497870E-036  0.1000368E+04  0.7818608E-02  0.8680688E-01
         -2   -1    0    0    0  501 -0.00000000000E+00  0.00000000000E+00  0.30091428802E+03  0.30091428802E+03  0.00000000000E+00 0. -1.
          2   -1    0    0  501    0  0.00000000000E+00 -0.00000000000E+00 -0.83141265925E+03  0.83141265925E+03  0.00000000000E+00 0. -1.
         36    2    1    2    0    0  0.00000000000E+00 -0.10658141036E-13 -0.53049837123E+03  0.11323269473E+04  0.10003678292E+04 0.  0.
         25    2    3    3    0    0 -0.58605982962E+02  0.31539533595E+02  0.40715104375E+02  0.14862772786E+03  0.12650327406E+03 0.  0.
         35    2    3    3    0    0  0.58605982962E+02 -0.31539533595E+02 -0.57121347561E+03  0.98369921940E+03  0.79809142090E+03 0.  0.
         22    1    5    5    0    0  0.42501716041E+03 -0.72207165651E+02 -0.28223331704E+03  0.51527575788E+03  0.00000000000E+00 0.  1.
         22    1    5    5    0    0 -0.36641117745E+03  0.40667632055E+02 -0.28898015857E+03  0.46842346152E+03  0.00000000000E+00 0.  1.
          5    1    4    4  502    0 -0.93147367304E+02  0.16354025889E+02  0.53195606259E+02  0.10860823506E+03  0.47000000000E+01 0.  1.
         -5    1    4    4    0  502  0.34541384342E+02  0.15185507706E+02 -0.12480501884E+02  0.40019492798E+02  0.47000000000E+01 0.  1.
<mgrwt>
<rscale>  0 0.10003678E+04</rscale>
<asrwt>0</asrwt>
<pdfrwt beam="1">  1        2 0.12790964E+00 0.10003678E+04</pdfrwt>
<pdfrwt beam="2">  1       -2 0.46294506E-01 0.10003678E+04</pdfrwt>
<totfact> 0.17512006E+02</totfact>
</mgrwt>
</event>
<event>
 9    1  0.4497870E-036  0.9994366E+03  0.7818608E-02  0.8681575E-01
         -2   -1    0    0    0  501 -0.00000000000E+00  0.00000000000E+00  0.47309748397E+03  0.47309748397E+03  0.00000000000E+00 0.  1.
          2   -1    0    0  501    0  0.00000000000E+00 -0.00000000000E+00 -0.52783707990E+03  0.52783707990E+03  0.00000000000E+00 0.  1.
         36    2    1    2    0    0  0.00000000000E+00 -0.56843418861E-13 -0.54739595928E+02  0.10009345639E+04  0.99943663021E+03 0.  0.
         25    2    3    3    0    0  0.72744491136E+02  0.11309008312E+03  0.66829166731E+01  0.18604460577E+03  0.12840095821E+03 0.  0.
         35    2    3    3    0    0 -0.72744491136E+02 -0.11309008312E+03 -0.61422512601E+02  0.81488995811E+03  0.80136869847E+03 0.  0.
         22    1    5    5    0    0  0.14255368276E+01 -0.45526122584E+03  0.18980455434E+02  0.45565894438E+03  0.00000000000E+00 0. -1.
         22    1    5    5    0    0 -0.74170027963E+02  0.34217114272E+03 -0.80402968035E+02  0.35923101373E+03  0.00000000000E+00 0. -1.
          5    1    4    4  502    0 -0.10749443710E+01  0.56754660241E+01  0.48512746478E+02  0.49080984005E+02  0.47000000000E+01 0.  1.
         -5    1    4    4    0  502  0.73819435507E+02  0.10741461710E+03 -0.41829829805E+02  0.13696362176E+03  0.47000000000E+01 0.  1.
<mgrwt>
<rscale>  0 0.99943663E+03</rscale>
<asrwt>0</asrwt>
<pdfrwt beam="1">  1        2 0.81205705E-01 0.99943663E+03</pdfrwt>
<pdfrwt beam="2">  1       -2 0.72784228E-01 0.99943663E+03</pdfrwt>
<totfact> 0.11921707E+02</totfact>
</mgrwt>
</event>
<event>
 9    1  0.4497870E-036  0.9984591E+03  0.7818608E-02  0.8682507E-01
          2   -1    0    0  501    0  0.00000000000E+00  0.00000000000E+00  0.19139561995E+04  0.19139561995E+04  0.00000000000E+00 0. -1.
         -2   -1    0    0    0  501 -0.00000000000E+00 -0.00000000000E+00 -0.13021727205E+03  0.13021727205E+03  0.00000000000E+00 0. -1.
         36    2    1    2    0    0  0.00000000000E+00  0.42632564146E-13  0.17837389275E+04  0.20441734716E+04  0.99845912311E+03 0.  0.
         25    2    3    3    0    0 -0.34049809990E+02  0.12664673373E+03  0.24887174332E+03  0.30804668685E+03  0.12552622010E+03 0.  0.
         35    2    3    3    0    0  0.34049809990E+02 -0.12664673373E+03  0.15348671842E+04  0.17361267848E+04  0.80069979077E+03 0.  0.
         22    1    5    5    0    0 -0.32515024475E+02 -0.42941298931E+03  0.52106900491E+03  0.67599234469E+03  0.00000000000E+00 0.  1.
         22    1    5    5    0    0  0.66564834465E+02  0.30276625558E+03  0.10137981793E+04  0.10601344401E+04  0.00000000000E+00 0.  1.
          5    1    4    4  502    0 -0.17785165722E+01  0.44438960086E+02  0.85183668801E+00  0.44730302039E+02  0.47000000000E+01 0. -1.
         -5    1    4    4    0  502 -0.32271293418E+02  0.82207773643E+02  0.24801990663E+03  0.26331638481E+03  0.47000000000E+01 0. -1.
<mgrwt>
<rscale>  0 0.99845912E+03</rscale>
<asrwt>0</asrwt>
<pdfrwt beam="1">  1        2 0.29445478E+00 0.99845912E+03</pdfrwt>
<pdfrwt beam="2">  1       -2 0.20033428E-01 0.99845912E+03</pdfrwt>
<totfact> 0.18706288E+02</totfact>
</mgrwt>
</event>
<event>
 9    1  0.4497870E-036  0.9987462E+03  0.7818608E-02  0.8682233E-01
          1   -1    0    0  501    0  0.00000000000E+00  0.00000000000E+00  0.23708403847E+03  0.23708403847E+03  0.00000000000E+00 0. -1.
         -1   -1    0    0    0  501 -0.00000000000E+00 -0.00000000000E+00 -0.10518357654E+04  0.10518357654E+04  0.00000000000E+00 0. -1.
         36    2    1    2    0    0  0.00000000000E+00  0.00000000000E+00 -0.81475172692E+03  0.12889198039E+04  0.99874615606E+03 0.  0.
         25    2    3    3    0    0 -0.78206602313E+02 -0.11241393090E+03 -0.12229916474E+03  0.22203370332E+03  0.12485477646E+03 0.  0.
         35    2    3    3    0    0  0.78206602313E+02  0.11241393090E+03 -0.69245256218E+03  0.10668861005E+04  0.80000139759E+03 0.  0.
         22    1    5    5    0    0 -0.32613222333E+03  0.21908406730E+03 -0.31532964254E+03  0.50377856157E+03  0.00000000000E+00 0. -1.
         22    1    5    5    0    0  0.40433882564E+03 -0.10667013640E+03 -0.37712291964E+03  0.56310753897E+03  0.00000000000E+00 0. -1.
          5    1    4    4  502    0 -0.50521262198E+02 -0.11697654148E+03 -0.13933695244E+03  0.18887240536E+03  0.47000000000E+01 0. -1.
         -5    1    4    4    0  502 -0.27685340115E+02  0.45626105770E+01  0.17037787699E+02  0.33161297957E+02  0.47000000000E+01 0. -1.
<mgrwt>
<rscale>  0 0.99874616E+03</rscale>
<asrwt>0</asrwt>
<pdfrwt beam="1">  1        1 0.36474467E-01 0.99874616E+03</pdfrwt>
<pdfrwt beam="2">  1       -1 0.16182089E+00 0.99874616E+03</pdfrwt>
<totfact> 0.38876580E+01</totfact>
</mgrwt>
</event>
<event>
 9    1  0.4497870E-036  0.9996384E+03  0.7818608E-02  0.8681382E-01
          2   -1    0    0  501    0  0.00000000000E+00  0.00000000000E+00  0.27005844947E+04  0.27005844947E+04  0.00000000000E+00 0. -1.
         -2   -1    0    0    0  501 -0.00000000000E+00 -0.00000000000E+00 -0.92505612783E+02  0.92505612783E+02  0.00000000000E+00 0. -1.
         36    2    1    2    0    0  0.71054273576E-14  0.71054273576E-14  0.26080788819E+04  0.27930901075E+04  0.99963838172E+03 0.  0.
         25    2    3    3    0    0  0.15646768639E+02  0.16229189329E+02  0.87409610370E+03  0.88314731787E+03  0.12408456232E+03 0.  0.
         35    2    3    3    0    0 -0.15646768639E+02 -0.16229189329E+02  0.17339827782E+04  0.19099427896E+04  0.80042299847E+03 0.  0.
         22    1    5    5    0    0  0.25600477984E+03 -0.25507135315E+03  0.45646166899E+03  0.58220022136E+03  0.00000000000E+00 0. -1.
         22    1    5    5    0    0 -0.27165154848E+03  0.23884216382E+03  0.12775211092E+04  0.13277425682E+04  0.00000000000E+00 0. -1.
          5    1    4    4  502    0 -0.31500006122E+02 -0.40627105475E+02  0.32177989575E+03  0.32589446665E+03  0.47000000000E+01 0. -1.
         -5    1    4    4    0  502  0.47146774761E+02  0.56856294805E+02  0.55231620795E+03  0.55725285122E+03  0.47000000000E+01 0. -1.
<mgrwt>
<rscale>  0 0.99963838E+03</rscale>
<asrwt>0</asrwt>
<pdfrwt beam="1">  1        2 0.41547448E+00 0.99963838E+03</pdfrwt>
<pdfrwt beam="2">  1       -2 0.14231635E-01 0.99963838E+03</pdfrwt>
<totfact> 0.11424128E+02</totfact>
</mgrwt>
</event>
<event>
 9    1  0.4497870E-036  0.9995420E+03  0.7818608E-02  0.8681474E-01
          2   -1    0    0  501    0  0.00000000000E+00  0.00000000000E+00  0.20674142352E+04  0.20674142352E+04  0.00000000000E+00 0. -1.
         -2   -1    0    0    0  501 -0.00000000000E+00 -0.00000000000E+00 -0.12081324759E+03  0.12081324759E+03  0.00000000000E+00 0. -1.
         36    2    1    2    0    0 -0.14210854715E-13 -0.14210854715E-13  0.19466009876E+04  0.21882274828E+04  0.99954195083E+03 0.  0.
         25    2    3    3    0    0 -0.11906237668E+03  0.62802892360E+02  0.27959709371E+03  0.33438429175E+03  0.12457233613E+03 0.  0.
         35    2    3    3    0    0  0.11906237668E+03 -0.62802892360E+02  0.16670038939E+04  0.18538431910E+04  0.79982031848E+03 0.  0.
         22    1    5    5    0    0 -0.13112536087E+03  0.22879282456E+03  0.12859538433E+04  0.13127137174E+04  0.00000000000E+00 0.  1.
         22    1    5    5    0    0  0.25018773756E+03 -0.29159571692E+03  0.38105005062E+03  0.54112947363E+03  0.00000000000E+00 0.  1.
          5    1    4    4  502    0 -0.53490752464E+02 -0.65083985482E+01  0.20823036799E+03  0.21514087478E+03  0.47000000000E+01 0. -1.
         -5    1    4    4    0  502 -0.65571624218E+02  0.69311290908E+02  0.71366725728E+02  0.11924341697E+03  0.47000000000E+01 0. -1.
<mgrwt>
<rscale>  0 0.99954195E+03</rscale>
<asrwt>0</asrwt>
<pdfrwt beam="1">  1        2 0.31806370E+00 0.99954195E+03</pdfrwt>
<pdfrwt beam="2">  1       -2 0.18586655E-01 0.99954195E+03</pdfrwt>
<totfact> 0.17405548E+02</totfact>
</mgrwt>
</event>
<event>
 9    1  0.4497870E-036  0.9997589E+03  0.7818608E-02  0.8681268E-01
          2   -1    0    0  501    0  0.00000000000E+00  0.00000000000E+00  0.54129169166E+03  0.54129169166E+03  0.00000000000E+00 0.  1.
         -2   -1    0    0    0  501 -0.00000000000E+00 -0.00000000000E+00 -0.46163552341E+03  0.46163552341E+03  0.00000000000E+00 0.  1.
         36    2    1    2    0    0  0.00000000000E+00 -0.71054273576E-14  0.79656168250E+02  0.10029272151E+04  0.99975891773E+03 0.  0.
         25    2    3    3    0    0  0.36203180096E+02 -0.25206511574E+02  0.15369252986E+03  0.20263632419E+03  0.12447508856E+03 0.  0.
         35    2    3    3    0    0 -0.36203180096E+02  0.25206511574E+02 -0.74036361606E+02  0.80029089088E+03  0.79563690758E+03 0.  0.
         22    1    5    5    0    0 -0.52970207397E+02 -0.11240151525E+03  0.34088433933E+03  0.36282513185E+03  0.00000000000E+00 0. -1.
         22    1    5    5    0    0  0.16767027301E+02  0.13760802682E+03 -0.41492070094E+03  0.43746575902E+03  0.00000000000E+00 0. -1.
          5    1    4    4  502    0  0.21049738897E+02 -0.57894754849E+02  0.15439197154E+03  0.16629451291E+03  0.47000000000E+01 0. -1.
         -5    1    4    4    0  502  0.15153441199E+02  0.32688243275E+02 -0.69944168290E+00  0.36341811282E+02  0.47000000000E+01 0. -1.
<mgrwt>
<rscale>  0 0.99975892E+03</rscale>
<asrwt>0</asrwt>
<pdfrwt beam="1">  1        2 0.83275644E-01 0.99975892E+03</pdfrwt>
<pdfrwt beam="2">  1       -2 0.71020850E-01 0.99975892E+03</pdfrwt>
<totfact> 0.12218478E+02</totfact>
</mgrwt>
</event>
<event>
 9    1  0.4497870E-036  0.1000296E+04  0.7818608E-02  0.8680756E-01
          1   -1    0    0  501    0  0.00000000000E+00  0.00000000000E+00  0.20292605776E+04  0.20292605776E+04  0.00000000000E+00 0. -1.
         -1   -1    0    0    0  501 -0.00000000000E+00 -0.00000000000E+00 -0.12327048243E+03  0.12327048243E+03  0.00000000000E+00 0. -1.
         36    2    1    2    0    0 -0.28421709430E-13 -0.28421709430E-13  0.19059900951E+04  0.21525310600E+04  0.10002958170E+04 0.  0.
         25    2    3    3    0    0  0.11177026712E+03  0.65346587781E+02  0.49360996119E+03  0.52408200037E+03  0.11936657896E+03 0.  0.
         35    2    3    3    0    0 -0.11177026712E+03 -0.65346587781E+02  0.14123801340E+04  0.16284490596E+04  0.80016618769E+03 0.  0.
         22    1    5    5    0    0 -0.28209245697E+03  0.29592828712E+03  0.77597016300E+03  0.87708574226E+03  0.00000000000E+00 0. -1.
         22    1    5    5    0    0  0.17032218985E+03 -0.36127487490E+03  0.63640997095E+03  0.75136331739E+03  0.00000000000E+00 0. -1.
          5    1    4    4  502    0  0.20937126936E+02 -0.31347221995E+02  0.63951955259E+02  0.74383830182E+02  0.47000000000E+01 0. -1.
         -5    1    4    4    0  502  0.90833140179E+02  0.96693809776E+02  0.42965800594E+03  0.44969817019E+03  0.47000000000E+01 0. -1.
<mgrwt>
<rscale>  0 0.10002958E+04</rscale>
<asrwt>0</asrwt>
<pdfrwt beam="1">  1        1 0.31219391E+00 0.10002958E+04</pdfrwt>
<pdfrwt beam="2">  1       -1 0.18964691E-01 0.10002958E+04</pdfrwt>
<totfact> 0.66321288E+01</totfact>
</mgrwt>
</event>
<event>
 9    1  0.4497870E-036  0.9996966E+03  0.7818608E-02  0.8681327E-01
         -2   -1    0    0    0  501 -0.00000000000E+00  0.00000000000E+00  0.23604546661E+03  0.23604546661E+03  0.00000000000E+00 0.  1.
          2   -1    0    0  501    0  0.00000000000E+00 -0.00000000000E+00 -0.10584755126E+04  0.10584755126E+04  0.00000000000E+00 0.  1.
         36    2    1    2    0    0  0.00000000000E+00  0.00000000000E+00 -0.82243004600E+03  0.12945209792E+04  0.99969664654E+03 0.  0.
         25    2    3    3    0    0 -0.10372962809E+03  0.88227572566E+02 -0.19838800981E+03  0.27059382146E+03  0.12377105265E+03 0.  0.
         35    2    3    3    0    0  0.10372962809E+03 -0.88227572566E+02 -0.62404203620E+03  0.10239271578E+04  0.80028396283E+03 0.  0.
         22    1    5    5    0    0  0.38440657703E+03  0.29504572666E+02 -0.60699148989E+03  0.71908108380E+03  0.00000000000E+00 0. -1.
         22    1    5    5    0    0 -0.28067694894E+03 -0.11773214523E+03 -0.17050546301E+02  0.30484607397E+03  0.00000000000E+00 0. -1.
          5    1    4    4  502    0 -0.71667043367E+02  0.81921509533E+02 -0.52351123256E+02  0.12087195264E+03  0.47000000000E+01 0. -1.
         -5    1    4    4    0  502 -0.32062584720E+02  0.63060630331E+01 -0.14603688655E+03  0.14972186882E+03  0.47000000000E+01 0. -1.
<mgrwt>
<rscale>  0 0.99969665E+03</rscale>
<asrwt>0</asrwt>
<pdfrwt beam="1">  1        2 0.16284239E+00 0.99969665E+03</pdfrwt>
<pdfrwt beam="2">  1       -2 0.36314687E-01 0.99969665E+03</pdfrwt>
<totfact> 0.19928325E+02</totfact>
</mgrwt>
</event>
<event>
 9    1  0.4497870E-036  0.1000200E+04  0.7818608E-02  0.8680847E-01
         -4   -1    0    0    0  501 -0.00000000000E+00  0.00000000000E+00  0.52130044412E+03  0.52130044412E+03  0.00000000000E+00 0.  1.
          4   -1    0    0  501    0  0.00000000000E+00 -0.00000000000E+00 -0.47976201013E+03  0.47976201013E+03  0.00000000000E+00 0.  1.
         36    2    1    2    0    0  0.35527136788E-14  0.14210854715E-13  0.41538433988E+02  0.10010624542E+04  0.10002002778E+04 0.  0.
         25    2    3    3    0    0 -0.78357180648E+01 -0.48001604905E+02 -0.12465524729E+03  0.18311390200E+03  0.12500487141E+03 0.  0.
         35    2    3    3    0    0  0.78357180648E+01  0.48001604905E+02  0.16619368128E+03  0.81794855225E+03  0.79940849500E+03 0.  0.
         22    1    5    5    0    0 -0.26263254631E+02 -0.17073411015E+01  0.48892651873E+03  0.48963436794E+03  0.00000000000E+00 0. -1.
         22    1    5    5    0    0  0.34098972696E+02  0.49708946006E+02 -0.32273283744E+03  0.32831418430E+03  0.00000000000E+00 0. -1.
          5    1    4    4  502    0 -0.61924114036E+00  0.38751529001E+01 -0.13010184846E+03  0.13024584923E+03  0.47000000000E+01 0.  1.
         -5    1    4    4    0  502 -0.72164769244E+01 -0.51876757805E+02  0.54466011624E+01  0.52868052771E+02  0.47000000000E+01 0.  1.
<mgrwt>
<rscale>  0 0.10002003E+04</rscale>
<asrwt>0</asrwt>
<pdfrwt beam="1">  1        4 0.73809540E-01 0.10002003E+04</pdfrwt>
<pdfrwt beam="2">  1       -4 0.80200068E-01 0.10002003E+04</pdfrwt>
<totfact> 0.52945937E+00</totfact>
</mgrwt>
</event>
<event>
 9    1  0.4497870E-036  0.9995992E+03  0.7818608E-02  0.8681420E-01
         -3   -1    0    0    0  501 -0.00000000000E+00  0.00000000000E+00  0.26256927389E+03  0.26256927389E+03  0.00000000000E+00 0. -1.
          3   -1    0    0  501    0  0.00000000000E+00 -0.00000000000E+00 -0.95136662795E+03  0.95136662795E+03  0.00000000000E+00 0. -1.
         36    2    1    2    0    0  0.28421709430E-13  0.28421709430E-13 -0.68879735405E+03  0.12139359018E+04  0.99959920910E+03 0.  0.
         25    2    3    3    0    0 -0.13317718255E+03 -0.43485922313E+02 -0.15676448851E+03  0.24435894228E+03  0.12453513729E+03 0.  0.
         35    2    3    3    0    0  0.13317718255E+03  0.43485922313E+02 -0.53203286554E+03  0.96957695957E+03  0.79836916468E+03 0.  0.
         22    1    5    5    0    0  0.43458460440E+02  0.35864192610E+03 -0.20188353847E+02  0.36182901842E+03  0.00000000000E+00 0. -1.
         22    1    5    5    0    0  0.89718722106E+02 -0.31515600378E+03 -0.51184451169E+03  0.60774794115E+03  0.00000000000E+00 0. -1.
          5    1    4    4  502    0 -0.33837450020E+02 -0.74970195069E+02 -0.80050068042E+02  0.11487213137E+03  0.47000000000E+01 0. -1.
         -5    1    4    4    0  502 -0.99339732526E+02  0.31484272756E+02 -0.76714420473E+02  0.12948681090E+03  0.47000000000E+01 0. -1.
<mgrwt>
<rscale>  0 0.99959921E+03</rscale>
<asrwt>0</asrwt>
<pdfrwt beam="1">  1        3 0.14636410E+00 0.99959921E+03</pdfrwt>
<pdfrwt beam="2">  1       -3 0.40395273E-01 0.99959921E+03</pdfrwt>
<totfact> 0.87607967E+00</totfact>
</mgrwt>
</event>
<event>
 9    1  0.4497870E-036  0.1003171E+04  0.7818608E-02  0.8678024E-01
          1   -1    0    0  501    0  0.00000000000E+00  0.00000000000E+00  0.19046814332E+03  0.19046814332E+03  0.00000000000E+00 0. -1.
         -1   -1    0    0    0  501 -0.00000000000E+00 -0.00000000000E+00 -0.13208933072E+04  0.13208933072E+04  0.00000000000E+00 0. -1.
         36    2    1    2    0    0  0.14210854715E-13  0.00000000000E+00 -0.11304251639E+04  0.15113614506E+04  0.10031711634E+04 0.  0.
         25    2    3    3    0    0  0.12472605558E+03 -0.64525381142E+02 -0.17477518333E+03  0.25702561667E+03  0.12568090213E+03 0.  0.
         35    2    3    3    0    0 -0.12472605558E+03  0.64525381142E+02 -0.95564998059E+03  0.12543358339E+04  0.80023208199E+03 0.  0.
         22    1    5    5    0    0  0.33108202481E+03 -0.57121109642E+02 -0.46502248716E+03  0.57369333436E+03  0.00000000000E+00 0. -1.
         22    1    5    5    0    0 -0.45580808039E+03  0.12164649078E+03 -0.49062749343E+03  0.68064249954E+03  0.00000000000E+00 0. -1.
          5    1    4    4  502    0  0.10589104720E+03 -0.38097301281E+02 -0.18999650176E+03  0.22087344549E+03  0.47000000000E+01 0. -1.
         -5    1    4    4    0  502  0.18835008387E+02 -0.26428079862E+02  0.15221318427E+02  0.36152171176E+02  0.47000000000E+01 0. -1.
<mgrwt>
<rscale>  0 0.10031712E+04</rscale>
<asrwt>0</asrwt>
<pdfrwt beam="1">  1        1 0.29302792E-01 0.10031712E+04</pdfrwt>
<pdfrwt beam="2">  1       -1 0.20321435E+00 0.10031712E+04</pdfrwt>
<totfact> 0.23173425E+01</totfact>
</mgrwt>
</event>
<event>
 9    1  0.4497870E-036  0.9981517E+03  0.7818608E-02  0.8682800E-01
         -1   -1    0    0    0  501 -0.00000000000E+00  0.00000000000E+00  0.12593705587E+04  0.12593705587E+04  0.00000000000E+00 0.  1.
          1   -1    0    0  501    0  0.00000000000E+00 -0.00000000000E+00 -0.19777871534E+03  0.19777871534E+03  0.00000000000E+00 0.  1.
         36    2    1    2    0    0  0.00000000000E+00  0.28421709430E-13  0.10615918433E+04  0.14571492740E+04  0.99815167431E+03 0.  0.
         25    2    3    3    0    0 -0.62045004689E+02 -0.41189241232E+02  0.32493552894E+02  0.15143920725E+03  0.12779619052E+03 0.  0.
         35    2    3    3    0    0  0.62045004689E+02  0.41189241232E+02  0.10290982904E+04  0.13057100668E+04  0.80018082386E+03 0.  0.
         22    1    5    5    0    0  0.32760609107E+03  0.27730709910E+03  0.41992608603E+03  0.60046889665E+03  0.00000000000E+00 0.  1.
         22    1    5    5    0    0 -0.26556108638E+03 -0.23611785787E+03  0.60917220442E+03  0.70524117012E+03  0.00000000000E+00 0.  1.
          5    1    4    4  502    0 -0.77438743062E+02 -0.68511535709E+02 -0.33827399299E+01  0.10355733862E+03  0.47000000000E+01 0. -1.
         -5    1    4    4    0  502  0.15393738373E+02  0.27322294477E+02  0.35876292824E+02  0.47881868629E+02  0.47000000000E+01 0. -1.
<mgrwt>
<rscale>  0 0.99815167E+03</rscale>
<asrwt>0</asrwt>
<pdfrwt beam="1">  1        1 0.30427495E-01 0.99815167E+03</pdfrwt>
<pdfrwt beam="2">  1       -1 0.19374931E+00 0.99815167E+03</pdfrwt>
<totfact> 0.26558610E+01</totfact>
</mgrwt>
</event>
<event>
 9    1  0.4497870E-036  0.9994452E+03  0.7818608E-02  0.8681566E-01
          2   -1    0    0  501    0  0.00000000000E+00  0.00000000000E+00  0.13664405604E+04  0.13664405604E+04  0.00000000000E+00 0.  1.
         -2   -1    0    0    0  501 -0.00000000000E+00 -0.00000000000E+00 -0.18275413789E+03  0.18275413789E+03  0.00000000000E+00 0.  1.
         36    2    1    2    0    0 -0.14210854715E-13  0.00000000000E+00  0.11836864225E+04  0.15491946983E+04  0.99944517926E+03 0.  0.
         25    2    3    3    0    0 -0.90330040779E+02  0.10742246051E+03  0.19998391403E+03  0.27406052441E+03  0.12416321468E+03 0.  0.
         35    2    3    3    0    0  0.90330040779E+02 -0.10742246051E+03  0.98370250849E+03  0.12751341739E+04  0.79912291601E+03 0.  0.
         22    1    5    5    0    0 -0.34274927935E+03 -0.12327322349E+03  0.33423549652E+03  0.49435485560E+03  0.00000000000E+00 0.  1.
         22    1    5    5    0    0  0.43307932013E+03  0.15850762980E+02  0.64946701197E+03  0.78077931827E+03  0.00000000000E+00 0.  1.
          5    1    4    4  502    0  0.12553181998E+02  0.31534880577E+02 -0.27090499073E+01  0.34372372957E+02  0.47000000000E+01 0. -1.
         -5    1    4    4    0  502 -0.10288322278E+03  0.75887579933E+02  0.20269296393E+03  0.23968815145E+03  0.47000000000E+01 0. -1.
<mgrwt>
<rscale>  0 0.99944518E+03</rscale>
<asrwt>0</asrwt>
<pdfrwt beam="1">  1        2 0.21022162E+00 0.99944518E+03</pdfrwt>
<pdfrwt beam="2">  1       -2 0.28116022E-01 0.99944518E+03</pdfrwt>
<totfact> 0.20986765E+02</totfact>
</mgrwt>
</event>
<event>
 9    1  0.4497870E-036  0.1000332E+04  0.7818608E-02  0.8680722E-01
          2   -1    0    0  501    0  0.00000000000E+00  0.00000000000E+00  0.59074890376E+03  0.59074890376E+03  0.00000000000E+00 0. -1.
         -2   -1    0    0    0  501 -0.00000000000E+00 -0.00000000000E+00 -0.42347234879E+03  0.42347234879E+03  0.00000000000E+00 0. -1.
         36    2    1    2    0    0  0.00000000000E+00  0.28421709430E-13  0.16727655496E+03  0.10142212526E+04  0.10003315967E+04 0.  0.
         25    2    3    3    0    0 -0.42079079439E+02 -0.66400693997E+02  0.15019741855E+03  0.21037918359E+03  0.12458103893E+03 0.  0.
         35    2    3    3    0    0  0.42079079439E+02  0.66400693997E+02  0.17079136413E+02  0.80384206896E+03  0.79980664778E+03 0.  0.
         22    1    5    5    0    0  0.68807879030E+02  0.36030562661E+03  0.23618718060E+03  0.43627864154E+03  0.00000000000E+00 0.  1.
         22    1    5    5    0    0 -0.26728799591E+02 -0.29390493261E+03 -0.21910804419E+03  0.36756342741E+03  0.00000000000E+00 0.  1.
          5    1    4    4  502    0 -0.78218340112E+01 -0.38220706741E+01 -0.21894718565E+02  0.24026194301E+02  0.47000000000E+01 0.  1.
         -5    1    4    4    0  502 -0.34257245428E+02 -0.62578623323E+02  0.17209213712E+03  0.18635298929E+03  0.47000000000E+01 0.  1.
<mgrwt>
<rscale>  0 0.10003316E+04</rscale>
<asrwt>0</asrwt>
<pdfrwt beam="1">  1        2 0.90884447E-01 0.10003316E+04</pdfrwt>
<pdfrwt beam="2">  1       -2 0.65149592E-01 0.10003316E+04</pdfrwt>
<totfact> 0.13283227E+02</totfact>
</mgrwt>
</event>
<event>
 9    1  0.4497870E-036  0.9999869E+03  0.7818608E-02  0.8681050E-01
         -2   -1    0    0    0  501 -0.00000000000E+00  0.00000000000E+00  0.24067012298E+03  0.24067012298E+03  0.00000000000E+00 0. -1.
          2   -1    0    0  501    0  0.00000000000E+00 -0.00000000000E+00 -0.10387389854E+04  0.10387389854E+04  0.00000000000E+00 0. -1.
         36    2    1    2    0    0  0.00000000000E+00  0.00000000000E+00 -0.79806886246E+03  0.12794091084E+04  0.99998687865E+03 0.  0.
         25    2    3    3    0    0 -0.87378351304E+02 -0.64491845808E+02 -0.33067215394E+02  0.16879210685E+03  0.12491261004E+03 0.  0.
         35    2    3    3    0    0  0.87378351304E+02  0.64491845808E+02 -0.76500164707E+03  0.11106170016E+04  0.79777718049E+03 0.  0.
         22    1    5    5    0    0 -0.24152489515E+03 -0.61750833952E+02 -0.71196469429E+03  0.75434817318E+03  0.00000000000E+00 0.  1.
         22    1    5    5    0    0  0.32890324645E+03  0.12624267976E+03 -0.53036952780E+02  0.35626882839E+03  0.00000000000E+00 0.  1.
          5    1    4    4  502    0 -0.79256127317E+02 -0.59218846160E+02  0.31032001835E+02  0.10379537849E+03  0.47000000000E+01 0. -1.
         -5    1    4    4    0  502 -0.81222239878E+01 -0.52729996478E+01 -0.64099217229E+02  0.64996728358E+02  0.47000000000E+01 0. -1.
<mgrwt>
<rscale>  0 0.99998688E+03</rscale>
<asrwt>0</asrwt>
<pdfrwt beam="1">  1        2 0.15980600E+00 0.99998688E+03</pdfrwt>
<pdfrwt beam="2">  1       -2 0.37026172E-01 0.99998688E+03</pdfrwt>
<totfact> 0.19760141E+02</totfact>
</mgrwt>
</event>
<event>
 9    1  0.4497870E-036  0.9999503E+03  0.7818608E-02  0.8681085E-01
         -2   -1    0    0    0  501 -0.00000000000E+00  0.00000000000E+00  0.93049126821E+02  0.93049126821E+02  0.00000000000E+00 0. -1.
          2   -1    0    0  501    0  0.00000000000E+00 -0.00000000000E+00 -0.26864858648E+04  0.26864858648E+04  0.00000000000E+00 0. -1.
         36    2    1    2    0    0  0.14210854715E-13  0.00000000000E+00 -0.25934367380E+04  0.27795349917E+04  0.99995032664E+03 0.  0.
         25    2    3    3    0    0  0.10041404532E+03 -0.94771490474E+02 -0.37062752723E+03  0.41477972043E+03  0.12495133709E+03 0.  0.
         35    2    3    3    0    0 -0.10041404532E+03  0.94771490474E+02 -0.22228092108E+04  0.23647552712E+04  0.79506106012E+03 0.  0.
         22    1    5    5    0    0  0.28586258482E+03  0.85599958191E+02 -0.38678931437E+03  0.48851892896E+03  0.00000000000E+00 0.  1.
         22    1    5    5    0    0 -0.38627663014E+03  0.91715322826E+01 -0.18360198964E+04  0.18762363423E+04  0.00000000000E+00 0.  1.
          5    1    4    4  502    0  0.16554156429E+02 -0.99883866172E+02 -0.22047008802E+03  0.24265196585E+03  0.47000000000E+01 0.  1.
         -5    1    4    4    0  502  0.83859888893E+02  0.51123756984E+01 -0.15015743920E+03  0.17212775458E+03  0.47000000000E+01 0.  1.
<mgrwt>
<rscale>  0 0.99995033E+03</rscale>
<asrwt>0</asrwt>
<pdfrwt beam="1">  1        2 0.41330540E+00 0.99995033E+03</pdfrwt>
<pdfrwt beam="2">  1       -2 0.14315254E-01 0.99995033E+03</pdfrwt>
<totfact> 0.11546262E+02</totfact>
</mgrwt>
</event>
<event>
 9    1  0.4497870E-036  0.9994898E+03  0.7818608E-02  0.8681524E-01
         -1   -1    0    0    0  501 -0.00000000000E+00  0.00000000000E+00  0.23958910948E+03  0.23958910948E+03  0.00000000000E+00 0. -1.
          1   -1    0    0  501    0  0.00000000000E+00 -0.00000000000E+00 -0.10423887006E+04  0.10423887006E+04  0.00000000000E+00 0. -1.
         36    2    1    2    0    0 -0.17763568394E-14 -0.28421709430E-13 -0.80279959110E+03  0.12819778101E+04  0.99948983087E+03 0.  0.
         25    2    3    3    0    0 -0.37984889786E+01 -0.11744214227E+03 -0.24770314971E+03  0.30164870213E+03  0.12580939480E+03 0.  0.
         35    2    3    3    0    0  0.37984889786E+01  0.11744214227E+03 -0.55509644140E+03  0.98032910794E+03  0.79944106432E+03 0.  0.
         22    1    5    5    0    0 -0.47478627743E+02  0.26651721710E+03  0.11339308819E+03  0.29350236720E+03  0.00000000000E+00 0. -1.
         22    1    5    5    0    0  0.51277116722E+02 -0.14907507482E+03 -0.66848952958E+03  0.68682674074E+03  0.00000000000E+00 0. -1.
          5    1    4    4  502    0 -0.13263343205E+02 -0.12482956342E+03 -0.25679335594E+03  0.28587279309E+03  0.47000000000E+01 0.  1.
         -5    1    4    4    0  502  0.94648542267E+01  0.73874211434E+01  0.90902062276E+01  0.15775909037E+02  0.47000000000E+01 0.  1.
<mgrwt>
<rscale>  0 0.99948983E+03</rscale>
<asrwt>0</asrwt>
<pdfrwt beam="1">  1        1 0.16036749E+00 0.99948983E+03</pdfrwt>
<pdfrwt beam="2">  1       -1 0.36859863E-01 0.99948983E+03</pdfrwt>
<totfact> 0.11061701E+02</totfact>
</mgrwt>
</event>
<event>
 9    1  0.4497870E-036  0.1003026E+04  0.7818608E-02  0.8678162E-01
         -2   -1    0    0    0  501 -0.00000000000E+00  0.00000000000E+00  0.10831848695E+03  0.10831848695E+03  0.00000000000E+00 0.  1.
          2   -1    0    0  501    0  0.00000000000E+00 -0.00000000000E+00 -0.23219977296E+04  0.23219977296E+04  0.00000000000E+00 0.  1.
         36    2    1    2    0    0  0.00000000000E+00  0.14210854715E-13 -0.22136792427E+04  0.24303162166E+04  0.10030259833E+04 0.  0.
         25    2    3    3    0    0  0.11473003092E+03 -0.32241078056E+02 -0.23409424882E+03  0.29104974895E+03  0.12532905458E+03 0.  0.
         35    2    3    3    0    0 -0.11473003092E+03  0.32241078056E+02 -0.19795849938E+04  0.21392664676E+04  0.80218564217E+03 0.  0.
         22    1    5    5    0    0  0.11476977967E+03  0.22606061715E+03 -0.17076639304E+03  0.30567411723E+03  0.00000000000E+00 0.  1.
         22    1    5    5    0    0 -0.22949981058E+03 -0.19381953910E+03 -0.18088186008E+04  0.18335923504E+04  0.00000000000E+00 0.  1.
          5    1    4    4  502    0  0.12226683353E+03 -0.35825969849E+02 -0.11538542801E+03  0.17195512698E+03  0.47000000000E+01 0.  1.
         -5    1    4    4    0  502 -0.75368026157E+01  0.35848917926E+01 -0.11870882082E+03  0.11909462197E+03  0.47000000000E+01 0.  1.
<mgrwt>
<rscale>  0 0.10030260E+04</rscale>
<asrwt>0</asrwt>
<pdfrwt beam="1">  1        2 0.35723042E+00 0.10030260E+04</pdfrwt>
<pdfrwt beam="2">  1       -2 0.16664383E-01 0.10030260E+04</pdfrwt>
<totfact> 0.14910761E+02</totfact>
</mgrwt>
</event>
<event>
 9    1  0.4497870E-036  0.1001446E+04  0.7818608E-02  0.8679663E-01
          2   -1    0    0  501    0  0.00000000000E+00  0.00000000000E+00  0.30032814266E+03  0.30032814266E+03  0.00000000000E+00 0. -1.
         -2   -1    0    0    0  501 -0.00000000000E+00 -0.00000000000E+00 -0.83483113363E+03  0.83483113363E+03  0.00000000000E+00 0. -1.
         36    2    1    2    0    0  0.21316282073E-13  0.00000000000E+00 -0.53450299096E+03  0.11351592763E+04  0.10014455228E+04 0.  0.
         25    2    3    3    0    0  0.29814358790E+02 -0.10103170361E+03 -0.20422734088E+03  0.26201649593E+03  0.12588699794E+03 0.  0.
         35    2    3    3    0    0 -0.29814358790E+02  0.10103170361E+03 -0.33027565009E+03  0.87314278037E+03  0.80137382584E+03 0.  0.
         22    1    5    5    0    0 -0.29447759013E+03 -0.19595564845E+03  0.36930204874E+01  0.35373620913E+03  0.00000000000E+00 0. -1.
         22    1    5    5    0    0  0.26466323134E+03  0.29698735207E+03 -0.33396867057E+03  0.51940657123E+03  0.00000000000E+00 0. -1.
          5    1    4    4  502    0 -0.28748730968E+02 -0.89754777964E+02 -0.78366371166E+02  0.12266127274E+03  0.47000000000E+01 0. -1.
         -5    1    4    4    0  502  0.58563089757E+02 -0.11276925649E+02 -0.12586096971E+03  0.13935522319E+03  0.47000000000E+01 0. -1.
<mgrwt>
<rscale>  0 0.10014455E+04</rscale>
<asrwt>0</asrwt>
<pdfrwt beam="1">  1        2 0.46204331E-01 0.10014455E+04</pdfrwt>
<pdfrwt beam="2">  1       -2 0.12843556E+00 0.10014455E+04</pdfrwt>
<totfact> 0.56785822E+01</totfact>
</mgrwt>
</event>
<event>
 9    1  0.4497870E-036  0.1001966E+04  0.7818608E-02  0.8679168E-01
          3   -1    0    0  501    0  0.00000000000E+00  0.00000000000E+00  0.37795560663E+04  0.37795560663E+04  0.00000000000E+00 0. -1.
         -3   -1    0    0    0  501 -0.00000000000E+00 -0.00000000000E+00 -0.66405664934E+02  0.66405664934E+02  0.00000000000E+00 0. -1.
         36    2    1    2    0    0  0.14210854715E-13  0.00000000000E+00  0.37131504013E+04  0.38459617312E+04  0.10019659350E+04 0.  0.
         25    2    3    3    0    0  0.98823399938E+02 -0.85796899067E+02  0.94399098594E+03  0.96113623889E+03  0.12464636336E+03 0.  0.
         35    2    3    3    0    0 -0.98823399938E+02  0.85796899067E+02  0.27691594154E+04  0.28848254923E+04  0.79802699264E+03 0.  0.
         22    1    5    5    0    0 -0.19028049459E+03  0.31288841924E+03  0.24757826667E+04  0.25027196492E+04  0.00000000000E+00 0. -1.
         22    1    5    5    0    0  0.91457094649E+02 -0.22709152017E+03  0.29337674864E+03  0.38210584311E+03  0.00000000000E+00 0. -1.
          5    1    4    4  502    0  0.11358727748E+03 -0.45143688091E+02  0.83283274570E+03  0.84176748243E+03  0.47000000000E+01 0.  1.
         -5    1    4    4    0  502 -0.14763877541E+02 -0.40653210977E+02  0.11115824025E+03  0.11936875645E+03  0.47000000000E+01 0.  1.
<mgrwt>
<rscale>  0 0.10019659E+04</rscale>
<asrwt>0</asrwt>
<pdfrwt beam="1">  1        3 0.58146999E+00 0.10019659E+04</pdfrwt>
<pdfrwt beam="2">  1       -3 0.10216259E-01 0.10019659E+04</pdfrwt>
<totfact> 0.18242626E+00</totfact>
</mgrwt>
</event>
<event>
 9    1  0.4497870E-036  0.9997921E+03  0.7818608E-02  0.8681236E-01
          1   -1    0    0  501    0  0.00000000000E+00  0.00000000000E+00  0.78804019990E+03  0.78804019990E+03  0.00000000000E+00 0. -1.
         -1   -1    0    0    0  501 -0.00000000000E+00 -0.00000000000E+00 -0.31711077985E+03  0.31711077985E+03  0.00000000000E+00 0. -1.
         36    2    1    2    0    0 -0.28421709430E-13  0.71054273576E-14  0.47092942005E+03  0.11051509798E+04  0.99979206307E+03 0.  0.
         25    2    3    3    0    0  0.13395577547E+03 -0.60768448686E+02  0.95328992092E+02  0.20990338696E+03  0.11547666858E+03 0.  0.
         35    2    3    3    0    0 -0.13395577547E+03  0.60768448686E+02  0.37560042796E+03  0.89524759279E+03  0.79922188207E+03 0.  0.
         22    1    5    5    0    0  0.60256456972E+02 -0.27883634260E+03  0.41332926639E+03  0.50221671519E+03  0.00000000000E+00 0.  1.
         22    1    5    5    0    0 -0.19421223244E+03  0.33960479129E+03 -0.37728838430E+02  0.39303087760E+03  0.00000000000E+00 0.  1.
          5    1    4    4  502    0  0.45737980821E+02  0.29564424182E+02  0.54322114674E+02  0.77064909067E+02  0.47000000000E+01 0. -1.
         -5    1    4    4    0  502  0.88217794651E+02 -0.90332872869E+02  0.41006877418E+02  0.13283847789E+03  0.47000000000E+01 0. -1.
<mgrwt>
<rscale>  0 0.99979206E+03</rscale>
<asrwt>0</asrwt>
<pdfrwt beam="1">  1        1 0.12123695E+00 0.99979206E+03</pdfrwt>
<pdfrwt beam="2">  1       -1 0.48786274E-01 0.99979206E+03</pdfrwt>
<totfact> 0.10861547E+02</totfact>
</mgrwt>
</event>
<event>
 9    1  0.4497870E-036  0.9995226E+03  0.7818608E-02  0.8681493E-01
         -2   -1    0    0    0  501 -0.00000000000E+00  0.00000000000E+00  0.24052998012E+03  0.24052998012E+03  0.00000000000E+00 0.  1.
          2   -1    0    0  501    0  0.00000000000E+00 -0.00000000000E+00 -0.10383793720E+04  0.10383793720E+04  0.00000000000E+00 0.  1.
         36    2    1    2    0    0 -0.14210854715E-13 -0.28421709430E-13 -0.79784939192E+03  0.12789093522E+04  0.99952262550E+03 0.  0.
         25    2    3    3    0    0  0.70520733007E+02  0.99193326194E+02 -0.23497565675E+03  0.29278368416E+03  0.12528462276E+03 0.  0.
         35    2    3    3    0    0 -0.70520733007E+02 -0.99193326194E+02 -0.56287373517E+03  0.98612566801E+03  0.80050265560E+03 0.  0.
         22    1    5    5    0    0  0.11009880915E+03  0.16425209757E+03 -0.62950702053E+03  0.65983300026E+03  0.00000000000E+00 0.  1.
         22    1    5    5    0    0 -0.18061954216E+03 -0.26344542377E+03  0.66633285358E+02  0.32629266775E+03  0.00000000000E+00 0.  1.
          5    1    4    4  502    0  0.67647679189E+02 -0.58413836318E+01 -0.74480359213E+02  0.10089471825E+03  0.47000000000E+01 0. -1.
         -5    1    4    4    0  502  0.28730538188E+01  0.10503470983E+03 -0.16049529754E+03  0.19188896591E+03  0.47000000000E+01 0. -1.
<mgrwt>
<rscale>  0 0.99952263E+03</rscale>
<asrwt>0</asrwt>
<pdfrwt beam="1">  1        2 0.15975067E+00 0.99952263E+03</pdfrwt>
<pdfrwt beam="2">  1       -2 0.37004614E-01 0.99952263E+03</pdfrwt>
<totfact> 0.19792076E+02</totfact>
</mgrwt>
</event>
<event>
 9    1  0.4497870E-036  0.1000421E+04  0.7818608E-02  0.8680637E-01
          2   -1    0    0  501    0  0.00000000000E+00  0.00000000000E+00  0.50230207257E+03  0.50230207257E+03  0.00000000000E+00 0. -1.
         -2   -1    0    0    0  501 -0.00000000000E+00 -0.00000000000E+00 -0.49812797795E+03  0.49812797795E+03  0.00000000000E+00 0. -1.
         36    2    1    2    0    0 -0.14210854715E-13  0.00000000000E+00  0.41740946187E+01  0.10004300505E+04  0.10004213427E+04 0.  0.
         25    2    3    3    0    0  0.10251594866E+03 -0.96421635238E+02  0.24217649216E+02  0.18986262740E+03  0.12511862882E+03 0.  0.
         35    2    3    3    0    0 -0.10251594866E+03  0.96421635238E+02 -0.20043554597E+02  0.81056742312E+03  0.79800448111E+03 0.  0.
         22    1    5    5    0    0 -0.43705324396E+03  0.15132287789E+03  0.47334219245E+02  0.46492438066E+03  0.00000000000E+00 0. -1.
         22    1    5    5    0    0  0.33453729530E+03 -0.54901242648E+02 -0.67377773842E+02  0.34564304246E+03  0.00000000000E+00 0. -1.
          5    1    4    4  502    0 -0.22547169500E+02 -0.13624043168E+02 -0.20016697924E+02  0.33417773721E+02  0.47000000000E+01 0. -1.
         -5    1    4    4    0  502  0.12506311816E+03 -0.82797592070E+02  0.44234347140E+02  0.15644485368E+03  0.47000000000E+01 0. -1.
<mgrwt>
<rscale>  0 0.10004213E+04</rscale>
<asrwt>0</asrwt>
<pdfrwt beam="1">  1        2 0.77277242E-01 0.10004213E+04</pdfrwt>
<pdfrwt beam="2">  1       -2 0.76635073E-01 0.10004213E+04</pdfrwt>
<totfact> 0.11254177E+02</totfact>
</mgrwt>
</event>
<event>
 9    1  0.4497870E-036  0.1000145E+04  0.7818608E-02  0.8680900E-01
         -2   -1    0    0    0  501 -0.00000000000E+00  0.00000000000E+00  0.26102762685E+03  0.26102762685E+03  0.00000000000E+00 0.  1.
          2   -1    0    0  501    0  0.00000000000E+00 -0.00000000000E+00 -0.95803125577E+03  0.95803125577E+03  0.00000000000E+00 0.  1.
         36    2    1    2    0    0  0.28421709430E-13  0.00000000000E+00 -0.69700362893E+03  0.12190588826E+04  0.10001452397E+04 0.  0.
         25    2    3    3    0    0 -0.85298443700E+02  0.82026649925E+02 -0.22013736221E+03  0.27935164699E+03  0.12479057912E+03 0.  0.
         35    2    3    3    0    0  0.85298443700E+02 -0.82026649925E+02 -0.47686626671E+03  0.93970723564E+03  0.80102687632E+03 0.  0.
         22    1    5    5    0    0 -0.34130703330E+03  0.68461791446E+02 -0.27829023609E+03  0.44567136252E+03  0.00000000000E+00 0.  1.
         22    1    5    5    0    0  0.42660547700E+03 -0.15048844137E+03 -0.19857603063E+03  0.49403587312E+03  0.00000000000E+00 0.  1.
          5    1    4    4  502    0 -0.76584558881E+02  0.46273244968E+02 -0.44884922302E+02  0.10021553826E+03  0.47000000000E+01 0. -1.
         -5    1    4    4    0  502 -0.87138848187E+01  0.35753404957E+02 -0.17525243991E+03  0.17913610873E+03  0.47000000000E+01 0. -1.
<mgrwt>
<rscale>  0 0.10001452E+04</rscale>
<asrwt>0</asrwt>
<pdfrwt beam="1">  1        2 0.14738943E+00 0.10001452E+04</pdfrwt>
<pdfrwt beam="2">  1       -2 0.40158096E-01 0.10001452E+04</pdfrwt>
<totfact> 0.19033752E+02</totfact>
</mgrwt>
</event>
<event>
 9    1  0.4497870E-036  0.1003446E+04  0.7818608E-02  0.8677764E-01
         -1   -1    0    0    0  501 -0.00000000000E+00  0.00000000000E+00  0.82331673337E+03  0.82331673337E+03  0.00000000000E+00 0. -1.
          1   -1    0    0  501    0  0.00000000000E+00 -0.00000000000E+00 -0.30574595726E+03  0.30574595726E+03  0.00000000000E+00 0. -1.
         36    2    1    2    0    0 -0.14210854715E-13  0.00000000000E+00  0.51757077611E+03  0.11290626906E+04  0.10034455895E+04 0.  0.
         25    2    3    3    0    0  0.29164425763E+02 -0.59331140712E+02 -0.45679089480E+02  0.14769343608E+03  0.12391942485E+03 0.  0.
         35    2    3    3    0    0 -0.29164425763E+02  0.59331140712E+02  0.56324986559E+03  0.98136925455E+03  0.80091476120E+03 0.  0.
         22    1    5    5    0    0 -0.15594401724E+03  0.40559168425E+03  0.31931969852E+03  0.53924782865E+03  0.00000000000E+00 0.  1.
         22    1    5    5    0    0  0.12677959148E+03 -0.34626054354E+03  0.24393016707E+03  0.44212142590E+03  0.00000000000E+00 0.  1.
          5    1    4    4  502    0  0.26399290491E+01  0.31368261450E+02 -0.42406086679E+02  0.53021724219E+02  0.47000000000E+01 0. -1.
         -5    1    4    4    0  502  0.26524496714E+02 -0.90699402161E+02 -0.32730028008E+01  0.94671711856E+02  0.47000000000E+01 0. -1.
<mgrwt>
<rscale>  0 0.10034456E+04</rscale>
<asrwt>0</asrwt>
<pdfrwt beam="1">  1        1 0.47037840E-01 0.10034456E+04</pdfrwt>
<pdfrwt beam="2">  1       -1 0.12666411E+00 0.10034456E+04</pdfrwt>
<totfact> 0.55526027E+01</totfact>
</mgrwt>
</event>
<event>
 9    1  0.4497870E-036  0.9999525E+03  0.7818608E-02  0.8681083E-01
         -3   -1    0    0    0  501 -0.00000000000E+00  0.00000000000E+00  0.88910482907E+03  0.88910482907E+03  0.00000000000E+00 0. -1.
          3   -1    0    0  501    0  0.00000000000E+00 -0.00000000000E+00 -0.28115496295E+03  0.28115496295E+03  0.00000000000E+00 0. -1.
         36    2    1    2    0    0  0.28421709430E-13  0.14210854715E-13  0.60794986612E+03  0.11702597920E+04  0.99995246943E+03 0.  0.
         25    2    3    3    0    0 -0.12657813919E+03  0.38746857523E+02  0.44407929262E+02  0.18530142316E+03  0.12182450063E+03 0.  0.
         35    2    3    3    0    0  0.12657813919E+03 -0.38746857523E+02  0.56354193686E+03  0.98495836887E+03  0.79689405162E+03 0.  0.
         22    1    5    5    0    0  0.35807575419E+03 -0.11391364072E+03  0.62920042109E+03  0.73286269736E+03  0.00000000000E+00 0.  1.
         22    1    5    5    0    0 -0.23149761499E+03  0.75166783196E+02 -0.65658484231E+02  0.25209567151E+03  0.00000000000E+00 0.  1.
          5    1    4    4  502    0 -0.14229022497E+03  0.27502910784E+02  0.62985420781E+02  0.15808912504E+03  0.47000000000E+01 0.  1.
         -5    1    4    4    0  502  0.15712085780E+02  0.11243946739E+02 -0.18577491519E+02  0.27212298120E+02  0.47000000000E+01 0.  1.
<mgrwt>
<rscale>  0 0.99995247E+03</rscale>
<asrwt>0</asrwt>
<pdfrwt beam="1">  1        3 0.43254610E-01 0.99995247E+03</pdfrwt>
<pdfrwt beam="2">  1       -3 0.13678536E+00 0.99995247E+03</pdfrwt>
<totfact> 0.72497324E+00</totfact>
</mgrwt>
</event>
<event>
 9    1  0.4497870E-036  0.1000737E+04  0.7818608E-02  0.8680336E-01
         -2   -1    0    0    0  501 -0.00000000000E+00  0.00000000000E+00  0.30049447249E+03  0.30049447249E+03  0.00000000000E+00 0. -1.
          2   -1    0    0  501    0  0.00000000000E+00 -0.00000000000E+00 -0.83318947804E+03  0.83318947804E+03  0.00000000000E+00 0. -1.
         36    2    1    2    0    0  0.00000000000E+00  0.00000000000E+00 -0.53269500554E+03  0.11336839505E+04  0.10007373935E+04 0.  0.
         25    2    3    3    0    0 -0.52330085121E+01 -0.87484493853E+02  0.24604584301E+02  0.15484450952E+03  0.12526178793E+03 0.  0.
         35    2    3    3    0    0  0.52330085121E+01  0.87484493853E+02 -0.55729958985E+03  0.97883944102E+03  0.79991430629E+03 0.  0.
         22    1    5    5    0    0 -0.33624047466E+03 -0.10213417076E+03 -0.45532105197E+03  0.57515763579E+03  0.00000000000E+00 0. -1.
         22    1    5    5    0    0  0.34147348318E+03  0.18961866461E+03 -0.10197853787E+03  0.40368180522E+03  0.00000000000E+00 0. -1.
          5    1    4    4  502    0  0.34409606358E+02  0.83512046345E+00 -0.27952988523E+02  0.44588989708E+02  0.47000000000E+01 0. -1.
         -5    1    4    4    0  502 -0.39642614870E+02 -0.88319614317E+02  0.52557572823E+02  0.11025551981E+03  0.47000000000E+01 0. -1.
<mgrwt>
<rscale>  0 0.10007374E+04</rscale>
<asrwt>0</asrwt>
<pdfrwt beam="1">  1        2 0.12818300E+00 0.10007374E+04</pdfrwt>
<pdfrwt beam="2">  1       -2 0.46229919E-01 0.10007374E+04</pdfrwt>
<totfact> 0.17510897E+02</totfact>
</mgrwt>
</event>
<event>
 9    1  0.4497870E-036  0.9971188E+03  0.7818608E-02  0.8683787E-01
         -2   -1    0    0    0  501 -0.00000000000E+00  0.00000000000E+00  0.99132313734E+03  0.99132313734E+03  0.00000000000E+00 0. -1.
          2   -1    0    0  501    0  0.00000000000E+00 -0.00000000000E+00 -0.25073711162E+03  0.25073711162E+03  0.00000000000E+00 0. -1.
         36    2    1    2    0    0  0.00000000000E+00  0.00000000000E+00  0.74058602572E+03  0.12420602490E+04  0.99711884975E+03 0.  0.
         25    2    3    3    0    0 -0.93423214871E+02  0.73738354743E+02  0.18176897573E+03  0.25203569523E+03  0.12773718760E+03 0.  0.
         35    2    3    3    0    0  0.93423214871E+02 -0.73738354743E+02  0.55881704999E+03  0.99002455372E+03  0.80852141566E+03 0.  0.
         22    1    5    5    0    0 -0.35597258223E+01  0.13648719104E+03 -0.17419122463E+03  0.22132331036E+03  0.00000000000E+00 0.  1.
         22    1    5    5    0    0  0.96982940693E+02 -0.21022554579E+03  0.73300827462E+03  0.76870124337E+03  0.00000000000E+00 0.  1.
          5    1    4    4  502    0 -0.36161738366E+02  0.32295747835E+02  0.17409381440E+03  0.18078006766E+03  0.47000000000E+01 0. -1.
         -5    1    4    4    0  502 -0.57261476504E+02  0.41442606908E+02  0.76751613263E+01  0.71255627569E+02  0.47000000000E+01 0. -1.
<mgrwt>
<rscale>  0 0.99711885E+03</rscale>
<asrwt>0</asrwt>
<pdfrwt beam="1">  1        2 0.38574941E-01 0.99711885E+03</pdfrwt>
<pdfrwt beam="2">  1       -2 0.15251125E+00 0.99711885E+03</pdfrwt>
<totfact> 0.43458663E+01</totfact>
</mgrwt>
</event>
<event>
 9    1  0.4497870E-036  0.9995071E+03  0.7818608E-02  0.8681507E-01
         -1   -1    0    0    0  501 -0.00000000000E+00  0.00000000000E+00  0.59017780230E+03  0.59017780230E+03  0.00000000000E+00 0.  1.
          1   -1    0    0  501    0  0.00000000000E+00 -0.00000000000E+00 -0.42318371237E+03  0.42318371237E+03  0.00000000000E+00 0.  1.
         36    2    1    2    0    0 -0.28421709430E-13 -0.71054273576E-14  0.16699408993E+03  0.10133615147E+04  0.99950714522E+03 0.  0.
         25    2    3    3    0    0  0.11416905677E+03  0.47533783783E+02  0.97881003398E+02  0.20102491196E+03  0.12464465604E+03 0.  0.
         35    2    3    3    0    0 -0.11416905677E+03 -0.47533783783E+02  0.69113086531E+02  0.81233660271E+03  0.79988755662E+03 0.  0.
         22    1    5    5    0    0 -0.20902953346E+03 -0.21999998096E+03 -0.27912822100E+03  0.41231771880E+03  0.00000000000E+00 0. -1.
         22    1    5    5    0    0  0.94860476696E+02  0.17246619717E+03  0.34824130753E+03  0.40001888390E+03  0.00000000000E+00 0. -1.
          5    1    4    4  502    0 -0.15416506216E+02  0.42875188948E+02  0.27089131873E+02  0.53215238014E+02  0.47000000000E+01 0. -1.
         -5    1    4    4    0  502  0.12958556298E+03  0.46585948350E+01  0.70791871525E+02  0.14780967395E+03  0.47000000000E+01 0. -1.
<mgrwt>
<rscale>  0 0.99950715E+03</rscale>
<asrwt>0</asrwt>
<pdfrwt beam="1">  1        1 0.65105186E-01 0.99950715E+03</pdfrwt>
<pdfrwt beam="2">  1       -1 0.90796585E-01 0.99950715E+03</pdfrwt>
<totfact> 0.78489700E+01</totfact>
</mgrwt>
</event>
<event>
 9    1  0.4497870E-036  0.9998508E+03  0.7818608E-02  0.8681180E-01
         -1   -1    0    0    0  501 -0.00000000000E+00  0.00000000000E+00  0.82166414643E+03  0.82166414643E+03  0.00000000000E+00 0. -1.
          1   -1    0    0  501    0  0.00000000000E+00 -0.00000000000E+00 -0.30416976192E+03  0.30416976192E+03  0.00000000000E+00 0. -1.
         36    2    1    2    0    0  0.31974423109E-13 -0.14210854715E-13  0.51749438452E+03  0.11258339083E+04  0.99985076446E+03 0.  0.
         25    2    3    3    0    0 -0.28160734363E+01  0.13909656978E+02  0.25401230030E+03  0.28327805853E+03  0.12459053302E+03 0.  0.
         35    2    3    3    0    0  0.28160734363E+01 -0.13909656978E+02  0.26348208422E+03  0.84255584982E+03  0.80017257047E+03 0.  0.
         22    1    5    5    0    0  0.27249946742E+03 -0.15980948266E+03  0.39765655988E+03  0.50786392873E+03  0.00000000000E+00 0. -1.
         22    1    5    5    0    0 -0.26968339398E+03  0.14589982568E+03 -0.13417447566E+03  0.33469192109E+03  0.00000000000E+00 0. -1.
          5    1    4    4  502    0  0.26316160422E+02 -0.40169447819E+02  0.18305981406E+03  0.18931220342E+03  0.47000000000E+01 0.  1.
         -5    1    4    4    0  502 -0.29132233858E+02  0.54079104797E+02  0.70952486232E+02  0.93965855116E+02  0.47000000000E+01 0.  1.
<mgrwt>
<rscale>  0 0.99985076E+03</rscale>
<asrwt>0</asrwt>
<pdfrwt beam="1">  1        1 0.46795348E-01 0.99985076E+03</pdfrwt>
<pdfrwt beam="2">  1       -1 0.12640987E+00 0.99985076E+03</pdfrwt>
<totfact> 0.56213289E+01</totfact>
</mgrwt>
</event>
<event>
 9    1  0.4497870E-036  0.9994501E+03  0.7818608E-02  0.8681562E-01
         -2   -1    0    0    0  501 -0.00000000000E+00  0.00000000000E+00  0.42094330662E+03  0.42094330662E+03  0.00000000000E+00 0. -1.
          2   -1    0    0  501    0  0.00000000000E+00 -0.00000000000E+00 -0.59325122807E+03  0.59325122807E+03  0.00000000000E+00 0. -1.
         36    2    1    2    0    0  0.00000000000E+00  0.00000000000E+00 -0.17230792145E+03  0.10141945347E+04  0.99945011601E+03 0.  0.
         25    2    3    3    0    0  0.21838074683E+02  0.13353123026E+03 -0.31453884602E+01  0.18464554052E+03  0.12560490120E+03 0.  0.
         35    2    3    3    0    0 -0.21838074683E+02 -0.13353123026E+03 -0.16916253299E+03  0.82954899416E+03  0.80076718226E+03 0.  0.
         22    1    5    5    0    0  0.48829800808E+02 -0.29025926143E+03 -0.42762334830E+03  0.51913053879E+03  0.00000000000E+00 0.  1.
         22    1    5    5    0    0 -0.70667875490E+02  0.15672803117E+03  0.25846081532E+03  0.31041845537E+03  0.00000000000E+00 0.  1.
          5    1    4    4  502    0 -0.37131640590E+02  0.90951626720E+02  0.32402559341E+02  0.10355178892E+03  0.47000000000E+01 0.  1.
         -5    1    4    4    0  502  0.58969715272E+02  0.42579603541E+02 -0.35547947801E+02  0.81093751608E+02  0.47000000000E+01 0.  1.
<mgrwt>
<rscale>  0 0.99945012E+03</rscale>
<asrwt>0</asrwt>
<pdfrwt beam="1">  1        2 0.91269420E-01 0.99945012E+03</pdfrwt>
<pdfrwt beam="2">  1       -2 0.64760509E-01 0.99945012E+03</pdfrwt>
<totfact> 0.13386846E+02</totfact>
</mgrwt>
</event>
<event>
 9    1  0.4497870E-036  0.9998952E+03  0.7818608E-02  0.8681138E-01
         -2   -1    0    0    0  501 -0.00000000000E+00  0.00000000000E+00  0.35141470849E+03  0.35141470849E+03  0.00000000000E+00 0. -1.
          2   -1    0    0  501    0  0.00000000000E+00 -0.00000000000E+00 -0.71126107111E+03  0.71126107111E+03  0.00000000000E+00 0. -1.
         36    2    1    2    0    0 -0.14210854715E-13  0.00000000000E+00 -0.35984636262E+03  0.10626757796E+04  0.99989519843E+03 0.  0.
         25    2    3    3    0    0 -0.10324668832E+03 -0.74646101471E+02 -0.62541946969E+01  0.17816364256E+03  0.12438347746E+03 0.  0.
         35    2    3    3    0    0  0.10324668832E+03  0.74646101471E+02 -0.35359216792E+03  0.88451213704E+03  0.80068869121E+03 0.  0.
         22    1    5    5    0    0  0.24199031610E+03 -0.17958841778E+03 -0.48139658491E+03  0.56793836360E+03  0.00000000000E+00 0. -1.
         22    1    5    5    0    0 -0.13874362777E+03  0.25423451925E+03  0.12780441699E+03  0.31657377344E+03  0.00000000000E+00 0. -1.
          5    1    4    4  502    0 -0.71538416000E+02  0.14320609930E+02 -0.32524560920E+02  0.80017259986E+02  0.47000000000E+01 0.  1.
         -5    1    4    4    0  502 -0.31708272321E+02 -0.88966711401E+02  0.26270366223E+02  0.98146382575E+02  0.47000000000E+01 0.  1.
<mgrwt>
<rscale>  0 0.99989520E+03</rscale>
<asrwt>0</asrwt>
<pdfrwt beam="1">  1        2 0.10942478E+00 0.99989520E+03</pdfrwt>
<pdfrwt beam="2">  1       -2 0.54063801E-01 0.99989520E+03</pdfrwt>
<totfact> 0.15656100E+02</totfact>
</mgrwt>
</event>
<event>
 9    1  0.4497870E-036  0.9987047E+03  0.7818608E-02  0.8682272E-01
         -2   -1    0    0    0  501 -0.00000000000E+00  0.00000000000E+00  0.13608275754E+03  0.13608275754E+03  0.00000000000E+00 0. -1.
          2   -1    0    0  501    0  0.00000000000E+00 -0.00000000000E+00 -0.18323612231E+04  0.18323612231E+04  0.00000000000E+00 0. -1.
         36    2    1    2    0    0  0.00000000000E+00 -0.14210854715E-13 -0.16962784656E+04  0.19684439807E+04  0.99870469719E+03 0.  0.
         25    2    3    3    0    0 -0.21725862333E+02 -0.12690477941E+03 -0.41938046152E+03  0.45617635166E+03  0.12506021022E+03 0.  0.
         35    2    3    3    0    0  0.21725862333E+02  0.12690477941E+03 -0.12768980041E+04  0.15122676290E+04  0.79994251844E+03 0.  0.
         22    1    5    5    0    0 -0.31155862855E+03  0.13429926036E+03 -0.22077466390E+03  0.40477959753E+03  0.00000000000E+00 0.  1.
         22    1    5    5    0    0  0.33328449088E+03 -0.73944809519E+01 -0.10561233402E+04  0.11074880315E+04  0.00000000000E+00 0.  1.
          5    1    4    4  502    0 -0.20546591351E+01 -0.43118823224E+02 -0.32684594802E+03  0.32971778581E+03  0.47000000000E+01 0. -1.
         -5    1    4    4    0  502 -0.19671203198E+02 -0.83785956185E+02 -0.92534513496E+02  0.12645856585E+03  0.47000000000E+01 0. -1.
<mgrwt>
<rscale>  0 0.99870470E+03</rscale>
<asrwt>0</asrwt>
<pdfrwt beam="1">  1        2 0.28190169E+00 0.99870470E+03</pdfrwt>
<pdfrwt beam="2">  1       -2 0.20935811E-01 0.99870470E+03</pdfrwt>
<totfact> 0.19273243E+02</totfact>
</mgrwt>
</event>
<event>
 9    1  0.4497870E-036  0.9994257E+03  0.7818608E-02  0.8681585E-01
          2   -1    0    0  501    0  0.00000000000E+00  0.00000000000E+00  0.13360127458E+04  0.13360127458E+04  0.00000000000E+00 0. -1.
         -2   -1    0    0    0  501 -0.00000000000E+00 -0.00000000000E+00 -0.18690910158E+03  0.18690910158E+03  0.00000000000E+00 0. -1.
         36    2    1    2    0    0  0.28421709430E-13  0.00000000000E+00  0.11491036443E+04  0.15229218474E+04  0.99942571915E+03 0.  0.
         25    2    3    3    0    0  0.69276653497E+02 -0.50821912567E+02  0.44371878164E+02  0.15839931285E+03  0.12545659498E+03 0.  0.
         35    2    3    3    0    0 -0.69276653497E+02  0.50821912567E+02  0.11047317661E+04  0.13645225346E+04  0.79630857763E+03 0.  0.
         22    1    5    5    0    0 -0.28055969191E+03  0.30391715320E+03  0.85877834738E+03  0.95319443277E+03  0.00000000000E+00 0. -1.
         22    1    5    5    0    0  0.21128303841E+03 -0.25309524063E+03  0.24595341872E+03  0.41132810180E+03  0.00000000000E+00 0. -1.
          5    1    4    4  502    0  0.69392949128E+02  0.21722346510E+02 -0.69203076313E+00  0.72868447446E+02  0.47000000000E+01 0.  1.
         -5    1    4    4    0  502 -0.11629563183E+00 -0.72544259077E+02  0.45063908927E+02  0.85530865408E+02  0.47000000000E+01 0.  1.
<mgrwt>
<rscale>  0 0.99942572E+03</rscale>
<asrwt>0</asrwt>
<pdfrwt beam="1">  1        2 0.20554042E+00 0.99942572E+03</pdfrwt>
<pdfrwt beam="2">  1       -2 0.28755247E-01 0.99942572E+03</pdfrwt>
<totfact> 0.20979071E+02</totfact>
</mgrwt>
</event>
<event>
 9    1  0.4497870E-036  0.1000104E+04  0.7818608E-02  0.8680939E-01
         -2   -1    0    0    0  501 -0.00000000000E+00  0.00000000000E+00  0.27112699392E+03  0.27112699392E+03  0.00000000000E+00 0. -1.
          2   -1    0    0  501    0  0.00000000000E+00 -0.00000000000E+00 -0.92226915666E+03  0.92226915666E+03  0.00000000000E+00 0. -1.
         36    2    1    2    0    0 -0.14210854715E-13  0.00000000000E+00 -0.65114216273E+03  0.11933961506E+04  0.10001041226E+04 0.  0.
         25    2    3    3    0    0 -0.11558579946E+03 -0.77788023674E+02 -0.14032497713E+03  0.23384852991E+03  0.12483181514E+03 0.  0.
         35    2    3    3    0    0  0.11558579946E+03  0.77788023674E+02 -0.51081718561E+03  0.95954762067E+03  0.80024145454E+03 0.  0.
         22    1    5    5    0    0 -0.82406614072E+02  0.37057681322E+03 -0.46936910914E+03  0.60367655674E+03  0.00000000000E+00 0. -1.
         22    1    5    5    0    0  0.19799241353E+03 -0.29278878955E+03 -0.41448076463E+02  0.35587106393E+03  0.00000000000E+00 0. -1.
          5    1    4    4  502    0 -0.17484113267E+02  0.22702157604E+02  0.74032989165E+01  0.29966331298E+02  0.47000000000E+01 0. -1.
         -5    1    4    4    0  502 -0.98101686193E+02 -0.10049018128E+03 -0.14772827604E+03  0.20388219861E+03  0.47000000000E+01 0. -1.
<mgrwt>
<rscale>  0 0.10001041E+04</rscale>
<asrwt>0</asrwt>
<pdfrwt beam="1">  1        2 0.14188756E+00 0.10001041E+04</pdfrwt>
<pdfrwt beam="2">  1       -2 0.41711845E-01 0.10001041E+04</pdfrwt>
<totfact> 0.18659899E+02</totfact>
</mgrwt>
</event>
<event>
 9    1  0.4497870E-036  0.1004796E+04  0.7818608E-02  0.8676484E-01
         -2   -1    0    0    0  501 -0.00000000000E+00  0.00000000000E+00  0.36009718986E+03  0.36009718986E+03  0.00000000000E+00 0.  1.
          2   -1    0    0  501    0  0.00000000000E+00 -0.00000000000E+00 -0.70093263983E+03  0.70093263983E+03  0.00000000000E+00 0.  1.
         36    2    1    2    0    0  0.42632564146E-13  0.00000000000E+00 -0.34083544997E+03  0.10610298297E+04  0.10047962458E+04 0.  0.
         25    2    3    3    0    0  0.71469553694E+02  0.33272882431E+02 -0.18898667528E+03  0.24042187714E+03  0.12598306937E+03 0.  0.
         35    2    3    3    0    0 -0.71469553694E+02 -0.33272882431E+02 -0.15184877469E+03  0.82060795255E+03  0.80257359762E+03 0.  0.
         22    1    5    5    0    0 -0.42887203973E+03  0.68888903224E+02 -0.93864232499E+02  0.44439554632E+03  0.00000000000E+00 0.  1.
         22    1    5    5    0    0  0.35740248603E+03 -0.10216178565E+03 -0.57984542195E+02  0.37621240623E+03  0.00000000000E+00 0.  1.
          5    1    4    4  502    0  0.44055196683E+01 -0.76345815965E+01 -0.15395821744E+03  0.15428194371E+03  0.47000000000E+01 0. -1.
         -5    1    4    4    0  502  0.67064034025E+02  0.40907464027E+02 -0.35028457837E+02  0.86139933430E+02  0.47000000000E+01 0. -1.
<mgrwt>
<rscale>  0 0.10047962E+04</rscale>
<asrwt>0</asrwt>
<pdfrwt beam="1">  1        2 0.10783579E+00 0.10047962E+04</pdfrwt>
<pdfrwt beam="2">  1       -2 0.55399568E-01 0.10047962E+04</pdfrwt>
<totfact> 0.15163339E+02</totfact>
</mgrwt>
</event>
<event>
 9    1  0.4497870E-036  0.1002693E+04  0.7818608E-02  0.8678478E-01
         -2   -1    0    0    0  501 -0.00000000000E+00  0.00000000000E+00  0.92745802879E+02  0.92745802879E+02  0.00000000000E+00 0.  1.
          2   -1    0    0  501    0  0.00000000000E+00 -0.00000000000E+00 -0.27100782863E+04  0.27100782863E+04  0.00000000000E+00 0.  1.
         36    2    1    2    0    0  0.35527136788E-13 -0.14210854715E-13 -0.26173324834E+04  0.28028240891E+04  0.10026931465E+04 0.  0.
         25    2    3    3    0    0  0.25613167555E+02 -0.65191939183E+02 -0.14147109287E+03  0.20114794730E+03  0.12466115392E+03 0.  0.
         35    2    3    3    0    0 -0.25613167555E+02  0.65191939183E+02 -0.24758613905E+04  0.26016761418E+04  0.79619287784E+03 0.  0.
         22    1    5    5    0    0 -0.30535171474E+03 -0.10926220662E+03 -0.19789407158E+04  0.20053389379E+04  0.00000000000E+00 0.  1.
         22    1    5    5    0    0  0.27973854719E+03  0.17445414580E+03 -0.49692067475E+03  0.59633720391E+03  0.00000000000E+00 0.  1.
          5    1    4    4  502    0 -0.46487742008E+02 -0.17701908488E+02 -0.24389007201E+02  0.55600192386E+02  0.47000000000E+01 0.  1.
         -5    1    4    4    0  502  0.72100909563E+02 -0.47490030696E+02 -0.11708208567E+03  0.14554775491E+03  0.47000000000E+01 0.  1.
<mgrwt>
<rscale>  0 0.10026931E+04</rscale>
<asrwt>0</asrwt>
<pdfrwt beam="1">  1        2 0.41693511E+00 0.10026931E+04</pdfrwt>
<pdfrwt beam="2">  1       -2 0.14268585E-01 0.10026931E+04</pdfrwt>
<totfact> 0.11218072E+02</totfact>
</mgrwt>
</event>
<event>
 9    1  0.4497870E-036  0.9999126E+03  0.7818608E-02  0.8681121E-01
          2   -1    0    0  501    0  0.00000000000E+00  0.00000000000E+00  0.91258560940E+03  0.91258560940E+03  0.00000000000E+00 0.  1.
         -2   -1    0    0    0  501 -0.00000000000E+00 -0.00000000000E+00 -0.27389902578E+03  0.27389902578E+03  0.00000000000E+00 0.  1.
         36    2    1    2    0    0 -0.71054273576E-14  0.00000000000E+00  0.63868658362E+03  0.11864846352E+04  0.99991261490E+03 0.  0.
         25    2    3    3    0    0  0.42908193326E+02 -0.13113530971E+03  0.15241040921E+03  0.23999762564E+03  0.12382384653E+03 0.  0.
         35    2    3    3    0    0 -0.42908193326E+02  0.13113530971E+03  0.48627617441E+03  0.94648700954E+03  0.80020969685E+03 0.  0.
         22    1    5    5    0    0 -0.25082066790E+03 -0.96638022766E+02  0.56718550208E+03  0.62765381275E+03  0.00000000000E+00 0.  1.
         22    1    5    5    0    0  0.20791247457E+03  0.22777333248E+03 -0.80909327676E+02  0.31883319679E+03  0.00000000000E+00 0.  1.
          5    1    4    4  502    0  0.28974815560E+02 -0.39551654931E+02  0.13749323447E+03  0.14604914539E+03  0.47000000000E+01 0. -1.
         -5    1    4    4    0  502  0.13933377766E+02 -0.91583654780E+02  0.14917174742E+02  0.93948480249E+02  0.47000000000E+01 0. -1.
<mgrwt>
<rscale>  0 0.99991261E+03</rscale>
<asrwt>0</asrwt>
<pdfrwt beam="1">  1        2 0.14039778E+00 0.99991261E+03</pdfrwt>
<pdfrwt beam="2">  1       -2 0.42138312E-01 0.99991261E+03</pdfrwt>
<totfact> 0.18565168E+02</totfact>
</mgrwt>
</event>
<event>
 9    1  0.4497870E-036  0.1001428E+04  0.7818608E-02  0.8679679E-01
          2   -1    0    0  501    0  0.00000000000E+00  0.00000000000E+00  0.96835550601E+03  0.96835550601E+03  0.00000000000E+00 0. -1.
         -2   -1    0    0    0  501 -0.00000000000E+00 -0.00000000000E+00 -0.25890740047E+03  0.25890740047E+03  0.00000000000E+00 0. -1.
         36    2    1    2    0    0  0.14210854715E-13  0.00000000000E+00  0.70944810554E+03  0.12272629065E+04  0.10014277943E+04 0.  0.
         25    2    3    3    0    0 -0.64105862760E+02 -0.28082577402E+02 -0.18145275300E+02  0.14450762972E+03  0.12511998737E+03 0.  0.
         35    2    3    3    0    0  0.64105862760E+02  0.28082577402E+02  0.72759338084E+03  0.10827552767E+04  0.79879200590E+03 0.  0.
         22    1    5    5    0    0 -0.10376727686E+03 -0.22578993485E+03 -0.44855002124E+02  0.25250883874E+03  0.00000000000E+00 0. -1.
         22    1    5    5    0    0  0.16787313962E+03  0.25387251225E+03  0.77244838296E+03  0.83024643801E+03  0.00000000000E+00 0. -1.
          5    1    4    4  502    0  0.20788441990E+02  0.28864421960E+02  0.11987904327E+02  0.37830067745E+02  0.47000000000E+01 0.  1.
         -5    1    4    4    0  502 -0.84894304750E+02 -0.56946999362E+02 -0.30133179627E+02  0.10667756198E+03  0.47000000000E+01 0.  1.
<mgrwt>
<rscale>  0 0.10014278E+04</rscale>
<asrwt>0</asrwt>
<pdfrwt beam="1">  1        2 0.14897777E+00 0.10014278E+04</pdfrwt>
<pdfrwt beam="2">  1       -2 0.39831908E-01 0.10014278E+04</pdfrwt>
<totfact> 0.19041818E+02</totfact>
</mgrwt>
</event>
<event>
 9    1  0.4497870E-036  0.1000740E+04  0.7818608E-02  0.8680333E-01
          1   -1    0    0  501    0  0.00000000000E+00  0.00000000000E+00  0.37006766131E+03  0.37006766131E+03  0.00000000000E+00 0. -1.
         -1   -1    0    0    0  501 -0.00000000000E+00 -0.00000000000E+00 -0.67655254074E+03  0.67655254074E+03  0.00000000000E+00 0. -1.
         36    2    1    2    0    0  0.14210854715E-13 -0.14210854715E-13 -0.30648487944E+03  0.10466202021E+04  0.10007401591E+04 0.  0.
         25    2    3    3    0    0  0.11283164127E+03 -0.48010828675E+02  0.67427592244E+01  0.17559882549E+03  0.12551280321E+03 0.  0.
         35    2    3    3    0    0 -0.11283164127E+03  0.48010828675E+02 -0.31322763866E+03  0.87102137656E+03  0.80344923042E+03 0.  0.
         22    1    5    5    0    0  0.30147381477E+03  0.11414506314E+03  0.37036234862E+02  0.32447995181E+03  0.00000000000E+00 0.  1.
         22    1    5    5    0    0 -0.41430545604E+03 -0.66134234462E+02 -0.35026387352E+03  0.54654142475E+03  0.00000000000E+00 0.  1.
          5    1    4    4  502    0  0.49667624692E+02 -0.32659113677E+02  0.64983130971E+02  0.88195169706E+02  0.47000000000E+01 0. -1.
         -5    1    4    4    0  502  0.63164016578E+02 -0.15351714998E+02 -0.58240371746E+02  0.87403655786E+02  0.47000000000E+01 0. -1.
<mgrwt>
<rscale>  0 0.10007402E+04</rscale>
<asrwt>0</asrwt>
<pdfrwt beam="1">  1        1 0.56933487E-01 0.10007402E+04</pdfrwt>
<pdfrwt beam="2">  1       -1 0.10408501E+00 0.10007402E+04</pdfrwt>
<totfact> 0.69388243E+01</totfact>
</mgrwt>
</event>
<event>
 9    1  0.4497870E-036  0.9993842E+03  0.7818608E-02  0.8681625E-01
         -2   -1    0    0    0  501 -0.00000000000E+00  0.00000000000E+00  0.28123841600E+03  0.28123841600E+03  0.00000000000E+00 0.  1.
          2   -1    0    0  501    0  0.00000000000E+00 -0.00000000000E+00 -0.88783111614E+03  0.88783111614E+03  0.00000000000E+00 0.  1.
         36    2    1    2    0    0  0.71054273576E-14  0.00000000000E+00 -0.60659270014E+03  0.11690695321E+04  0.99938424399E+03 0.  0.
         25    2    3    3    0    0 -0.49841055951E+02  0.13208310351E+03 -0.11122701233E+03  0.21948942345E+03  0.12599238725E+03 0.  0.
         35    2    3    3    0    0  0.49841055951E+02 -0.13208310351E+03 -0.49536568781E+03  0.94958010870E+03  0.79773751390E+03 0.  0.
         22    1    5    5    0    0 -0.21799681595E+02 -0.36242911789E+03 -0.58808964156E+03  0.69114363060E+03  0.00000000000E+00 0.  1.
         22    1    5    5    0    0  0.71640737545E+02  0.23034601437E+03  0.92723953745E+02  0.25843647810E+03  0.00000000000E+00 0.  1.
          5    1    4    4  502    0 -0.70176992861E+02  0.64872361938E+02 -0.10003860871E+02  0.96204994168E+02  0.47000000000E+01 0.  1.
         -5    1    4    4    0  502  0.20335936911E+02  0.67210741576E+02 -0.10122315145E+03  0.12328442928E+03  0.47000000000E+01 0.  1.
<mgrwt>
<rscale>  0 0.99938424E+03</rscale>
<asrwt>0</asrwt>
<pdfrwt beam="1">  1        2 0.13658940E+00 0.99938424E+03</pdfrwt>
<pdfrwt beam="2">  1       -2 0.43267449E-01 0.99938424E+03</pdfrwt>
<totfact> 0.18312598E+02</totfact>
</mgrwt>
</event>
<event>
 9    1  0.4497870E-036  0.1000054E+04  0.7818608E-02  0.8680987E-01
          1   -1    0    0  501    0  0.00000000000E+00  0.00000000000E+00  0.57225079909E+03  0.57225079909E+03  0.00000000000E+00 0.  1.
         -1   -1    0    0    0  501 -0.00000000000E+00 -0.00000000000E+00 -0.43691833300E+03  0.43691833300E+03  0.00000000000E+00 0.  1.
         36    2    1    2    0    0 -0.71054273576E-14 -0.14210854715E-13  0.13533246609E+03  0.10091691321E+04  0.10000537289E+04 0.  0.
         25    2    3    3    0    0  0.53251321559E+01  0.66989363169E+02 -0.98488522942E+02  0.17268198563E+03  0.12491255821E+03 0.  0.
         35    2    3    3    0    0 -0.53251321559E+01 -0.66989363169E+02  0.23382098903E+03  0.83648714646E+03  0.80032653303E+03 0.  0.
         22    1    5    5    0    0 -0.24643462950E+03  0.16485087486E+02  0.44257024411E+03  0.50682364359E+03  0.00000000000E+00 0. -1.
         22    1    5    5    0    0  0.24110949735E+03 -0.83474450655E+02 -0.20874925509E+03  0.32966350287E+03  0.00000000000E+00 0. -1.
          5    1    4    4  502    0  0.37973849940E+02  0.86267015988E+02 -0.95653523965E+02  0.13437149241E+03  0.47000000000E+01 0. -1.
         -5    1    4    4    0  502 -0.32648717784E+02 -0.19277652819E+02 -0.28349989767E+01  0.38310493215E+02  0.47000000000E+01 0. -1.
<mgrwt>
<rscale>  0 0.10000537E+04</rscale>
<asrwt>0</asrwt>
<pdfrwt beam="1">  1        1 0.88038585E-01 0.10000537E+04</pdfrwt>
<pdfrwt beam="2">  1       -1 0.67218205E-01 0.10000537E+04</pdfrwt>
<totfact> 0.96029691E+01</totfact>
</mgrwt>
</event>
<event>
 9    1  0.4497870E-036  0.1000542E+04  0.7818608E-02  0.8680522E-01
         -2   -1    0    0    0  501 -0.00000000000E+00  0.00000000000E+00  0.19838280827E+03  0.19838280827E+03  0.00000000000E+00 0. -1.
          2   -1    0    0  501    0  0.00000000000E+00 -0.00000000000E+00 -0.12615556803E+04  0.12615556803E+04  0.00000000000E+00 0. -1.
         36    2    1    2    0    0 -0.14210854715E-13 -0.71054273576E-14 -0.10631728720E+04  0.14599384886E+04  0.10005417705E+04 0.  0.
         25    2    3    3    0    0  0.10538097002E+03  0.16767048598E+02 -0.30281156925E+03  0.34434632897E+03  0.12447194479E+03 0.  0.
         35    2    3    3    0    0 -0.10538097002E+03 -0.16767048598E+02 -0.76036130280E+03  0.11155921596E+04  0.80932704950E+03 0.  0.
         22    1    5    5    0    0  0.78476236126E+02  0.23245824196E+03 -0.76754525156E+03  0.80580460850E+03  0.00000000000E+00 0.  1.
         22    1    5    5    0    0 -0.18385720614E+03 -0.24922529056E+03  0.71839487618E+01  0.30978755111E+03  0.00000000000E+00 0.  1.
          5    1    4    4  502    0  0.10525253608E+03  0.43487354015E+02 -0.29478506574E+03  0.31605311467E+03  0.47000000000E+01 0.  1.
         -5    1    4    4    0  502  0.12843394153E+00 -0.26720305416E+02 -0.80265035150E+01  0.28293214301E+02  0.47000000000E+01 0.  1.
<mgrwt>
<rscale>  0 0.10005418E+04</rscale>
<asrwt>0</asrwt>
<pdfrwt beam="1">  1        2 0.19408549E+00 0.10005418E+04</pdfrwt>
<pdfrwt beam="2">  1       -2 0.30520432E-01 0.10005418E+04</pdfrwt>
<totfact> 0.20793035E+02</totfact>
</mgrwt>
</event>
<event>
 9    1  0.4497870E-036  0.9998498E+03  0.7818608E-02  0.8681181E-01
          2   -1    0    0  501    0  0.00000000000E+00  0.00000000000E+00  0.15845915962E+04  0.15845915962E+04  0.00000000000E+00 0. -1.
         -2   -1    0    0    0  501 -0.00000000000E+00 -0.00000000000E+00 -0.15772196135E+03  0.15772196135E+03  0.00000000000E+00 0. -1.
         36    2    1    2    0    0  0.00000000000E+00  0.00000000000E+00  0.14268696349E+04  0.17423135576E+04  0.99984977771E+03 0.  0.
         25    2    3    3    0    0 -0.61018673677E+02  0.13225415195E+03  0.24008799678E+03  0.30333108739E+03  0.11468680452E+03 0.  0.
         35    2    3    3    0    0  0.61018673677E+02 -0.13225415195E+03  0.11867816381E+04  0.14389824702E+04  0.80062816198E+03 0.  0.
         22    1    5    5    0    0  0.44015857009E+02 -0.17936561121E+03 -0.57701933508E+02  0.19349142432E+03  0.00000000000E+00 0. -1.
         22    1    5    5    0    0  0.17002816668E+02  0.47111459258E+02  0.12444835716E+04  0.12454910459E+04  0.00000000000E+00 0. -1.
          5    1    4    4  502    0 -0.20406697013E+02  0.14129590020E+03  0.17434627404E+03  0.22538783900E+03  0.47000000000E+01 0.  1.
         -5    1    4    4    0  502 -0.40611976663E+02 -0.90417482522E+01  0.65741722743E+02  0.77943248387E+02  0.47000000000E+01 0.  1.
<mgrwt>
<rscale>  0 0.99984978E+03</rscale>
<asrwt>0</asrwt>
<pdfrwt beam="1">  1        2 0.24378331E+00 0.99984978E+03</pdfrwt>
<pdfrwt beam="2">  1       -2 0.24264918E-01 0.99984978E+03</pdfrwt>
<totfact> 0.20524849E+02</totfact>
</mgrwt>
</event>
<event>
 9    1  0.4497870E-036  0.9990330E+03  0.7818608E-02  0.8681959E-01
         -2   -1    0    0    0  501 -0.00000000000E+00  0.00000000000E+00  0.81918284754E+03  0.81918284754E+03  0.00000000000E+00 0.  1.
          2   -1    0    0  501    0  0.00000000000E+00 -0.00000000000E+00 -0.30459225047E+03  0.30459225047E+03  0.00000000000E+00 0.  1.
         36    2    1    2    0    0  0.00000000000E+00  0.00000000000E+00  0.51459059707E+03  0.11237750980E+04  0.99903302663E+03 0.  0.
         25    2    3    3    0    0  0.38448043478E+02  0.88102199106E+02  0.20527979614E+03  0.25985639246E+03  0.12706415884E+03 0.  0.
         35    2    3    3    0    0 -0.38448043478E+02 -0.88102199106E+02  0.30931080093E+03  0.86391870555E+03  0.80090081077E+03 0.  0.
         22    1    5    5    0    0  0.39356891963E+02  0.12745193431E+03 -0.23673779511E+03  0.27173101431E+03  0.00000000000E+00 0. -1.
         22    1    5    5    0    0 -0.77804935441E+02 -0.21555413342E+03  0.54604859604E+03  0.59218769124E+03  0.00000000000E+00 0. -1.
          5    1    4    4  502    0  0.50740434637E+02 -0.16228406220E+02  0.80933316343E+02  0.97006415097E+02  0.47000000000E+01 0. -1.
         -5    1    4    4    0  502 -0.12292391159E+02  0.10433060533E+03  0.12434647980E+03  0.16284997736E+03  0.47000000000E+01 0. -1.
<mgrwt>
<rscale>  0 0.99903303E+03</rscale>
<asrwt>0</asrwt>
<pdfrwt beam="1">  1        2 0.46860347E-01 0.99903303E+03</pdfrwt>
<pdfrwt beam="2">  1       -2 0.12602813E+00 0.99903303E+03</pdfrwt>
<totfact> 0.58779167E+01</totfact>
</mgrwt>
</event>
<event>
 9    1  0.4497870E-036  0.9900273E+03  0.7818608E-02  0.8690593E-01
         -2   -1    0    0    0  501 -0.00000000000E+00  0.00000000000E+00  0.56399289322E+03  0.56399289322E+03  0.00000000000E+00 0. -1.
          2   -1    0    0  501    0  0.00000000000E+00 -0.00000000000E+00 -0.43447091254E+03  0.43447091254E+03  0.00000000000E+00 0. -1.
         36    2    1    2    0    0 -0.35527136788E-14  0.28421709430E-13  0.12952198068E+03  0.99846380576E+03  0.99002728646E+03 0.  0.
         25    2    3    3    0    0  0.26114768296E+02 -0.10597959062E+03 -0.54215191202E+02  0.17031031097E+03  0.11896495414E+03 0.  0.
         35    2    3    3    0    0 -0.26114768296E+02  0.10597959062E+03  0.18373717189E+03  0.82815349479E+03  0.80010324824E+03 0.  0.
         22    1    5    5    0    0 -0.88258402396E+02  0.42897493730E+03  0.23216056424E+03  0.49568898517E+03  0.00000000000E+00 0. -1.
         22    1    5    5    0    0  0.62143634100E+02 -0.32299534667E+03 -0.48423392357E+02  0.33246450962E+03  0.00000000000E+00 0. -1.
          5    1    4    4  502    0  0.57753128732E+02 -0.31756366098E+02 -0.60039532008E+02  0.89278922875E+02  0.47000000000E+01 0.  1.
         -5    1    4    4    0  502 -0.31638360436E+02 -0.74223224527E+02  0.58243408056E+01  0.81031388091E+02  0.47000000000E+01 0.  1.
<mgrwt>
<rscale>  0 0.99002729E+03</rscale>
<asrwt>0</asrwt>
<pdfrwt beam="1">  1        2 0.66841679E-01 0.99002729E+03</pdfrwt>
<pdfrwt beam="2">  1       -2 0.86768137E-01 0.99002729E+03</pdfrwt>
<totfact> 0.99700255E+01</totfact>
</mgrwt>
</event>
<event>
 9    1  0.4497870E-036  0.1000127E+04  0.7818608E-02  0.8680917E-01
          1   -1    0    0  501    0  0.00000000000E+00  0.00000000000E+00  0.14238489441E+04  0.14238489441E+04  0.00000000000E+00 0. -1.
         -1   -1    0    0    0  501 -0.00000000000E+00 -0.00000000000E+00 -0.17562485205E+03  0.17562485205E+03  0.00000000000E+00 0. -1.
         36    2    1    2    0    0  0.00000000000E+00  0.71054273576E-14  0.12482240921E+04  0.15994737962E+04  0.10001265123E+04 0.  0.
         25    2    3    3    0    0  0.13611178095E+03 -0.10578965601E+02  0.19323428991E+03  0.26761778642E+03  0.12506581222E+03 0.  0.
         35    2    3    3    0    0 -0.13611178095E+03  0.10578965601E+02  0.10549898022E+04  0.13318560097E+04  0.80137295724E+03 0.  0.
         22    1    5    5    0    0 -0.19371839842E+03 -0.81814398743E+02 -0.54341314392E+02  0.21719436498E+03  0.00000000000E+00 0.  1.
         22    1    5    5    0    0  0.57606617469E+02  0.92393364344E+02  0.11093311165E+04  0.11146616448E+04  0.00000000000E+00 0.  1.
          5    1    4    4  502    0  0.75738522775E+02 -0.15465973711E+02  0.19180339014E+03  0.20684813425E+03  0.47000000000E+01 0. -1.
         -5    1    4    4    0  502  0.60373258177E+02  0.48870081096E+01  0.14308997734E+01  0.60769652174E+02  0.47000000000E+01 0. -1.
<mgrwt>
<rscale>  0 0.10001265E+04</rscale>
<asrwt>0</asrwt>
<pdfrwt beam="1">  1        1 0.21905368E+00 0.10001265E+04</pdfrwt>
<pdfrwt beam="2">  1       -1 0.27019209E-01 0.10001265E+04</pdfrwt>
<totfact> 0.98273563E+01</totfact>
</mgrwt>
</event>
<event>
 9    1  0.4497870E-036  0.1000200E+04  0.7818608E-02  0.8680847E-01
         -2   -1    0    0    0  501 -0.00000000000E+00  0.00000000000E+00  0.26452209272E+03  0.26452209272E+03  0.00000000000E+00 0.  1.
          2   -1    0    0  501    0  0.00000000000E+00 -0.00000000000E+00 -0.94547921814E+03  0.94547921814E+03  0.00000000000E+00 0.  1.
         36    2    1    2    0    0 -0.14210854715E-13 -0.17763568394E-13 -0.68095712542E+03  0.12100013109E+04  0.10002002628E+04 0.  0.
         25    2    3    3    0    0  0.80046675186E+02 -0.26369580136E+02 -0.26376682490E+03  0.30410816627E+03  0.12572197067E+03 0.  0.
         35    2    3    3    0    0 -0.80046675186E+02  0.26369580136E+02 -0.41719030052E+03  0.90589314459E+03  0.79968232293E+03 0.  0.
         22    1    5    5    0    0  0.27033172993E+03 -0.15181718635E+03 -0.40834141326E+03  0.51270889602E+03  0.00000000000E+00 0. -1.
         22    1    5    5    0    0 -0.35037840511E+03  0.17818676648E+03 -0.88488872505E+01  0.39318424857E+03  0.00000000000E+00 0. -1.
          5    1    4    4  502    0 -0.32722670347E+01  0.27227766607E+02 -0.67671182994E+01  0.28634645031E+02  0.47000000000E+01 0. -1.
         -5    1    4    4    0  502  0.83318942221E+02 -0.53597346743E+02 -0.25699970660E+03  0.27547352124E+03  0.47000000000E+01 0. -1.
<mgrwt>
<rscale>  0 0.10002003E+04</rscale>
<asrwt>0</asrwt>
<pdfrwt beam="1">  1        2 0.14545834E+00 0.10002003E+04</pdfrwt>
<pdfrwt beam="2">  1       -2 0.40695707E-01 0.10002003E+04</pdfrwt>
<totfact> 0.18901738E+02</totfact>
</mgrwt>
</event>
<event>
 9    1  0.4497870E-036  0.1000198E+04  0.7818608E-02  0.8680850E-01
         -1   -1    0    0    0  501 -0.00000000000E+00  0.00000000000E+00  0.25108503168E+03  0.25108503168E+03  0.00000000000E+00 0. -1.
          1   -1    0    0  501    0  0.00000000000E+00 -0.00000000000E+00 -0.99607227642E+03  0.99607227642E+03  0.00000000000E+00 0. -1.
         36    2    1    2    0    0  0.14210854715E-13 -0.14210854715E-13 -0.74498724474E+03  0.12471573081E+04  0.10001976586E+04 0.  0.
         25    2    3    3    0    0 -0.65421342313E+02  0.12002554489E+03 -0.10088181736E+03  0.21069853194E+03  0.12462201583E+03 0.  0.
         35    2    3    3    0    0  0.65421342313E+02 -0.12002554489E+03 -0.64410542738E+03  0.10364587762E+04  0.80043045272E+03 0.  0.
         22    1    5    5    0    0 -0.53686726400E+02 -0.15955477621E+03  0.15423395868E+03  0.22831580150E+03  0.00000000000E+00 0. -1.
         22    1    5    5    0    0  0.11910806871E+03  0.39529231316E+02 -0.79833938606E+03  0.80814297466E+03  0.00000000000E+00 0. -1.
          5    1    4    4  502    0  0.39027464991E+01 -0.15517054145E+02 -0.45781133624E+02  0.48723840114E+02  0.47000000000E+01 0.  1.
         -5    1    4    4    0  502 -0.69324088812E+02  0.13554259904E+03 -0.55100683739E+02  0.16197469183E+03  0.47000000000E+01 0.  1.
<mgrwt>
<rscale>  0 0.10001977E+04</rscale>
<asrwt>0</asrwt>
<pdfrwt beam="1">  1        1 0.15324189E+00 0.10001977E+04</pdfrwt>
<pdfrwt beam="2">  1       -1 0.38628466E-01 0.10001977E+04</pdfrwt>
<totfact> 0.11076598E+02</totfact>
</mgrwt>
</event>
<event>
 9    1  0.4497870E-036  0.9998890E+03  0.7818608E-02  0.8681144E-01
         -2   -1    0    0    0  501 -0.00000000000E+00  0.00000000000E+00  0.67988684181E+02  0.67988684181E+02  0.00000000000E+00 0. -1.
          2   -1    0    0  501    0  0.00000000000E+00 -0.00000000000E+00 -0.36762664869E+04  0.36762664869E+04  0.00000000000E+00 0. -1.
         36    2    1    2    0    0  0.00000000000E+00 -0.42632564146E-13 -0.36082778027E+04  0.37442551711E+04  0.99988903612E+03 0.  0.
         25    2    3    3    0    0 -0.89439290329E+02 -0.60179010398E+02 -0.33936423716E+03  0.37716029998E+03  0.12434189349E+03 0.  0.
         35    2    3    3    0    0  0.89439290329E+02  0.60179010398E+02 -0.32689135655E+04  0.33670948711E+04  0.79994441801E+03 0.  0.
         22    1    5    5    0    0  0.19239920712E+03 -0.34112525283E+03 -0.16815548849E+04  0.17265603737E+04  0.00000000000E+00 0. -1.
         22    1    5    5    0    0 -0.10295991679E+03  0.40130426323E+03 -0.15873586806E+04  0.16405344974E+04  0.00000000000E+00 0. -1.
          5    1    4    4  502    0 -0.89660299045E+02 -0.30106900455E+02 -0.33281591915E+03  0.34602589602E+03  0.47000000000E+01 0.  1.
         -5    1    4    4    0  502  0.22100871648E+00 -0.30072109942E+02 -0.65483180089E+01  0.31134403961E+02  0.47000000000E+01 0.  1.
<mgrwt>
<rscale>  0 0.99988904E+03</rscale>
<asrwt>0</asrwt>
<pdfrwt beam="1">  1        2 0.56557946E+00 0.99988904E+03</pdfrwt>
<pdfrwt beam="2">  1       -2 0.10459797E-01 0.99988904E+03</pdfrwt>
<totfact> 0.39169610E+01</totfact>
</mgrwt>
</event>
<event>
 9    1  0.4497870E-036  0.1003173E+04  0.7818608E-02  0.8678023E-01
          2   -1    0    0  501    0  0.00000000000E+00  0.00000000000E+00  0.22915922178E+04  0.22915922178E+04  0.00000000000E+00 0. -1.
         -2   -1    0    0    0  501 -0.00000000000E+00 -0.00000000000E+00 -0.10978776656E+03  0.10978776656E+03  0.00000000000E+00 0. -1.
         36    2    1    2    0    0  0.00000000000E+00 -0.42632564146E-13  0.21818044513E+04  0.24013799844E+04  0.10031725504E+04 0.  0.
         25    2    3    3    0    0  0.62522650189E+02 -0.54059239261E+02  0.69707954794E+03  0.71295173397E+03  0.12469481017E+03 0.  0.
         35    2    3    3    0    0 -0.62522650189E+02  0.54059239261E+02  0.14847249033E+04  0.16884282504E+04  0.79971897256E+03 0.  0.
         22    1    5    5    0    0  0.47565132541E+02  0.32037118145E+03  0.13143360774E+04  0.13536541139E+04  0.00000000000E+00 0. -1.
         22    1    5    5    0    0 -0.11008778273E+03 -0.26631194218E+03  0.17038882589E+03  0.33477413646E+03  0.00000000000E+00 0. -1.
          5    1    4    4  502    0  0.14780527522E+02 -0.87739700434E+02  0.36344175614E+03  0.37420411427E+03  0.47000000000E+01 0. -1.
         -5    1    4    4    0  502  0.47742122667E+02  0.33680461173E+02  0.33363779179E+03  0.33874761970E+03  0.47000000000E+01 0. -1.
<mgrwt>
<rscale>  0 0.10031726E+04</rscale>
<asrwt>0</asrwt>
<pdfrwt beam="1">  1        2 0.35255261E+00 0.10031726E+04</pdfrwt>
<pdfrwt beam="2">  1       -2 0.16890427E-01 0.10031726E+04</pdfrwt>
<totfact> 0.15188240E+02</totfact>
</mgrwt>
</event>
<event>
 9    1  0.4497870E-036  0.9992675E+03  0.7818608E-02  0.8681736E-01
         -2   -1    0    0    0  501 -0.00000000000E+00  0.00000000000E+00  0.20749774097E+03  0.20749774097E+03  0.00000000000E+00 0.  1.
          2   -1    0    0  501    0  0.00000000000E+00 -0.00000000000E+00 -0.12030679811E+04  0.12030679811E+04  0.00000000000E+00 0.  1.
         36    2    1    2    0    0  0.71054273576E-14  0.14210854715E-13 -0.99557024009E+03  0.14105657220E+04  0.99926750834E+03 0.  0.
         25    2    3    3    0    0  0.36294789826E+02 -0.36901719873E+02 -0.40972265876E+01  0.13562236568E+03  0.12529002398E+03 0.  0.
         35    2    3    3    0    0 -0.36294789826E+02  0.36901719873E+02 -0.99147301350E+03  0.12749433564E+04  0.79986422392E+03 0.  0.
         22    1    5    5    0    0 -0.91418718570E+02 -0.13136167084E+03  0.86912563474E+02  0.18211827025E+03  0.00000000000E+00 0. -1.
         22    1    5    5    0    0  0.55123928744E+02  0.16826339071E+03 -0.10783855770E+04  0.10928250861E+04  0.00000000000E+00 0. -1.
          5    1    4    4  502    0  0.29345237259E+02 -0.55218797533E+02  0.48514951729E+02  0.79284608166E+02  0.47000000000E+01 0.  1.
         -5    1    4    4    0  502  0.69495525671E+01  0.18317077661E+02 -0.52612178316E+02  0.56337757517E+02  0.47000000000E+01 0.  1.
<mgrwt>
<rscale>  0 0.99926751E+03</rscale>
<asrwt>0</asrwt>
<pdfrwt beam="1">  1        2 0.18508738E+00 0.99926751E+03</pdfrwt>
<pdfrwt beam="2">  1       -2 0.31922729E-01 0.99926751E+03</pdfrwt>
<totfact> 0.20724520E+02</totfact>
</mgrwt>
</event>
<event>
 9    1  0.4497870E-036  0.9994313E+03  0.7818608E-02  0.8681580E-01
         -2   -1    0    0    0  501 -0.00000000000E+00  0.00000000000E+00  0.97986540180E+02  0.97986540180E+02  0.00000000000E+00 0.  1.
          2   -1    0    0  501    0  0.00000000000E+00 -0.00000000000E+00 -0.25484698464E+04  0.25484698464E+04  0.00000000000E+00 0.  1.
         36    2    1    2    0    0  0.28421709430E-13  0.00000000000E+00 -0.24504833062E+04  0.26464563866E+04  0.99943132431E+03 0.  0.
         25    2    3    3    0    0 -0.40232386819E+02 -0.13011033480E+03 -0.37507772243E+03  0.41796846674E+03  0.12436638274E+03 0.  0.
         35    2    3    3    0    0  0.40232386819E+02  0.13011033480E+03 -0.20754055838E+04  0.22284879198E+04  0.80018918231E+03 0.  0.
         22    1    5    5    0    0 -0.17507940374E+03  0.87259389397E+02 -0.19791241679E+04  0.19887683301E+04  0.00000000000E+00 0.  1.
         22    1    5    5    0    0  0.21531179056E+03  0.42850945398E+02 -0.96281415858E+02  0.23971958976E+03  0.00000000000E+00 0.  1.
          5    1    4    4  502    0 -0.69739392145E+02 -0.11226680116E+03 -0.35248309186E+03  0.37647554703E+03  0.47000000000E+01 0. -1.
         -5    1    4    4    0  502  0.29507005326E+02 -0.17843533634E+02 -0.22594630570E+02  0.41492919715E+02  0.47000000000E+01 0. -1.
<mgrwt>
<rscale>  0 0.99943132E+03</rscale>
<asrwt>0</asrwt>
<pdfrwt beam="1">  1        2 0.39207223E+00 0.99943132E+03</pdfrwt>
<pdfrwt beam="2">  1       -2 0.15074854E-01 0.99943132E+03</pdfrwt>
<totfact> 0.12899586E+02</totfact>
</mgrwt>
</event>
<event>
 9    1  0.4497870E-036  0.9957556E+03  0.7818608E-02  0.8685090E-01
         -2   -1    0    0    0  501 -0.00000000000E+00  0.00000000000E+00  0.21327927422E+03  0.21327927422E+03  0.00000000000E+00 0. -1.
          2   -1    0    0  501    0  0.00000000000E+00 -0.00000000000E+00 -0.11622428883E+04  0.11622428883E+04  0.00000000000E+00 0. -1.
         36    2    1    2    0    0  0.14210854715E-13  0.28421709430E-13 -0.94896361412E+03  0.13755221626E+04  0.99575563206E+03 0.  0.
         25    2    3    3    0    0  0.73819218024E+02 -0.10207026200E+03 -0.99993878950E+02  0.20263293395E+03  0.12326278741E+03 0.  0.
         35    2    3    3    0    0 -0.73819218024E+02  0.10207026200E+03 -0.84896973517E+03  0.11728892286E+04  0.79940722791E+03 0.  0.
         22    1    5    5    0    0  0.26723759051E+03  0.25339965482E+03 -0.18706744338E+03  0.41306360674E+03  0.00000000000E+00 0. -1.
         22    1    5    5    0    0 -0.34105680853E+03 -0.15132939282E+03 -0.66190229179E+03  0.75982562187E+03  0.00000000000E+00 0. -1.
          5    1    4    4  502    0  0.29531839194E+02  0.57567214765E+01 -0.78242892399E+02  0.83960166623E+02  0.47000000000E+01 0.  1.
         -5    1    4    4    0  502  0.44287378830E+02 -0.10782698348E+03 -0.21750986551E+02  0.11867276733E+03  0.47000000000E+01 0.  1.
<mgrwt>
<rscale>  0 0.99575563E+03</rscale>
<asrwt>0</asrwt>
<pdfrwt beam="1">  1        2 0.17880660E+00 0.99575563E+03</pdfrwt>
<pdfrwt beam="2">  1       -2 0.32812196E-01 0.99575563E+03</pdfrwt>
<totfact> 0.20832119E+02</totfact>
</mgrwt>
</event>
<event>
 9    1  0.4497870E-036  0.1000222E+04  0.7818608E-02  0.8680826E-01
         -2   -1    0    0    0  501 -0.00000000000E+00  0.00000000000E+00  0.17167482068E+04  0.17167482068E+04  0.00000000000E+00 0.  1.
          2   -1    0    0  501    0  0.00000000000E+00 -0.00000000000E+00 -0.14568884988E+03  0.14568884988E+03  0.00000000000E+00 0.  1.
         36    2    1    2    0    0  0.14210854715E-13 -0.71054273576E-14  0.15710593569E+04  0.18624370566E+04  0.10002221189E+04 0.  0.
         25    2    3    3    0    0  0.96473596067E+02  0.62408340569E+02  0.16016501984E+03  0.23647188849E+03  0.13062987696E+03 0.  0.
         35    2    3    3    0    0 -0.96473596067E+02 -0.62408340569E+02  0.14108943370E+04  0.16259651681E+04  0.79996121282E+03 0.  0.
         22    1    5    5    0    0 -0.18758449810E+03 -0.33399255500E+03  0.12273696598E+04  0.12857586292E+04  0.00000000000E+00 0.  1.
         22    1    5    5    0    0  0.91110902030E+02  0.27158421443E+03  0.18352467723E+03  0.34020653895E+03  0.00000000000E+00 0.  1.
          5    1    4    4  502    0  0.22573069557E+01  0.77934907166E+02  0.78468423709E+02  0.11071733698E+03  0.47000000000E+01 0.  1.
         -5    1    4    4    0  502  0.94216289111E+02 -0.15526566597E+02  0.81696596134E+02  0.12575455150E+03  0.47000000000E+01 0.  1.
<mgrwt>
<rscale>  0 0.10002221E+04</rscale>
<asrwt>0</asrwt>
<pdfrwt beam="1">  1        2 0.22413670E-01 0.10002221E+04</pdfrwt>
<pdfrwt beam="2">  1       -2 0.26411509E+00 0.10002221E+04</pdfrwt>
<totfact> 0.14043482E+01</totfact>
</mgrwt>
</event>
<event>
 9    1  0.4497870E-036  0.9999779E+03  0.7818608E-02  0.8681059E-01
         -1   -1    0    0    0  501 -0.00000000000E+00  0.00000000000E+00  0.97085168906E+03  0.97085168906E+03  0.00000000000E+00 0.  1.
          1   -1    0    0  501    0  0.00000000000E+00 -0.00000000000E+00 -0.25749448951E+03  0.25749448951E+03  0.00000000000E+00 0.  1.
         36    2    1    2    0    0 -0.14210854715E-13  0.00000000000E+00  0.71335719955E+03  0.12283461786E+04  0.99997791989E+03 0.  0.
         25    2    3    3    0    0 -0.48109333231E+02 -0.12656658944E+03  0.17907190345E+03  0.25652099203E+03  0.12410746651E+03 0.  0.
         35    2    3    3    0    0  0.48109333231E+02  0.12656658944E+03  0.53428529610E+03  0.97182518654E+03  0.80040602575E+03 0.  0.
         22    1    5    5    0    0  0.17694919532E+03  0.43633370908E+03  0.36674539498E+03  0.59682519061E+03  0.00000000000E+00 0. -1.
         22    1    5    5    0    0 -0.12883986209E+03 -0.30976711965E+03  0.16753990112E+03  0.37499999593E+03  0.00000000000E+00 0. -1.
          5    1    4    4  502    0  0.12142624358E+02  0.14211013849E+02  0.58410873011E+02  0.61508668713E+02  0.47000000000E+01 0. -1.
         -5    1    4    4    0  502 -0.60251957589E+02 -0.14077760329E+03  0.12066103043E+03  0.19501232332E+03  0.47000000000E+01 0. -1.
<mgrwt>
<rscale>  0 0.99997792E+03</rscale>
<asrwt>0</asrwt>
<pdfrwt beam="1">  1        1 0.39614537E-01 0.99997792E+03</pdfrwt>
<pdfrwt beam="2">  1       -1 0.14936180E+00 0.99997792E+03</pdfrwt>
<totfact> 0.44403689E+01</totfact>
</mgrwt>
</event>
<event>
 9    1  0.4497870E-036  0.9997388E+03  0.7818608E-02  0.8681287E-01
          2   -1    0    0  501    0  0.00000000000E+00  0.00000000000E+00  0.43720351522E+04  0.43720351522E+04  0.00000000000E+00 0.  1.
         -2   -1    0    0    0  501 -0.00000000000E+00 -0.00000000000E+00 -0.57151745777E+02  0.57151745777E+02  0.00000000000E+00 0.  1.
         36    2    1    2    0    0  0.00000000000E+00 -0.28421709430E-13  0.43148834064E+04  0.44291868980E+04  0.99973884899E+03 0.  0.
         25    2    3    3    0    0 -0.89538339180E+02  0.55351559649E+02  0.39906478419E+03  0.43120282524E+03  0.12490902760E+03 0.  0.
         35    2    3    3    0    0  0.89538339180E+02 -0.55351559649E+02  0.39158186222E+04  0.39979840727E+04  0.79947498666E+03 0.  0.
         22    1    5    5    0    0 -0.46910789792E+02  0.35473529816E+03  0.21799202406E+04  0.22090925760E+04  0.00000000000E+00 0. -1.
         22    1    5    5    0    0  0.13644912897E+03 -0.41008685781E+03  0.17358983816E+04  0.17888914967E+04  0.00000000000E+00 0. -1.
          5    1    4    4  502    0 -0.47084825551E+02  0.27230942884E+02  0.36657053174E+03  0.37061374744E+03  0.47000000000E+01 0. -1.
         -5    1    4    4    0  502 -0.42453513629E+02  0.28120616765E+02  0.32494252446E+02  0.60589077800E+02  0.47000000000E+01 0. -1.
<mgrwt>
<rscale>  0 0.99973885E+03</rscale>
<asrwt>0</asrwt>
<pdfrwt beam="1">  1        2 0.67262053E+00 0.99973885E+03</pdfrwt>
<pdfrwt beam="2">  1       -2 0.87925797E-02 0.99973885E+03</pdfrwt>
<totfact> 0.12640158E+01</totfact>
</mgrwt>
</event>
<event>
 9    1  0.4497870E-036  0.9987509E+03  0.7818608E-02  0.8682228E-01
          2   -1    0    0  501    0  0.00000000000E+00  0.00000000000E+00  0.96667247937E+03  0.96667247937E+03  0.00000000000E+00 0. -1.
         -2   -1    0    0    0  501 -0.00000000000E+00 -0.00000000000E+00 -0.25797347127E+03  0.25797347127E+03  0.00000000000E+00 0. -1.
         36    2    1    2    0    0  0.28421709430E-13 -0.14210854715E-13  0.70869900810E+03  0.12246459506E+04  0.99875093008E+03 0.  0.
         25    2    3    3    0    0 -0.10865925836E+03 -0.80471918031E+02  0.58339692205E+02  0.19275490480E+03  0.12437190044E+03 0.  0.
         35    2    3    3    0    0  0.10865925836E+03  0.80471918031E+02  0.65035931589E+03  0.10318910458E+04  0.78965139567E+03 0.  0.
         22    1    5    5    0    0 -0.87661089141E+02 -0.31674897703E+03  0.41751010914E+03  0.53134647099E+03  0.00000000000E+00 0. -1.
         22    1    5    5    0    0  0.19632034751E+03  0.39722089506E+03  0.23284920675E+03  0.50054457484E+03  0.00000000000E+00 0. -1.
          5    1    4    4  502    0  0.10291129789E+02 -0.39612906352E+02 -0.18642345015E+02  0.45218544090E+02  0.47000000000E+01 0. -1.
         -5    1    4    4    0  502 -0.11895038815E+03 -0.40859011679E+02  0.76982037220E+02  0.14753636071E+03  0.47000000000E+01 0. -1.
<mgrwt>
<rscale>  0 0.99875093E+03</rscale>
<asrwt>0</asrwt>
<pdfrwt beam="1">  1        2 0.14871884E+00 0.99875093E+03</pdfrwt>
<pdfrwt beam="2">  1       -2 0.39688227E-01 0.99875093E+03</pdfrwt>
<totfact> 0.19221764E+02</totfact>
</mgrwt>
</event>
<event>
 9    1  0.4497870E-036  0.1008189E+04  0.7818608E-02  0.8673278E-01
          2   -1    0    0  501    0  0.00000000000E+00  0.00000000000E+00  0.18494589301E+03  0.18494589301E+03  0.00000000000E+00 0.  1.
         -2   -1    0    0    0  501 -0.00000000000E+00 -0.00000000000E+00 -0.13739768833E+04  0.13739768833E+04  0.00000000000E+00 0.  1.
         36    2    1    2    0    0  0.14210854715E-13  0.00000000000E+00 -0.11890309903E+04  0.15589227763E+04  0.10081892316E+04 0.  0.
         25    2    3    3    0    0  0.24086176333E+02  0.14391168132E+03 -0.27452743667E+03  0.33521824081E+03  0.12536043864E+03 0.  0.
         35    2    3    3    0    0 -0.24086176333E+02 -0.14391168132E+03 -0.91450355361E+03  0.12237045355E+04  0.79990332210E+03 0.  0.
         22    1    5    5    0    0  0.28899787880E+03 -0.72492238602E+02 -0.84383711844E+03  0.89489439660E+03  0.00000000000E+00 0. -1.
         22    1    5    5    0    0 -0.31308405514E+03 -0.71419442720E+02 -0.70666435171E+02  0.32881013889E+03  0.00000000000E+00 0. -1.
          5    1    4    4  502    0  0.14355619364E+02  0.15696317281E+03 -0.18051048868E+03  0.23968656189E+03  0.47000000000E+01 0.  1.
         -5    1    4    4    0  502  0.97305569698E+01 -0.13051491486E+02 -0.94016947983E+02  0.95531678919E+02  0.47000000000E+01 0.  1.
<mgrwt>
<rscale>  0 0.10081892E+04</rscale>
<asrwt>0</asrwt>
<pdfrwt beam="1">  1        2 0.28453214E-01 0.10081892E+04</pdfrwt>
<pdfrwt beam="2">  1       -2 0.21138106E+00 0.10081892E+04</pdfrwt>
<totfact> 0.22945937E+01</totfact>
</mgrwt>
</event>
<event>
 9    1  0.4497870E-036  0.9996793E+03  0.7818608E-02  0.8681343E-01
          1   -1    0    0  501    0  0.00000000000E+00  0.00000000000E+00  0.76634596304E+03  0.76634596304E+03  0.00000000000E+00 0. -1.
         -1   -1    0    0    0  501 -0.00000000000E+00 -0.00000000000E+00 -0.32601420619E+03  0.32601420619E+03  0.00000000000E+00 0. -1.
         36    2    1    2    0    0 -0.28421709430E-13  0.00000000000E+00  0.44033175684E+03  0.10923601692E+04  0.99967929019E+03 0.  0.
         25    2    3    3    0    0  0.12811441562E+03  0.43858636111E+02  0.12311488083E+03  0.22163763014E+03  0.12501632598E+03 0.  0.
         35    2    3    3    0    0 -0.12811441562E+03 -0.43858636111E+02  0.31721687602E+03  0.87072253909E+03  0.79949628529E+03 0.  0.
         22    1    5    5    0    0  0.26033810527E+03 -0.10333174161E+03  0.38071232005E+03  0.47264706549E+03  0.00000000000E+00 0.  1.
         22    1    5    5    0    0 -0.38845252090E+03  0.59473105497E+02 -0.63495444031E+02  0.39807547360E+03  0.00000000000E+00 0.  1.
          5    1    4    4  502    0 -0.21011799606E+02  0.24700173718E+02  0.31825775880E+02  0.45678926375E+02  0.47000000000E+01 0.  1.
         -5    1    4    4    0  502  0.14912621523E+03  0.19158462393E+02  0.91289104948E+02  0.17595870377E+03  0.47000000000E+01 0.  1.
<mgrwt>
<rscale>  0 0.99967929E+03</rscale>
<asrwt>0</asrwt>
<pdfrwt beam="1">  1        1 0.11789938E+00 0.99967929E+03</pdfrwt>
<pdfrwt beam="2">  1       -1 0.50156032E-01 0.99967929E+03</pdfrwt>
<totfact> 0.10793685E+02</totfact>
</mgrwt>
</event>
<event>
 9    1  0.4497870E-036  0.1001305E+04  0.7818608E-02  0.8679796E-01
         -1   -1    0    0    0  501 -0.00000000000E+00  0.00000000000E+00  0.71341539379E+03  0.71341539379E+03  0.00000000000E+00 0.  1.
          1   -1    0    0  501    0  0.00000000000E+00 -0.00000000000E+00 -0.35134220346E+03  0.35134220346E+03  0.00000000000E+00 0.  1.
         36    2    1    2    0    0  0.00000000000E+00 -0.28421709430E-13  0.36207319033E+03  0.10647575973E+04  0.10013050213E+04 0.  0.
         25    2    3    3    0    0  0.55637683064E+02  0.81857624621E+02  0.17578732195E+03  0.23823234294E+03  0.12671718186E+03 0.  0.
         35    2    3    3    0    0 -0.55637683064E+02 -0.81857624621E+02  0.18628586837E+03  0.82652525431E+03  0.79915289449E+03 0.  0.
         22    1    5    5    0    0 -0.35628421698E+02  0.21198467563E+03 -0.23114586353E+03  0.31565059379E+03  0.00000000000E+00 0. -1.
         22    1    5    5    0    0 -0.20009261367E+02 -0.29384230025E+03  0.41743173190E+03  0.51087466052E+03  0.00000000000E+00 0. -1.
          5    1    4    4  502    0  0.55892373991E+02  0.77268624767E+02  0.42043559764E+02  0.10432712380E+03  0.47000000000E+01 0. -1.
         -5    1    4    4    0  502 -0.25469092614E+00  0.45889998536E+01  0.13374376219E+03  0.13390521914E+03  0.47000000000E+01 0. -1.
<mgrwt>
<rscale>  0 0.10013050E+04</rscale>
<asrwt>0</asrwt>
<pdfrwt beam="1">  1        1 0.54052647E-01 0.10013050E+04</pdfrwt>
<pdfrwt beam="2">  1       -1 0.10975621E+00 0.10013050E+04</pdfrwt>
<totfact> 0.65734487E+01</totfact>
</mgrwt>
</event>
<event>
 9    1  0.4497870E-036  0.9989215E+03  0.7818608E-02  0.8682066E-01
         -2   -1    0    0    0  501 -0.00000000000E+00  0.00000000000E+00  0.27194396168E+03  0.27194396168E+03  0.00000000000E+00 0.  1.
          2   -1    0    0  501    0  0.00000000000E+00 -0.00000000000E+00 -0.91732514051E+03  0.91732514051E+03  0.00000000000E+00 0.  1.
         36    2    1    2    0    0  0.14210854715E-13  0.00000000000E+00 -0.64538117883E+03  0.11892691022E+04  0.99892148411E+03 0.  0.
         25    2    3    3    0    0  0.50743564993E+02  0.12822399794E+03 -0.10527493796E+03  0.21366181069E+03  0.12470867551E+03 0.  0.
         35    2    3    3    0    0 -0.50743564993E+02 -0.12822399794E+03 -0.54010624087E+03  0.97560729149E+03  0.80067379921E+03 0.  0.
         22    1    5    5    0    0 -0.41129651768E+03 -0.17712231368E+03 -0.27647680390E+03  0.52628562830E+03  0.00000000000E+00 0. -1.
         22    1    5    5    0    0  0.36055295269E+03  0.48898315737E+02 -0.26362943697E+03  0.44932166319E+03  0.00000000000E+00 0. -1.
          5    1    4    4  502    0  0.41405304615E+02  0.11841867130E+03 -0.19914620659E+02  0.12710650290E+03  0.47000000000E+01 0.  1.
         -5    1    4    4    0  502  0.93382603783E+01  0.98053266430E+01 -0.85360317303E+02  0.86555307796E+02  0.47000000000E+01 0.  1.
<mgrwt>
<rscale>  0 0.99892148E+03</rscale>
<asrwt>0</asrwt>
<pdfrwt beam="1">  1        2 0.14112694E+00 0.99892148E+03</pdfrwt>
<pdfrwt beam="2">  1       -2 0.41837533E-01 0.99892148E+03</pdfrwt>
<totfact> 0.18690325E+02</totfact>
</mgrwt>
</event>
<event>
 9    1  0.4497870E-036  0.1001651E+04  0.7818608E-02  0.8679467E-01
         -2   -1    0    0    0  501 -0.00000000000E+00  0.00000000000E+00  0.81551148528E+02  0.81551148528E+02  0.00000000000E+00 0. -1.
          2   -1    0    0  501    0  0.00000000000E+00 -0.00000000000E+00 -0.30756904301E+04  0.30756904301E+04  0.00000000000E+00 0. -1.
         36    2    1    2    0    0 -0.14210854715E-13 -0.35527136788E-14 -0.29941392815E+04  0.31572415786E+04  0.10016508116E+04 0.  0.
         25    2    3    3    0    0  0.65216217096E+02  0.27928735462E+02 -0.96220756686E+03  0.97236593208E+03  0.12090878755E+03 0.  0.
         35    2    3    3    0    0 -0.65216217096E+02 -0.27928735462E+02 -0.20319317147E+04  0.21848756465E+04  0.79993870290E+03 0.  0.
         22    1    5    5    0    0  0.35427914186E+03  0.80264834115E+02 -0.10673947148E+04  0.11275139162E+04  0.00000000000E+00 0.  1.
         22    1    5    5    0    0 -0.41949535896E+03 -0.10819356958E+03 -0.96453699987E+03  0.10573617303E+04  0.00000000000E+00 0.  1.
          5    1    4    4  502    0 -0.76561364582E+01 -0.13255895983E+02 -0.16656688743E+02  0.23105637487E+02  0.47000000000E+01 0. -1.
         -5    1    4    4    0  502  0.72872353554E+02  0.41184631445E+02 -0.94555087811E+03  0.94926029459E+03  0.47000000000E+01 0. -1.
<mgrwt>
<rscale>  0 0.10016508E+04</rscale>
<asrwt>0</asrwt>
<pdfrwt beam="1">  1        2 0.47318317E+00 0.10016508E+04</pdfrwt>
<pdfrwt beam="2">  1       -2 0.12546330E-01 0.10016508E+04</pdfrwt>
<totfact> 0.80097440E+01</totfact>
</mgrwt>
</event>
<event>
 9    1  0.4497870E-036  0.1000146E+04  0.7818608E-02  0.8680898E-01
         -1   -1    0    0    0  501 -0.00000000000E+00  0.00000000000E+00  0.95657708975E+02  0.95657708975E+02  0.00000000000E+00 0. -1.
          1   -1    0    0  501    0  0.00000000000E+00 -0.00000000000E+00 -0.26142509338E+04  0.26142509338E+04  0.00000000000E+00 0. -1.
         36    2    1    2    0    0 -0.28421709430E-13 -0.35527136788E-14 -0.25185932248E+04  0.27099086428E+04  0.10001464993E+04 0.  0.
         25    2    3    3    0    0 -0.82076379357E+02 -0.31141314081E+02 -0.75642996036E+03  0.77178372440E+03  0.12552895610E+03 0.  0.
         35    2    3    3    0    0  0.82076379357E+02  0.31141314081E+02 -0.17621632645E+04  0.19381249184E+04  0.80212375300E+03 0.  0.
         22    1    5    5    0    0  0.74206645621E+02 -0.11408731563E+03 -0.17856241036E+04  0.17908031665E+04  0.00000000000E+00 0. -1.
         22    1    5    5    0    0  0.78697337354E+01  0.14522862972E+03  0.23460839140E+02  0.14732175186E+03  0.00000000000E+00 0. -1.
          5    1    4    4  502    0 -0.11318374789E+03 -0.19529490083E+02 -0.65336518530E+03  0.66340041991E+03  0.47000000000E+01 0.  1.
         -5    1    4    4    0  502  0.31107368534E+02 -0.11611823998E+02 -0.10306477506E+03  0.10838330449E+03  0.47000000000E+01 0.  1.
<mgrwt>
<rscale>  0 0.10001465E+04</rscale>
<asrwt>0</asrwt>
<pdfrwt beam="1">  1        1 0.40219246E+00 0.10001465E+04</pdfrwt>
<pdfrwt beam="2">  1       -1 0.14716570E-01 0.10001465E+04</pdfrwt>
<totfact> 0.38925183E+01</totfact>
</mgrwt>
</event>
<event>
 9    1  0.4497870E-036  0.9992662E+03  0.7818608E-02  0.8681737E-01
         -2   -1    0    0    0  501 -0.00000000000E+00  0.00000000000E+00  0.77817649823E+02  0.77817649823E+02  0.00000000000E+00 0.  1.
          2   -1    0    0  501    0  0.00000000000E+00 -0.00000000000E+00 -0.32079256832E+04  0.32079256832E+04  0.00000000000E+00 0.  1.
         36    2    1    2    0    0 -0.14210854715E-13  0.14210854715E-13 -0.31301080334E+04  0.32857433330E+04  0.99926620572E+03 0.  0.
         25    2    3    3    0    0  0.33172928375E+02  0.11172136169E+03 -0.83926312680E+03  0.85646078846E+03  0.12482139376E+03 0.  0.
         35    2    3    3    0    0 -0.33172928375E+02 -0.11172136169E+03 -0.22908449066E+04  0.24292825446E+04  0.79991323871E+03 0.  0.
         22    1    5    5    0    0  0.16264236649E+03  0.17987002042E+03 -0.21547359953E+03  0.32439888365E+03  0.00000000000E+00 0. -1.
         22    1    5    5    0    0 -0.19581529486E+03 -0.29159138211E+03 -0.20753713071E+04  0.21048836609E+04  0.00000000000E+00 0. -1.
          5    1    4    4  502    0  0.47358563852E+01  0.20383058478E+02 -0.57460270768E+03  0.57500283397E+03  0.47000000000E+01 0.  1.
         -5    1    4    4    0  502  0.28437071989E+02  0.91338303212E+02 -0.26466041912E+03  0.28145795449E+03  0.47000000000E+01 0.  1.
<mgrwt>
<rscale>  0 0.99926621E+03</rscale>
<asrwt>0</asrwt>
<pdfrwt beam="1">  1        2 0.49352713E+00 0.99926621E+03</pdfrwt>
<pdfrwt beam="2">  1       -2 0.11971944E-01 0.99926621E+03</pdfrwt>
<totfact> 0.70147514E+01</totfact>
</mgrwt>
</event>
<event>
 9    1  0.4497870E-036  0.1002703E+04  0.7818608E-02  0.8678469E-01
          1   -1    0    0  501    0  0.00000000000E+00  0.00000000000E+00  0.22244244817E+03  0.22244244817E+03  0.00000000000E+00 0.  1.
         -1   -1    0    0    0  501 -0.00000000000E+00 -0.00000000000E+00 -0.11299690354E+04  0.11299690354E+04  0.00000000000E+00 0.  1.
         36    2    1    2    0    0 -0.46185277824E-13  0.14210854715E-13 -0.90752658728E+03  0.13524114836E+04  0.10027025054E+04 0.  0.
         25    2    3    3    0    0 -0.22903369267E+02  0.88035294594E+02 -0.24161719999E+02  0.15683046641E+03  0.12544811303E+03 0.  0.
         35    2    3    3    0    0  0.22903369267E+02 -0.88035294594E+02 -0.88336486728E+03  0.11955810172E+04  0.80050340569E+03 0.  0.
         22    1    5    5    0    0 -0.31201189225E+03  0.48344311528E+02 -0.74366836407E+03  0.80791783560E+03  0.00000000000E+00 0.  1.
         22    1    5    5    0    0  0.33491526151E+03 -0.13637960612E+03 -0.13969650321E+03  0.38766318160E+03  0.00000000000E+00 0.  1.
          5    1    4    4  502    0 -0.52207856349E+02  0.50792071860E+02 -0.62186816247E+02  0.95889441251E+02  0.47000000000E+01 0. -1.
         -5    1    4    4    0  502  0.29304487082E+02  0.37243222735E+02  0.38025096248E+02  0.60941025159E+02  0.47000000000E+01 0. -1.
<mgrwt>
<rscale>  0 0.10027025E+04</rscale>
<asrwt>0</asrwt>
<pdfrwt beam="1">  1        1 0.34221915E-01 0.10027025E+04</pdfrwt>
<pdfrwt beam="2">  1       -1 0.17384139E+00 0.10027025E+04</pdfrwt>
<totfact> 0.33490129E+01</totfact>
</mgrwt>
</event>
<event>
 9    1  0.4497870E-036  0.9992316E+03  0.7818608E-02  0.8681770E-01
         -2   -1    0    0    0  501 -0.00000000000E+00  0.00000000000E+00  0.11406980061E+03  0.11406980061E+03  0.00000000000E+00 0.  1.
          2   -1    0    0  501    0  0.00000000000E+00 -0.00000000000E+00 -0.21882738621E+04  0.21882738621E+04  0.00000000000E+00 0.  1.
         36    2    1    2    0    0  0.00000000000E+00 -0.71054273576E-14 -0.20742040615E+04  0.23023436627E+04  0.99923163106E+03 0.  0.
         25    2    3    3    0    0  0.82618780348E+02 -0.17197906114E+02 -0.13890716001E+03  0.20510946079E+03  0.12511219350E+03 0.  0.
         35    2    3    3    0    0 -0.82618780348E+02  0.17197906114E+02 -0.19352969015E+04  0.20972342019E+04  0.80367628433E+03 0.  0.
         22    1    5    5    0    0  0.34057616025E+03 -0.11942850243E+03 -0.94931295625E+03  0.10156034546E+04  0.00000000000E+00 0.  1.
         22    1    5    5    0    0 -0.42319494060E+03  0.13662640855E+03 -0.98598394524E+03  0.10816307473E+04  0.00000000000E+00 0.  1.
          5    1    4    4  502    0  0.75732542671E+02 -0.27376481220E+02 -0.16061039928E+03  0.17972946364E+03  0.47000000000E+01 0. -1.
         -5    1    4    4    0  502  0.68862376773E+01  0.10178575107E+02  0.21703239268E+02  0.25379997149E+02  0.47000000000E+01 0. -1.
<mgrwt>
<rscale>  0 0.99923163E+03</rscale>
<asrwt>0</asrwt>
<pdfrwt beam="1">  1        2 0.33665750E+00 0.99923163E+03</pdfrwt>
<pdfrwt beam="2">  1       -2 0.17549201E-01 0.99923163E+03</pdfrwt>
<totfact> 0.16355422E+02</totfact>
</mgrwt>
</event>
<event>
 9    1  0.4497870E-036  0.1000607E+04  0.7818608E-02  0.8680460E-01
         -1   -1    0    0    0  501 -0.00000000000E+00  0.00000000000E+00  0.34541565017E+03  0.34541565017E+03  0.00000000000E+00 0.  1.
          1   -1    0    0  501    0  0.00000000000E+00 -0.00000000000E+00 -0.72464514090E+03  0.72464514090E+03  0.00000000000E+00 0.  1.
         36    2    1    2    0    0  0.12434497876E-13  0.28421709430E-13 -0.37922949072E+03  0.10700607911E+04  0.10006073605E+04 0.  0.
         25    2    3    3    0    0  0.12551483711E+02 -0.86834614029E+02  0.47184667329E+02  0.15941115972E+03  0.12444972911E+03 0.  0.
         35    2    3    3    0    0 -0.12551483711E+02  0.86834614029E+02 -0.42641415805E+03  0.91064963135E+03  0.79984743980E+03 0.  0.
         22    1    5    5    0    0 -0.18031401712E+03 -0.22436596263E+03 -0.47336074839E+03  0.55400688451E+03  0.00000000000E+00 0. -1.
         22    1    5    5    0    0  0.16776253341E+03  0.31120057666E+03  0.46946590342E+02  0.35664274684E+03  0.00000000000E+00 0. -1.
          5    1    4    4  502    0  0.17899292603E+02  0.27626760349E+02 -0.46182534948E+01  0.33571428751E+02  0.47000000000E+01 0. -1.
         -5    1    4    4    0  502 -0.53478088914E+01 -0.11446137438E+03  0.51802920824E+02  0.12583973097E+03  0.47000000000E+01 0. -1.
<mgrwt>
<rscale>  0 0.10006074E+04</rscale>
<asrwt>0</asrwt>
<pdfrwt beam="1">  1        1 0.11148387E+00 0.10006074E+04</pdfrwt>
<pdfrwt beam="2">  1       -1 0.53140870E-01 0.10006074E+04</pdfrwt>
<totfact> 0.10585990E+02</totfact>
</mgrwt>
</event>
<event>
 9    1  0.4497870E-036  0.9998325E+03  0.7818608E-02  0.8681197E-01
         -1   -1    0    0    0  501 -0.00000000000E+00  0.00000000000E+00  0.36576157335E+03  0.36576157335E+03  0.00000000000E+00 0.  1.
          1   -1    0    0  501    0  0.00000000000E+00 -0.00000000000E+00 -0.68327645558E+03  0.68327645558E+03  0.00000000000E+00 0.  1.
         36    2    1    2    0    0 -0.71054273576E-14 -0.14210854715E-13 -0.31751488223E+03  0.10490380289E+04  0.99983252883E+03 0.  0.
         25    2    3    3    0    0  0.39520433131E+02 -0.29650233782E+02 -0.19635511181E+03  0.23748839203E+03  0.12411448512E+03 0.  0.
         35    2    3    3    0    0 -0.39520433131E+02  0.29650233782E+02 -0.12115977043E+03  0.81154963691E+03  0.80093203344E+03 0.  0.
         22    1    5    5    0    0  0.26054797640E+02 -0.18042949670E+03  0.29153575902E+03  0.34384117634E+03  0.00000000000E+00 0.  1.
         22    1    5    5    0    0 -0.65575230770E+02  0.21007973048E+03 -0.41269552945E+03  0.46770846056E+03  0.00000000000E+00 0.  1.
          5    1    4    4  502    0  0.26194196425E+02  0.44093204301E+02 -0.11909126300E+03  0.12975039698E+03  0.47000000000E+01 0.  1.
         -5    1    4    4    0  502  0.13326236706E+02 -0.73743438083E+02 -0.77263848803E+02  0.10773799505E+03  0.47000000000E+01 0.  1.
<mgrwt>
<rscale>  0 0.99983253E+03</rscale>
<asrwt>0</asrwt>
<pdfrwt beam="1">  1        1 0.10511945E+00 0.99983253E+03</pdfrwt>
<pdfrwt beam="2">  1       -1 0.56271012E-01 0.99983253E+03</pdfrwt>
<totfact> 0.10406203E+02</totfact>
</mgrwt>
</event>
<event>
 9    1  0.4497870E-036  0.9990294E+03  0.7818608E-02  0.8681963E-01
          1   -1    0    0  501    0  0.00000000000E+00  0.00000000000E+00  0.92038186883E+03  0.92038186883E+03  0.00000000000E+00 0. -1.
         -1   -1    0    0    0  501 -0.00000000000E+00 -0.00000000000E+00 -0.27109936345E+03  0.27109936345E+03  0.00000000000E+00 0. -1.
         36    2    1    2    0    0  0.00000000000E+00 -0.35527136788E-14  0.64928250538E+03  0.11914812323E+04  0.99902940653E+03 0.  0.
         25    2    3    3    0    0  0.22715542858E+02 -0.29456499422E+02  0.28136489686E+03  0.30996948005E+03  0.12462420364E+03 0.  0.
         35    2    3    3    0    0 -0.22715542858E+02  0.29456499422E+02  0.36791760852E+03  0.88151175223E+03  0.80019742653E+03 0.  0.
         22    1    5    5    0    0  0.17202567576E+03  0.10318123073E+03  0.56208096539E+03  0.59680332702E+03  0.00000000000E+00 0. -1.
         22    1    5    5    0    0 -0.19474121862E+03 -0.73724731308E+02 -0.19416335687E+03  0.28470842521E+03  0.00000000000E+00 0. -1.
          5    1    4    4  502    0  0.64619545189E+02 -0.28197105363E+02  0.24258917103E+03  0.25267045390E+03  0.47000000000E+01 0. -1.
         -5    1    4    4    0  502 -0.41904002331E+02 -0.12593940593E+01  0.38775725830E+02  0.57299026156E+02  0.47000000000E+01 0. -1.
<mgrwt>
<rscale>  0 0.99902941E+03</rscale>
<asrwt>0</asrwt>
<pdfrwt beam="1">  1        1 0.14159721E+00 0.99902941E+03</pdfrwt>
<pdfrwt beam="2">  1       -1 0.41707595E-01 0.99902941E+03</pdfrwt>
<totfact> 0.11127218E+02</totfact>
</mgrwt>
</event>
<event>
 9    1  0.4497870E-036  0.1000964E+04  0.7818608E-02  0.8680120E-01
          2   -1    0    0  501    0  0.00000000000E+00  0.00000000000E+00  0.14094458799E+04  0.14094458799E+04  0.00000000000E+00 0.  1.
         -2   -1    0    0    0  501 -0.00000000000E+00 -0.00000000000E+00 -0.17771698305E+03  0.17771698305E+03  0.00000000000E+00 0.  1.
         36    2    1    2    0    0  0.00000000000E+00 -0.28421709430E-13  0.12317288968E+04  0.15871628629E+04  0.10009644740E+04 0.  0.
         25    2    3    3    0    0 -0.59278449506E+02 -0.96849090652E+02  0.36135856065E+03  0.39915197215E+03  0.12589124905E+03 0.  0.
         35    2    3    3    0    0  0.59278449506E+02  0.96849090652E+02  0.87037033619E+03  0.11880108908E+04  0.80058208422E+03 0.  0.
         22    1    5    5    0    0 -0.63147576333E+02  0.43040123975E+03  0.60207489853E+03  0.74278329748E+03  0.00000000000E+00 0. -1.
         22    1    5    5    0    0  0.12242602584E+03 -0.33355214910E+03  0.26829543766E+03  0.44522759331E+03  0.00000000000E+00 0. -1.
          5    1    4    4  502    0  0.74753937221E+01 -0.47950806741E+02  0.29250097277E+02  0.56857889243E+02  0.47000000000E+01 0.  1.
         -5    1    4    4    0  502 -0.66753843228E+02 -0.48898283911E+02  0.33210846337E+03  0.34229408291E+03  0.47000000000E+01 0.  1.
<mgrwt>
<rscale>  0 0.10009645E+04</rscale>
<asrwt>0</asrwt>
<pdfrwt beam="1">  1        2 0.21683782E+00 0.10009645E+04</pdfrwt>
<pdfrwt beam="2">  1       -2 0.27341075E-01 0.10009645E+04</pdfrwt>
<totfact> 0.20854410E+02</totfact>
</mgrwt>
</event>
<event>
 9    1  0.4497870E-036  0.1000760E+04  0.7818608E-02  0.8680314E-01
          2   -1    0    0  501    0  0.00000000000E+00  0.00000000000E+00  0.30341607812E+03  0.30341607812E+03  0.00000000000E+00 0.  1.
         -2   -1    0    0    0  501 -0.00000000000E+00 -0.00000000000E+00 -0.82520432945E+03  0.82520432945E+03  0.00000000000E+00 0.  1.
         36    2    1    2    0    0 -0.14210854715E-13  0.00000000000E+00 -0.52178825134E+03  0.11286204076E+04  0.10007602336E+04 0.  0.
         25    2    3    3    0    0 -0.73213146107E+02 -0.59025201317E+02 -0.21887094758E+03  0.26943781064E+03  0.12588924877E+03 0.  0.
         35    2    3    3    0    0  0.73213146107E+02  0.59025201317E+02 -0.30291730375E+03  0.85918259693E+03  0.79849339558E+03 0.  0.
         22    1    5    5    0    0 -0.30465501406E+03  0.20372471035E+03 -0.26604911047E+03  0.45288029807E+03  0.00000000000E+00 0.  1.
         22    1    5    5    0    0  0.37786816016E+03 -0.14469950903E+03 -0.36868193289E+02  0.40630229886E+03  0.00000000000E+00 0.  1.
          5    1    4    4  502    0 -0.28630811257E+02 -0.45403873540E+02 -0.92824857554E+01  0.54676225432E+02  0.47000000000E+01 0. -1.
         -5    1    4    4    0  502 -0.44582334850E+02 -0.13621327777E+02 -0.20958846183E+03  0.21476158521E+03  0.47000000000E+01 0. -1.
<mgrwt>
<rscale>  0 0.10007602E+04</rscale>
<asrwt>0</asrwt>
<pdfrwt beam="1">  1        2 0.46679396E-01 0.10007602E+04</pdfrwt>
<pdfrwt beam="2">  1       -2 0.12695451E+00 0.10007602E+04</pdfrwt>
<totfact> 0.57895511E+01</totfact>
</mgrwt>
</event>
<event>
 9    1  0.4497870E-036  0.9998128E+03  0.7818608E-02  0.8681216E-01
          2   -1    0    0  501    0  0.00000000000E+00  0.00000000000E+00  0.15782575535E+04  0.15782575535E+04  0.00000000000E+00 0.  1.
         -2   -1    0    0    0  501 -0.00000000000E+00 -0.00000000000E+00 -0.15834324119E+03  0.15834324119E+03  0.00000000000E+00 0.  1.
         36    2    1    2    0    0  0.00000000000E+00  0.00000000000E+00  0.14199143123E+04  0.17366007947E+04  0.99981281538E+03 0.  0.
         25    2    3    3    0    0 -0.11084362920E+03  0.74307160417E+02  0.33559450725E+03  0.38236981559E+03  0.12559911764E+03 0.  0.
         35    2    3    3    0    0  0.11084362920E+03 -0.74307160417E+02  0.10843198050E+04  0.13542309791E+04  0.80024011452E+03 0.  0.
         22    1    5    5    0    0  0.39016125416E+03  0.14452130418E+02  0.23484097697E+03  0.45561491721E+03  0.00000000000E+00 0.  1.
         22    1    5    5    0    0 -0.27931762496E+03 -0.88759290835E+02  0.84947882805E+03  0.89861606185E+03  0.00000000000E+00 0.  1.
          5    1    4    4  502    0 -0.11135545292E+03  0.34851119392E+02  0.31827422866E+03  0.33902096108E+03  0.47000000000E+01 0.  1.
         -5    1    4    4    0  502  0.51182372359E+00  0.39456041025E+02  0.17320278589E+02  0.43348854510E+02  0.47000000000E+01 0.  1.
<mgrwt>
<rscale>  0 0.99981282E+03</rscale>
<asrwt>0</asrwt>
<pdfrwt beam="1">  1        2 0.24280884E+00 0.99981282E+03</pdfrwt>
<pdfrwt beam="2">  1       -2 0.24360500E-01 0.99981282E+03</pdfrwt>
<totfact> 0.20551077E+02</totfact>
</mgrwt>
</event>
<event>
 9    1  0.4497870E-036  0.9999547E+03  0.7818608E-02  0.8681081E-01
          2   -1    0    0  501    0  0.00000000000E+00  0.00000000000E+00  0.81607808273E+03  0.81607808273E+03  0.00000000000E+00 0.  1.
         -2   -1    0    0    0  501 -0.00000000000E+00 -0.00000000000E+00 -0.30631546553E+03  0.30631546553E+03  0.00000000000E+00 0.  1.
         36    2    1    2    0    0  0.00000000000E+00 -0.71054273576E-14  0.50976261720E+03  0.11223935483E+04  0.99995467462E+03 0.  0.
         25    2    3    3    0    0 -0.82413708519E+02  0.44993505378E+02 -0.21516097355E+02  0.15677250218E+03  0.12368605465E+03 0.  0.
         35    2    3    3    0    0  0.82413708519E+02 -0.44993505378E+02  0.53127871456E+03  0.96562104609E+03  0.80084361597E+03 0.  0.
         22    1    5    5    0    0  0.13231153327E+03 -0.39844266278E+03  0.41468645856E+03  0.59010825810E+03  0.00000000000E+00 0. -1.
         22    1    5    5    0    0 -0.49897824753E+02  0.35344915741E+03  0.11659225599E+03  0.37551278799E+03  0.00000000000E+00 0. -1.
          5    1    4    4  502    0 -0.88301772762E+02  0.63709402302E+02 -0.51572015524E+02  0.12057302269E+03  0.47000000000E+01 0.  1.
         -5    1    4    4    0  502  0.58880642434E+01 -0.18715896924E+02  0.30055918170E+02  0.36199479488E+02  0.47000000000E+01 0.  1.
<mgrwt>
<rscale>  0 0.99995467E+03</rscale>
<asrwt>0</asrwt>
<pdfrwt beam="1">  1        2 0.12555047E+00 0.99995467E+03</pdfrwt>
<pdfrwt beam="2">  1       -2 0.47125457E-01 0.99995467E+03</pdfrwt>
<totfact> 0.17324984E+02</totfact>
</mgrwt>
</event>
<event>
 9    1  0.4497870E-036  0.9992332E+03  0.7818608E-02  0.8681769E-01
          1   -1    0    0  501    0  0.00000000000E+00  0.00000000000E+00  0.16122341526E+03  0.16122341526E+03  0.00000000000E+00 0.  1.
         -1   -1    0    0    0  501 -0.00000000000E+00 -0.00000000000E+00 -0.15482659468E+04  0.15482659468E+04  0.00000000000E+00 0.  1.
         36    2    1    2    0    0  0.42632564146E-13  0.00000000000E+00 -0.13870425316E+04  0.17094893621E+04  0.99923315332E+03 0.  0.
         25    2    3    3    0    0 -0.62325058834E+02 -0.12351140467E+03 -0.29369313529E+03  0.34806577538E+03  0.12551751365E+03 0.  0.
         35    2    3    3    0    0  0.62325058834E+02  0.12351140467E+03 -0.10933493963E+04  0.13614235867E+04  0.79932584097E+03 0.  0.
         22    1    5    5    0    0 -0.34447241287E+03  0.16364451733E+01 -0.71075246392E+03  0.78983098582E+03  0.00000000000E+00 0.  1.
         22    1    5    5    0    0  0.40679747170E+03  0.12187495950E+03 -0.38259693234E+03  0.57159260087E+03  0.00000000000E+00 0.  1.
          5    1    4    4  502    0 -0.76358240560E+02 -0.19271481774E+02 -0.97626406929E+02  0.12551882823E+03  0.47000000000E+01 0. -1.
         -5    1    4    4    0  502  0.14033181726E+02 -0.10423992290E+03 -0.19606672836E+03  0.22254694715E+03  0.47000000000E+01 0. -1.
<mgrwt>
<rscale>  0 0.99923315E+03</rscale>
<asrwt>0</asrwt>
<pdfrwt beam="1">  1        1 0.24803603E-01 0.99923315E+03</pdfrwt>
<pdfrwt beam="2">  1       -1 0.23819476E+00 0.99923315E+03</pdfrwt>
<totfact> 0.14242250E+01</totfact>
</mgrwt>
</event>
<event>
 9    1  0.4497870E-036  0.1000358E+04  0.7818608E-02  0.8680697E-01
         -2   -1    0    0    0  501 -0.00000000000E+00  0.00000000000E+00  0.79631665821E+03  0.79631665821E+03  0.00000000000E+00 0. -1.
          2   -1    0    0  501    0  0.00000000000E+00 -0.00000000000E+00 -0.31417008643E+03  0.31417008643E+03  0.00000000000E+00 0. -1.
         36    2    1    2    0    0  0.28421709430E-13  0.00000000000E+00  0.48214657178E+03  0.11104867446E+04  0.10003576827E+04 0.  0.
         25    2    3    3    0    0 -0.13490301746E+03  0.56719540517E+01  0.16392479363E+02  0.17636245450E+03  0.11226756786E+03 0.  0.
         35    2    3    3    0    0  0.13490301746E+03 -0.56719540517E+01  0.46575409241E+03  0.93412429014E+03  0.79839233441E+03 0.  0.
         22    1    5    5    0    0  0.39913528440E+03 -0.23213164799E+03  0.26466358146E+03  0.53220380364E+03  0.00000000000E+00 0. -1.
         22    1    5    5    0    0 -0.26423226694E+03  0.22645969394E+03  0.20109051095E+03  0.40192048650E+03  0.00000000000E+00 0. -1.
          5    1    4    4  502    0 -0.81095002756E+02  0.41766991706E+02  0.49023520277E+02  0.10366424942E+03  0.47000000000E+01 0.  1.
         -5    1    4    4    0  502 -0.53808014704E+02 -0.36095037655E+02 -0.32631040914E+02  0.72698205072E+02  0.47000000000E+01 0.  1.
<mgrwt>
<rscale>  0 0.10003577E+04</rscale>
<asrwt>0</asrwt>
<pdfrwt beam="1">  1        2 0.48333860E-01 0.10003577E+04</pdfrwt>
<pdfrwt beam="2">  1       -2 0.12251025E+00 0.10003577E+04</pdfrwt>
<totfact> 0.61162196E+01</totfact>
</mgrwt>
</event>
<event>
 9    1  0.4497870E-036  0.9996337E+03  0.7818608E-02  0.8681387E-01
         -2   -1    0    0    0  501 -0.00000000000E+00  0.00000000000E+00  0.22513757766E+03  0.22513757766E+03  0.00000000000E+00 0. -1.
          2   -1    0    0  501    0  0.00000000000E+00 -0.00000000000E+00 -0.11096188223E+04  0.11096188223E+04  0.00000000000E+00 0. -1.
         36    2    1    2    0    0  0.71054273576E-14  0.00000000000E+00 -0.88448124464E+03  0.13347564000E+04  0.99963372047E+03 0.  0.
         25    2    3    3    0    0 -0.19943469953E+02  0.12791809646E+02  0.18314707023E+02  0.12827410877E+03  0.12472949170E+03 0.  0.
         35    2    3    3    0    0  0.19943469953E+02 -0.12791809646E+02 -0.90279595166E+03  0.12064822912E+04  0.79999851013E+03 0.  0.
         22    1    5    5    0    0  0.32526413899E+03  0.11621664309E+03 -0.77992017939E+03  0.85298215366E+03  0.00000000000E+00 0.  1.
         22    1    5    5    0    0 -0.30532066904E+03 -0.12900845274E+03 -0.12287577227E+03  0.35350013752E+03  0.00000000000E+00 0.  1.
          5    1    4    4  502    0  0.39851437811E+02 -0.21961816130E+02  0.34250055050E+02  0.57145557433E+02  0.47000000000E+01 0. -1.
         -5    1    4    4    0  502 -0.59794907764E+02  0.34753625776E+02 -0.15935348028E+02  0.71128551341E+02  0.47000000000E+01 0. -1.
<mgrwt>
<rscale>  0 0.99963372E+03</rscale>
<asrwt>0</asrwt>
<pdfrwt beam="1">  1        2 0.17071059E+00 0.99963372E+03</pdfrwt>
<pdfrwt beam="2">  1       -2 0.34636550E-01 0.99963372E+03</pdfrwt>
<totfact> 0.20264019E+02</totfact>
</mgrwt>
</event>
<event>
 9    1  0.4497870E-036  0.1002742E+04  0.7818608E-02  0.8678431E-01
         -1   -1    0    0    0  501 -0.00000000000E+00  0.00000000000E+00  0.28471478262E+03  0.28471478262E+03  0.00000000000E+00 0.  1.
          1   -1    0    0  501    0  0.00000000000E+00 -0.00000000000E+00 -0.88289395667E+03  0.88289395667E+03  0.00000000000E+00 0.  1.
         36    2    1    2    0    0  0.28421709430E-13  0.71054273576E-14 -0.59817917404E+03  0.11676087393E+04  0.10027421622E+04 0.  0.
         25    2    3    3    0    0  0.11812129063E+03 -0.21653722043E+02 -0.26791324431E+02  0.17563339056E+03  0.12533072184E+03 0.  0.
         35    2    3    3    0    0 -0.11812129063E+03  0.21653722043E+02 -0.57138784961E+03  0.99197534873E+03  0.80194107940E+03 0.  0.
         22    1    5    5    0    0 -0.42645618990E+03  0.85773808076E+02 -0.13823022974E+03  0.45643140171E+03  0.00000000000E+00 0. -1.
         22    1    5    5    0    0  0.30833489926E+03 -0.64120086033E+02 -0.43315761987E+03  0.53554394702E+03  0.00000000000E+00 0. -1.
          5    1    4    4  502    0  0.13269051600E+03 -0.27274019572E+02 -0.52359384109E+02  0.14530739927E+03  0.47000000000E+01 0. -1.
         -5    1    4    4    0  502 -0.14569225363E+02  0.56202975288E+01  0.25568059678E+02  0.30325991289E+02  0.47000000000E+01 0. -1.
<mgrwt>
<rscale>  0 0.10027422E+04</rscale>
<asrwt>0</asrwt>
<pdfrwt beam="1">  1        1 0.13582984E+00 0.10027422E+04</pdfrwt>
<pdfrwt beam="2">  1       -1 0.43802275E-01 0.10027422E+04</pdfrwt>
<totfact> 0.10942700E+02</totfact>
</mgrwt>
</event>
<event>
 9    1  0.4497870E-036  0.9999825E+03  0.7818608E-02  0.8681055E-01
          2   -1    0    0  501    0  0.00000000000E+00  0.00000000000E+00  0.19375148769E+04  0.19375148769E+04  0.00000000000E+00 0.  1.
         -2   -1    0    0    0  501 -0.00000000000E+00 -0.00000000000E+00 -0.12902675958E+03  0.12902675958E+03  0.00000000000E+00 0.  1.
         36    2    1    2    0    0  0.00000000000E+00 -0.42632564146E-13  0.18084881173E+04  0.20665416365E+04  0.99998253224E+03 0.  0.
         25    2    3    3    0    0 -0.98081911943E+02 -0.33272733351E+02  0.54005071813E+03  0.56406978381E+03  0.12566943392E+03 0.  0.
         35    2    3    3    0    0  0.98081911943E+02  0.33272733351E+02  0.12684373992E+04  0.15024718527E+04  0.79859945914E+03 0.  0.
         22    1    5    5    0    0  0.15291675066E+03  0.40266519140E+03  0.63969611568E+03  0.77118993083E+03  0.00000000000E+00 0. -1.
         22    1    5    5    0    0 -0.54834838714E+02 -0.36939245805E+03  0.62874128350E+03  0.73128192182E+03  0.00000000000E+00 0. -1.
          5    1    4    4  502    0 -0.91069630533E+02 -0.72539075402E+02  0.45972867689E+03  0.47426589739E+03  0.47000000000E+01 0.  1.
         -5    1    4    4    0  502 -0.70122814099E+01  0.39266342051E+02  0.80322041240E+02  0.89803886428E+02  0.47000000000E+01 0.  1.
<mgrwt>
<rscale>  0 0.99998253E+03</rscale>
<asrwt>0</asrwt>
<pdfrwt beam="1">  1        2 0.29807919E+00 0.99998253E+03</pdfrwt>
<pdfrwt beam="2">  1       -2 0.19850272E-01 0.99998253E+03</pdfrwt>
<totfact> 0.18429698E+02</totfact>
</mgrwt>
</event>
<event>
 9    1  0.4497870E-036  0.9998736E+03  0.7818608E-02  0.8681158E-01
         -2   -1    0    0    0  501 -0.00000000000E+00  0.00000000000E+00  0.30164209423E+03  0.30164209423E+03  0.00000000000E+00 0.  1.
          2   -1    0    0  501    0  0.00000000000E+00 -0.00000000000E+00 -0.82858735256E+03  0.82858735256E+03  0.00000000000E+00 0.  1.
         36    2    1    2    0    0  0.00000000000E+00 -0.14210854715E-13 -0.52694525833E+03  0.11302294468E+04  0.99987364056E+03 0.  0.
         25    2    3    3    0    0  0.41505977106E+02 -0.12404962565E+03 -0.22158748334E+02  0.17904649103E+03  0.12023136057E+03 0.  0.
         35    2    3    3    0    0 -0.41505977106E+02  0.12404962565E+03 -0.50478651000E+03  0.95118295575E+03  0.79550520984E+03 0.  0.
         22    1    5    5    0    0 -0.28077141534E+03  0.66598810852E+01 -0.60455770275E+03  0.66660854903E+03  0.00000000000E+00 0.  1.
         22    1    5    5    0    0  0.23926543823E+03  0.11738974456E+03  0.99771192747E+02  0.28457440673E+03  0.00000000000E+00 0.  1.
          5    1    4    4  502    0  0.46681710353E+02 -0.88333035843E+02 -0.67678749515E+02  0.12076593244E+03  0.47000000000E+01 0. -1.
         -5    1    4    4    0  502 -0.51757332463E+01 -0.35716589803E+02  0.45520001181E+02  0.58280558588E+02  0.47000000000E+01 0. -1.
<mgrwt>
<rscale>  0 0.99987364E+03</rscale>
<asrwt>0</asrwt>
<pdfrwt beam="1">  1        2 0.12747498E+00 0.99987364E+03</pdfrwt>
<pdfrwt beam="2">  1       -2 0.46406476E-01 0.99987364E+03</pdfrwt>
<totfact> 0.17507079E+02</totfact>
</mgrwt>
</event>
<event>
 9    1  0.4497870E-036  0.1006437E+04  0.7818608E-02  0.8674932E-01
         -2   -1    0    0    0  501 -0.00000000000E+00  0.00000000000E+00  0.45235705218E+03  0.45235705218E+03  0.00000000000E+00 0.  1.
          2   -1    0    0  501    0  0.00000000000E+00 -0.00000000000E+00 -0.55979814999E+03  0.55979814999E+03  0.00000000000E+00 0.  1.
         36    2    1    2    0    0 -0.14210854715E-13  0.00000000000E+00 -0.10744109781E+03  0.10121552022E+04  0.10064365672E+04 0.  0.
         25    2    3    3    0    0  0.11300710381E+03 -0.57704579038E+02  0.48622455497E+02  0.18477140585E+03  0.12520345558E+03 0.  0.
         35    2    3    3    0    0 -0.11300710381E+03  0.57704579038E+02 -0.15606355331E+03  0.82738379632E+03  0.80256319987E+03 0.  0.
         22    1    5    5    0    0 -0.22249423755E+03  0.72450000512E+02 -0.45338202245E+03  0.51020382848E+03  0.00000000000E+00 0.  1.
         22    1    5    5    0    0  0.10948713374E+03 -0.14745421474E+02  0.29731846914E+03  0.31717996784E+03  0.00000000000E+00 0.  1.
          5    1    4    4  502    0  0.52153286114E+02 -0.39901090015E+02 -0.38995288833E+02  0.76516565449E+02  0.47000000000E+01 0. -1.
         -5    1    4    4    0  502  0.60853817696E+02 -0.17803489023E+02  0.87617744330E+02  0.10825484040E+03  0.47000000000E+01 0. -1.
<mgrwt>
<rscale>  0 0.10064366E+04</rscale>
<asrwt>0</asrwt>
<pdfrwt beam="1">  1        2 0.86122792E-01 0.10064366E+04</pdfrwt>
<pdfrwt beam="2">  1       -2 0.69593393E-01 0.10064366E+04</pdfrwt>
<totfact> 0.12277382E+02</totfact>
</mgrwt>
</event>
<event>
 9    1  0.4497870E-036  0.9996132E+03  0.7818608E-02  0.8681406E-01
         -2   -1    0    0    0  501 -0.00000000000E+00  0.00000000000E+00  0.68890490824E+03  0.68890490824E+03  0.00000000000E+00 0.  1.
          2   -1    0    0  501    0  0.00000000000E+00 -0.00000000000E+00 -0.36261410029E+03  0.36261410029E+03  0.00000000000E+00 0.  1.
         36    2    1    2    0    0 -0.28421709430E-13  0.71054273576E-14  0.32629080796E+03  0.10515190085E+04  0.99961319216E+03 0.  0.
         25    2    3    3    0    0  0.11422348304E+03  0.26758954695E+02 -0.18359833566E+02  0.17182595570E+03  0.12419351767E+03 0.  0.
         35    2    3    3    0    0 -0.11422348304E+03 -0.26758954695E+02  0.34465064152E+03  0.87969305283E+03  0.80082005267E+03 0.  0.
         22    1    5    5    0    0  0.55297238917E+02 -0.31848678804E+03 -0.84186199012E+02  0.33403433190E+03  0.00000000000E+00 0. -1.
         22    1    5    5    0    0 -0.16952072196E+03  0.29172783334E+03  0.42883684053E+03  0.54565872092E+03  0.00000000000E+00 0. -1.
          5    1    4    4  502    0 -0.10603244345E+02  0.17850521976E+02 -0.39452899792E+02  0.44829579826E+02  0.47000000000E+01 0.  1.
         -5    1    4    4    0  502  0.12482672739E+03  0.89084327197E+01  0.21093066225E+02  0.12699637588E+03  0.47000000000E+01 0.  1.
<mgrwt>
<rscale>  0 0.99961319E+03</rscale>
<asrwt>0</asrwt>
<pdfrwt beam="1">  1        2 0.55786785E-01 0.99961319E+03</pdfrwt>
<pdfrwt beam="2">  1       -2 0.10598537E+00 0.99961319E+03</pdfrwt>
<totfact> 0.75491288E+01</totfact>
</mgrwt>
</event>
<event>
 9    1  0.4497870E-036  0.1000438E+04  0.7818608E-02  0.8680621E-01
         -3   -1    0    0    0  501 -0.00000000000E+00  0.00000000000E+00  0.61926921098E+03  0.61926921098E+03  0.00000000000E+00 0. -1.
          3   -1    0    0  501    0  0.00000000000E+00 -0.00000000000E+00 -0.40405533177E+03  0.40405533177E+03  0.00000000000E+00 0. -1.
         36    2    1    2    0    0 -0.71054273576E-14  0.00000000000E+00  0.21521387921E+03  0.10233245428E+04  0.10004379571E+04 0.  0.
         25    2    3    3    0    0  0.13260826716E+02 -0.14048038880E+03  0.48406296943E+02  0.19455547693E+03  0.12489225299E+03 0.  0.
         35    2    3    3    0    0 -0.13260826716E+02  0.14048038880E+03  0.16680758227E+03  0.82876906582E+03  0.79945156564E+03 0.  0.
         22    1    5    5    0    0  0.14675166705E+03 -0.60243278915E+02  0.43168741086E+03  0.45991230157E+03  0.00000000000E+00 0.  1.
         22    1    5    5    0    0 -0.16001249377E+03  0.20072366771E+03 -0.26487982860E+03  0.36885676426E+03  0.00000000000E+00 0.  1.
          5    1    4    4  502    0 -0.43156960103E+02 -0.92830882739E+02  0.61342271677E+02  0.11943642782E+03  0.47000000000E+01 0. -1.
         -5    1    4    4    0  502  0.56417786819E+02 -0.47649506061E+02 -0.12935974734E+02  0.75119049114E+02  0.47000000000E+01 0. -1.
<mgrwt>
<rscale>  0 0.10004380E+04</rscale>
<asrwt>0</asrwt>
<pdfrwt beam="1">  1        3 0.62162359E-01 0.10004380E+04</pdfrwt>
<pdfrwt beam="2">  1       -3 0.95272187E-01 0.10004380E+04</pdfrwt>
<totfact> 0.92471357E+00</totfact>
</mgrwt>
</event>
<event>
 9    1  0.4497870E-036  0.9999764E+03  0.7818608E-02  0.8681060E-01
          2   -1    0    0  501    0  0.00000000000E+00  0.00000000000E+00  0.14924165436E+04  0.14924165436E+04  0.00000000000E+00 0. -1.
         -2   -1    0    0    0  501 -0.00000000000E+00 -0.00000000000E+00 -0.16750565904E+03  0.16750565904E+03  0.00000000000E+00 0. -1.
         36    2    1    2    0    0  0.28421709430E-13 -0.71054273576E-14  0.13249108846E+04  0.16599222026E+04  0.99997643311E+03 0.  0.
         25    2    3    3    0    0 -0.11133433589E+03  0.19542316787E+02  0.11225075988E+03  0.20279181454E+03  0.12548725218E+03 0.  0.
         35    2    3    3    0    0  0.11133433589E+03 -0.19542316787E+02  0.12126601247E+04  0.14571303881E+04  0.79994196877E+03 0.  0.
         22    1    5    5    0    0 -0.76415102564E+02  0.91675201822E+02 -0.81617446075E+02  0.14458567714E+03  0.00000000000E+00 0. -1.
         22    1    5    5    0    0  0.18774943846E+03 -0.11121751861E+03  0.12942775708E+04  0.13125447110E+04  0.00000000000E+00 0. -1.
          5    1    4    4  502    0 -0.17978118413E+00  0.52563685057E+02  0.32464882274E+02  0.61959921636E+02  0.47000000000E+01 0.  1.
         -5    1    4    4    0  502 -0.11115455471E+03 -0.33021368270E+02  0.79785877602E+02  0.14083189291E+03  0.47000000000E+01 0.  1.
<mgrwt>
<rscale>  0 0.99997643E+03</rscale>
<asrwt>0</asrwt>
<pdfrwt beam="1">  1        2 0.22960254E+00 0.99997643E+03</pdfrwt>
<pdfrwt beam="2">  1       -2 0.25770102E-01 0.99997643E+03</pdfrwt>
<totfact> 0.20797557E+02</totfact>
</mgrwt>
</event>
<event>
 9    1  0.4497870E-036  0.1008807E+04  0.7818608E-02  0.8672696E-01
         -2   -1    0    0    0  501 -0.00000000000E+00  0.00000000000E+00  0.10953821581E+04  0.10953821581E+04  0.00000000000E+00 0. -1.
          2   -1    0    0  501    0  0.00000000000E+00 -0.00000000000E+00 -0.23226864615E+03  0.23226864615E+03  0.00000000000E+00 0. -1.
         36    2    1    2    0    0  0.00000000000E+00  0.00000000000E+00  0.86311351198E+03  0.13276508043E+04  0.10088070794E+04 0.  0.
         25    2    3    3    0    0 -0.12818378218E+03  0.70535014764E+02  0.20169460115E+03  0.27872053360E+03  0.12489256743E+03 0.  0.
         35    2    3    3    0    0  0.12818378218E+03 -0.70535014764E+02  0.66141891083E+03  0.10489302707E+04  0.80085795670E+03 0.  0.
         22    1    5    5    0    0  0.11118750047E+03 -0.26864056255E+03 -0.63196452888E+02  0.29753017286E+03  0.00000000000E+00 0.  1.
         22    1    5    5    0    0  0.16996281710E+02  0.19810554778E+03  0.72461536372E+03  0.75140009781E+03  0.00000000000E+00 0.  1.
          5    1    4    4  502    0 -0.37280626145E+02 -0.31393799521E+02  0.89043768789E+02  0.10161839644E+03  0.47000000000E+01 0. -1.
         -5    1    4    4    0  502 -0.90903156031E+02  0.10192881428E+03  0.11265083236E+03  0.17710213717E+03  0.47000000000E+01 0. -1.
<mgrwt>
<rscale>  0 0.10088071E+04</rscale>
<asrwt>0</asrwt>
<pdfrwt beam="1">  1        2 0.35733638E-01 0.10088071E+04</pdfrwt>
<pdfrwt beam="2">  1       -2 0.16852033E+00 0.10088071E+04</pdfrwt>
<totfact> 0.35528081E+01</totfact>
</mgrwt>
</event>
<event>
 9    1  0.4497870E-036  0.1000149E+04  0.7818608E-02  0.8680896E-01
         -1   -1    0    0    0  501 -0.00000000000E+00  0.00000000000E+00  0.16452454787E+03  0.16452454787E+03  0.00000000000E+00 0.  1.
          1   -1    0    0  501    0  0.00000000000E+00 -0.00000000000E+00 -0.15199842109E+04  0.15199842109E+04  0.00000000000E+00 0.  1.
         36    2    1    2    0    0  0.00000000000E+00  0.00000000000E+00 -0.13554596630E+04  0.16845087588E+04  0.10001494190E+04 0.  0.
         25    2    3    3    0    0 -0.38288496284E+02  0.67281264220E+02 -0.45022795194E+03  0.47365089385E+03  0.12508870081E+03 0.  0.
         35    2    3    3    0    0  0.38288496284E+02 -0.67281264220E+02 -0.90523171109E+03  0.12108578649E+04  0.80046207956E+03 0.  0.
         22    1    5    5    0    0  0.12692590091E+03 -0.19845773724E+03  0.51480964701E+02  0.24113470825E+03  0.00000000000E+00 0.  1.
         22    1    5    5    0    0 -0.88637404625E+02  0.13117647302E+03 -0.95671267580E+03  0.96972315668E+03  0.00000000000E+00 0.  1.
          5    1    4    4  502    0 -0.58972845357E+02  0.51336969007E+01 -0.92322794616E+02  0.10977130654E+03  0.47000000000E+01 0.  1.
         -5    1    4    4    0  502  0.20684349073E+02  0.62147567320E+02 -0.35790515733E+03  0.36387958731E+03  0.47000000000E+01 0.  1.
<mgrwt>
<rscale>  0 0.10001494E+04</rscale>
<asrwt>0</asrwt>
<pdfrwt beam="1">  1        1 0.23384372E+00 0.10001494E+04</pdfrwt>
<pdfrwt beam="2">  1       -1 0.25311469E-01 0.10001494E+04</pdfrwt>
<totfact> 0.93676688E+01</totfact>
</mgrwt>
</event>
<event>
 9    1  0.4497870E-036  0.1000025E+04  0.7818608E-02  0.8681014E-01
          2   -1    0    0  501    0  0.00000000000E+00  0.00000000000E+00  0.88648740646E+03  0.88648740646E+03  0.00000000000E+00 0. -1.
         -2   -1    0    0    0  501 -0.00000000000E+00 -0.00000000000E+00 -0.28202601468E+03  0.28202601468E+03  0.00000000000E+00 0. -1.
         36    2    1    2    0    0  0.00000000000E+00  0.00000000000E+00  0.60446139177E+03  0.11685134211E+04  0.10000250203E+04 0.  0.
         25    2    3    3    0    0  0.79633250683E+02  0.11373706528E+03  0.93921650338E+02  0.20882625997E+03  0.12453736715E+03 0.  0.
         35    2    3    3    0    0 -0.79633250683E+02 -0.11373706528E+03  0.51053974144E+03  0.95968716117E+03  0.80066912335E+03 0.  0.
         22    1    5    5    0    0 -0.78267817443E+02  0.11934921313E+03 -0.18066490748E+03  0.23023877761E+03  0.00000000000E+00 0. -1.
         22    1    5    5    0    0 -0.13654332404E+01 -0.23308627841E+03  0.69120464892E+03  0.72944838356E+03  0.00000000000E+00 0. -1.
          5    1    4    4  502    0  0.92551763632E+02  0.24174440055E+02  0.44372788529E+02  0.10555219972E+03  0.47000000000E+01 0. -1.
         -5    1    4    4    0  502 -0.12918512948E+02  0.89562625230E+02  0.49548861809E+02  0.10327406025E+03  0.47000000000E+01 0. -1.
<mgrwt>
<rscale>  0 0.10000250E+04</rscale>
<asrwt>0</asrwt>
<pdfrwt beam="1">  1        2 0.13638268E+00 0.10000250E+04</pdfrwt>
<pdfrwt beam="2">  1       -2 0.43388618E-01 0.10000250E+04</pdfrwt>
<totfact> 0.18250587E+02</totfact>
</mgrwt>
</event>
<event>
 9    1  0.4497870E-036  0.1000944E+04  0.7818608E-02  0.8680139E-01
         -2   -1    0    0    0  501 -0.00000000000E+00  0.00000000000E+00  0.11563069739E+04  0.11563069739E+04  0.00000000000E+00 0.  1.
          2   -1    0    0  501    0  0.00000000000E+00 -0.00000000000E+00 -0.21661409629E+03  0.21661409629E+03  0.00000000000E+00 0.  1.
         36    2    1    2    0    0  0.00000000000E+00  0.71054273576E-14  0.93969287763E+03  0.13729210702E+04  0.10009443345E+04 0.  0.
         25    2    3    3    0    0 -0.12742765607E+03  0.43671093556E+02  0.17710075614E+03  0.25538633522E+03  0.12534963282E+03 0.  0.
         35    2    3    3    0    0  0.12742765607E+03 -0.43671093556E+02  0.76259212149E+03  0.11175347350E+04  0.80572462305E+03 0.  0.
         22    1    5    5    0    0  0.39703088449E+03 -0.24634283350E+03  0.34537697877E+03  0.58103663595E+03  0.00000000000E+00 0. -1.
         22    1    5    5    0    0 -0.26960322842E+03  0.20267173994E+03  0.41721514272E+03  0.53649809903E+03  0.00000000000E+00 0. -1.
          5    1    4    4  502    0 -0.12112987164E+03  0.78008716426E+02  0.16258512957E+03  0.21728741335E+03  0.47000000000E+01 0. -1.
         -5    1    4    4    0  502 -0.62977844299E+01 -0.34337622870E+02  0.14515626567E+02  0.38098921870E+02  0.47000000000E+01 0. -1.
<mgrwt>
<rscale>  0 0.10009443E+04</rscale>
<asrwt>0</asrwt>
<pdfrwt beam="1">  1        2 0.33325246E-01 0.10009443E+04</pdfrwt>
<pdfrwt beam="2">  1       -2 0.17789338E+00 0.10009443E+04</pdfrwt>
<totfact> 0.32772300E+01</totfact>
</mgrwt>
</event>
<event>
 9    1  0.4497870E-036  0.9990517E+03  0.7818608E-02  0.8681942E-01
          1   -1    0    0  501    0  0.00000000000E+00  0.00000000000E+00  0.27520007597E+03  0.27520007597E+03  0.00000000000E+00 0. -1.
         -1   -1    0    0    0  501 -0.00000000000E+00 -0.00000000000E+00 -0.90670791732E+03  0.90670791732E+03  0.00000000000E+00 0. -1.
         36    2    1    2    0    0  0.14210854715E-13 -0.14210854715E-13 -0.63150784135E+03  0.11819079933E+04  0.99905172584E+03 0.  0.
         25    2    3    3    0    0  0.41226508930E+02 -0.82004400401E+02 -0.24256232469E+03  0.28795209308E+03  0.12512225952E+03 0.  0.
         35    2    3    3    0    0 -0.41226508930E+02  0.82004400401E+02 -0.38894551666E+03  0.89395590021E+03  0.79965879590E+03 0.  0.
         22    1    5    5    0    0  0.33348303572E+03  0.11516890907E+03 -0.37878885210E+03  0.51764447955E+03  0.00000000000E+00 0.  1.
         22    1    5    5    0    0 -0.37470954465E+03 -0.33164508666E+02 -0.10156664560E+02  0.37631142066E+03  0.00000000000E+00 0.  1.
          5    1    4    4  502    0  0.45468550181E+01 -0.60944968286E+02 -0.24884595722E+02  0.66153580056E+02  0.47000000000E+01 0.  1.
         -5    1    4    4    0  502  0.36679653912E+02 -0.21059432114E+02 -0.21767772897E+03  0.22179851303E+03  0.47000000000E+01 0.  1.
<mgrwt>
<rscale>  0 0.99905173E+03</rscale>
<asrwt>0</asrwt>
<pdfrwt beam="1">  1        1 0.42338473E-01 0.99905173E+03</pdfrwt>
<pdfrwt beam="2">  1       -1 0.13949352E+00 0.99905173E+03</pdfrwt>
<totfact> 0.49366335E+01</totfact>
</mgrwt>
</event>
<event>
 9    1  0.4497870E-036  0.9991700E+03  0.7818608E-02  0.8681829E-01
          1   -1    0    0  501    0  0.00000000000E+00  0.00000000000E+00  0.73720227464E+03  0.73720227464E+03  0.00000000000E+00 0.  1.
         -1   -1    0    0    0  501 -0.00000000000E+00 -0.00000000000E+00 -0.33855724293E+03  0.33855724293E+03  0.00000000000E+00 0.  1.
         36    2    1    2    0    0  0.28421709430E-13  0.28421709430E-13  0.39864503171E+03  0.10757595176E+04  0.99916999472E+03 0.  0.
         25    2    3    3    0    0 -0.90563968362E+02  0.99737160514E+02  0.10630419194E+03  0.21236754646E+03  0.12510019988E+03 0.  0.
         35    2    3    3    0    0  0.90563968362E+02 -0.99737160514E+02  0.29234083977E+03  0.86339197112E+03  0.80114492799E+03 0.  0.
         22    1    5    5    0    0  0.26403883055E+03  0.27342675715E+03  0.43734215057E+02  0.38261126112E+03  0.00000000000E+00 0.  1.
         22    1    5    5    0    0 -0.17347486219E+03 -0.37316391767E+03  0.24860662471E+03  0.48078071000E+03  0.00000000000E+00 0.  1.
          5    1    4    4  502    0  0.15961229648E+02 -0.16986820089E+02  0.25327864297E+02  0.34740518397E+02  0.47000000000E+01 0.  1.
         -5    1    4    4    0  502 -0.10652519801E+03  0.11672398060E+03  0.80976327642E+02  0.17762702806E+03  0.47000000000E+01 0.  1.
<mgrwt>
<rscale>  0 0.99916999E+03</rscale>
<asrwt>0</asrwt>
<pdfrwt beam="1">  1        1 0.11341573E+00 0.99916999E+03</pdfrwt>
<pdfrwt beam="2">  1       -1 0.52085730E-01 0.99916999E+03</pdfrwt>
<totfact> 0.10700033E+02</totfact>
</mgrwt>
</event>
<event>
 9    1  0.4497870E-036  0.1000884E+04  0.7818608E-02  0.8680197E-01
         -2   -1    0    0    0  501 -0.00000000000E+00  0.00000000000E+00  0.96905917686E+03  0.96905917686E+03  0.00000000000E+00 0. -1.
          2   -1    0    0  501    0  0.00000000000E+00 -0.00000000000E+00 -0.25843840472E+03  0.25843840472E+03  0.00000000000E+00 0. -1.
         36    2    1    2    0    0 -0.14210854715E-13 -0.71054273576E-14  0.71062077214E+03  0.12274975816E+04  0.10008838249E+04 0.  0.
         25    2    3    3    0    0  0.12145828633E+03  0.46195284243E+02  0.19079400775E+03  0.26280840929E+03  0.12561762215E+03 0.  0.
         35    2    3    3    0    0 -0.12145828633E+03 -0.46195284243E+02  0.51982676439E+03  0.96468917229E+03  0.80219649372E+03 0.  0.
         22    1    5    5    0    0  0.23521889374E+03  0.19611789545E+03  0.42388726673E+03  0.52294413830E+03  0.00000000000E+00 0. -1.
         22    1    5    5    0    0 -0.35667718007E+03 -0.24231317969E+03  0.95939497658E+02  0.44174503398E+03  0.00000000000E+00 0. -1.
          5    1    4    4  502    0  0.25022824505E+02 -0.35360532545E+02  0.94026018282E+02  0.10363151607E+03  0.47000000000E+01 0. -1.
         -5    1    4    4    0  502  0.96435461828E+02  0.81555816789E+02  0.96767989466E+02  0.15917689322E+03  0.47000000000E+01 0. -1.
<mgrwt>
<rscale>  0 0.10008838E+04</rscale>
<asrwt>0</asrwt>
<pdfrwt beam="1">  1        2 0.39759755E-01 0.10008838E+04</pdfrwt>
<pdfrwt beam="2">  1       -2 0.14908603E+00 0.10008838E+04</pdfrwt>
<totfact> 0.44751689E+01</totfact>
</mgrwt>
</event>
<event>
 9    1  0.4497870E-036  0.1000753E+04  0.7818608E-02  0.8680321E-01
          2   -1    0    0  501    0  0.00000000000E+00  0.00000000000E+00  0.20511712932E+04  0.20511712932E+04  0.00000000000E+00 0. -1.
         -2   -1    0    0    0  501 -0.00000000000E+00 -0.00000000000E+00 -0.12206520255E+03  0.12206520255E+03  0.00000000000E+00 0. -1.
         36    2    1    2    0    0  0.00000000000E+00 -0.28421709430E-13  0.19291060906E+04  0.21732364957E+04  0.10007529952E+04 0.  0.
         25    2    3    3    0    0  0.26784005866E+02 -0.98741281726E+02  0.15209565527E+03  0.22190994968E+03  0.12507483250E+03 0.  0.
         35    2    3    3    0    0 -0.26784005866E+02  0.98741281726E+02  0.17770104354E+04  0.19513265461E+04  0.79965116037E+03 0.  0.
         22    1    5    5    0    0  0.91173613599E+02 -0.49310848561E+02  0.17580267249E+04  0.17610798259E+04  0.00000000000E+00 0.  1.
         22    1    5    5    0    0 -0.11795761946E+03  0.14805213029E+03  0.18983710436E+02  0.19024672017E+03  0.00000000000E+00 0.  1.
          5    1    4    4  502    0  0.31449476787E+02 -0.40752066410E+01 -0.10425610579E+02  0.33711426183E+02  0.47000000000E+01 0.  1.
         -5    1    4    4    0  502 -0.46654709217E+01 -0.94666075085E+02  0.16252126585E+03  0.18819852349E+03  0.47000000000E+01 0.  1.
<mgrwt>
<rscale>  0 0.10007530E+04</rscale>
<asrwt>0</asrwt>
<pdfrwt beam="1">  1        2 0.31556479E+00 0.10007530E+04</pdfrwt>
<pdfrwt beam="2">  1       -2 0.18779263E-01 0.10007530E+04</pdfrwt>
<totfact> 0.17469942E+02</totfact>
</mgrwt>
</event>
<event>
 9    1  0.4497870E-036  0.1000797E+04  0.7818608E-02  0.8680279E-01
         -3   -1    0    0    0  501 -0.00000000000E+00  0.00000000000E+00  0.65611361656E+03  0.65611361656E+03  0.00000000000E+00 0.  1.
          3   -1    0    0  501    0  0.00000000000E+00 -0.00000000000E+00 -0.38163921033E+03  0.38163921033E+03  0.00000000000E+00 0.  1.
         36    2    1    2    0    0 -0.12434497876E-13 -0.28421709430E-13  0.27447440622E+03  0.10377528269E+04  0.10007970474E+04 0.  0.
         25    2    3    3    0    0  0.93605756097E+01  0.13581275953E+03  0.84851082334E+02  0.20293165030E+03  0.12429329223E+03 0.  0.
         35    2    3    3    0    0 -0.93605756097E+01 -0.13581275953E+03  0.18962332389E+03  0.83482117659E+03  0.80152146939E+03 0.  0.
         22    1    5    5    0    0 -0.13674281450E+03  0.27310696566E+03  0.25959349301E+03  0.40084260455E+03  0.00000000000E+00 0. -1.
         22    1    5    5    0    0  0.12738223889E+03 -0.40891972519E+03 -0.69970169120E+02  0.43397857205E+03  0.00000000000E+00 0. -1.
          5    1    4    4  502    0 -0.40092198214E+01  0.13948969990E+03  0.25670136366E+02  0.14196653170E+03  0.47000000000E+01 0.  1.
         -5    1    4    4    0  502  0.13369795431E+02 -0.36769403699E+01  0.59180945968E+02  0.60965118601E+02  0.47000000000E+01 0.  1.
<mgrwt>
<rscale>  0 0.10007970E+04</rscale>
<asrwt>0</asrwt>
<pdfrwt beam="1">  1        3 0.58713725E-01 0.10007970E+04</pdfrwt>
<pdfrwt beam="2">  1       -3 0.10094056E+00 0.10007970E+04</pdfrwt>
<totfact> 0.89795808E+00</totfact>
</mgrwt>
</event>
<event>
 9    1  0.4497870E-036  0.1000191E+04  0.7818608E-02  0.8680856E-01
          1   -1    0    0  501    0  0.00000000000E+00  0.00000000000E+00  0.90680116881E+03  0.90680116881E+03  0.00000000000E+00 0.  1.
         -1   -1    0    0    0  501 -0.00000000000E+00 -0.00000000000E+00 -0.27579983519E+03  0.27579983519E+03  0.00000000000E+00 0.  1.
         36    2    1    2    0    0  0.71054273576E-14 -0.28421709430E-13  0.63100133361E+03  0.11826010040E+04  0.10001912075E+04 0.  0.
         25    2    3    3    0    0  0.53796651926E+02 -0.54475921027E+02  0.25899823565E+03  0.29783069140E+03  0.12554413144E+03 0.  0.
         35    2    3    3    0    0 -0.53796651926E+02  0.54475921027E+02  0.37200309796E+03  0.88477031260E+03  0.79910606019E+03 0.  0.
         22    1    5    5    0    0 -0.38700519709E+02 -0.31344087437E+03 -0.55376479941E+02  0.32063915307E+03  0.00000000000E+00 0.  1.
         22    1    5    5    0    0 -0.15096132217E+02  0.36791679540E+03  0.42737957790E+03  0.56413115953E+03  0.00000000000E+00 0.  1.
          5    1    4    4  502    0 -0.14405840644E+02  0.28471628494E+02  0.10636012134E+03  0.11114282382E+03  0.47000000000E+01 0. -1.
         -5    1    4    4    0  502  0.68202492569E+02 -0.82947549521E+02  0.15263811431E+03  0.18668786759E+03  0.47000000000E+01 0. -1.
<mgrwt>
<rscale>  0 0.10001912E+04</rscale>
<asrwt>0</asrwt>
<pdfrwt beam="1">  1        1 0.13950787E+00 0.10001912E+04</pdfrwt>
<pdfrwt beam="2">  1       -1 0.42430744E-01 0.10001912E+04</pdfrwt>
<totfact> 0.11070603E+02</totfact>
</mgrwt>
</event>
<event>
 9    1  0.4497870E-036  0.9993260E+03  0.7818608E-02  0.8681680E-01
         -2   -1    0    0    0  501 -0.00000000000E+00  0.00000000000E+00  0.19959735840E+03  0.19959735840E+03  0.00000000000E+00 0.  1.
          2   -1    0    0  501    0  0.00000000000E+00 -0.00000000000E+00 -0.12508338135E+04  0.12508338135E+04  0.00000000000E+00 0.  1.
         36    2    1    2    0    0 -0.14210854715E-13 -0.10658141036E-13 -0.10512364551E+04  0.14504311719E+04  0.99932602281E+03 0.  0.
         25    2    3    3    0    0  0.10326648601E+03 -0.13450831827E+02 -0.62966745958E+02  0.17475048208E+03  0.12541143441E+03 0.  0.
         35    2    3    3    0    0 -0.10326648601E+03  0.13450831827E+02 -0.98826970910E+03  0.12756806898E+04  0.79989956391E+03 0.  0.
         22    1    5    5    0    0 -0.81718736279E+02 -0.17990865366E+03  0.62347487933E+02  0.20720107329E+03  0.00000000000E+00 0.  1.
         22    1    5    5    0    0 -0.21547749734E+02  0.19335948549E+03 -0.10506171970E+04  0.10684796165E+04  0.00000000000E+00 0.  1.
          5    1    4    4  502    0  0.12979846861E+03 -0.15728239632E+01 -0.64970222776E+02  0.14523545048E+03  0.47000000000E+01 0. -1.
         -5    1    4    4    0  502 -0.26531982592E+02 -0.11878007864E+02  0.20034768178E+01  0.29515031602E+02  0.47000000000E+01 0. -1.
<mgrwt>
<rscale>  0 0.99932602E+03</rscale>
<asrwt>0</asrwt>
<pdfrwt beam="1">  1        2 0.19243597E+00 0.99932602E+03</pdfrwt>
<pdfrwt beam="2">  1       -2 0.30707286E-01 0.99932602E+03</pdfrwt>
<totfact> 0.20861030E+02</totfact>
</mgrwt>
</event>
<event>
 9    1  0.4497870E-036  0.9999236E+03  0.7818608E-02  0.8681111E-01
          2   -1    0    0  501    0  0.00000000000E+00  0.00000000000E+00  0.88324252541E+03  0.88324252541E+03  0.00000000000E+00 0.  1.
         -2   -1    0    0    0  501 -0.00000000000E+00 -0.00000000000E+00 -0.28300472741E+03  0.28300472741E+03  0.00000000000E+00 0.  1.
         36    2    1    2    0    0  0.00000000000E+00 -0.71054273576E-14  0.60023779801E+03  0.11662472528E+04  0.99992361736E+03 0.  0.
         25    2    3    3    0    0  0.10561628484E+03  0.21805256998E+02  0.76572051158E+01  0.16478674152E+03  0.12436144312E+03 0.  0.
         35    2    3    3    0    0 -0.10561628484E+03 -0.21805256998E+02  0.59258059289E+03  0.10014605113E+04  0.80008819999E+03 0.  0.
         22    1    5    5    0    0  0.31496581701E+03 -0.69296765576E+02  0.71837388025E+02  0.33040296295E+03  0.00000000000E+00 0. -1.
         22    1    5    5    0    0 -0.42058210185E+03  0.47491508578E+02  0.52074320487E+03  0.67105754835E+03  0.00000000000E+00 0. -1.
          5    1    4    4  502    0  0.85524268844E+02  0.69019615906E+02  0.19995907344E+02  0.11180355205E+03  0.47000000000E+01 0.  1.
         -5    1    4    4    0  502  0.20092015992E+02 -0.47214358908E+02 -0.12338702228E+02  0.52983189469E+02  0.47000000000E+01 0.  1.
<mgrwt>
<rscale>  0 0.99992362E+03</rscale>
<asrwt>0</asrwt>
<pdfrwt beam="1">  1        2 0.13588346E+00 0.99992362E+03</pdfrwt>
<pdfrwt beam="2">  1       -2 0.43539189E-01 0.99992362E+03</pdfrwt>
<totfact> 0.18218256E+02</totfact>
</mgrwt>
</event>
<event>
 9    1  0.4497870E-036  0.9990416E+03  0.7818608E-02  0.8681951E-01
         -1   -1    0    0    0  501 -0.00000000000E+00  0.00000000000E+00  0.29037772837E+03  0.29037772837E+03  0.00000000000E+00 0. -1.
          1   -1    0    0  501    0  0.00000000000E+00 -0.00000000000E+00 -0.85929803122E+03  0.85929803122E+03  0.00000000000E+00 0. -1.
         36    2    1    2    0    0  0.71054273576E-14  0.14210854715E-13 -0.56892030285E+03  0.11496757596E+04  0.99904156129E+03 0.  0.
         25    2    3    3    0    0  0.63142938696E+02 -0.12345728743E+03 -0.10784439378E+03  0.21565009825E+03  0.12508324859E+03 0.  0.
         35    2    3    3    0    0 -0.63142938696E+02  0.12345728743E+03 -0.46107590907E+03  0.93402566133E+03  0.80036504770E+03 0.  0.
         22    1    5    5    0    0 -0.35674015300E+03 -0.15455438911E+03 -0.32706641471E+03  0.50805810257E+03  0.00000000000E+00 0. -1.
         22    1    5    5    0    0  0.29359721430E+03  0.27801167654E+03 -0.13400949435E+03  0.42596755876E+03  0.00000000000E+00 0. -1.
          5    1    4    4  502    0 -0.19770589151E+02  0.63106022123E+01  0.81643837229E+01  0.22791381205E+02  0.47000000000E+01 0. -1.
         -5    1    4    4    0  502  0.82913527846E+02 -0.12976788964E+03 -0.11600877751E+03  0.19285871705E+03  0.47000000000E+01 0. -1.
<mgrwt>
<rscale>  0 0.99904156E+03</rscale>
<asrwt>0</asrwt>
<pdfrwt beam="1">  1        1 0.13219970E+00 0.99904156E+03</pdfrwt>
<pdfrwt beam="2">  1       -1 0.44673497E-01 0.99904156E+03</pdfrwt>
<totfact> 0.11059526E+02</totfact>
</mgrwt>
</event>
<event>
 9    1  0.4497870E-036  0.9997473E+03  0.7818608E-02  0.8681279E-01
          1   -1    0    0  501    0  0.00000000000E+00  0.00000000000E+00  0.33904113238E+03  0.33904113238E+03  0.00000000000E+00 0. -1.
         -1   -1    0    0    0  501 -0.00000000000E+00 -0.00000000000E+00 -0.73700103261E+03  0.73700103261E+03  0.00000000000E+00 0. -1.
         36    2    1    2    0    0 -0.28421709430E-13  0.14210854715E-13 -0.39795990023E+03  0.10760421650E+04  0.99974729740E+03 0.  0.
         25    2    3    3    0    0  0.11496091236E+03  0.13722054783E+02 -0.16020423166E+03  0.23373266178E+03  0.12474476014E+03 0.  0.
         35    2    3    3    0    0 -0.11496091236E+03 -0.13722054783E+02 -0.23775566858E+03  0.84230950322E+03  0.79972072320E+03 0.  0.
         22    1    5    5    0    0  0.16093125992E+03 -0.67342170101E+02 -0.45486042427E+03  0.48716716213E+03  0.00000000000E+00 0.  1.
         22    1    5    5    0    0 -0.27589217228E+03  0.53620115318E+02  0.21710475569E+03  0.35514234109E+03  0.00000000000E+00 0.  1.
          5    1    4    4  502    0  0.23405872035E+02  0.40817634375E+02 -0.13064410255E+00  0.47286585726E+02  0.47000000000E+01 0. -1.
         -5    1    4    4    0  502  0.91555040324E+02 -0.27095579592E+02 -0.16007358756E+03  0.18644607605E+03  0.47000000000E+01 0. -1.
<mgrwt>
<rscale>  0 0.99974730E+03</rscale>
<asrwt>0</asrwt>
<pdfrwt beam="1">  1        1 0.52160175E-01 0.99974730E+03</pdfrwt>
<pdfrwt beam="2">  1       -1 0.11338477E+00 0.99974730E+03</pdfrwt>
<totfact> 0.63800201E+01</totfact>
</mgrwt>
</event>
<event>
 9    1  0.4497870E-036  0.9994177E+03  0.7818608E-02  0.8681593E-01
          1   -1    0    0  501    0  0.00000000000E+00  0.00000000000E+00  0.13095669224E+04  0.13095669224E+04  0.00000000000E+00 0.  1.
         -1   -1    0    0    0  501 -0.00000000000E+00 -0.00000000000E+00 -0.19068055396E+03  0.19068055396E+03  0.00000000000E+00 0.  1.
         36    2    1    2    0    0  0.00000000000E+00  0.00000000000E+00  0.11188863684E+04  0.15002474763E+04  0.99941772289E+03 0.  0.
         25    2    3    3    0    0 -0.45715652978E+02 -0.68278399460E+02  0.39534977443E+02  0.15437243978E+03  0.12456313645E+03 0.  0.
         35    2    3    3    0    0  0.45715652978E+02  0.68278399460E+02  0.10793513910E+04  0.13458750366E+04  0.79976767132E+03 0.  0.
         22    1    5    5    0    0 -0.18459673304E+03 -0.13502682351E+02 -0.48912587864E+02  0.19144377120E+03  0.00000000000E+00 0. -1.
         22    1    5    5    0    0  0.23031238602E+03  0.81781081811E+02  0.11282639788E+04  0.11544312653E+04  0.00000000000E+00 0. -1.
          5    1    4    4  502    0 -0.86796362620E+02 -0.35613612933E+02  0.38905329599E+02  0.10167424778E+03  0.47000000000E+01 0. -1.
         -5    1    4    4    0  502  0.41080709641E+02 -0.32664786527E+02  0.62964784385E+00  0.52698191998E+02  0.47000000000E+01 0. -1.
<mgrwt>
<rscale>  0 0.99941772E+03</rscale>
<asrwt>0</asrwt>
<pdfrwt beam="1">  1        1 0.20147183E+00 0.99941772E+03</pdfrwt>
<pdfrwt beam="2">  1       -1 0.29335471E-01 0.99941772E+03</pdfrwt>
<totfact> 0.10336221E+02</totfact>
</mgrwt>
</event>
<event>
 9    1  0.4497870E-036  0.1000278E+04  0.7818608E-02  0.8680773E-01
          2   -1    0    0  501    0  0.00000000000E+00  0.00000000000E+00  0.12438974292E+04  0.12438974292E+04  0.00000000000E+00 0.  1.
         -2   -1    0    0    0  501 -0.00000000000E+00 -0.00000000000E+00 -0.20109307966E+03  0.20109307966E+03  0.00000000000E+00 0.  1.
         36    2    1    2    0    0  0.00000000000E+00 -0.14210854715E-13  0.10428043496E+04  0.14449905089E+04  0.10002782909E+04 0.  0.
         25    2    3    3    0    0  0.13429800026E+03  0.19562350672E+02  0.14446871069E+03  0.23462854375E+03  0.12554165339E+03 0.  0.
         35    2    3    3    0    0 -0.13429800026E+03 -0.19562350672E+02  0.89833563890E+03  0.12103619652E+04  0.79971903077E+03 0.  0.
         22    1    5    5    0    0 -0.47046273196E+02  0.22702112525E+03 -0.40865251637E+02  0.23541858873E+03  0.00000000000E+00 0. -1.
         22    1    5    5    0    0 -0.87251727062E+02 -0.24658347592E+03  0.93920089053E+03  0.97494337643E+03  0.00000000000E+00 0. -1.
          5    1    4    4  502    0  0.69777652594E+02 -0.34895029104E+02  0.14377187807E+02  0.79469348726E+02  0.47000000000E+01 0. -1.
         -5    1    4    4    0  502  0.64520347663E+02  0.54457379775E+02  0.13009152288E+03  0.15515919502E+03  0.47000000000E+01 0. -1.
<mgrwt>
<rscale>  0 0.10002783E+04</rscale>
<asrwt>0</asrwt>
<pdfrwt beam="1">  1        2 0.19136883E+00 0.10002783E+04</pdfrwt>
<pdfrwt beam="2">  1       -2 0.30937398E-01 0.10002783E+04</pdfrwt>
<totfact> 0.20771038E+02</totfact>
</mgrwt>
</event>
<event>
 9    1  0.4497870E-036  0.1000374E+04  0.7818608E-02  0.8680682E-01
          1   -1    0    0  501    0  0.00000000000E+00  0.00000000000E+00  0.51061637491E+03  0.51061637491E+03  0.00000000000E+00 0.  1.
         -1   -1    0    0    0  501 -0.00000000000E+00 -0.00000000000E+00 -0.48997061538E+03  0.48997061538E+03  0.00000000000E+00 0.  1.
         36    2    1    2    0    0  0.00000000000E+00  0.00000000000E+00  0.20645759530E+02  0.10005869903E+04  0.10003739689E+04 0.  0.
         25    2    3    3    0    0  0.66064264663E+02  0.68059259122E+02 -0.97169939907E+02  0.18587576643E+03  0.12693011268E+03 0.  0.
         35    2    3    3    0    0 -0.66064264663E+02 -0.68059259122E+02  0.11781569944E+03  0.81471122386E+03  0.80054811813E+03 0.  0.
         22    1    5    5    0    0 -0.17106071305E+03 -0.26238174130E+03  0.36649550595E+03  0.48210465835E+03  0.00000000000E+00 0. -1.
         22    1    5    5    0    0  0.10499644839E+03  0.19432248218E+03 -0.24867980652E+03  0.33260656551E+03  0.00000000000E+00 0. -1.
          5    1    4    4  502    0  0.75296714523E+02 -0.11848309604E+02 -0.34511095757E+02  0.83803838747E+02  0.47000000000E+01 0. -1.
         -5    1    4    4    0  502 -0.92324498604E+01  0.79907568725E+02 -0.62658844150E+02  0.10207192768E+03  0.47000000000E+01 0. -1.
<mgrwt>
<rscale>  0 0.10003740E+04</rscale>
<asrwt>0</asrwt>
<pdfrwt beam="1">  1        1 0.78556366E-01 0.10003740E+04</pdfrwt>
<pdfrwt beam="2">  1       -1 0.75380094E-01 0.10003740E+04</pdfrwt>
<totfact> 0.89763296E+01</totfact>
</mgrwt>
</event>
<event>
 9    1  0.4497870E-036  0.9993532E+03  0.7818608E-02  0.8681654E-01
          2   -1    0    0  501    0  0.00000000000E+00  0.00000000000E+00  0.11006229478E+04  0.11006229478E+04  0.00000000000E+00 0.  1.
         -2   -1    0    0    0  501 -0.00000000000E+00 -0.00000000000E+00 -0.22685034510E+03  0.22685034510E+03  0.00000000000E+00 0.  1.
         36    2    1    2    0    0  0.14210854715E-13  0.00000000000E+00  0.87377260270E+03  0.13274732929E+04  0.99935318187E+03 0.  0.
         25    2    3    3    0    0 -0.74924031745E+02  0.10700859512E+03  0.96520220342E+02  0.20509164631E+03  0.12522771454E+03 0.  0.
         35    2    3    3    0    0  0.74924031745E+02 -0.10700859512E+03  0.77725238236E+03  0.11223816466E+04  0.79909626750E+03 0.  0.
         22    1    5    5    0    0 -0.21853503251E+03 -0.17034075075E+03 -0.12632761383E+02  0.27736820016E+03  0.00000000000E+00 0. -1.
         22    1    5    5    0    0  0.29345906425E+03  0.63332155624E+02  0.78988514374E+03  0.84501344642E+03  0.00000000000E+00 0. -1.
          5    1    4    4  502    0 -0.20698335977E+01  0.83001154538E+02  0.18842366866E+01  0.83181225127E+02  0.47000000000E+01 0.  1.
         -5    1    4    4    0  502 -0.72854198147E+02  0.24007440584E+02  0.94635983655E+02  0.12191042118E+03  0.47000000000E+01 0.  1.
<mgrwt>
<rscale>  0 0.99935318E+03</rscale>
<asrwt>0</asrwt>
<pdfrwt beam="1">  1        2 0.16932660E+00 0.99935318E+03</pdfrwt>
<pdfrwt beam="2">  1       -2 0.34900054E-01 0.99935318E+03</pdfrwt>
<totfact> 0.20231940E+02</totfact>
</mgrwt>
</event>
<event>
 9    1  0.4497870E-036  0.9998127E+03  0.7818608E-02  0.8681216E-01
          2   -1    0    0  501    0  0.00000000000E+00  0.00000000000E+00  0.20227408590E+04  0.20227408590E+04  0.00000000000E+00 0. -1.
         -2   -1    0    0    0  501 -0.00000000000E+00 -0.00000000000E+00 -0.12354837428E+03  0.12354837428E+03  0.00000000000E+00 0. -1.
         36    2    1    2    0    0  0.28421709430E-13  0.00000000000E+00  0.18991924847E+04  0.21462892333E+04  0.99981267191E+03 0.  0.
         25    2    3    3    0    0  0.11495556830E+03 -0.73253060462E+02  0.42121842051E+03  0.45722775561E+03  0.11424302679E+03 0.  0.
         35    2    3    3    0    0 -0.11495556830E+03  0.73253060462E+02  0.14779740642E+04  0.16890614777E+04  0.80618890302E+03 0.  0.
         22    1    5    5    0    0 -0.43850617296E+03  0.77835058962E+02  0.11263726942E+04  0.12112231035E+04  0.00000000000E+00 0.  1.
         22    1    5    5    0    0  0.32355060465E+03 -0.45819984999E+01  0.35160137002E+03  0.47783837422E+03  0.00000000000E+00 0.  1.
          5    1    4    4  502    0  0.93333370610E+02  0.71680176734E+01  0.24327588604E+03  0.26070624326E+03  0.47000000000E+01 0.  1.
         -5    1    4    4    0  502  0.21622197694E+02 -0.80421078136E+02  0.17794253447E+03  0.19652151235E+03  0.47000000000E+01 0.  1.
<mgrwt>
<rscale>  0 0.99981267E+03</rscale>
<asrwt>0</asrwt>
<pdfrwt beam="1">  1        2 0.31119088E+00 0.99981267E+03</pdfrwt>
<pdfrwt beam="2">  1       -2 0.19007444E-01 0.99981267E+03</pdfrwt>
<totfact> 0.17763424E+02</totfact>
</mgrwt>
</event>
<event>
 9    1  0.4497870E-036  0.9985329E+03  0.7818608E-02  0.8682436E-01
         -1   -1    0    0    0  501 -0.00000000000E+00  0.00000000000E+00  0.15399429233E+03  0.15399429233E+03  0.00000000000E+00 0.  1.
          1   -1    0    0  501    0  0.00000000000E+00 -0.00000000000E+00 -0.16186767239E+04  0.16186767239E+04  0.00000000000E+00 0.  1.
         36    2    1    2    0    0  0.00000000000E+00 -0.28421709430E-13 -0.14646824316E+04  0.17726710162E+04  0.99853287700E+03 0.  0.
         25    2    3    3    0    0 -0.13798536928E+03 -0.41434905967E+02 -0.32182058422E+03  0.37271336550E+03  0.12078886879E+03 0.  0.
         35    2    3    3    0    0  0.13798536928E+03  0.41434905967E+02 -0.11428618473E+04  0.13999576507E+04  0.79560757171E+03 0.  0.
         22    1    5    5    0    0 -0.61832158378E+02 -0.19737577272E+03 -0.10568738192E+04  0.10769227833E+04  0.00000000000E+00 0.  1.
         22    1    5    5    0    0  0.19981752766E+03  0.23881067868E+03 -0.85988028176E+02  0.32303486747E+03  0.00000000000E+00 0.  1.
          5    1    4    4  502    0  0.61350099963E+01  0.22756771293E+02 -0.16957821497E+02  0.29413716142E+02  0.47000000000E+01 0. -1.
         -5    1    4    4    0  502 -0.14412037928E+03 -0.64191677261E+02 -0.30486276273E+03  0.34329964936E+03  0.47000000000E+01 0. -1.
<mgrwt>
<rscale>  0 0.99853288E+03</rscale>
<asrwt>0</asrwt>
<pdfrwt beam="1">  1        1 0.24902719E+00 0.99853288E+03</pdfrwt>
<pdfrwt beam="2">  1       -1 0.23691429E-01 0.99853288E+03</pdfrwt>
<totfact> 0.89099277E+01</totfact>
</mgrwt>
</event>
<event>
 9    1  0.4497870E-036  0.1002165E+04  0.7818608E-02  0.8678979E-01
          2   -1    0    0  501    0  0.00000000000E+00  0.00000000000E+00  0.99305433876E+03  0.99305433876E+03  0.00000000000E+00 0. -1.
         -2   -1    0    0    0  501 -0.00000000000E+00 -0.00000000000E+00 -0.25283972364E+03  0.25283972364E+03  0.00000000000E+00 0. -1.
         36    2    1    2    0    0  0.71054273576E-14 -0.42632564146E-13  0.74021461512E+03  0.12458940624E+04  0.10021648259E+04 0.  0.
         25    2    3    3    0    0  0.17691972597E+02 -0.96183368812E+02  0.26412482587E+03  0.30815281415E+03  0.12502794445E+03 0.  0.
         35    2    3    3    0    0 -0.17691972597E+02  0.96183368812E+02  0.47608978925E+03  0.93774124825E+03  0.80195568139E+03 0.  0.
         22    1    5    5    0    0 -0.28239798265E+03  0.27305833899E+03  0.47886000095E+03  0.61936772406E+03  0.00000000000E+00 0. -1.
         22    1    5    5    0    0  0.26470601006E+03 -0.17687497018E+03 -0.27702116968E+01  0.31837352419E+03  0.00000000000E+00 0. -1.
          5    1    4    4  502    0 -0.52311564064E+02 -0.23386026985E+02  0.89686395116E+02  0.10653236814E+03  0.47000000000E+01 0.  1.
         -5    1    4    4    0  502  0.70003536661E+02 -0.72797341827E+02  0.17443843076E+03  0.20162044600E+03  0.47000000000E+01 0.  1.
<mgrwt>
<rscale>  0 0.10021648E+04</rscale>
<asrwt>0</asrwt>
<pdfrwt beam="1">  1        2 0.15277759E+00 0.10021648E+04</pdfrwt>
<pdfrwt beam="2">  1       -2 0.38898420E-01 0.10021648E+04</pdfrwt>
<totfact> 0.19218400E+02</totfact>
</mgrwt>
</event>
<event>
 9    1  0.4497870E-036  0.9996422E+03  0.7818608E-02  0.8681379E-01
         -2   -1    0    0    0  501 -0.00000000000E+00  0.00000000000E+00  0.29648726833E+03  0.29648726833E+03  0.00000000000E+00 0. -1.
          2   -1    0    0  501    0  0.00000000000E+00 -0.00000000000E+00 -0.84260331878E+03  0.84260331878E+03  0.00000000000E+00 0. -1.
         36    2    1    2    0    0 -0.14210854715E-13 -0.10658141036E-13 -0.54611605045E+03  0.11390905871E+04  0.99964224855E+03 0.  0.
         25    2    3    3    0    0  0.26617137392E+02  0.24989798901E+02  0.51721833090E+02  0.13984499602E+03  0.12469367602E+03 0.  0.
         35    2    3    3    0    0 -0.26617137392E+02 -0.24989798901E+02 -0.59783788354E+03  0.99924559110E+03  0.79984289350E+03 0.  0.
         22    1    5    5    0    0  0.36996047734E+03  0.72043890600E+02 -0.18971013913E+03  0.42196091508E+03  0.00000000000E+00 0.  1.
         22    1    5    5    0    0 -0.39657761473E+03 -0.97033689502E+02 -0.40812774441E+03  0.57728467602E+03  0.00000000000E+00 0.  1.
          5    1    4    4  502    0  0.24156689672E+02 -0.49243904164E+01 -0.37763626307E+02  0.45342879802E+02  0.47000000000E+01 0.  1.
         -5    1    4    4    0  502  0.24604477209E+01  0.29914189318E+02  0.89485459397E+02  0.94502116214E+02  0.47000000000E+01 0.  1.
<mgrwt>
<rscale>  0 0.99964225E+03</rscale>
<asrwt>0</asrwt>
<pdfrwt beam="1">  1        2 0.12963128E+00 0.99964225E+03</pdfrwt>
<pdfrwt beam="2">  1       -2 0.45613427E-01 0.99964225E+03</pdfrwt>
<totfact> 0.17715282E+02</totfact>
</mgrwt>
</event>
<event>
 9    1  0.4497870E-036  0.9986267E+03  0.7818608E-02  0.8682347E-01
          1   -1    0    0  501    0  0.00000000000E+00  0.00000000000E+00  0.94252505738E+03  0.94252505738E+03  0.00000000000E+00 0. -1.
         -1   -1    0    0    0  501 -0.00000000000E+00 -0.00000000000E+00 -0.26451692097E+03  0.26451692097E+03  0.00000000000E+00 0. -1.
         36    2    1    2    0    0 -0.28421709430E-13  0.00000000000E+00  0.67800813641E+03  0.12070419783E+04  0.99862670926E+03 0.  0.
         25    2    3    3    0    0  0.10411124287E+03 -0.78644055649E+02  0.17308175967E+03  0.25041641133E+03  0.12540751633E+03 0.  0.
         35    2    3    3    0    0 -0.10411124287E+03  0.78644055649E+02  0.50492637674E+03  0.95662556701E+03  0.80197119097E+03 0.  0.
         22    1    5    5    0    0 -0.27573314612E+03 -0.23468988023E+02 -0.11921276429E+03  0.30131585494E+03  0.00000000000E+00 0. -1.
         22    1    5    5    0    0  0.17162190325E+03  0.10211304367E+03  0.62413914104E+03  0.65530971207E+03  0.00000000000E+00 0. -1.
          5    1    4    4  502    0  0.57072279256E+02  0.17239066324E+02  0.11283903165E+03  0.12770735112E+03  0.47000000000E+01 0.  1.
         -5    1    4    4    0  502  0.47038963617E+02 -0.95883121973E+02  0.60242728019E+02  0.12270906021E+03  0.47000000000E+01 0.  1.
<mgrwt>
<rscale>  0 0.99862671E+03</rscale>
<asrwt>0</asrwt>
<pdfrwt beam="1">  1        1 0.14500385E+00 0.99862671E+03</pdfrwt>
<pdfrwt beam="2">  1       -1 0.40694911E-01 0.99862671E+03</pdfrwt>
<totfact> 0.11151820E+02</totfact>
</mgrwt>
</event>
<event>
 9    1  0.4497870E-036  0.9961056E+03  0.7818608E-02  0.8684755E-01
          2   -1    0    0  501    0  0.00000000000E+00  0.00000000000E+00  0.24807222776E+03  0.24807222776E+03  0.00000000000E+00 0. -1.
         -2   -1    0    0    0  501 -0.00000000000E+00 -0.00000000000E+00 -0.99993699213E+03  0.99993699213E+03  0.00000000000E+00 0. -1.
         36    2    1    2    0    0  0.00000000000E+00  0.28421709430E-13 -0.75186476437E+03  0.12480092199E+04  0.99610561138E+03 0.  0.
         25    2    3    3    0    0  0.11580911961E+03  0.70955314664E+02 -0.13853750764E+03  0.23078751760E+03  0.12499531347E+03 0.  0.
         35    2    3    3    0    0 -0.11580911961E+03 -0.70955314664E+02 -0.61332725673E+03  0.10172217023E+04  0.80007703311E+03 0.  0.
         22    1    5    5    0    0 -0.18242189294E+03 -0.31723955515E+03 -0.66300735501E+03  0.75729613439E+03  0.00000000000E+00 0.  1.
         22    1    5    5    0    0  0.66612773332E+02  0.24628424049E+03  0.49680098275E+02  0.25992556790E+03  0.00000000000E+00 0.  1.
          5    1    4    4  502    0  0.10558063747E+03  0.10187876825E+03 -0.13161734143E+03  0.19715924781E+03  0.47000000000E+01 0.  1.
         -5    1    4    4    0  502  0.10228482133E+02 -0.30923453589E+02 -0.69201662131E+01  0.33628269790E+02  0.47000000000E+01 0.  1.
<mgrwt>
<rscale>  0 0.99610561E+03</rscale>
<asrwt>0</asrwt>
<pdfrwt beam="1">  1        2 0.38164958E-01 0.99610561E+03</pdfrwt>
<pdfrwt beam="2">  1       -2 0.15383646E+00 0.99610561E+03</pdfrwt>
<totfact> 0.42925832E+01</totfact>
</mgrwt>
</event>
<event>
 9    1  0.4497870E-036  0.1000126E+04  0.7818608E-02  0.8680918E-01
         -1   -1    0    0    0  501 -0.00000000000E+00  0.00000000000E+00  0.28474705304E+03  0.28474705304E+03  0.00000000000E+00 0.  1.
          1   -1    0    0  501    0  0.00000000000E+00 -0.00000000000E+00 -0.87819335063E+03  0.87819335063E+03  0.00000000000E+00 0.  1.
         36    2    1    2    0    0  0.14210854715E-13 -0.35527136788E-13 -0.59344629759E+03  0.11629404037E+04  0.10001259292E+04 0.  0.
         25    2    3    3    0    0 -0.14781075630E+02 -0.14473485276E+02 -0.27105102586E+03  0.29919447065E+03  0.12498284153E+03 0.  0.
         35    2    3    3    0    0  0.14781075630E+02  0.14473485276E+02 -0.32239527173E+03  0.86374593301E+03  0.80105578057E+03 0.  0.
         22    1    5    5    0    0 -0.20093213456E+03  0.34257328034E+03 -0.23502465491E+03  0.46148322127E+03  0.00000000000E+00 0.  1.
         22    1    5    5    0    0  0.21571321019E+03 -0.32809979506E+03 -0.87370616821E+02  0.40226271174E+03  0.00000000000E+00 0.  1.
          5    1    4    4  502    0  0.53991655146E+02 -0.76203966780E+01 -0.89881912806E+02  0.10523315789E+03  0.47000000000E+01 0. -1.
         -5    1    4    4    0  502 -0.68772730776E+02 -0.68530885977E+01 -0.18116911306E+03  0.19396131276E+03  0.47000000000E+01 0. -1.
<mgrwt>
<rscale>  0 0.10001259E+04</rscale>
<asrwt>0</asrwt>
<pdfrwt beam="1">  1        1 0.13510667E+00 0.10001259E+04</pdfrwt>
<pdfrwt beam="2">  1       -1 0.43807240E-01 0.10001259E+04</pdfrwt>
<totfact> 0.11043006E+02</totfact>
</mgrwt>
</event>
<event>
 9    1  0.4497870E-036  0.1000406E+04  0.7818608E-02  0.8680651E-01
          4   -1    0    0  501    0  0.00000000000E+00  0.00000000000E+00  0.70388236567E+03  0.70388236567E+03  0.00000000000E+00 0.  1.
         -4   -1    0    0    0  501 -0.00000000000E+00 -0.00000000000E+00 -0.35546149923E+03  0.35546149923E+03  0.00000000000E+00 0.  1.
         36    2    1    2    0    0  0.00000000000E+00 -0.14210854715E-13  0.34842086644E+03  0.10593438649E+04  0.10004060795E+04 0.  0.
         25    2    3    3    0    0 -0.13747858384E+03  0.27940290234E+02  0.74434519580E+02  0.20223014159E+03  0.12520188349E+03 0.  0.
         35    2    3    3    0    0  0.13747858384E+03 -0.27940290234E+02  0.27398634686E+03  0.85711372331E+03  0.79993399452E+03 0.  0.
         22    1    5    5    0    0  0.35479713954E+03  0.73315266308E+02  0.43665840567E+03  0.56738584909E+03  0.00000000000E+00 0.  1.
         22    1    5    5    0    0 -0.21731855570E+03 -0.10125555654E+03 -0.16267205881E+03  0.28972787422E+03  0.00000000000E+00 0.  1.
          5    1    4    4  502    0 -0.12675335715E+03  0.29834584443E+02  0.35399659447E+01  0.13035005691E+03  0.47000000000E+01 0.  1.
         -5    1    4    4    0  502 -0.10725226688E+02 -0.18942942085E+01  0.70894553636E+02  0.71880084677E+02  0.47000000000E+01 0.  1.
<mgrwt>
<rscale>  0 0.10004061E+04</rscale>
<asrwt>0</asrwt>
<pdfrwt beam="1">  1        4 0.10828959E+00 0.10004061E+04</pdfrwt>
<pdfrwt beam="2">  1       -4 0.54686385E-01 0.10004061E+04</pdfrwt>
<totfact> 0.48045795E+00</totfact>
</mgrwt>
</event>
<event>
 9    1  0.4497870E-036  0.9995024E+03  0.7818608E-02  0.8681512E-01
          1   -1    0    0  501    0  0.00000000000E+00  0.00000000000E+00  0.45532260639E+03  0.45532260639E+03  0.00000000000E+00 0.  1.
         -1   -1    0    0    0  501 -0.00000000000E+00 -0.00000000000E+00 -0.54851491651E+03  0.54851491651E+03  0.00000000000E+00 0.  1.
         36    2    1    2    0    0  0.00000000000E+00 -0.28421709430E-13 -0.93192310120E+02  0.10038375229E+04  0.99950235903E+03 0.  0.
         25    2    3    3    0    0  0.77635356577E+02  0.10916690829E+03  0.18064335918E+02  0.18385984163E+03  0.12463329681E+03 0.  0.
         35    2    3    3    0    0 -0.77635356577E+02 -0.10916690829E+03 -0.11125664604E+03  0.81997768127E+03  0.80127441868E+03 0.  0.
         22    1    5    5    0    0 -0.62786034596E+02 -0.39863641949E+03 -0.27379521896E+03  0.48766474448E+03  0.00000000000E+00 0. -1.
         22    1    5    5    0    0 -0.14849321981E+02  0.28946951119E+03  0.16253857292E+03  0.33231293679E+03  0.00000000000E+00 0. -1.
          5    1    4    4  502    0 -0.16574751867E+02 -0.14180389025E+02  0.17856263437E+02  0.28578697946E+02  0.47000000000E+01 0. -1.
         -5    1    4    4    0  502  0.94210108444E+02  0.12334729732E+03  0.20807248069E+00  0.15528114368E+03  0.47000000000E+01 0. -1.
<mgrwt>
<rscale>  0 0.99950236E+03</rscale>
<asrwt>0</asrwt>
<pdfrwt beam="1">  1        1 0.70049632E-01 0.99950236E+03</pdfrwt>
<pdfrwt beam="2">  1       -1 0.84386910E-01 0.99950236E+03</pdfrwt>
<totfact> 0.83106993E+01</totfact>
</mgrwt>
</event>
<event>
 9    1  0.4497870E-036  0.9999066E+03  0.7818608E-02  0.8681127E-01
         -1   -1    0    0    0  501 -0.00000000000E+00  0.00000000000E+00  0.20185287907E+03  0.20185287907E+03  0.00000000000E+00 0. -1.
          1   -1    0    0  501    0  0.00000000000E+00 -0.00000000000E+00 -0.12382945656E+04  0.12382945656E+04  0.00000000000E+00 0. -1.
         36    2    1    2    0    0  0.28421709430E-13  0.00000000000E+00 -0.10364416866E+04  0.14401474447E+04  0.99990664206E+03 0.  0.
         25    2    3    3    0    0  0.32937301354E+02  0.13304557852E+03 -0.15110570812E+03  0.23934753811E+03  0.12517314883E+03 0.  0.
         35    2    3    3    0    0 -0.32937301354E+02 -0.13304557852E+03 -0.88533597844E+03  0.12007999066E+04  0.79957152848E+03 0.  0.
         22    1    5    5    0    0 -0.26280235728E+03 -0.22062014569E+02  0.15809771670E+02  0.26420022778E+03  0.00000000000E+00 0. -1.
         22    1    5    5    0    0  0.22986505593E+03 -0.11098356395E+03 -0.90114575011E+03  0.93659967881E+03  0.00000000000E+00 0. -1.
          5    1    4    4  502    0  0.26632523240E+02  0.62966598463E+02  0.43277891490E+01  0.68665155465E+02  0.47000000000E+01 0. -1.
         -5    1    4    4    0  502  0.63047781141E+01  0.70078980060E+02 -0.15543349727E+03  0.17068238265E+03  0.47000000000E+01 0. -1.
<mgrwt>
<rscale>  0 0.99990664E+03</rscale>
<asrwt>0</asrwt>
<pdfrwt beam="1">  1        1 0.19050686E+00 0.99990664E+03</pdfrwt>
<pdfrwt beam="2">  1       -1 0.31054289E-01 0.99990664E+03</pdfrwt>
<totfact> 0.10576424E+02</totfact>
</mgrwt>
</event>
<event>
 9    1  0.4497870E-036  0.9998737E+03  0.7818608E-02  0.8681158E-01
          2   -1    0    0  501    0  0.00000000000E+00  0.00000000000E+00  0.55374275773E+03  0.55374275773E+03  0.00000000000E+00 0. -1.
         -2   -1    0    0    0  501 -0.00000000000E+00 -0.00000000000E+00 -0.45135909769E+03  0.45135909769E+03  0.00000000000E+00 0. -1.
         36    2    1    2    0    0 -0.28421709430E-13  0.00000000000E+00  0.10238366004E+03  0.10051018554E+04  0.99987365498E+03 0.  0.
         25    2    3    3    0    0 -0.14791278222E+03  0.64859108600E+01  0.26724230980E+02  0.19520728080E+03  0.12438424245E+03 0.  0.
         35    2    3    3    0    0  0.14791278222E+03 -0.64859108600E+01  0.75659429056E+02  0.80989457462E+03  0.79264406552E+03 0.  0.
         22    1    5    5    0    0 -0.31161702371E+03 -0.53541111603E+02 -0.73243238061E+02  0.32455568401E+03  0.00000000000E+00 0. -1.
         22    1    5    5    0    0  0.45952980594E+03  0.47055200743E+02  0.14890266712E+03  0.48533889061E+03  0.00000000000E+00 0. -1.
          5    1    4    4  502    0 -0.98501359570E+01  0.47865211911E+02  0.90571073555E+01  0.49922188286E+02  0.47000000000E+01 0.  1.
         -5    1    4    4    0  502 -0.13806264627E+03 -0.41379301051E+02  0.17667123624E+02  0.14528509251E+03  0.47000000000E+01 0.  1.
<mgrwt>
<rscale>  0 0.99987365E+03</rscale>
<asrwt>0</asrwt>
<pdfrwt beam="1">  1        2 0.85191194E-01 0.99987365E+03</pdfrwt>
<pdfrwt beam="2">  1       -2 0.69439861E-01 0.99987365E+03</pdfrwt>
<totfact> 0.12496513E+02</totfact>
</mgrwt>
</event>
<event>
 9    1  0.4497870E-036  0.9955279E+03  0.7818608E-02  0.8685308E-01
          1   -1    0    0  501    0  0.00000000000E+00  0.00000000000E+00  0.22880740113E+03  0.22880740113E+03  0.00000000000E+00 0.  1.
         -1   -1    0    0    0  501 -0.00000000000E+00 -0.00000000000E+00 -0.10828711365E+04  0.10828711365E+04  0.00000000000E+00 0.  1.
         36    2    1    2    0    0  0.28421709430E-13  0.56843418861E-13 -0.85406373532E+03  0.13116785376E+04  0.99552786097E+03 0.  0.
         25    2    3    3    0    0  0.23300629477E+02 -0.12462733907E+03 -0.21756394762E+03  0.28139520668E+03  0.12559577245E+03 0.  0.
         35    2    3    3    0    0 -0.23300629477E+02  0.12462733907E+03 -0.63649978770E+03  0.10302833309E+04  0.80017302456E+03 0.  0.
         22    1    5    5    0    0  0.27570347238E+03  0.26594916866E+03 -0.57953214527E+03  0.69469336573E+03  0.00000000000E+00 0. -1.
         22    1    5    5    0    0 -0.29900410185E+03 -0.14132182959E+03 -0.56967642431E+02  0.33558996518E+03  0.00000000000E+00 0. -1.
          5    1    4    4  502    0  0.66501937511E+02 -0.11552937759E+03 -0.17345159871E+03  0.21880834507E+03  0.47000000000E+01 0. -1.
         -5    1    4    4    0  502 -0.43201308033E+02 -0.90979614872E+01 -0.44112348917E+02  0.62586861608E+02  0.47000000000E+01 0. -1.
<mgrwt>
<rscale>  0 0.99552786E+03</rscale>
<asrwt>0</asrwt>
<pdfrwt beam="1">  1        1 0.35201139E-01 0.99552786E+03</pdfrwt>
<pdfrwt beam="2">  1       -1 0.16659556E+00 0.99552786E+03</pdfrwt>
<totfact> 0.37152813E+01</totfact>
</mgrwt>
</event>
<event>
 9    1  0.4497870E-036  0.9949293E+03  0.7818608E-02  0.8685882E-01
         -2   -1    0    0    0  501 -0.00000000000E+00  0.00000000000E+00  0.13747766827E+03  0.13747766827E+03  0.00000000000E+00 0.  1.
          2   -1    0    0  501    0  0.00000000000E+00 -0.00000000000E+00 -0.18000820748E+04  0.18000820748E+04  0.00000000000E+00 0.  1.
         36    2    1    2    0    0  0.14210854715E-13 -0.10658141036E-13 -0.16626044065E+04  0.19375597431E+04  0.99492931676E+03 0.  0.
         25    2    3    3    0    0  0.74632941670E+02 -0.71266219337E+00 -0.87916190285E+02  0.17060673665E+03  0.12572516935E+03 0.  0.
         35    2    3    3    0    0 -0.74632941670E+02  0.71266219337E+00 -0.15746882162E+04  0.17669530064E+04  0.79806601521E+03 0.  0.
         22    1    5    5    0    0  0.21513310952E+03 -0.29861331781E+03 -0.56048927103E+03  0.67052247638E+03  0.00000000000E+00 0. -1.
         22    1    5    5    0    0 -0.28976605119E+03  0.29932598000E+03 -0.10141989452E+04  0.10964305300E+04  0.00000000000E+00 0. -1.
          5    1    4    4  502    0  0.32262266380E+02  0.26523668024E+02  0.23564813218E+02  0.48184532989E+02  0.47000000000E+01 0. -1.
         -5    1    4    4    0  502  0.42370675290E+02 -0.27236330217E+02 -0.11148100350E+03  0.12242220367E+03  0.47000000000E+01 0. -1.
<mgrwt>
<rscale>  0 0.99492932E+03</rscale>
<asrwt>0</asrwt>
<pdfrwt beam="1">  1        2 0.27693570E+00 0.99492932E+03</pdfrwt>
<pdfrwt beam="2">  1       -2 0.21150411E-01 0.99492932E+03</pdfrwt>
<totfact> 0.19745571E+02</totfact>
</mgrwt>
</event>
<event>
 9    1  0.4497870E-036  0.9989928E+03  0.7818608E-02  0.8681998E-01
          2   -1    0    0  501    0  0.00000000000E+00  0.00000000000E+00  0.85203033547E+03  0.85203033547E+03  0.00000000000E+00 0. -1.
         -2   -1    0    0    0  501 -0.00000000000E+00 -0.00000000000E+00 -0.29282600509E+03  0.29282600509E+03  0.00000000000E+00 0. -1.
         36    2    1    2    0    0  0.35527136788E-14  0.42632564146E-13  0.55920433037E+03  0.11448563406E+04  0.99899277145E+03 0.  0.
         25    2    3    3    0    0 -0.17197470445E+02  0.11716493845E+03  0.21806675406E+02  0.17392116896E+03  0.12549767380E+03 0.  0.
         35    2    3    3    0    0  0.17197470445E+02 -0.11716493845E+03  0.53739765497E+03  0.97093517160E+03  0.79993467989E+03 0.  0.
         22    1    5    5    0    0 -0.26481479680E+03  0.23539389586E+03  0.19598508573E+03  0.40490408326E+03  0.00000000000E+00 0.  1.
         22    1    5    5    0    0  0.28201226725E+03 -0.35255883431E+03  0.34141256924E+03  0.56603108834E+03  0.00000000000E+00 0.  1.
          5    1    4    4  502    0  0.25023499172E+02  0.15245502995E+02 -0.38103550214E+02  0.48296701868E+02  0.47000000000E+01 0. -1.
         -5    1    4    4    0  502 -0.42220969618E+02  0.10191943546E+03  0.59910225620E+02  0.12562446710E+03  0.47000000000E+01 0. -1.
<mgrwt>
<rscale>  0 0.99899277E+03</rscale>
<asrwt>0</asrwt>
<pdfrwt beam="1">  1        2 0.13108159E+00 0.99899277E+03</pdfrwt>
<pdfrwt beam="2">  1       -2 0.45050155E-01 0.99899277E+03</pdfrwt>
<totfact> 0.17886794E+02</totfact>
</mgrwt>
</event>
<event>
 9    1  0.4497870E-036  0.1000086E+04  0.7818608E-02  0.8680956E-01
         -2   -1    0    0    0  501 -0.00000000000E+00  0.00000000000E+00  0.40638915116E+03  0.40638915116E+03  0.00000000000E+00 0. -1.
          2   -1    0    0  501    0  0.00000000000E+00 -0.00000000000E+00 -0.61528031748E+03  0.61528031748E+03  0.00000000000E+00 0. -1.
         36    2    1    2    0    0  0.00000000000E+00  0.00000000000E+00 -0.20889116632E+03  0.10216694686E+04  0.10000864881E+04 0.  0.
         25    2    3    3    0    0  0.10704495275E+03 -0.72996212286E+02 -0.94901664537E+02  0.20360245872E+03  0.12514218452E+03 0.  0.
         35    2    3    3    0    0 -0.10704495275E+03  0.72996212286E+02 -0.11398950178E+03  0.81806700992E+03  0.79965802521E+03 0.  0.
         22    1    5    5    0    0 -0.91775408101E+02 -0.37225911772E+02 -0.45173453491E+03  0.46246360297E+03  0.00000000000E+00 0.  1.
         22    1    5    5    0    0 -0.15269544647E+02  0.11022212406E+03  0.33774503313E+03  0.35560340695E+03  0.00000000000E+00 0.  1.
          5    1    4    4  502    0  0.91732472166E+02 -0.35421942854E+02 -0.12034382813E+03  0.15548082664E+03  0.47000000000E+01 0. -1.
         -5    1    4    4    0  502  0.15312480581E+02 -0.37574269433E+02  0.25442163592E+02  0.48121632071E+02  0.47000000000E+01 0. -1.
<mgrwt>
<rscale>  0 0.10000865E+04</rscale>
<asrwt>0</asrwt>
<pdfrwt beam="1">  1        2 0.94658510E-01 0.10000865E+04</pdfrwt>
<pdfrwt beam="2">  1       -2 0.62521408E-01 0.10000865E+04</pdfrwt>
<totfact> 0.13810626E+02</totfact>
</mgrwt>
</event>
<event>
 9    1  0.4497870E-036  0.1000924E+04  0.7818608E-02  0.8680158E-01
         -2   -1    0    0    0  501 -0.00000000000E+00  0.00000000000E+00  0.71754981709E+02  0.71754981709E+02  0.00000000000E+00 0. -1.
          2   -1    0    0  501    0  0.00000000000E+00 -0.00000000000E+00 -0.34905234215E+04  0.34905234215E+04  0.00000000000E+00 0. -1.
         36    2    1    2    0    0 -0.28421709430E-13  0.42632564146E-13 -0.34187684398E+04  0.35622784032E+04  0.10009244612E+04 0.  0.
         25    2    3    3    0    0 -0.11505567738E+03 -0.48075867571E+02 -0.41010592230E+03  0.44676678539E+03  0.12595473427E+03 0.  0.
         35    2    3    3    0    0  0.11505567738E+03  0.48075867571E+02 -0.30086625175E+04  0.31155116178E+04  0.79925803009E+03 0.  0.
         22    1    5    5    0    0  0.13941909466E+03 -0.34906182758E+03 -0.10110311598E+04  0.10786407416E+04  0.00000000000E+00 0.  1.
         22    1    5    5    0    0 -0.24363417282E+02  0.39713769515E+03 -0.19976313577E+04  0.20368708762E+04  0.00000000000E+00 0.  1.
          5    1    4    4  502    0 -0.12979479380E+03 -0.22785685162E+02 -0.23765812777E+03  0.27178916763E+03  0.47000000000E+01 0. -1.
         -5    1    4    4    0  502  0.14739116424E+02 -0.25290182409E+02 -0.17244779453E+03  0.17497761776E+03  0.47000000000E+01 0. -1.
<mgrwt>
<rscale>  0 0.10009245E+04</rscale>
<asrwt>0</asrwt>
<pdfrwt beam="1">  1        2 0.53700366E+00 0.10009245E+04</pdfrwt>
<pdfrwt beam="2">  1       -2 0.11039227E-01 0.10009245E+04</pdfrwt>
<totfact> 0.49938135E+01</totfact>
</mgrwt>
</event>
<event>
 9    1  0.4497870E-036  0.1000147E+04  0.7818608E-02  0.8680898E-01
          2   -1    0    0  501    0  0.00000000000E+00  0.00000000000E+00  0.10510276480E+04  0.10510276480E+04  0.00000000000E+00 0. -1.
         -2   -1    0    0    0  501 -0.00000000000E+00 -0.00000000000E+00 -0.23793260681E+03  0.23793260681E+03  0.00000000000E+00 0. -1.
         36    2    1    2    0    0 -0.14210854715E-13 -0.35527136788E-14  0.81309504119E+03  0.12889602548E+04  0.10001474854E+04 0.  0.
         25    2    3    3    0    0  0.14272843996E+02 -0.27466088473E+02 -0.22983516315E+02  0.13079630502E+03  0.12498532431E+03 0.  0.
         35    2    3    3    0    0 -0.14272843996E+02  0.27466088473E+02  0.83607855751E+03  0.11581639498E+04  0.80084847519E+03 0.  0.
         22    1    5    5    0    0 -0.24213579314E+03 -0.29799850733E+03  0.54035591156E+03  0.66288563406E+03  0.00000000000E+00 0. -1.
         22    1    5    5    0    0  0.22786294914E+03  0.32546459581E+03  0.29572264595E+03  0.49527831574E+03  0.00000000000E+00 0. -1.
          5    1    4    4  502    0 -0.20354547711E+02 -0.41225726503E+02  0.37557323949E+02  0.59552587856E+02  0.47000000000E+01 0. -1.
         -5    1    4    4    0  502  0.34627391707E+02  0.13759638030E+02 -0.60540840264E+02  0.71243717161E+02  0.47000000000E+01 0. -1.
<mgrwt>
<rscale>  0 0.10001475E+04</rscale>
<asrwt>0</asrwt>
<pdfrwt beam="1">  1        2 0.16169656E+00 0.10001475E+04</pdfrwt>
<pdfrwt beam="2">  1       -2 0.36605017E-01 0.10001475E+04</pdfrwt>
<totfact> 0.19840551E+02</totfact>
</mgrwt>
</event>
<event>
 9    1  0.4497870E-036  0.9999142E+03  0.7818608E-02  0.8681120E-01
          2   -1    0    0  501    0  0.00000000000E+00  0.00000000000E+00  0.28219550780E+03  0.28219550780E+03  0.00000000000E+00 0.  1.
         -2   -1    0    0    0  501 -0.00000000000E+00 -0.00000000000E+00 -0.88575853604E+03  0.88575853604E+03  0.00000000000E+00 0.  1.
         36    2    1    2    0    0 -0.28421709430E-13  0.71054273576E-14 -0.60356302824E+03  0.11679540438E+04  0.99991415604E+03 0.  0.
         25    2    3    3    0    0  0.13042338871E+03  0.19026557360E+02 -0.55286704214E+02  0.18971449920E+03  0.12475055646E+03 0.  0.
         35    2    3    3    0    0 -0.13042338871E+03 -0.19026557360E+02 -0.54827632403E+03  0.97823954464E+03  0.79935812311E+03 0.  0.
         22    1    5    5    0    0  0.23378409936E+02  0.10040410794E+03 -0.71469243547E+03  0.72208919966E+03  0.00000000000E+00 0. -1.
         22    1    5    5    0    0 -0.15380179865E+03 -0.11943066530E+03  0.16641611145E+03  0.25615034497E+03  0.00000000000E+00 0. -1.
          5    1    4    4  502    0  0.60143767256E+02  0.58553510242E+02 -0.67772094783E+02  0.10798580061E+03  0.47000000000E+01 0. -1.
         -5    1    4    4    0  502  0.70279621457E+02 -0.39526952882E+02  0.12485390569E+02  0.81728698594E+02  0.47000000000E+01 0. -1.
<mgrwt>
<rscale>  0 0.99991416E+03</rscale>
<asrwt>0</asrwt>
<pdfrwt beam="1">  1        2 0.43414694E-01 0.99991416E+03</pdfrwt>
<pdfrwt beam="2">  1       -2 0.13627054E+00 0.99991416E+03</pdfrwt>
<totfact> 0.51933506E+01</totfact>
</mgrwt>
</event>
<event>
 9    1  0.4497870E-036  0.1000180E+04  0.7818608E-02  0.8680867E-01
         -1   -1    0    0    0  501 -0.00000000000E+00  0.00000000000E+00  0.20501552906E+03  0.20501552906E+03  0.00000000000E+00 0. -1.
          1   -1    0    0  501    0  0.00000000000E+00 -0.00000000000E+00 -0.12198582818E+04  0.12198582818E+04  0.00000000000E+00 0. -1.
         36    2    1    2    0    0  0.14210854715E-13 -0.28421709430E-13 -0.10148427527E+04  0.14248738108E+04  0.10001797659E+04 0.  0.
         25    2    3    3    0    0 -0.35319535312E+02 -0.10886098835E+03 -0.31360947726E+03  0.35485608412E+03  0.12030690692E+03 0.  0.
         35    2    3    3    0    0  0.35319535312E+02  0.10886098835E+03 -0.70123327546E+03  0.10700177267E+04  0.80006977478E+03 0.  0.
         22    1    5    5    0    0 -0.29714264227E+03  0.27435263473E+03 -0.21451833478E+03  0.45780043031E+03  0.00000000000E+00 0.  1.
         22    1    5    5    0    0  0.33246217758E+03 -0.16549164637E+03 -0.48671494069E+03  0.61221729641E+03  0.00000000000E+00 0.  1.
          5    1    4    4  502    0 -0.38343168366E+02 -0.13132871976E+03 -0.22588569994E+03  0.26412851158E+03  0.47000000000E+01 0. -1.
         -5    1    4    4    0  502  0.30236330536E+01  0.22467731408E+02 -0.87723777321E+02  0.90727572540E+02  0.47000000000E+01 0. -1.
<mgrwt>
<rscale>  0 0.10001798E+04</rscale>
<asrwt>0</asrwt>
<pdfrwt beam="1">  1        1 0.18767050E+00 0.10001798E+04</pdfrwt>
<pdfrwt beam="2">  1       -1 0.31540851E-01 0.10001798E+04</pdfrwt>
<totfact> 0.10626399E+02</totfact>
</mgrwt>
</event>
<event>
 9    1  0.4497870E-036  0.9999398E+03  0.7818608E-02  0.8681095E-01
         -2   -1    0    0    0  501 -0.00000000000E+00  0.00000000000E+00  0.15760184246E+03  0.15760184246E+03  0.00000000000E+00 0.  1.
          2   -1    0    0  501    0  0.00000000000E+00 -0.00000000000E+00 -0.15860849145E+04  0.15860849145E+04  0.00000000000E+00 0.  1.
         36    2    1    2    0    0 -0.35527136788E-13  0.00000000000E+00 -0.14284830720E+04  0.17436867569E+04  0.99993980781E+03 0.  0.
         25    2    3    3    0    0  0.30772410989E+02 -0.13569840247E+03 -0.29144451964E+03  0.34639418487E+03  0.12525184859E+03 0.  0.
         35    2    3    3    0    0 -0.30772410989E+02  0.13569840247E+03 -0.11370385524E+04  0.13972925720E+04  0.80013052973E+03 0.  0.
         22    1    5    5    0    0 -0.30873899476E+03 -0.20558293551E+03 -0.48458781839E+03  0.61025360629E+03  0.00000000000E+00 0. -1.
         22    1    5    5    0    0  0.27796658377E+03  0.34128133798E+03 -0.65245073397E+03  0.78703896575E+03  0.00000000000E+00 0. -1.
          5    1    4    4  502    0  0.72159032208E+02 -0.48437055054E+02 -0.17156688016E+03  0.19238076463E+03  0.47000000000E+01 0. -1.
         -5    1    4    4    0  502 -0.41386621219E+02 -0.87261347412E+02 -0.11987763948E+03  0.15401342025E+03  0.47000000000E+01 0. -1.
<mgrwt>
<rscale>  0 0.99993981E+03</rscale>
<asrwt>0</asrwt>
<pdfrwt beam="1">  1        2 0.24401306E+00 0.99993981E+03</pdfrwt>
<pdfrwt beam="2">  1       -2 0.24246438E-01 0.99993981E+03</pdfrwt>
<totfact> 0.20512686E+02</totfact>
</mgrwt>
</event>
<event>
 9    1  0.4497870E-036  0.9913847E+03  0.7818608E-02  0.8689286E-01
         -2   -1    0    0    0  501 -0.00000000000E+00  0.00000000000E+00  0.24707261415E+03  0.24707261415E+03  0.00000000000E+00 0. -1.
          2   -1    0    0  501    0  0.00000000000E+00 -0.00000000000E+00 -0.99448867930E+03  0.99448867930E+03  0.00000000000E+00 0. -1.
         36    2    1    2    0    0  0.14210854715E-13  0.14210854715E-13 -0.74741606514E+03  0.12415612934E+04  0.99138472399E+03 0.  0.
         25    2    3    3    0    0 -0.68936209979E+02 -0.31598203759E+02 -0.25097884527E+03  0.29033728572E+03  0.12471852782E+03 0.  0.
         35    2    3    3    0    0  0.68936209979E+02  0.31598203759E+02 -0.49643721988E+03  0.95122400773E+03  0.80785305104E+03 0.  0.
         22    1    5    5    0    0 -0.21068258271E+03 -0.14233553695E+03 -0.56075036272E+03  0.61570084053E+03  0.00000000000E+00 0.  1.
         22    1    5    5    0    0  0.27961879269E+03  0.17393374071E+03  0.64313142842E+02  0.33552316720E+03  0.00000000000E+00 0.  1.
          5    1    4    4  502    0 -0.69441336077E+02 -0.66517089603E+01 -0.25519469473E+03  0.26459925663E+03  0.47000000000E+01 0.  1.
         -5    1    4    4    0  502  0.50512609788E+00 -0.24946494799E+02  0.42158494638E+01  0.25738029097E+02  0.47000000000E+01 0.  1.
<mgrwt>
<rscale>  0 0.99138472E+03</rscale>
<asrwt>0</asrwt>
<pdfrwt beam="1">  1        2 0.15299826E+00 0.99138472E+03</pdfrwt>
<pdfrwt beam="2">  1       -2 0.38011171E-01 0.99138472E+03</pdfrwt>
<totfact> 0.20039565E+02</totfact>
</mgrwt>
</event>
<event>
 9    1  0.4497870E-036  0.1000194E+04  0.7818608E-02  0.8680853E-01
          4   -1    0    0  501    0  0.00000000000E+00  0.00000000000E+00  0.16492664122E+04  0.16492664122E+04  0.00000000000E+00 0.  1.
         -4   -1    0    0    0  501 -0.00000000000E+00 -0.00000000000E+00 -0.15164138963E+03  0.15164138963E+03  0.00000000000E+00 0.  1.
         36    2    1    2    0    0 -0.28421709430E-13 -0.28421709430E-13  0.14976250226E+04  0.18009078019E+04  0.10001940824E+04 0.  0.
         25    2    3    3    0    0  0.40129999169E+02 -0.12181961582E+03  0.43288277119E+03  0.46566393532E+03  0.11403934160E+03 0.  0.
         35    2    3    3    0    0 -0.40129999169E+02  0.12181961582E+03  0.10647422514E+04  0.13352438665E+04  0.79545564650E+03 0.  0.
         22    1    5    5    0    0  0.31465926073E+03  0.23468967869E+03  0.75494123376E+03  0.85089715129E+03  0.00000000000E+00 0.  1.
         22    1    5    5    0    0 -0.35478925990E+03 -0.11287006287E+03  0.30980101766E+03  0.48434671525E+03  0.00000000000E+00 0.  1.
          5    1    4    4  502    0  0.53960590859E+02 -0.69204745201E+01  0.16541624139E+03  0.17419604258E+03  0.47000000000E+01 0. -1.
         -5    1    4    4    0  502 -0.13830591690E+02 -0.11489914130E+03  0.26746652979E+03  0.29146789274E+03  0.47000000000E+01 0. -1.
<mgrwt>
<rscale>  0 0.10001941E+04</rscale>
<asrwt>0</asrwt>
<pdfrwt beam="1">  1        4 0.25373328E+00 0.10001941E+04</pdfrwt>
<pdfrwt beam="2">  1       -4 0.23329446E-01 0.10001941E+04</pdfrwt>
<totfact> 0.16655598E+00</totfact>
</mgrwt>
</event>
<event>
 9    1  0.4497870E-036  0.9993811E+03  0.7818608E-02  0.8681628E-01
         -2   -1    0    0    0  501 -0.00000000000E+00  0.00000000000E+00  0.19156617071E+03  0.19156617071E+03  0.00000000000E+00 0.  1.
          2   -1    0    0  501    0  0.00000000000E+00 -0.00000000000E+00 -0.13034172110E+04  0.13034172110E+04  0.00000000000E+00 0.  1.
         36    2    1    2    0    0  0.28421709430E-13  0.71054273576E-14 -0.11118510403E+04  0.14949833817E+04  0.99938109638E+03 0.  0.
         25    2    3    3    0    0 -0.77503274887E+02 -0.58011787921E+02 -0.35645466019E+03  0.39018243957E+03  0.12573896063E+03 0.  0.
         35    2    3    3    0    0  0.77503274887E+02  0.58011787921E+02 -0.75539638014E+03  0.11048009422E+04  0.80036823122E+03 0.  0.
         22    1    5    5    0    0  0.35994796363E+03  0.93748265620E+02 -0.92396405985E+02  0.38326018534E+03  0.00000000000E+00 0. -1.
         22    1    5    5    0    0 -0.28244468874E+03 -0.35736477699E+02 -0.66299997415E+03  0.72154075683E+03  0.00000000000E+00 0. -1.
          5    1    4    4  502    0 -0.98677048159E+01 -0.71276637836E+01 -0.26560972156E+03  0.26593004602E+03  0.47000000000E+01 0. -1.
         -5    1    4    4    0  502 -0.67635570071E+02 -0.50884124137E+02 -0.90844938632E+02  0.12425239355E+03  0.47000000000E+01 0. -1.
<mgrwt>
<rscale>  0 0.99938110E+03</rscale>
<asrwt>0</asrwt>
<pdfrwt beam="1">  1        2 0.20052573E+00 0.99938110E+03</pdfrwt>
<pdfrwt beam="2">  1       -2 0.29471718E-01 0.99938110E+03</pdfrwt>
<totfact> 0.20952699E+02</totfact>
</mgrwt>
</event>
<event>
 9    1  0.4497870E-036  0.1000008E+04  0.7818608E-02  0.8681030E-01
         -1   -1    0    0    0  501 -0.00000000000E+00  0.00000000000E+00  0.90503074000E+02  0.90503074000E+02  0.00000000000E+00 0. -1.
          1   -1    0    0  501    0  0.00000000000E+00 -0.00000000000E+00 -0.27623804963E+04  0.27623804963E+04  0.00000000000E+00 0. -1.
         36    2    1    2    0    0  0.00000000000E+00  0.00000000000E+00 -0.26718774223E+04  0.28528835703E+04  0.10000078529E+04 0.  0.
         25    2    3    3    0    0  0.36026678170E+02 -0.12744073130E+03 -0.38535612352E+03  0.42632094310E+03  0.12534409860E+03 0.  0.
         35    2    3    3    0    0 -0.36026678170E+02  0.12744073130E+03 -0.22865212988E+04  0.24265626272E+04  0.80155316257E+03 0.  0.
         22    1    5    5    0    0 -0.12654426502E+03 -0.16044611413E+03 -0.11561965009E+03  0.23478566829E+03  0.00000000000E+00 0.  1.
         22    1    5    5    0    0  0.90517586855E+02  0.28788684543E+03 -0.21709016487E+04  0.21917769589E+04  0.00000000000E+00 0.  1.
          5    1    4    4  502    0  0.32556757380E+02 -0.13951141490E+03 -0.23427381496E+03  0.27464465717E+03  0.47000000000E+01 0. -1.
         -5    1    4    4    0  502  0.34699207899E+01  0.12070683593E+02 -0.15108230856E+03  0.15167628592E+03  0.47000000000E+01 0. -1.
<mgrwt>
<rscale>  0 0.10000079E+04</rscale>
<asrwt>0</asrwt>
<pdfrwt beam="1">  1        1 0.42498161E+00 0.10000079E+04</pdfrwt>
<pdfrwt beam="2">  1       -1 0.13923550E-01 0.10000079E+04</pdfrwt>
<totfact> 0.33446623E+01</totfact>
</mgrwt>
</event>
<event>
 9    1  0.4497870E-036  0.9990302E+03  0.7818608E-02  0.8681962E-01
          2   -1    0    0  501    0  0.00000000000E+00  0.00000000000E+00  0.26710528503E+04  0.26710528503E+04  0.00000000000E+00 0. -1.
         -2   -1    0    0    0  501 -0.00000000000E+00 -0.00000000000E+00 -0.93414593997E+02  0.93414593997E+02  0.00000000000E+00 0. -1.
         36    2    1    2    0    0  0.11546319456E-13  0.28421709430E-13  0.25776382563E+04  0.27644674443E+04  0.99903016481E+03 0.  0.
         25    2    3    3    0    0 -0.45325734836E+01 -0.13699405500E+03  0.43021363359E+03  0.46806932592E+03  0.12335804802E+03 0.  0.
         35    2    3    3    0    0  0.45325734836E+01  0.13699405500E+03  0.21474246227E+04  0.22963981184E+04  0.80201240173E+03 0.  0.
         22    1    5    5    0    0  0.33373725449E+03 -0.98712547132E+02  0.14384680574E+04  0.14799713086E+04  0.00000000000E+00 0.  1.
         22    1    5    5    0    0 -0.32920468101E+03  0.23570660213E+03  0.70895656527E+03  0.81642680978E+03  0.00000000000E+00 0.  1.
          5    1    4    4  502    0  0.71077392538E+01 -0.15378235063E+03  0.41352118251E+03  0.44127246652E+03  0.47000000000E+01 0.  1.
         -5    1    4    4    0  502 -0.11640312737E+02  0.16788295629E+02  0.16692451081E+02  0.26796859402E+02  0.47000000000E+01 0.  1.
<mgrwt>
<rscale>  0 0.99903016E+03</rscale>
<asrwt>0</asrwt>
<pdfrwt beam="1">  1        2 0.41093115E+00 0.99903016E+03</pdfrwt>
<pdfrwt beam="2">  1       -2 0.14371478E-01 0.99903016E+03</pdfrwt>
<totfact> 0.11729776E+02</totfact>
</mgrwt>
</event>
<event>
 9    1  0.4497870E-036  0.9991791E+03  0.7818608E-02  0.8681820E-01
         -1   -1    0    0    0  501 -0.00000000000E+00  0.00000000000E+00  0.13038901774E+03  0.13038901774E+03  0.00000000000E+00 0. -1.
          1   -1    0    0  501    0  0.00000000000E+00 -0.00000000000E+00 -0.19141926867E+04  0.19141926867E+04  0.00000000000E+00 0. -1.
         36    2    1    2    0    0 -0.10658141036E-13  0.00000000000E+00 -0.17838036690E+04  0.20445817044E+04  0.99917907139E+03 0.  0.
         25    2    3    3    0    0 -0.31456680046E+02 -0.10266733519E+03 -0.15359149179E+03  0.22536554728E+03  0.12517659172E+03 0.  0.
         35    2    3    3    0    0  0.31456680046E+02  0.10266733519E+03 -0.16302121772E+04  0.18192161572E+04  0.80026594295E+03 0.  0.
         22    1    5    5    0    0  0.36027033894E+03 -0.14695856329E+03 -0.89737329084E+03  0.97809527121E+03  0.00000000000E+00 0.  1.
         22    1    5    5    0    0 -0.32881365890E+03  0.24962589848E+03 -0.73283888633E+03  0.84112088595E+03  0.00000000000E+00 0.  1.
          5    1    4    4  502    0 -0.54431441768E+01 -0.13995962297E+02 -0.12854929762E+03  0.12950879004E+03  0.47000000000E+01 0.  1.
         -5    1    4    4    0  502 -0.26013535870E+02 -0.88671372890E+02 -0.25042194172E+02  0.95856757235E+02  0.47000000000E+01 0.  1.
<mgrwt>
<rscale>  0 0.99917907E+03</rscale>
<asrwt>0</asrwt>
<pdfrwt beam="1">  1        1 0.29449118E+00 0.99917907E+03</pdfrwt>
<pdfrwt beam="2">  1       -1 0.20059849E-01 0.99917907E+03</pdfrwt>
<totfact> 0.72799069E+01</totfact>
</mgrwt>
</event>
<event>
 9    1  0.4497870E-036  0.9992007E+03  0.7818608E-02  0.8681799E-01
         -1   -1    0    0    0  501 -0.00000000000E+00  0.00000000000E+00  0.13229146012E+04  0.13229146012E+04  0.00000000000E+00 0. -1.
          1   -1    0    0  501    0  0.00000000000E+00 -0.00000000000E+00 -0.18867470874E+03  0.18867470874E+03  0.00000000000E+00 0. -1.
         36    2    1    2    0    0 -0.28421709430E-13  0.00000000000E+00  0.11342398925E+04  0.15115893100E+04  0.99920073475E+03 0.  0.
         25    2    3    3    0    0  0.13399433611E+03 -0.43516066754E+01  0.15914480889E+03  0.24335892199E+03  0.12618667173E+03 0.  0.
         35    2    3    3    0    0 -0.13399433611E+03  0.43516066754E+01  0.97509508360E+03  0.12682303880E+04  0.79976526329E+03 0.  0.
         22    1    5    5    0    0  0.32264706112E+03 -0.31196082724E+02  0.57496762912E+03  0.66004704087E+03  0.00000000000E+00 0. -1.
         22    1    5    5    0    0 -0.45664139723E+03  0.35547689399E+02  0.40012745448E+03  0.60818334712E+03  0.00000000000E+00 0. -1.
          5    1    4    4  502    0  0.84262279208E+02 -0.55991453453E+02  0.13240178854E+03  0.16669582528E+03  0.47000000000E+01 0. -1.
         -5    1    4    4    0  502  0.49732056906E+02  0.51639846778E+02  0.26743020351E+02  0.76663096708E+02  0.47000000000E+01 0. -1.
<mgrwt>
<rscale>  0 0.99920073E+03</rscale>
<asrwt>0</asrwt>
<pdfrwt beam="1">  1        1 0.29026879E-01 0.99920073E+03</pdfrwt>
<pdfrwt beam="2">  1       -1 0.20352532E+00 0.99920073E+03</pdfrwt>
<totfact> 0.23331477E+01</totfact>
</mgrwt>
</event>
<event>
 9    1  0.4497870E-036  0.9994650E+03  0.7818608E-02  0.8681548E-01
          2   -1    0    0  501    0  0.00000000000E+00  0.00000000000E+00  0.23248622045E+04  0.23248622045E+04  0.00000000000E+00 0.  1.
         -2   -1    0    0    0  501 -0.00000000000E+00 -0.00000000000E+00 -0.10741821445E+03  0.10741821445E+03  0.00000000000E+00 0.  1.
         36    2    1    2    0    0 -0.28421709430E-13  0.00000000000E+00  0.22174439900E+04  0.24322804189E+04  0.99946495054E+03 0.  0.
         25    2    3    3    0    0  0.75248362279E+02 -0.11859026307E+03  0.40546169139E+03  0.44637318658E+03  0.12297915269E+03 0.  0.
         35    2    3    3    0    0 -0.75248362279E+02  0.11859026307E+03  0.18119822986E+04  0.19859072323E+04  0.80051340922E+03 0.  0.
         22    1    5    5    0    0 -0.36762390298E+03 -0.16200305438E+03  0.10202099001E+04  0.10964581907E+04  0.00000000000E+00 0.  1.
         22    1    5    5    0    0  0.29237554070E+03  0.28059331746E+03  0.79177239856E+03  0.88944904166E+03  0.00000000000E+00 0.  1.
          5    1    4    4  502    0 -0.31933069594E+02 -0.42546507045E+02  0.14661826416E+03  0.15604144187E+03  0.47000000000E+01 0.  1.
         -5    1    4    4    0  502  0.10718143187E+03 -0.76043756028E+02  0.25884342723E+03  0.29033174472E+03  0.47000000000E+01 0.  1.
<mgrwt>
<rscale>  0 0.99946495E+03</rscale>
<asrwt>0</asrwt>
<pdfrwt beam="1">  1        2 0.35767107E+00 0.99946495E+03</pdfrwt>
<pdfrwt beam="2">  1       -2 0.16525881E-01 0.99946495E+03</pdfrwt>
<totfact> 0.15064981E+02</totfact>
</mgrwt>
</event>
<event>
 9    1  0.4497870E-036  0.1002084E+04  0.7818608E-02  0.8679056E-01
         -1   -1    0    0    0  501 -0.00000000000E+00  0.00000000000E+00  0.98228517984E+02  0.98228517984E+02  0.00000000000E+00 0.  1.
          1   -1    0    0  501    0  0.00000000000E+00 -0.00000000000E+00 -0.25557063615E+04  0.25557063615E+04  0.00000000000E+00 0.  1.
         36    2    1    2    0    0  0.00000000000E+00 -0.21316282073E-13 -0.24574778435E+04  0.26539348795E+04  0.10020843244E+04 0.  0.
         25    2    3    3    0    0 -0.13658699509E+03 -0.10281447129E+02 -0.35014752117E+03  0.39606989341E+03  0.12452452975E+03 0.  0.
         35    2    3    3    0    0  0.13658699509E+03  0.10281447129E+02 -0.21073303224E+04  0.22578649861E+04  0.79896901845E+03 0.  0.
         22    1    5    5    0    0  0.34898742596E+02  0.36391849305E+03 -0.57042783267E+03  0.67752675527E+03  0.00000000000E+00 0.  1.
         22    1    5    5    0    0  0.10168825249E+03 -0.35363704592E+03 -0.15369024897E+04  0.15803382308E+04  0.00000000000E+00 0.  1.
          5    1    4    4  502    0 -0.70160095554E+02 -0.43024114270E+02 -0.28708519231E+03  0.29868630879E+03  0.47000000000E+01 0. -1.
         -5    1    4    4    0  502 -0.66426899534E+02  0.32742667141E+02 -0.63062328859E+02  0.97383584624E+02  0.47000000000E+01 0. -1.
<mgrwt>
<rscale>  0 0.10020843E+04</rscale>
<asrwt>0</asrwt>
<pdfrwt beam="1">  1        1 0.39318562E+00 0.10020843E+04</pdfrwt>
<pdfrwt beam="2">  1       -1 0.15112079E-01 0.10020843E+04</pdfrwt>
<totfact> 0.40993176E+01</totfact>
</mgrwt>
</event>
<event>
 9    1  0.4497870E-036  0.9972560E+03  0.7818608E-02  0.8683655E-01
          1   -1    0    0  501    0  0.00000000000E+00  0.00000000000E+00  0.47192118493E+03  0.47192118493E+03  0.00000000000E+00 0.  1.
         -1   -1    0    0    0  501 -0.00000000000E+00 -0.00000000000E+00 -0.52684624123E+03  0.52684624123E+03  0.00000000000E+00 0.  1.
         36    2    1    2    0    0 -0.35527136788E-14  0.28421709430E-13 -0.54925056298E+02  0.99876742615E+03  0.99725604021E+03 0.  0.
         25    2    3    3    0    0 -0.15248772750E+02  0.11729734502E+03 -0.82203702062E+02  0.19112169097E+03  0.12561393198E+03 0.  0.
         35    2    3    3    0    0  0.15248772750E+02 -0.11729734502E+03  0.27278645764E+02  0.80764573518E+03  0.79847123732E+03 0.  0.
         22    1    5    5    0    0 -0.30210821879E+02 -0.44845492004E+03  0.11117114464E+03  0.46301569354E+03  0.00000000000E+00 0. -1.
         22    1    5    5    0    0  0.45459594629E+02  0.33115757502E+03 -0.83892498876E+02  0.34463004164E+03  0.00000000000E+00 0. -1.
          5    1    4    4  502    0 -0.54903084307E+02  0.56327075512E+02 -0.87860300476E+02  0.11801953441E+03  0.47000000000E+01 0. -1.
         -5    1    4    4    0  502  0.39654311557E+02  0.60970269505E+02  0.56565984144E+01  0.73102156564E+02  0.47000000000E+01 0. -1.
<mgrwt>
<rscale>  0 0.99725604E+03</rscale>
<asrwt>0</asrwt>
<pdfrwt beam="1">  1        1 0.72603259E-01 0.99725604E+03</pdfrwt>
<pdfrwt beam="2">  1       -1 0.81053268E-01 0.99725604E+03</pdfrwt>
<totfact> 0.86198598E+01</totfact>
</mgrwt>
</event>
<event>
 9    1  0.4497870E-036  0.9983625E+03  0.7818608E-02  0.8682599E-01
          2   -1    0    0  501    0  0.00000000000E+00  0.00000000000E+00  0.15854474382E+04  0.15854474382E+04  0.00000000000E+00 0. -1.
         -2   -1    0    0    0  501 -0.00000000000E+00 -0.00000000000E+00 -0.15716819460E+03  0.15716819460E+03  0.00000000000E+00 0. -1.
         36    2    1    2    0    0  0.00000000000E+00  0.00000000000E+00  0.14282792436E+04  0.17426156328E+04  0.99836248228E+03 0.  0.
         25    2    3    3    0    0 -0.11929143758E+02 -0.86521618360E+02  0.45274743290E+03  0.47777690833E+03  0.12514887624E+03 0.  0.
         35    2    3    3    0    0  0.11929143758E+02  0.86521618360E+02  0.97553181074E+03  0.12648387245E+04  0.80032892635E+03 0.  0.
         22    1    5    5    0    0  0.36969316863E+03  0.11110278936E+03  0.74341433831E+03  0.83766445976E+03  0.00000000000E+00 0. -1.
         22    1    5    5    0    0 -0.35776402488E+03 -0.24581171000E+02  0.23211747243E+03  0.42717426476E+03  0.00000000000E+00 0. -1.
          5    1    4    4  502    0  0.44650559934E+02 -0.51025329169E+02  0.33932844423E+03  0.34606811437E+03  0.47000000000E+01 0.  1.
         -5    1    4    4    0  502 -0.56579703692E+02 -0.35496289191E+02  0.11341898867E+03  0.13170879396E+03  0.47000000000E+01 0.  1.
<mgrwt>
<rscale>  0 0.99836248E+03</rscale>
<asrwt>0</asrwt>
<pdfrwt beam="1">  1        2 0.24391498E+00 0.99836248E+03</pdfrwt>
<pdfrwt beam="2">  1       -2 0.24179723E-01 0.99836248E+03</pdfrwt>
<totfact> 0.20629934E+02</totfact>
</mgrwt>
</event>
<event>
 9    1  0.4497870E-036  0.9993111E+03  0.7818608E-02  0.8681694E-01
          1   -1    0    0  501    0  0.00000000000E+00  0.00000000000E+00  0.74564318679E+03  0.74564318679E+03  0.00000000000E+00 0. -1.
         -1   -1    0    0    0  501 -0.00000000000E+00 -0.00000000000E+00 -0.33481918756E+03  0.33481918756E+03  0.00000000000E+00 0. -1.
         36    2    1    2    0    0  0.00000000000E+00 -0.14210854715E-13  0.41082399923E+03  0.10804623743E+04  0.99931105469E+03 0.  0.
         25    2    3    3    0    0 -0.71638981777E+02  0.41861923105E+02  0.19736429285E+03  0.24758352061E+03  0.12433974131E+03 0.  0.
         35    2    3    3    0    0  0.71638981777E+02 -0.41861923105E+02  0.21345970638E+03  0.83287885373E+03  0.80077311046E+03 0.  0.
         22    1    5    5    0    0 -0.13249531188E+03  0.20558547032E+03  0.39477514423E+03  0.46440048210E+03  0.00000000000E+00 0.  1.
         22    1    5    5    0    0  0.20413429365E+03 -0.24744739342E+03 -0.18131543785E+03  0.36847837163E+03  0.00000000000E+00 0.  1.
          5    1    4    4  502    0  0.50151959585E+01  0.49793771033E+02  0.19917718338E+02  0.54068265443E+02  0.47000000000E+01 0. -1.
         -5    1    4    4    0  502 -0.76654177736E+02 -0.79318479276E+01  0.17744657452E+03  0.19351525517E+03  0.47000000000E+01 0. -1.
<mgrwt>
<rscale>  0 0.99931105E+03</rscale>
<asrwt>0</asrwt>
<pdfrwt beam="1">  1        1 0.11471434E+00 0.99931105E+03</pdfrwt>
<pdfrwt beam="2">  1       -1 0.51510645E-01 0.99931105E+03</pdfrwt>
<totfact> 0.10729477E+02</totfact>
</mgrwt>
</event>
<event>
 9    1  0.4497870E-036  0.1000404E+04  0.7818608E-02  0.8680653E-01
          2   -1    0    0  501    0  0.00000000000E+00  0.00000000000E+00  0.15610408313E+04  0.15610408313E+04  0.00000000000E+00 0. -1.
         -2   -1    0    0    0  501 -0.00000000000E+00 -0.00000000000E+00 -0.16027897818E+03  0.16027897818E+03  0.00000000000E+00 0. -1.
         36    2    1    2    0    0  0.00000000000E+00  0.00000000000E+00  0.14007618531E+04  0.17213198094E+04  0.10004039771E+04 0.  0.
         25    2    3    3    0    0  0.97605452499E+02 -0.19423280013E+02  0.94533818507E+02  0.18628475852E+03  0.12594157475E+03 0.  0.
         35    2    3    3    0    0 -0.97605452499E+02  0.19423280013E+02  0.13062280346E+04  0.15350350509E+04  0.80012301621E+03 0.  0.
         22    1    5    5    0    0  0.33775225638E+03  0.89469869529E+02  0.42958541447E+03  0.55373736787E+03  0.00000000000E+00 0.  1.
         22    1    5    5    0    0 -0.43535770888E+03 -0.70046589516E+02  0.87664262011E+03  0.98129768305E+03  0.00000000000E+00 0.  1.
          5    1    4    4  502    0  0.28423812869E+02  0.50815216247E+02  0.17190579785E+02  0.60890930142E+02  0.47000000000E+01 0. -1.
         -5    1    4    4    0  502  0.69181639630E+02 -0.70238496261E+02  0.77343238722E+02  0.12539382838E+03  0.47000000000E+01 0. -1.
<mgrwt>
<rscale>  0 0.10004040E+04</rscale>
<asrwt>0</asrwt>
<pdfrwt beam="1">  1        2 0.24016012E+00 0.10004040E+04</pdfrwt>
<pdfrwt beam="2">  1       -2 0.24658305E-01 0.10004040E+04</pdfrwt>
<totfact> 0.20569059E+02</totfact>
</mgrwt>
</event>
<event>
 9    1  0.4497870E-036  0.1000133E+04  0.7818608E-02  0.8680912E-01
          2   -1    0    0  501    0  0.00000000000E+00  0.00000000000E+00  0.57054717070E+03  0.57054717070E+03  0.00000000000E+00 0.  1.
         -2   -1    0    0    0  501 -0.00000000000E+00 -0.00000000000E+00 -0.43829215803E+03  0.43829215803E+03  0.00000000000E+00 0.  1.
         36    2    1    2    0    0 -0.14210854715E-13  0.00000000000E+00  0.13225501267E+03  0.10088393287E+04  0.10001326926E+04 0.  0.
         25    2    3    3    0    0 -0.97032519174E+02  0.95547258568E+02 -0.69899457966E+01  0.18524608385E+03  0.12539004683E+03 0.  0.
         35    2    3    3    0    0  0.97032519174E+02 -0.95547258568E+02  0.13924495847E+03  0.82359324488E+03  0.80023252006E+03 0.  0.
         22    1    5    5    0    0 -0.31279003392E+03  0.79079625070E+02 -0.72000629759E+02  0.33056812173E+03  0.00000000000E+00 0.  1.
         22    1    5    5    0    0  0.40982255309E+03 -0.17462688364E+03  0.21124558823E+03  0.49302512315E+03  0.00000000000E+00 0.  1.
          5    1    4    4  502    0 -0.10729040055E+02 -0.28149303483E+02  0.12772121603E+02  0.33056204824E+02  0.47000000000E+01 0. -1.
         -5    1    4    4    0  502 -0.86303479119E+02  0.12369656205E+03 -0.19762067400E+02  0.15218987903E+03  0.47000000000E+01 0. -1.
<mgrwt>
<rscale>  0 0.10001327E+04</rscale>
<asrwt>0</asrwt>
<pdfrwt beam="1">  1        2 0.87776487E-01 0.10001327E+04</pdfrwt>
<pdfrwt beam="2">  1       -2 0.67429563E-01 0.10001327E+04</pdfrwt>
<totfact> 0.12856969E+02</totfact>
</mgrwt>
</event>
<event>
 9    1  0.4497870E-036  0.1000340E+04  0.7818608E-02  0.8680714E-01
          2   -1    0    0  501    0  0.00000000000E+00  0.00000000000E+00  0.39606580890E+04  0.39606580890E+04  0.00000000000E+00 0. -1.
         -2   -1    0    0    0  501 -0.00000000000E+00 -0.00000000000E+00 -0.63163727710E+02  0.63163727710E+02  0.00000000000E+00 0. -1.
         36    2    1    2    0    0  0.00000000000E+00  0.00000000000E+00  0.38974943613E+04  0.40238218168E+04  0.10003398004E+04 0.  0.
         25    2    3    3    0    0  0.91178596023E+02  0.98508034151E+02  0.57704942761E+03  0.60551420039E+03  0.12507612005E+03 0.  0.
         35    2    3    3    0    0 -0.91178596023E+02 -0.98508034151E+02  0.33204449337E+04  0.34183076164E+04  0.80090887935E+03 0.  0.
         22    1    5    5    0    0 -0.29395319261E+03 -0.32148525199E+03  0.12014085104E+04  0.12779450910E+04  0.00000000000E+00 0. -1.
         22    1    5    5    0    0  0.20277459659E+03  0.22297721784E+03  0.21190364233E+04  0.21403625254E+04  0.00000000000E+00 0. -1.
          5    1    4    4  502    0  0.33223128698E+02 -0.17475698210E+02  0.26319430159E+03  0.26589942967E+03  0.47000000000E+01 0.  1.
         -5    1    4    4    0  502  0.57955467325E+02  0.11598373236E+03  0.31385512602E+03  0.33961477072E+03  0.47000000000E+01 0.  1.
<mgrwt>
<rscale>  0 0.10003398E+04</rscale>
<asrwt>0</asrwt>
<pdfrwt beam="1">  1        2 0.60933182E+00 0.10003398E+04</pdfrwt>
<pdfrwt beam="2">  1       -2 0.97174997E-02 0.10003398E+04</pdfrwt>
<totfact> 0.25723987E+01</totfact>
</mgrwt>
</event>
<event>
 9    1  0.4497870E-036  0.1001892E+04  0.7818608E-02  0.8679238E-01
         -2   -1    0    0    0  501 -0.00000000000E+00  0.00000000000E+00  0.12661949086E+03  0.12661949086E+03  0.00000000000E+00 0. -1.
          2   -1    0    0  501    0  0.00000000000E+00 -0.00000000000E+00 -0.19818984146E+04  0.19818984146E+04  0.00000000000E+00 0. -1.
         36    2    1    2    0    0 -0.28421709430E-13  0.00000000000E+00 -0.18552789238E+04  0.21085179055E+04  0.10018921463E+04 0.  0.
         25    2    3    3    0    0  0.71038749096E+02  0.74247196182E+02 -0.15300220384E+03  0.22495074270E+03  0.12897291284E+03 0.  0.
         35    2    3    3    0    0 -0.71038749096E+02 -0.74247196182E+02 -0.17022767199E+04  0.18835671628E+04  0.79969999094E+03 0.  0.
         22    1    5    5    0    0 -0.19885806899E+03  0.16475059803E+03 -0.13190088167E+03  0.28997436738E+03  0.00000000000E+00 0. -1.
         22    1    5    5    0    0  0.12781931989E+03 -0.23899779422E+03 -0.15703758383E+04  0.15935927954E+04  0.00000000000E+00 0. -1.
          5    1    4    4  502    0 -0.13468635438E+02  0.68136877616E+02 -0.30677025672E+02  0.76073702000E+02  0.47000000000E+01 0.  1.
         -5    1    4    4    0  502  0.84507384535E+02  0.61103185658E+01 -0.12232517816E+03  0.14887704070E+03  0.47000000000E+01 0.  1.
<mgrwt>
<rscale>  0 0.10018921E+04</rscale>
<asrwt>0</asrwt>
<pdfrwt beam="1">  1        2 0.30490743E+00 0.10018921E+04</pdfrwt>
<pdfrwt beam="2">  1       -2 0.19479923E-01 0.10018921E+04</pdfrwt>
<totfact> 0.17965101E+02</totfact>
</mgrwt>
</event>
<event>
 9    1  0.4497870E-036  0.1000116E+04  0.7818608E-02  0.8680928E-01
          2   -1    0    0  501    0  0.00000000000E+00  0.00000000000E+00  0.20204745262E+03  0.20204745262E+03  0.00000000000E+00 0.  1.
         -2   -1    0    0    0  501 -0.00000000000E+00 -0.00000000000E+00 -0.12376192147E+04  0.12376192147E+04  0.00000000000E+00 0.  1.
         36    2    1    2    0    0  0.28421709430E-13 -0.21316282073E-13 -0.10355717620E+04  0.14396666673E+04  0.10001156126E+04 0.  0.
         25    2    3    3    0    0 -0.13559720268E+03  0.11847760951E+01 -0.25041288487E+03  0.31102391805E+03  0.12506502158E+03 0.  0.
         35    2    3    3    0    0  0.13559720268E+03 -0.11847760951E+01 -0.78515887717E+03  0.11286427492E+04  0.79935723422E+03 0.  0.
         22    1    5    5    0    0  0.12223713708E+03  0.17317629099E+03  0.94275217137E+02  0.23199086622E+03  0.00000000000E+00 0. -1.
         22    1    5    5    0    0  0.13360065605E+02 -0.17436106709E+03 -0.87943409430E+03  0.89665188300E+03  0.00000000000E+00 0. -1.
          5    1    4    4  502    0  0.43416073872E+00  0.41324985852E+02 -0.44120401986E+02  0.60635326524E+02  0.47000000000E+01 0. -1.
         -5    1    4    4    0  502 -0.13603136342E+03 -0.40140209757E+02 -0.20629248288E+03  0.25038859153E+03  0.47000000000E+01 0. -1.
<mgrwt>
<rscale>  0 0.10001156E+04</rscale>
<asrwt>0</asrwt>
<pdfrwt beam="1">  1        2 0.31084223E-01 0.10001156E+04</pdfrwt>
<pdfrwt beam="2">  1       -2 0.19040296E+00 0.10001156E+04</pdfrwt>
<totfact> 0.28870427E+01</totfact>
</mgrwt>
</event>
<event>
 9    1  0.4497870E-036  0.9996195E+03  0.7818608E-02  0.8681400E-01
          2   -1    0    0  501    0  0.00000000000E+00  0.00000000000E+00  0.39673373976E+03  0.39673373976E+03  0.00000000000E+00 0.  1.
         -2   -1    0    0    0  501 -0.00000000000E+00 -0.00000000000E+00 -0.62966606349E+03  0.62966606349E+03  0.00000000000E+00 0.  1.
         36    2    1    2    0    0  0.28421709430E-13  0.71054273576E-14 -0.23293232373E+03  0.10263998033E+04  0.99961947194E+03 0.  0.
         25    2    3    3    0    0 -0.51592902764E+02 -0.54183148896E+02  0.77205855908E+02  0.16504586167E+03  0.12522679836E+03 0.  0.
         35    2    3    3    0    0  0.51592902764E+02  0.54183148896E+02 -0.31013817964E+03  0.86135394158E+03  0.80009204531E+03 0.  0.
         22    1    5    5    0    0  0.32329752176E+03 -0.22709447289E+03 -0.66638329705E+02  0.40066676201E+03  0.00000000000E+00 0. -1.
         22    1    5    5    0    0 -0.27170461900E+03  0.28127762179E+03 -0.24349984994E+03  0.46068717957E+03  0.00000000000E+00 0. -1.
          5    1    4    4  502    0 -0.30277044761E+02 -0.54524742184E+02 -0.19808418520E+02  0.65605719217E+02  0.47000000000E+01 0.  1.
         -5    1    4    4    0  502 -0.21315858002E+02  0.34159328823E+00  0.97014274428E+02  0.99440142453E+02  0.47000000000E+01 0.  1.
<mgrwt>
<rscale>  0 0.99961947E+03</rscale>
<asrwt>0</asrwt>
<pdfrwt beam="1">  1        2 0.61035960E-01 0.99961947E+03</pdfrwt>
<pdfrwt beam="2">  1       -2 0.96871702E-01 0.99961947E+03</pdfrwt>
<totfact> 0.85075714E+01</totfact>
</mgrwt>
</event>
<event>
 9    1  0.4497870E-036  0.9966411E+03  0.7818608E-02  0.8684243E-01
          2   -1    0    0  501    0  0.00000000000E+00  0.00000000000E+00  0.17550119600E+04  0.17550119600E+04  0.00000000000E+00 0. -1.
         -2   -1    0    0    0  501 -0.00000000000E+00 -0.00000000000E+00 -0.14149383574E+03  0.14149383574E+03  0.00000000000E+00 0. -1.
         36    2    1    2    0    0  0.00000000000E+00 -0.14210854715E-13  0.16135181242E+04  0.18965057957E+04  0.99664110690E+03 0.  0.
         25    2    3    3    0    0  0.11128389056E+03  0.78070991313E+02  0.26394996819E+03  0.32211133598E+03  0.12492775142E+03 0.  0.
         35    2    3    3    0    0 -0.11128389056E+03 -0.78070991313E+02  0.13495681560E+04  0.15743944597E+04  0.79931503369E+03 0.  0.
         22    1    5    5    0    0 -0.15532016772E+03  0.19548362774E+03  0.12580628845E+04  0.12825990896E+04  0.00000000000E+00 0.  1.
         22    1    5    5    0    0  0.44036277161E+02 -0.27355461906E+03  0.91505271494E+02  0.29179537012E+03  0.00000000000E+00 0.  1.
          5    1    4    4  502    0  0.58899599681E+02  0.25215756067E+02  0.20401331429E+02  0.67404017096E+02  0.47000000000E+01 0.  1.
         -5    1    4    4    0  502  0.52384290875E+02  0.52855235246E+02  0.24354863676E+03  0.25470731888E+03  0.47000000000E+01 0.  1.
<mgrwt>
<rscale>  0 0.99664111E+03</rscale>
<asrwt>0</asrwt>
<pdfrwt beam="1">  1        2 0.27000182E+00 0.99664111E+03</pdfrwt>
<pdfrwt beam="2">  1       -2 0.21768284E-01 0.99664111E+03</pdfrwt>
<totfact> 0.19911054E+02</totfact>
</mgrwt>
</event>
<event>
 9    1  0.4497870E-036  0.1000558E+04  0.7818608E-02  0.8680506E-01
         -1   -1    0    0    0  501 -0.00000000000E+00  0.00000000000E+00  0.23415935059E+03  0.23415935059E+03  0.00000000000E+00 0. -1.
          1   -1    0    0  501    0  0.00000000000E+00 -0.00000000000E+00 -0.10688414619E+04  0.10688414619E+04  0.00000000000E+00 0. -1.
         36    2    1    2    0    0  0.00000000000E+00  0.00000000000E+00 -0.83468211128E+03  0.13030008125E+04  0.10005582893E+04 0.  0.
         25    2    3    3    0    0 -0.64548828816E+02  0.51194102649E+02 -0.80666433544E+01  0.15028251679E+03  0.12542877130E+03 0.  0.
         35    2    3    3    0    0  0.64548828816E+02 -0.51194102649E+02 -0.82661546792E+03  0.11527182957E+04  0.79917391719E+03 0.  0.
         22    1    5    5    0    0  0.22689131671E+03  0.27299544619E+03 -0.66906701523E+03  0.75740138243E+03  0.00000000000E+00 0.  1.
         22    1    5    5    0    0 -0.16234248789E+03 -0.32418954884E+03 -0.15754845269E+03  0.39531691324E+03  0.00000000000E+00 0.  1.
          5    1    4    4  502    0 -0.61075514823E+02  0.13189398562E+02  0.50325327434E+02  0.80367327482E+02  0.47000000000E+01 0.  1.
         -5    1    4    4    0  502 -0.34733139929E+01  0.38004704086E+02 -0.58391970789E+02  0.69915189304E+02  0.47000000000E+01 0.  1.
<mgrwt>
<rscale>  0 0.10005583E+04</rscale>
<asrwt>0</asrwt>
<pdfrwt beam="1">  1        1 0.16443715E+00 0.10005583E+04</pdfrwt>
<pdfrwt beam="2">  1       -1 0.36024515E-01 0.10005583E+04</pdfrwt>
<totfact> 0.10981091E+02</totfact>
</mgrwt>
</event>
<event>
 9    1  0.4497870E-036  0.9997215E+03  0.7818608E-02  0.8681303E-01
          2   -1    0    0  501    0  0.00000000000E+00  0.00000000000E+00  0.40249392172E+03  0.40249392172E+03  0.00000000000E+00 0.  1.
         -2   -1    0    0    0  501 -0.00000000000E+00 -0.00000000000E+00 -0.62078146471E+03  0.62078146471E+03  0.00000000000E+00 0.  1.
         36    2    1    2    0    0  0.00000000000E+00 -0.14210854715E-13 -0.21828754299E+03  0.10232753864E+04  0.99972149374E+03 0.  0.
         25    2    3    3    0    0  0.66497218496E+02  0.96461634378E+02 -0.11920598774E+03  0.20866344661E+03  0.12491452864E+03 0.  0.
         35    2    3    3    0    0 -0.66497218496E+02 -0.96461634378E+02 -0.99081555250E+02  0.81461193981E+03  0.80003045625E+03 0.  0.
         22    1    5    5    0    0 -0.92320964752E+02 -0.12511428132E+02 -0.44657528317E+03  0.45618985073E+03  0.00000000000E+00 0.  1.
         22    1    5    5    0    0  0.25823746256E+02 -0.83950206246E+02  0.34749372792E+03  0.35842208909E+03  0.00000000000E+00 0.  1.
          5    1    4    4  502    0  0.14990972968E+02  0.48054340406E+02  0.18474915836E+02  0.53827143873E+02  0.47000000000E+01 0.  1.
         -5    1    4    4    0  502  0.51506245528E+02  0.48407293972E+02 -0.13768090357E+03  0.15483630274E+03  0.47000000000E+01 0.  1.
<mgrwt>
<rscale>  0 0.99972149E+03</rscale>
<asrwt>0</asrwt>
<pdfrwt beam="1">  1        2 0.61922142E-01 0.99972149E+03</pdfrwt>
<pdfrwt beam="2">  1       -2 0.95504841E-01 0.99972149E+03</pdfrwt>
<totfact> 0.86609495E+01</totfact>
</mgrwt>
</event>
<event>
 9    1  0.4497870E-036  0.9998883E+03  0.7818608E-02  0.8681144E-01
          2   -1    0    0  501    0  0.00000000000E+00  0.00000000000E+00  0.49130041309E+03  0.49130041309E+03  0.00000000000E+00 0.  1.
         -2   -1    0    0    0  501 -0.00000000000E+00 -0.00000000000E+00 -0.50873998815E+03  0.50873998815E+03  0.00000000000E+00 0.  1.
         36    2    1    2    0    0 -0.28421709430E-13  0.42632564146E-13 -0.17439575062E+02  0.10000404012E+04  0.99988832643E+03 0.  0.
         25    2    3    3    0    0 -0.60593827357E+02  0.12213416893E+03 -0.71905909865E+02  0.19703724010E+03  0.12273893832E+03 0.  0.
         35    2    3    3    0    0  0.60593827357E+02 -0.12213416893E+03  0.54466334803E+02  0.80300316114E+03  0.78946762317E+03 0.  0.
         22    1    5    5    0    0 -0.13961259981E+03  0.22331379740E+03 -0.19898276624E+03  0.33008312801E+03  0.00000000000E+00 0. -1.
         22    1    5    5    0    0  0.20020642716E+03 -0.34544796633E+03  0.25344910104E+03  0.47292003313E+03  0.00000000000E+00 0. -1.
          5    1    4    4  502    0 -0.91021777962E+02  0.49390373334E+02 -0.49828113789E+02  0.11501871137E+03  0.47000000000E+01 0. -1.
         -5    1    4    4    0  502  0.30427950605E+02  0.72743795592E+02 -0.22077796076E+02  0.82018528728E+02  0.47000000000E+01 0. -1.
<mgrwt>
<rscale>  0 0.99988833E+03</rscale>
<asrwt>0</asrwt>
<pdfrwt beam="1">  1        2 0.75584679E-01 0.99988833E+03</pdfrwt>
<pdfrwt beam="2">  1       -2 0.78267691E-01 0.99988833E+03</pdfrwt>
<totfact> 0.11006754E+02</totfact>
</mgrwt>
</event>
<event>
 9    1  0.4497870E-036  0.1000335E+04  0.7818608E-02  0.8680719E-01
          2   -1    0    0  501    0  0.00000000000E+00  0.00000000000E+00  0.11739074300E+04  0.11739074300E+04  0.00000000000E+00 0.  1.
         -2   -1    0    0    0  501 -0.00000000000E+00 -0.00000000000E+00 -0.21310690255E+03  0.21310690255E+03  0.00000000000E+00 0.  1.
         36    2    1    2    0    0  0.21316282073E-13 -0.35527136788E-14  0.96080052741E+03  0.13870143325E+04  0.10003354963E+04 0.  0.
         25    2    3    3    0    0 -0.47490209588E+01 -0.10105749260E+02  0.36983050675E+03  0.39038846808E+03  0.12451454905E+03 0.  0.
         35    2    3    3    0    0  0.47490209588E+01  0.10105749260E+02  0.59097002066E+03  0.99662586443E+03  0.80242935450E+03 0.  0.
         22    1    5    5    0    0 -0.29204903374E+03  0.31270880786E+02 -0.42477319619E+02  0.29677403656E+03  0.00000000000E+00 0.  1.
         22    1    5    5    0    0  0.29679805470E+03 -0.21165131526E+02  0.63344734028E+03  0.69985182787E+03  0.00000000000E+00 0.  1.
          5    1    4    4  502    0 -0.62651971083E+02 -0.69704165039E+01  0.23876015124E+03  0.24698655025E+03  0.47000000000E+01 0. -1.
         -5    1    4    4    0  502  0.57902950124E+02 -0.31353327557E+01  0.13107035551E+03  0.14340191783E+03  0.47000000000E+01 0. -1.
<mgrwt>
<rscale>  0 0.10003355E+04</rscale>
<asrwt>0</asrwt>
<pdfrwt beam="1">  1        2 0.18060114E+00 0.10003355E+04</pdfrwt>
<pdfrwt beam="2">  1       -2 0.32785678E-01 0.10003355E+04</pdfrwt>
<totfact> 0.20531644E+02</totfact>
</mgrwt>
</event>
<event>
 9    1  0.4497870E-036  0.9999477E+03  0.7818608E-02  0.8681088E-01
         -2   -1    0    0    0  501 -0.00000000000E+00  0.00000000000E+00  0.16398522393E+04  0.16398522393E+04  0.00000000000E+00 0. -1.
          2   -1    0    0  501    0  0.00000000000E+00 -0.00000000000E+00 -0.15243681782E+03  0.15243681782E+03  0.00000000000E+00 0. -1.
         36    2    1    2    0    0 -0.14210854715E-13  0.28421709430E-13  0.14874154214E+04  0.17922890571E+04  0.99994771275E+03 0.  0.
         25    2    3    3    0    0  0.55558885669E+02 -0.10671633019E+03  0.15227196368E+03  0.23071322952E+03  0.12476649569E+03 0.  0.
         35    2    3    3    0    0 -0.55558885669E+02  0.10671633019E+03  0.13351434578E+04  0.15615758276E+04  0.80089690194E+03 0.  0.
         22    1    5    5    0    0 -0.10896028131E+03 -0.11036107211E+03 -0.46544127880E+02  0.16192055145E+03  0.00000000000E+00 0. -1.
         22    1    5    5    0    0  0.53401395644E+02  0.21707740231E+03  0.13816875856E+04  0.13996552761E+04  0.00000000000E+00 0. -1.
          5    1    4    4  502    0  0.46763301554E+01  0.22097869124E+02 -0.22172414421E+01  0.23177360574E+02  0.47000000000E+01 0.  1.
         -5    1    4    4    0  502  0.50882555514E+02 -0.12881419931E+03  0.15448920512E+03  0.20753586895E+03  0.47000000000E+01 0.  1.
<mgrwt>
<rscale>  0 0.99994771E+03</rscale>
<asrwt>0</asrwt>
<pdfrwt beam="1">  1        2 0.23451819E-01 0.99994771E+03</pdfrwt>
<pdfrwt beam="2">  1       -2 0.25228495E+00 0.99994771E+03</pdfrwt>
<totfact> 0.15732277E+01</totfact>
</mgrwt>
</event>
<event>
 9    1  0.4497870E-036  0.1000376E+04  0.7818608E-02  0.8680680E-01
          2   -1    0    0  501    0  0.00000000000E+00  0.00000000000E+00  0.18406281628E+04  0.18406281628E+04  0.00000000000E+00 0. -1.
         -2   -1    0    0    0  501 -0.00000000000E+00 -0.00000000000E+00 -0.13592536750E+03  0.13592536750E+03  0.00000000000E+00 0. -1.
         36    2    1    2    0    0  0.14210854715E-13 -0.28421709430E-13  0.17047027953E+04  0.19765535303E+04  0.10003760482E+04 0.  0.
         25    2    3    3    0    0  0.12575668789E+03 -0.10966860146E+02  0.44250413089E+03  0.47678573318E+03  0.12481872030E+03 0.  0.
         35    2    3    3    0    0 -0.12575668789E+03  0.10966860146E+02  0.12621986644E+04  0.14997677971E+04  0.80013933804E+03 0.  0.
         22    1    5    5    0    0 -0.18951449431E+03  0.13952963741E+03  0.60166493102E+01  0.23541551210E+03  0.00000000000E+00 0.  1.
         22    1    5    5    0    0  0.63757806421E+02 -0.12856277726E+03  0.12561820151E+04  0.12643522851E+04  0.00000000000E+00 0.  1.
          5    1    4    4  502    0  0.13229306187E+02 -0.35861941444E+02  0.24547185474E+03  0.24847457587E+03  0.47000000000E+01 0.  1.
         -5    1    4    4    0  502  0.11252738170E+03  0.24895081298E+02  0.19703227616E+03  0.22831115731E+03  0.47000000000E+01 0.  1.
<mgrwt>
<rscale>  0 0.10003760E+04</rscale>
<asrwt>0</asrwt>
<pdfrwt beam="1">  1        2 0.28317355E+00 0.10003760E+04</pdfrwt>
<pdfrwt beam="2">  1       -2 0.20911596E-01 0.10003760E+04</pdfrwt>
<totfact> 0.19105658E+02</totfact>
</mgrwt>
</event>
<event>
 9    1  0.4497870E-036  0.9958952E+03  0.7818608E-02  0.8684957E-01
         -2   -1    0    0    0  501 -0.00000000000E+00  0.00000000000E+00  0.46141770003E+03  0.46141770003E+03  0.00000000000E+00 0. -1.
          2   -1    0    0  501    0  0.00000000000E+00 -0.00000000000E+00 -0.53736948934E+03  0.53736948934E+03  0.00000000000E+00 0. -1.
         36    2    1    2    0    0 -0.14210854715E-13  0.00000000000E+00 -0.75951789304E+02  0.99878718937E+03  0.99589516283E+03 0.  0.
         25    2    3    3    0    0  0.29704379541E+02 -0.13099619433E+03  0.10617667275E+02  0.18296549251E+03  0.12377917230E+03 0.  0.
         35    2    3    3    0    0 -0.29704379541E+02  0.13099619433E+03 -0.86569456579E+02  0.81582169686E+03  0.80001776053E+03 0.  0.
         22    1    5    5    0    0  0.14333821899E+03  0.12846522908E+01 -0.40572202544E+03  0.43029972958E+03  0.00000000000E+00 0.  1.
         22    1    5    5    0    0 -0.17304259853E+03  0.12971154204E+03  0.31915256886E+03  0.38552196728E+03  0.00000000000E+00 0.  1.
          5    1    4    4  502    0 -0.36001952072E+02 -0.61621645835E+02 -0.31852776960E+02  0.78294681738E+02  0.47000000000E+01 0.  1.
         -5    1    4    4    0  502  0.65706331612E+02 -0.69374548499E+02  0.42470444235E+02  0.10467081077E+03  0.47000000000E+01 0.  1.
<mgrwt>
<rscale>  0 0.99589516E+03</rscale>
<asrwt>0</asrwt>
<pdfrwt beam="1">  1        2 0.82672229E-01 0.99589516E+03</pdfrwt>
<pdfrwt beam="2">  1       -2 0.70987338E-01 0.99589516E+03</pdfrwt>
<totfact> 0.12336421E+02</totfact>
</mgrwt>
</event>
<event>
 9    1  0.4497870E-036  0.1000537E+04  0.7818608E-02  0.8680527E-01
          3   -1    0    0  501    0  0.00000000000E+00  0.00000000000E+00  0.93108392409E+03  0.93108392409E+03  0.00000000000E+00 0. -1.
         -3   -1    0    0    0  501 -0.00000000000E+00 -0.00000000000E+00 -0.26879267455E+03  0.26879267455E+03  0.00000000000E+00 0. -1.
         36    2    1    2    0    0 -0.14210854715E-13  0.71054273576E-14  0.66229124954E+03  0.11998765986E+04  0.10005369322E+04 0.  0.
         25    2    3    3    0    0 -0.37689486884E+02  0.47883188385E+02  0.27727203913E+03  0.30899249640E+03  0.12199705733E+03 0.  0.
         35    2    3    3    0    0  0.37689486884E+02 -0.47883188385E+02  0.38501921041E+03  0.89088410224E+03  0.80107514884E+03 0.  0.
         22    1    5    5    0    0 -0.34607760696E+03 -0.59804059952E+02  0.36482303038E+03  0.50640110498E+03  0.00000000000E+00 0.  1.
         22    1    5    5    0    0  0.38376709385E+03  0.11920871567E+02  0.20196180037E+02  0.38448299727E+03  0.00000000000E+00 0.  1.
          5    1    4    4  502    0 -0.59389418579E+02  0.21535952097E+01  0.23629415256E+03  0.24369808688E+03  0.47000000000E+01 0. -1.
         -5    1    4    4    0  502  0.21699931695E+02  0.45729593175E+02  0.40977886567E+02  0.65294409523E+02  0.47000000000E+01 0. -1.
<mgrwt>
<rscale>  0 0.10005369E+04</rscale>
<asrwt>0</asrwt>
<pdfrwt beam="1">  1        3 0.14324368E+00 0.10005369E+04</pdfrwt>
<pdfrwt beam="2">  1       -3 0.41352720E-01 0.10005369E+04</pdfrwt>
<totfact> 0.88488484E+00</totfact>
</mgrwt>
</event>
<event>
 9    1  0.4497870E-036  0.9990196E+03  0.7818608E-02  0.8681972E-01
         -1   -1    0    0    0  501 -0.00000000000E+00  0.00000000000E+00  0.16448613573E+03  0.16448613573E+03  0.00000000000E+00 0. -1.
          1   -1    0    0  501    0  0.00000000000E+00 -0.00000000000E+00 -0.15169062948E+04  0.15169062948E+04  0.00000000000E+00 0. -1.
         36    2    1    2    0    0  0.14210854715E-13  0.28421709430E-13 -0.13524201591E+04  0.16813924306E+04  0.99901962884E+03 0.  0.
         25    2    3    3    0    0 -0.73454909737E+02 -0.10641189569E+03 -0.40392060602E+03  0.44217243517E+03  0.12508193773E+03 0.  0.
         35    2    3    3    0    0  0.73454909737E+02  0.10641189569E+03 -0.94849955309E+03  0.12392199954E+04  0.78695341634E+03 0.  0.
         22    1    5    5    0    0  0.74892318253E+01 -0.10830423916E+03  0.11153580071E+03  0.15564745952E+03  0.00000000000E+00 0.  1.
         22    1    5    5    0    0  0.65965677911E+02  0.21471613485E+03 -0.10600353538E+04  0.10835725359E+04  0.00000000000E+00 0.  1.
          5    1    4    4  502    0 -0.78294697171E+02 -0.10399903585E+03 -0.41156985712E+03  0.43169166815E+03  0.47000000000E+01 0. -1.
         -5    1    4    4    0  502  0.48397874338E+01 -0.24128598406E+01  0.76492510943E+01  0.10480767020E+02  0.47000000000E+01 0. -1.
<mgrwt>
<rscale>  0 0.99901963E+03</rscale>
<asrwt>0</asrwt>
<pdfrwt beam="1">  1        1 0.23337019E+00 0.99901963E+03</pdfrwt>
<pdfrwt beam="2">  1       -1 0.25305560E-01 0.99901963E+03</pdfrwt>
<totfact> 0.94195659E+01</totfact>
</mgrwt>
</event>
<event>
 9    1  0.4497870E-036  0.9989019E+03  0.7818608E-02  0.8682084E-01
          2   -1    0    0  501    0  0.00000000000E+00  0.00000000000E+00  0.25174617706E+04  0.25174617706E+04  0.00000000000E+00 0.  1.
         -2   -1    0    0    0  501 -0.00000000000E+00 -0.00000000000E+00 -0.99088401332E+02  0.99088401332E+02  0.00000000000E+00 0.  1.
         36    2    1    2    0    0 -0.28421709430E-13 -0.28421709430E-13  0.24183733692E+04  0.26165501719E+04  0.99890192163E+03 0.  0.
         25    2    3    3    0    0  0.53644434155E+02 -0.13071360397E+03  0.58121278848E+03  0.61118942772E+03  0.12562021928E+03 0.  0.
         35    2    3    3    0    0 -0.53644434155E+02  0.13071360397E+03  0.18371605807E+04  0.20053607442E+04  0.79142210180E+03 0.  0.
         22    1    5    5    0    0  0.35290453384E+03 -0.51591067506E+02  0.88252000523E+03  0.95186385996E+03  0.00000000000E+00 0. -1.
         22    1    5    5    0    0 -0.40654896800E+03  0.18230467148E+03  0.95464057551E+03  0.10534968842E+04  0.00000000000E+00 0. -1.
          5    1    4    4  502    0 -0.13679392716E+02 -0.91080732979E+02  0.17821943032E+03  0.20066659176E+03  0.47000000000E+01 0. -1.
         -5    1    4    4    0  502  0.67323826870E+02 -0.39632870992E+02  0.40299335816E+03  0.41052283597E+03  0.47000000000E+01 0. -1.
<mgrwt>
<rscale>  0 0.99890192E+03</rscale>
<asrwt>0</asrwt>
<pdfrwt beam="1">  1        2 0.38730176E+00 0.99890192E+03</pdfrwt>
<pdfrwt beam="2">  1       -2 0.15244371E-01 0.99890192E+03</pdfrwt>
<totfact> 0.13225207E+02</totfact>
</mgrwt>
</event>
<event>
 9    1  0.4497870E-036  0.1000281E+04  0.7818608E-02  0.8680771E-01
          2   -1    0    0  501    0  0.00000000000E+00  0.00000000000E+00  0.43417334669E+03  0.43417334669E+03  0.00000000000E+00 0.  1.
         -2   -1    0    0    0  501 -0.00000000000E+00 -0.00000000000E+00 -0.57613003221E+03  0.57613003221E+03  0.00000000000E+00 0.  1.
         36    2    1    2    0    0  0.00000000000E+00  0.14210854715E-13 -0.14195668552E+03  0.10103033789E+04  0.10002805691E+04 0.  0.
         25    2    3    3    0    0  0.60410734263E+02 -0.76849486754E+02 -0.13213627731E+03  0.20420820308E+03  0.12118454521E+03 0.  0.
         35    2    3    3    0    0 -0.60410734263E+02  0.76849486754E+02 -0.98204082189E+01  0.80609517582E+03  0.80008605264E+03 0.  0.
         22    1    5    5    0    0 -0.12276188724E+03  0.31817840603E+03  0.26734535509E+03  0.43333764885E+03  0.00000000000E+00 0. -1.
         22    1    5    5    0    0  0.62351152973E+02 -0.24132891928E+03 -0.27716576331E+03  0.37275752696E+03  0.00000000000E+00 0. -1.
          5    1    4    4  502    0  0.86351073847E+02 -0.87215050213E+02 -0.85527514944E+02  0.14966635811E+03  0.47000000000E+01 0.  1.
         -5    1    4    4    0  502 -0.25940339584E+02  0.10365563460E+02 -0.46608762362E+02  0.54541844968E+02  0.47000000000E+01 0.  1.
<mgrwt>
<rscale>  0 0.10002806E+04</rscale>
<asrwt>0</asrwt>
<pdfrwt beam="1">  1        2 0.66795899E-01 0.10002806E+04</pdfrwt>
<pdfrwt beam="2">  1       -2 0.88635390E-01 0.10002806E+04</pdfrwt>
<totfact> 0.94872359E+01</totfact>
</mgrwt>
</event>
<event>
 9    1  0.4497870E-036  0.9954657E+03  0.7818608E-02  0.8685368E-01
          2   -1    0    0  501    0  0.00000000000E+00  0.00000000000E+00  0.29016200810E+04  0.29016200810E+04  0.00000000000E+00 0. -1.
         -2   -1    0    0    0  501 -0.00000000000E+00 -0.00000000000E+00 -0.85379198464E+02  0.85379198464E+02  0.00000000000E+00 0. -1.
         36    2    1    2    0    0  0.28421709430E-13  0.00000000000E+00  0.28162408825E+04  0.29869992794E+04  0.99546571364E+03 0.  0.
         25    2    3    3    0    0  0.13495848579E+03  0.16423125358E+02  0.51266198406E+03  0.54481699808E+03  0.12457824676E+03 0.  0.
         35    2    3    3    0    0 -0.13495848579E+03 -0.16423125358E+02  0.23035788985E+04  0.24421822814E+04  0.79955927989E+03 0.  0.
         22    1    5    5    0    0  0.97506009578E+02 -0.36293465141E+03  0.13494745686E+04  0.14008249692E+04  0.00000000000E+00 0.  1.
         22    1    5    5    0    0 -0.23246449537E+03  0.34651152606E+03  0.95410432984E+03  0.10413573121E+04  0.00000000000E+00 0.  1.
          5    1    4    4  502    0  0.43338286805E+02  0.66431435753E+02  0.24062085287E+03  0.25340052801E+03  0.47000000000E+01 0. -1.
         -5    1    4    4    0  502  0.91620198981E+02 -0.50008310395E+02  0.27204113119E+03  0.29141647007E+03  0.47000000000E+01 0. -1.
<mgrwt>
<rscale>  0 0.99546571E+03</rscale>
<asrwt>0</asrwt>
<pdfrwt beam="1">  1        2 0.44640301E+00 0.99546571E+03</pdfrwt>
<pdfrwt beam="2">  1       -2 0.13135264E-01 0.99546571E+03</pdfrwt>
<totfact> 0.96994257E+01</totfact>
</mgrwt>
</event>
<event>
 9    1  0.4497870E-036  0.9999217E+03  0.7818608E-02  0.8681113E-01
          1   -1    0    0  501    0  0.00000000000E+00  0.00000000000E+00  0.26656992879E+04  0.26656992879E+04  0.00000000000E+00 0.  1.
         -1   -1    0    0    0  501 -0.00000000000E+00 -0.00000000000E+00 -0.93769331425E+02  0.93769331425E+02  0.00000000000E+00 0.  1.
         36    2    1    2    0    0  0.00000000000E+00 -0.14210854715E-13  0.25719299565E+04  0.27594686193E+04  0.99992167695E+03 0.  0.
         25    2    3    3    0    0 -0.12481590749E+02 -0.91737289193E+01  0.98595233135E+02  0.15984194082E+03  0.12485382910E+03 0.  0.
         35    2    3    3    0    0  0.12481590749E+02  0.91737289193E+01  0.24733347234E+04  0.25996266785E+04  0.80027137053E+03 0.  0.
         22    1    5    5    0    0  0.22330709180E+03 -0.19782108431E+03  0.36833720317E+03  0.47399528889E+03  0.00000000000E+00 0.  1.
         22    1    5    5    0    0 -0.21082550105E+03  0.20699481323E+03  0.21049975202E+04  0.21256313896E+04  0.00000000000E+00 0.  1.
          5    1    4    4  502    0  0.33949705988E+02 -0.51011665552E+02  0.35816161041E+02  0.71131286722E+02  0.47000000000E+01 0.  1.
         -5    1    4    4    0  502 -0.46431296737E+02  0.41837936632E+02  0.62779072094E+02  0.88710654102E+02  0.47000000000E+01 0.  1.
<mgrwt>
<rscale>  0 0.99992168E+03</rscale>
<asrwt>0</asrwt>
<pdfrwt beam="1">  1        1 0.41010753E+00 0.99992168E+03</pdfrwt>
<pdfrwt beam="2">  1       -1 0.14426053E-01 0.99992168E+03</pdfrwt>
<totfact> 0.36982579E+01</totfact>
</mgrwt>
</event>
<event>
 9    1  0.4497870E-036  0.9985539E+03  0.7818608E-02  0.8682416E-01
         -2   -1    0    0    0  501 -0.00000000000E+00  0.00000000000E+00  0.40567658225E+03  0.40567658225E+03  0.00000000000E+00 0. -1.
          2   -1    0    0  501    0  0.00000000000E+00 -0.00000000000E+00 -0.61447344353E+03  0.61447344353E+03  0.00000000000E+00 0. -1.
         36    2    1    2    0    0 -0.28421709430E-13 -0.28421709430E-13 -0.20879686128E+03  0.10201500258E+04  0.99855392734E+03 0.  0.
         25    2    3    3    0    0 -0.70003622590E+02  0.95157695788E+02  0.34909250656E+02  0.17565587468E+03  0.12522314596E+03 0.  0.
         35    2    3    3    0    0  0.70003622590E+02 -0.95157695788E+02 -0.24370611193E+03  0.84449415110E+03  0.79988887228E+03 0.  0.
         22    1    5    5    0    0  0.30671790114E+03 -0.34369933079E+03 -0.18432296718E+03  0.49616535258E+03  0.00000000000E+00 0.  1.
         22    1    5    5    0    0 -0.23671427855E+03  0.24854163500E+03 -0.59383144754E+02  0.34832879852E+03  0.00000000000E+00 0.  1.
          5    1    4    4  502    0 -0.90982722112E+02  0.19280786360E+02  0.22743987595E+02  0.95859185357E+02  0.47000000000E+01 0. -1.
         -5    1    4    4    0  502  0.20979099521E+02  0.75876909427E+02  0.12165263060E+02  0.79796689319E+02  0.47000000000E+01 0. -1.
<mgrwt>
<rscale>  0 0.99855393E+03</rscale>
<asrwt>0</asrwt>
<pdfrwt beam="1">  1        2 0.94534375E-01 0.99855393E+03</pdfrwt>
<pdfrwt beam="2">  1       -2 0.62411783E-01 0.99855393E+03</pdfrwt>
<totfact> 0.13884005E+02</totfact>
</mgrwt>
</event>
<event>
 9    1  0.4497870E-036  0.1002860E+04  0.7818608E-02  0.8678319E-01
         -2   -1    0    0    0  501 -0.00000000000E+00  0.00000000000E+00  0.90577022550E+03  0.90577022550E+03  0.00000000000E+00 0.  1.
          2   -1    0    0  501    0  0.00000000000E+00 -0.00000000000E+00 -0.27758911356E+03  0.27758911356E+03  0.00000000000E+00 0.  1.
         36    2    1    2    0    0  0.00000000000E+00 -0.14210854715E-13  0.62818111195E+03  0.11833593391E+04  0.10028598187E+04 0.  0.
         25    2    3    3    0    0 -0.88480222570E+02 -0.11255379002E+03  0.11158164859E+03  0.22058191133E+03  0.12533479115E+03 0.  0.
         35    2    3    3    0    0  0.88480222570E+02  0.11255379002E+03  0.51659946335E+03  0.96277742773E+03  0.79973011971E+03 0.  0.
         22    1    5    5    0    0  0.25122956773E+03 -0.11229171407E+03  0.61058501384E+03  0.66973112805E+03  0.00000000000E+00 0.  1.
         22    1    5    5    0    0 -0.16274934516E+03  0.22484550408E+03 -0.93985550488E+02  0.29304629968E+03  0.00000000000E+00 0.  1.
          5    1    4    4  502    0 -0.98103523962E+02 -0.86145329292E+02  0.13184978580E+03  0.18561189398E+03  0.47000000000E+01 0. -1.
         -5    1    4    4    0  502  0.96233013925E+01 -0.26408460727E+02 -0.20268137207E+02  0.34970017351E+02  0.47000000000E+01 0. -1.
<mgrwt>
<rscale>  0 0.10028598E+04</rscale>
<asrwt>0</asrwt>
<pdfrwt beam="1">  1        2 0.42706018E-01 0.10028598E+04</pdfrwt>
<pdfrwt beam="2">  1       -2 0.13934926E+00 0.10028598E+04</pdfrwt>
<totfact> 0.49756851E+01</totfact>
</mgrwt>
</event>
<event>
 9    1  0.4497870E-036  0.1000433E+04  0.7818608E-02  0.8680626E-01
         -2   -1    0    0    0  501 -0.00000000000E+00  0.00000000000E+00  0.10728773920E+03  0.10728773920E+03  0.00000000000E+00 0. -1.
          2   -1    0    0  501    0  0.00000000000E+00 -0.00000000000E+00 -0.23322007743E+04  0.23322007743E+04  0.00000000000E+00 0. -1.
         36    2    1    2    0    0 -0.14210854715E-13  0.00000000000E+00 -0.22249130351E+04  0.24394885135E+04  0.10004330031E+04 0.  0.
         25    2    3    3    0    0 -0.92958724281E+02  0.50443418083E+02 -0.19330366813E+03  0.25327879577E+03  0.12489186292E+03 0.  0.
         35    2    3    3    0    0  0.92958724281E+02 -0.50443418083E+02 -0.20316093670E+04  0.21862097178E+04  0.80055633603E+03 0.  0.
         22    1    5    5    0    0 -0.19246463468E+03 -0.31770466521E+03 -0.13524244075E+04  0.14025087051E+04  0.00000000000E+00 0. -1.
         22    1    5    5    0    0  0.28542335896E+03  0.26726124712E+03 -0.67918495954E+03  0.78370101271E+03  0.00000000000E+00 0. -1.
          5    1    4    4  502    0 -0.37678791858E+02  0.37699427150E+02 -0.18472604653E+01  0.53539149550E+02  0.47000000000E+01 0. -1.
         -5    1    4    4    0  502 -0.55279932423E+02  0.12743990934E+02 -0.19145640767E+03  0.19973964622E+03  0.47000000000E+01 0. -1.
<mgrwt>
<rscale>  0 0.10004330E+04</rscale>
<asrwt>0</asrwt>
<pdfrwt beam="1">  1        2 0.35880010E+00 0.10004330E+04</pdfrwt>
<pdfrwt beam="2">  1       -2 0.16505807E-01 0.10004330E+04</pdfrwt>
<totfact> 0.14945693E+02</totfact>
</mgrwt>
</event>
<event>
 9    1  0.4497870E-036  0.1000965E+04  0.7818608E-02  0.8680119E-01
          1   -1    0    0  501    0  0.00000000000E+00  0.00000000000E+00  0.13750101154E+04  0.13750101154E+04  0.00000000000E+00 0.  1.
         -1   -1    0    0    0  501 -0.00000000000E+00 -0.00000000000E+00 -0.18216804881E+03  0.18216804881E+03  0.00000000000E+00 0.  1.
         36    2    1    2    0    0  0.00000000000E+00  0.17763568394E-13  0.11928420665E+04  0.15571781642E+04  0.10009653537E+04 0.  0.
         25    2    3    3    0    0 -0.15199016097E+03 -0.13393423621E+02  0.23472202216E+03  0.30658951415E+03  0.12498923824E+03 0.  0.
         35    2    3    3    0    0  0.15199016097E+03  0.13393423621E+02  0.95812004438E+03  0.12505886500E+04  0.78911188006E+03 0.  0.
         22    1    5    5    0    0  0.38596319020E+03 -0.21487739937E+03  0.36364054180E+03  0.57216634346E+03  0.00000000000E+00 0.  1.
         22    1    5    5    0    0 -0.23397302923E+03  0.22827082299E+03  0.59447950259E+03  0.67842230655E+03  0.00000000000E+00 0.  1.
          5    1    4    4  502    0 -0.63903600043E+02 -0.24718044727E+02  0.19940030517E+03  0.21089623879E+03  0.47000000000E+01 0.  1.
         -5    1    4    4    0  502 -0.88086560924E+02  0.11324621106E+02  0.35321716984E+02  0.95693275361E+02  0.47000000000E+01 0.  1.
<mgrwt>
<rscale>  0 0.10009654E+04</rscale>
<asrwt>0</asrwt>
<pdfrwt beam="1">  1        1 0.21154001E+00 0.10009654E+04</pdfrwt>
<pdfrwt beam="2">  1       -1 0.28025855E-01 0.10009654E+04</pdfrwt>
<totfact> 0.10014038E+02</totfact>
</mgrwt>
</event>
<event>
 9    1  0.4497870E-036  0.9999905E+03  0.7818608E-02  0.8681047E-01
          2   -1    0    0  501    0  0.00000000000E+00  0.00000000000E+00  0.13493756539E+04  0.13493756539E+04  0.00000000000E+00 0.  1.
         -2   -1    0    0    0  501 -0.00000000000E+00 -0.00000000000E+00 -0.18526733086E+03  0.18526733086E+03  0.00000000000E+00 0.  1.
         36    2    1    2    0    0  0.35527136788E-13  0.00000000000E+00  0.11641083230E+04  0.15346429847E+04  0.99999045139E+03 0.  0.
         25    2    3    3    0    0 -0.49836623064E+02 -0.94091503231E+02  0.35592224763E+03  0.39254082770E+03  0.12677048187E+03 0.  0.
         35    2    3    3    0    0  0.49836623064E+02  0.94091503231E+02  0.80818607540E+03  0.11421021570E+04  0.79993481277E+03 0.  0.
         22    1    5    5    0    0 -0.32724826179E+03  0.86444776746E+02  0.65052662487E+03  0.73331372136E+03  0.00000000000E+00 0. -1.
         22    1    5    5    0    0  0.37708488485E+03  0.76467264856E+01  0.15765945053E+03  0.40878843569E+03  0.00000000000E+00 0. -1.
          5    1    4    4  502    0 -0.91369595359E+02 -0.59137538247E+02  0.26535286421E+03  0.28684470350E+03  0.47000000000E+01 0.  1.
         -5    1    4    4    0  502  0.41532972296E+02 -0.34953964984E+02  0.90569383424E+02  0.10569612419E+03  0.47000000000E+01 0.  1.
<mgrwt>
<rscale>  0 0.99999045E+03</rscale>
<asrwt>0</asrwt>
<pdfrwt beam="1">  1        2 0.20759625E+00 0.99999045E+03</pdfrwt>
<pdfrwt beam="2">  1       -2 0.28502667E-01 0.99999045E+03</pdfrwt>
<totfact> 0.20942352E+02</totfact>
</mgrwt>
</event>
<event>
 9    1  0.4497870E-036  0.1000095E+04  0.7818608E-02  0.8680948E-01
          2   -1    0    0  501    0  0.00000000000E+00  0.00000000000E+00  0.10291098701E+04  0.10291098701E+04  0.00000000000E+00 0. -1.
         -2   -1    0    0    0  501 -0.00000000000E+00 -0.00000000000E+00 -0.24297436275E+03  0.24297436275E+03  0.00000000000E+00 0. -1.
         36    2    1    2    0    0  0.00000000000E+00  0.00000000000E+00  0.78613550737E+03  0.12720842329E+04  0.10000946253E+04 0.  0.
         25    2    3    3    0    0  0.11389774375E+03  0.81022464188E+02  0.12058649421E+03  0.22262221892E+03  0.12442754534E+03 0.  0.
         35    2    3    3    0    0 -0.11389774375E+03 -0.81022464188E+02  0.66554901316E+03  0.10494620139E+04  0.79929825101E+03 0.  0.
         22    1    5    5    0    0  0.13026313228E+03  0.17814528575E+03  0.65723689662E+03  0.69329976543E+03  0.00000000000E+00 0.  1.
         22    1    5    5    0    0 -0.24416087602E+03 -0.25916774994E+03  0.83121165391E+01  0.35616224852E+03  0.00000000000E+00 0.  1.
          5    1    4    4  502    0  0.11914544858E+03  0.84304036661E+02  0.54172086079E+02  0.15575465780E+03  0.47000000000E+01 0. -1.
         -5    1    4    4    0  502 -0.52477048353E+01 -0.32815724733E+01  0.66414408128E+02  0.66867561126E+02  0.47000000000E+01 0. -1.
<mgrwt>
<rscale>  0 0.10000946E+04</rscale>
<asrwt>0</asrwt>
<pdfrwt beam="1">  1        2 0.15832459E+00 0.10000946E+04</pdfrwt>
<pdfrwt beam="2">  1       -2 0.37380672E-01 0.10000946E+04</pdfrwt>
<totfact> 0.19676711E+02</totfact>
</mgrwt>
</event>
<event>
 9    1  0.4497870E-036  0.9987470E+03  0.7818608E-02  0.8682232E-01
         -1   -1    0    0    0  501 -0.00000000000E+00  0.00000000000E+00  0.14174121945E+03  0.14174121945E+03  0.00000000000E+00 0.  1.
          1   -1    0    0  501    0  0.00000000000E+00 -0.00000000000E+00 -0.17593605605E+04  0.17593605605E+04  0.00000000000E+00 0.  1.
         36    2    1    2    0    0  0.00000000000E+00 -0.14210854715E-13 -0.16176193410E+04  0.19011017799E+04  0.99874703764E+03 0.  0.
         25    2    3    3    0    0 -0.59206704468E+02  0.48208514357E+02 -0.52228830452E+03  0.54250182491E+03  0.12527434809E+03 0.  0.
         35    2    3    3    0    0  0.59206704468E+02 -0.48208514357E+02 -0.10953310365E+04  0.13585999550E+04  0.80013390349E+03 0.  0.
         22    1    5    5    0    0  0.15175469483E+02  0.24805586852E+03 -0.28062027384E+02  0.25009895274E+03  0.00000000000E+00 0. -1.
         22    1    5    5    0    0  0.44031234985E+02 -0.29626438287E+03 -0.10672690091E+04  0.11085010023E+04  0.00000000000E+00 0. -1.
          5    1    4    4  502    0  0.38976155176E+02  0.15919507718E+02 -0.12604566017E+03  0.13297432025E+03  0.47000000000E+01 0. -1.
         -5    1    4    4    0  502 -0.98182859643E+02  0.32289006638E+02 -0.39624264435E+03  0.40952750467E+03  0.47000000000E+01 0. -1.
<mgrwt>
<rscale>  0 0.99874704E+03</rscale>
<asrwt>0</asrwt>
<pdfrwt beam="1">  1        1 0.27067087E+00 0.99874704E+03</pdfrwt>
<pdfrwt beam="2">  1       -1 0.21806341E-01 0.99874704E+03</pdfrwt>
<totfact> 0.81417026E+01</totfact>
</mgrwt>
</event>
<event>
 9    1  0.4497870E-036  0.9998003E+03  0.7818608E-02  0.8681228E-01
          1   -1    0    0  501    0  0.00000000000E+00  0.00000000000E+00  0.30808403041E+03  0.30808403041E+03  0.00000000000E+00 0. -1.
         -1   -1    0    0    0  501 -0.00000000000E+00 -0.00000000000E+00 -0.81114282878E+03  0.81114282878E+03  0.00000000000E+00 0. -1.
         36    2    1    2    0    0 -0.14210854715E-13 -0.14210854715E-13 -0.50305879837E+03  0.11192268592E+04  0.99980028391E+03 0.  0.
         25    2    3    3    0    0  0.81552369528E+02 -0.71636167149E+02 -0.21741688023E+03  0.27258150266E+03  0.12348298006E+03 0.  0.
         35    2    3    3    0    0 -0.81552369528E+02  0.71636167149E+02 -0.28564191814E+03  0.84664535653E+03  0.78957870090E+03 0.  0.
         22    1    5    5    0    0 -0.27578124532E+03 -0.87689013891E+02  0.16323665432E+03  0.33225120578E+03  0.00000000000E+00 0.  1.
         22    1    5    5    0    0  0.19422887579E+03  0.15932518104E+03 -0.44887857247E+03  0.51439415075E+03  0.00000000000E+00 0.  1.
          5    1    4    4  502    0 -0.31814324745E+02 -0.25569390208E+02 -0.43055478034E+02  0.59513100770E+02  0.47000000000E+01 0.  1.
         -5    1    4    4    0  502  0.11336669427E+03 -0.46066776941E+02 -0.17436140219E+03  0.21306840189E+03  0.47000000000E+01 0.  1.
<mgrwt>
<rscale>  0 0.99980028E+03</rscale>
<asrwt>0</asrwt>
<pdfrwt beam="1">  1        1 0.47397543E-01 0.99980028E+03</pdfrwt>
<pdfrwt beam="2">  1       -1 0.12479120E+00 0.99980028E+03</pdfrwt>
<totfact> 0.57125045E+01</totfact>
</mgrwt>
</event>
<event>
 9    1  0.4497870E-036  0.9999700E+03  0.7818608E-02  0.8681067E-01
          2   -1    0    0  501    0  0.00000000000E+00  0.00000000000E+00  0.53264421432E+03  0.53264421432E+03  0.00000000000E+00 0. -1.
         -2   -1    0    0    0  501 -0.00000000000E+00 -0.00000000000E+00 -0.46932828882E+03  0.46932828882E+03  0.00000000000E+00 0. -1.
         36    2    1    2    0    0 -0.42632564146E-13  0.00000000000E+00  0.63315925499E+02  0.10019725031E+04  0.99996999486E+03 0.  0.
         25    2    3    3    0    0  0.45330169042E+02  0.52170065100E+02  0.13357356298E+03  0.19551342419E+03  0.12492822897E+03 0.  0.
         35    2    3    3    0    0 -0.45330169042E+02 -0.52170065100E+02 -0.70257637485E+02  0.80645907894E+03  0.80041462410E+03 0.  0.
         22    1    5    5    0    0  0.35151060732E+03  0.70311874904E+02 -0.14092076915E+03  0.38517804972E+03  0.00000000000E+00 0. -1.
         22    1    5    5    0    0 -0.39684077636E+03 -0.12248194000E+03  0.70663131661E+02  0.42128102922E+03  0.00000000000E+00 0. -1.
          5    1    4    4  502    0 -0.25825971264E+02  0.39293491473E+02  0.44735201086E+01  0.47466426514E+02  0.47000000000E+01 0. -1.
         -5    1    4    4    0  502  0.71156140307E+02  0.12876573628E+02  0.12910004288E+03  0.14804699768E+03  0.47000000000E+01 0. -1.
<mgrwt>
<rscale>  0 0.99996999E+03</rscale>
<asrwt>0</asrwt>
<pdfrwt beam="1">  1        2 0.81945264E-01 0.99996999E+03</pdfrwt>
<pdfrwt beam="2">  1       -2 0.72204352E-01 0.99996999E+03</pdfrwt>
<totfact> 0.12006392E+02</totfact>
</mgrwt>
</event>
<event>
 9    1  0.4497870E-036  0.9988183E+03  0.7818608E-02  0.8682164E-01
         -1   -1    0    0    0  501 -0.00000000000E+00  0.00000000000E+00  0.61680912977E+03  0.61680912977E+03  0.00000000000E+00 0. -1.
          1   -1    0    0  501    0  0.00000000000E+00 -0.00000000000E+00 -0.40435438733E+03  0.40435438733E+03  0.00000000000E+00 0. -1.
         36    2    1    2    0    0 -0.21316282073E-13  0.00000000000E+00  0.21245474244E+03  0.10211635171E+04  0.99881825728E+03 0.  0.
         25    2    3    3    0    0 -0.56070441476E+02  0.88892063631E+02 -0.53814110397E+02  0.17231770191E+03  0.12550593026E+03 0.  0.
         35    2    3    3    0    0  0.56070441476E+02 -0.88892063631E+02  0.26626885283E+03  0.84884581519E+03  0.79912103125E+03 0.  0.
         22    1    5    5    0    0 -0.37022931503E+03 -0.83691716730E+02  0.13209254937E+03  0.40189860755E+03  0.00000000000E+00 0.  1.
         22    1    5    5    0    0  0.42629975650E+03 -0.52003469008E+01  0.13417630347E+03  0.44694720764E+03  0.00000000000E+00 0.  1.
          5    1    4    4  502    0 -0.90191550726E+02  0.49947051620E+02 -0.60919293081E+02  0.11984353991E+03  0.47000000000E+01 0. -1.
         -5    1    4    4    0  502  0.34121109251E+02  0.38945012012E+02  0.71051826838E+01  0.52474162004E+02  0.47000000000E+01 0. -1.
<mgrwt>
<rscale>  0 0.99881826E+03</rscale>
<asrwt>0</asrwt>
<pdfrwt beam="1">  1        1 0.62208367E-01 0.99881826E+03</pdfrwt>
<pdfrwt beam="2">  1       -1 0.94893713E-01 0.99881826E+03</pdfrwt>
<totfact> 0.75832726E+01</totfact>
</mgrwt>
</event>
<event>
 9    1  0.4497870E-036  0.1001806E+04  0.7818608E-02  0.8679320E-01
          2   -1    0    0  501    0  0.00000000000E+00  0.00000000000E+00  0.18407040491E+04  0.18407040491E+04  0.00000000000E+00 0. -1.
         -2   -1    0    0    0  501 -0.00000000000E+00 -0.00000000000E+00 -0.13630848757E+03  0.13630848757E+03  0.00000000000E+00 0. -1.
         36    2    1    2    0    0  0.00000000000E+00  0.00000000000E+00  0.17043955615E+04  0.19770125367E+04  0.10018055400E+04 0.  0.
         25    2    3    3    0    0  0.10039145100E+03 -0.88550213643E+02  0.40841178300E+03  0.44807295712E+03  0.12668704211E+03 0.  0.
         35    2    3    3    0    0 -0.10039145100E+03  0.88550213643E+02  0.12959837785E+04  0.15289395795E+04  0.80010168099E+03 0.  0.
         22    1    5    5    0    0 -0.22646811452E+03  0.22670488988E+03  0.13029494899E+04  0.13417750509E+04  0.00000000000E+00 0. -1.
         22    1    5    5    0    0  0.12607666352E+03 -0.13815467624E+03 -0.69657113653E+01  0.18716452865E+03  0.00000000000E+00 0. -1.
          5    1    4    4  502    0 -0.64407757725E+01 -0.51750452406E+02  0.23700617637E+03  0.24272126102E+03  0.47000000000E+01 0. -1.
         -5    1    4    4    0  502  0.10683222678E+03 -0.36799761237E+02  0.17140560663E+03  0.20535169610E+03  0.47000000000E+01 0. -1.
<mgrwt>
<rscale>  0 0.10018055E+04</rscale>
<asrwt>0</asrwt>
<pdfrwt beam="1">  1        2 0.28318522E+00 0.10018055E+04</pdfrwt>
<pdfrwt beam="2">  1       -2 0.20970538E-01 0.10018055E+04</pdfrwt>
<totfact> 0.19010481E+02</totfact>
</mgrwt>
</event>
<event>
 9    1  0.4497870E-036  0.9983280E+03  0.7818608E-02  0.8682632E-01
          2   -1    0    0  501    0  0.00000000000E+00  0.00000000000E+00  0.14268639710E+04  0.14268639710E+04  0.00000000000E+00 0.  1.
         -2   -1    0    0    0  501 -0.00000000000E+00 -0.00000000000E+00 -0.17462398619E+03  0.17462398619E+03  0.00000000000E+00 0.  1.
         36    2    1    2    0    0  0.00000000000E+00  0.14210854715E-13  0.12522399848E+04  0.16014879572E+04  0.99832795084E+03 0.  0.
         25    2    3    3    0    0 -0.10284387749E+03 -0.87317472041E+02  0.28850847417E+03  0.34200007902E+03  0.12460220834E+03 0.  0.
         35    2    3    3    0    0  0.10284387749E+03  0.87317472041E+02  0.96373151061E+03  0.12594878781E+04  0.79958119447E+03 0.  0.
         22    1    5    5    0    0  0.24034559855E+03  0.35477304661E+03  0.27823266571E+03  0.51092400375E+03  0.00000000000E+00 0. -1.
         22    1    5    5    0    0 -0.13750172106E+03 -0.26745557457E+03  0.68549884490E+03  0.74856387438E+03  0.00000000000E+00 0. -1.
          5    1    4    4  502    0  0.18093543764E+02 -0.55002254009E+02  0.10048008701E+03  0.11606447414E+03  0.47000000000E+01 0. -1.
         -5    1    4    4    0  502 -0.12093742125E+03 -0.32315218032E+02  0.18802838716E+03  0.22593560488E+03  0.47000000000E+01 0. -1.
<mgrwt>
<rscale>  0 0.99832795E+03</rscale>
<asrwt>0</asrwt>
<pdfrwt beam="1">  1        2 0.21951753E+00 0.99832795E+03</pdfrwt>
<pdfrwt beam="2">  1       -2 0.26865230E-01 0.99832795E+03</pdfrwt>
<totfact> 0.21035571E+02</totfact>
</mgrwt>
</event>
<event>
 9    1  0.4497870E-036  0.1000161E+04  0.7818608E-02  0.8680884E-01
         -2   -1    0    0    0  501 -0.00000000000E+00  0.00000000000E+00  0.46610673553E+03  0.46610673553E+03  0.00000000000E+00 0.  1.
          2   -1    0    0  501    0  0.00000000000E+00 -0.00000000000E+00 -0.53653083703E+03  0.53653083703E+03  0.00000000000E+00 0.  1.
         36    2    1    2    0    0 -0.14210854715E-13  0.00000000000E+00 -0.70424101505E+02  0.10026375726E+04  0.10001612609E+04 0.  0.
         25    2    3    3    0    0 -0.74075198801E+02  0.11737731357E+03  0.12086817956E+02  0.18643737810E+03  0.12388799767E+03 0.  0.
         35    2    3    3    0    0  0.74075198801E+02 -0.11737731357E+03 -0.82510919461E+02  0.81620019446E+03  0.80006883253E+03 0.  0.
         22    1    5    5    0    0 -0.19536393394E+03 -0.16840403622E+03 -0.34889897894E+03  0.43388648700E+03  0.00000000000E+00 0.  1.
         22    1    5    5    0    0  0.26943913274E+03  0.51026722654E+02  0.26638805948E+03  0.38231370746E+03  0.00000000000E+00 0.  1.
          5    1    4    4  502    0 -0.86498204333E+01  0.79036932077E+01  0.51377135861E+02  0.52905461430E+02  0.47000000000E+01 0.  1.
         -5    1    4    4    0  502 -0.65425378367E+02  0.10947362036E+03 -0.39290317905E+02  0.13353191667E+03  0.47000000000E+01 0.  1.
<mgrwt>
<rscale>  0 0.10001613E+04</rscale>
<asrwt>0</asrwt>
<pdfrwt beam="1">  1        2 0.82543206E-01 0.10001613E+04</pdfrwt>
<pdfrwt beam="2">  1       -2 0.71708729E-01 0.10001613E+04</pdfrwt>
<totfact> 0.12086772E+02</totfact>
</mgrwt>
</event>
<event>
 9    1  0.4497870E-036  0.9989796E+03  0.7818608E-02  0.8682010E-01
         -1   -1    0    0    0  501 -0.00000000000E+00  0.00000000000E+00  0.26443847280E+03  0.26443847280E+03  0.00000000000E+00 0.  1.
          1   -1    0    0  501    0  0.00000000000E+00 -0.00000000000E+00 -0.94347115340E+03  0.94347115340E+03  0.00000000000E+00 0.  1.
         36    2    1    2    0    0 -0.35527136788E-14  0.00000000000E+00 -0.67903268059E+03  0.12079096262E+04  0.99897962129E+03 0.  0.
         25    2    3    3    0    0  0.10302103962E+02  0.12993006743E+03 -0.69221384778E+02  0.19344128738E+03  0.12505988879E+03 0.  0.
         35    2    3    3    0    0 -0.10302103962E+02 -0.12993006743E+03 -0.60981129582E+03  0.10144683388E+04  0.80018012860E+03 0.  0.
         22    1    5    5    0    0 -0.26190006386E+02 -0.66558617878E+01 -0.79279892666E+03  0.79325932395E+03  0.00000000000E+00 0. -1.
         22    1    5    5    0    0  0.15887902424E+02 -0.12327420564E+03  0.18298763084E+03  0.22120901487E+03  0.00000000000E+00 0. -1.
          5    1    4    4  502    0 -0.34346482741E+02  0.81037731444E+02 -0.87905255253E+02  0.12448380897E+03  0.47000000000E+01 0.  1.
         -5    1    4    4    0  502  0.44648586702E+02  0.48892335985E+02  0.18683870475E+02  0.68957478409E+02  0.47000000000E+01 0.  1.
<mgrwt>
<rscale>  0 0.99897962E+03</rscale>
<asrwt>0</asrwt>
<pdfrwt beam="1">  1        1 0.14514941E+00 0.99897962E+03</pdfrwt>
<pdfrwt beam="2">  1       -1 0.40682842E-01 0.99897962E+03</pdfrwt>
<totfact> 0.11137574E+02</totfact>
</mgrwt>
</event>
<event>
 9    1  0.4497870E-036  0.1004198E+04  0.7818608E-02  0.8677050E-01
         -1   -1    0    0    0  501 -0.00000000000E+00  0.00000000000E+00  0.69424166690E+03  0.69424166690E+03  0.00000000000E+00 0.  1.
          1   -1    0    0  501    0  0.00000000000E+00 -0.00000000000E+00 -0.36313528250E+03  0.36313528250E+03  0.00000000000E+00 0.  1.
         36    2    1    2    0    0  0.42632564146E-13  0.35527136788E-14  0.33110638441E+03  0.10573769494E+04  0.10041984741E+04 0.  0.
         25    2    3    3    0    0 -0.88810438119E+02 -0.14765315180E+02  0.18341465213E+03  0.23952016393E+03  0.12499466334E+03 0.  0.
         35    2    3    3    0    0  0.88810438119E+02  0.14765315180E+02  0.14769173228E+03  0.81785678546E+03  0.79935696988E+03 0.  0.
         22    1    5    5    0    0  0.28009497662E+03  0.13094704228E+03  0.38358865172E+03  0.49268709902E+03  0.00000000000E+00 0. -1.
         22    1    5    5    0    0 -0.19128453850E+03 -0.11618172710E+03 -0.23589691945E+03  0.32516968645E+03  0.00000000000E+00 0. -1.
          5    1    4    4  502    0 -0.11706478086E+03 -0.27923618096E+02  0.12791031682E+03  0.17569015486E+03  0.47000000000E+01 0.  1.
         -5    1    4    4    0  502  0.28254342746E+02  0.13158302916E+02  0.55504335315E+02  0.63830009075E+02  0.47000000000E+01 0.  1.
<mgrwt>
<rscale>  0 0.10041985E+04</rscale>
<asrwt>0</asrwt>
<pdfrwt beam="1">  1        1 0.55866966E-01 0.10041985E+04</pdfrwt>
<pdfrwt beam="2">  1       -1 0.10680641E+00 0.10041985E+04</pdfrwt>
<totfact> 0.67025526E+01</totfact>
</mgrwt>
</event>
<event>
 9    1  0.4497870E-036  0.9943399E+03  0.7818608E-02  0.8686447E-01
         -2   -1    0    0    0  501 -0.00000000000E+00  0.00000000000E+00  0.57659471546E+03  0.57659471546E+03  0.00000000000E+00 0.  1.
          2   -1    0    0  501    0  0.00000000000E+00 -0.00000000000E+00 -0.42868575279E+03  0.42868575279E+03  0.00000000000E+00 0.  1.
         36    2    1    2    0    0  0.14210854715E-13 -0.71054273576E-14  0.14790896268E+03  0.10052804683E+04  0.99433986072E+03 0.  0.
         25    2    3    3    0    0  0.72714235869E+02 -0.62880220568E+02  0.11802443356E+03  0.19970085236E+03  0.12926477200E+03 0.  0.
         35    2    3    3    0    0 -0.72714235869E+02  0.62880220568E+02  0.29884529117E+02  0.80557961589E+03  0.79926475602E+03 0.  0.
         22    1    5    5    0    0 -0.33121908901E+03 -0.23464602628E+03 -0.29534998533E+02  0.40698545270E+03  0.00000000000E+00 0.  1.
         22    1    5    5    0    0  0.25850485314E+03  0.29752624685E+03  0.59419527651E+02  0.39859416319E+03  0.00000000000E+00 0.  1.
          5    1    4    4  502    0  0.63577679518E+02  0.10549017759E+02  0.10663631397E+03  0.12468679387E+03  0.47000000000E+01 0.  1.
         -5    1    4    4    0  502  0.91365563510E+01 -0.73429238327E+02  0.11388119583E+02  0.75014058488E+02  0.47000000000E+01 0.  1.
<mgrwt>
<rscale>  0 0.99433986E+03</rscale>
<asrwt>0</asrwt>
<pdfrwt beam="1">  1        2 0.65951654E-01 0.99433986E+03</pdfrwt>
<pdfrwt beam="2">  1       -2 0.88706879E-01 0.99433986E+03</pdfrwt>
<totfact> 0.96092380E+01</totfact>
</mgrwt>
</event>
<event>
 9    1  0.4497870E-036  0.1000186E+04  0.7818608E-02  0.8680860E-01
         -1   -1    0    0    0  501 -0.00000000000E+00  0.00000000000E+00  0.31580111033E+03  0.31580111033E+03  0.00000000000E+00 0. -1.
          1   -1    0    0  501    0  0.00000000000E+00 -0.00000000000E+00 -0.79193261206E+03  0.79193261206E+03  0.00000000000E+00 0. -1.
         36    2    1    2    0    0  0.00000000000E+00  0.71054273576E-14 -0.47613150172E+03  0.11077337224E+04  0.10001863790E+04 0.  0.
         25    2    3    3    0    0  0.13057114021E+03 -0.20071080502E+01 -0.29429889703E+02  0.18276345235E+03  0.12443275279E+03 0.  0.
         35    2    3    3    0    0 -0.13057114021E+03  0.20071080502E+01 -0.44670161202E+03  0.92497027005E+03  0.79935900517E+03 0.  0.
         22    1    5    5    0    0 -0.93869330473E+02  0.22876753261E+03 -0.59989626867E+03  0.64886174825E+03  0.00000000000E+00 0.  1.
         22    1    5    5    0    0 -0.36701809738E+02 -0.22676042456E+03  0.15319465665E+03  0.27610852180E+03  0.00000000000E+00 0.  1.
          5    1    4    4  502    0  0.41852439804E+02  0.41744475580E+02  0.30834590747E+02  0.66836292128E+02  0.47000000000E+01 0.  1.
         -5    1    4    4    0  502  0.88718700408E+02 -0.43751583630E+02 -0.60264480449E+02  0.11592716022E+03  0.47000000000E+01 0.  1.
<mgrwt>
<rscale>  0 0.10001864E+04</rscale>
<asrwt>0</asrwt>
<pdfrwt beam="1">  1        1 0.12183579E+00 0.10001864E+04</pdfrwt>
<pdfrwt beam="2">  1       -1 0.48584787E-01 0.10001864E+04</pdfrwt>
<totfact> 0.10857282E+02</totfact>
</mgrwt>
</event>
<event>
 9    1  0.4497870E-036  0.9989329E+03  0.7818608E-02  0.8682055E-01
         -1   -1    0    0    0  501 -0.00000000000E+00  0.00000000000E+00  0.19557182703E+03  0.19557182703E+03  0.00000000000E+00 0. -1.
          1   -1    0    0  501    0  0.00000000000E+00 -0.00000000000E+00 -0.12755761416E+04  0.12755761416E+04  0.00000000000E+00 0. -1.
         36    2    1    2    0    0  0.28421709430E-13 -0.14210854715E-13 -0.10800043146E+04  0.14711479687E+04  0.99893294376E+03 0.  0.
         25    2    3    3    0    0  0.66538322079E+02  0.71765539935E+02 -0.44645797543E+02  0.15925920463E+03  0.11744192604E+03 0.  0.
         35    2    3    3    0    0 -0.66538322079E+02 -0.71765539935E+02 -0.10353585170E+04  0.13118887640E+04  0.79969195902E+03 0.  0.
         22    1    5    5    0    0 -0.42513233071E+03  0.44641217994E+02 -0.58537325661E+03  0.72483942119E+03  0.00000000000E+00 0.  1.
         22    1    5    5    0    0  0.35859400863E+03 -0.11640675793E+03 -0.44998526044E+03  0.58704934284E+03  0.00000000000E+00 0.  1.
          5    1    4    4  502    0  0.48534553609E+02  0.10329825079E+03 -0.22359991408E+02  0.11639669551E+03  0.47000000000E+01 0.  1.
         -5    1    4    4    0  502  0.18003768471E+02 -0.31532710851E+02 -0.22285806135E+02  0.42862509117E+02  0.47000000000E+01 0.  1.
<mgrwt>
<rscale>  0 0.99893294E+03</rscale>
<asrwt>0</asrwt>
<pdfrwt beam="1">  1        1 0.19624248E+00 0.99893294E+03</pdfrwt>
<pdfrwt beam="2">  1       -1 0.30087973E-01 0.99893294E+03</pdfrwt>
<totfact> 0.10482340E+02</totfact>
</mgrwt>
</event>
<event>
 9    1  0.4497870E-036  0.1000372E+04  0.7818608E-02  0.8680683E-01
         -2   -1    0    0    0  501 -0.00000000000E+00  0.00000000000E+00  0.96086224355E+03  0.96086224355E+03  0.00000000000E+00 0. -1.
          2   -1    0    0  501    0  0.00000000000E+00 -0.00000000000E+00 -0.26037674633E+03  0.26037674633E+03  0.00000000000E+00 0. -1.
         36    2    1    2    0    0  0.71054273576E-14 -0.28421709430E-13  0.70048549722E+03  0.12212389899E+04  0.10003723000E+04 0.  0.
         25    2    3    3    0    0  0.74373021695E+01 -0.13908166352E+03  0.10793535097E+03  0.21596438620E+03  0.12486614244E+03 0.  0.
         35    2    3    3    0    0 -0.74373021695E+01  0.13908166352E+03  0.59255014625E+03  0.10052746037E+04  0.80003895555E+03 0.  0.
         22    1    5    5    0    0  0.61952231610E+02  0.21665580644E+02  0.77483759505E+03  0.77761222668E+03  0.00000000000E+00 0. -1.
         22    1    5    5    0    0 -0.69389533780E+02  0.11741608287E+03 -0.18228744879E+03  0.22766237700E+03  0.00000000000E+00 0. -1.
          5    1    4    4  502    0  0.36327945663E+02 -0.12787520773E+03  0.12301682894E+03  0.18118228002E+03  0.47000000000E+01 0.  1.
         -5    1    4    4    0  502 -0.28890643494E+02 -0.11206455786E+02 -0.15081477972E+02  0.34782106184E+02  0.47000000000E+01 0.  1.
<mgrwt>
<rscale>  0 0.10003723E+04</rscale>
<asrwt>0</asrwt>
<pdfrwt beam="1">  1        2 0.40057962E-01 0.10003723E+04</pdfrwt>
<pdfrwt beam="2">  1       -2 0.14782496E+00 0.10003723E+04</pdfrwt>
<totfact> 0.45441898E+01</totfact>
</mgrwt>
</event>
<event>
 9    1  0.4497870E-036  0.9993614E+03  0.7818608E-02  0.8681646E-01
          1   -1    0    0  501    0  0.00000000000E+00  0.00000000000E+00  0.15622328759E+04  0.15622328759E+04  0.00000000000E+00 0. -1.
         -1   -1    0    0    0  501 -0.00000000000E+00 -0.00000000000E+00 -0.15982302067E+03  0.15982302067E+03  0.00000000000E+00 0. -1.
         36    2    1    2    0    0 -0.35527136788E-14  0.28421709430E-13  0.14024098553E+04  0.17220558966E+04  0.99936135051E+03 0.  0.
         25    2    3    3    0    0  0.17064263823E+02 -0.11997272455E+03  0.38214652821E+03  0.41991580520E+03  0.12493466570E+03 0.  0.
         35    2    3    3    0    0 -0.17064263823E+02  0.11997272455E+03  0.10202633270E+04  0.13021400914E+04  0.79996682268E+03 0.  0.
         22    1    5    5    0    0 -0.26164126853E+02  0.45453565912E+03  0.72349992103E+03  0.85483294431E+03  0.00000000000E+00 0.  1.
         22    1    5    5    0    0  0.90998630303E+01 -0.33456293457E+03  0.29676340602E+03  0.44730714710E+03  0.00000000000E+00 0.  1.
          5    1    4    4  502    0 -0.37708356526E+02 -0.47902811917E+02  0.61578241054E+02  0.86778852912E+02  0.47000000000E+01 0. -1.
         -5    1    4    4    0  502  0.54772620349E+02 -0.72069912634E+02  0.32056828716E+03  0.33313695229E+03  0.47000000000E+01 0. -1.
<mgrwt>
<rscale>  0 0.99936135E+03</rscale>
<asrwt>0</asrwt>
<pdfrwt beam="1">  1        1 0.24034351E+00 0.99936135E+03</pdfrwt>
<pdfrwt beam="2">  1       -1 0.24588158E-01 0.99936135E+03</pdfrwt>
<totfact> 0.91787376E+01</totfact>
</mgrwt>
</event>
<event>
 9    1  0.4497870E-036  0.1000407E+04  0.7818608E-02  0.8680650E-01
          1   -1    0    0  501    0  0.00000000000E+00  0.00000000000E+00  0.19539838616E+04  0.19539838616E+04  0.00000000000E+00 0. -1.
         -1   -1    0    0    0  501 -0.00000000000E+00 -0.00000000000E+00 -0.12804789832E+03  0.12804789832E+03  0.00000000000E+00 0. -1.
         36    2    1    2    0    0  0.00000000000E+00 -0.35527136788E-13  0.18259359632E+04  0.20820317599E+04  0.10004069708E+04 0.  0.
         25    2    3    3    0    0 -0.13717362367E+03 -0.12939908536E+02  0.28769691388E+03  0.34233814429E+03  0.12426522651E+03 0.  0.
         35    2    3    3    0    0  0.13717362367E+03  0.12939908536E+02  0.15382390494E+04  0.17396936156E+04  0.80085607875E+03 0.  0.
         22    1    5    5    0    0  0.38413949080E+03  0.25666444019E+03  0.79598532945E+03  0.92034364666E+03  0.00000000000E+00 0.  1.
         22    1    5    5    0    0 -0.24696586713E+03 -0.24372453165E+03  0.74225371991E+03  0.81934996893E+03  0.00000000000E+00 0.  1.
          5    1    4    4  502    0  0.35305033098E+01  0.33352654475E+02  0.82846428590E+02  0.89501311411E+02  0.47000000000E+01 0.  1.
         -5    1    4    4    0  502 -0.14070412698E+03 -0.46292563012E+02  0.20485048529E+03  0.25283683288E+03  0.47000000000E+01 0.  1.
<mgrwt>
<rscale>  0 0.10004070E+04</rscale>
<asrwt>0</asrwt>
<pdfrwt beam="1">  1        1 0.30061288E+00 0.10004070E+04</pdfrwt>
<pdfrwt beam="2">  1       -1 0.19699678E-01 0.10004070E+04</pdfrwt>
<totfact> 0.70338555E+01</totfact>
</mgrwt>
</event>
<event>
 9    1  0.4497870E-036  0.9996803E+03  0.7818608E-02  0.8681342E-01
         -2   -1    0    0    0  501 -0.00000000000E+00  0.00000000000E+00  0.20153168707E+03  0.20153168707E+03  0.00000000000E+00 0.  1.
          2   -1    0    0  501    0  0.00000000000E+00 -0.00000000000E+00 -0.12397065863E+04  0.12397065863E+04  0.00000000000E+00 0.  1.
         36    2    1    2    0    0  0.00000000000E+00 -0.28421709430E-13 -0.10381748992E+04  0.14412382733E+04  0.99968026848E+03 0.  0.
         25    2    3    3    0    0 -0.24082060081E+02  0.52960397207E+02 -0.37837100371E+03  0.40273665846E+03  0.12508976909E+03 0.  0.
         35    2    3    3    0    0  0.24082060081E+02 -0.52960397207E+02 -0.65980389550E+03  0.10385016149E+04  0.79984978233E+03 0.  0.
         22    1    5    5    0    0  0.21073016266E+03  0.22757775846E+03 -0.14473183902E+02  0.31049687704E+03  0.00000000000E+00 0. -1.
         22    1    5    5    0    0 -0.18664810258E+03 -0.28053815566E+03 -0.64533071160E+03  0.72800473784E+03  0.00000000000E+00 0. -1.
          5    1    4    4  502    0 -0.48678707994E+02  0.44537080012E+02 -0.82752050701E+02  0.10593941666E+03  0.47000000000E+01 0. -1.
         -5    1    4    4    0  502  0.24596647913E+02  0.84233171953E+01 -0.29561895301E+03  0.29679724180E+03  0.47000000000E+01 0. -1.
<mgrwt>
<rscale>  0 0.99968027E+03</rscale>
<asrwt>0</asrwt>
<pdfrwt beam="1">  1        2 0.19072409E+00 0.99968027E+03</pdfrwt>
<pdfrwt beam="2">  1       -2 0.31004876E-01 0.99968027E+03</pdfrwt>
<totfact> 0.20805592E+02</totfact>
</mgrwt>
</event>
<event>
 9    1  0.4497870E-036  0.9923079E+03  0.7818608E-02  0.8688398E-01
          2   -1    0    0  501    0  0.00000000000E+00  0.00000000000E+00  0.59832597226E+03  0.59832597226E+03  0.00000000000E+00 0.  1.
         -2   -1    0    0    0  501 -0.00000000000E+00 -0.00000000000E+00 -0.41142912154E+03  0.41142912154E+03  0.00000000000E+00 0.  1.
         36    2    1    2    0    0  0.28421709430E-13  0.14210854715E-13  0.18689685072E+03  0.10097550938E+04  0.99230787392E+03 0.  0.
         25    2    3    3    0    0 -0.10659445080E+03 -0.70586135510E+02  0.22082965630E+02  0.18299753534E+03  0.12905681348E+03 0.  0.
         35    2    3    3    0    0  0.10659445080E+03  0.70586135510E+02  0.16481388509E+03  0.82675755845E+03  0.80001229007E+03 0.  0.
         22    1    5    5    0    0 -0.31962502174E+03 -0.11965686993E+03  0.99236813484E+02  0.35542350259E+03  0.00000000000E+00 0.  1.
         22    1    5    5    0    0  0.42621947254E+03  0.19024300544E+03  0.65577071603E+02  0.47133405586E+03  0.00000000000E+00 0.  1.
          5    1    4    4  502    0  0.21595036219E+02 -0.35571410286E+02 -0.15765405343E+02  0.44747165548E+02  0.47000000000E+01 0.  1.
         -5    1    4    4    0  502 -0.12818948701E+03 -0.35014725224E+02  0.37848370973E+02  0.13825036980E+03  0.47000000000E+01 0.  1.
<mgrwt>
<rscale>  0 0.99230787E+03</rscale>
<asrwt>0</asrwt>
<pdfrwt beam="1">  1        2 0.92050149E-01 0.99230787E+03</pdfrwt>
<pdfrwt beam="2">  1       -2 0.63296788E-01 0.99230787E+03</pdfrwt>
<totfact> 0.13913000E+02</totfact>
</mgrwt>
</event>
<event>
 9    1  0.4497870E-036  0.1003295E+04  0.7818608E-02  0.8677906E-01
          4   -1    0    0  501    0  0.00000000000E+00  0.00000000000E+00  0.26372782125E+03  0.26372782125E+03  0.00000000000E+00 0.  1.
         -4   -1    0    0    0  501 -0.00000000000E+00 -0.00000000000E+00 -0.95420444787E+03  0.95420444787E+03  0.00000000000E+00 0.  1.
         36    2    1    2    0    0 -0.28421709430E-13  0.28421709430E-13 -0.69047662662E+03  0.12179322691E+04  0.10032950913E+04 0.  0.
         25    2    3    3    0    0 -0.20096020717E+02 -0.13512316010E+03 -0.15759246920E+03  0.24340748834E+03  0.12549781108E+03 0.  0.
         35    2    3    3    0    0  0.20096020717E+02  0.13512316010E+03 -0.53288415741E+03  0.97452478077E+03  0.80440717592E+03 0.  0.
         22    1    5    5    0    0 -0.28440336421E+03  0.18930048947E+03  0.18693301262E+02  0.34215404192E+03  0.00000000000E+00 0. -1.
         22    1    5    5    0    0  0.30449938493E+03 -0.54177329361E+02 -0.55157745868E+03  0.63237073885E+03  0.00000000000E+00 0. -1.
          5    1    4    4  502    0 -0.57969370956E+02 -0.15873826268E+02 -0.50042931464E+02  0.78350566806E+02  0.47000000000E+01 0.  1.
         -5    1    4    4    0  502  0.37873350239E+02 -0.11924933384E+03 -0.10754953774E+03  0.16505692154E+03  0.47000000000E+01 0.  1.
<mgrwt>
<rscale>  0 0.10032951E+04</rscale>
<asrwt>0</asrwt>
<pdfrwt beam="1">  1        4 0.40573511E-01 0.10032951E+04</pdfrwt>
<pdfrwt beam="2">  1       -4 0.14680069E+00 0.10032951E+04</pdfrwt>
<totfact> 0.37784532E+00</totfact>
</mgrwt>
</event>
<event>
 9    1  0.4497870E-036  0.1001646E+04  0.7818608E-02  0.8679472E-01
         -2   -1    0    0    0  501 -0.00000000000E+00  0.00000000000E+00  0.13995371544E+03  0.13995371544E+03  0.00000000000E+00 0. -1.
          2   -1    0    0  501    0  0.00000000000E+00 -0.00000000000E+00 -0.17921915025E+04  0.17921915025E+04  0.00000000000E+00 0. -1.
         36    2    1    2    0    0  0.00000000000E+00 -0.14210854715E-13 -0.16522377870E+04  0.19321452179E+04  0.10016463639E+04 0.  0.
         25    2    3    3    0    0  0.70313801973E+02  0.12320220888E+03 -0.27986681828E+03  0.33788737275E+03  0.12537793135E+03 0.  0.
         35    2    3    3    0    0 -0.70313801973E+02 -0.12320220888E+03 -0.13723709688E+04  0.15942578452E+04  0.79883238917E+03 0.  0.
         22    1    5    5    0    0  0.23621829629E+03 -0.34669901786E+03 -0.85856546028E+03  0.95558042156E+03  0.00000000000E+00 0. -1.
         22    1    5    5    0    0 -0.30653209826E+03  0.22349680898E+03 -0.51380550847E+03  0.63867742360E+03  0.00000000000E+00 0. -1.
          5    1    4    4  502    0  0.18298095894E+02  0.74016234452E+02 -0.24779535607E+03  0.25930262584E+03  0.47000000000E+01 0. -1.
         -5    1    4    4    0  502  0.52015706079E+02  0.49185974424E+02 -0.32071462210E+02  0.78584746912E+02  0.47000000000E+01 0. -1.
<mgrwt>
<rscale>  0 0.10016464E+04</rscale>
<asrwt>0</asrwt>
<pdfrwt beam="1">  1        2 0.27572177E+00 0.10016464E+04</pdfrwt>
<pdfrwt beam="2">  1       -2 0.21531341E-01 0.10016464E+04</pdfrwt>
<totfact> 0.19338229E+02</totfact>
</mgrwt>
</event>
<event>
 9    1  0.4497870E-036  0.9973350E+03  0.7818608E-02  0.8683580E-01
         -2   -1    0    0    0  501 -0.00000000000E+00  0.00000000000E+00  0.26891473080E+03  0.26891473080E+03  0.00000000000E+00 0.  1.
          2   -1    0    0  501    0  0.00000000000E+00 -0.00000000000E+00 -0.92471421406E+03  0.92471421406E+03  0.00000000000E+00 0.  1.
         36    2    1    2    0    0  0.14210854715E-13  0.71054273576E-14 -0.65579948327E+03  0.11936289449E+04  0.99733499675E+03 0.  0.
         25    2    3    3    0    0 -0.32100919113E+02  0.70922782892E+01  0.37488743180E+02  0.13462956217E+03  0.12505576247E+03 0.  0.
         35    2    3    3    0    0  0.32100919113E+02 -0.70922782892E+01 -0.69328822645E+03  0.10589993827E+04  0.79984395864E+03 0.  0.
         22    1    5    5    0    0 -0.30263550705E+03  0.57100211392E+02 -0.64500721425E+03  0.71476079265E+03  0.00000000000E+00 0.  1.
         22    1    5    5    0    0  0.33473642616E+03 -0.64192489682E+02 -0.48281012195E+02  0.34423859004E+03  0.00000000000E+00 0.  1.
          5    1    4    4  502    0 -0.50662946999E+02  0.53159714623E+02  0.41672978248E+02  0.84566048586E+02  0.47000000000E+01 0.  1.
         -5    1    4    4    0  502  0.18562027886E+02 -0.46067436334E+02 -0.41842350674E+01  0.50063513587E+02  0.47000000000E+01 0.  1.
<mgrwt>
<rscale>  0 0.99733500E+03</rscale>
<asrwt>0</asrwt>
<pdfrwt beam="1">  1        2 0.14226372E+00 0.99733500E+03</pdfrwt>
<pdfrwt beam="2">  1       -2 0.41371497E-01 0.99733500E+03</pdfrwt>
<totfact> 0.18888279E+02</totfact>
</mgrwt>
</event>
<event>
 9    1  0.4497870E-036  0.1000208E+04  0.7818608E-02  0.8680840E-01
          2   -1    0    0  501    0  0.00000000000E+00  0.00000000000E+00  0.10481085802E+04  0.10481085802E+04  0.00000000000E+00 0.  1.
         -2   -1    0    0    0  501 -0.00000000000E+00 -0.00000000000E+00 -0.23862410251E+03  0.23862410251E+03  0.00000000000E+00 0.  1.
         36    2    1    2    0    0  0.14210854715E-13  0.14210854715E-13  0.80948447764E+03  0.12867326827E+04  0.10002079169E+04 0.  0.
         25    2    3    3    0    0  0.73538620587E+02 -0.12182073913E+03  0.19457296940E+03  0.27110725642E+03  0.12406563933E+03 0.  0.
         35    2    3    3    0    0 -0.73538620587E+02  0.12182073913E+03  0.61491150824E+03  0.10156254262E+04  0.79569505607E+03 0.  0.
         22    1    5    5    0    0  0.20503625506E+03 -0.26235238899E+03  0.27595406160E+03  0.43245726495E+03  0.00000000000E+00 0. -1.
         22    1    5    5    0    0 -0.27857487565E+03  0.38417312812E+03  0.33895744665E+03  0.58316816129E+03  0.00000000000E+00 0. -1.
          5    1    4    4  502    0  0.42195591965E+02 -0.57689421359E+02  0.18568553858E+03  0.19902197506E+03  0.47000000000E+01 0. -1.
         -5    1    4    4    0  502  0.31343028622E+02 -0.64131317773E+02  0.88874308185E+01  0.72085281362E+02  0.47000000000E+01 0. -1.
<mgrwt>
<rscale>  0 0.10002079E+04</rscale>
<asrwt>0</asrwt>
<pdfrwt beam="1">  1        2 0.16124747E+00 0.10002079E+04</pdfrwt>
<pdfrwt beam="2">  1       -2 0.36711401E-01 0.10002079E+04</pdfrwt>
<totfact> 0.19814465E+02</totfact>
</mgrwt>
</event>
<event>
 9    1  0.4497870E-036  0.9995079E+03  0.7818608E-02  0.8681507E-01
         -2   -1    0    0    0  501 -0.00000000000E+00  0.00000000000E+00  0.62503690423E+03  0.62503690423E+03  0.00000000000E+00 0. -1.
          2   -1    0    0  501    0  0.00000000000E+00 -0.00000000000E+00 -0.39958283134E+03  0.39958283134E+03  0.00000000000E+00 0. -1.
         36    2    1    2    0    0 -0.21316282073E-13  0.56843418861E-13  0.22545407289E+03  0.10246197356E+04  0.99950791069E+03 0.  0.
         25    2    3    3    0    0 -0.26550591080E+02 -0.11070173464E+03  0.12300857451E+03  0.20916096302E+03  0.12512949736E+03 0.  0.
         35    2    3    3    0    0  0.26550591080E+02  0.11070173464E+03  0.10244549837E+03  0.81545877254E+03  0.80094826402E+03 0.  0.
         22    1    5    5    0    0  0.15442849087E+03 -0.32129155040E+03  0.16843812854E+02  0.35687551496E+03  0.00000000000E+00 0.  1.
         22    1    5    5    0    0 -0.12787789979E+03  0.43199328504E+03  0.85601685519E+02  0.45858325758E+03  0.00000000000E+00 0.  1.
          5    1    4    4  502    0  0.43201393410E+02 -0.49692168459E+02  0.16776323529E+02  0.68111724614E+02  0.47000000000E+01 0. -1.
         -5    1    4    4    0  502 -0.69751984490E+02 -0.61009566183E+02  0.10623225099E+03  0.14104923841E+03  0.47000000000E+01 0. -1.
<mgrwt>
<rscale>  0 0.99950791E+03</rscale>
<asrwt>0</asrwt>
<pdfrwt beam="1">  1        2 0.61474282E-01 0.99950791E+03</pdfrwt>
<pdfrwt beam="2">  1       -2 0.96159524E-01 0.99950791E+03</pdfrwt>
<totfact> 0.85903653E+01</totfact>
</mgrwt>
</event>
<event>
 9    1  0.4497870E-036  0.1000057E+04  0.7818608E-02  0.8680984E-01
          1   -1    0    0  501    0  0.00000000000E+00  0.00000000000E+00  0.27124432833E+03  0.27124432833E+03  0.00000000000E+00 0. -1.
         -1   -1    0    0    0  501 -0.00000000000E+00 -0.00000000000E+00 -0.92178362070E+03  0.92178362070E+03  0.00000000000E+00 0. -1.
         36    2    1    2    0    0  0.00000000000E+00 -0.21316282073E-13 -0.65053929237E+03  0.11930279490E+04  0.10000571565E+04 0.  0.
         25    2    3    3    0    0  0.11090127592E+03 -0.24130093039E+02 -0.21922435892E+03  0.27665757874E+03  0.12489492358E+03 0.  0.
         35    2    3    3    0    0 -0.11090127592E+03  0.24130093039E+02 -0.43131493345E+03  0.91637037030E+03  0.80051279149E+03 0.  0.
         22    1    5    5    0    0 -0.27801597809E+03 -0.32104725490E+03 -0.21372401964E+03  0.47543893459E+03  0.00000000000E+00 0. -1.
         22    1    5    5    0    0  0.16711470217E+03  0.34517734794E+03 -0.21759091381E+03  0.44093143570E+03  0.00000000000E+00 0. -1.
          5    1    4    4  502    0  0.12430391139E+03 -0.53953118983E+02 -0.18062320556E+03  0.22585223891E+03  0.47000000000E+01 0.  1.
         -5    1    4    4    0  502 -0.13402635466E+02  0.29823025944E+02 -0.38601153361E+02  0.50805339824E+02  0.47000000000E+01 0.  1.
<mgrwt>
<rscale>  0 0.10000572E+04</rscale>
<asrwt>0</asrwt>
<pdfrwt beam="1">  1        1 0.41729897E-01 0.10000572E+04</pdfrwt>
<pdfrwt beam="2">  1       -1 0.14181286E+00 0.10000572E+04</pdfrwt>
<totfact> 0.48062856E+01</totfact>
</mgrwt>
</event>
<event>
 9    1  0.4497870E-036  0.1000900E+04  0.7818608E-02  0.8680181E-01
         -2   -1    0    0    0  501 -0.00000000000E+00  0.00000000000E+00  0.88692399944E+02  0.88692399944E+02  0.00000000000E+00 0.  1.
          2   -1    0    0  501    0  0.00000000000E+00 -0.00000000000E+00 -0.28238093427E+04  0.28238093427E+04  0.00000000000E+00 0.  1.
         36    2    1    2    0    0 -0.17763568394E-14  0.00000000000E+00 -0.27351169427E+04  0.29125017426E+04  0.10009004498E+04 0.  0.
         25    2    3    3    0    0  0.70797432781E+01  0.19812306226E+02 -0.98286489782E+02  0.16036311251E+03  0.12495376560E+03 0.  0.
         35    2    3    3    0    0 -0.70797432781E+01 -0.19812306226E+02 -0.26368304529E+04  0.27521386301E+04  0.78800352250E+03 0.  0.
         22    1    5    5    0    0 -0.47631515755E+02 -0.29921351756E+03 -0.22654841496E+04  0.22856543751E+04  0.00000000000E+00 0. -1.
         22    1    5    5    0    0  0.40551772476E+02  0.27940121134E+03 -0.37134630338E+03  0.46648425502E+03  0.00000000000E+00 0. -1.
          5    1    4    4  502    0  0.22007606976E+02 -0.35894340082E+02  0.42999450181E+01  0.42583071071E+02  0.47000000000E+01 0.  1.
         -5    1    4    4    0  502 -0.14927863698E+02  0.55706646308E+02 -0.10258643480E+03  0.11778004144E+03  0.47000000000E+01 0.  1.
<mgrwt>
<rscale>  0 0.10009004E+04</rscale>
<asrwt>0</asrwt>
<pdfrwt beam="1">  1        2 0.43443213E+00 0.10009004E+04</pdfrwt>
<pdfrwt beam="2">  1       -2 0.13644987E-01 0.10009004E+04</pdfrwt>
<totfact> 0.10226820E+02</totfact>
</mgrwt>
</event>
<event>
 9    1  0.4497870E-036  0.9996036E+03  0.7818608E-02  0.8681416E-01
          1   -1    0    0  501    0  0.00000000000E+00  0.00000000000E+00  0.30407428499E+03  0.30407428499E+03  0.00000000000E+00 0.  1.
         -1   -1    0    0    0  501 -0.00000000000E+00 -0.00000000000E+00 -0.82151576746E+03  0.82151576746E+03  0.00000000000E+00 0.  1.
         36    2    1    2    0    0  0.28421709430E-13  0.71054273576E-14 -0.51744148247E+03  0.11255900524E+04  0.99960356061E+03 0.  0.
         25    2    3    3    0    0  0.14049932321E+03 -0.99793676577E+01 -0.92455433796E+02  0.20966067657E+03  0.12477958352E+03 0.  0.
         35    2    3    3    0    0 -0.14049932321E+03  0.99793676577E+01 -0.42498604868E+03  0.91592937587E+03  0.79904557593E+03 0.  0.
         22    1    5    5    0    0 -0.32075515529E+03 -0.30845756347E+03 -0.24827178054E+03  0.50957709438E+03  0.00000000000E+00 0.  1.
         22    1    5    5    0    0  0.18025583209E+03  0.31843693113E+03 -0.17671426814E+03  0.40635228149E+03  0.00000000000E+00 0.  1.
          5    1    4    4  502    0  0.14705585175E+02  0.43413609679E+02 -0.28202539610E+01  0.46163184174E+02  0.47000000000E+01 0. -1.
         -5    1    4    4    0  502  0.12579373803E+03 -0.53392977337E+02 -0.89635179835E+02  0.16349749240E+03  0.47000000000E+01 0. -1.
<mgrwt>
<rscale>  0 0.99960356E+03</rscale>
<asrwt>0</asrwt>
<pdfrwt beam="1">  1        1 0.46780661E-01 0.99960356E+03</pdfrwt>
<pdfrwt beam="2">  1       -1 0.12638704E+00 0.99960356E+03</pdfrwt>
<totfact> 0.56263895E+01</totfact>
</mgrwt>
</event>
<event>
 9    1  0.4497870E-036  0.1003218E+04  0.7818608E-02  0.8677979E-01
         -4   -1    0    0    0  501 -0.00000000000E+00  0.00000000000E+00  0.71595362308E+03  0.71595362308E+03  0.00000000000E+00 0.  1.
          4   -1    0    0  501    0  0.00000000000E+00 -0.00000000000E+00 -0.35143580487E+03  0.35143580487E+03  0.00000000000E+00 0.  1.
         36    2    1    2    0    0 -0.28421709430E-13  0.14210854715E-13  0.36451781821E+03  0.10673894280E+04  0.10032182968E+04 0.  0.
         25    2    3    3    0    0 -0.13230485449E+03 -0.62305532395E+00  0.12517857232E+02  0.18322425216E+03  0.12613273607E+03 0.  0.
         35    2    3    3    0    0  0.13230485449E+03  0.62305532395E+00  0.35199996098E+03  0.88416517580E+03  0.80021192371E+03 0.  0.
         22    1    5    5    0    0  0.44494834146E+03  0.14194014223E+03  0.22386796234E+03  0.51792170750E+03  0.00000000000E+00 0.  1.
         22    1    5    5    0    0 -0.31264348696E+03 -0.14131708691E+03  0.12813199864E+03  0.36624346829E+03  0.00000000000E+00 0.  1.
          5    1    4    4  502    0 -0.88395673108E+02  0.31699165516E+01 -0.53668781440E+02  0.10356771455E+03  0.47000000000E+01 0.  1.
         -5    1    4    4    0  502 -0.43909181385E+02 -0.37929718756E+01  0.66186638671E+02  0.79656537611E+02  0.47000000000E+01 0.  1.
<mgrwt>
<rscale>  0 0.10032183E+04</rscale>
<asrwt>0</asrwt>
<pdfrwt beam="1">  1        4 0.54067047E-01 0.10032183E+04</pdfrwt>
<pdfrwt beam="2">  1       -4 0.11014671E+00 0.10032183E+04</pdfrwt>
<totfact> 0.47156512E+00</totfact>
</mgrwt>
</event>
<event>
 9    1  0.4497870E-036  0.9940141E+03  0.7818608E-02  0.8686759E-01
          1   -1    0    0  501    0  0.00000000000E+00  0.00000000000E+00  0.23153073534E+03  0.23153073534E+03  0.00000000000E+00 0. -1.
         -1   -1    0    0    0  501 -0.00000000000E+00 -0.00000000000E+00 -0.10668821055E+04  0.10668821055E+04  0.00000000000E+00 0. -1.
         36    2    1    2    0    0  0.00000000000E+00 -0.14210854715E-13 -0.83535137020E+03  0.12984128409E+04  0.99401408123E+03 0.  0.
         25    2    3    3    0    0 -0.30507369100E+02  0.92522652964E+01  0.17492452931E+02  0.12999384081E+03  0.12480428181E+03 0.  0.
         35    2    3    3    0    0  0.30507369100E+02 -0.92522652964E+01 -0.85284382313E+03  0.11684190001E+04  0.79802510555E+03 0.  0.
         22    1    5    5    0    0  0.55580019226E+02 -0.22199406610E+03 -0.91674518995E+03  0.94487684236E+03  0.00000000000E+00 0.  1.
         22    1    5    5    0    0 -0.25072650126E+02  0.21274180080E+03  0.63901366823E+02  0.22354215771E+03  0.00000000000E+00 0.  1.
          5    1    4    4  502    0  0.28946852238E+02  0.42918833099E+02  0.30521745952E+02  0.60279461386E+02  0.47000000000E+01 0. -1.
         -5    1    4    4    0  502 -0.59454221337E+02 -0.33666567802E+02 -0.13029293021E+02  0.69714379428E+02  0.47000000000E+01 0. -1.
<mgrwt>
<rscale>  0 0.99401408E+03</rscale>
<asrwt>0</asrwt>
<pdfrwt beam="1">  1        1 0.35620114E-01 0.99401408E+03</pdfrwt>
<pdfrwt beam="2">  1       -1 0.16413571E+00 0.99401408E+03</pdfrwt>
<totfact> 0.38368005E+01</totfact>
</mgrwt>
</event>
<event>
 9    1  0.4497870E-036  0.9990496E+03  0.7818608E-02  0.8681944E-01
          2   -1    0    0  501    0  0.00000000000E+00  0.00000000000E+00  0.23571161072E+03  0.23571161072E+03  0.00000000000E+00 0. -1.
         -2   -1    0    0    0  501 -0.00000000000E+00 -0.00000000000E+00 -0.10586029362E+04  0.10586029362E+04  0.00000000000E+00 0. -1.
         36    2    1    2    0    0  0.28421709430E-13  0.00000000000E+00 -0.82289132550E+03  0.12943145469E+04  0.99904955474E+03 0.  0.
         25    2    3    3    0    0  0.12142289820E+03 -0.21833617812E+01 -0.26586914417E+03  0.31672712766E+03  0.12198927943E+03 0.  0.
         35    2    3    3    0    0 -0.12142289820E+03  0.21833617812E+01 -0.55702218133E+03  0.97758741927E+03  0.79413800095E+03 0.  0.
         22    1    5    5    0    0 -0.45463451462E+03 -0.44493579925E+02 -0.24332049166E+03  0.51756843238E+03  0.00000000000E+00 0.  1.
         22    1    5    5    0    0  0.33321161641E+03  0.46676941706E+02 -0.31370168967E+03  0.46001898689E+03  0.00000000000E+00 0.  1.
          5    1    4    4  502    0  0.42522461119E+02  0.58264713346E+02 -0.10208893439E+03  0.12508867673E+03  0.47000000000E+01 0.  1.
         -5    1    4    4    0  502  0.78900437085E+02 -0.60448075127E+02 -0.16378020978E+03  0.19163845093E+03  0.47000000000E+01 0.  1.
<mgrwt>
<rscale>  0 0.99904955E+03</rscale>
<asrwt>0</asrwt>
<pdfrwt beam="1">  1        2 0.36263324E-01 0.99904955E+03</pdfrwt>
<pdfrwt beam="2">  1       -2 0.16286199E+00 0.99904955E+03</pdfrwt>
<totfact> 0.38618793E+01</totfact>
</mgrwt>
</event>
<event>
 9    1  0.4497870E-036  0.1000005E+04  0.7818608E-02  0.8681034E-01
         -1   -1    0    0    0  501 -0.00000000000E+00  0.00000000000E+00  0.11675966967E+03  0.11675966967E+03  0.00000000000E+00 0. -1.
          1   -1    0    0  501    0  0.00000000000E+00 -0.00000000000E+00 -0.21411698206E+04  0.21411698206E+04  0.00000000000E+00 0. -1.
         36    2    1    2    0    0 -0.28421709430E-13  0.00000000000E+00 -0.20244101509E+04  0.22579294902E+04  0.10000045619E+04 0.  0.
         25    2    3    3    0    0  0.13368743173E+03  0.31117339219E+02 -0.44316123012E+03  0.48050667197E+03  0.12511661648E+03 0.  0.
         35    2    3    3    0    0 -0.13368743173E+03 -0.31117339219E+02 -0.15812489208E+04  0.17774228183E+04  0.80002694160E+03 0.  0.
         22    1    5    5    0    0 -0.34323023986E+03 -0.30497595367E+03 -0.77970122892E+03  0.90484879193E+03  0.00000000000E+00 0. -1.
         22    1    5    5    0    0  0.20954280813E+03  0.27385861445E+03 -0.80154769185E+03  0.87257402635E+03  0.00000000000E+00 0. -1.
          5    1    4    4  502    0  0.38633571781E+02  0.62385404194E+02 -0.27600777889E+03  0.28563416380E+03  0.47000000000E+01 0. -1.
         -5    1    4    4    0  502  0.95053859949E+02 -0.31268064975E+02 -0.16715345124E+03  0.19487250817E+03  0.47000000000E+01 0. -1.
<mgrwt>
<rscale>  0 0.10000046E+04</rscale>
<asrwt>0</asrwt>
<pdfrwt beam="1">  1        1 0.32941074E+00 0.10000046E+04</pdfrwt>
<pdfrwt beam="2">  1       -1 0.17963026E-01 0.10000046E+04</pdfrwt>
<totfact> 0.60516038E+01</totfact>
</mgrwt>
</event>
<event>
 9    1  0.4497870E-036  0.9978595E+03  0.7818608E-02  0.8683079E-01
         -1   -1    0    0    0  501 -0.00000000000E+00  0.00000000000E+00  0.32862273777E+03  0.32862273777E+03  0.00000000000E+00 0. -1.
          1   -1    0    0  501    0  0.00000000000E+00 -0.00000000000E+00 -0.75749742970E+03  0.75749742970E+03  0.00000000000E+00 0. -1.
         36    2    1    2    0    0  0.00000000000E+00  0.17763568394E-14 -0.42887469193E+03  0.10861201675E+04  0.99785946747E+03 0.  0.
         25    2    3    3    0    0  0.12310883887E+03 -0.58650016335E+01 -0.14623510456E+03  0.22782684779E+03  0.12381511345E+03 0.  0.
         35    2    3    3    0    0 -0.12310883887E+03  0.58650016335E+01 -0.28263958737E+03  0.85829331968E+03  0.80099444555E+03 0.  0.
         22    1    5    5    0    0  0.26438462262E+03 -0.48684696910E+01 -0.37589972844E+03  0.45959061839E+03  0.00000000000E+00 0.  1.
         22    1    5    5    0    0 -0.38749346149E+03  0.10733471324E+02  0.93260141070E+02  0.39870270129E+03  0.00000000000E+00 0.  1.
          5    1    4    4  502    0 -0.13691500920E+02 -0.21423892514E+02  0.14073084603E+01  0.25894224935E+02  0.47000000000E+01 0. -1.
         -5    1    4    4    0  502  0.13680033979E+03  0.15558890880E+02 -0.14764241302E+03  0.20193262286E+03  0.47000000000E+01 0. -1.
<mgrwt>
<rscale>  0 0.99785947E+03</rscale>
<asrwt>0</asrwt>
<pdfrwt beam="1">  1        1 0.11653807E+00 0.99785947E+03</pdfrwt>
<pdfrwt beam="2">  1       -1 0.50557344E-01 0.99785947E+03</pdfrwt>
<totfact> 0.10835700E+02</totfact>
</mgrwt>
</event>
<event>
 9    1  0.4497870E-036  0.9991722E+03  0.7818608E-02  0.8681827E-01
         -3   -1    0    0    0  501 -0.00000000000E+00  0.00000000000E+00  0.39083078739E+03  0.39083078739E+03  0.00000000000E+00 0. -1.
          3   -1    0    0  501    0  0.00000000000E+00 -0.00000000000E+00 -0.63860448176E+03  0.63860448176E+03  0.00000000000E+00 0. -1.
         36    2    1    2    0    0  0.00000000000E+00 -0.71054273576E-14 -0.24777369437E+03  0.10294352691E+04  0.99917224228E+03 0.  0.
         25    2    3    3    0    0  0.61210815028E+02  0.45695917448E+02 -0.16542052383E+03  0.22023924155E+03  0.12371941265E+03 0.  0.
         35    2    3    3    0    0 -0.61210815028E+02 -0.45695917448E+02 -0.82353170547E+02  0.80919602760E+03  0.80136214388E+03 0.  0.
         22    1    5    5    0    0  0.12257105388E+03 -0.31749095232E+02 -0.41227637732E+03  0.43128120710E+03  0.00000000000E+00 0. -1.
         22    1    5    5    0    0 -0.18378186891E+03 -0.13946822217E+02  0.32992320677E+03  0.37791482050E+03  0.00000000000E+00 0. -1.
          5    1    4    4  502    0 -0.16042544144E+02 -0.31728715039E+02 -0.43644170125E+02  0.56488743715E+02  0.47000000000E+01 0. -1.
         -5    1    4    4    0  502  0.77253359171E+02  0.77424632487E+02 -0.12177635370E+03  0.16375049783E+03  0.47000000000E+01 0. -1.
<mgrwt>
<rscale>  0 0.99917224E+03</rscale>
<asrwt>0</asrwt>
<pdfrwt beam="1">  1        3 0.98246843E-01 0.99917224E+03</pdfrwt>
<pdfrwt beam="2">  1       -3 0.60127814E-01 0.99917224E+03</pdfrwt>
<totfact> 0.10169770E+01</totfact>
</mgrwt>
</event>
<event>
 9    1  0.4497870E-036  0.1007078E+04  0.7818608E-02  0.8674327E-01
         -1   -1    0    0    0  501 -0.00000000000E+00  0.00000000000E+00  0.39550130551E+03  0.39550130551E+03  0.00000000000E+00 0.  1.
          1   -1    0    0  501    0  0.00000000000E+00 -0.00000000000E+00 -0.64108907642E+03  0.64108907642E+03  0.00000000000E+00 0.  1.
         36    2    1    2    0    0  0.00000000000E+00  0.00000000000E+00 -0.24558777090E+03  0.10365903819E+04  0.10070780837E+04 0.  0.
         25    2    3    3    0    0 -0.13779568344E+03 -0.31449181280E+02 -0.16809607100E+01  0.18851933112E+03  0.12473977392E+03 0.  0.
         35    2    3    3    0    0  0.13779568344E+03  0.31449181280E+02 -0.24390681019E+03  0.84807105081E+03  0.79984828173E+03 0.  0.
         22    1    5    5    0    0 -0.24469659501E+03  0.22398140890E+03 -0.25703169382E+03  0.41965388926E+03  0.00000000000E+00 0.  1.
         22    1    5    5    0    0  0.38249227845E+03 -0.19253222762E+03  0.13124883627E+02  0.42841716155E+03  0.00000000000E+00 0.  1.
          5    1    4    4  502    0 -0.14867005482E+03 -0.10900983058E+02  0.26718899477E+02  0.15151767627E+03  0.47000000000E+01 0.  1.
         -5    1    4    4    0  502  0.10874371380E+02 -0.20548198222E+02 -0.28399860188E+02  0.37001654852E+02  0.47000000000E+01 0.  1.
<mgrwt>
<rscale>  0 0.10070781E+04</rscale>
<asrwt>0</asrwt>
<pdfrwt beam="1">  1        1 0.98629087E-01 0.10070781E+04</pdfrwt>
<pdfrwt beam="2">  1       -1 0.60846356E-01 0.10070781E+04</pdfrwt>
<totfact> 0.98604765E+01</totfact>
</mgrwt>
</event>
<event>
 9    1  0.4497870E-036  0.9997896E+03  0.7818608E-02  0.8681238E-01
         -2   -1    0    0    0  501 -0.00000000000E+00  0.00000000000E+00  0.10969113131E+03  0.10969113131E+03  0.00000000000E+00 0.  1.
          2   -1    0    0  501    0  0.00000000000E+00 -0.00000000000E+00 -0.22781680901E+04  0.22781680901E+04  0.00000000000E+00 0.  1.
         36    2    1    2    0    0  0.00000000000E+00  0.14210854715E-13 -0.21684769588E+04  0.23878592214E+04  0.99978964813E+03 0.  0.
         25    2    3    3    0    0  0.11456455044E+03 -0.37709308905E+02 -0.24077549322E+03  0.29703883084E+03  0.12534831748E+03 0.  0.
         35    2    3    3    0    0 -0.11456455044E+03  0.37709308905E+02 -0.19277014656E+04  0.20908203906E+04  0.80059349054E+03 0.  0.
         22    1    5    5    0    0  0.29855845322E+02 -0.26550629542E+03 -0.15980026111E+04  0.16201843443E+04  0.00000000000E+00 0.  1.
         22    1    5    5    0    0 -0.14442039576E+03  0.30321560432E+03 -0.32969885443E+03  0.47063604625E+03  0.00000000000E+00 0.  1.
          5    1    4    4  502    0 -0.15788613903E+02 -0.40203588428E+02 -0.63022425125E+02  0.76547533730E+02  0.47000000000E+01 0. -1.
         -5    1    4    4    0  502  0.13035316434E+03  0.24942795222E+01 -0.17775306809E+03  0.22049129711E+03  0.47000000000E+01 0. -1.
<mgrwt>
<rscale>  0 0.99978965E+03</rscale>
<asrwt>0</asrwt>
<pdfrwt beam="1">  1        2 0.35048735E+00 0.99978965E+03</pdfrwt>
<pdfrwt beam="2">  1       -2 0.16875561E-01 0.99978965E+03</pdfrwt>
<totfact> 0.15490747E+02</totfact>
</mgrwt>
</event>
<event>
 9    1  0.4497870E-036  0.1000269E+04  0.7818608E-02  0.8680782E-01
         -1   -1    0    0    0  501 -0.00000000000E+00  0.00000000000E+00  0.19187292250E+03  0.19187292250E+03  0.00000000000E+00 0.  1.
          1   -1    0    0  501    0  0.00000000000E+00 -0.00000000000E+00 -0.13036465846E+04  0.13036465846E+04  0.00000000000E+00 0.  1.
         36    2    1    2    0    0 -0.14210854715E-13  0.00000000000E+00 -0.11117736621E+04  0.14955195071E+04  0.10002689240E+04 0.  0.
         25    2    3    3    0    0  0.74141271229E+02  0.83461222624E+02 -0.82675439796E+02  0.18700167492E+03  0.12518663785E+03 0.  0.
         35    2    3    3    0    0 -0.74141271229E+02 -0.83461222624E+02 -0.10290982224E+04  0.13085178322E+04  0.80044553983E+03 0.  0.
         22    1    5    5    0    0  0.92493858749E+02 -0.14114977134E+03 -0.11040780401E+04  0.11169004837E+04  0.00000000000E+00 0. -1.
         22    1    5    5    0    0 -0.16663512998E+03  0.57688548721E+02  0.74979817731E+02  0.19161734854E+03  0.00000000000E+00 0. -1.
          5    1    4    4  502    0 -0.19135337445E+02  0.17351085530E+02  0.20202823931E+02  0.33128015380E+02  0.47000000000E+01 0. -1.
         -5    1    4    4    0  502  0.93276608674E+02  0.66110137093E+02 -0.10287826373E+03  0.15387365954E+03  0.47000000000E+01 0. -1.
<mgrwt>
<rscale>  0 0.10002689E+04</rscale>
<asrwt>0</asrwt>
<pdfrwt beam="1">  1        1 0.20056101E+00 0.10002689E+04</pdfrwt>
<pdfrwt beam="2">  1       -1 0.29518911E-01 0.10002689E+04</pdfrwt>
<totfact> 0.10328320E+02</totfact>
</mgrwt>
</event>
<event>
 9    1  0.4497870E-036  0.1004016E+04  0.7818608E-02  0.8677223E-01
         -1   -1    0    0    0  501 -0.00000000000E+00  0.00000000000E+00  0.37011567717E+03  0.37011567717E+03  0.00000000000E+00 0. -1.
          1   -1    0    0  501    0  0.00000000000E+00 -0.00000000000E+00 -0.68090021356E+03  0.68090021356E+03  0.00000000000E+00 0. -1.
         36    2    1    2    0    0  0.00000000000E+00 -0.28421709430E-13 -0.31078453640E+03  0.10510158907E+04  0.10040156246E+04 0.  0.
         25    2    3    3    0    0 -0.30413921739E+02  0.14055868085E+03 -0.78469257094E+02  0.20627740968E+03  0.12534430995E+03 0.  0.
         35    2    3    3    0    0  0.30413921739E+02 -0.14055868085E+03 -0.23231527930E+03  0.84473848105E+03  0.79933157261E+03 0.  0.
         22    1    5    5    0    0  0.32624224861E+02  0.32310947780E+03  0.30101226980E+01  0.32476627832E+03  0.00000000000E+00 0.  1.
         22    1    5    5    0    0 -0.22103031213E+01 -0.46366815865E+03 -0.23532540200E+03  0.51997220273E+03  0.00000000000E+00 0.  1.
          5    1    4    4  502    0 -0.20849171697E+02  0.81143194370E+02 -0.10985986122E+03  0.13823959296E+03  0.47000000000E+01 0. -1.
         -5    1    4    4    0  502 -0.95647500424E+01  0.59415486482E+02  0.31390604127E+02  0.68037816725E+02  0.47000000000E+01 0. -1.
<mgrwt>
<rscale>  0 0.10040156E+04</rscale>
<asrwt>0</asrwt>
<pdfrwt beam="1">  1        1 0.10475388E+00 0.10040156E+04</pdfrwt>
<pdfrwt beam="2">  1       -1 0.56940874E-01 0.10040156E+04</pdfrwt>
<totfact> 0.10225336E+02</totfact>
</mgrwt>
</event>
<event>
 9    1  0.4497870E-036  0.1000173E+04  0.7818608E-02  0.8680873E-01
          2   -1    0    0  501    0  0.00000000000E+00  0.00000000000E+00  0.21617009842E+04  0.21617009842E+04  0.00000000000E+00 0.  1.
         -2   -1    0    0    0  501 -0.00000000000E+00 -0.00000000000E+00 -0.11568967366E+03  0.11568967366E+03  0.00000000000E+00 0.  1.
         36    2    1    2    0    0  0.00000000000E+00  0.42632564146E-13  0.20460113105E+04  0.22773906578E+04  0.10001729478E+04 0.  0.
         25    2    3    3    0    0 -0.40219548215E+02  0.86726201743E+02  0.16757730239E+03  0.23242999424E+03  0.12962447230E+03 0.  0.
         35    2    3    3    0    0  0.40219548215E+02 -0.86726201743E+02  0.18784340081E+04  0.20449606636E+04  0.80262740210E+03 0.  0.
         22    1    5    5    0    0 -0.31703701633E+03 -0.24458202337E+03  0.73996380784E+03  0.84135561612E+03  0.00000000000E+00 0. -1.
         22    1    5    5    0    0  0.35725656454E+03  0.15785582163E+03  0.11384702003E+04  0.12036050474E+04  0.00000000000E+00 0. -1.
          5    1    4    4  502    0  0.11234506300E+02  0.10428247151E+03  0.94730062590E+02  0.14141047611E+03  0.47000000000E+01 0.  1.
         -5    1    4    4    0  502 -0.51454054515E+02 -0.17556269765E+02  0.72847239795E+02  0.91019518126E+02  0.47000000000E+01 0.  1.
<mgrwt>
<rscale>  0 0.10001729E+04</rscale>
<asrwt>0</asrwt>
<pdfrwt beam="1">  1        2 0.33256935E+00 0.10001729E+04</pdfrwt>
<pdfrwt beam="2">  1       -2 0.17798413E-01 0.10001729E+04</pdfrwt>
<totfact> 0.16543035E+02</totfact>
</mgrwt>
</event>
<event>
 9    1  0.4497870E-036  0.1000408E+04  0.7818608E-02  0.8680650E-01
         -2   -1    0    0    0  501 -0.00000000000E+00  0.00000000000E+00  0.20048990305E+03  0.20048990305E+03  0.00000000000E+00 0.  1.
          2   -1    0    0  501    0  0.00000000000E+00 -0.00000000000E+00 -0.12479632687E+04  0.12479632687E+04  0.00000000000E+00 0.  1.
         36    2    1    2    0    0  0.00000000000E+00  0.71054273576E-14 -0.10474733656E+04  0.14484531717E+04  0.10004079863E+04 0.  0.
         25    2    3    3    0    0  0.10588485811E+03 -0.60924095826E+02 -0.96381326275E+02  0.19966146171E+03  0.12510791585E+03 0.  0.
         35    2    3    3    0    0 -0.10588485811E+03  0.60924095826E+02 -0.95109203937E+03  0.12487917100E+04  0.79998832433E+03 0.  0.
         22    1    5    5    0    0 -0.79251158893E+02 -0.25377832627E+03 -0.21176218802E+02  0.26670698775E+03  0.00000000000E+00 0. -1.
         22    1    5    5    0    0 -0.26633699214E+02  0.31470242210E+03 -0.92991582057E+03  0.98208472228E+03  0.00000000000E+00 0. -1.
          5    1    4    4  502    0  0.81134946621E+02 -0.65305418205E+02 -0.12401186714E+03  0.16201453762E+03  0.47000000000E+01 0.  1.
         -5    1    4    4    0  502  0.24749911486E+02  0.43813223790E+01  0.27630540865E+02  0.37646924082E+02  0.47000000000E+01 0.  1.
<mgrwt>
<rscale>  0 0.10004080E+04</rscale>
<asrwt>0</asrwt>
<pdfrwt beam="1">  1        2 0.19199435E+00 0.10004080E+04</pdfrwt>
<pdfrwt beam="2">  1       -2 0.30844601E-01 0.10004080E+04</pdfrwt>
<totfact> 0.20771496E+02</totfact>
</mgrwt>
</event>
<event>
 9    1  0.4497870E-036  0.9998911E+03  0.7818608E-02  0.8681142E-01
         -1   -1    0    0    0  501 -0.00000000000E+00  0.00000000000E+00  0.28624895777E+03  0.28624895777E+03  0.00000000000E+00 0.  1.
          1   -1    0    0  501    0  0.00000000000E+00 -0.00000000000E+00 -0.87317540113E+03  0.87317540113E+03  0.00000000000E+00 0.  1.
         36    2    1    2    0    0 -0.28421709430E-13  0.14210854715E-13 -0.58692644336E+03  0.11594243589E+04  0.99989109111E+03 0.  0.
         25    2    3    3    0    0  0.29077051890E+02 -0.73288347591E+02 -0.24392030666E+03  0.28529043743E+03  0.12520727154E+03 0.  0.
         35    2    3    3    0    0 -0.29077051890E+02  0.73288347591E+02 -0.34300613670E+03  0.87413392147E+03  0.80015013966E+03 0.  0.
         22    1    5    5    0    0 -0.29784242485E+03  0.25480527455E+03  0.13478342433E+02  0.39219574666E+03  0.00000000000E+00 0. -1.
         22    1    5    5    0    0  0.26876537296E+03 -0.18151692696E+03 -0.35648447913E+03  0.48193817481E+03  0.00000000000E+00 0. -1.
          5    1    4    4  502    0 -0.18496375144E+02 -0.11897055972E+02  0.62157092106E+01  0.23331971097E+02  0.47000000000E+01 0. -1.
         -5    1    4    4    0  502  0.47573427034E+02 -0.61391291619E+02 -0.25013601587E+03  0.26195846633E+03  0.47000000000E+01 0. -1.
<mgrwt>
<rscale>  0 0.99989109E+03</rscale>
<asrwt>0</asrwt>
<pdfrwt beam="1">  1        1 0.13433468E+00 0.99989109E+03</pdfrwt>
<pdfrwt beam="2">  1       -1 0.44038302E-01 0.99989109E+03</pdfrwt>
<totfact> 0.11045809E+02</totfact>
</mgrwt>
</event>
<event>
 9    1  0.4497870E-036  0.1000824E+04  0.7818608E-02  0.8680254E-01
         -1   -1    0    0    0  501 -0.00000000000E+00  0.00000000000E+00  0.66009288883E+03  0.66009288883E+03  0.00000000000E+00 0. -1.
          1   -1    0    0  501    0  0.00000000000E+00 -0.00000000000E+00 -0.37935875619E+03  0.37935875619E+03  0.00000000000E+00 0. -1.
         36    2    1    2    0    0 -0.14210854715E-13 -0.28421709430E-13  0.28073413264E+03  0.10394516450E+04  0.10008236953E+04 0.  0.
         25    2    3    3    0    0 -0.81866616366E+02 -0.11361085896E+03  0.66954106503E+02  0.20003435352E+03  0.12617971335E+03 0.  0.
         35    2    3    3    0    0  0.81866616366E+02  0.11361085896E+03  0.21378002614E+03  0.83941729150E+03  0.79956858338E+03 0.  0.
         22    1    5    5    0    0  0.34336180660E+03 -0.20375863007E+03  0.12859055959E+03  0.41946446998E+03  0.00000000000E+00 0. -1.
         22    1    5    5    0    0 -0.26149519023E+03  0.31736948904E+03  0.85189466549E+02  0.41995282151E+03  0.00000000000E+00 0. -1.
          5    1    4    4  502    0  0.26958730214E+02 -0.59504375231E+02  0.35098793158E+02  0.74307194050E+02  0.47000000000E+01 0.  1.
         -5    1    4    4    0  502 -0.10882534658E+03 -0.54106483734E+02  0.31855313345E+02  0.12572715947E+03  0.47000000000E+01 0.  1.
<mgrwt>
<rscale>  0 0.10008237E+04</rscale>
<asrwt>0</asrwt>
<pdfrwt beam="1">  1        1 0.58362886E-01 0.10008237E+04</pdfrwt>
<pdfrwt beam="2">  1       -1 0.10155275E+00 0.10008237E+04</pdfrwt>
<totfact> 0.71001010E+01</totfact>
</mgrwt>
</event>
<event>
 9    1  0.4497870E-036  0.1000125E+04  0.7818608E-02  0.8680919E-01
          2   -1    0    0  501    0  0.00000000000E+00  0.00000000000E+00  0.40095971952E+03  0.40095971952E+03  0.00000000000E+00 0. -1.
         -2   -1    0    0    0  501 -0.00000000000E+00 -0.00000000000E+00 -0.62365956602E+03  0.62365956602E+03  0.00000000000E+00 0. -1.
         36    2    1    2    0    0  0.21316282073E-13  0.71054273576E-14 -0.22269984650E+03  0.10246192855E+04  0.10001247216E+04 0.  0.
         25    2    3    3    0    0  0.41297041751E+02 -0.36630798783E+02  0.89662207097E+02  0.16387311055E+03  0.12556999603E+03 0.  0.
         35    2    3    3    0    0 -0.41297041751E+02  0.36630798783E+02 -0.31236205360E+03  0.86074617499E+03  0.80016664774E+03 0.  0.
         22    1    5    5    0    0  0.29583327623E+03 -0.19495008183E+03 -0.27792062198E+03  0.45029183188E+03  0.00000000000E+00 0.  1.
         22    1    5    5    0    0 -0.33713031798E+03  0.23158088062E+03 -0.34441431618E+02  0.41045434312E+03  0.00000000000E+00 0.  1.
          5    1    4    4  502    0  0.35770969473E+02 -0.13595356042E+02  0.11945404780E+03  0.12552193234E+03  0.47000000000E+01 0.  1.
         -5    1    4    4    0  502  0.55260722773E+01 -0.23035442741E+02 -0.29791840704E+02  0.38351178204E+02  0.47000000000E+01 0.  1.
<mgrwt>
<rscale>  0 0.10001247E+04</rscale>
<asrwt>0</asrwt>
<pdfrwt beam="1">  1        2 0.61686111E-01 0.10001247E+04</pdfrwt>
<pdfrwt beam="2">  1       -2 0.95947625E-01 0.10001247E+04</pdfrwt>
<totfact> 0.86022474E+01</totfact>
</mgrwt>
</event>
<event>
 9    1  0.4497870E-036  0.9998776E+03  0.7818608E-02  0.8681155E-01
          2   -1    0    0  501    0  0.00000000000E+00  0.00000000000E+00  0.68590583983E+03  0.68590583983E+03  0.00000000000E+00 0.  1.
         -2   -1    0    0    0  501 -0.00000000000E+00 -0.00000000000E+00 -0.36439226499E+03  0.36439226499E+03  0.00000000000E+00 0.  1.
         36    2    1    2    0    0  0.00000000000E+00  0.00000000000E+00  0.32151357484E+03  0.10502981048E+04  0.99987755759E+03 0.  0.
         25    2    3    3    0    0 -0.77642266120E+02  0.92874595004E+02 -0.18705616035E+02  0.17501863315E+03  0.12501043953E+03 0.  0.
         35    2    3    3    0    0  0.77642266120E+02 -0.92874595004E+02  0.34021919088E+03  0.87527947167E+03  0.79731489626E+03 0.  0.
         22    1    5    5    0    0  0.29116959863E+03  0.25941174309E+03  0.11914883734E+03  0.40776296185E+03  0.00000000000E+00 0.  1.
         22    1    5    5    0    0 -0.21352733251E+03 -0.35228633810E+03  0.22107035354E+03  0.46751650982E+03  0.00000000000E+00 0.  1.
          5    1    4    4  502    0 -0.79834028196E+02 -0.82607396128E+00 -0.12742689646E+02  0.80985310986E+02  0.47000000000E+01 0. -1.
         -5    1    4    4    0  502  0.21917620757E+01  0.93700668965E+02 -0.59629263889E+01  0.94033322161E+02  0.47000000000E+01 0. -1.
<mgrwt>
<rscale>  0 0.99987756E+03</rscale>
<asrwt>0</asrwt>
<pdfrwt beam="1">  1        2 0.10552398E+00 0.99987756E+03</pdfrwt>
<pdfrwt beam="2">  1       -2 0.56060349E-01 0.99987756E+03</pdfrwt>
<totfact> 0.15199323E+02</totfact>
</mgrwt>
</event>
<event>
 9    1  0.4497870E-036  0.9999314E+03  0.7818608E-02  0.8681103E-01
         -1   -1    0    0    0  501 -0.00000000000E+00  0.00000000000E+00  0.77028563387E+03  0.77028563387E+03  0.00000000000E+00 0.  1.
          1   -1    0    0  501    0  0.00000000000E+00 -0.00000000000E+00 -0.32451039745E+03  0.32451039745E+03  0.00000000000E+00 0.  1.
         36    2    1    2    0    0  0.00000000000E+00  0.00000000000E+00  0.44577523641E+03  0.10947960313E+04  0.99993139204E+03 0.  0.
         25    2    3    3    0    0  0.11129847721E+03 -0.69155071226E+02  0.13203113746E+03  0.22470903023E+03  0.12606407935E+03 0.  0.
         35    2    3    3    0    0 -0.11129847721E+03  0.69155071226E+02  0.31374409896E+03  0.87008700108E+03  0.80090339924E+03 0.  0.
         22    1    5    5    0    0 -0.45671318822E+03  0.16035047800E+02  0.22570498868E+03  0.50969284963E+03  0.00000000000E+00 0.  1.
         22    1    5    5    0    0  0.34541471100E+03  0.53120023426E+02  0.88039110276E+02  0.36039415145E+03  0.00000000000E+00 0.  1.
          5    1    4    4  502    0 -0.27583899159E+02 -0.18430449696E+02  0.30301107067E+02  0.45175215088E+02  0.47000000000E+01 0.  1.
         -5    1    4    4    0  502  0.13888237637E+03 -0.50724621530E+02  0.10173003039E+03  0.17953381514E+03  0.47000000000E+01 0.  1.
<mgrwt>
<rscale>  0 0.99993139E+03</rscale>
<asrwt>0</asrwt>
<pdfrwt beam="1">  1        1 0.49924677E-01 0.99993139E+03</pdfrwt>
<pdfrwt beam="2">  1       -1 0.11850548E+00 0.99993139E+03</pdfrwt>
<totfact> 0.60715673E+01</totfact>
</mgrwt>
</event>
<event>
 9    1  0.4497870E-036  0.9999831E+03  0.7818608E-02  0.8681054E-01
          2   -1    0    0  501    0  0.00000000000E+00  0.00000000000E+00  0.44164573303E+03  0.44164573303E+03  0.00000000000E+00 0.  1.
         -2   -1    0    0    0  501 -0.00000000000E+00 -0.00000000000E+00 -0.56604542027E+03  0.56604542027E+03  0.00000000000E+00 0.  1.
         36    2    1    2    0    0  0.71054273576E-14  0.17763568394E-13 -0.12439968724E+03  0.10076911533E+04  0.99998308899E+03 0.  0.
         25    2    3    3    0    0 -0.61480068500E+02  0.81408416452E+01  0.10453910425E+03  0.17437379424E+03  0.12502689180E+03 0.  0.
         35    2    3    3    0    0  0.61480068500E+02 -0.81408416452E+01 -0.22893879149E+03  0.83331735907E+03  0.79884840774E+03 0.  0.
         22    1    5    5    0    0  0.21570784420E+02 -0.16725465483E+03 -0.49378220839E+03  0.52178567212E+03  0.00000000000E+00 0. -1.
         22    1    5    5    0    0  0.39909284079E+02  0.15911381318E+03  0.26484341690E+03  0.31153168695E+03  0.00000000000E+00 0. -1.
          5    1    4    4  502    0 -0.86753255621E+02 -0.80991684156E+01  0.11304110338E+03  0.14280092767E+03  0.47000000000E+01 0.  1.
         -5    1    4    4    0  502  0.25273187121E+02  0.16240010061E+02 -0.85019991307E+01  0.31572866567E+02  0.47000000000E+01 0.  1.
<mgrwt>
<rscale>  0 0.99998309E+03</rscale>
<asrwt>0</asrwt>
<pdfrwt beam="1">  1        2 0.67945497E-01 0.99998309E+03</pdfrwt>
<pdfrwt beam="2">  1       -2 0.87083911E-01 0.99998309E+03</pdfrwt>
<totfact> 0.96994250E+01</totfact>
</mgrwt>
</event>
<event>
 9    1  0.4497870E-036  0.9988689E+03  0.7818608E-02  0.8682116E-01
          1   -1    0    0  501    0  0.00000000000E+00  0.00000000000E+00  0.42572211995E+03  0.42572211995E+03  0.00000000000E+00 0. -1.
         -1   -1    0    0    0  501 -0.00000000000E+00 -0.00000000000E+00 -0.58590981349E+03  0.58590981349E+03  0.00000000000E+00 0. -1.
         36    2    1    2    0    0  0.14210854715E-13  0.00000000000E+00 -0.16018769354E+03  0.10116319334E+04  0.99886889610E+03 0.  0.
         25    2    3    3    0    0  0.40782402660E+02 -0.45735099087E+01 -0.16949462849E+03  0.21459741126E+03  0.12505798045E+03 0.  0.
         35    2    3    3    0    0 -0.40782402660E+02  0.45735099087E+01  0.93069349515E+01  0.79703452218E+03  0.79592291659E+03 0.  0.
         22    1    5    5    0    0 -0.40139009187E+03  0.10378279314E+03  0.62466790633E+02  0.41926957191E+03  0.00000000000E+00 0.  1.
         22    1    5    5    0    0  0.36060768921E+03 -0.99209283235E+02 -0.53159855681E+02  0.37776495027E+03  0.00000000000E+00 0.  1.
          5    1    4    4  502    0  0.61223512214E+02  0.24316228243E+02 -0.33614307428E+02  0.74105391624E+02  0.47000000000E+01 0. -1.
         -5    1    4    4    0  502 -0.20441109554E+02 -0.28889738152E+02 -0.13588032106E+03  0.14049201964E+03  0.47000000000E+01 0. -1.
<mgrwt>
<rscale>  0 0.99886890E+03</rscale>
<asrwt>0</asrwt>
<pdfrwt beam="1">  1        1 0.65495710E-01 0.99886890E+03</pdfrwt>
<pdfrwt beam="2">  1       -1 0.90139972E-01 0.99886890E+03</pdfrwt>
<totfact> 0.79089279E+01</totfact>
</mgrwt>
</event>
<event>
 9    1  0.4497870E-036  0.1000052E+04  0.7818608E-02  0.8680988E-01
         -2   -1    0    0    0  501 -0.00000000000E+00  0.00000000000E+00  0.27685858258E+03  0.27685858258E+03  0.00000000000E+00 0.  1.
          2   -1    0    0  501    0  0.00000000000E+00 -0.00000000000E+00 -0.90308272291E+03  0.90308272291E+03  0.00000000000E+00 0.  1.
         36    2    1    2    0    0 -0.14210854715E-13  0.28421709430E-13 -0.62622414033E+03  0.11799413055E+04  0.10000524039E+04 0.  0.
         25    2    3    3    0    0 -0.92538783255E+02  0.97311420162E+02 -0.16249241608E+03  0.24496637088E+03  0.12478701327E+03 0.  0.
         35    2    3    3    0    0  0.92538783255E+02 -0.97311420162E+02 -0.46373172425E+03  0.93497493460E+03  0.80068600422E+03 0.  0.
         22    1    5    5    0    0  0.12097078220E+03 -0.31602265948E+03 -0.59050229771E+03  0.68058593510E+03  0.00000000000E+00 0.  1.
         22    1    5    5    0    0 -0.28431998946E+02  0.21871123932E+03  0.12677057346E+03  0.25438899950E+03  0.00000000000E+00 0.  1.
          5    1    4    4  502    0 -0.10342427663E+03  0.11345030157E+03 -0.16423848066E+03  0.22486422670E+03  0.47000000000E+01 0.  1.
         -5    1    4    4    0  502  0.10885493371E+02 -0.16138881411E+02  0.17460645780E+01  0.20102144180E+02  0.47000000000E+01 0.  1.
<mgrwt>
<rscale>  0 0.10000524E+04</rscale>
<asrwt>0</asrwt>
<pdfrwt beam="1">  1        2 0.13893580E+00 0.10000524E+04</pdfrwt>
<pdfrwt beam="2">  1       -2 0.42593629E-01 0.10000524E+04</pdfrwt>
<totfact> 0.18445880E+02</totfact>
</mgrwt>
</event>
<event>
 9    1  0.4497870E-036  0.1000005E+04  0.7818608E-02  0.8681033E-01
          2   -1    0    0  501    0  0.00000000000E+00  0.00000000000E+00  0.52150037843E+03  0.52150037843E+03  0.00000000000E+00 0.  1.
         -2   -1    0    0    0  501 -0.00000000000E+00 -0.00000000000E+00 -0.47939074593E+03  0.47939074593E+03  0.00000000000E+00 0.  1.
         36    2    1    2    0    0 -0.71054273576E-14  0.00000000000E+00  0.42109632507E+02  0.10008911244E+04  0.10000049108E+04 0.  0.
         25    2    3    3    0    0 -0.83491560388E+01 -0.11089448421E+03 -0.77088898399E+02  0.18422961358E+03  0.12502222694E+03 0.  0.
         35    2    3    3    0    0  0.83491560388E+01  0.11089448421E+03  0.11919853091E+03  0.81666151078E+03  0.80022524228E+03 0.  0.
         22    1    5    5    0    0  0.88294392242E+02 -0.19806344547E+03  0.35766826700E+03  0.41827218094E+03  0.00000000000E+00 0. -1.
         22    1    5    5    0    0 -0.79945236203E+02  0.30895792967E+03 -0.23846973609E+03  0.39838932984E+03  0.00000000000E+00 0. -1.
          5    1    4    4  502    0 -0.45063209327E+02 -0.93341426047E+02 -0.93910976347E+02  0.13994526119E+03  0.47000000000E+01 0.  1.
         -5    1    4    4    0  502  0.36714053288E+02 -0.17553058161E+02  0.16822077949E+02  0.44284352385E+02  0.47000000000E+01 0.  1.
<mgrwt>
<rscale>  0 0.10000049E+04</rscale>
<asrwt>0</asrwt>
<pdfrwt beam="1">  1        2 0.80230827E-01 0.10000049E+04</pdfrwt>
<pdfrwt beam="2">  1       -2 0.73752423E-01 0.10000049E+04</pdfrwt>
<totfact> 0.11741365E+02</totfact>
</mgrwt>
</event>
<event>
 9    1  0.4497870E-036  0.1000476E+04  0.7818608E-02  0.8680585E-01
         -1   -1    0    0    0  501 -0.00000000000E+00  0.00000000000E+00  0.17968158593E+03  0.17968158593E+03  0.00000000000E+00 0.  1.
          1   -1    0    0  501    0  0.00000000000E+00 -0.00000000000E+00 -0.13926747409E+04  0.13926747409E+04  0.00000000000E+00 0.  1.
         36    2    1    2    0    0  0.00000000000E+00  0.00000000000E+00 -0.12129931549E+04  0.15723563268E+04  0.10004758990E+04 0.  0.
         25    2    3    3    0    0  0.11125996824E+03  0.17682645026E+01 -0.93009272892E+02  0.19147963809E+03  0.12502727568E+03 0.  0.
         35    2    3    3    0    0 -0.11125996824E+03 -0.17682645026E+01 -0.11199838820E+04  0.13808766887E+04  0.80004663995E+03 0.  0.
         22    1    5    5    0    0  0.22238421856E+03  0.35227697005E+02 -0.99898823216E+03  0.10240474693E+04  0.00000000000E+00 0.  1.
         22    1    5    5    0    0 -0.33364418681E+03 -0.36995961507E+02 -0.12099564987E+03  0.35682921944E+03  0.00000000000E+00 0.  1.
          5    1    4    4  502    0  0.38445352965E+02 -0.42280222299E+02 -0.89355393754E+02  0.10617032898E+03  0.47000000000E+01 0. -1.
         -5    1    4    4    0  502  0.72814615280E+02  0.44048486802E+02 -0.36538791379E+01  0.85309309109E+02  0.47000000000E+01 0. -1.
<mgrwt>
<rscale>  0 0.10004759E+04</rscale>
<asrwt>0</asrwt>
<pdfrwt beam="1">  1        1 0.21425765E+00 0.10004759E+04</pdfrwt>
<pdfrwt beam="2">  1       -1 0.27643322E-01 0.10004759E+04</pdfrwt>
<totfact> 0.99547082E+01</totfact>
</mgrwt>
</event>
<event>
 9    1  0.4497870E-036  0.1000442E+04  0.7818608E-02  0.8680617E-01
         -2   -1    0    0    0  501 -0.00000000000E+00  0.00000000000E+00  0.12034651944E+04  0.12034651944E+04  0.00000000000E+00 0.  1.
          2   -1    0    0  501    0  0.00000000000E+00 -0.00000000000E+00 -0.20791723702E+03  0.20791723702E+03  0.00000000000E+00 0.  1.
         36    2    1    2    0    0 -0.71054273576E-14  0.28421709430E-13  0.99554795735E+03  0.14113824314E+04  0.10004422183E+04 0.  0.
         25    2    3    3    0    0  0.10458600204E+02 -0.13860223220E+03  0.15094493160E+03  0.23999886746E+03  0.12447940760E+03 0.  0.
         35    2    3    3    0    0 -0.10458600204E+02  0.13860223220E+03  0.84460302575E+03  0.11713835639E+04  0.79966569367E+03 0.  0.
         22    1    5    5    0    0  0.19178994798E+03 -0.24352051566E+03  0.12991935690E+03  0.33610216452E+03  0.00000000000E+00 0.  1.
         22    1    5    5    0    0 -0.20224854818E+03  0.38212274787E+03  0.71468366885E+03  0.83528139941E+03  0.00000000000E+00 0.  1.
          5    1    4    4  502    0  0.36041149031E+02 -0.13085045171E+03  0.16138244344E+03  0.21091986200E+03  0.47000000000E+01 0.  1.
         -5    1    4    4    0  502 -0.25582548826E+02 -0.77517804943E+01 -0.10437511839E+02  0.29079005462E+02  0.47000000000E+01 0.  1.
<mgrwt>
<rscale>  0 0.10004422E+04</rscale>
<asrwt>0</asrwt>
<pdfrwt beam="1">  1        2 0.31987268E-01 0.10004422E+04</pdfrwt>
<pdfrwt beam="2">  1       -2 0.18514849E+00 0.10004422E+04</pdfrwt>
<totfact> 0.30441231E+01</totfact>
</mgrwt>
</event>
<event>
 9    1  0.4497870E-036  0.1012154E+04  0.7818608E-02  0.8669549E-01
         -2   -1    0    0    0  501 -0.00000000000E+00  0.00000000000E+00  0.18627060437E+04  0.18627060437E+04  0.00000000000E+00 0. -1.
          2   -1    0    0  501    0  0.00000000000E+00 -0.00000000000E+00 -0.13749562656E+03  0.13749562656E+03  0.00000000000E+00 0. -1.
         36    2    1    2    0    0 -0.14210854715E-13  0.00000000000E+00  0.17252104171E+04  0.20002016702E+04  0.10121540092E+04 0.  0.
         25    2    3    3    0    0  0.11118245104E+03  0.87233563366E+02  0.45250040195E+03  0.48969358152E+03  0.12276790305E+03 0.  0.
         35    2    3    3    0    0 -0.11118245104E+03 -0.87233563366E+02  0.12727100152E+04  0.15105080887E+04  0.80116956469E+03 0.  0.
         22    1    5    5    0    0 -0.98315474368E+02 -0.36689125084E+03  0.11382210594E+04  0.11999259571E+04  0.00000000000E+00 0.  1.
         22    1    5    5    0    0 -0.12866976673E+02  0.27965768747E+03  0.13448895573E+03  0.31058213159E+03  0.00000000000E+00 0.  1.
          5    1    4    4  502    0 -0.45282477116E+01 -0.99028947746E+01  0.16007765217E+03  0.16051640750E+03  0.47000000000E+01 0.  1.
         -5    1    4    4    0  502  0.11571069875E+03  0.97136458140E+02  0.29242274977E+03  0.32917717401E+03  0.47000000000E+01 0.  1.
<mgrwt>
<rscale>  0 0.10121540E+04</rscale>
<asrwt>0</asrwt>
<pdfrwt beam="1">  1        2 0.21153175E-01 0.10121540E+04</pdfrwt>
<pdfrwt beam="2">  1       -2 0.28657014E+00 0.10121540E+04</pdfrwt>
<totfact> 0.11042125E+01</totfact>
</mgrwt>
</event>
<event>
 9    1  0.4497870E-036  0.1000501E+04  0.7818608E-02  0.8680561E-01
         -1   -1    0    0    0  501 -0.00000000000E+00  0.00000000000E+00  0.10703357889E+04  0.10703357889E+04  0.00000000000E+00 0. -1.
          1   -1    0    0  501    0  0.00000000000E+00 -0.00000000000E+00 -0.23380586443E+03  0.23380586443E+03  0.00000000000E+00 0. -1.
         36    2    1    2    0    0  0.00000000000E+00  0.88817841970E-14  0.83652992445E+03  0.13041416533E+04  0.10005014430E+04 0.  0.
         25    2    3    3    0    0 -0.55939964395E+02  0.43394675940E+01 -0.11081511735E+02  0.13715674656E+03  0.12466379839E+03 0.  0.
         35    2    3    3    0    0  0.55939964395E+02 -0.43394675940E+01  0.84761143618E+03  0.11669849068E+04  0.80016280546E+03 0.  0.
         22    1    5    5    0    0  0.17172494301E+02 -0.18671775723E+03 -0.92135582285E+02  0.20891955617E+03  0.00000000000E+00 0.  1.
         22    1    5    5    0    0  0.38767470094E+02  0.18237828964E+03  0.93974701847E+03  0.95806535058E+03  0.00000000000E+00 0.  1.
          5    1    4    4  502    0 -0.15933411625E+02  0.27517972089E+01 -0.66515825387E+02  0.68614073052E+02  0.47000000000E+01 0. -1.
         -5    1    4    4    0  502 -0.40006552770E+02  0.15876703851E+01  0.55434313652E+02  0.68542673510E+02  0.47000000000E+01 0. -1.
<mgrwt>
<rscale>  0 0.10005014E+04</rscale>
<asrwt>0</asrwt>
<pdfrwt beam="1">  1        1 0.35970134E-01 0.10005014E+04</pdfrwt>
<pdfrwt beam="2">  1       -1 0.16466704E+00 0.10005014E+04</pdfrwt>
<totfact> 0.37466389E+01</totfact>
</mgrwt>
</event>
<event>
 9    1  0.4497870E-036  0.9988803E+03  0.7818608E-02  0.8682105E-01
          2   -1    0    0  501    0  0.00000000000E+00  0.00000000000E+00  0.12079393487E+04  0.12079393487E+04  0.00000000000E+00 0.  1.
         -2   -1    0    0    0  501 -0.00000000000E+00 -0.00000000000E+00 -0.20650083224E+03  0.20650083224E+03  0.00000000000E+00 0.  1.
         36    2    1    2    0    0  0.00000000000E+00  0.00000000000E+00  0.10014385165E+04  0.14144401809E+04  0.99888033478E+03 0.  0.
         25    2    3    3    0    0 -0.84134204117E+02  0.65589023279E+02  0.32027908731E+03  0.35941482273E+03  0.12336870251E+03 0.  0.
         35    2    3    3    0    0  0.84134204117E+02 -0.65589023279E+02  0.68115942916E+03  0.10550253582E+04  0.79857363734E+03 0.  0.
         22    1    5    5    0    0  0.28200948559E+02 -0.22555722008E+03 -0.10529766212E+03  0.25051736602E+03  0.00000000000E+00 0. -1.
         22    1    5    5    0    0  0.55933255558E+02  0.15996819681E+03  0.78645709128E+03  0.80450799218E+03  0.00000000000E+00 0. -1.
          5    1    4    4  502    0 -0.74131666780E+02  0.99993315770E+02  0.21990181935E+03  0.25273121567E+03  0.47000000000E+01 0. -1.
         -5    1    4    4    0  502 -0.10002537337E+02 -0.34404292491E+02  0.10037726796E+03  0.10668360707E+03  0.47000000000E+01 0. -1.
<mgrwt>
<rscale>  0 0.99888033E+03</rscale>
<asrwt>0</asrwt>
<pdfrwt beam="1">  1        2 0.18583682E+00 0.99888033E+03</pdfrwt>
<pdfrwt beam="2">  1       -2 0.31769360E-01 0.99888033E+03</pdfrwt>
<totfact> 0.20770819E+02</totfact>
</mgrwt>
</event>
<event>
 9    1  0.4497870E-036  0.9996385E+03  0.7818608E-02  0.8681382E-01
          1   -1    0    0  501    0  0.00000000000E+00  0.00000000000E+00  0.29522243626E+03  0.29522243626E+03  0.00000000000E+00 0. -1.
         -1   -1    0    0    0  501 -0.00000000000E+00 -0.00000000000E+00 -0.84620700916E+03  0.84620700916E+03  0.00000000000E+00 0. -1.
         36    2    1    2    0    0 -0.71054273576E-14  0.56843418861E-13 -0.55098457291E+03  0.11414294454E+04  0.99963852431E+03 0.  0.
         25    2    3    3    0    0  0.21615085727E+02  0.13819782700E+03 -0.11534796746E+03  0.21947569926E+03  0.12368741913E+03 0.  0.
         35    2    3    3    0    0 -0.21615085727E+02 -0.13819782700E+03 -0.43563660545E+03  0.92195374616E+03  0.80040839996E+03 0.  0.
         22    1    5    5    0    0  0.32898633741E+03  0.13543881082E+03 -0.11580209641E+03  0.37414677228E+03  0.00000000000E+00 0.  1.
         22    1    5    5    0    0 -0.35060142313E+03 -0.27363663782E+03 -0.31983450905E+03  0.54780697388E+03  0.00000000000E+00 0.  1.
          5    1    4    4  502    0  0.35272595611E+02  0.13702111636E+03 -0.13462549630E+03  0.19535878937E+03  0.47000000000E+01 0. -1.
         -5    1    4    4    0  502 -0.13657509884E+02  0.11767106347E+01  0.19277528843E+02  0.24116909886E+02  0.47000000000E+01 0. -1.
<mgrwt>
<rscale>  0 0.99963852E+03</rscale>
<asrwt>0</asrwt>
<pdfrwt beam="1">  1        1 0.45418836E-01 0.99963852E+03</pdfrwt>
<pdfrwt beam="2">  1       -1 0.13018570E+00 0.99963852E+03</pdfrwt>
<totfact> 0.54175212E+01</totfact>
</mgrwt>
</event>
<event>
 9    1  0.4497870E-036  0.9999129E+03  0.7818608E-02  0.8681121E-01
          1   -1    0    0  501    0  0.00000000000E+00  0.00000000000E+00  0.16579850407E+04  0.16579850407E+04  0.00000000000E+00 0.  1.
         -1   -1    0    0    0  501 -0.00000000000E+00 -0.00000000000E+00 -0.15075916574E+03  0.15075916574E+03  0.00000000000E+00 0.  1.
         36    2    1    2    0    0  0.00000000000E+00 -0.28421709430E-13  0.15072258750E+04  0.18087442064E+04  0.99991287928E+03 0.  0.
         25    2    3    3    0    0  0.13717616418E+02  0.12374927146E+03  0.39903310416E+03  0.43610778581E+03  0.12434036929E+03 0.  0.
         35    2    3    3    0    0 -0.13717616418E+02 -0.12374927146E+03  0.11081927708E+04  0.13726364206E+04  0.80033584874E+03 0.  0.
         22    1    5    5    0    0 -0.83270768429E+02  0.18695404733E+03  0.10226833729E+04  0.10429607461E+04  0.00000000000E+00 0.  1.
         22    1    5    5    0    0  0.69553152011E+02 -0.31070331879E+03  0.85509397932E+02  0.32967567456E+03  0.00000000000E+00 0.  1.
          5    1    4    4  502    0 -0.11530988061E+02  0.10789390729E+03  0.38964522320E+03  0.40449913335E+03  0.47000000000E+01 0.  1.
         -5    1    4    4    0  502  0.25248604479E+02  0.15855364170E+02  0.93878809570E+01  0.31608652454E+02  0.47000000000E+01 0.  1.
<mgrwt>
<rscale>  0 0.99991288E+03</rscale>
<asrwt>0</asrwt>
<pdfrwt beam="1">  1        1 0.25507461E+00 0.99991288E+03</pdfrwt>
<pdfrwt beam="2">  1       -1 0.23193719E-01 0.99991288E+03</pdfrwt>
<totfact> 0.86588802E+01</totfact>
</mgrwt>
</event>
<event>
 9    1  0.4497870E-036  0.1000125E+04  0.7818608E-02  0.8680919E-01
          2   -1    0    0  501    0  0.00000000000E+00  0.00000000000E+00  0.95273177805E+03  0.95273177805E+03  0.00000000000E+00 0. -1.
         -2   -1    0    0    0  501 -0.00000000000E+00 -0.00000000000E+00 -0.26246881223E+03  0.26246881223E+03  0.00000000000E+00 0. -1.
         36    2    1    2    0    0  0.14210854715E-13 -0.56843418861E-13  0.69026296582E+03  0.12152005903E+04  0.10001247485E+04 0.  0.
         25    2    3    3    0    0  0.12185058962E+03 -0.51854282715E+02  0.76927209657E+02  0.19803156569E+03  0.12554788966E+03 0.  0.
         35    2    3    3    0    0 -0.12185058962E+03  0.51854282715E+02  0.61333575616E+03  0.10171690246E+04  0.80057207169E+03 0.  0.
         22    1    5    5    0    0 -0.67375106532E+02 -0.34992142430E+03  0.11439713739E+03  0.37426075563E+03  0.00000000000E+00 0. -1.
         22    1    5    5    0    0 -0.54475483087E+02  0.40177570701E+03  0.49893861877E+03  0.64290826896E+03  0.00000000000E+00 0. -1.
          5    1    4    4  502    0  0.53825743784E+01 -0.45046115203E+02  0.66727326976E+02  0.80825433913E+02  0.47000000000E+01 0. -1.
         -5    1    4    4    0  502  0.11646801524E+03 -0.68081675113E+01  0.10199882680E+02  0.11720613177E+03  0.47000000000E+01 0. -1.
<mgrwt>
<rscale>  0 0.10001247E+04</rscale>
<asrwt>0</asrwt>
<pdfrwt beam="1">  1        2 0.14657412E+00 0.10001247E+04</pdfrwt>
<pdfrwt beam="2">  1       -2 0.40379818E-01 0.10001247E+04</pdfrwt>
<totfact> 0.18981760E+02</totfact>
</mgrwt>
</event>
<event>
 9    1  0.4497870E-036  0.9993732E+03  0.7818608E-02  0.8681635E-01
          1   -1    0    0  501    0  0.00000000000E+00  0.00000000000E+00  0.13063898943E+04  0.13063898943E+04  0.00000000000E+00 0.  1.
         -1   -1    0    0    0  501 -0.00000000000E+00 -0.00000000000E+00 -0.19112724267E+03  0.19112724267E+03  0.00000000000E+00 0.  1.
         36    2    1    2    0    0  0.00000000000E+00  0.00000000000E+00  0.11152626516E+04  0.14975171370E+04  0.99937320027E+03 0.  0.
         25    2    3    3    0    0  0.86608228485E+02  0.95215930160E+02  0.12934623015E+03  0.22142488977E+03  0.12542518072E+03 0.  0.
         35    2    3    3    0    0 -0.86608228485E+02 -0.95215930160E+02  0.98591642150E+03  0.12760922472E+04  0.79988322563E+03 0.  0.
         22    1    5    5    0    0  0.16675097314E+03  0.10327381459E+03  0.92870869843E+03  0.94919503495E+03  0.00000000000E+00 0.  1.
         22    1    5    5    0    0 -0.25335920162E+03 -0.19848974475E+03  0.57207723067E+02  0.32689721228E+03  0.00000000000E+00 0.  1.
          5    1    4    4  502    0  0.65086225629E+02  0.69473132694E+02  0.82416668645E+01  0.95669995326E+02  0.47000000000E+01 0.  1.
         -5    1    4    4    0  502  0.21522002856E+02  0.25742797466E+02  0.12110456328E+03  0.12575489444E+03  0.47000000000E+01 0.  1.
<mgrwt>
<rscale>  0 0.99937320E+03</rscale>
<asrwt>0</asrwt>
<pdfrwt beam="1">  1        1 0.20098306E+00 0.99937320E+03</pdfrwt>
<pdfrwt beam="2">  1       -1 0.29404192E-01 0.99937320E+03</pdfrwt>
<totfact> 0.10350178E+02</totfact>
</mgrwt>
</event>
<event>
 9    1  0.4497870E-036  0.9988221E+03  0.7818608E-02  0.8682160E-01
         -1   -1    0    0    0  501 -0.00000000000E+00  0.00000000000E+00  0.86948917192E+03  0.86948917192E+03  0.00000000000E+00 0.  1.
          1   -1    0    0  501    0  0.00000000000E+00 -0.00000000000E+00 -0.28684818334E+03  0.28684818334E+03  0.00000000000E+00 0.  1.
         36    2    1    2    0    0  0.14210854715E-13  0.00000000000E+00  0.58264098858E+03  0.11563373553E+04  0.99882208507E+03 0.  0.
         25    2    3    3    0    0 -0.11019869457E+03  0.85815033344E+02  0.12138214585E+03  0.22255030431E+03  0.12364077153E+03 0.  0.
         35    2    3    3    0    0  0.11019869457E+03 -0.85815033344E+02  0.46125884273E+03  0.93378705096E+03  0.79980657931E+03 0.  0.
         22    1    5    5    0    0  0.28137246011E+03  0.14043686607E+02 -0.12994946445E+03  0.31024917365E+03  0.00000000000E+00 0. -1.
         22    1    5    5    0    0 -0.17117376554E+03 -0.99858719951E+02  0.59120830718E+03  0.62353787730E+03  0.00000000000E+00 0. -1.
          5    1    4    4  502    0 -0.80882880461E+02  0.69225872187E+02  0.11099733686E+02  0.10714268906E+03  0.47000000000E+01 0.  1.
         -5    1    4    4    0  502 -0.29315814108E+02  0.16589161157E+02  0.11028241217E+03  0.11540761525E+03  0.47000000000E+01 0.  1.
<mgrwt>
<rscale>  0 0.99882209E+03</rscale>
<asrwt>0</asrwt>
<pdfrwt beam="1">  1        1 0.44130490E-01 0.99882209E+03</pdfrwt>
<pdfrwt beam="2">  1       -1 0.13376756E+00 0.99882209E+03</pdfrwt>
<totfact> 0.52375404E+01</totfact>
</mgrwt>
</event>
<event>
 9    1  0.4497870E-036  0.9992085E+03  0.7818608E-02  0.8681792E-01
          2   -1    0    0  501    0  0.00000000000E+00  0.00000000000E+00  0.12212195662E+04  0.12212195662E+04  0.00000000000E+00 0. -1.
         -2   -1    0    0    0  501 -0.00000000000E+00 -0.00000000000E+00 -0.20438947840E+03  0.20438947840E+03  0.00000000000E+00 0. -1.
         36    2    1    2    0    0  0.28421709430E-13 -0.71054273576E-14  0.10168300878E+04  0.14256090446E+04  0.99920854711E+03 0.  0.
         25    2    3    3    0    0 -0.11828543357E+03  0.20711333050E+02  0.27948605048E+03  0.32855241733E+03  0.12415246839E+03 0.  0.
         35    2    3    3    0    0  0.11828543357E+03 -0.20711333050E+02  0.73734403736E+03  0.10970566273E+04  0.80339069635E+03 0.  0.
         22    1    5    5    0    0 -0.28550556177E+03 -0.21337253871E+03  0.40641146368E+03  0.54056594777E+03  0.00000000000E+00 0.  1.
         22    1    5    5    0    0  0.40379099535E+03  0.19266120566E+03  0.33093257368E+03  0.55649067954E+03  0.00000000000E+00 0.  1.
          5    1    4    4  502    0 -0.13327942000E+03  0.34707323290E+02  0.27416183971E+03  0.30684655194E+03  0.47000000000E+01 0. -1.
         -5    1    4    4    0  502  0.14993986428E+02 -0.13995990240E+02  0.53242107677E+01  0.21705865385E+02  0.47000000000E+01 0. -1.
<mgrwt>
<rscale>  0 0.99920855E+03</rscale>
<asrwt>0</asrwt>
<pdfrwt beam="1">  1        2 0.18787993E+00 0.99920855E+03</pdfrwt>
<pdfrwt beam="2">  1       -2 0.31444536E-01 0.99920855E+03</pdfrwt>
<totfact> 0.20788528E+02</totfact>
</mgrwt>
</event>
<event>
 9    1  0.4497870E-036  0.1008021E+04  0.7818608E-02  0.8673437E-01
          3   -1    0    0  501    0  0.00000000000E+00  0.00000000000E+00  0.12899122546E+04  0.12899122546E+04  0.00000000000E+00 0.  1.
         -3   -1    0    0    0  501 -0.00000000000E+00 -0.00000000000E+00 -0.19693321297E+03  0.19693321297E+03  0.00000000000E+00 0.  1.
         36    2    1    2    0    0  0.00000000000E+00 -0.28421709430E-13  0.10929790417E+04  0.14868454676E+04  0.10080209616E+04 0.  0.
         25    2    3    3    0    0 -0.59015959052E+02 -0.50521772680E+02  0.19907681453E+02  0.14799986642E+03  0.12438774755E+03 0.  0.
         35    2    3    3    0    0  0.59015959052E+02  0.50521772680E+02  0.10730713602E+04  0.13388456012E+04  0.79686263985E+03 0.  0.
         22    1    5    5    0    0  0.20461967173E+03 -0.25544174068E+03  0.15875563913E+03  0.36376234810E+03  0.00000000000E+00 0.  1.
         22    1    5    5    0    0 -0.14560371268E+03  0.30596351336E+03  0.91431572108E+03  0.97508325309E+03  0.00000000000E+00 0.  1.
          5    1    4    4  502    0  0.26821331442E+02  0.13900211804E+02  0.26377979420E+02  0.40379295521E+02  0.47000000000E+01 0.  1.
         -5    1    4    4    0  502 -0.85837290493E+02 -0.64421984484E+02 -0.64702979669E+01  0.10762057090E+03  0.47000000000E+01 0.  1.
<mgrwt>
<rscale>  0 0.10080210E+04</rscale>
<asrwt>0</asrwt>
<pdfrwt beam="1">  1        3 0.19844803E+00 0.10080210E+04</pdfrwt>
<pdfrwt beam="2">  1       -3 0.30297418E-01 0.10080210E+04</pdfrwt>
<totfact> 0.64179092E+00</totfact>
</mgrwt>
</event>
<event>
 9    1  0.4497870E-036  0.9995235E+03  0.7818608E-02  0.8681492E-01
          2   -1    0    0  501    0  0.00000000000E+00  0.00000000000E+00  0.89677212502E+03  0.89677212502E+03  0.00000000000E+00 0.  1.
         -2   -1    0    0    0  501 -0.00000000000E+00 -0.00000000000E+00 -0.27851200317E+03  0.27851200317E+03  0.00000000000E+00 0.  1.
         36    2    1    2    0    0  0.28421709430E-13  0.00000000000E+00  0.61826012185E+03  0.11752841282E+04  0.99952348832E+03 0.  0.
         25    2    3    3    0    0  0.13645053880E+02  0.14269864251E+03  0.14293872736E+03  0.23771592117E+03  0.12461255685E+03 0.  0.
         35    2    3    3    0    0 -0.13645053880E+02 -0.14269864251E+03  0.47532139448E+03  0.93756820702E+03  0.79533302753E+03 0.  0.
         22    1    5    5    0    0  0.36820874909E+03  0.17401482250E+02  0.10813983221E+03  0.38415454937E+03  0.00000000000E+00 0. -1.
         22    1    5    5    0    0 -0.38185380297E+03 -0.16010012476E+03  0.36718156227E+03  0.55341365765E+03  0.00000000000E+00 0. -1.
          5    1    4    4  502    0 -0.12630935988E+01  0.14823009292E+03  0.15700073952E+03  0.21597471626E+03  0.47000000000E+01 0.  1.
         -5    1    4    4    0  502  0.14908147479E+02 -0.55314504065E+01 -0.14062012159E+02  0.21741204908E+02  0.47000000000E+01 0.  1.
<mgrwt>
<rscale>  0 0.99952349E+03</rscale>
<asrwt>0</asrwt>
<pdfrwt beam="1">  1        2 0.13796494E+00 0.99952349E+03</pdfrwt>
<pdfrwt beam="2">  1       -2 0.42848001E-01 0.99952349E+03</pdfrwt>
<totfact> 0.18409728E+02</totfact>
</mgrwt>
</event>
<event>
 9    1  0.4497870E-036  0.1000418E+04  0.7818608E-02  0.8680640E-01
          2   -1    0    0  501    0  0.00000000000E+00  0.00000000000E+00  0.16402349515E+04  0.16402349515E+04  0.00000000000E+00 0. -1.
         -2   -1    0    0    0  501 -0.00000000000E+00 -0.00000000000E+00 -0.15254457998E+03  0.15254457998E+03  0.00000000000E+00 0. -1.
         36    2    1    2    0    0 -0.24868995752E-13  0.14210854715E-13  0.14876903715E+04  0.17927795315E+04  0.10004178162E+04 0.  0.
         25    2    3    3    0    0 -0.54046030526E+00 -0.34715966531E+02  0.35798985029E+02  0.13483294335E+03  0.12527116529E+03 0.  0.
         35    2    3    3    0    0  0.54046030526E+00  0.34715966531E+02  0.14518913865E+04  0.16579465882E+04  0.79974545983E+03 0.  0.
         22    1    5    5    0    0 -0.38923907600E+03  0.10233958743E+03  0.66762985491E+03  0.77955761339E+03  0.00000000000E+00 0. -1.
         22    1    5    5    0    0  0.38977953630E+03 -0.67623620898E+02  0.78426153160E+03  0.87838897476E+03  0.00000000000E+00 0. -1.
          5    1    4    4  502    0 -0.16574757327E+02  0.45019814301E+02  0.87441602871E+01  0.48990372516E+02  0.47000000000E+01 0.  1.
         -5    1    4    4    0  502  0.16034297022E+02 -0.79735780832E+02  0.27054824742E+02  0.85842570836E+02  0.47000000000E+01 0.  1.
<mgrwt>
<rscale>  0 0.10004178E+04</rscale>
<asrwt>0</asrwt>
<pdfrwt beam="1">  1        2 0.25234383E+00 0.10004178E+04</pdfrwt>
<pdfrwt beam="2">  1       -2 0.23468398E-01 0.10004178E+04</pdfrwt>
<totfact> 0.20253320E+02</totfact>
</mgrwt>
</event>
<event>
 9    1  0.4497870E-036  0.9996105E+03  0.7818608E-02  0.8681409E-01
         -1   -1    0    0    0  501 -0.00000000000E+00  0.00000000000E+00  0.10526212961E+04  0.10526212961E+04  0.00000000000E+00 0. -1.
          1   -1    0    0  501    0  0.00000000000E+00 -0.00000000000E+00 -0.23731734865E+03  0.23731734865E+03  0.00000000000E+00 0. -1.
         36    2    1    2    0    0  0.00000000000E+00  0.28421709430E-13  0.81530394743E+03  0.12899386447E+04  0.99961051439E+03 0.  0.
         25    2    3    3    0    0  0.63833917840E+02  0.12507754702E+03  0.16243554326E+03  0.24783061519E+03  0.12375599491E+03 0.  0.
         35    2    3    3    0    0 -0.63833917840E+02 -0.12507754702E+03  0.65286840417E+03  0.10421080295E+04  0.80002051864E+03 0.  0.
         22    1    5    5    0    0  0.88912001870E+02 -0.35223347203E+03  0.33350817274E+02  0.36480959405E+03  0.00000000000E+00 0.  1.
         22    1    5    5    0    0 -0.15274591971E+03  0.22715592501E+03  0.61951758690E+03  0.67729843550E+03  0.00000000000E+00 0.  1.
          5    1    4    4  502    0 -0.11014068666E+02  0.26215516751E+02  0.10896431261E+03  0.11271146547E+03  0.47000000000E+01 0.  1.
         -5    1    4    4    0  502  0.74847986506E+02  0.98862030268E+02  0.53471230654E+02  0.13511914972E+03  0.47000000000E+01 0.  1.
<mgrwt>
<rscale>  0 0.99961051E+03</rscale>
<asrwt>0</asrwt>
<pdfrwt beam="1">  1        1 0.36510362E-01 0.99961051E+03</pdfrwt>
<pdfrwt beam="2">  1       -1 0.16194173E+00 0.99961051E+03</pdfrwt>
<totfact> 0.38732273E+01</totfact>
</mgrwt>
</event>
<event>
 9    1  0.4497870E-036  0.9999848E+03  0.7818608E-02  0.8681052E-01
         -1   -1    0    0    0  501 -0.00000000000E+00  0.00000000000E+00  0.69832074107E+03  0.69832074107E+03  0.00000000000E+00 0.  1.
          1   -1    0    0  501    0  0.00000000000E+00 -0.00000000000E+00 -0.35799080753E+03  0.35799080753E+03  0.00000000000E+00 0.  1.
         36    2    1    2    0    0  0.14210854715E-13  0.00000000000E+00  0.34032993354E+03  0.10563115486E+04  0.99998481190E+03 0.  0.
         25    2    3    3    0    0 -0.49968038122E+02 -0.67689590290E+02 -0.54419483011E+02  0.16037231575E+03  0.12521626915E+03 0.  0.
         35    2    3    3    0    0  0.49968038122E+02  0.67689590290E+02  0.39474941655E+03  0.89593923285E+03  0.79987581638E+03 0.  0.
         22    1    5    5    0    0 -0.33541611593E+03 -0.39101091029E+02  0.36144753900E+03  0.49464855159E+03  0.00000000000E+00 0. -1.
         22    1    5    5    0    0  0.38538415406E+03  0.10679068132E+03  0.33301877554E+02  0.40129068126E+03  0.00000000000E+00 0. -1.
          5    1    4    4  502    0 -0.92097125176E+01 -0.18123038491E+02 -0.86142227898E+02  0.88633158333E+02  0.47000000000E+01 0. -1.
         -5    1    4    4    0  502 -0.40758325605E+02 -0.49566551799E+02  0.31722744887E+02  0.71739157415E+02  0.47000000000E+01 0. -1.
<mgrwt>
<rscale>  0 0.99998481E+03</rscale>
<asrwt>0</asrwt>
<pdfrwt beam="1">  1        1 0.55075509E-01 0.99998481E+03</pdfrwt>
<pdfrwt beam="2">  1       -1 0.10743396E+00 0.99998481E+03</pdfrwt>
<totfact> 0.67416764E+01</totfact>
</mgrwt>
</event>
<event>
 9    1  0.4497870E-036  0.1001017E+04  0.7818608E-02  0.8680070E-01
         -2   -1    0    0    0  501 -0.00000000000E+00  0.00000000000E+00  0.25398557466E+03  0.25398557466E+03  0.00000000000E+00 0. -1.
          2   -1    0    0  501    0  0.00000000000E+00 -0.00000000000E+00 -0.98631075449E+03  0.98631075449E+03  0.00000000000E+00 0. -1.
         36    2    1    2    0    0 -0.21316282073E-13  0.14210854715E-13 -0.73232517984E+03  0.12402963291E+04  0.10010168905E+04 0.  0.
         25    2    3    3    0    0 -0.15643262539E+01 -0.12460254911E+03 -0.67850372558E+02  0.19293052367E+03  0.13072976535E+03 0.  0.
         35    2    3    3    0    0  0.15643262539E+01  0.12460254911E+03 -0.66447480728E+03  0.10473658055E+04  0.79995007258E+03 0.  0.
         22    1    5    5    0    0 -0.18673314128E+03  0.39195987560E+03 -0.55040028851E+03  0.70102944854E+03  0.00000000000E+00 0. -1.
         22    1    5    5    0    0  0.18829746753E+03 -0.26735732649E+03 -0.11407451877E+03  0.34633635694E+03  0.00000000000E+00 0. -1.
          5    1    4    4  502    0 -0.51690407319E+02 -0.53155847467E+02 -0.74578458484E+02  0.10526860310E+03  0.47000000000E+01 0. -1.
         -5    1    4    4    0  502  0.50126081065E+02 -0.71446701639E+02  0.67280859264E+01  0.87661920571E+02  0.47000000000E+01 0. -1.
<mgrwt>
<rscale>  0 0.10010169E+04</rscale>
<asrwt>0</asrwt>
<pdfrwt beam="1">  1        2 0.15174011E+00 0.10010169E+04</pdfrwt>
<pdfrwt beam="2">  1       -2 0.39074704E-01 0.10010169E+04</pdfrwt>
<totfact> 0.19241365E+02</totfact>
</mgrwt>
</event>
<event>
 9    1  0.4497870E-036  0.1000215E+04  0.7818608E-02  0.8680833E-01
          2   -1    0    0  501    0  0.00000000000E+00  0.00000000000E+00  0.14420629293E+04  0.14420629293E+04  0.00000000000E+00 0.  1.
         -2   -1    0    0    0  501 -0.00000000000E+00 -0.00000000000E+00 -0.17343732803E+03  0.17343732803E+03  0.00000000000E+00 0.  1.
         36    2    1    2    0    0 -0.14210854715E-13  0.35527136788E-14  0.12686256013E+04  0.16155002574E+04  0.10002150595E+04 0.  0.
         25    2    3    3    0    0 -0.12742479698E+03  0.23998126131E+02  0.14884463368E+03  0.23390416281E+03  0.12547287938E+03 0.  0.
         35    2    3    3    0    0  0.12742479698E+03 -0.23998126131E+02  0.11197809676E+04  0.13815960945E+04  0.79880245624E+03 0.  0.
         22    1    5    5    0    0 -0.31295950007E+03 -0.42070402614E+02  0.23672390751E+03  0.39465399510E+03  0.00000000000E+00 0.  1.
         22    1    5    5    0    0  0.44038429705E+03  0.18072276483E+02  0.88305706009E+03  0.98694209944E+03  0.00000000000E+00 0.  1.
          5    1    4    4  502    0 -0.27886050631E+02  0.26020617877E+02 -0.15711562044E+02  0.41516834614E+02  0.47000000000E+01 0. -1.
         -5    1    4    4    0  502 -0.99538746354E+02 -0.20224917458E+01  0.16455619573E+03  0.19238732820E+03  0.47000000000E+01 0. -1.
<mgrwt>
<rscale>  0 0.10002151E+04</rscale>
<asrwt>0</asrwt>
<pdfrwt beam="1">  1        2 0.22185583E+00 0.10002151E+04</pdfrwt>
<pdfrwt beam="2">  1       -2 0.26682667E-01 0.10002151E+04</pdfrwt>
<totfact> 0.20873608E+02</totfact>
</mgrwt>
</event>
<event>
 9    1  0.4497870E-036  0.9995336E+03  0.7818608E-02  0.8681482E-01
         -2   -1    0    0    0  501 -0.00000000000E+00  0.00000000000E+00  0.16816457673E+03  0.16816457673E+03  0.00000000000E+00 0.  1.
          2   -1    0    0  501    0  0.00000000000E+00 -0.00000000000E+00 -0.14852526212E+04  0.14852526212E+04  0.00000000000E+00 0.  1.
         36    2    1    2    0    0  0.00000000000E+00  0.00000000000E+00 -0.13170880444E+04  0.16534171979E+04  0.99953364801E+03 0.  0.
         25    2    3    3    0    0 -0.60599045261E+02  0.96342510852E+02 -0.38775261312E+03  0.42451429197E+03  0.13002373408E+03 0.  0.
         35    2    3    3    0    0  0.60599045261E+02 -0.96342510852E+02 -0.92933543132E+03  0.12289029059E+04  0.79597982676E+03 0.  0.
         22    1    5    5    0    0 -0.18714360758E+03  0.64592649168E+02 -0.91170330422E+03  0.93295115366E+03  0.00000000000E+00 0.  1.
         22    1    5    5    0    0  0.24774265284E+03 -0.16093516002E+03 -0.17632127098E+02  0.29595175227E+03  0.00000000000E+00 0.  1.
          5    1    4    4  502    0  0.11065847025E+02  0.71269922900E+02 -0.29905251757E+03  0.30766272628E+03  0.47000000000E+01 0. -1.
         -5    1    4    4    0  502 -0.71664892286E+02  0.25072587951E+02 -0.88700095550E+02  0.11685156569E+03  0.47000000000E+01 0. -1.
<mgrwt>
<rscale>  0 0.99953365E+03</rscale>
<asrwt>0</asrwt>
<pdfrwt beam="1">  1        2 0.22850042E+00 0.99953365E+03</pdfrwt>
<pdfrwt beam="2">  1       -2 0.25871472E-01 0.99953365E+03</pdfrwt>
<totfact> 0.20846406E+02</totfact>
</mgrwt>
</event>
<event>
 9    1  0.4497870E-036  0.9991433E+03  0.7818608E-02  0.8681854E-01
         -1   -1    0    0    0  501 -0.00000000000E+00  0.00000000000E+00  0.78478489318E+03  0.78478489318E+03  0.00000000000E+00 0. -1.
          1   -1    0    0  501    0  0.00000000000E+00 -0.00000000000E+00 -0.31801304211E+03  0.31801304211E+03  0.00000000000E+00 0. -1.
         36    2    1    2    0    0  0.00000000000E+00 -0.14210854715E-13  0.46677185108E+03  0.11027979353E+04  0.99914329559E+03 0.  0.
         25    2    3    3    0    0 -0.12249798768E+03 -0.50610562130E+02  0.39378279787E+02  0.18617102329E+03  0.12466681599E+03 0.  0.
         35    2    3    3    0    0  0.12249798768E+03  0.50610562130E+02  0.42739357129E+03  0.91662691200E+03  0.79998277796E+03 0.  0.
         22    1    5    5    0    0  0.30160415782E+03 -0.16845255774E+03 -0.62326688347E+02  0.35103553709E+03  0.00000000000E+00 0. -1.
         22    1    5    5    0    0 -0.17910617014E+03  0.21906311987E+03  0.48972025964E+03  0.56559137490E+03  0.00000000000E+00 0. -1.
          5    1    4    4  502    0 -0.28280819532E+02 -0.62063693843E+02  0.57620661991E+02  0.89408822468E+02  0.47000000000E+01 0. -1.
         -5    1    4    4    0  502 -0.94217168150E+02  0.11453131713E+02 -0.18242382204E+02  0.96762200827E+02  0.47000000000E+01 0. -1.
<mgrwt>
<rscale>  0 0.99914330E+03</rscale>
<asrwt>0</asrwt>
<pdfrwt beam="1">  1        1 0.48925083E-01 0.99914330E+03</pdfrwt>
<pdfrwt beam="2">  1       -1 0.12073614E+00 0.99914330E+03</pdfrwt>
<totfact> 0.59543213E+01</totfact>
</mgrwt>
</event>
<event>
 9    1  0.4497870E-036  0.9997396E+03  0.7818608E-02  0.8681286E-01
         -4   -1    0    0    0  501 -0.00000000000E+00  0.00000000000E+00  0.36465880285E+03  0.36465880285E+03  0.00000000000E+00 0.  1.
          4   -1    0    0  501    0  0.00000000000E+00 -0.00000000000E+00 -0.68521532661E+03  0.68521532661E+03  0.00000000000E+00 0.  1.
         36    2    1    2    0    0  0.14210854715E-13  0.00000000000E+00 -0.32055652376E+03  0.10498741295E+04  0.99973956749E+03 0.  0.
         25    2    3    3    0    0 -0.34678791813E+02  0.12136644366E+03  0.11155052010E+01  0.17713318920E+03  0.12426781609E+03 0.  0.
         35    2    3    3    0    0  0.34678791813E+02 -0.12136644366E+03 -0.32167202896E+03  0.87274094026E+03  0.80141838159E+03 0.  0.
         22    1    5    5    0    0 -0.15268459605E+03  0.84422970383E+02 -0.50846178075E+03  0.53756228131E+03  0.00000000000E+00 0. -1.
         22    1    5    5    0    0  0.18736338787E+03 -0.20578941405E+03  0.18678975179E+03  0.33517865896E+03  0.00000000000E+00 0. -1.
          5    1    4    4  502    0 -0.15126791864E+02  0.14513112270E+03  0.37265658217E+00  0.14599346383E+03  0.47000000000E+01 0.  1.
         -5    1    4    4    0  502 -0.19551999949E+02 -0.23764679040E+02  0.74284861878E+00  0.31139725367E+02  0.47000000000E+01 0.  1.
<mgrwt>
<rscale>  0 0.99973957E+03</rscale>
<asrwt>0</asrwt>
<pdfrwt beam="1">  1        4 0.10541774E+00 0.99973957E+03</pdfrwt>
<pdfrwt beam="2">  1       -4 0.56101355E-01 0.99973957E+03</pdfrwt>
<totfact> 0.48842920E+00</totfact>
</mgrwt>
</event>
<event>
 9    1  0.4497870E-036  0.9988276E+03  0.7818608E-02  0.8682155E-01
         -2   -1    0    0    0  501 -0.00000000000E+00  0.00000000000E+00  0.98292309096E+02  0.98292309096E+02  0.00000000000E+00 0. -1.
          2   -1    0    0  501    0  0.00000000000E+00 -0.00000000000E+00 -0.25374734254E+04  0.25374734254E+04  0.00000000000E+00 0. -1.
         36    2    1    2    0    0 -0.28421709430E-13  0.00000000000E+00 -0.24391811163E+04  0.26357657345E+04  0.99882755720E+03 0.  0.
         25    2    3    3    0    0  0.11604808128E+03  0.75061084649E+02 -0.46925362392E+03  0.50487809854E+03  0.12490639388E+03 0.  0.
         35    2    3    3    0    0 -0.11604808128E+03 -0.75061084649E+02 -0.19699274924E+04  0.21308876360E+04  0.80060381476E+03 0.  0.
         22    1    5    5    0    0 -0.38539598899E+03  0.11788518858E+03 -0.15175486237E+04  0.15701531172E+04  0.00000000000E+00 0. -1.
         22    1    5    5    0    0  0.26934790772E+03 -0.19294627323E+03 -0.45237886872E+03  0.56073451883E+03  0.00000000000E+00 0. -1.
          5    1    4    4  502    0  0.39642768395E+02  0.97709368918E+02 -0.29151263522E+03  0.31003286335E+03  0.47000000000E+01 0.  1.
         -5    1    4    4    0  502  0.76405312882E+02 -0.22648284269E+02 -0.17774098870E+03  0.19484523520E+03  0.47000000000E+01 0.  1.
<mgrwt>
<rscale>  0 0.99882756E+03</rscale>
<asrwt>0</asrwt>
<pdfrwt beam="1">  1        2 0.39038049E+00 0.99882756E+03</pdfrwt>
<pdfrwt beam="2">  1       -2 0.15121895E-01 0.99882756E+03</pdfrwt>
<totfact> 0.13033145E+02</totfact>
</mgrwt>
</event>
<event>
 9    1  0.4497870E-036  0.9996031E+03  0.7818608E-02  0.8681416E-01
         -1   -1    0    0    0  501 -0.00000000000E+00  0.00000000000E+00  0.58631341756E+03  0.58631341756E+03  0.00000000000E+00 0.  1.
          1   -1    0    0  501    0  0.00000000000E+00 -0.00000000000E+00 -0.42605470408E+03  0.42605470408E+03  0.00000000000E+00 0.  1.
         36    2    1    2    0    0 -0.14210854715E-13  0.28421709430E-13  0.16025871348E+03  0.10123681216E+04  0.99960310046E+03 0.  0.
         25    2    3    3    0    0  0.24828159591E+02 -0.10801988881E+03 -0.55564494939E+02  0.17602403167E+03  0.12494924066E+03 0.  0.
         35    2    3    3    0    0 -0.24828159591E+02  0.10801988881E+03  0.21582320842E+03  0.83634408997E+03  0.80037931360E+03 0.  0.
         22    1    5    5    0    0  0.11419178708E+03  0.40395697709E+03  0.27803805069E+03  0.50351381431E+03  0.00000000000E+00 0.  1.
         22    1    5    5    0    0 -0.13901994667E+03 -0.29593708828E+03 -0.62214842275E+02  0.33283027565E+03  0.00000000000E+00 0.  1.
          5    1    4    4  502    0  0.13661263508E+02 -0.46812093824E+02  0.39076118240E+02  0.62666061513E+02  0.47000000000E+01 0. -1.
         -5    1    4    4    0  502  0.11166896083E+02 -0.61207794981E+02 -0.94640613179E+02  0.11335797015E+03  0.47000000000E+01 0. -1.
<mgrwt>
<rscale>  0 0.99960310E+03</rscale>
<asrwt>0</asrwt>
<pdfrwt beam="1">  1        1 0.65546877E-01 0.99960310E+03</pdfrwt>
<pdfrwt beam="2">  1       -1 0.90202064E-01 0.99960310E+03</pdfrwt>
<totfact> 0.78882968E+01</totfact>
</mgrwt>
</event>
<event>
 9    1  0.4497870E-036  0.1000664E+04  0.7818608E-02  0.8680406E-01
          2   -1    0    0  501    0  0.00000000000E+00  0.00000000000E+00  0.13345086951E+04  0.13345086951E+04  0.00000000000E+00 0.  1.
         -2   -1    0    0    0  501 -0.00000000000E+00 -0.00000000000E+00 -0.18758355355E+03  0.18758355355E+03  0.00000000000E+00 0.  1.
         36    2    1    2    0    0  0.14210854715E-13  0.28421709430E-13  0.11469251415E+04  0.15220922486E+04  0.10006635464E+04 0.  0.
         25    2    3    3    0    0 -0.43997838988E+02  0.12987007171E+03  0.26473897160E+03  0.32308946829E+03  0.12449110843E+03 0.  0.
         35    2    3    3    0    0  0.43997838988E+02 -0.12987007171E+03  0.88218616992E+03  0.11990027803E+04  0.80034566500E+03 0.  0.
         22    1    5    5    0    0 -0.31141178394E+03  0.15822726518E+03  0.31560518506E+03  0.47076512133E+03  0.00000000000E+00 0.  1.
         22    1    5    5    0    0  0.35540962293E+03 -0.28809733688E+03  0.56658098485E+03  0.72823765900E+03  0.00000000000E+00 0.  1.
          5    1    4    4  502    0 -0.33733481249E+02  0.48338616926E+02  0.22318477099E+03  0.23088547301E+03  0.47000000000E+01 0.  1.
         -5    1    4    4    0  502 -0.10264357739E+02  0.81531454779E+02  0.41554200607E+02  0.92203995284E+02  0.47000000000E+01 0.  1.
<mgrwt>
<rscale>  0 0.10006635E+04</rscale>
<asrwt>0</asrwt>
<pdfrwt beam="1">  1        2 0.20530902E+00 0.10006635E+04</pdfrwt>
<pdfrwt beam="2">  1       -2 0.28859009E-01 0.10006635E+04</pdfrwt>
<totfact> 0.20884205E+02</totfact>
</mgrwt>
</event>
<event>
 9    1  0.4497870E-036  0.1000478E+04  0.7818608E-02  0.8680583E-01
          1   -1    0    0  501    0  0.00000000000E+00  0.00000000000E+00  0.18853066381E+04  0.18853066381E+04  0.00000000000E+00 0. -1.
         -1   -1    0    0    0  501 -0.00000000000E+00 -0.00000000000E+00 -0.13273109486E+03  0.13273109486E+03  0.00000000000E+00 0. -1.
         36    2    1    2    0    0  0.17763568394E-14  0.00000000000E+00  0.17525755432E+04  0.20180377329E+04  0.10004775144E+04 0.  0.
         25    2    3    3    0    0  0.15533047274E+02 -0.10691317243E+03  0.14656166583E+03  0.22062954278E+03  0.12460084774E+03 0.  0.
         35    2    3    3    0    0 -0.15533047274E+02  0.10691317243E+03  0.16060138774E+04  0.17974081902E+04  0.79982743497E+03 0.  0.
         22    1    5    5    0    0 -0.55613727283E+01  0.39613750550E+03  0.42318262270E+03  0.57968904102E+03  0.00000000000E+00 0. -1.
         22    1    5    5    0    0 -0.99716745462E+01 -0.28922433306E+03  0.11828312547E+04  0.12177191491E+04  0.00000000000E+00 0. -1.
          5    1    4    4  502    0  0.48612324765E+02 -0.16827192750E+02  0.10280378311E+03  0.11505225055E+03  0.47000000000E+01 0. -1.
         -5    1    4    4    0  502 -0.33079277490E+02 -0.90085979681E+02  0.43757882728E+02  0.10557729223E+03  0.47000000000E+01 0. -1.
<mgrwt>
<rscale>  0 0.10004775E+04</rscale>
<asrwt>0</asrwt>
<pdfrwt beam="1">  1        1 0.29004716E+00 0.10004775E+04</pdfrwt>
<pdfrwt beam="2">  1       -1 0.20420170E-01 0.10004775E+04</pdfrwt>
<totfact> 0.74056575E+01</totfact>
</mgrwt>
</event>
<event>
 9    1  0.4497870E-036  0.1000631E+04  0.7818608E-02  0.8680437E-01
         -2   -1    0    0    0  501 -0.00000000000E+00  0.00000000000E+00  0.83783148959E+02  0.83783148959E+02  0.00000000000E+00 0.  1.
          2   -1    0    0  501    0  0.00000000000E+00 -0.00000000000E+00 -0.29876601926E+04  0.29876601926E+04  0.00000000000E+00 0.  1.
         36    2    1    2    0    0  0.56843418861E-13  0.17763568394E-13 -0.29038770436E+04  0.30714433415E+04  0.10006309589E+04 0.  0.
         25    2    3    3    0    0 -0.94627291090E+02 -0.23065893453E+02 -0.20935274656E+03  0.25897472241E+03  0.11727307745E+03 0.  0.
         35    2    3    3    0    0  0.94627291090E+02  0.23065893453E+02 -0.26945242970E+04  0.28124686191E+04  0.80002011630E+03 0.  0.
         22    1    5    5    0    0  0.41715722753E+03  0.16372653119E+03 -0.16759620544E+04  0.17348415886E+04  0.00000000000E+00 0.  1.
         22    1    5    5    0    0 -0.32252993644E+03 -0.14066063773E+03 -0.10185622426E+04  0.10776270305E+04  0.00000000000E+00 0.  1.
          5    1    4    4  502    0  0.18450331648E+02  0.21380506634E+02 -0.24305150538E+02  0.37554908395E+02  0.47000000000E+01 0.  1.
         -5    1    4    4    0  502 -0.11307762274E+03 -0.44446400086E+02 -0.18504759603E+03  0.22141981402E+03  0.47000000000E+01 0.  1.
<mgrwt>
<rscale>  0 0.10006310E+04</rscale>
<asrwt>0</asrwt>
<pdfrwt beam="1">  1        2 0.45963999E+00 0.10006310E+04</pdfrwt>
<pdfrwt beam="2">  1       -2 0.12889716E-01 0.10006310E+04</pdfrwt>
<totfact> 0.87789882E+01</totfact>
</mgrwt>
</event>
<event>
 9    1  0.4497870E-036  0.1000259E+04  0.7818608E-02  0.8680791E-01
          2   -1    0    0  501    0  0.00000000000E+00  0.00000000000E+00  0.15799938710E+04  0.15799938710E+04  0.00000000000E+00 0. -1.
         -2   -1    0    0    0  501 -0.00000000000E+00 -0.00000000000E+00 -0.15831057316E+03  0.15831057316E+03  0.00000000000E+00 0. -1.
         36    2    1    2    0    0 -0.56843418861E-13  0.14210854715E-13  0.14216832978E+04  0.17383044441E+04  0.10002594370E+04 0.  0.
         25    2    3    3    0    0 -0.44976681178E+02 -0.12177819985E+03  0.35378217742E+03  0.39699966700E+03  0.12487623764E+03 0.  0.
         35    2    3    3    0    0  0.44976681178E+02  0.12177819985E+03  0.10679011204E+04  0.13413047771E+04  0.80114472503E+03 0.  0.
         22    1    5    5    0    0 -0.30545509160E+03  0.13100504316E+03  0.16159458133E+03  0.36956453163E+03  0.00000000000E+00 0. -1.
         22    1    5    5    0    0  0.35043177278E+03 -0.92268433164E+01  0.90630653905E+03  0.97174024550E+03  0.00000000000E+00 0. -1.
          5    1    4    4  502    0 -0.82350847423E+02 -0.90724060606E+02  0.19028073541E+03  0.22636555726E+03  0.47000000000E+01 0.  1.
         -5    1    4    4    0  502  0.37374166245E+02 -0.31054139239E+02  0.16350144201E+03  0.17063410974E+03  0.47000000000E+01 0.  1.
<mgrwt>
<rscale>  0 0.10002594E+04</rscale>
<asrwt>0</asrwt>
<pdfrwt beam="1">  1        2 0.24307597E+00 0.10002594E+04</pdfrwt>
<pdfrwt beam="2">  1       -2 0.24355474E-01 0.10002594E+04</pdfrwt>
<totfact> 0.20512235E+02</totfact>
</mgrwt>
</event>
<event>
 9    1  0.4497870E-036  0.1000824E+04  0.7818608E-02  0.8680253E-01
          1   -1    0    0  501    0  0.00000000000E+00  0.00000000000E+00  0.10003762989E+04  0.10003762989E+04  0.00000000000E+00 0.  1.
         -1   -1    0    0    0  501 -0.00000000000E+00 -0.00000000000E+00 -0.25031813122E+03  0.25031813122E+03  0.00000000000E+00 0.  1.
         36    2    1    2    0    0 -0.71054273576E-14  0.00000000000E+00  0.75005816767E+03  0.12506944301E+04  0.10008243116E+04 0.  0.
         25    2    3    3    0    0 -0.44984749976E+02 -0.13304708928E+03  0.12693928580E+03  0.22686606086E+03  0.12501788510E+03 0.  0.
         35    2    3    3    0    0  0.44984749976E+02  0.13304708928E+03  0.62311888187E+03  0.10238283692E+04  0.80013888358E+03 0.  0.
         22    1    5    5    0    0  0.16422460585E+03 -0.82823518784E+01  0.77019874567E+03  0.78755598299E+03  0.00000000000E+00 0.  1.
         22    1    5    5    0    0 -0.11923985587E+03  0.14132944116E+03 -0.14707986380E+03  0.23627238625E+03  0.00000000000E+00 0.  1.
          5    1    4    4  502    0 -0.32708202521E+02 -0.11399523682E+03  0.23658100022E+02  0.12102287480E+03  0.47000000000E+01 0. -1.
         -5    1    4    4    0  502 -0.12276547455E+02 -0.19051852467E+02  0.10328118577E+03  0.10584318606E+03  0.47000000000E+01 0. -1.
<mgrwt>
<rscale>  0 0.10008243E+04</rscale>
<asrwt>0</asrwt>
<pdfrwt beam="1">  1        1 0.15390404E+00 0.10008243E+04</pdfrwt>
<pdfrwt beam="2">  1       -1 0.38510482E-01 0.10008243E+04</pdfrwt>
<totfact> 0.11048747E+02</totfact>
</mgrwt>
</event>
<event>
 9    1  0.4497870E-036  0.1001845E+04  0.7818608E-02  0.8679283E-01
         -1   -1    0    0    0  501 -0.00000000000E+00  0.00000000000E+00  0.22961546123E+03  0.22961546123E+03  0.00000000000E+00 0.  1.
          1   -1    0    0  501    0  0.00000000000E+00 -0.00000000000E+00 -0.10927990799E+04  0.10927990799E+04  0.00000000000E+00 0.  1.
         36    2    1    2    0    0  0.14210854715E-13  0.00000000000E+00 -0.86318361869E+03  0.13224145411E+04  0.10018454267E+04 0.  0.
         25    2    3    3    0    0 -0.27309716925E+02  0.11959252634E+03 -0.25740775855E+03  0.31196134990E+03  0.12654223276E+03 0.  0.
         35    2    3    3    0    0  0.27309716925E+02 -0.11959252634E+03 -0.60577586013E+03  0.10104531912E+04  0.79937667340E+03 0.  0.
         22    1    5    5    0    0  0.11552979718E+03 -0.38108371910E+02 -0.78518843132E+03  0.79455664035E+03  0.00000000000E+00 0. -1.
         22    1    5    5    0    0 -0.88220080253E+02 -0.81484154431E+02  0.17941257119E+03  0.21589655089E+03  0.00000000000E+00 0. -1.
          5    1    4    4  502    0 -0.70053339598E+02  0.29118560646E+02 -0.10706441552E+03  0.13130209455E+03  0.47000000000E+01 0. -1.
         -5    1    4    4    0  502  0.42743622673E+02  0.90473965695E+02 -0.15034334304E+03  0.18065925535E+03  0.47000000000E+01 0. -1.
<mgrwt>
<rscale>  0 0.10018454E+04</rscale>
<asrwt>0</asrwt>
<pdfrwt beam="1">  1        1 0.16812294E+00 0.10018454E+04</pdfrwt>
<pdfrwt beam="2">  1       -1 0.35325455E-01 0.10018454E+04</pdfrwt>
<totfact> 0.10888792E+02</totfact>
</mgrwt>
</event>
<event>
 9    1  0.4497870E-036  0.1000288E+04  0.7818608E-02  0.8680764E-01
         -1   -1    0    0    0  501 -0.00000000000E+00  0.00000000000E+00  0.49455729897E+03  0.49455729897E+03  0.00000000000E+00 0.  1.
          1   -1    0    0  501    0  0.00000000000E+00 -0.00000000000E+00 -0.50579337330E+03  0.50579337330E+03  0.00000000000E+00 0.  1.
         36    2    1    2    0    0  0.14210854715E-13 -0.14210854715E-13 -0.11236074330E+02  0.10003506723E+04  0.10002875677E+04 0.  0.
         25    2    3    3    0    0 -0.59101774534E+02  0.18782300705E+02  0.12301407923E+03  0.18622459643E+03  0.12530499613E+03 0.  0.
         35    2    3    3    0    0  0.59101774534E+02 -0.18782300705E+02 -0.13425015356E+03  0.81412607584E+03  0.80058251858E+03 0.  0.
         22    1    5    5    0    0 -0.73919544053E+02  0.35999945592E+03 -0.18151716662E+03  0.40989289947E+03  0.00000000000E+00 0.  1.
         22    1    5    5    0    0  0.13302131859E+03 -0.37878175663E+03  0.47267013066E+02  0.40423317637E+03  0.00000000000E+00 0.  1.
          5    1    4    4  502    0  0.18835321731E+02 -0.34150852027E+02  0.13161772614E+02  0.41429123781E+02  0.47000000000E+01 0. -1.
         -5    1    4    4    0  502 -0.77937096265E+02  0.52933152732E+02  0.10985230661E+03  0.14479547265E+03  0.47000000000E+01 0. -1.
<mgrwt>
<rscale>  0 0.10002876E+04</rscale>
<asrwt>0</asrwt>
<pdfrwt beam="1">  1        1 0.77814365E-01 0.10002876E+04</pdfrwt>
<pdfrwt beam="2">  1       -1 0.76085739E-01 0.10002876E+04</pdfrwt>
<totfact> 0.89247958E+01</totfact>
</mgrwt>
</event>
<event>
 9    1  0.4497870E-036  0.9963332E+03  0.7818608E-02  0.8684538E-01
          2   -1    0    0  501    0  0.00000000000E+00  0.00000000000E+00  0.86829738323E+03  0.86829738323E+03  0.00000000000E+00 0.  1.
         -2   -1    0    0    0  501 -0.00000000000E+00 -0.00000000000E+00 -0.28581216846E+03  0.28581216846E+03  0.00000000000E+00 0.  1.
         36    2    1    2    0    0 -0.17763568394E-13  0.14210854715E-13  0.58248521477E+03  0.11541095517E+04  0.99633319321E+03 0.  0.
         25    2    3    3    0    0 -0.20858110143E+02 -0.75111114743E+02  0.24994247239E+03  0.29025331884E+03  0.12529568738E+03 0.  0.
         35    2    3    3    0    0  0.20858110143E+02  0.75111114743E+02  0.33254274237E+03  0.86385623285E+03  0.79346466538E+03 0.  0.
         22    1    5    5    0    0 -0.24618546343E+03  0.10805049527E+03  0.48504749639E+03  0.55457485130E+03  0.00000000000E+00 0. -1.
         22    1    5    5    0    0  0.26704357357E+03 -0.32939380527E+02 -0.15250475402E+03  0.30928138155E+03  0.00000000000E+00 0. -1.
          5    1    4    4  502    0 -0.20268044711E+02 -0.10894544135E+03  0.21153684509E+03  0.23885106166E+03  0.47000000000E+01 0.  1.
         -5    1    4    4    0  502 -0.59006543151E+00  0.33834326611E+02  0.38405627305E+02  0.51402257179E+02  0.47000000000E+01 0.  1.
<mgrwt>
<rscale>  0 0.99633319E+03</rscale>
<asrwt>0</asrwt>
<pdfrwt beam="1">  1        2 0.13358421E+00 0.99633319E+03</pdfrwt>
<pdfrwt beam="2">  1       -2 0.43971103E-01 0.99633319E+03</pdfrwt>
<totfact> 0.18287754E+02</totfact>
</mgrwt>
</event>
<event>
 9    1  0.4497870E-036  0.1000246E+04  0.7818608E-02  0.8680803E-01
          1   -1    0    0  501    0  0.00000000000E+00  0.00000000000E+00  0.22688878737E+03  0.22688878737E+03  0.00000000000E+00 0. -1.
         -1   -1    0    0    0  501 -0.00000000000E+00 -0.00000000000E+00 -0.11024043186E+04  0.11024043186E+04  0.00000000000E+00 0. -1.
         36    2    1    2    0    0  0.14210854715E-13  0.00000000000E+00 -0.87551553118E+03  0.13292931059E+04  0.10002463277E+04 0.  0.
         25    2    3    3    0    0  0.40368603309E+02 -0.74281374227E+02 -0.17264386776E+02  0.15286689273E+03  0.12618589918E+03 0.  0.
         35    2    3    3    0    0 -0.40368603309E+02  0.74281374227E+02 -0.85825114441E+03  0.11764262132E+04  0.80014764984E+03 0.  0.
         22    1    5    5    0    0 -0.19125421967E+03  0.27952943332E+03 -0.67105529400E+02  0.34527964422E+03  0.00000000000E+00 0.  1.
         22    1    5    5    0    0  0.15088561636E+03 -0.20524805910E+03 -0.79114561501E+03  0.83114656898E+03  0.00000000000E+00 0.  1.
          5    1    4    4  502    0  0.69174154993E+02 -0.74920749649E+02 -0.45944296810E+02  0.11194262305E+03  0.47000000000E+01 0. -1.
         -5    1    4    4    0  502 -0.28805551684E+02  0.63937542221E+00  0.28679910034E+02  0.40924269674E+02  0.47000000000E+01 0. -1.
<mgrwt>
<rscale>  0 0.10002463E+04</rscale>
<asrwt>0</asrwt>
<pdfrwt beam="1">  1        1 0.34905967E-01 0.10002463E+04</pdfrwt>
<pdfrwt beam="2">  1       -1 0.16960066E+00 0.10002463E+04</pdfrwt>
<totfact> 0.35428426E+01</totfact>
</mgrwt>
</event>
<event>
 9    1  0.4497870E-036  0.1000839E+04  0.7818608E-02  0.8680239E-01
          2   -1    0    0  501    0  0.00000000000E+00  0.00000000000E+00  0.25786762513E+04  0.25786762513E+04  0.00000000000E+00 0. -1.
         -2   -1    0    0    0  501 -0.00000000000E+00 -0.00000000000E+00 -0.97111727107E+02  0.97111727107E+02  0.00000000000E+00 0. -1.
         36    2    1    2    0    0 -0.14210854715E-13 -0.28421709430E-13  0.24815645242E+04  0.26757879784E+04  0.10008390568E+04 0.  0.
         25    2    3    3    0    0 -0.36260155979E+02  0.12929062285E+03  0.59370347773E+03  0.62109782159E+03  0.12348206524E+03 0.  0.
         35    2    3    3    0    0  0.36260155979E+02 -0.12929062285E+03  0.18878610465E+04  0.20546901568E+04  0.79981338181E+03 0.  0.
         22    1    5    5    0    0 -0.27067097433E+03 -0.16924318783E+03  0.16015473070E+04  0.16330522985E+04  0.00000000000E+00 0.  1.
         22    1    5    5    0    0  0.30693113030E+03  0.39952564974E+02  0.28631373948E+03  0.42163785837E+03  0.00000000000E+00 0.  1.
          5    1    4    4  502    0 -0.83889239158E+01 -0.22096075605E+01 -0.22789883146E+01  0.10126213398E+02  0.47000000000E+01 0. -1.
         -5    1    4    4    0  502 -0.27871232063E+02  0.13150023041E+03  0.59598246605E+03  0.61097160819E+03  0.47000000000E+01 0. -1.
<mgrwt>
<rscale>  0 0.10008391E+04</rscale>
<asrwt>0</asrwt>
<pdfrwt beam="1">  1        2 0.39671937E+00 0.10008391E+04</pdfrwt>
<pdfrwt beam="2">  1       -2 0.14940268E-01 0.10008391E+04</pdfrwt>
<totfact> 0.12546533E+02</totfact>
</mgrwt>
</event>
<event>
 9    1  0.4497870E-036  0.1000695E+04  0.7818608E-02  0.8680376E-01
         -2   -1    0    0    0  501 -0.00000000000E+00  0.00000000000E+00  0.51027212157E+03  0.51027212157E+03  0.00000000000E+00 0. -1.
          2   -1    0    0  501    0  0.00000000000E+00 -0.00000000000E+00 -0.49061612545E+03  0.49061612545E+03  0.00000000000E+00 0. -1.
         36    2    1    2    0    0  0.00000000000E+00  0.00000000000E+00  0.19655996117E+02  0.10008882470E+04  0.10006952208E+04 0.  0.
         25    2    3    3    0    0  0.11056142026E+03  0.20302146176E+01 -0.83873371936E+02  0.18676003944E+03  0.12496647706E+03 0.  0.
         35    2    3    3    0    0 -0.11056142026E+03 -0.20302146176E+01  0.10352936805E+03  0.81412820759E+03  0.79991153193E+03 0.  0.
         22    1    5    5    0    0  0.31483972698E+03 -0.42867539987E+02  0.20075491354E+03  0.37585132031E+03  0.00000000000E+00 0.  1.
         22    1    5    5    0    0 -0.42540114725E+03  0.40837325369E+02 -0.97225545482E+02  0.43827688727E+03  0.00000000000E+00 0.  1.
          5    1    4    4  502    0  0.12172699414E+03  0.21447851703E+02 -0.99753555003E+02  0.15890353420E+03  0.47000000000E+01 0.  1.
         -5    1    4    4    0  502 -0.11165573873E+02 -0.19417637086E+02  0.15880183067E+02  0.27856505239E+02  0.47000000000E+01 0.  1.
<mgrwt>
<rscale>  0 0.10006952E+04</rscale>
<asrwt>0</asrwt>
<pdfrwt beam="1">  1        2 0.75479403E-01 0.10006952E+04</pdfrwt>
<pdfrwt beam="2">  1       -2 0.78503404E-01 0.10006952E+04</pdfrwt>
<totfact> 0.10948906E+02</totfact>
</mgrwt>
</event>
<event>
 9    1  0.4497870E-036  0.1010770E+04  0.7818608E-02  0.8670849E-01
         -3   -1    0    0    0  501 -0.00000000000E+00  0.00000000000E+00  0.19143924382E+03  0.19143924382E+03  0.00000000000E+00 0.  1.
          3   -1    0    0  501    0  0.00000000000E+00 -0.00000000000E+00 -0.13341777113E+04  0.13341777113E+04  0.00000000000E+00 0.  1.
         36    2    1    2    0    0  0.00000000000E+00  0.71054273576E-14 -0.11427384674E+04  0.15256169551E+04  0.10107699484E+04 0.  0.
         25    2    3    3    0    0 -0.14155200892E+03 -0.49172726358E+02 -0.18600063865E+03  0.26918714511E+03  0.12413924950E+03 0.  0.
         35    2    3    3    0    0  0.14155200892E+03  0.49172726358E+02 -0.95673782879E+03  0.12564298100E+04  0.80050837978E+03 0.  0.
         22    1    5    5    0    0  0.44840079021E+03 -0.99079198057E+02 -0.43029633845E+03  0.62931303422E+03  0.00000000000E+00 0. -1.
         22    1    5    5    0    0 -0.30684878130E+03  0.14825192442E+03 -0.52644149034E+03  0.62711677575E+03  0.00000000000E+00 0. -1.
          5    1    4    4  502    0 -0.59885147148E+02  0.21631737500E+02 -0.13550831786E+03  0.14979571798E+03  0.47000000000E+01 0. -1.
         -5    1    4    4    0  502 -0.81666861769E+02 -0.70804463858E+02 -0.50492320797E+02  0.11939142713E+03  0.47000000000E+01 0. -1.
<mgrwt>
<rscale>  0 0.10107699E+04</rscale>
<asrwt>0</asrwt>
<pdfrwt beam="1">  1        3 0.20525810E+00 0.10107699E+04</pdfrwt>
<pdfrwt beam="2">  1       -3 0.29452193E-01 0.10107699E+04</pdfrwt>
<totfact> 0.61043764E+00</totfact>
</mgrwt>
</event>
<event>
 9    1  0.4497870E-036  0.1002324E+04  0.7818608E-02  0.8678828E-01
         -1   -1    0    0    0  501 -0.00000000000E+00  0.00000000000E+00  0.36822507686E+03  0.36822507686E+03  0.00000000000E+00 0.  1.
          1   -1    0    0  501    0  0.00000000000E+00 -0.00000000000E+00 -0.68209145196E+03  0.68209145196E+03  0.00000000000E+00 0.  1.
         36    2    1    2    0    0  0.00000000000E+00  0.00000000000E+00 -0.31386637510E+03  0.10503165288E+04  0.10023236550E+04 0.  0.
         25    2    3    3    0    0 -0.69950732951E+02  0.11593300431E+03 -0.12977202631E+02  0.18489559601E+03  0.12523740298E+03 0.  0.
         35    2    3    3    0    0  0.69950732951E+02 -0.11593300431E+03 -0.30088917246E+03  0.86542093281E+03  0.80005345466E+03 0.  0.
         22    1    5    5    0    0  0.18373848793E+03 -0.18255133285E+03 -0.53631684539E+03  0.59558423394E+03  0.00000000000E+00 0. -1.
         22    1    5    5    0    0 -0.11378775497E+03  0.66618328539E+02  0.23542767292E+03  0.26983669887E+03  0.00000000000E+00 0. -1.
          5    1    4    4  502    0 -0.50248800378E+02  0.55473036046E+02  0.54005345324E+02  0.92416811193E+02  0.47000000000E+01 0. -1.
         -5    1    4    4    0  502 -0.19701932573E+02  0.60459968269E+02 -0.66982547955E+02  0.92478784814E+02  0.47000000000E+01 0. -1.
<mgrwt>
<rscale>  0 0.10023237E+04</rscale>
<asrwt>0</asrwt>
<pdfrwt beam="1">  1        1 0.10493714E+00 0.10023237E+04</pdfrwt>
<pdfrwt beam="2">  1       -1 0.56650013E-01 0.10023237E+04</pdfrwt>
<totfact> 0.10299427E+02</totfact>
</mgrwt>
</event>
<event>
 9    1  0.4497870E-036  0.1000049E+04  0.7818608E-02  0.8680991E-01
          2   -1    0    0  501    0  0.00000000000E+00  0.00000000000E+00  0.36867104693E+03  0.36867104693E+03  0.00000000000E+00 0. -1.
         -2   -1    0    0    0  501 -0.00000000000E+00 -0.00000000000E+00 -0.67817767846E+03  0.67817767846E+03  0.00000000000E+00 0. -1.
         36    2    1    2    0    0  0.00000000000E+00  0.28421709430E-13 -0.30950663153E+03  0.10468487254E+04  0.10000489482E+04 0.  0.
         25    2    3    3    0    0 -0.74230550476E+02 -0.10800839985E+03 -0.69475813726E+01  0.18160262639E+03  0.12551994249E+03 0.  0.
         35    2    3    3    0    0  0.74230550476E+02  0.10800839985E+03 -0.30255905015E+03  0.86524609900E+03  0.79995802636E+03 0.  0.
         22    1    5    5    0    0 -0.85099902036E+02  0.18237352538E+03 -0.53626388452E+03  0.57278359781E+03  0.00000000000E+00 0. -1.
         22    1    5    5    0    0  0.15933045251E+03 -0.74365125538E+02  0.23370483436E+03  0.29246250118E+03  0.00000000000E+00 0. -1.
          5    1    4    4  502    0  0.85741425609E+01 -0.68461741150E+01  0.40674110927E+02  0.42389377448E+02  0.47000000000E+01 0.  1.
         -5    1    4    4    0  502 -0.82804693037E+02 -0.10116222573E+03 -0.47621692300E+02  0.13921324894E+03  0.47000000000E+01 0.  1.
<mgrwt>
<rscale>  0 0.10000489E+04</rscale>
<asrwt>0</asrwt>
<pdfrwt beam="1">  1        2 0.56718623E-01 0.10000489E+04</pdfrwt>
<pdfrwt beam="2">  1       -2 0.10433503E+00 0.10000489E+04</pdfrwt>
<totfact> 0.77045102E+01</totfact>
</mgrwt>
</event>
<event>
 9    1  0.4497870E-036  0.9992169E+03  0.7818608E-02  0.8681784E-01
          2   -1    0    0  501    0  0.00000000000E+00  0.00000000000E+00  0.17186679682E+04  0.17186679682E+04  0.00000000000E+00 0. -1.
         -2   -1    0    0    0  501 -0.00000000000E+00 -0.00000000000E+00 -0.14523374608E+03  0.14523374608E+03  0.00000000000E+00 0. -1.
         36    2    1    2    0    0  0.14210854715E-13 -0.14210854715E-13  0.15734342221E+04  0.18639017142E+04  0.99921686792E+03 0.  0.
         25    2    3    3    0    0 -0.53640532810E+02 -0.45913835764E+02  0.69731307091E+02  0.15920426462E+03  0.12449158851E+03 0.  0.
         35    2    3    3    0    0  0.53640532810E+02  0.45913835764E+02  0.15037029150E+04  0.17046974496E+04  0.79992846625E+03 0.  0.
         22    1    5    5    0    0 -0.23827634539E+03 -0.12503929247E+03  0.14734940197E+03  0.30679355876E+03  0.00000000000E+00 0. -1.
         22    1    5    5    0    0  0.29191687820E+03  0.17095312824E+03  0.13563535130E+04  0.13979038909E+04  0.00000000000E+00 0. -1.
          5    1    4    4  502    0 -0.93100640717E+02 -0.36777170753E+02  0.61584932830E+02  0.11762263193E+03  0.47000000000E+01 0.  1.
         -5    1    4    4    0  502  0.39460107907E+02 -0.91366650117E+01  0.81463742611E+01  0.41581632690E+02  0.47000000000E+01 0.  1.
<mgrwt>
<rscale>  0 0.99921687E+03</rscale>
<asrwt>0</asrwt>
<pdfrwt beam="1">  1        2 0.26441044E+00 0.99921687E+03</pdfrwt>
<pdfrwt beam="2">  1       -2 0.22343654E-01 0.99921687E+03</pdfrwt>
<totfact> 0.19941245E+02</totfact>
</mgrwt>
</event>
<event>
 9    1  0.4497870E-036  0.9991685E+03  0.7818608E-02  0.8681830E-01
         -4   -1    0    0    0  501 -0.00000000000E+00  0.00000000000E+00  0.38885339286E+03  0.38885339286E+03  0.00000000000E+00 0.  1.
          4   -1    0    0  501    0  0.00000000000E+00 -0.00000000000E+00 -0.64184706728E+03  0.64184706728E+03  0.00000000000E+00 0.  1.
         36    2    1    2    0    0  0.17763568394E-13 -0.14210854715E-13 -0.25299367442E+03  0.10307004601E+04  0.99916847390E+03 0.  0.
         25    2    3    3    0    0  0.14108059426E+02 -0.93413093528E+02 -0.15252224400E+03  0.21876335154E+03  0.12517717715E+03 0.  0.
         35    2    3    3    0    0 -0.14108059426E+02  0.93413093528E+02 -0.10047143042E+03  0.81193710860E+03  0.80013893581E+03 0.  0.
         22    1    5    5    0    0  0.25786287138E+03 -0.16227324201E+03  0.17192045192E+03  0.34983211301E+03  0.00000000000E+00 0. -1.
         22    1    5    5    0    0 -0.27197093080E+03  0.25568633554E+03 -0.27239188234E+03  0.46210499559E+03  0.00000000000E+00 0. -1.
          5    1    4    4  502    0 -0.48842106192E+01 -0.85175971272E+02 -0.24352961960E+02  0.88847950746E+02  0.47000000000E+01 0.  1.
         -5    1    4    4    0  502  0.18992270045E+02 -0.82371222560E+01 -0.12816928204E+03  0.12991540079E+03  0.47000000000E+01 0.  1.
<mgrwt>
<rscale>  0 0.99916847E+03</rscale>
<asrwt>0</asrwt>
<pdfrwt beam="1">  1        4 0.98745702E-01 0.99916847E+03</pdfrwt>
<pdfrwt beam="2">  1       -4 0.59823600E-01 0.99916847E+03</pdfrwt>
<totfact> 0.50410238E+00</totfact>
</mgrwt>
</event>
<event>
 9    1  0.4497870E-036  0.9986031E+03  0.7818608E-02  0.8682369E-01
          1   -1    0    0  501    0  0.00000000000E+00  0.00000000000E+00  0.98253190365E+03  0.98253190365E+03  0.00000000000E+00 0.  1.
         -1   -1    0    0    0  501 -0.00000000000E+00 -0.00000000000E+00 -0.25373427214E+03  0.25373427214E+03  0.00000000000E+00 0.  1.
         36    2    1    2    0    0  0.14210854715E-13 -0.14210854715E-13  0.72879763151E+03  0.12362661758E+04  0.99860305912E+03 0.  0.
         25    2    3    3    0    0  0.69862164778E+02 -0.87879642224E+02  0.33113553937E+02  0.17022281219E+03  0.12359508385E+03 0.  0.
         35    2    3    3    0    0 -0.69862164778E+02  0.87879642224E+02  0.69568407758E+03  0.10660433636E+04  0.79991784808E+03 0.  0.
         22    1    5    5    0    0 -0.16099075943E+03 -0.66852500702E+02 -0.13228168027E+03  0.21882807042E+03  0.00000000000E+00 0. -1.
         22    1    5    5    0    0  0.91128594649E+02  0.15473214293E+03  0.82796575784E+03  0.84721529317E+03  0.00000000000E+00 0. -1.
          5    1    4    4  502    0 -0.19807944700E+02 -0.53927976231E+01  0.43012694510E+02  0.47891740712E+02  0.47000000000E+01 0.  1.
         -5    1    4    4    0  502  0.89670109478E+02 -0.82486844601E+02 -0.98991405727E+01  0.12233107148E+03  0.47000000000E+01 0.  1.
<mgrwt>
<rscale>  0 0.99860306E+03</rscale>
<asrwt>0</asrwt>
<pdfrwt beam="1">  1        1 0.15115875E+00 0.99860306E+03</pdfrwt>
<pdfrwt beam="2">  1       -1 0.39036042E-01 0.99860306E+03</pdfrwt>
<totfact> 0.11147951E+02</totfact>
</mgrwt>
</event>
<event>
 9    1  0.4497870E-036  0.9993262E+03  0.7818608E-02  0.8681680E-01
         -4   -1    0    0    0  501 -0.00000000000E+00  0.00000000000E+00  0.13775070760E+03  0.13775070760E+03  0.00000000000E+00 0.  1.
          4   -1    0    0  501    0  0.00000000000E+00 -0.00000000000E+00 -0.18124278616E+04  0.18124278616E+04  0.00000000000E+00 0.  1.
         36    2    1    2    0    0 -0.71054273576E-14  0.14210854715E-13 -0.16746771540E+04  0.19501785692E+04  0.99932621382E+03 0.  0.
         25    2    3    3    0    0  0.41033362168E+02 -0.11996303381E+03 -0.42892924970E+03  0.46429312057E+03  0.12455093042E+03 0.  0.
         35    2    3    3    0    0 -0.41033362168E+02  0.11996303381E+03 -0.12457479043E+04  0.14858854486E+04  0.79993303412E+03 0.  0.
         22    1    5    5    0    0  0.32220788505E+02  0.11911885856E+00 -0.13244756112E+04  0.13248674795E+04  0.00000000000E+00 0. -1.
         22    1    5    5    0    0 -0.73254150673E+02  0.11984391495E+03  0.78727706959E+02  0.16101796913E+03  0.00000000000E+00 0. -1.
          5    1    4    4  502    0  0.78416976832E+02 -0.53117949414E+02 -0.29585032343E+03  0.31067707137E+03  0.47000000000E+01 0. -1.
         -5    1    4    4    0  502 -0.37383614664E+02 -0.66845084392E+02 -0.13307892628E+03  0.15361604920E+03  0.47000000000E+01 0. -1.
<mgrwt>
<rscale>  0 0.99932621E+03</rscale>
<asrwt>0</asrwt>
<pdfrwt beam="1">  1        4 0.27883505E+00 0.99932621E+03</pdfrwt>
<pdfrwt beam="2">  1       -4 0.21192417E-01 0.99932621E+03</pdfrwt>
<totfact> 0.13561030E+00</totfact>
</mgrwt>
</event>
<event>
 9    1  0.4497870E-036  0.1000467E+04  0.7818608E-02  0.8680594E-01
         -2   -1    0    0    0  501 -0.00000000000E+00  0.00000000000E+00  0.23100424070E+03  0.23100424070E+03  0.00000000000E+00 0. -1.
          2   -1    0    0  501    0  0.00000000000E+00 -0.00000000000E+00 -0.10832417072E+04  0.10832417072E+04  0.00000000000E+00 0. -1.
         36    2    1    2    0    0  0.42632564146E-13  0.00000000000E+00 -0.85223746649E+03  0.13142459479E+04  0.10004667472E+04 0.  0.
         25    2    3    3    0    0  0.32398519293E+01  0.71211601119E+02 -0.31899726153E+03  0.35020492126E+03  0.12570857267E+03 0.  0.
         35    2    3    3    0    0 -0.32398519293E+01 -0.71211601119E+02 -0.53324020497E+03  0.96404102662E+03  0.79996774687E+03 0.  0.
         22    1    5    5    0    0 -0.39497647880E+03 -0.10294470602E+03 -0.23810747320E+03  0.47254544765E+03  0.00000000000E+00 0. -1.
         22    1    5    5    0    0  0.39173662687E+03  0.31733104898E+02 -0.29513273177E+03  0.49149557897E+03  0.00000000000E+00 0. -1.
          5    1    4    4  502    0  0.10247082974E+02  0.41410261349E+02 -0.31620759819E+03  0.31910679655E+03  0.47000000000E+01 0.  1.
         -5    1    4    4    0  502 -0.70072310446E+01  0.29801339769E+02 -0.27896633374E+01  0.31098124710E+02  0.47000000000E+01 0.  1.
<mgrwt>
<rscale>  0 0.10004667E+04</rscale>
<asrwt>0</asrwt>
<pdfrwt beam="1">  1        2 0.16665257E+00 0.10004667E+04</pdfrwt>
<pdfrwt beam="2">  1       -2 0.35539113E-01 0.10004667E+04</pdfrwt>
<totfact> 0.20039189E+02</totfact>
</mgrwt>
</event>
<event>
 9    1  0.4497870E-036  0.1000937E+04  0.7818608E-02  0.8680146E-01
          2   -1    0    0  501    0  0.00000000000E+00  0.00000000000E+00  0.14855711802E+04  0.14855711802E+04  0.00000000000E+00 0.  1.
         -2   -1    0    0    0  501 -0.00000000000E+00 -0.00000000000E+00 -0.16860095275E+03  0.16860095275E+03  0.00000000000E+00 0.  1.
         36    2    1    2    0    0  0.14210854715E-13  0.00000000000E+00  0.13169702275E+04  0.16541721330E+04  0.10009369937E+04 0.  0.
         25    2    3    3    0    0  0.12754688596E+03 -0.32211677375E+02  0.33177114327E+03  0.37816645700E+03  0.12502790654E+03 0.  0.
         35    2    3    3    0    0 -0.12754688596E+03  0.32211677375E+02  0.98519908423E+03  0.12760056760E+04  0.80016713836E+03 0.  0.
         22    1    5    5    0    0 -0.29603790448E+03 -0.21243165571E+03  0.89379019831E+03  0.96520804381E+03  0.00000000000E+00 0. -1.
         22    1    5    5    0    0  0.16849101852E+03  0.24464333308E+03  0.91408885918E+02  0.31079763218E+03  0.00000000000E+00 0. -1.
          5    1    4    4  502    0  0.15135312480E+03 -0.26444978880E+02  0.30518699443E+03  0.34171376452E+03  0.47000000000E+01 0. -1.
         -5    1    4    4    0  502 -0.23806238841E+02 -0.57666984945E+01  0.26584148843E+02  0.36452692479E+02  0.47000000000E+01 0. -1.
<mgrwt>
<rscale>  0 0.10009370E+04</rscale>
<asrwt>0</asrwt>
<pdfrwt beam="1">  1        2 0.22854940E+00 0.10009370E+04</pdfrwt>
<pdfrwt beam="2">  1       -2 0.25938609E-01 0.10009370E+04</pdfrwt>
<totfact> 0.20741557E+02</totfact>
</mgrwt>
</event>
<event>
 9    1  0.4497870E-036  0.9988135E+03  0.7818608E-02  0.8682169E-01
         -1   -1    0    0    0  501 -0.00000000000E+00  0.00000000000E+00  0.15128371342E+03  0.15128371342E+03  0.00000000000E+00 0. -1.
          1   -1    0    0  501    0  0.00000000000E+00 -0.00000000000E+00 -0.16486052139E+04  0.16486052139E+04  0.00000000000E+00 0. -1.
         36    2    1    2    0    0  0.21316282073E-13  0.00000000000E+00 -0.14973215004E+04  0.17998889273E+04  0.99881353359E+03 0.  0.
         25    2    3    3    0    0  0.14051678369E+02  0.13409812234E+03 -0.29186191775E+03  0.34498436108E+03  0.12510425365E+03 0.  0.
         35    2    3    3    0    0 -0.14051678369E+02 -0.13409812234E+03 -0.12054595827E+04  0.14549045662E+04  0.80338952891E+03 0.  0.
         22    1    5    5    0    0  0.28053773066E+03 -0.34514831518E+03 -0.76083724513E+03  0.88130703581E+03  0.00000000000E+00 0.  1.
         22    1    5    5    0    0 -0.29458940903E+03  0.21105019284E+03 -0.44462233757E+03  0.57359753040E+03  0.00000000000E+00 0.  1.
          5    1    4    4  502    0  0.58333874951E+02  0.12504061779E+03 -0.20904846631E+03  0.25052215138E+03  0.47000000000E+01 0.  1.
         -5    1    4    4    0  502 -0.44282196582E+02  0.90575045427E+01 -0.82813451443E+02  0.94462209706E+02  0.47000000000E+01 0.  1.
<mgrwt>
<rscale>  0 0.99881353E+03</rscale>
<asrwt>0</asrwt>
<pdfrwt beam="1">  1        1 0.25363157E+00 0.99881353E+03</pdfrwt>
<pdfrwt beam="2">  1       -1 0.23274417E-01 0.99881353E+03</pdfrwt>
<totfact> 0.87418422E+01</totfact>
</mgrwt>
</event>
<event>
 9    1  0.4497870E-036  0.9937936E+03  0.7818608E-02  0.8686971E-01
         -1   -1    0    0    0  501 -0.00000000000E+00  0.00000000000E+00  0.72576012719E+03  0.72576012719E+03  0.00000000000E+00 0.  1.
          1   -1    0    0  501    0  0.00000000000E+00 -0.00000000000E+00 -0.34020393273E+03  0.34020393273E+03  0.00000000000E+00 0.  1.
         36    2    1    2    0    0  0.00000000000E+00  0.00000000000E+00  0.38555619446E+03  0.10659640599E+04  0.99379363952E+03 0.  0.
         25    2    3    3    0    0 -0.54029153336E+02  0.30184643329E+02 -0.56813868008E+02  0.15062104916E+03  0.12501449016E+03 0.  0.
         35    2    3    3    0    0  0.54029153336E+02 -0.30184643329E+02  0.44237006247E+03  0.91534301075E+03  0.79895637744E+03 0.  0.
         22    1    5    5    0    0 -0.93302693611E+02  0.16223496025E+03  0.59848576158E+03  0.62706521334E+03  0.00000000000E+00 0.  1.
         22    1    5    5    0    0  0.14733184695E+03 -0.19241960358E+03 -0.15611569912E+03  0.28827779741E+03  0.00000000000E+00 0.  1.
          5    1    4    4  502    0  0.29993433982E+02  0.44680608597E+02 -0.19493859951E+02  0.57428768422E+02  0.47000000000E+01 0.  1.
         -5    1    4    4    0  502 -0.84022587318E+02 -0.14495965268E+02 -0.37320008057E+02  0.93192280743E+02  0.47000000000E+01 0.  1.
<mgrwt>
<rscale>  0 0.99379364E+03</rscale>
<asrwt>0</asrwt>
<pdfrwt beam="1">  1        1 0.52339067E-01 0.99379364E+03</pdfrwt>
<pdfrwt beam="2">  1       -1 0.11165540E+00 0.99379364E+03</pdfrwt>
<totfact> 0.65924209E+01</totfact>
</mgrwt>
</event>
<event>
 9    1  0.4497870E-036  0.9997820E+03  0.7818608E-02  0.8681246E-01
         -2   -1    0    0    0  501 -0.00000000000E+00  0.00000000000E+00  0.25433189091E+03  0.25433189091E+03  0.00000000000E+00 0. -1.
          2   -1    0    0  501    0  0.00000000000E+00 -0.00000000000E+00 -0.98253906993E+03  0.98253906993E+03  0.00000000000E+00 0. -1.
         36    2    1    2    0    0  0.35527136788E-13  0.28421709430E-13 -0.72820717902E+03  0.12368709608E+04  0.99978201534E+03 0.  0.
         25    2    3    3    0    0  0.25620732456E+02 -0.12498434686E+03 -0.20830707358E+03  0.27418534279E+03  0.12453215010E+03 0.  0.
         35    2    3    3    0    0 -0.25620732456E+02  0.12498434686E+03 -0.51990010544E+03  0.96268561805E+03  0.80011872286E+03 0.  0.
         22    1    5    5    0    0 -0.30459848466E+03 -0.16428077560E+03 -0.58800295389E+02  0.35103544668E+03  0.00000000000E+00 0. -1.
         22    1    5    5    0    0  0.27897775221E+03  0.28926512247E+03 -0.46109981006E+03  0.61165017137E+03  0.00000000000E+00 0. -1.
          5    1    4    4  502    0 -0.15576528037E+02 -0.68613968994E+02 -0.18880018001E+03  0.20153933347E+03  0.47000000000E+01 0.  1.
         -5    1    4    4    0  502  0.41197260492E+02 -0.56370377868E+02 -0.19506893571E+02  0.72646009318E+02  0.47000000000E+01 0.  1.
<mgrwt>
<rscale>  0 0.99978202E+03</rscale>
<asrwt>0</asrwt>
<pdfrwt beam="1">  1        2 0.15115986E+00 0.99978202E+03</pdfrwt>
<pdfrwt beam="2">  1       -2 0.39127983E-01 0.99978202E+03</pdfrwt>
<totfact> 0.19297367E+02</totfact>
</mgrwt>
</event>
<event>
 9    1  0.4497870E-036  0.1001007E+04  0.7818608E-02  0.8680080E-01
          1   -1    0    0  501    0  0.00000000000E+00  0.00000000000E+00  0.17117015655E+04  0.17117015655E+04  0.00000000000E+00 0.  1.
         -1   -1    0    0    0  501 -0.00000000000E+00 -0.00000000000E+00 -0.14634778859E+03  0.14634778859E+03  0.00000000000E+00 0.  1.
         36    2    1    2    0    0  0.00000000000E+00  0.14210854715E-13  0.15653537769E+04  0.18580493541E+04  0.10010069707E+04 0.  0.
         25    2    3    3    0    0 -0.80763186841E+02 -0.43581297513E+02  0.95453954591E+02  0.18198575276E+03  0.12484123886E+03 0.  0.
         35    2    3    3    0    0  0.80763186841E+02  0.43581297513E+02  0.14698998223E+04  0.16760636013E+04  0.80010104748E+03 0.  0.
         22    1    5    5    0    0  0.23455812836E+03  0.36608056488E+03  0.65366882606E+03  0.78505759644E+03  0.00000000000E+00 0. -1.
         22    1    5    5    0    0 -0.15379494152E+03 -0.32249926737E+03  0.81623099622E+03  0.89100600485E+03  0.00000000000E+00 0. -1.
          5    1    4    4  502    0 -0.63831024147E+02 -0.37030364182E+02  0.12602752000E+03  0.14611869597E+03  0.47000000000E+01 0.  1.
         -5    1    4    4    0  502 -0.16932162693E+02 -0.65509333310E+01 -0.30573565410E+02  0.35867056791E+02  0.47000000000E+01 0.  1.
<mgrwt>
<rscale>  0 0.10010070E+04</rscale>
<asrwt>0</asrwt>
<pdfrwt beam="1">  1        1 0.26333869E+00 0.10010070E+04</pdfrwt>
<pdfrwt beam="2">  1       -1 0.22515046E-01 0.10010070E+04</pdfrwt>
<totfact> 0.83378213E+01</totfact>
</mgrwt>
</event>
<event>
 9    1  0.4497870E-036  0.9998550E+03  0.7818608E-02  0.8681176E-01
          1   -1    0    0  501    0  0.00000000000E+00  0.00000000000E+00  0.11399266729E+04  0.11399266729E+04  0.00000000000E+00 0.  1.
         -1   -1    0    0    0  501 -0.00000000000E+00 -0.00000000000E+00 -0.21924875247E+03  0.21924875247E+03  0.00000000000E+00 0.  1.
         36    2    1    2    0    0  0.35527136788E-14  0.00000000000E+00  0.92067792040E+03  0.13591754253E+04  0.99985499135E+03 0.  0.
         25    2    3    3    0    0  0.10762739768E+02  0.32037257361E+02 -0.11878335607E+02  0.12967957419E+03  0.12463336102E+03 0.  0.
         35    2    3    3    0    0 -0.10762739768E+02 -0.32037257361E+02  0.93255625601E+03  0.12294958511E+04  0.80053523030E+03 0.  0.
         22    1    5    5    0    0 -0.34194797302E+03  0.19932884573E+03  0.42458639294E+03  0.58046017096E+03  0.00000000000E+00 0.  1.
         22    1    5    5    0    0  0.33118523325E+03 -0.23136610309E+03  0.50796986306E+03  0.64903568019E+03  0.00000000000E+00 0.  1.
          5    1    4    4  502    0  0.27763446904E+02 -0.36094008349E+02 -0.32733038356E+02  0.56277244271E+02  0.47000000000E+01 0. -1.
         -5    1    4    4    0  502 -0.17000707136E+02  0.68131265710E+02  0.20854702749E+02  0.73402329916E+02  0.47000000000E+01 0. -1.
<mgrwt>
<rscale>  0 0.99985499E+03</rscale>
<asrwt>0</asrwt>
<pdfrwt beam="1">  1        1 0.17537333E+00 0.99985499E+03</pdfrwt>
<pdfrwt beam="2">  1       -1 0.33730578E-01 0.99985499E+03</pdfrwt>
<totfact> 0.10864973E+02</totfact>
</mgrwt>
</event>
<event>
 9    1  0.4497870E-036  0.9995584E+03  0.7818608E-02  0.8681459E-01
          1   -1    0    0  501    0  0.00000000000E+00  0.00000000000E+00  0.92463164502E+03  0.92463164502E+03  0.00000000000E+00 0.  1.
         -1   -1    0    0    0  501 -0.00000000000E+00 -0.00000000000E+00 -0.27013917220E+03  0.27013917220E+03  0.00000000000E+00 0.  1.
         36    2    1    2    0    0  0.14210854715E-13  0.00000000000E+00  0.65449247282E+03  0.11947708172E+04  0.99955835682E+03 0.  0.
         25    2    3    3    0    0  0.29440946393E+02 -0.98202348907E+02  0.23410157705E+03  0.28454133750E+03  0.12509897567E+03 0.  0.
         35    2    3    3    0    0 -0.29440946393E+02  0.98202348907E+02  0.42039089577E+03  0.91022947972E+03  0.80079880735E+03 0.  0.
         22    1    5    5    0    0  0.25156712703E+03 -0.23658407400E+03  0.29849236162E+03  0.45646000199E+03  0.00000000000E+00 0. -1.
         22    1    5    5    0    0 -0.28100807342E+03  0.33478642290E+03  0.12189853415E+03  0.45376947773E+03  0.00000000000E+00 0. -1.
          5    1    4    4  502    0  0.77111160993E+02 -0.55728943373E+02  0.11503828436E+03  0.14935776896E+03  0.47000000000E+01 0. -1.
         -5    1    4    4    0  502 -0.47670214600E+02 -0.42473405534E+02  0.11906329269E+03  0.13518356854E+03  0.47000000000E+01 0. -1.
<mgrwt>
<rscale>  0 0.99955836E+03</rscale>
<asrwt>0</asrwt>
<pdfrwt beam="1">  1        1 0.14225102E+00 0.99955836E+03</pdfrwt>
<pdfrwt beam="2">  1       -1 0.41559873E-01 0.99955836E+03</pdfrwt>
<totfact> 0.11107809E+02</totfact>
</mgrwt>
</event>
<event>
 9    1  0.4497870E-036  0.1001509E+04  0.7818608E-02  0.8679602E-01
          2   -1    0    0  501    0  0.00000000000E+00  0.00000000000E+00  0.82805077850E+03  0.82805077850E+03  0.00000000000E+00 0.  1.
         -2   -1    0    0    0  501 -0.00000000000E+00 -0.00000000000E+00 -0.30282572793E+03  0.30282572793E+03  0.00000000000E+00 0.  1.
         36    2    1    2    0    0  0.28421709430E-13 -0.28421709430E-13  0.52522505057E+03  0.11308765064E+04  0.10015090209E+04 0.  0.
         25    2    3    3    0    0 -0.45659579953E+02 -0.13323505224E+03  0.12490884074E+03  0.22497678143E+03  0.12319073545E+03 0.  0.
         35    2    3    3    0    0  0.45659579953E+02  0.13323505224E+03  0.40031620983E+03  0.90589972500E+03  0.80035296433E+03 0.  0.
         22    1    5    5    0    0  0.26004606457E+03 -0.23862709810E+03  0.30440669157E+03  0.46607969438E+03  0.00000000000E+00 0. -1.
         22    1    5    5    0    0 -0.21438648462E+03  0.37186215033E+03  0.95909518259E+02  0.43982003061E+03  0.00000000000E+00 0. -1.
          5    1    4    4  502    0 -0.63909603417E+02 -0.12971628240E+02  0.43048212188E+02  0.78281154314E+02  0.47000000000E+01 0.  1.
         -5    1    4    4    0  502  0.18250023464E+02 -0.12026342400E+03  0.81860628553E+02  0.14669562712E+03  0.47000000000E+01 0.  1.
<mgrwt>
<rscale>  0 0.10015090E+04</rscale>
<asrwt>0</asrwt>
<pdfrwt beam="1">  1        2 0.12739243E+00 0.10015090E+04</pdfrwt>
<pdfrwt beam="2">  1       -2 0.46588574E-01 0.10015090E+04</pdfrwt>
<totfact> 0.17386687E+02</totfact>
</mgrwt>
</event>
<event>
 9    1  0.4497870E-036  0.9873528E+03  0.7818608E-02  0.8693176E-01
          1   -1    0    0  501    0  0.00000000000E+00  0.00000000000E+00  0.65621368593E+03  0.65621368593E+03  0.00000000000E+00 0. -1.
         -1   -1    0    0    0  501 -0.00000000000E+00 -0.00000000000E+00 -0.37139792998E+03  0.37139792998E+03  0.00000000000E+00 0. -1.
         36    2    1    2    0    0  0.00000000000E+00 -0.14210854715E-13  0.28481575595E+03  0.10276116159E+04  0.98735283375E+03 0.  0.
         25    2    3    3    0    0  0.91233292244E+02  0.77472462248E+02  0.11688283209E+02  0.17425435443E+03  0.12610498822E+03 0.  0.
         35    2    3    3    0    0 -0.91233292244E+02 -0.77472462248E+02  0.27312747275E+03  0.85335726148E+03  0.79955894300E+03 0.  0.
         22    1    5    5    0    0 -0.20146283387E+03  0.31802589626E+02 -0.24134292946E+03  0.31598273329E+03  0.00000000000E+00 0. -1.
         22    1    5    5    0    0  0.11022954162E+03 -0.10927505187E+03  0.51447040220E+03  0.53737452819E+03  0.00000000000E+00 0. -1.
          5    1    4    4  502    0  0.75129726074E+02 -0.13327574643E+02  0.26141492381E+02  0.80793363649E+02  0.47000000000E+01 0. -1.
         -5    1    4    4    0  502  0.16103566170E+02  0.90800036891E+02 -0.14453209172E+02  0.93460990783E+02  0.47000000000E+01 0. -1.
<mgrwt>
<rscale>  0 0.98735283E+03</rscale>
<asrwt>0</asrwt>
<pdfrwt beam="1">  1        1 0.10095595E+00 0.98735283E+03</pdfrwt>
<pdfrwt beam="2">  1       -1 0.57138143E-01 0.98735283E+03</pdfrwt>
<totfact> 0.10757860E+02</totfact>
</mgrwt>
</event>
<event>
 9    1  0.4497870E-036  0.1000011E+04  0.7818608E-02  0.8681027E-01
         -1   -1    0    0    0  501 -0.00000000000E+00  0.00000000000E+00  0.44875820840E+03  0.44875820840E+03  0.00000000000E+00 0. -1.
          1   -1    0    0  501    0  0.00000000000E+00 -0.00000000000E+00 -0.55710523268E+03  0.55710523268E+03  0.00000000000E+00 0. -1.
         36    2    1    2    0    0  0.00000000000E+00  0.71054273576E-14 -0.10834702428E+03  0.10058634411E+04  0.10000110922E+04 0.  0.
         25    2    3    3    0    0 -0.11127221145E+03  0.56069147427E+02  0.46565841214E+02  0.18243469243E+03  0.12485505636E+03 0.  0.
         35    2    3    3    0    0  0.11127221145E+03 -0.56069147427E+02 -0.15491286549E+03  0.82342874866E+03  0.79906924224E+03 0.  0.
         22    1    5    5    0    0  0.34240136218E+03 -0.25579667553E+03 -0.26013938816E+03  0.50034301565E+03  0.00000000000E+00 0. -1.
         22    1    5    5    0    0 -0.23112915073E+03  0.19972752811E+03  0.10522652267E+03  0.32308573301E+03  0.00000000000E+00 0. -1.
          5    1    4    4  502    0 -0.92954982170E+02  0.21010196273E+02  0.84481104321E+02  0.12744098260E+03  0.47000000000E+01 0.  1.
         -5    1    4    4    0  502 -0.18317229278E+02  0.35058951154E+02 -0.37915263107E+02  0.54993709830E+02  0.47000000000E+01 0.  1.
<mgrwt>
<rscale>  0 0.10000111E+04</rscale>
<asrwt>0</asrwt>
<pdfrwt beam="1">  1        1 0.85708497E-01 0.10000111E+04</pdfrwt>
<pdfrwt beam="2">  1       -1 0.69039725E-01 0.10000111E+04</pdfrwt>
<totfact> 0.94671099E+01</totfact>
</mgrwt>
</event>
<event>
 9    1  0.4497870E-036  0.9991361E+03  0.7818608E-02  0.8681861E-01
          1   -1    0    0  501    0  0.00000000000E+00  0.00000000000E+00  0.80819263076E+03  0.80819263076E+03  0.00000000000E+00 0. -1.
         -1   -1    0    0    0  501 -0.00000000000E+00 -0.00000000000E+00 -0.30879798704E+03  0.30879798704E+03  0.00000000000E+00 0. -1.
         36    2    1    2    0    0  0.00000000000E+00  0.00000000000E+00  0.49939464372E+03  0.11169906178E+04  0.99913614192E+03 0.  0.
         25    2    3    3    0    0 -0.66411547660E+02 -0.19862614245E+02  0.22424529369E+03  0.26591474457E+03  0.12497872831E+03 0.  0.
         35    2    3    3    0    0  0.66411547660E+02  0.19862614245E+02  0.27514935003E+03  0.85107587323E+03  0.80238267683E+03 0.  0.
         22    1    5    5    0    0  0.17078761421E+01  0.40682181318E+02 -0.28445712424E+03  0.28735659423E+03  0.00000000000E+00 0. -1.
         22    1    5    5    0    0  0.64703671518E+02 -0.20819567073E+02  0.55960647427E+03  0.56371927900E+03  0.00000000000E+00 0. -1.
          5    1    4    4  502    0 -0.46950076885E+02  0.41788435511E+02  0.51451693251E+02  0.81363073937E+02  0.47000000000E+01 0.  1.
         -5    1    4    4    0  502 -0.19461470775E+02 -0.61651049757E+02  0.17279360044E+03  0.18455167063E+03  0.47000000000E+01 0.  1.
<mgrwt>
<rscale>  0 0.99913614E+03</rscale>
<asrwt>0</asrwt>
<pdfrwt beam="1">  1        1 0.12433733E+00 0.99913614E+03</pdfrwt>
<pdfrwt beam="2">  1       -1 0.47507383E-01 0.99913614E+03</pdfrwt>
<totfact> 0.10946330E+02</totfact>
</mgrwt>
</event>
<event>
 9    1  0.4497870E-036  0.9998106E+03  0.7818608E-02  0.8681218E-01
         -2   -1    0    0    0  501 -0.00000000000E+00  0.00000000000E+00  0.11648964310E+03  0.11648964310E+03  0.00000000000E+00 0.  1.
          2   -1    0    0  501    0  0.00000000000E+00 -0.00000000000E+00 -0.21453006589E+04  0.21453006589E+04  0.00000000000E+00 0.  1.
         36    2    1    2    0    0  0.28421709430E-13 -0.71054273576E-14 -0.20288110158E+04  0.22617903020E+04  0.99981059825E+03 0.  0.
         25    2    3    3    0    0 -0.13754234168E+03  0.24692831537E+01 -0.31072400748E+03  0.36128455886E+03  0.12269119988E+03 0.  0.
         35    2    3    3    0    0  0.13754234168E+03 -0.24692831537E+01 -0.17180870083E+04  0.19005057431E+04  0.80073411220E+03 0.  0.
         22    1    5    5    0    0  0.36558619139E+03 -0.23536301884E+03 -0.12974125926E+04  0.13683305337E+04  0.00000000000E+00 0. -1.
         22    1    5    5    0    0 -0.22804384972E+03  0.23289373568E+03 -0.42067441566E+03  0.53217520940E+03  0.00000000000E+00 0. -1.
          5    1    4    4  502    0 -0.10360330686E+03  0.38328863783E+02 -0.28439633730E+03  0.30513294424E+03  0.47000000000E+01 0. -1.
         -5    1    4    4    0  502 -0.33939034814E+02 -0.35859580629E+02 -0.26327670190E+02  0.56151614622E+02  0.47000000000E+01 0. -1.
<mgrwt>
<rscale>  0 0.99981060E+03</rscale>
<asrwt>0</asrwt>
<pdfrwt beam="1">  1        2 0.33004623E+00 0.99981060E+03</pdfrwt>
<pdfrwt beam="2">  1       -2 0.17921485E-01 0.99981060E+03</pdfrwt>
<totfact> 0.16710611E+02</totfact>
</mgrwt>
</event>
<event>
 9    1  0.4497870E-036  0.1000790E+04  0.7818608E-02  0.8680286E-01
          2   -1    0    0  501    0  0.00000000000E+00  0.00000000000E+00  0.35775440712E+03  0.35775440712E+03  0.00000000000E+00 0. -1.
         -2   -1    0    0    0  501 -0.00000000000E+00 -0.00000000000E+00 -0.69990818978E+03  0.69990818978E+03  0.00000000000E+00 0. -1.
         36    2    1    2    0    0  0.28421709430E-13  0.56843418861E-13 -0.34215378266E+03  0.10576625969E+04  0.10007901668E+04 0.  0.
         25    2    3    3    0    0  0.86575523193E+02  0.90473103969E+02  0.36733817228E+01  0.17757253972E+03  0.12584835864E+03 0.  0.
         35    2    3    3    0    0 -0.86575523193E+02 -0.90473103969E+02 -0.34582716439E+03  0.88009005718E+03  0.79955073470E+03 0.  0.
         22    1    5    5    0    0  0.24191026699E+03  0.19746966752E+03 -0.31284226323E+03  0.44202390040E+03  0.00000000000E+00 0.  1.
         22    1    5    5    0    0 -0.32848579018E+03 -0.28794277149E+03 -0.32984901159E+02  0.43806615677E+03  0.00000000000E+00 0.  1.
          5    1    4    4  502    0  0.98165585027E+02  0.10890017612E+03 -0.16383515851E+02  0.14760162613E+03  0.47000000000E+01 0.  1.
         -5    1    4    4    0  502 -0.11590061834E+02 -0.18427072154E+02  0.20056897573E+02  0.29970913596E+02  0.47000000000E+01 0.  1.
<mgrwt>
<rscale>  0 0.10007902E+04</rscale>
<asrwt>0</asrwt>
<pdfrwt beam="1">  1        2 0.55039141E-01 0.10007902E+04</pdfrwt>
<pdfrwt beam="2">  1       -2 0.10767818E+00 0.10007902E+04</pdfrwt>
<totfact> 0.73661257E+01</totfact>
</mgrwt>
</event>
<event>
 9    1  0.4497870E-036  0.1000998E+04  0.7818608E-02  0.8680088E-01
          1   -1    0    0  501    0  0.00000000000E+00  0.00000000000E+00  0.37293932201E+03  0.37293932201E+03  0.00000000000E+00 0.  1.
         -1   -1    0    0    0  501 -0.00000000000E+00 -0.00000000000E+00 -0.67168891161E+03  0.67168891161E+03  0.00000000000E+00 0.  1.
         36    2    1    2    0    0  0.00000000000E+00  0.00000000000E+00 -0.29874958960E+03  0.10446282336E+04  0.10009979167E+04 0.  0.
         25    2    3    3    0    0 -0.56615583007E+01 -0.19072567717E+02  0.89235919873E+02  0.15530927201E+03  0.12554722018E+03 0.  0.
         35    2    3    3    0    0  0.56615583007E+01  0.19072567717E+02 -0.38798550947E+03  0.88931896160E+03  0.79997477699E+03 0.  0.
         22    1    5    5    0    0  0.38417838031E+02 -0.14591349332E+03 -0.60000123293E+03  0.61868259821E+03  0.00000000000E+00 0. -1.
         22    1    5    5    0    0 -0.32756279731E+02  0.16498606104E+03  0.21201572345E+03  0.27063636339E+03  0.00000000000E+00 0. -1.
          5    1    4    4  502    0 -0.63038253375E+02  0.32170874496E+01  0.59164759099E+02  0.86641385951E+02  0.47000000000E+01 0. -1.
         -5    1    4    4    0  502  0.57376695075E+02 -0.22289655167E+02  0.30071160774E+02  0.68667886056E+02  0.47000000000E+01 0. -1.
<mgrwt>
<rscale>  0 0.10009979E+04</rscale>
<asrwt>0</asrwt>
<pdfrwt beam="1">  1        1 0.57375281E-01 0.10009979E+04</pdfrwt>
<pdfrwt beam="2">  1       -1 0.10333675E+00 0.10009979E+04</pdfrwt>
<totfact> 0.69816229E+01</totfact>
</mgrwt>
</event>
<event>
 9    1  0.4497870E-036  0.1000157E+04  0.7818608E-02  0.8680888E-01
          2   -1    0    0  501    0  0.00000000000E+00  0.00000000000E+00  0.23126978229E+04  0.23126978229E+04  0.00000000000E+00 0.  1.
         -2   -1    0    0    0  501 -0.00000000000E+00 -0.00000000000E+00 -0.10813281850E+03  0.10813281850E+03  0.00000000000E+00 0.  1.
         36    2    1    2    0    0  0.28421709430E-13  0.14210854715E-13  0.22045650044E+04  0.24208306414E+04  0.10001570555E+04 0.  0.
         25    2    3    3    0    0  0.37843527573E+02  0.75424346146E+02  0.69931741024E+03  0.71453333223E+03  0.11996698725E+03 0.  0.
         35    2    3    3    0    0 -0.37843527573E+02 -0.75424346146E+02  0.15052475941E+04  0.17062973091E+04  0.79909900701E+03 0.  0.
         22    1    5    5    0    0  0.25767455395E+03 -0.30205460498E+03  0.10204770384E+04  0.10949915735E+04  0.00000000000E+00 0. -1.
         22    1    5    5    0    0 -0.29551808152E+03  0.22663025883E+03  0.48477055569E+03  0.61130573560E+03  0.00000000000E+00 0. -1.
          5    1    4    4  502    0  0.63105294152E+01  0.99165958295E+02  0.38217580055E+03  0.39491029689E+03  0.47000000000E+01 0. -1.
         -5    1    4    4    0  502  0.31532998158E+02 -0.23741612149E+02  0.31714160969E+03  0.31962303534E+03  0.47000000000E+01 0. -1.
<mgrwt>
<rscale>  0 0.10001571E+04</rscale>
<asrwt>0</asrwt>
<pdfrwt beam="1">  1        2 0.35579963E+00 0.10001571E+04</pdfrwt>
<pdfrwt beam="2">  1       -2 0.16635820E-01 0.10001571E+04</pdfrwt>
<totfact> 0.15145028E+02</totfact>
</mgrwt>
</event>
<event>
 9    1  0.4497870E-036  0.9998391E+03  0.7818608E-02  0.8681191E-01
         -2   -1    0    0    0  501 -0.00000000000E+00  0.00000000000E+00  0.14839677751E+03  0.14839677751E+03  0.00000000000E+00 0. -1.
          2   -1    0    0  501    0  0.00000000000E+00 -0.00000000000E+00 -0.16841306794E+04  0.16841306794E+04  0.00000000000E+00 0. -1.
         36    2    1    2    0    0  0.21316282073E-13  0.00000000000E+00 -0.15357339019E+04  0.18325274569E+04  0.99983911851E+03 0.  0.
         25    2    3    3    0    0 -0.21945389059E+02  0.14200053181E+03 -0.21871921816E+03  0.28962544617E+03  0.12409291494E+03 0.  0.
         35    2    3    3    0    0  0.21945389059E+02 -0.14200053181E+03 -0.13170146837E+04  0.15429020107E+04  0.79080540366E+03 0.  0.
         22    1    5    5    0    0 -0.23779772352E+03  0.40659228116E+02 -0.63042393354E+02  0.24934970123E+03  0.00000000000E+00 0.  1.
         22    1    5    5    0    0  0.25974311258E+03 -0.18265975993E+03 -0.12539722903E+04  0.12935523095E+04  0.00000000000E+00 0.  1.
          5    1    4    4  502    0 -0.16330458155E+02 -0.14529501673E+01 -0.10511706981E+03  0.10649170528E+03  0.47000000000E+01 0. -1.
         -5    1    4    4    0  502 -0.56149309042E+01  0.14345348198E+03 -0.11360214835E+03  0.18313374089E+03  0.47000000000E+01 0. -1.
<mgrwt>
<rscale>  0 0.99983912E+03</rscale>
<asrwt>0</asrwt>
<pdfrwt beam="1">  1        2 0.25909703E+00 0.99983912E+03</pdfrwt>
<pdfrwt beam="2">  1       -2 0.22830273E-01 0.99983912E+03</pdfrwt>
<totfact> 0.20081737E+02</totfact>
</mgrwt>
</event>
<event>
 9    1  0.4497870E-036  0.9999730E+03  0.7818608E-02  0.8681064E-01
         -1   -1    0    0    0  501 -0.00000000000E+00  0.00000000000E+00  0.38310830772E+03  0.38310830772E+03  0.00000000000E+00 0. -1.
          1   -1    0    0  501    0  0.00000000000E+00 -0.00000000000E+00 -0.65252169048E+03  0.65252169048E+03  0.00000000000E+00 0. -1.
         36    2    1    2    0    0 -0.14210854715E-13  0.28421709430E-13 -0.26941338276E+03  0.10356299982E+04  0.99997296082E+03 0.  0.
         25    2    3    3    0    0 -0.81982780325E+02  0.10520378943E+03 -0.51078825553E+01  0.18276328054E+03  0.12484915967E+03 0.  0.
         35    2    3    3    0    0  0.81982780325E+02 -0.10520378943E+03 -0.26430550021E+03  0.85286671767E+03  0.79983449981E+03 0.  0.
         22    1    5    5    0    0 -0.15185954950E+03  0.22632787275E+03  0.11653141194E+03  0.29642064490E+03  0.00000000000E+00 0.  1.
         22    1    5    5    0    0  0.23384232982E+03 -0.33153166218E+03 -0.38083691214E+03  0.55644607276E+03  0.00000000000E+00 0.  1.
          5    1    4    4  502    0 -0.52675777327E+02  0.73521564088E+02 -0.63056844688E+02  0.11035584971E+03  0.47000000000E+01 0.  1.
         -5    1    4    4    0  502 -0.29307002998E+02  0.31682225344E+02  0.57948962133E+02  0.72407430832E+02  0.47000000000E+01 0.  1.
<mgrwt>
<rscale>  0 0.99997296E+03</rscale>
<asrwt>0</asrwt>
<pdfrwt beam="1">  1        1 0.10038795E+00 0.99997296E+03</pdfrwt>
<pdfrwt beam="2">  1       -1 0.58939740E-01 0.99997296E+03</pdfrwt>
<totfact> 0.10214127E+02</totfact>
</mgrwt>
</event>
<event>
 9    1  0.4497870E-036  0.1001611E+04  0.7818608E-02  0.8679506E-01
         -1   -1    0    0    0  501 -0.00000000000E+00  0.00000000000E+00  0.52255417476E+03  0.52255417476E+03  0.00000000000E+00 0. -1.
          1   -1    0    0  501    0  0.00000000000E+00 -0.00000000000E+00 -0.47996169354E+03  0.47996169354E+03  0.00000000000E+00 0. -1.
         36    2    1    2    0    0  0.28421709430E-13  0.14210854715E-13  0.42592481218E+02  0.10025158683E+04  0.10016106762E+04 0.  0.
         25    2    3    3    0    0  0.10611653708E+03  0.85097993177E+02 -0.29898798111E+02  0.18744323114E+03  0.12545373206E+03 0.  0.
         35    2    3    3    0    0 -0.10611653708E+03 -0.85097993177E+02  0.72491279329E+02  0.81507263716E+03  0.80036618518E+03 0.  0.
         22    1    5    5    0    0 -0.31316674948E+03 -0.22276120659E+03  0.29258634881E+03  0.48301422303E+03  0.00000000000E+00 0. -1.
         22    1    5    5    0    0  0.20705021240E+03  0.13766321341E+03 -0.22009506948E+03  0.33205841413E+03  0.00000000000E+00 0. -1.
          5    1    4    4  502    0  0.49881507763E+02 -0.20292475642E+02  0.20356797265E+02  0.57761912877E+02  0.47000000000E+01 0. -1.
         -5    1    4    4    0  502  0.56235029313E+02  0.10539046882E+03 -0.50255595376E+02  0.12968131826E+03  0.47000000000E+01 0. -1.
<mgrwt>
<rscale>  0 0.10016107E+04</rscale>
<asrwt>0</asrwt>
<pdfrwt beam="1">  1        1 0.73840261E-01 0.10016107E+04</pdfrwt>
<pdfrwt beam="2">  1       -1 0.80392950E-01 0.10016107E+04</pdfrwt>
<totfact> 0.85637921E+01</totfact>
</mgrwt>
</event>
<event>
 9    1  0.4497870E-036  0.1000047E+04  0.7818608E-02  0.8680993E-01
          2   -1    0    0  501    0  0.00000000000E+00  0.00000000000E+00  0.31279772182E+04  0.31279772182E+04  0.00000000000E+00 0.  1.
         -2   -1    0    0    0  501 -0.00000000000E+00 -0.00000000000E+00 -0.79931334536E+02  0.79931334536E+02  0.00000000000E+00 0.  1.
         36    2    1    2    0    0  0.28421709430E-13  0.21316282073E-13  0.30480458837E+04  0.32079085527E+04  0.10000467858E+04 0.  0.
         25    2    3    3    0    0  0.93716679009E+02 -0.30304095075E+02  0.24845181298E+03  0.29525605028E+03  0.12548576712E+03 0.  0.
         35    2    3    3    0    0 -0.93716679009E+02  0.30304095075E+02  0.27995940707E+04  0.29126525025E+04  0.79756911008E+03 0.  0.
         22    1    5    5    0    0 -0.30777637189E+03  0.24174977503E+03  0.80058169219E+03  0.89112305250E+03  0.00000000000E+00 0.  1.
         22    1    5    5    0    0  0.21405969288E+03 -0.21144567996E+03  0.19990123785E+04  0.20215294500E+04  0.00000000000E+00 0.  1.
          5    1    4    4  502    0  0.11232537779E+02  0.31605358900E+02  0.98443309622E+01  0.35271368959E+02  0.47000000000E+01 0. -1.
         -5    1    4    4    0  502  0.82484141230E+02 -0.61909453975E+02  0.23860748201E+03  0.25998468132E+03  0.47000000000E+01 0. -1.
<mgrwt>
<rscale>  0 0.10000468E+04</rscale>
<asrwt>0</asrwt>
<pdfrwt beam="1">  1        2 0.48122717E+00 0.10000468E+04</pdfrwt>
<pdfrwt beam="2">  1       -2 0.12297131E-01 0.10000468E+04</pdfrwt>
<totfact> 0.76260735E+01</totfact>
</mgrwt>
</event>
<event>
 9    1  0.4497870E-036  0.9994688E+03  0.7818608E-02  0.8681544E-01
         -2   -1    0    0    0  501 -0.00000000000E+00  0.00000000000E+00  0.15155256254E+03  0.15155256254E+03  0.00000000000E+00 0.  1.
          2   -1    0    0  501    0  0.00000000000E+00 -0.00000000000E+00 -0.16478404910E+04  0.16478404910E+04  0.00000000000E+00 0.  1.
         36    2    1    2    0    0 -0.14210854715E-13  0.28421709430E-13 -0.14962879285E+04  0.17993930535E+04  0.99946875704E+03 0.  0.
         25    2    3    3    0    0  0.85915855818E+02  0.47736174419E+02 -0.45455191899E+03  0.48192068507E+03  0.12637176508E+03 0.  0.
         35    2    3    3    0    0 -0.85915855818E+02 -0.47736174419E+02 -0.10417360095E+04  0.13174723685E+04  0.80053685215E+03 0.  0.
         22    1    5    5    0    0 -0.28121271454E+03  0.29445056621E+03 -0.60532757029E+03  0.72952257958E+03  0.00000000000E+00 0. -1.
         22    1    5    5    0    0  0.19529685872E+03 -0.34218674063E+03 -0.43640843917E+03  0.58794978890E+03  0.00000000000E+00 0. -1.
          5    1    4    4  502    0  0.80700024010E+01 -0.74066264329E+01  0.47215794066E+01  0.12820544683E+02  0.47000000000E+01 0.  1.
         -5    1    4    4    0  502  0.77845853417E+02  0.55142800852E+02 -0.45927349840E+03  0.46910014038E+03  0.47000000000E+01 0.  1.
<mgrwt>
<rscale>  0 0.99946876E+03</rscale>
<asrwt>0</asrwt>
<pdfrwt beam="1">  1        2 0.25351393E+00 0.99946876E+03</pdfrwt>
<pdfrwt beam="2">  1       -2 0.23315778E-01 0.99946876E+03</pdfrwt>
<totfact> 0.20286005E+02</totfact>
</mgrwt>
</event>
<event>
 9    1  0.4497870E-036  0.1001648E+04  0.7818608E-02  0.8679470E-01
         -2   -1    0    0    0  501 -0.00000000000E+00  0.00000000000E+00  0.22853448507E+03  0.22853448507E+03  0.00000000000E+00 0.  1.
          2   -1    0    0  501    0  0.00000000000E+00 -0.00000000000E+00 -0.10975351455E+04  0.10975351455E+04  0.00000000000E+00 0.  1.
         36    2    1    2    0    0  0.00000000000E+00  0.00000000000E+00 -0.86900066040E+03  0.13260696305E+04  0.10016479008E+04 0.  0.
         25    2    3    3    0    0  0.57211639622E+02  0.87234294012E+02 -0.36248744648E+02  0.16607720829E+03  0.12403497034E+03 0.  0.
         35    2    3    3    0    0 -0.57211639622E+02 -0.87234294012E+02 -0.83275191575E+03  0.11599924222E+04  0.80076443022E+03 0.  0.
         22    1    5    5    0    0  0.92870010233E+02  0.17513638474E+03  0.68238397885E+02  0.20965226211E+03  0.00000000000E+00 0.  1.
         22    1    5    5    0    0 -0.15008164985E+03 -0.26237067876E+03 -0.90099031364E+03  0.95034016013E+03  0.00000000000E+00 0.  1.
          5    1    4    4  502    0  0.62854578600E+02  0.78268584546E+02  0.25151901011E+02  0.10359236218E+03  0.47000000000E+01 0.  1.
         -5    1    4    4    0  502 -0.56429389782E+01  0.89657094659E+01 -0.61400645659E+02  0.62484846113E+02  0.47000000000E+01 0.  1.
<mgrwt>
<rscale>  0 0.10016479E+04</rscale>
<asrwt>0</asrwt>
<pdfrwt beam="1">  1        2 0.16885156E+00 0.10016479E+04</pdfrwt>
<pdfrwt beam="2">  1       -2 0.35159152E-01 0.10016479E+04</pdfrwt>
<totfact> 0.20040444E+02</totfact>
</mgrwt>
</event>
<event>
 9    1  0.4497870E-036  0.1001176E+04  0.7818608E-02  0.8679919E-01
         -1   -1    0    0    0  501 -0.00000000000E+00  0.00000000000E+00  0.17481654319E+03  0.17481654319E+03  0.00000000000E+00 0. -1.
          1   -1    0    0  501    0  0.00000000000E+00 -0.00000000000E+00 -0.14334370269E+04  0.14334370269E+04  0.00000000000E+00 0. -1.
         36    2    1    2    0    0  0.00000000000E+00  0.00000000000E+00 -0.12586204837E+04  0.16082535700E+04  0.10011763200E+04 0.  0.
         25    2    3    3    0    0  0.89409500907E+01 -0.76501441353E+02 -0.48668526615E+02  0.15441186172E+03  0.12466750354E+03 0.  0.
         35    2    3    3    0    0 -0.89409500907E+01  0.76501441353E+02 -0.12099519570E+04  0.14538417083E+04  0.80233382289E+03 0.  0.
         22    1    5    5    0    0  0.34571342281E+03  0.58242618515E+02 -0.25079746695E+03  0.43105607843E+03  0.00000000000E+00 0. -1.
         22    1    5    5    0    0 -0.35465437290E+03  0.18258822837E+02 -0.95915449010E+03  0.10227856299E+04  0.00000000000E+00 0. -1.
          5    1    4    4  502    0 -0.55580512833E+02 -0.24535535054E+02 -0.63559055983E+01  0.61267229603E+02  0.47000000000E+01 0.  1.
         -5    1    4    4    0  502  0.64521462924E+02 -0.51965906299E+02 -0.42312621017E+02  0.93144632119E+02  0.47000000000E+01 0.  1.
<mgrwt>
<rscale>  0 0.10011763E+04</rscale>
<asrwt>0</asrwt>
<pdfrwt beam="1">  1        1 0.22052877E+00 0.10011763E+04</pdfrwt>
<pdfrwt beam="2">  1       -1 0.26894853E-01 0.10011763E+04</pdfrwt>
<totfact> 0.97478894E+01</totfact>
</mgrwt>
</event>
<event>
 9    1  0.4497870E-036  0.9999263E+03  0.7818608E-02  0.8681108E-01
         -2   -1    0    0    0  501 -0.00000000000E+00  0.00000000000E+00  0.23905367346E+03  0.23905367346E+03  0.00000000000E+00 0.  1.
          2   -1    0    0  501    0  0.00000000000E+00 -0.00000000000E+00 -0.10456361824E+04  0.10456361824E+04  0.00000000000E+00 0.  1.
         36    2    1    2    0    0  0.28421709430E-13  0.35527136788E-14 -0.80658250890E+03  0.12846898558E+04  0.99992633827E+03 0.  0.
         25    2    3    3    0    0 -0.11276472068E+03  0.23429254727E+02 -0.48397818006E+02  0.17636332524E+03  0.12448639080E+03 0.  0.
         35    2    3    3    0    0  0.11276472068E+03 -0.23429254727E+02 -0.75818469090E+03  0.11083265306E+04  0.80017426893E+03 0.  0.
         22    1    5    5    0    0  0.35815048400E+03 -0.33387086158E+02 -0.78281969710E+03  0.86150632318E+03  0.00000000000E+00 0. -1.
         22    1    5    5    0    0 -0.24538576332E+03  0.99578314308E+01  0.24635006206E+02  0.24682020739E+03  0.00000000000E+00 0. -1.
          5    1    4    4  502    0  0.22383312371E+02  0.10335227269E+02  0.11834186958E+02  0.27748289611E+02  0.47000000000E+01 0.  1.
         -5    1    4    4    0  502 -0.13514803305E+03  0.13094027458E+02 -0.60232004964E+02  0.14861503563E+03  0.47000000000E+01 0.  1.
<mgrwt>
<rscale>  0 0.99992634E+03</rscale>
<asrwt>0</asrwt>
<pdfrwt beam="1">  1        2 0.16086711E+00 0.99992634E+03</pdfrwt>
<pdfrwt beam="2">  1       -2 0.36777488E-01 0.99992634E+03</pdfrwt>
<totfact> 0.19817066E+02</totfact>
</mgrwt>
</event>
<event>
 9    1  0.4497870E-036  0.9994864E+03  0.7818608E-02  0.8681527E-01
         -2   -1    0    0    0  501 -0.00000000000E+00  0.00000000000E+00  0.16859040947E+03  0.16859040947E+03  0.00000000000E+00 0.  1.
          2   -1    0    0  501    0  0.00000000000E+00 -0.00000000000E+00 -0.14813610845E+04  0.14813610845E+04  0.00000000000E+00 0.  1.
         36    2    1    2    0    0  0.21316282073E-13  0.71054273576E-14 -0.13127706750E+04  0.16499514939E+04  0.99948641172E+03 0.  0.
         25    2    3    3    0    0 -0.51739477665E+02  0.24813685037E+02 -0.45346157239E+03  0.47378825309E+03  0.12472056213E+03 0.  0.
         35    2    3    3    0    0  0.51739477665E+02 -0.24813685037E+02 -0.85930910262E+03  0.11761632409E+04  0.80103379628E+03 0.  0.
         22    1    5    5    0    0 -0.35431568575E+03 -0.12428843810E+03 -0.49740099665E+03  0.62321342451E+03  0.00000000000E+00 0. -1.
         22    1    5    5    0    0  0.40605516342E+03  0.99474753063E+02 -0.36190810596E+03  0.55294981635E+03  0.00000000000E+00 0. -1.
          5    1    4    4  502    0  0.27171013839E+02 -0.38830376778E+01 -0.27607814653E+03  0.27747896311E+03  0.47000000000E+01 0.  1.
         -5    1    4    4    0  502 -0.78910491505E+02  0.28696722715E+02 -0.17738342586E+03  0.19630928998E+03  0.47000000000E+01 0.  1.
<mgrwt>
<rscale>  0 0.99948641E+03</rscale>
<asrwt>0</asrwt>
<pdfrwt beam="1">  1        2 0.22790170E+00 0.99948641E+03</pdfrwt>
<pdfrwt beam="2">  1       -2 0.25936987E-01 0.99948641E+03</pdfrwt>
<totfact> 0.20858226E+02</totfact>
</mgrwt>
</event>
<event>
 9    1  0.4497870E-036  0.9997977E+03  0.7818608E-02  0.8681231E-01
         -2   -1    0    0    0  501 -0.00000000000E+00  0.00000000000E+00  0.12500809112E+04  0.12500809112E+04  0.00000000000E+00 0. -1.
          2   -1    0    0  501    0  0.00000000000E+00 -0.00000000000E+00 -0.19990614439E+03  0.19990614439E+03  0.00000000000E+00 0. -1.
         36    2    1    2    0    0  0.28421709430E-13  0.28421709430E-13  0.10501747668E+04  0.14499870556E+04  0.99979768981E+03 0.  0.
         25    2    3    3    0    0  0.39745910495E+02 -0.11969076731E+03  0.10847094413E+03  0.20804063963E+03  0.12493736364E+03 0.  0.
         35    2    3    3    0    0 -0.39745910495E+02  0.11969076731E+03  0.94170382267E+03  0.12419464160E+04  0.79982447656E+03 0.  0.
         22    1    5    5    0    0 -0.39217426117E+03 -0.83834755278E+02  0.50758821219E+03  0.64689621306E+03  0.00000000000E+00 0.  1.
         22    1    5    5    0    0  0.35242835068E+03  0.20352552259E+03  0.43411561049E+03  0.59505020290E+03  0.00000000000E+00 0.  1.
          5    1    4    4  502    0 -0.63331771799E+01  0.19221592087E+02  0.42762504442E+02  0.47542617952E+02  0.47000000000E+01 0. -1.
         -5    1    4    4    0  502  0.46079087675E+02 -0.13891235940E+03  0.65708439688E+02  0.16049802167E+03  0.47000000000E+01 0. -1.
<mgrwt>
<rscale>  0 0.99979769E+03</rscale>
<asrwt>0</asrwt>
<pdfrwt beam="1">  1        2 0.30754792E-01 0.99979769E+03</pdfrwt>
<pdfrwt beam="2">  1       -2 0.19232014E+00 0.99979769E+03</pdfrwt>
<totfact> 0.28331777E+01</totfact>
</mgrwt>
</event>
<event>
 9    1  0.4497870E-036  0.1000138E+04  0.7818608E-02  0.8680907E-01
         -1   -1    0    0    0  501 -0.00000000000E+00  0.00000000000E+00  0.11929545676E+03  0.11929545676E+03  0.00000000000E+00 0.  1.
          1   -1    0    0  501    0  0.00000000000E+00 -0.00000000000E+00 -0.20962138932E+04  0.20962138932E+04  0.00000000000E+00 0.  1.
         36    2    1    2    0    0 -0.21316282073E-13 -0.56843418861E-13 -0.19769184364E+04  0.22155093499E+04  0.10001375782E+04 0.  0.
         25    2    3    3    0    0  0.53227684227E+02 -0.11712380111E+03 -0.49848675307E+03  0.52984829792E+03  0.12529566898E+03 0.  0.
         35    2    3    3    0    0 -0.53227684227E+02  0.11712380111E+03 -0.14784316833E+04  0.16856610520E+04  0.79946342555E+03 0.  0.
         22    1    5    5    0    0 -0.25846906070E+03 -0.14484767134E+03 -0.18318611446E+03  0.34834502403E+03  0.00000000000E+00 0.  1.
         22    1    5    5    0    0  0.20524137647E+03  0.26197147245E+03 -0.12952455689E+04  0.13373160280E+04  0.00000000000E+00 0.  1.
          5    1    4    4  502    0 -0.24088123767E+02 -0.47959244771E+02 -0.31002123926E+03  0.31466742071E+03  0.47000000000E+01 0. -1.
         -5    1    4    4    0  502  0.77315807994E+02 -0.69164556335E+02 -0.18846551382E+03  0.21518087721E+03  0.47000000000E+01 0. -1.
<mgrwt>
<rscale>  0 0.10001376E+04</rscale>
<asrwt>0</asrwt>
<pdfrwt beam="1">  1        1 0.32249445E+00 0.10001376E+04</pdfrwt>
<pdfrwt beam="2">  1       -1 0.18353147E-01 0.10001376E+04</pdfrwt>
<totfact> 0.62822309E+01</totfact>
</mgrwt>
</event>
<event>
 9    1  0.4497870E-036  0.9999733E+03  0.7818608E-02  0.8681063E-01
          2   -1    0    0  501    0  0.00000000000E+00  0.00000000000E+00  0.11356842604E+04  0.11356842604E+04  0.00000000000E+00 0. -1.
         -2   -1    0    0    0  501 -0.00000000000E+00 -0.00000000000E+00 -0.22011984296E+03  0.22011984296E+03  0.00000000000E+00 0. -1.
         36    2    1    2    0    0  0.14210854715E-13 -0.14210854715E-13  0.91556441744E+03  0.13558041034E+04  0.99997328176E+03 0.  0.
         25    2    3    3    0    0 -0.89056542221E+02 -0.91919153346E+02  0.94778250411E+02  0.20223425557E+03  0.12464180243E+03 0.  0.
         35    2    3    3    0    0  0.89056542221E+02  0.91919153346E+02  0.82078616703E+03  0.11535698478E+04  0.80040818542E+03 0.  0.
         22    1    5    5    0    0  0.30729346836E+03 -0.15801488264E+03  0.73297903627E+03  0.81034328926E+03  0.00000000000E+00 0. -1.
         22    1    5    5    0    0 -0.21823692614E+03  0.24993403598E+03  0.87807130756E+02  0.34322655854E+03  0.00000000000E+00 0. -1.
          5    1    4    4  502    0 -0.11398717181E+03 -0.99678347420E+02  0.74385803166E+02  0.16877258662E+03  0.47000000000E+01 0.  1.
         -5    1    4    4    0  502  0.24930629591E+02  0.77591940735E+01  0.20392447245E+02  0.33461668953E+02  0.47000000000E+01 0.  1.
<mgrwt>
<rscale>  0 0.99997328E+03</rscale>
<asrwt>0</asrwt>
<pdfrwt beam="1">  1        2 0.17472065E+00 0.99997328E+03</pdfrwt>
<pdfrwt beam="2">  1       -2 0.33864592E-01 0.99997328E+03</pdfrwt>
<totfact> 0.20381244E+02</totfact>
</mgrwt>
</event>
<event>
 9    1  0.4497870E-036  0.9990216E+03  0.7818608E-02  0.8681970E-01
          1   -1    0    0  501    0  0.00000000000E+00  0.00000000000E+00  0.62830592656E+03  0.62830592656E+03  0.00000000000E+00 0. -1.
         -1   -1    0    0    0  501 -0.00000000000E+00 -0.00000000000E+00 -0.39711709530E+03  0.39711709530E+03  0.00000000000E+00 0. -1.
         36    2    1    2    0    0  0.00000000000E+00  0.00000000000E+00  0.23118883125E+03  0.10254230219E+04  0.99902157036E+03 0.  0.
         25    2    3    3    0    0 -0.52526856502E+02 -0.99672702246E+02 -0.38581347326E+02  0.17275975982E+03  0.12515468838E+03 0.  0.
         35    2    3    3    0    0  0.52526856502E+02  0.99672702246E+02  0.26977017858E+03  0.85266326204E+03  0.80097750964E+03 0.  0.
         22    1    5    5    0    0 -0.35519375934E+02 -0.14962301234E+03 -0.23616042690E+03  0.28181628612E+03  0.00000000000E+00 0.  1.
         22    1    5    5    0    0  0.88046232435E+02  0.24929571459E+03  0.50593060548E+03  0.57084697592E+03  0.00000000000E+00 0.  1.
          5    1    4    4  502    0 -0.18472120887E+01 -0.11380342218E+03 -0.14949463061E+02  0.11489215612E+03  0.47000000000E+01 0.  1.
         -5    1    4    4    0  502 -0.50679644413E+02  0.14130719934E+02 -0.23631884265E+02  0.57867603697E+02  0.47000000000E+01 0.  1.
<mgrwt>
<rscale>  0 0.99902157E+03</rscale>
<asrwt>0</asrwt>
<pdfrwt beam="1">  1        1 0.96662450E-01 0.99902157E+03</pdfrwt>
<pdfrwt beam="2">  1       -1 0.61094938E-01 0.99902157E+03</pdfrwt>
<totfact> 0.10088001E+02</totfact>
</mgrwt>
</event>
<event>
 9    1  0.4497870E-036  0.1000089E+04  0.7818608E-02  0.8680953E-01
          2   -1    0    0  501    0  0.00000000000E+00  0.00000000000E+00  0.29958804476E+03  0.29958804476E+03  0.00000000000E+00 0.  1.
         -2   -1    0    0    0  501 -0.00000000000E+00 -0.00000000000E+00 -0.83462760510E+03  0.83462760510E+03  0.00000000000E+00 0.  1.
         36    2    1    2    0    0 -0.14210854715E-13  0.00000000000E+00 -0.53503956034E+03  0.11342156499E+04  0.10000889007E+04 0.  0.
         25    2    3    3    0    0  0.10992197565E+03 -0.86184441373E+02 -0.11568964849E+03  0.22025888734E+03  0.12497713398E+03 0.  0.
         35    2    3    3    0    0 -0.10992197565E+03  0.86184441373E+02 -0.41934991185E+03  0.91395676253E+03  0.79997000977E+03 0.  0.
         22    1    5    5    0    0  0.34375178765E+03 -0.14667383018E+02 -0.21909261233E+03  0.40789949304E+03  0.00000000000E+00 0. -1.
         22    1    5    5    0    0 -0.45367376330E+03  0.10085182439E+03 -0.20025729952E+03  0.50605726949E+03  0.00000000000E+00 0. -1.
          5    1    4    4  502    0  0.82531679487E+02 -0.10740654440E+03 -0.47483905225E+02  0.14361216924E+03  0.47000000000E+01 0. -1.
         -5    1    4    4    0  502  0.27390296161E+02  0.21222103027E+02 -0.68205743264E+02  0.76646718096E+02  0.47000000000E+01 0. -1.
<mgrwt>
<rscale>  0 0.10000889E+04</rscale>
<asrwt>0</asrwt>
<pdfrwt beam="1">  1        2 0.46090469E-01 0.10000889E+04</pdfrwt>
<pdfrwt beam="2">  1       -2 0.12840425E+00 0.10000889E+04</pdfrwt>
<totfact> 0.56985012E+01</totfact>
</mgrwt>
</event>
<event>
 9    1  0.4497870E-036  0.1001361E+04  0.7818608E-02  0.8679743E-01
          2   -1    0    0  501    0  0.00000000000E+00  0.00000000000E+00  0.90395817060E+03  0.90395817060E+03  0.00000000000E+00 0. -1.
         -2   -1    0    0    0  501 -0.00000000000E+00 -0.00000000000E+00 -0.27731491035E+03  0.27731491035E+03  0.00000000000E+00 0. -1.
         36    2    1    2    0    0  0.28421709430E-13  0.28421709430E-13  0.62664326025E+03  0.11812730810E+04  0.10013612316E+04 0.  0.
         25    2    3    3    0    0 -0.11694465177E+03 -0.90124382324E+01  0.23669066615E+03  0.29171122281E+03  0.12375657741E+03 0.  0.
         35    2    3    3    0    0  0.11694465177E+03  0.90124382324E+01  0.38995259410E+03  0.88956185815E+03  0.79088557845E+03 0.  0.
         22    1    5    5    0    0  0.11495222975E+03 -0.35068246797E+03  0.38002061506E+03  0.52972433995E+03  0.00000000000E+00 0.  1.
         22    1    5    5    0    0  0.19924220260E+01  0.35969490620E+03  0.99319790450E+01  0.35983751820E+03  0.00000000000E+00 0.  1.
          5    1    4    4  502    0  0.82086643174E+01  0.35541232413E+02  0.40272624461E+02  0.54539303738E+02  0.47000000000E+01 0.  1.
         -5    1    4    4    0  502 -0.12515331609E+03 -0.44553670645E+02  0.19641804169E+03  0.23717191907E+03  0.47000000000E+01 0.  1.
<mgrwt>
<rscale>  0 0.10013612E+04</rscale>
<asrwt>0</asrwt>
<pdfrwt beam="1">  1        2 0.13907049E+00 0.10013612E+04</pdfrwt>
<pdfrwt beam="2">  1       -2 0.42663833E-01 0.10013612E+04</pdfrwt>
<totfact> 0.18362441E+02</totfact>
</mgrwt>
</event>
<event>
 9    1  0.4497870E-036  0.9995125E+03  0.7818608E-02  0.8681502E-01
         -2   -1    0    0    0  501 -0.00000000000E+00  0.00000000000E+00  0.45653748967E+03  0.45653748967E+03  0.00000000000E+00 0.  1.
          2   -1    0    0  501    0  0.00000000000E+00 -0.00000000000E+00 -0.54706634391E+03  0.54706634391E+03  0.00000000000E+00 0.  1.
         36    2    1    2    0    0 -0.14210854715E-13  0.00000000000E+00 -0.90528854247E+02  0.10036038336E+04  0.99951247182E+03 0.  0.
         25    2    3    3    0    0  0.40566201765E+02 -0.22924684299E+02  0.11453286544E+03  0.17564079607E+03  0.12474275170E+03 0.  0.
         35    2    3    3    0    0 -0.40566201765E+02  0.22924684299E+02 -0.20506171968E+03  0.82796303751E+03  0.80081291494E+03 0.  0.
         22    1    5    5    0    0 -0.39145048751E+03 -0.11948218783E+03 -0.18388388321E+03  0.44869004879E+03  0.00000000000E+00 0. -1.
         22    1    5    5    0    0  0.35088428574E+03  0.14240687213E+03 -0.21177836470E+02  0.37927298872E+03  0.00000000000E+00 0. -1.
          5    1    4    4  502    0  0.47899360021E+02  0.23578563333E+02  0.11655402620E+03  0.12828572938E+03  0.47000000000E+01 0. -1.
         -5    1    4    4    0  502 -0.73331582561E+01 -0.46503247631E+02 -0.20211607631E+01  0.47355066689E+02  0.47000000000E+01 0. -1.
<mgrwt>
<rscale>  0 0.99951247E+03</rscale>
<asrwt>0</asrwt>
<pdfrwt beam="1">  1        2 0.84164053E-01 0.99951247E+03</pdfrwt>
<pdfrwt beam="2">  1       -2 0.70236537E-01 0.99951247E+03</pdfrwt>
<totfact> 0.12364385E+02</totfact>
</mgrwt>
</event>
<event>
 9    1  0.4497870E-036  0.1000383E+04  0.7818608E-02  0.8680673E-01
          1   -1    0    0  501    0  0.00000000000E+00  0.00000000000E+00  0.57578009862E+03  0.57578009862E+03  0.00000000000E+00 0.  1.
         -1   -1    0    0    0  501 -0.00000000000E+00 -0.00000000000E+00 -0.43452655850E+03  0.43452655850E+03  0.00000000000E+00 0.  1.
         36    2    1    2    0    0  0.00000000000E+00  0.71054273576E-14  0.14125354012E+03  0.10103066571E+04  0.10003834159E+04 0.  0.
         25    2    3    3    0    0  0.12876420638E+03 -0.41871371578E+02  0.65087010253E+02  0.19546749923E+03  0.12505115654E+03 0.  0.
         35    2    3    3    0    0 -0.12876420638E+03  0.41871371578E+02  0.76166529870E+02  0.81483915789E+03  0.79989254300E+03 0.  0.
         22    1    5    5    0    0  0.32343757959E+03  0.12397694093E+03  0.78808007937E+02  0.35523633244E+03  0.00000000000E+00 0.  1.
         22    1    5    5    0    0 -0.45220178597E+03 -0.82105569349E+02 -0.26414780668E+01  0.45960282545E+03  0.00000000000E+00 0.  1.
          5    1    4    4  502    0  0.10453989173E+03  0.94283494418E+01 -0.49837347151E+01  0.10518750091E+03  0.47000000000E+01 0.  1.
         -5    1    4    4    0  502  0.24224314649E+02 -0.51299721020E+02  0.70070744969E+02  0.90279998324E+02  0.47000000000E+01 0.  1.
<mgrwt>
<rscale>  0 0.10003834E+04</rscale>
<asrwt>0</asrwt>
<pdfrwt beam="1">  1        1 0.88581553E-01 0.10003834E+04</pdfrwt>
<pdfrwt beam="2">  1       -1 0.66850240E-01 0.10003834E+04</pdfrwt>
<totfact> 0.96211248E+01</totfact>
</mgrwt>
</event>
<event>
 9    1  0.4497870E-036  0.1001409E+04  0.7818608E-02  0.8679697E-01
          2   -1    0    0  501    0  0.00000000000E+00  0.00000000000E+00  0.15554347426E+04  0.15554347426E+04  0.00000000000E+00 0. -1.
         -2   -1    0    0    0  501 -0.00000000000E+00 -0.00000000000E+00 -0.16118004336E+03  0.16118004336E+03  0.00000000000E+00 0. -1.
         36    2    1    2    0    0 -0.71054273576E-14  0.14210854715E-13  0.13942546992E+04  0.17166147859E+04  0.10014090857E+04 0.  0.
         25    2    3    3    0    0 -0.45669355090E+02  0.48380066433E+02  0.51810629659E+02  0.15243883912E+03  0.12699187968E+03 0.  0.
         35    2    3    3    0    0  0.45669355090E+02 -0.48380066433E+02  0.13424440695E+04  0.15641759468E+04  0.80003999393E+03 0.  0.
         22    1    5    5    0    0 -0.35943348567E+03 -0.13074149029E+03  0.54307402292E+03  0.66424028957E+03  0.00000000000E+00 0. -1.
         22    1    5    5    0    0  0.40510284076E+03  0.82361423860E+02  0.79937004662E+03  0.89993565724E+03  0.00000000000E+00 0. -1.
          5    1    4    4  502    0 -0.74221815062E+02 -0.85900201538E+01  0.46922744729E+02  0.88354401419E+02  0.47000000000E+01 0. -1.
         -5    1    4    4    0  502  0.28552459972E+02  0.56970086587E+02  0.48878849308E+01  0.64084437699E+02  0.47000000000E+01 0. -1.
<mgrwt>
<rscale>  0 0.10014091E+04</rscale>
<asrwt>0</asrwt>
<pdfrwt beam="1">  1        2 0.23929764E+00 0.10014091E+04</pdfrwt>
<pdfrwt beam="2">  1       -2 0.24796931E-01 0.10014091E+04</pdfrwt>
<totfact> 0.20514758E+02</totfact>
</mgrwt>
</event>
<event>
 9    1  0.4497870E-036  0.1000369E+04  0.7818608E-02  0.8680687E-01
          2   -1    0    0  501    0  0.00000000000E+00  0.00000000000E+00  0.45528669005E+03  0.45528669005E+03  0.00000000000E+00 0.  1.
         -2   -1    0    0    0  501 -0.00000000000E+00 -0.00000000000E+00 -0.54950956776E+03  0.54950956776E+03  0.00000000000E+00 0.  1.
         36    2    1    2    0    0 -0.35527136788E-14  0.00000000000E+00 -0.94222877708E+02  0.10047962578E+04  0.10003687165E+04 0.  0.
         25    2    3    3    0    0 -0.30296796782E+02  0.14188751313E+03 -0.19283301628E+02  0.19271301339E+03  0.12536545589E+03 0.  0.
         35    2    3    3    0    0  0.30296796782E+02 -0.14188751313E+03 -0.74939576080E+02  0.81208324442E+03  0.79549562760E+03 0.  0.
         22    1    5    5    0    0  0.21245384245E+03 -0.18435782202E+03 -0.36874896847E+03  0.46378900748E+03  0.00000000000E+00 0.  1.
         22    1    5    5    0    0 -0.18215704567E+03  0.42470308891E+02  0.29380939239E+03  0.34829423693E+03  0.00000000000E+00 0.  1.
          5    1    4    4  502    0  0.85321445400E-01  0.93927833846E+02 -0.69366854289E+02  0.11686015456E+03  0.47000000000E+01 0. -1.
         -5    1    4    4    0  502 -0.30382118228E+02  0.47959679287E+02  0.50083552660E+02  0.75852858828E+02  0.47000000000E+01 0. -1.
<mgrwt>
<rscale>  0 0.10003687E+04</rscale>
<asrwt>0</asrwt>
<pdfrwt beam="1">  1        2 0.70044106E-01 0.10003687E+04</pdfrwt>
<pdfrwt beam="2">  1       -2 0.84539933E-01 0.10003687E+04</pdfrwt>
<totfact> 0.10043956E+02</totfact>
</mgrwt>
</event>
<event>
 9    1  0.4497870E-036  0.9998508E+03  0.7818608E-02  0.8681180E-01
         -1   -1    0    0    0  501 -0.00000000000E+00  0.00000000000E+00  0.28409512917E+03  0.28409512917E+03  0.00000000000E+00 0. -1.
          1   -1    0    0  501    0  0.00000000000E+00 -0.00000000000E+00 -0.87972442908E+03  0.87972442908E+03  0.00000000000E+00 0. -1.
         36    2    1    2    0    0  0.00000000000E+00  0.35527136788E-14 -0.59562929991E+03  0.11638195582E+04  0.99985083949E+03 0.  0.
         25    2    3    3    0    0  0.33439810203E+02 -0.10667415956E+01  0.47927273998E+02  0.13775243552E+03  0.12473712781E+03 0.  0.
         35    2    3    3    0    0 -0.33439810203E+02  0.10667415956E+01 -0.64355657391E+03  0.10260671227E+04  0.79845433036E+03 0.  0.
         22    1    5    5    0    0 -0.13139212109E+03 -0.10182055770E+03 -0.79863948018E+03  0.81575507033E+03  0.00000000000E+00 0.  1.
         22    1    5    5    0    0  0.97952310891E+02  0.10288729930E+03  0.15508290627E+03  0.21031205240E+03  0.00000000000E+00 0.  1.
          5    1    4    4  502    0  0.72040012981E+02  0.24582404751E+02  0.49882860313E+02  0.91128743252E+02  0.47000000000E+01 0. -1.
         -5    1    4    4    0  502 -0.38600202778E+02 -0.25649146347E+02 -0.19555863145E+01  0.46623692268E+02  0.47000000000E+01 0. -1.
<mgrwt>
<rscale>  0 0.99985084E+03</rscale>
<asrwt>0</asrwt>
<pdfrwt beam="1">  1        1 0.13534222E+00 0.99985084E+03</pdfrwt>
<pdfrwt beam="2">  1       -1 0.43706943E-01 0.99985084E+03</pdfrwt>
<totfact> 0.11056242E+02</totfact>
</mgrwt>
</event>
<event>
 9    1  0.4497870E-036  0.1000370E+04  0.7818608E-02  0.8680686E-01
         -1   -1    0    0    0  501 -0.00000000000E+00  0.00000000000E+00  0.43558735569E+03  0.43558735569E+03  0.00000000000E+00 0. -1.
          1   -1    0    0  501    0  0.00000000000E+00 -0.00000000000E+00 -0.57436233401E+03  0.57436233401E+03  0.00000000000E+00 0. -1.
         36    2    1    2    0    0  0.14210854715E-13  0.14210854715E-13 -0.13877497832E+03  0.10099496897E+04  0.10003698722E+04 0.  0.
         25    2    3    3    0    0 -0.11152403911E+03  0.27853217808E+02  0.60539926291E+02  0.17825677976E+03  0.12205320075E+03 0.  0.
         35    2    3    3    0    0  0.11152403911E+03 -0.27853217808E+02 -0.19931490461E+03  0.83169290994E+03  0.79923291487E+03 0.  0.
         22    1    5    5    0    0  0.79411539893E+02  0.35026346400E+03 -0.26530898918E+03  0.44651936870E+03  0.00000000000E+00 0. -1.
         22    1    5    5    0    0  0.32112499213E+02 -0.37811668181E+03  0.65994084577E+02  0.38517354124E+03  0.00000000000E+00 0. -1.
          5    1    4    4  502    0 -0.92477938118E+02 -0.90443249881E+01 -0.12732960194E+02  0.93905202882E+02  0.47000000000E+01 0.  1.
         -5    1    4    4    0  502 -0.19046100988E+02  0.36897542796E+02  0.73272886485E+02  0.84351576874E+02  0.47000000000E+01 0.  1.
<mgrwt>
<rscale>  0 0.10003699E+04</rscale>
<asrwt>0</asrwt>
<pdfrwt beam="1">  1        1 0.88363436E-01 0.10003699E+04</pdfrwt>
<pdfrwt beam="2">  1       -1 0.67013439E-01 0.10003699E+04</pdfrwt>
<totfact> 0.96092966E+01</totfact>
</mgrwt>
</event>
<event>
 9    1  0.4497870E-036  0.9992269E+03  0.7818608E-02  0.8681775E-01
         -2   -1    0    0    0  501 -0.00000000000E+00  0.00000000000E+00  0.21847367027E+03  0.21847367027E+03  0.00000000000E+00 0. -1.
          2   -1    0    0  501    0  0.00000000000E+00 -0.00000000000E+00 -0.11425340488E+04  0.11425340488E+04  0.00000000000E+00 0. -1.
         36    2    1    2    0    0  0.28421709430E-13 -0.14210854715E-13 -0.92406037856E+03  0.13610077191E+04  0.99922691527E+03 0.  0.
         25    2    3    3    0    0 -0.92025917036E+02  0.10324776381E+03 -0.15043173127E+03  0.23941841327E+03  0.12475015311E+03 0.  0.
         35    2    3    3    0    0  0.92025917036E+02 -0.10324776381E+03 -0.77362864729E+03  0.11215893058E+04  0.80020773358E+03 0.  0.
         22    1    5    5    0    0 -0.31533970922E+03  0.39262531483E+02 -0.12281238669E+03  0.34068102518E+03  0.00000000000E+00 0.  1.
         22    1    5    5    0    0  0.40736562626E+03 -0.14251029529E+03 -0.65081626060E+03  0.78090828064E+03  0.00000000000E+00 0.  1.
          5    1    4    4  502    0 -0.11955259717E+02  0.59169365001E+02 -0.13316212187E+03  0.14628117682E+03  0.47000000000E+01 0. -1.
         -5    1    4    4    0  502 -0.80070657318E+02  0.44078398811E+02 -0.17269609395E+02  0.93137236451E+02  0.47000000000E+01 0. -1.
<mgrwt>
<rscale>  0 0.99922692E+03</rscale>
<asrwt>0</asrwt>
<pdfrwt beam="1">  1        2 0.17577447E+00 0.99922692E+03</pdfrwt>
<pdfrwt beam="2">  1       -2 0.33611333E-01 0.99922692E+03</pdfrwt>
<totfact> 0.20472581E+02</totfact>
</mgrwt>
</event>
<event>
 9    1  0.4497870E-036  0.9999871E+03  0.7818608E-02  0.8681050E-01
         -1   -1    0    0    0  501 -0.00000000000E+00  0.00000000000E+00  0.69240949826E+03  0.69240949826E+03  0.00000000000E+00 0. -1.
          1   -1    0    0  501    0  0.00000000000E+00 -0.00000000000E+00 -0.36104866657E+03  0.36104866657E+03  0.00000000000E+00 0. -1.
         36    2    1    2    0    0  0.28421709430E-13  0.00000000000E+00  0.33136083169E+03  0.10534581648E+04  0.99998705205E+03 0.  0.
         25    2    3    3    0    0  0.77361447808E+02  0.10229267369E+03  0.37145147860E+01  0.17933406057E+03  0.12529294857E+03 0.  0.
         35    2    3    3    0    0 -0.77361447808E+02 -0.10229267369E+03  0.32764631691E+03  0.87412410426E+03  0.80018263914E+03 0.  0.
         22    1    5    5    0    0  0.30970126430E+03  0.14040123465E+03  0.21921226589E+03  0.40457557677E+03  0.00000000000E+00 0. -1.
         22    1    5    5    0    0 -0.38706271211E+03 -0.24269390834E+03  0.10843405102E+03  0.46954852749E+03  0.00000000000E+00 0. -1.
          5    1    4    4  502    0 -0.31894208557E+02  0.48641664453E+01  0.41848511168E+01  0.32871015098E+02  0.47000000000E+01 0.  1.
         -5    1    4    4    0  502  0.10925565636E+03  0.97428507244E+02 -0.47033633075E+00  0.14646304547E+03  0.47000000000E+01 0.  1.
<mgrwt>
<rscale>  0 0.99998705E+03</rscale>
<asrwt>0</asrwt>
<pdfrwt beam="1">  1        1 0.55545949E-01 0.99998705E+03</pdfrwt>
<pdfrwt beam="2">  1       -1 0.10652454E+00 0.99998705E+03</pdfrwt>
<totfact> 0.67986914E+01</totfact>
</mgrwt>
</event>
<event>
 9    1  0.4497870E-036  0.9950190E+03  0.7818608E-02  0.8685796E-01
         -1   -1    0    0    0  501 -0.00000000000E+00  0.00000000000E+00  0.56248432360E+03  0.56248432360E+03  0.00000000000E+00 0. -1.
          1   -1    0    0  501    0  0.00000000000E+00 -0.00000000000E+00 -0.44004014609E+03  0.44004014609E+03  0.00000000000E+00 0. -1.
         36    2    1    2    0    0 -0.14210854715E-13  0.00000000000E+00  0.12244417752E+03  0.10025244697E+04  0.99501896249E+03 0.  0.
         25    2    3    3    0    0 -0.74899174947E+02  0.65710203594E+02  0.11383063245E+03  0.19634990813E+03  0.12517250607E+03 0.  0.
         35    2    3    3    0    0  0.74899174947E+02 -0.65710203594E+02  0.86135450622E+01  0.80617456156E+03  0.79994719405E+03 0.  0.
         22    1    5    5    0    0  0.78688694599E+01  0.23645926561E+03 -0.29124300505E+03  0.37522978479E+03  0.00000000000E+00 0. -1.
         22    1    5    5    0    0  0.67030305487E+02 -0.30216946921E+03  0.29985655011E+03  0.43094477677E+03  0.00000000000E+00 0. -1.
          5    1    4    4  502    0  0.31286876006E+02  0.19297687289E+02  0.54949075936E+02  0.66277901982E+02  0.47000000000E+01 0.  1.
         -5    1    4    4    0  502 -0.10618605095E+03  0.46412516305E+02  0.58881556518E+02  0.13007200615E+03  0.47000000000E+01 0.  1.
<mgrwt>
<rscale>  0 0.99501896E+03</rscale>
<asrwt>0</asrwt>
<pdfrwt beam="1">  1        1 0.67698484E-01 0.99501896E+03</pdfrwt>
<pdfrwt beam="2">  1       -1 0.86536050E-01 0.99501896E+03</pdfrwt>
<totfact> 0.82558286E+01</totfact>
</mgrwt>
</event>
<event>
 9    1  0.4497870E-036  0.1001343E+04  0.7818608E-02  0.8679760E-01
          1   -1    0    0  501    0  0.00000000000E+00  0.00000000000E+00  0.73007352522E+03  0.73007352522E+03  0.00000000000E+00 0. -1.
         -1   -1    0    0    0  501 -0.00000000000E+00 -0.00000000000E+00 -0.34335163376E+03  0.34335163376E+03  0.00000000000E+00 0. -1.
         36    2    1    2    0    0  0.28421709430E-13  0.14210854715E-13  0.38672189146E+03  0.10734251590E+04  0.10013429735E+04 0.  0.
         25    2    3    3    0    0  0.10641445222E+03  0.26297337924E+02  0.16516263043E+03  0.23434443134E+03  0.12499212931E+03 0.  0.
         35    2    3    3    0    0 -0.10641445222E+03 -0.26297337924E+02  0.22155926104E+03  0.83908072764E+03  0.80184311166E+03 0.  0.
         22    1    5    5    0    0 -0.26546449109E+03 -0.18932602085E+03  0.42364298127E+03  0.53459247449E+03  0.00000000000E+00 0. -1.
         22    1    5    5    0    0  0.15905003887E+03  0.16302868293E+03 -0.20208372024E+03  0.30448825315E+03  0.00000000000E+00 0. -1.
          5    1    4    4  502    0 -0.10894872366E+02 -0.30354354662E+02  0.53771874899E+02  0.62877576456E+02  0.47000000000E+01 0.  1.
         -5    1    4    4    0  502  0.11730932459E+03  0.56651692586E+02  0.11139075553E+03  0.17146685489E+03  0.47000000000E+01 0.  1.
<mgrwt>
<rscale>  0 0.10013430E+04</rscale>
<asrwt>0</asrwt>
<pdfrwt beam="1">  1        1 0.11231900E+00 0.10013430E+04</pdfrwt>
<pdfrwt beam="2">  1       -1 0.52823328E-01 0.10013430E+04</pdfrwt>
<totfact> 0.10580642E+02</totfact>
</mgrwt>
</event>
<event>
 9    1  0.4497870E-036  0.1000047E+04  0.7818608E-02  0.8680994E-01
          2   -1    0    0  501    0  0.00000000000E+00  0.00000000000E+00  0.47515983174E+03  0.47515983174E+03  0.00000000000E+00 0.  1.
         -2   -1    0    0    0  501 -0.00000000000E+00 -0.00000000000E+00 -0.52618784702E+03  0.52618784702E+03  0.00000000000E+00 0.  1.
         36    2    1    2    0    0 -0.56843418861E-13  0.00000000000E+00 -0.51028015287E+02  0.10013476788E+04  0.10000466566E+04 0.  0.
         25    2    3    3    0    0 -0.80739268828E+02 -0.60753525497E+01  0.10462193540E+03  0.18224896471E+03  0.12535228889E+03 0.  0.
         35    2    3    3    0    0  0.80739268828E+02  0.60753525497E+01 -0.15564995069E+03  0.81909871405E+03  0.80008753069E+03 0.  0.
         22    1    5    5    0    0 -0.33190519964E+03 -0.13385676949E+03 -0.13625712126E+03  0.38294216192E+03  0.00000000000E+00 0.  1.
         22    1    5    5    0    0  0.41264446846E+03  0.13993212204E+03 -0.19392829432E+02  0.43615655213E+03  0.00000000000E+00 0.  1.
          5    1    4    4  502    0  0.15117514248E+02  0.32643609899E+02  0.17383406309E+01  0.36321568419E+02  0.47000000000E+01 0. -1.
         -5    1    4    4    0  502 -0.95856783076E+02 -0.38718962449E+02  0.10288359477E+03  0.14592739629E+03  0.47000000000E+01 0. -1.
<mgrwt>
<rscale>  0 0.10000467E+04</rscale>
<asrwt>0</asrwt>
<pdfrwt beam="1">  1        2 0.73101513E-01 0.10000467E+04</pdfrwt>
<pdfrwt beam="2">  1       -2 0.80951976E-01 0.10000467E+04</pdfrwt>
<totfact> 0.10585266E+02</totfact>
</mgrwt>
</event>
<event>
 9    1  0.4497870E-036  0.1000974E+04  0.7818608E-02  0.8680111E-01
          2   -1    0    0  501    0  0.00000000000E+00  0.00000000000E+00  0.18615092991E+03  0.18615092991E+03  0.00000000000E+00 0.  1.
         -2   -1    0    0    0  501 -0.00000000000E+00 -0.00000000000E+00 -0.13456139872E+04  0.13456139872E+04  0.00000000000E+00 0.  1.
         36    2    1    2    0    0  0.00000000000E+00  0.71054273576E-14 -0.11594630573E+04  0.15317649171E+04  0.10009741156E+04 0.  0.
         25    2    3    3    0    0 -0.46152494273E+02  0.39493703808E+02 -0.22573427516E+02  0.14054317453E+03  0.12471174327E+03 0.  0.
         35    2    3    3    0    0  0.46152494273E+02 -0.39493703808E+02 -0.11368896297E+04  0.13912217425E+04  0.79955619025E+03 0.  0.
         22    1    5    5    0    0  0.47217567396E+02 -0.41934888729E+03 -0.60072336890E+03  0.73413319901E+03  0.00000000000E+00 0.  1.
         22    1    5    5    0    0 -0.10650731238E+01  0.37985518348E+03 -0.53616626083E+03  0.65708854354E+03  0.00000000000E+00 0.  1.
          5    1    4    4  502    0 -0.30623673386E+02 -0.14575453357E+02  0.42382583654E+02  0.54485104472E+02  0.47000000000E+01 0. -1.
         -5    1    4    4    0  502 -0.15528820887E+02  0.54069157165E+02 -0.64956011169E+02  0.86058070056E+02  0.47000000000E+01 0. -1.
<mgrwt>
<rscale>  0 0.10009741E+04</rscale>
<asrwt>0</asrwt>
<pdfrwt beam="1">  1        2 0.28638605E-01 0.10009741E+04</pdfrwt>
<pdfrwt beam="2">  1       -2 0.20701754E+00 0.10009741E+04</pdfrwt>
<totfact> 0.24379368E+01</totfact>
</mgrwt>
</event>
<event>
 9    1  0.4497870E-036  0.1000760E+04  0.7818608E-02  0.8680314E-01
          1   -1    0    0  501    0  0.00000000000E+00  0.00000000000E+00  0.19169174723E+03  0.19169174723E+03  0.00000000000E+00 0. -1.
         -1   -1    0    0    0  501 -0.00000000000E+00 -0.00000000000E+00 -0.13061605931E+04  0.13061605931E+04  0.00000000000E+00 0. -1.
         36    2    1    2    0    0 -0.28421709430E-13 -0.28421709430E-13 -0.11144688459E+04  0.14978523403E+04  0.10007601236E+04 0.  0.
         25    2    3    3    0    0 -0.93894335512E+02 -0.10582988363E+03 -0.22358134072E+03  0.29233065863E+03  0.12430803492E+03 0.  0.
         35    2    3    3    0    0  0.93894335512E+02  0.10582988363E+03 -0.89088750517E+03  0.12055216817E+04  0.79974112544E+03 0.  0.
         22    1    5    5    0    0  0.13645206664E+03 -0.31018770298E+03 -0.62207623893E+03  0.70838861130E+03  0.00000000000E+00 0. -1.
         22    1    5    5    0    0 -0.42557731125E+02  0.41601758661E+03 -0.26881126624E+03  0.49713307042E+03  0.00000000000E+00 0. -1.
          5    1    4    4  502    0 -0.93839230308E+02 -0.17395805784E+02 -0.85107655201E+02  0.12796022107E+03  0.47000000000E+01 0.  1.
         -5    1    4    4    0  502 -0.55105204705E-01 -0.88434077848E+02 -0.13847368552E+03  0.16437043756E+03  0.47000000000E+01 0.  1.
<mgrwt>
<rscale>  0 0.10007601E+04</rscale>
<asrwt>0</asrwt>
<pdfrwt beam="1">  1        1 0.29491037E-01 0.10007601E+04</pdfrwt>
<pdfrwt beam="2">  1       -1 0.20094779E+00 0.10007601E+04</pdfrwt>
<totfact> 0.24031728E+01</totfact>
</mgrwt>
</event>
<event>
 9    1  0.4497870E-036  0.1000009E+04  0.7818608E-02  0.8681029E-01
          2   -1    0    0  501    0  0.00000000000E+00  0.00000000000E+00  0.12247859923E+04  0.12247859923E+04  0.00000000000E+00 0.  1.
         -2   -1    0    0    0  501 -0.00000000000E+00 -0.00000000000E+00 -0.20412112661E+03  0.20412112661E+03  0.00000000000E+00 0.  1.
         36    2    1    2    0    0 -0.28421709430E-13  0.00000000000E+00  0.10206648657E+04  0.14289071189E+04  0.10000093932E+04 0.  0.
         25    2    3    3    0    0  0.10871810035E+03 -0.88335821448E+02  0.16409977433E+03  0.24856504293E+03  0.12342204803E+03 0.  0.
         35    2    3    3    0    0 -0.10871810035E+03  0.88335821448E+02  0.85656509133E+03  0.11803420760E+04  0.79992550771E+03 0.  0.
         22    1    5    5    0    0 -0.43302949420E+03  0.16274578427E+03  0.37761718259E+03  0.59715615189E+03  0.00000000000E+00 0.  1.
         22    1    5    5    0    0  0.32431139385E+03 -0.74409962825E+02  0.47894790874E+03  0.58318592407E+03  0.00000000000E+00 0.  1.
          5    1    4    4  502    0 -0.26568006482E+02 -0.41796977416E+01  0.24101434178E+02  0.36418374087E+02  0.47000000000E+01 0. -1.
         -5    1    4    4    0  502  0.13528610683E+03 -0.84156123706E+02  0.13999834015E+03  0.21214666885E+03  0.47000000000E+01 0. -1.
<mgrwt>
<rscale>  0 0.10000094E+04</rscale>
<asrwt>0</asrwt>
<pdfrwt beam="1">  1        2 0.18842861E+00 0.10000094E+04</pdfrwt>
<pdfrwt beam="2">  1       -2 0.31403251E-01 0.10000094E+04</pdfrwt>
<totfact> 0.20738248E+02</totfact>
</mgrwt>
</event>
<event>
 9    1  0.4497870E-036  0.9963491E+03  0.7818608E-02  0.8684522E-01
         -2   -1    0    0    0  501 -0.00000000000E+00  0.00000000000E+00  0.12383917879E+03  0.12383917879E+03  0.00000000000E+00 0. -1.
          2   -1    0    0  501    0  0.00000000000E+00 -0.00000000000E+00 -0.20040338465E+04  0.20040338465E+04  0.00000000000E+00 0. -1.
         36    2    1    2    0    0  0.00000000000E+00  0.00000000000E+00 -0.18801946678E+04  0.21278730253E+04  0.99634914730E+03 0.  0.
         25    2    3    3    0    0  0.13253771441E+03  0.30044146758E+02 -0.30376632130E+03  0.35556827648E+03  0.12524346206E+03 0.  0.
         35    2    3    3    0    0 -0.13253771441E+03 -0.30044146758E+02 -0.15764283465E+04  0.17723047489E+04  0.79841649208E+03 0.  0.
         22    1    5    5    0    0 -0.22314623008E+03 -0.27192509724E+03 -0.14356909735E+04  0.14781563076E+04  0.00000000000E+00 0.  1.
         22    1    5    5    0    0  0.90608515671E+02  0.24188095048E+03 -0.14073737298E+03  0.29414844122E+03  0.00000000000E+00 0.  1.
          5    1    4    4  502    0  0.10982521579E+03  0.70697276466E+02 -0.26221152275E+03  0.29297893369E+03  0.47000000000E+01 0. -1.
         -5    1    4    4    0  502  0.22712498622E+02 -0.40653129708E+02 -0.41554798545E+02  0.62589342790E+02  0.47000000000E+01 0. -1.
<mgrwt>
<rscale>  0 0.99634915E+03</rscale>
<asrwt>0</asrwt>
<pdfrwt beam="1">  1        2 0.30831287E+00 0.99634915E+03</pdfrwt>
<pdfrwt beam="2">  1       -2 0.19052183E-01 0.99634915E+03</pdfrwt>
<totfact> 0.18132347E+02</totfact>
</mgrwt>
</event>
<event>
 9    1  0.4497870E-036  0.1002404E+04  0.7818608E-02  0.8678752E-01
         -2   -1    0    0    0  501 -0.00000000000E+00  0.00000000000E+00  0.51966914878E+02  0.51966914878E+02  0.00000000000E+00 0. -1.
          2   -1    0    0  501    0  0.00000000000E+00 -0.00000000000E+00 -0.48339074686E+04  0.48339074686E+04  0.00000000000E+00 0. -1.
         36    2    1    2    0    0  0.00000000000E+00  0.14210854715E-13 -0.47819405538E+04  0.48858743835E+04  0.10024036272E+04 0.  0.
         25    2    3    3    0    0  0.10859296091E+03 -0.66027677543E+02 -0.58691602743E+03  0.61324015669E+03  0.12426174454E+03 0.  0.
         35    2    3    3    0    0 -0.10859296091E+03  0.66027677543E+02 -0.41950245263E+04  0.42726342268E+04  0.80063748002E+03 0.  0.
         22    1    5    5    0    0 -0.20349813251E+03 -0.10669738007E+03 -0.32735316578E+03  0.39994489120E+03  0.00000000000E+00 0. -1.
         22    1    5    5    0    0  0.94905171597E+02  0.17272505761E+03 -0.38676713605E+04  0.38726893356E+04  0.00000000000E+00 0. -1.
          5    1    4    4  502    0  0.13498773698E+03 -0.64079099939E+02 -0.46689205777E+03  0.49024290285E+03  0.47000000000E+01 0.  1.
         -5    1    4    4    0  502 -0.26394776070E+02 -0.19485776041E+01 -0.12002396966E+03  0.12299725384E+03  0.47000000000E+01 0.  1.
<mgrwt>
<rscale>  0 0.10024036E+04</rscale>
<asrwt>0</asrwt>
<pdfrwt beam="1">  1        2 0.74367853E+00 0.10024036E+04</pdfrwt>
<pdfrwt beam="2">  1       -2 0.79949051E-02 0.10024036E+04</pdfrwt>
<totfact> 0.46072185E+00</totfact>
</mgrwt>
</event>
<event>
 9    1  0.4497870E-036  0.9996131E+03  0.7818608E-02  0.8681406E-01
          2   -1    0    0  501    0  0.00000000000E+00  0.00000000000E+00  0.11832878138E+04  0.11832878138E+04  0.00000000000E+00 0.  1.
         -2   -1    0    0    0  501 -0.00000000000E+00 -0.00000000000E+00 -0.21111227891E+03  0.21111227891E+03  0.00000000000E+00 0.  1.
         36    2    1    2    0    0 -0.14210854715E-13 -0.14210854715E-13  0.97217553491E+03  0.13944000927E+04  0.99961309912E+03 0.  0.
         25    2    3    3    0    0  0.10495591807E+03 -0.16734294407E+02  0.32240147359E+03  0.36166134103E+03  0.12474146895E+03 0.  0.
         35    2    3    3    0    0 -0.10495591807E+03  0.16734294407E+02  0.64977406132E+03  0.10327387517E+04  0.79564264413E+03 0.  0.
         22    1    5    5    0    0  0.17700334284E+03 -0.25308396265E+03  0.43742299501E+02  0.31192156754E+03  0.00000000000E+00 0.  1.
         22    1    5    5    0    0 -0.28195926091E+03  0.26981825706E+03  0.60603176182E+03  0.72081718417E+03  0.00000000000E+00 0.  1.
          5    1    4    4  502    0  0.52991209490E+02 -0.65123782389E+02  0.23096459005E+03  0.24579647511E+03  0.47000000000E+01 0.  1.
         -5    1    4    4    0  502  0.51964708575E+02  0.48389487982E+02  0.91436883533E+02  0.11586486592E+03  0.47000000000E+01 0.  1.
<mgrwt>
<rscale>  0 0.99961310E+03</rscale>
<asrwt>0</asrwt>
<pdfrwt beam="1">  1        2 0.18204428E+00 0.99961310E+03</pdfrwt>
<pdfrwt beam="2">  1       -2 0.32478813E-01 0.99961310E+03</pdfrwt>
<totfact> 0.20624669E+02</totfact>
</mgrwt>
</event>
<event>
 9    1  0.4497870E-036  0.9945515E+03  0.7818608E-02  0.8686244E-01
          1   -1    0    0  501    0  0.00000000000E+00  0.00000000000E+00  0.14836333519E+04  0.14836333519E+04  0.00000000000E+00 0. -1.
         -1   -1    0    0    0  501 -0.00000000000E+00 -0.00000000000E+00 -0.16667403383E+03  0.16667403383E+03  0.00000000000E+00 0. -1.
         36    2    1    2    0    0  0.00000000000E+00  0.00000000000E+00  0.13169593181E+04  0.16503073857E+04  0.99455146772E+03 0.  0.
         25    2    3    3    0    0 -0.73885135956E+02  0.57212823301E+02  0.39308708250E+03  0.42314761065E+03  0.12571446021E+03 0.  0.
         35    2    3    3    0    0  0.73885135956E+02 -0.57212823301E+02  0.92387223556E+03  0.12271597751E+04  0.80227731207E+03 0.  0.
         22    1    5    5    0    0 -0.61852861970E+01  0.89313846619E+02  0.10270054277E+04  0.10309002713E+04  0.00000000000E+00 0. -1.
         22    1    5    5    0    0  0.80070422153E+02 -0.14652666992E+03 -0.10313319210E+03  0.19625950376E+03  0.00000000000E+00 0. -1.
          5    1    4    4  502    0  0.11464927246E+02  0.33198330788E+01 -0.39743271685E+01  0.13429487141E+02  0.47000000000E+01 0. -1.
         -5    1    4    4    0  502 -0.85350063202E+02  0.53892990222E+02  0.39706140966E+03  0.40971812351E+03  0.47000000000E+01 0. -1.
<mgrwt>
<rscale>  0 0.99455147E+03</rscale>
<asrwt>0</asrwt>
<pdfrwt beam="1">  1        1 0.22825128E+00 0.99455147E+03</pdfrwt>
<pdfrwt beam="2">  1       -1 0.25642160E-01 0.99455147E+03</pdfrwt>
<totfact> 0.97324578E+01</totfact>
</mgrwt>
</event>
<event>
 9    1  0.4497870E-036  0.9993696E+03  0.7818608E-02  0.8681639E-01
         -2   -1    0    0    0  501 -0.00000000000E+00  0.00000000000E+00  0.16284790129E+03  0.16284790129E+03  0.00000000000E+00 0. -1.
          2   -1    0    0  501    0  0.00000000000E+00 -0.00000000000E+00 -0.15332398562E+04  0.15332398562E+04  0.00000000000E+00 0. -1.
         36    2    1    2    0    0  0.00000000000E+00  0.00000000000E+00 -0.13703919549E+04  0.16960877575E+04  0.99936958680E+03 0.  0.
         25    2    3    3    0    0  0.82321264716E+02 -0.10233429298E+03 -0.17623502178E+03  0.25292443189E+03  0.12515145706E+03 0.  0.
         35    2    3    3    0    0 -0.82321264716E+02  0.10233429298E+03 -0.11941569332E+04  0.14431633256E+04  0.79966274469E+03 0.  0.
         22    1    5    5    0    0  0.89228284109E+02  0.42767916909E+03 -0.73264063146E+03  0.85301433354E+03  0.00000000000E+00 0.  1.
         22    1    5    5    0    0 -0.17154954883E+03 -0.32534487611E+03 -0.46151630170E+03  0.59014899208E+03  0.00000000000E+00 0.  1.
          5    1    4    4  502    0  0.70338204444E+02 -0.24453982673E+01 -0.11543516564E+03  0.13528048804E+03  0.47000000000E+01 0.  1.
         -5    1    4    4    0  502  0.11983060272E+02 -0.99888894710E+02 -0.60799856138E+02  0.11764394386E+03  0.47000000000E+01 0.  1.
<mgrwt>
<rscale>  0 0.99936959E+03</rscale>
<asrwt>0</asrwt>
<pdfrwt beam="1">  1        2 0.23588306E+00 0.99936959E+03</pdfrwt>
<pdfrwt beam="2">  1       -2 0.25053523E-01 0.99936959E+03</pdfrwt>
<totfact> 0.20734166E+02</totfact>
</mgrwt>
</event>
<event>
 9    1  0.4497870E-036  0.9999904E+03  0.7818608E-02  0.8681047E-01
         -1   -1    0    0    0  501 -0.00000000000E+00  0.00000000000E+00  0.15087221523E+03  0.15087221523E+03  0.00000000000E+00 0.  1.
          1   -1    0    0  501    0  0.00000000000E+00 -0.00000000000E+00 -0.16569997420E+04  0.16569997420E+04  0.00000000000E+00 0.  1.
         36    2    1    2    0    0 -0.21316282073E-13  0.28421709430E-13 -0.15061275268E+04  0.18078719573E+04  0.99999044338E+03 0.  0.
         25    2    3    3    0    0  0.28668250443E+02 -0.12230411838E+03 -0.39554932395E+03  0.43340396406E+03  0.12489820828E+03 0.  0.
         35    2    3    3    0    0 -0.28668250443E+02  0.12230411838E+03 -0.11105782029E+04  0.13744679932E+04  0.79999884607E+03 0.  0.
         22    1    5    5    0    0  0.27521341612E+03  0.30091739973E+03 -0.82698303635E+03  0.92206000254E+03  0.00000000000E+00 0.  1.
         22    1    5    5    0    0 -0.30388166656E+03 -0.17861328136E+03 -0.28359516652E+03  0.45240799067E+03  0.00000000000E+00 0.  1.
          5    1    4    4  502    0 -0.28724937707E+02 -0.11161787277E+03 -0.22103122228E+03  0.24932020133E+03  0.47000000000E+01 0.  1.
         -5    1    4    4    0  502  0.57393188151E+02 -0.10686245604E+02 -0.17451810168E+03  0.18408376274E+03  0.47000000000E+01 0.  1.
<mgrwt>
<rscale>  0 0.99999044E+03</rscale>
<asrwt>0</asrwt>
<pdfrwt beam="1">  1        1 0.25492306E+00 0.99999044E+03</pdfrwt>
<pdfrwt beam="2">  1       -1 0.23211108E-01 0.99999044E+03</pdfrwt>
<totfact> 0.86618696E+01</totfact>
</mgrwt>
</event>
<event>
 9    1  0.4497870E-036  0.1004198E+04  0.7818608E-02  0.8677050E-01
          2   -1    0    0  501    0  0.00000000000E+00  0.00000000000E+00  0.11288311157E+04  0.11288311157E+04  0.00000000000E+00 0.  1.
         -2   -1    0    0    0  501 -0.00000000000E+00 -0.00000000000E+00 -0.22333151975E+03  0.22333151975E+03  0.00000000000E+00 0.  1.
         36    2    1    2    0    0  0.14210854715E-13  0.00000000000E+00  0.90549959594E+03  0.13521626354E+04  0.10041983243E+04 0.  0.
         25    2    3    3    0    0 -0.83101315116E+02 -0.89884949323E+02  0.27455727237E+03  0.32558124162E+03  0.12504525739E+03 0.  0.
         35    2    3    3    0    0  0.83101315116E+02  0.89884949323E+02  0.63094232357E+03  0.10265813938E+04  0.80049735152E+03 0.  0.
         22    1    5    5    0    0  0.10481385496E+03  0.10942429859E+03  0.82070916971E+03  0.83457963225E+03  0.00000000000E+00 0. -1.
         22    1    5    5    0    0 -0.21712539843E+02 -0.19539349268E+02 -0.18976684614E+03  0.19200176158E+03  0.00000000000E+00 0. -1.
          5    1    4    4  502    0 -0.93930389981E+02 -0.45650978009E+02  0.25537192832E+03  0.27594173611E+03  0.47000000000E+01 0.  1.
         -5    1    4    4    0  502  0.10829074865E+02 -0.44233971314E+02  0.19185344049E+02  0.49639505506E+02  0.47000000000E+01 0.  1.
<mgrwt>
<rscale>  0 0.10041983E+04</rscale>
<asrwt>0</asrwt>
<pdfrwt beam="1">  1        2 0.17366632E+00 0.10041983E+04</pdfrwt>
<pdfrwt beam="2">  1       -2 0.34358696E-01 0.10041983E+04</pdfrwt>
<totfact> 0.20028273E+02</totfact>
</mgrwt>
</event>
<event>
 9    1  0.4497870E-036  0.9999767E+03  0.7818608E-02  0.8681060E-01
         -2   -1    0    0    0  501 -0.00000000000E+00  0.00000000000E+00  0.20578450875E+03  0.20578450875E+03  0.00000000000E+00 0. -1.
          2   -1    0    0  501    0  0.00000000000E+00 -0.00000000000E+00 -0.12148064345E+04  0.12148064345E+04  0.00000000000E+00 0. -1.
         36    2    1    2    0    0  0.00000000000E+00 -0.14210854715E-13 -0.10090219257E+04  0.14205909432E+04  0.99997669040E+03 0.  0.
         25    2    3    3    0    0 -0.38944051468E+01  0.11243043201E+03 -0.31003847191E+03  0.35188647931E+03  0.12265590821E+03 0.  0.
         35    2    3    3    0    0  0.38944051468E+01 -0.11243043201E+03 -0.69898345381E+03  0.10687044639E+04  0.80055955059E+03 0.  0.
         22    1    5    5    0    0  0.37726059563E+03 -0.19699220571E+03 -0.36570487768E+03  0.56113415837E+03  0.00000000000E+00 0.  1.
         22    1    5    5    0    0 -0.37336619048E+03  0.84561773699E+02 -0.33327857612E+03  0.50757030554E+03  0.00000000000E+00 0.  1.
          5    1    4    4  502    0  0.18675874002E+02  0.20588028126E+02 -0.21806668753E+03  0.21988138935E+03  0.47000000000E+01 0.  1.
         -5    1    4    4    0  502 -0.22570279149E+02  0.91842403879E+02 -0.91971784379E+02  0.13200508995E+03  0.47000000000E+01 0.  1.
<mgrwt>
<rscale>  0 0.99997669E+03</rscale>
<asrwt>0</asrwt>
<pdfrwt beam="1">  1        2 0.18689330E+00 0.99997669E+03</pdfrwt>
<pdfrwt beam="2">  1       -2 0.31659155E-01 0.99997669E+03</pdfrwt>
<totfact> 0.20709755E+02</totfact>
</mgrwt>
</event>
<event>
 9    1  0.4497870E-036  0.1000376E+04  0.7818608E-02  0.8680680E-01
          2   -1    0    0  501    0  0.00000000000E+00  0.00000000000E+00  0.99818610079E+03  0.99818610079E+03  0.00000000000E+00 0. -1.
         -2   -1    0    0    0  501 -0.00000000000E+00 -0.00000000000E+00 -0.25064267581E+03  0.25064267581E+03  0.00000000000E+00 0. -1.
         36    2    1    2    0    0  0.00000000000E+00  0.00000000000E+00  0.74754342498E+03  0.12488287766E+04  0.10003759998E+04 0.  0.
         25    2    3    3    0    0  0.11574604280E+03 -0.79435939443E+02  0.15946985271E+03  0.24614356312E+03  0.12429322122E+03 0.  0.
         35    2    3    3    0    0 -0.11574604280E+03  0.79435939443E+02  0.58807357226E+03  0.10026852135E+04  0.79989992876E+03 0.  0.
         22    1    5    5    0    0 -0.20179335430E+03 -0.16487746435E+03  0.67969444389E+03  0.72793521219E+03  0.00000000000E+00 0. -1.
         22    1    5    5    0    0  0.86047311506E+02  0.24431340379E+03 -0.91620871631E+02  0.27475000129E+03  0.00000000000E+00 0. -1.
          5    1    4    4  502    0 -0.16633917482E+01 -0.34493698481E+02  0.10208214808E+03  0.10786768313E+03  0.47000000000E+01 0.  1.
         -5    1    4    4    0  502  0.11740943454E+03 -0.44942240962E+02  0.57387704632E+02  0.13827587999E+03  0.47000000000E+01 0.  1.
<mgrwt>
<rscale>  0 0.10003760E+04</rscale>
<asrwt>0</asrwt>
<pdfrwt beam="1">  1        2 0.15356709E+00 0.10003760E+04</pdfrwt>
<pdfrwt beam="2">  1       -2 0.38560412E-01 0.10003760E+04</pdfrwt>
<totfact> 0.19395689E+02</totfact>
</mgrwt>
</event>
<event>
 9    1  0.4497870E-036  0.9999534E+03  0.7818608E-02  0.8681082E-01
         -2   -1    0    0    0  501 -0.00000000000E+00  0.00000000000E+00  0.28611707401E+03  0.28611707401E+03  0.00000000000E+00 0.  1.
          2   -1    0    0  501    0  0.00000000000E+00 -0.00000000000E+00 -0.87368682639E+03  0.87368682639E+03  0.00000000000E+00 0.  1.
         36    2    1    2    0    0  0.00000000000E+00  0.21316282073E-13 -0.58756975238E+03  0.11598039004E+04  0.99995343565E+03 0.  0.
         25    2    3    3    0    0 -0.11409619370E+03 -0.63512434365E+02 -0.16718172952E+03  0.24634257352E+03  0.12523243234E+03 0.  0.
         35    2    3    3    0    0  0.11409619370E+03  0.63512434365E+02 -0.42038802286E+03  0.91346132687E+03  0.80039598649E+03 0.  0.
         22    1    5    5    0    0  0.15969834010E+03 -0.28703962917E+03  0.42297472642E+02  0.33118632933E+03  0.00000000000E+00 0. -1.
         22    1    5    5    0    0 -0.45602146398E+02  0.35055206354E+03 -0.46268549550E+03  0.58227499754E+03  0.00000000000E+00 0. -1.
          5    1    4    4  502    0 -0.11305352848E+03 -0.25398550676E+02 -0.17219101266E+03  0.20760062987E+03  0.47000000000E+01 0. -1.
         -5    1    4    4    0  502 -0.10426652151E+01 -0.38113883690E+02  0.50092831460E+01  0.38741943657E+02  0.47000000000E+01 0. -1.
<mgrwt>
<rscale>  0 0.99995344E+03</rscale>
<asrwt>0</asrwt>
<pdfrwt beam="1">  1        2 0.13441336E+00 0.99995344E+03</pdfrwt>
<pdfrwt beam="2">  1       -2 0.44018012E-01 0.99995344E+03</pdfrwt>
<totfact> 0.18097799E+02</totfact>
</mgrwt>
</event>
<event>
 9    1  0.4497870E-036  0.9996760E+03  0.7818608E-02  0.8681347E-01
         -2   -1    0    0    0  501 -0.00000000000E+00  0.00000000000E+00  0.12660663962E+03  0.12660663962E+03  0.00000000000E+00 0. -1.
          2   -1    0    0  501    0  0.00000000000E+00 -0.00000000000E+00 -0.19733408196E+04  0.19733408196E+04  0.00000000000E+00 0. -1.
         36    2    1    2    0    0 -0.28421709430E-13  0.14210854715E-13 -0.18467341800E+04  0.20999474592E+04  0.99967604751E+03 0.  0.
         25    2    3    3    0    0 -0.10311543276E+03 -0.63248383466E+02 -0.48916437786E+03  0.51953006914E+03  0.12647748294E+03 0.  0.
         35    2    3    3    0    0  0.10311543276E+03  0.63248383466E+02 -0.13575698021E+04  0.15804173901E+04  0.80005637848E+03 0.  0.
         22    1    5    5    0    0  0.24131340800E+03  0.34929242674E+03 -0.10729430451E+04  0.11538822029E+04  0.00000000000E+00 0. -1.
         22    1    5    5    0    0 -0.13819797523E+03 -0.28604404328E+03 -0.28462675706E+03  0.42653518716E+03  0.00000000000E+00 0. -1.
          5    1    4    4  502    0  0.13076144053E+02  0.17327905204E+02 -0.21413959571E+02  0.30852706633E+02  0.47000000000E+01 0.  1.
         -5    1    4    4    0  502 -0.11619157682E+03 -0.80576288670E+02 -0.46775041829E+03  0.48867736251E+03  0.47000000000E+01 0.  1.
<mgrwt>
<rscale>  0 0.99967605E+03</rscale>
<asrwt>0</asrwt>
<pdfrwt beam="1">  1        2 0.30359087E+00 0.99967605E+03</pdfrwt>
<pdfrwt beam="2">  1       -2 0.19477946E-01 0.99967605E+03</pdfrwt>
<totfact> 0.18170962E+02</totfact>
</mgrwt>
</event>
<event>
 9    1  0.4497870E-036  0.1001813E+04  0.7818608E-02  0.8679313E-01
         -2   -1    0    0    0  501 -0.00000000000E+00  0.00000000000E+00  0.36770628509E+03  0.36770628509E+03  0.00000000000E+00 0.  1.
          2   -1    0    0  501    0  0.00000000000E+00 -0.00000000000E+00 -0.68235784497E+03  0.68235784497E+03  0.00000000000E+00 0.  1.
         36    2    1    2    0    0  0.00000000000E+00  0.00000000000E+00 -0.31465155989E+03  0.10500641301E+04  0.10018128933E+04 0.  0.
         25    2    3    3    0    0  0.67410915396E+02  0.11348378399E+03 -0.11472607633E+03  0.21518733198E+03  0.12538227352E+03 0.  0.
         35    2    3    3    0    0 -0.67410915396E+02 -0.11348378399E+03 -0.19992548356E+03  0.83487679808E+03  0.79976638354E+03 0.  0.
         22    1    5    5    0    0  0.48799377307E+02 -0.44749570967E+03 -0.16528326599E+03  0.47953346851E+03  0.00000000000E+00 0.  1.
         22    1    5    5    0    0 -0.11621029270E+03  0.33401192569E+03 -0.34642217562E+02  0.35534332957E+03  0.00000000000E+00 0.  1.
          5    1    4    4  502    0  0.74682466636E+02  0.72103229029E+01 -0.41901896667E+02  0.86065780212E+02  0.47000000000E+01 0.  1.
         -5    1    4    4    0  502 -0.72715512399E+01  0.10627346108E+03 -0.72824179665E+02  0.12912155177E+03  0.47000000000E+01 0.  1.
<mgrwt>
<rscale>  0 0.10018129E+04</rscale>
<asrwt>0</asrwt>
<pdfrwt beam="1">  1        2 0.10497813E+00 0.10018129E+04</pdfrwt>
<pdfrwt beam="2">  1       -2 0.56570198E-01 0.10018129E+04</pdfrwt>
<totfact> 0.15012768E+02</totfact>
</mgrwt>
</event>
<event>
 9    1  0.4497870E-036  0.1000586E+04  0.7818608E-02  0.8680480E-01
         -1   -1    0    0    0  501 -0.00000000000E+00  0.00000000000E+00  0.14598401042E+03  0.14598401042E+03  0.00000000000E+00 0.  1.
          1   -1    0    0  501    0  0.00000000000E+00 -0.00000000000E+00 -0.17145227453E+04  0.17145227453E+04  0.00000000000E+00 0.  1.
         36    2    1    2    0    0  0.00000000000E+00 -0.21316282073E-13 -0.15685387349E+04  0.18605067557E+04  0.10005856411E+04 0.  0.
         25    2    3    3    0    0  0.69483057093E+02 -0.56229683644E+02 -0.94054577387E+02  0.18058161279E+03  0.12559372119E+03 0.  0.
         35    2    3    3    0    0 -0.69483057093E+02  0.56229683644E+02 -0.14744841575E+04  0.16799251430E+04  0.80003455088E+03 0.  0.
         22    1    5    5    0    0  0.65633881095E+01  0.37152885019E+03 -0.11961237725E+04  0.12525130114E+04  0.00000000000E+00 0. -1.
         22    1    5    5    0    0 -0.76046445203E+02 -0.31529916655E+03 -0.27836038503E+03  0.42741213156E+03  0.00000000000E+00 0. -1.
          5    1    4    4  502    0  0.96183959192E+02 -0.69452987007E+02 -0.53987595838E+02  0.13042937520E+03  0.47000000000E+01 0. -1.
         -5    1    4    4    0  502 -0.26700902099E+02  0.13223303363E+02 -0.40066981549E+02  0.50152237589E+02  0.47000000000E+01 0. -1.
<mgrwt>
<rscale>  0 0.10005856E+04</rscale>
<asrwt>0</asrwt>
<pdfrwt beam="1">  1        1 0.26377272E+00 0.10005856E+04</pdfrwt>
<pdfrwt beam="2">  1       -1 0.22459079E-01 0.10005856E+04</pdfrwt>
<totfact> 0.83345059E+01</totfact>
</mgrwt>
</event>
<event>
 9    1  0.4497870E-036  0.1000309E+04  0.7818608E-02  0.8680744E-01
         -2   -1    0    0    0  501 -0.00000000000E+00  0.00000000000E+00  0.14148510220E+04  0.14148510220E+04  0.00000000000E+00 0.  1.
          2   -1    0    0  501    0  0.00000000000E+00 -0.00000000000E+00 -0.17680611232E+03  0.17680611232E+03  0.00000000000E+00 0.  1.
         36    2    1    2    0    0 -0.14210854715E-13  0.00000000000E+00  0.12380449097E+04  0.15916571343E+04  0.10003085698E+04 0.  0.
         25    2    3    3    0    0 -0.10443655150E+03  0.45206889907E+02  0.10441876621E+03  0.19933962440E+03  0.12602519961E+03 0.  0.
         35    2    3    3    0    0  0.10443655150E+03 -0.45206889907E+02  0.11336261434E+04  0.13923175099E+04  0.80030566602E+03 0.  0.
         22    1    5    5    0    0  0.56924952720E+02 -0.42252325547E+03  0.55371924758E+03  0.69883571517E+03  0.00000000000E+00 0.  1.
         22    1    5    5    0    0  0.47511598776E+02  0.37731636556E+03  0.57990689587E+03  0.69348179473E+03  0.00000000000E+00 0.  1.
          5    1    4    4  502    0 -0.93945327278E+02 -0.13064580867E+02  0.21543575664E+02  0.97378762793E+02  0.47000000000E+01 0.  1.
         -5    1    4    4    0  502 -0.10491224217E+02  0.58271470774E+02  0.82875190545E+02  0.10196086161E+03  0.47000000000E+01 0.  1.
<mgrwt>
<rscale>  0 0.10003086E+04</rscale>
<asrwt>0</asrwt>
<pdfrwt beam="1">  1        2 0.27200941E-01 0.10003086E+04</pdfrwt>
<pdfrwt beam="2">  1       -2 0.21766938E+00 0.10003086E+04</pdfrwt>
<totfact> 0.21980863E+01</totfact>
</mgrwt>
</event>
<event>
 9    1  0.4497870E-036  0.9998205E+03  0.7818608E-02  0.8681209E-01
         -2   -1    0    0    0  501 -0.00000000000E+00  0.00000000000E+00  0.43329579185E+03  0.43329579185E+03  0.00000000000E+00 0. -1.
          2   -1    0    0  501    0  0.00000000000E+00 -0.00000000000E+00 -0.57676590408E+03  0.57676590408E+03  0.00000000000E+00 0. -1.
         36    2    1    2    0    0  0.00000000000E+00  0.00000000000E+00 -0.14347011223E+03  0.10100616959E+04  0.99982046213E+03 0.  0.
         25    2    3    3    0    0  0.80031821819E+02 -0.63523949971E+02 -0.12991699626E+03  0.20740226732E+03  0.12528722939E+03 0.  0.
         35    2    3    3    0    0 -0.80031821819E+02  0.63523949971E+02 -0.13553115968E+02  0.80265942862E+03  0.79601387342E+03 0.  0.
         22    1    5    5    0    0  0.10160250255E+03 -0.16472939377E+03  0.31098508206E+03  0.36629300152E+03  0.00000000000E+00 0.  1.
         22    1    5    5    0    0 -0.18163432437E+03  0.22825334374E+03 -0.32453819803E+03  0.43636642710E+03  0.00000000000E+00 0.  1.
          5    1    4    4  502    0  0.89025683299E+00 -0.17136291301E+02 -0.11251587220E+03  0.11391381186E+03  0.47000000000E+01 0. -1.
         -5    1    4    4    0  502  0.79141564986E+02 -0.46387658670E+02 -0.17401124064E+02  0.93488455458E+02  0.47000000000E+01 0. -1.
<mgrwt>
<rscale>  0 0.99982046E+03</rscale>
<asrwt>0</asrwt>
<pdfrwt beam="1">  1        2 0.88733216E-01 0.99982046E+03</pdfrwt>
<pdfrwt beam="2">  1       -2 0.66660891E-01 0.99982046E+03</pdfrwt>
<totfact> 0.13010633E+02</totfact>
</mgrwt>
</event>
<event>
 9    1  0.4497870E-036  0.9999773E+03  0.7818608E-02  0.8681060E-01
         -2   -1    0    0    0  501 -0.00000000000E+00  0.00000000000E+00  0.44787001447E+03  0.44787001447E+03  0.00000000000E+00 0.  1.
          2   -1    0    0  501    0  0.00000000000E+00 -0.00000000000E+00 -0.55817233743E+03  0.55817233743E+03  0.00000000000E+00 0.  1.
         36    2    1    2    0    0  0.35527136788E-14 -0.28421709430E-13 -0.11030232296E+03  0.10060423519E+04  0.99997730542E+03 0.  0.
         25    2    3    3    0    0 -0.31879114312E+02  0.93631035632E+02  0.78873854587E+02  0.17789984460E+03  0.12507686040E+03 0.  0.
         35    2    3    3    0    0  0.31879114312E+02 -0.93631035632E+02 -0.18917617754E+03  0.82814250729E+03  0.80015582075E+03 0.  0.
         22    1    5    5    0    0  0.97851225830E+01 -0.41712980372E+03 -0.26611895260E+03  0.49488616743E+03  0.00000000000E+00 0. -1.
         22    1    5    5    0    0  0.22093991729E+02  0.32349876809E+03  0.76942775060E+02  0.33325633987E+03  0.00000000000E+00 0. -1.
          5    1    4    4  502    0 -0.20424424927E+02  0.12446145950E+03  0.61234796990E+02  0.14028400621E+03  0.47000000000E+01 0. -1.
         -5    1    4    4    0  502 -0.11454689385E+02 -0.30830423871E+02  0.17639057597E+02  0.37615838392E+02  0.47000000000E+01 0. -1.
<mgrwt>
<rscale>  0 0.99997731E+03</rscale>
<asrwt>0</asrwt>
<pdfrwt beam="1">  1        2 0.85872667E-01 0.99997731E+03</pdfrwt>
<pdfrwt beam="2">  1       -2 0.68903079E-01 0.99997731E+03</pdfrwt>
<totfact> 0.12590598E+02</totfact>
</mgrwt>
</event>
<event>
 9    1  0.4497870E-036  0.1000446E+04  0.7818608E-02  0.8680614E-01
          2   -1    0    0  501    0  0.00000000000E+00  0.00000000000E+00  0.57773019124E+03  0.57773019124E+03  0.00000000000E+00 0.  1.
         -2   -1    0    0    0  501 -0.00000000000E+00 -0.00000000000E+00 -0.43311386263E+03  0.43311386263E+03  0.00000000000E+00 0.  1.
         36    2    1    2    0    0  0.17763568394E-14  0.71054273576E-14  0.14461632861E+03  0.10108440539E+04  0.10004458100E+04 0.  0.
         25    2    3    3    0    0 -0.62793597846E+01 -0.63051695373E+02  0.15456346203E+03  0.20822480497E+03  0.12430912663E+03 0.  0.
         35    2    3    3    0    0  0.62793597846E+01  0.63051695373E+02 -0.99471334234E+01  0.80261924890E+03  0.80005235240E+03 0.  0.
         22    1    5    5    0    0 -0.49616789191E+00  0.28763799827E+03 -0.31317156890E+03  0.42522029090E+03  0.00000000000E+00 0.  1.
         22    1    5    5    0    0  0.67755276766E+01 -0.22458630290E+03  0.30322443547E+03  0.37739895799E+03  0.00000000000E+00 0.  1.
          5    1    4    4  502    0  0.21069832095E+02 -0.78135131682E+02  0.41965816361E+02  0.91281193958E+02  0.47000000000E+01 0.  1.
         -5    1    4    4    0  502 -0.27349191880E+02  0.15083436309E+02  0.11259764567E+03  0.11694361102E+03  0.47000000000E+01 0.  1.
<mgrwt>
<rscale>  0 0.10004458E+04</rscale>
<asrwt>0</asrwt>
<pdfrwt beam="1">  1        2 0.88881568E-01 0.10004458E+04</pdfrwt>
<pdfrwt beam="2">  1       -2 0.66632902E-01 0.10004458E+04</pdfrwt>
<totfact> 0.12996573E+02</totfact>
</mgrwt>
</event>
<event>
 9    1  0.4497870E-036  0.1000682E+04  0.7818608E-02  0.8680389E-01
          1   -1    0    0  501    0  0.00000000000E+00  0.00000000000E+00  0.21545760947E+04  0.21545760947E+04  0.00000000000E+00 0. -1.
         -1   -1    0    0    0  501 -0.00000000000E+00 -0.00000000000E+00 -0.11619045561E+03  0.11619045561E+03  0.00000000000E+00 0. -1.
         36    2    1    2    0    0  0.28421709430E-13  0.00000000000E+00  0.20383856391E+04  0.22707665503E+04  0.10006821235E+04 0.  0.
         25    2    3    3    0    0 -0.80615281829E+01 -0.91496505787E+02  0.13949709253E+03  0.20805885707E+03  0.12406631442E+03 0.  0.
         35    2    3    3    0    0  0.80615281829E+01  0.91496505787E+02  0.18988885465E+04  0.20627076932E+04  0.80034287444E+03 0.  0.
         22    1    5    5    0    0 -0.32573461848E+03 -0.13747807771E+03  0.54528138791E+03  0.64987310725E+03  0.00000000000E+00 0. -1.
         22    1    5    5    0    0  0.33379614666E+03  0.22897458350E+03  0.13536071586E+04  0.14128345860E+04  0.00000000000E+00 0. -1.
          5    1    4    4  502    0 -0.63909387352E+02 -0.28981386973E+02  0.60337689253E+02  0.92666376464E+02  0.47000000000E+01 0.  1.
         -5    1    4    4    0  502  0.55847859170E+02 -0.62515118814E+02  0.79159403277E+02  0.11539248061E+03  0.47000000000E+01 0.  1.
<mgrwt>
<rscale>  0 0.10006821E+04</rscale>
<asrwt>0</asrwt>
<pdfrwt beam="1">  1        1 0.33147322E+00 0.10006821E+04</pdfrwt>
<pdfrwt beam="2">  1       -1 0.17875456E-01 0.10006821E+04</pdfrwt>
<totfact> 0.59691938E+01</totfact>
</mgrwt>
</event>
<event>
 9    1  0.4497870E-036  0.1001022E+04  0.7818608E-02  0.8680066E-01
         -2   -1    0    0    0  501 -0.00000000000E+00  0.00000000000E+00  0.88353161533E+03  0.88353161533E+03  0.00000000000E+00 0. -1.
          2   -1    0    0  501    0  0.00000000000E+00 -0.00000000000E+00 -0.28353381844E+03  0.28353381844E+03  0.00000000000E+00 0. -1.
         36    2    1    2    0    0  0.00000000000E+00  0.00000000000E+00  0.59999779690E+03  0.11670654338E+04  0.10010216633E+04 0.  0.
         25    2    3    3    0    0 -0.11845104096E+03 -0.74852551053E+02  0.99860672610E+02  0.21242239916E+03  0.12456953170E+03 0.  0.
         35    2    3    3    0    0  0.11845104096E+03  0.74852551053E+02  0.50013712429E+03  0.95464303461E+03  0.80098228878E+03 0.  0.
         22    1    5    5    0    0  0.40244550219E+03  0.24193001753E+03  0.37952814678E+03  0.60376661866E+03  0.00000000000E+00 0.  1.
         22    1    5    5    0    0 -0.28399446123E+03 -0.16707746648E+03  0.12060897751E+03  0.35087641595E+03  0.00000000000E+00 0.  1.
          5    1    4    4  502    0  0.22266937870E+02 -0.83556064936E+01  0.37575878284E+02  0.44717662180E+02  0.47000000000E+01 0.  1.
         -5    1    4    4    0  502 -0.14071797883E+03 -0.66496944560E+02  0.62284794326E+02  0.16770473698E+03  0.47000000000E+01 0.  1.
<mgrwt>
<rscale>  0 0.10010217E+04</rscale>
<asrwt>0</asrwt>
<pdfrwt beam="1">  1        2 0.43620588E-01 0.10010217E+04</pdfrwt>
<pdfrwt beam="2">  1       -2 0.13592794E+00 0.10010217E+04</pdfrwt>
<totfact> 0.52009868E+01</totfact>
</mgrwt>
</event>
<event>
 9    1  0.4497870E-036  0.1000131E+04  0.7818608E-02  0.8680914E-01
         -2   -1    0    0    0  501 -0.00000000000E+00  0.00000000000E+00  0.32479318574E+03  0.32479318574E+03  0.00000000000E+00 0.  1.
          2   -1    0    0  501    0  0.00000000000E+00 -0.00000000000E+00 -0.76992160341E+03  0.76992160341E+03  0.00000000000E+00 0.  1.
         36    2    1    2    0    0  0.00000000000E+00  0.00000000000E+00 -0.44512841767E+03  0.10947147891E+04  0.10001305722E+04 0.  0.
         25    2    3    3    0    0 -0.23037029224E+02 -0.10654934726E+03  0.16851380504E+02  0.16468975485E+03  0.12229177492E+03 0.  0.
         35    2    3    3    0    0  0.23037029224E+02  0.10654934726E+03 -0.46197979818E+03  0.93002503429E+03  0.79977356944E+03 0.  0.
         22    1    5    5    0    0 -0.12562729868E+03  0.10581724580E+03 -0.66128575148E+03  0.68137974199E+03  0.00000000000E+00 0.  1.
         22    1    5    5    0    0  0.14866432791E+03  0.73210145502E+00  0.19930595330E+03  0.24864529231E+03  0.00000000000E+00 0.  1.
          5    1    4    4  502    0 -0.41000885099E+02 -0.11593061307E+03 -0.17735088481E+02  0.12432860890E+03  0.47000000000E+01 0. -1.
         -5    1    4    4    0  502  0.17963855875E+02  0.93812658174E+01  0.34586468984E+02  0.40361145958E+02  0.47000000000E+01 0. -1.
<mgrwt>
<rscale>  0 0.10001306E+04</rscale>
<asrwt>0</asrwt>
<pdfrwt beam="1">  1        2 0.11844948E+00 0.10001306E+04</pdfrwt>
<pdfrwt beam="2">  1       -2 0.49968183E-01 0.10001306E+04</pdfrwt>
<totfact> 0.16620053E+02</totfact>
</mgrwt>
</event>
<event>
 9    1  0.4497870E-036  0.9999205E+03  0.7818608E-02  0.8681114E-01
          1   -1    0    0  501    0  0.00000000000E+00  0.00000000000E+00  0.33062958666E+03  0.33062958666E+03  0.00000000000E+00 0.  1.
         -1   -1    0    0    0  501 -0.00000000000E+00 -0.00000000000E+00 -0.75601293194E+03  0.75601293194E+03  0.00000000000E+00 0.  1.
         36    2    1    2    0    0 -0.28421709430E-13  0.42632564146E-13 -0.42538334529E+03  0.10866425186E+04  0.99992048323E+03 0.  0.
         25    2    3    3    0    0  0.10342045235E+03  0.79401263306E+02 -0.13197554778E+03  0.22407454165E+03  0.12566425278E+03 0.  0.
         35    2    3    3    0    0 -0.10342045235E+03 -0.79401263306E+02 -0.29340779751E+03  0.86256797695E+03  0.80058417961E+03 0.  0.
         22    1    5    5    0    0 -0.28054010762E+03  0.26469445880E+03 -0.27764876723E+03  0.47524177684E+03  0.00000000000E+00 0.  1.
         22    1    5    5    0    0  0.17711965527E+03 -0.34409572211E+03 -0.15759030271E+02  0.38732620011E+03  0.00000000000E+00 0.  1.
          5    1    4    4  502    0  0.12118106320E+03  0.94222176873E+02 -0.96208239302E+02  0.18122026377E+03  0.47000000000E+01 0. -1.
         -5    1    4    4    0  502 -0.17760610848E+02 -0.14820913566E+02 -0.35767308479E+02  0.42854277878E+02  0.47000000000E+01 0. -1.
<mgrwt>
<rscale>  0 0.99992048E+03</rscale>
<asrwt>0</asrwt>
<pdfrwt beam="1">  1        1 0.50866091E-01 0.99992048E+03</pdfrwt>
<pdfrwt beam="2">  1       -1 0.11630968E+00 0.99992048E+03</pdfrwt>
<totfact> 0.62016215E+01</totfact>
</mgrwt>
</event>
<event>
 9    1  0.4497870E-036  0.9997894E+03  0.7818608E-02  0.8681239E-01
         -2   -1    0    0    0  501 -0.00000000000E+00  0.00000000000E+00  0.15604465349E+03  0.15604465349E+03  0.00000000000E+00 0.  1.
          2   -1    0    0  501    0  0.00000000000E+00 -0.00000000000E+00 -0.16014307621E+04  0.16014307621E+04  0.00000000000E+00 0.  1.
         36    2    1    2    0    0 -0.28421709430E-13 -0.14210854715E-13 -0.14453861086E+04  0.17574754156E+04  0.99978939453E+03 0.  0.
         25    2    3    3    0    0  0.11969472795E+03 -0.68240752157E+02 -0.27133874484E+03  0.32901395855E+03  0.12506735111E+03 0.  0.
         35    2    3    3    0    0 -0.11969472795E+03  0.68240752157E+02 -0.11740473638E+04  0.14284614571E+04  0.80195467061E+03 0.  0.
         22    1    5    5    0    0  0.17081930115E+03 -0.29491614498E+03 -0.59593221998E+03  0.68650562782E+03  0.00000000000E+00 0. -1.
         22    1    5    5    0    0 -0.29051402909E+03  0.36315689714E+03 -0.57811514380E+03  0.74195582923E+03  0.00000000000E+00 0. -1.
          5    1    4    4  502    0  0.91760589165E+02 -0.92110916665E+02 -0.25922307906E+03  0.29003986176E+03  0.47000000000E+01 0.  1.
         -5    1    4    4    0  502  0.27934138783E+02  0.23870164508E+02 -0.12115665786E+02  0.38974096790E+02  0.47000000000E+01 0.  1.
<mgrwt>
<rscale>  0 0.99978939E+03</rscale>
<asrwt>0</asrwt>
<pdfrwt beam="1">  1        2 0.24637396E+00 0.99978939E+03</pdfrwt>
<pdfrwt beam="2">  1       -2 0.24006871E-01 0.99978939E+03</pdfrwt>
<totfact> 0.20463996E+02</totfact>
</mgrwt>
</event>
<event>
 9    1  0.4497870E-036  0.9996850E+03  0.7818608E-02  0.8681338E-01
         -1   -1    0    0    0  501 -0.00000000000E+00  0.00000000000E+00  0.56990792914E+03  0.56990792914E+03  0.00000000000E+00 0. -1.
          1   -1    0    0  501    0  0.00000000000E+00 -0.00000000000E+00 -0.43839105627E+03  0.43839105627E+03  0.00000000000E+00 0. -1.
         36    2    1    2    0    0  0.21316282073E-13  0.71054273576E-14  0.13151687287E+03  0.10082989854E+04  0.99968502846E+03 0.  0.
         25    2    3    3    0    0 -0.32623602589E+02 -0.57430959465E+02  0.14792893879E+03  0.20456365183E+03  0.12490277085E+03 0.  0.
         35    2    3    3    0    0  0.32623602589E+02  0.57430959465E+02 -0.16412065918E+02  0.80373533358E+03  0.80084862240E+03 0.  0.
         22    1    5    5    0    0 -0.25372186202E+03  0.22760163084E+03 -0.22712465427E+03  0.40958868906E+03  0.00000000000E+00 0.  1.
         22    1    5    5    0    0  0.28634546461E+03 -0.17017067137E+03  0.21071258835E+03  0.39414664452E+03  0.00000000000E+00 0.  1.
          5    1    4    4  502    0 -0.40882987465E+02 -0.67887547565E+02  0.28569621240E+02  0.84370913449E+02  0.47000000000E+01 0. -1.
         -5    1    4    4    0  502  0.82593848755E+01  0.10456588099E+02  0.11935931755E+03  0.12019273838E+03  0.47000000000E+01 0. -1.
<mgrwt>
<rscale>  0 0.99968503E+03</rscale>
<asrwt>0</asrwt>
<pdfrwt beam="1">  1        1 0.67444778E-01 0.99968503E+03</pdfrwt>
<pdfrwt beam="2">  1       -1 0.87678143E-01 0.99968503E+03</pdfrwt>
<totfact> 0.80651619E+01</totfact>
</mgrwt>
</event>
<event>
 9    1  0.4497870E-036  0.1001476E+04  0.7818608E-02  0.8679634E-01
         -2   -1    0    0    0  501 -0.00000000000E+00  0.00000000000E+00  0.16750719205E+03  0.16750719205E+03  0.00000000000E+00 0. -1.
          2   -1    0    0  501    0  0.00000000000E+00 -0.00000000000E+00 -0.14968807941E+04  0.14968807941E+04  0.00000000000E+00 0. -1.
         36    2    1    2    0    0  0.00000000000E+00  0.00000000000E+00 -0.13293736021E+04  0.16643879862E+04  0.10014755088E+04 0.  0.
         25    2    3    3    0    0 -0.14407352704E+02  0.26211900402E+02 -0.48194940241E+03  0.49874822959E+03  0.12481960784E+03 0.  0.
         35    2    3    3    0    0  0.14407352704E+02 -0.26211900402E+02 -0.84742419968E+03  0.11656397566E+04  0.79980849734E+03 0.  0.
         22    1    5    5    0    0 -0.25060794114E+03 -0.27270246254E+03 -0.66300041884E+03  0.75943434780E+03  0.00000000000E+00 0.  1.
         22    1    5    5    0    0  0.26501529385E+03  0.24649056214E+03 -0.18442378084E+03  0.40620540880E+03  0.00000000000E+00 0.  1.
          5    1    4    4  502    0  0.29962023314E+01  0.66645156608E+02 -0.40049906384E+03  0.40604451020E+03  0.47000000000E+01 0.  1.
         -5    1    4    4    0  502 -0.17403555036E+02 -0.40433256206E+02 -0.81450338568E+02  0.92703719387E+02  0.47000000000E+01 0.  1.
<mgrwt>
<rscale>  0 0.10014755E+04</rscale>
<asrwt>0</asrwt>
<pdfrwt beam="1">  1        2 0.23028935E+00 0.10014755E+04</pdfrwt>
<pdfrwt beam="2">  1       -2 0.25770338E-01 0.10014755E+04</pdfrwt>
<totfact> 0.20676392E+02</totfact>
</mgrwt>
</event>
<event>
 9    1  0.4497870E-036  0.1000990E+04  0.7818608E-02  0.8680096E-01
          2   -1    0    0  501    0  0.00000000000E+00  0.00000000000E+00  0.17835637614E+04  0.17835637614E+04  0.00000000000E+00 0.  1.
         -2   -1    0    0    0  501 -0.00000000000E+00 -0.00000000000E+00 -0.14044646112E+03  0.14044646112E+03  0.00000000000E+00 0.  1.
         36    2    1    2    0    0 -0.71054273576E-14  0.28421709430E-13  0.16431173002E+04  0.19240102225E+04  0.10009899469E+04 0.  0.
         25    2    3    3    0    0  0.49158681198E+02 -0.12451416116E+03  0.41057562562E+03  0.44928412411E+03  0.12394969769E+03 0.  0.
         35    2    3    3    0    0 -0.49158681198E+02  0.12451416116E+03  0.12325416746E+04  0.14747260984E+04  0.79858483162E+03 0.  0.
         22    1    5    5    0    0  0.31111663189E+03  0.20687355245E+03  0.32637843657E+03  0.49609788268E+03  0.00000000000E+00 0. -1.
         22    1    5    5    0    0 -0.36027531309E+03 -0.82359391295E+02  0.90616323804E+03  0.97862821568E+03  0.00000000000E+00 0. -1.
          5    1    4    4  502    0  0.60005325732E+02 -0.14577522541E+03  0.36519465438E+03  0.39779426975E+03  0.47000000000E+01 0.  1.
         -5    1    4    4    0  502 -0.10846644534E+02  0.21261064257E+02  0.45380971247E+02  0.51489854363E+02  0.47000000000E+01 0.  1.
<mgrwt>
<rscale>  0 0.10009899E+04</rscale>
<asrwt>0</asrwt>
<pdfrwt beam="1">  1        2 0.27439441E+00 0.10009899E+04</pdfrwt>
<pdfrwt beam="2">  1       -2 0.21607149E-01 0.10009899E+04</pdfrwt>
<totfact> 0.19436728E+02</totfact>
</mgrwt>
</event>
<event>
 9    1  0.4497870E-036  0.1000049E+04  0.7818608E-02  0.8680991E-01
          2   -1    0    0  501    0  0.00000000000E+00  0.00000000000E+00  0.12037985083E+04  0.12037985083E+04  0.00000000000E+00 0. -1.
         -2   -1    0    0    0  501 -0.00000000000E+00 -0.00000000000E+00 -0.20769635282E+03  0.20769635282E+03  0.00000000000E+00 0. -1.
         36    2    1    2    0    0  0.00000000000E+00  0.28421709430E-13  0.99610215550E+03  0.14114948611E+04  0.10000491182E+04 0.  0.
         25    2    3    3    0    0  0.12912149848E+03  0.38551247223E+02  0.14735627560E+03  0.23746829755E+03  0.12852532961E+03 0.  0.
         35    2    3    3    0    0 -0.12912149848E+03 -0.38551247223E+02  0.84874587990E+03  0.11740265636E+04  0.79988139329E+03 0.  0.
         22    1    5    5    0    0 -0.22650626798E+02 -0.29787683663E+03  0.20288114348E+02  0.29942489589E+03  0.00000000000E+00 0. -1.
         22    1    5    5    0    0 -0.10647087168E+03  0.25932558941E+03  0.82845776555E+03  0.87460166770E+03  0.00000000000E+00 0. -1.
          5    1    4    4  502    0  0.71451057905E+02  0.68699959222E+02  0.14029520074E+03  0.17184228648E+03  0.47000000000E+01 0.  1.
         -5    1    4    4    0  502  0.57670440570E+02 -0.30148711999E+02  0.70610748638E+01  0.65626011071E+02  0.47000000000E+01 0.  1.
<mgrwt>
<rscale>  0 0.10000491E+04</rscale>
<asrwt>0</asrwt>
<pdfrwt beam="1">  1        2 0.18519977E+00 0.10000491E+04</pdfrwt>
<pdfrwt beam="2">  1       -2 0.31953286E-01 0.10000491E+04</pdfrwt>
<totfact> 0.20667470E+02</totfact>
</mgrwt>
</event>
<event>
 9    1  0.4497870E-036  0.9999943E+03  0.7818608E-02  0.8681043E-01
         -4   -1    0    0    0  501 -0.00000000000E+00  0.00000000000E+00  0.30160787121E+03  0.30160787121E+03  0.00000000000E+00 0. -1.
          4   -1    0    0  501    0  0.00000000000E+00 -0.00000000000E+00 -0.82888136277E+03  0.82888136277E+03  0.00000000000E+00 0. -1.
         36    2    1    2    0    0 -0.14210854715E-13 -0.28421709430E-13 -0.52727349156E+03  0.11304892340E+04  0.99999428662E+03 0.  0.
         25    2    3    3    0    0 -0.73339375932E+02 -0.46881008949E+02 -0.22190675955E+03  0.26960722258E+03  0.12597202654E+03 0.  0.
         35    2    3    3    0    0  0.73339375932E+02  0.46881008949E+02 -0.30536673201E+03  0.86088201141E+03  0.80018279380E+03 0.  0.
         22    1    5    5    0    0 -0.18945011755E+03 -0.28588984146E+03 -0.26792415457E+03  0.43520995058E+03  0.00000000000E+00 0.  1.
         22    1    5    5    0    0  0.26278949348E+03  0.33277085041E+03 -0.37442577444E+02  0.42567206083E+03  0.00000000000E+00 0.  1.
          5    1    4    4  502    0 -0.51130939521E+02  0.23914233933E+02 -0.30637933161E+02  0.64397488377E+02  0.47000000000E+01 0. -1.
         -5    1    4    4    0  502 -0.22208436411E+02 -0.70795242882E+02 -0.19126882639E+03  0.20520973420E+03  0.47000000000E+01 0. -1.
<mgrwt>
<rscale>  0 0.99999429E+03</rscale>
<asrwt>0</asrwt>
<pdfrwt beam="1">  1        4 0.12752021E+00 0.99999429E+03</pdfrwt>
<pdfrwt beam="2">  1       -4 0.46401211E-01 0.99999429E+03</pdfrwt>
<totfact> 0.43231016E+00</totfact>
</mgrwt>
</event>
<event>
 9    1  0.4497870E-036  0.1000059E+04  0.7818608E-02  0.8680982E-01
          2   -1    0    0  501    0  0.00000000000E+00  0.00000000000E+00  0.10266035498E+04  0.10266035498E+04  0.00000000000E+00 0. -1.
         -2   -1    0    0    0  501 -0.00000000000E+00 -0.00000000000E+00 -0.24355015133E+03  0.24355015133E+03  0.00000000000E+00 0. -1.
         36    2    1    2    0    0  0.00000000000E+00  0.00000000000E+00  0.78305339844E+03  0.12701537011E+04  0.10000588981E+04 0.  0.
         25    2    3    3    0    0 -0.11214746461E+03 -0.55380743521E+02  0.25687840976E+03  0.31177279926E+03  0.12478653927E+03 0.  0.
         35    2    3    3    0    0  0.11214746461E+03  0.55380743521E+02  0.52617498868E+03  0.95838090185E+03  0.79119514265E+03 0.  0.
         22    1    5    5    0    0  0.27799078421E+03  0.22110563116E+02 -0.11024270145E+03  0.29986864846E+03  0.00000000000E+00 0. -1.
         22    1    5    5    0    0 -0.16584331960E+03  0.33270180405E+02  0.63641769013E+03  0.65851225339E+03  0.00000000000E+00 0. -1.
          5    1    4    4  502    0 -0.11169212956E+03 -0.28743397736E+02  0.10042770751E+03  0.15300042207E+03  0.47000000000E+01 0.  1.
         -5    1    4    4    0  502 -0.45533504523E+00 -0.26637345785E+02  0.15645070225E+03  0.15877237718E+03  0.47000000000E+01 0.  1.
<mgrwt>
<rscale>  0 0.10000589E+04</rscale>
<asrwt>0</asrwt>
<pdfrwt beam="1">  1        2 0.15793901E+00 0.10000589E+04</pdfrwt>
<pdfrwt beam="2">  1       -2 0.37469255E-01 0.10000589E+04</pdfrwt>
<totfact> 0.19659316E+02</totfact>
</mgrwt>
</event>
<event>
 9    1  0.4497870E-036  0.1000170E+04  0.7818608E-02  0.8680876E-01
         -1   -1    0    0    0  501 -0.00000000000E+00  0.00000000000E+00  0.14381643309E+04  0.14381643309E+04  0.00000000000E+00 0.  1.
          1   -1    0    0  501    0  0.00000000000E+00 -0.00000000000E+00 -0.17389179726E+03  0.17389179726E+03  0.00000000000E+00 0.  1.
         36    2    1    2    0    0 -0.14210854715E-13  0.00000000000E+00  0.12642725336E+04  0.16120561282E+04  0.10001699461E+04 0.  0.
         25    2    3    3    0    0  0.68722993918E+02 -0.82645905479E+02  0.38382344715E+03  0.41762447628E+03  0.12464577417E+03 0.  0.
         35    2    3    3    0    0 -0.68722993918E+02  0.82645905479E+02  0.88044908649E+03  0.11944316519E+04  0.79995198701E+03 0.  0.
         22    1    5    5    0    0  0.98901992537E+02 -0.30086899817E+03  0.63403583395E+03  0.70873492712E+03  0.00000000000E+00 0.  1.
         22    1    5    5    0    0 -0.16762498645E+03  0.38351490365E+03  0.24641325253E+03  0.48569672475E+03  0.00000000000E+00 0.  1.
          5    1    4    4  502    0  0.71630923978E+02 -0.10800684472E+03  0.25356152870E+03  0.28480169700E+03  0.47000000000E+01 0. -1.
         -5    1    4    4    0  502 -0.29079300602E+01  0.25360939245E+02  0.13026191845E+03  0.13282277928E+03  0.47000000000E+01 0. -1.
<mgrwt>
<rscale>  0 0.10001699E+04</rscale>
<asrwt>0</asrwt>
<pdfrwt beam="1">  1        1 0.26752585E-01 0.10001699E+04</pdfrwt>
<pdfrwt beam="2">  1       -1 0.22125604E+00 0.10001699E+04</pdfrwt>
<totfact> 0.18252093E+01</totfact>
</mgrwt>
</event>
<event>
 9    1  0.4497870E-036  0.1000129E+04  0.7818608E-02  0.8680915E-01
         -2   -1    0    0    0  501 -0.00000000000E+00  0.00000000000E+00  0.22774662600E+03  0.22774662600E+03  0.00000000000E+00 0.  1.
          2   -1    0    0  501    0  0.00000000000E+00 -0.00000000000E+00 -0.10979940920E+04  0.10979940920E+04  0.00000000000E+00 0.  1.
         36    2    1    2    0    0  0.14210854715E-13  0.00000000000E+00 -0.87024746603E+03  0.13257407180E+04  0.10001288914E+04 0.  0.
         25    2    3    3    0    0  0.11004362933E+03  0.86433660061E+02 -0.16328260353E+03  0.24870877876E+03  0.12495787318E+03 0.  0.
         35    2    3    3    0    0 -0.11004362933E+03 -0.86433660061E+02 -0.70696486250E+03  0.10770319393E+04  0.80038622142E+03 0.  0.
         22    1    5    5    0    0  0.34763022482E+03 -0.37678008111E+02 -0.34813754039E+03  0.49342289421E+03  0.00000000000E+00 0.  1.
         22    1    5    5    0    0 -0.45767385416E+03 -0.48755651950E+02 -0.35882732211E+03  0.58360904505E+03  0.00000000000E+00 0.  1.
          5    1    4    4  502    0  0.12983891488E+03  0.50336335412E+02 -0.94324786067E+02  0.16825916244E+03  0.47000000000E+01 0.  1.
         -5    1    4    4    0  502 -0.19795285548E+02  0.36097324650E+02 -0.68957817464E+02  0.80449616321E+02  0.47000000000E+01 0.  1.
<mgrwt>
<rscale>  0 0.10001289E+04</rscale>
<asrwt>0</asrwt>
<pdfrwt beam="1">  1        2 0.16892217E+00 0.10001289E+04</pdfrwt>
<pdfrwt beam="2">  1       -2 0.35037942E-01 0.10001289E+04</pdfrwt>
<totfact> 0.20157387E+02</totfact>
</mgrwt>
</event>
<event>
 9    1  0.4497870E-036  0.9998550E+03  0.7818608E-02  0.8681176E-01
         -1   -1    0    0    0  501 -0.00000000000E+00  0.00000000000E+00  0.21620626397E+03  0.21620626397E+03  0.00000000000E+00 0.  1.
          1   -1    0    0  501    0  0.00000000000E+00 -0.00000000000E+00 -0.11559678644E+04  0.11559678644E+04  0.00000000000E+00 0.  1.
         36    2    1    2    0    0 -0.24868995752E-13 -0.14210854715E-13 -0.93976160038E+03  0.13721741283E+04  0.99985497593E+03 0.  0.
         25    2    3    3    0    0  0.60997921407E+01 -0.10025599925E+03 -0.39645918940E+02  0.16488365270E+03  0.12460476392E+03 0.  0.
         35    2    3    3    0    0 -0.60997921407E+01  0.10025599925E+03 -0.90011568144E+03  0.12072904756E+04  0.79828164184E+03 0.  0.
         22    1    5    5    0    0 -0.16499866203E+03 -0.16571564520E+03  0.21648489977E+02  0.23485078381E+03  0.00000000000E+00 0.  1.
         22    1    5    5    0    0  0.15889886989E+03  0.26597164445E+03 -0.92176417142E+03  0.97243969182E+03  0.00000000000E+00 0.  1.
          5    1    4    4  502    0  0.10106577698E+02 -0.15535132404E+02 -0.71613445501E+02  0.74121918675E+02  0.47000000000E+01 0. -1.
         -5    1    4    4    0  502 -0.40067855574E+01 -0.84720866844E+02  0.31967526561E+02  0.90761734027E+02  0.47000000000E+01 0. -1.
<mgrwt>
<rscale>  0 0.99985498E+03</rscale>
<asrwt>0</asrwt>
<pdfrwt beam="1">  1        1 0.17784121E+00 0.99985498E+03</pdfrwt>
<pdfrwt beam="2">  1       -1 0.33262502E-01 0.99985498E+03</pdfrwt>
<totfact> 0.10824718E+02</totfact>
</mgrwt>
</event>
<event>
 9    1  0.4497870E-036  0.1000102E+04  0.7818608E-02  0.8680940E-01
         -2   -1    0    0    0  501 -0.00000000000E+00  0.00000000000E+00  0.10210531300E+03  0.10210531300E+03  0.00000000000E+00 0.  1.
          2   -1    0    0  501    0  0.00000000000E+00 -0.00000000000E+00 -0.24489537296E+04  0.24489537296E+04  0.00000000000E+00 0.  1.
         36    2    1    2    0    0  0.00000000000E+00  0.15543122345E-13 -0.23468484166E+04  0.25510590426E+04  0.10001023689E+04 0.  0.
         25    2    3    3    0    0 -0.71978355111E+02 -0.10430123076E+00 -0.74913808283E+03  0.76283096550E+03  0.12458860423E+03 0.  0.
         35    2    3    3    0    0  0.71978355111E+02  0.10430123076E+00 -0.15977103337E+04  0.17882280771E+04  0.79993777921E+03 0.  0.
         22    1    5    5    0    0 -0.54718832066E+02 -0.34796087030E+03 -0.11727083580E+04  0.12244655204E+04  0.00000000000E+00 0.  1.
         22    1    5    5    0    0  0.12669718718E+03  0.34806517153E+03 -0.42500197576E+03  0.56376255664E+03  0.00000000000E+00 0.  1.
          5    1    4    4  502    0  0.32033113048E+02  0.30297198962E+01 -0.30074122804E+03  0.30249409213E+03  0.47000000000E+01 0. -1.
         -5    1    4    4    0  502 -0.10401146816E+03 -0.31340211270E+01 -0.44839685479E+03  0.46033687337E+03  0.47000000000E+01 0. -1.
<mgrwt>
<rscale>  0 0.10001024E+04</rscale>
<asrwt>0</asrwt>
<pdfrwt beam="1">  1        2 0.37676211E+00 0.10001024E+04</pdfrwt>
<pdfrwt beam="2">  1       -2 0.15708510E-01 0.10001024E+04</pdfrwt>
<totfact> 0.13837492E+02</totfact>
</mgrwt>
</event>
<event>
 9    1  0.4497870E-036  0.9997185E+03  0.7818608E-02  0.8681306E-01
         -2   -1    0    0    0  501 -0.00000000000E+00  0.00000000000E+00  0.91588496662E+03  0.91588496662E+03  0.00000000000E+00 0. -1.
          2   -1    0    0  501    0  0.00000000000E+00 -0.00000000000E+00 -0.27280636983E+03  0.27280636983E+03  0.00000000000E+00 0. -1.
         36    2    1    2    0    0  0.56843418861E-13  0.00000000000E+00  0.64307859679E+03  0.11886913365E+04  0.99971846623E+03 0.  0.
         25    2    3    3    0    0 -0.71297203395E+02 -0.41119571489E+02  0.25606509993E+03  0.29672696116E+03  0.12531338198E+03 0.  0.
         35    2    3    3    0    0  0.71297203395E+02  0.41119571489E+02  0.38701349686E+03  0.89196437530E+03  0.79940408411E+03 0.  0.
         22    1    5    5    0    0  0.39746261648E+03  0.15541189941E+03  0.33482378731E+03  0.54243558007E+03  0.00000000000E+00 0.  1.
         22    1    5    5    0    0 -0.32616541309E+03 -0.11429232792E+03  0.52189709553E+02  0.34952879523E+03  0.00000000000E+00 0.  1.
          5    1    4    4  502    0 -0.25992596112E+02 -0.47579132366E+02  0.24283613845E+03  0.24885913491E+03  0.47000000000E+01 0.  1.
         -5    1    4    4    0  502 -0.45304607283E+02  0.64595608777E+01  0.13228961476E+02  0.47867826246E+02  0.47000000000E+01 0.  1.
<mgrwt>
<rscale>  0 0.99971847E+03</rscale>
<asrwt>0</asrwt>
<pdfrwt beam="1">  1        2 0.41970211E-01 0.99971847E+03</pdfrwt>
<pdfrwt beam="2">  1       -2 0.14090538E+00 0.99971847E+03</pdfrwt>
<totfact> 0.49227575E+01</totfact>
</mgrwt>
</event>
<event>
 9    1  0.4497870E-036  0.1000766E+04  0.7818608E-02  0.8680309E-01
          2   -1    0    0  501    0  0.00000000000E+00  0.00000000000E+00  0.13097617951E+04  0.13097617951E+04  0.00000000000E+00 0.  1.
         -2   -1    0    0    0  501 -0.00000000000E+00 -0.00000000000E+00 -0.19116700410E+03  0.19116700410E+03  0.00000000000E+00 0.  1.
         36    2    1    2    0    0  0.00000000000E+00  0.00000000000E+00  0.11185947910E+04  0.15009287992E+04  0.10007661834E+04 0.  0.
         25    2    3    3    0    0  0.71829232812E+02  0.29022906780E+02  0.38845793590E+03  0.41528766004E+03  0.12474976880E+03 0.  0.
         35    2    3    3    0    0 -0.71829232812E+02 -0.29022906780E+02  0.73013685514E+03  0.10856411392E+04  0.79969687262E+03 0.  0.
         22    1    5    5    0    0 -0.20506673098E+03  0.10136766388E+03 -0.89076312757E+02  0.24548392397E+03  0.00000000000E+00 0. -1.
         22    1    5    5    0    0  0.13323749817E+03 -0.13039057066E+03  0.81921316790E+03  0.84015721522E+03  0.00000000000E+00 0. -1.
          5    1    4    4  502    0  0.38870460926E+02  0.78199362390E+02  0.23349764094E+03  0.24933770540E+03  0.47000000000E+01 0. -1.
         -5    1    4    4    0  502  0.32958771886E+02 -0.49176455609E+02  0.15496029495E+03  0.16594995463E+03  0.47000000000E+01 0. -1.
<mgrwt>
<rscale>  0 0.10007662E+04</rscale>
<asrwt>0</asrwt>
<pdfrwt beam="1">  1        2 0.20150181E+00 0.10007662E+04</pdfrwt>
<pdfrwt beam="2">  1       -2 0.29410309E-01 0.10007662E+04</pdfrwt>
<totfact> 0.20854895E+02</totfact>
</mgrwt>
</event>
<event>
 9    1  0.4497870E-036  0.1000112E+04  0.7818608E-02  0.8680931E-01
         -2   -1    0    0    0  501 -0.00000000000E+00  0.00000000000E+00  0.89084254608E+02  0.89084254608E+02  0.00000000000E+00 0. -1.
          2   -1    0    0  501    0  0.00000000000E+00 -0.00000000000E+00 -0.28069633368E+04  0.28069633368E+04  0.00000000000E+00 0. -1.
         36    2    1    2    0    0  0.00000000000E+00  0.00000000000E+00 -0.27178790822E+04  0.28960475915E+04  0.10001124668E+04 0.  0.
         25    2    3    3    0    0 -0.13504298379E+03 -0.19999526916E+02 -0.42718855325E+03  0.46548144849E+03  0.12468492418E+03 0.  0.
         35    2    3    3    0    0  0.13504298379E+03  0.19999526916E+02 -0.22906905290E+04  0.24305661430E+04  0.80109430603E+03 0.  0.
         22    1    5    5    0    0  0.43630518335E+02 -0.38822257426E+03 -0.99162655235E+03  0.10658065531E+04  0.00000000000E+00 0. -1.
         22    1    5    5    0    0  0.91412465457E+02  0.40822210117E+03 -0.12990639766E+04  0.13647595899E+04  0.00000000000E+00 0. -1.
          5    1    4    4  502    0 -0.19490113578E+02 -0.59216114036E+02 -0.15632228929E+03  0.16836021150E+03  0.47000000000E+01 0. -1.
         -5    1    4    4    0  502 -0.11555287021E+03  0.39216587120E+02 -0.27086626396E+03  0.29712123699E+03  0.47000000000E+01 0. -1.
<mgrwt>
<rscale>  0 0.10001125E+04</rscale>
<asrwt>0</asrwt>
<pdfrwt beam="1">  1        2 0.43184052E+00 0.10001125E+04</pdfrwt>
<pdfrwt beam="2">  1       -2 0.13705270E-01 0.10001125E+04</pdfrwt>
<totfact> 0.10408917E+02</totfact>
</mgrwt>
</event>
<event>
 9    1  0.4497870E-036  0.1001906E+04  0.7818608E-02  0.8679225E-01
          1   -1    0    0  501    0  0.00000000000E+00  0.00000000000E+00  0.42647987930E+03  0.42647987930E+03  0.00000000000E+00 0.  1.
         -1   -1    0    0    0  501 -0.00000000000E+00 -0.00000000000E+00 -0.58843115100E+03  0.58843115100E+03  0.00000000000E+00 0.  1.
         36    2    1    2    0    0  0.00000000000E+00  0.14210854715E-13 -0.16195127170E+03  0.10149110303E+04  0.10019062756E+04 0.  0.
         25    2    3    3    0    0 -0.13290255133E+03 -0.42456330317E+02  0.28327479951E+00  0.18666305336E+03  0.12400559307E+03 0.  0.
         35    2    3    3    0    0  0.13290255133E+03  0.42456330317E+02 -0.16223454650E+03  0.82824797693E+03  0.80013063626E+03 0.  0.
         22    1    5    5    0    0 -0.31894998766E+03 -0.10583605281E+03 -0.51670005811E+02  0.34000022677E+03  0.00000000000E+00 0.  1.
         22    1    5    5    0    0  0.45185253899E+03  0.14829238312E+03 -0.11056454069E+03  0.48824775016E+03  0.00000000000E+00 0.  1.
          5    1    4    4  502    0 -0.81458391463E+02 -0.85815485818E+02 -0.81521416040E+01  0.11869420609E+03  0.47000000000E+01 0. -1.
         -5    1    4    4    0  502 -0.51444159864E+02  0.43359155501E+02  0.84354164035E+01  0.67968847274E+02  0.47000000000E+01 0. -1.
<mgrwt>
<rscale>  0 0.10019063E+04</rscale>
<asrwt>0</asrwt>
<pdfrwt beam="1">  1        1 0.65612290E-01 0.10019063E+04</pdfrwt>
<pdfrwt beam="2">  1       -1 0.90527869E-01 0.10019063E+04</pdfrwt>
<totfact> 0.78149298E+01</totfact>
</mgrwt>
</event>
<event>
 9    1  0.4497870E-036  0.1001710E+04  0.7818608E-02  0.8679411E-01
          1   -1    0    0  501    0  0.00000000000E+00  0.00000000000E+00  0.37112302562E+03  0.37112302562E+03  0.00000000000E+00 0. -1.
         -1   -1    0    0    0  501 -0.00000000000E+00 -0.00000000000E+00 -0.67593711935E+03  0.67593711935E+03  0.00000000000E+00 0. -1.
         36    2    1    2    0    0  0.00000000000E+00  0.14210854715E-13 -0.30481409373E+03  0.10470601450E+04  0.10017101953E+04 0.  0.
         25    2    3    3    0    0  0.12915394314E+03 -0.53997431234E+02 -0.34786943664E+02  0.18951999000E+03  0.12292774931E+03 0.  0.
         35    2    3    3    0    0 -0.12915394314E+03  0.53997431234E+02 -0.27002715007E+03  0.85754015497E+03  0.80178799692E+03 0.  0.
         22    1    5    5    0    0  0.23480406060E+03  0.14513586937E+03  0.13342258478E+03  0.30659248781E+03  0.00000000000E+00 0. -1.
         22    1    5    5    0    0 -0.36395800374E+03 -0.91138438138E+02 -0.40344973485E+03  0.55094766716E+03  0.00000000000E+00 0. -1.
          5    1    4    4  502    0  0.25994000689E+02 -0.41346078218E+01  0.43224535840E+02  0.50825520678E+02  0.47000000000E+01 0.  1.
         -5    1    4    4    0  502  0.10315994245E+03 -0.49862823413E+02 -0.78011479503E+02  0.13869446932E+03  0.47000000000E+01 0.  1.
<mgrwt>
<rscale>  0 0.10017102E+04</rscale>
<asrwt>0</asrwt>
<pdfrwt beam="1">  1        1 0.57095850E-01 0.10017102E+04</pdfrwt>
<pdfrwt beam="2">  1       -1 0.10399033E+00 0.10017102E+04</pdfrwt>
<totfact> 0.69261903E+01</totfact>
</mgrwt>
</event>
<event>
 9    1  0.4497870E-036  0.9994971E+03  0.7818608E-02  0.8681517E-01
          1   -1    0    0  501    0  0.00000000000E+00  0.00000000000E+00  0.60334007526E+03  0.60334007526E+03  0.00000000000E+00 0.  1.
         -1   -1    0    0    0  501 -0.00000000000E+00 -0.00000000000E+00 -0.41394336008E+03  0.41394336008E+03  0.00000000000E+00 0.  1.
         36    2    1    2    0    0 -0.14210854715E-13  0.00000000000E+00  0.18939671518E+03  0.10172834353E+04  0.99949710960E+03 0.  0.
         25    2    3    3    0    0 -0.13191261209E+02 -0.13207643496E+03  0.86394821915E+02  0.20162378111E+03  0.12477936452E+03 0.  0.
         35    2    3    3    0    0  0.13191261209E+02  0.13207643496E+03  0.10300189326E+03  0.81565965423E+03  0.79816858337E+03 0.  0.
         22    1    5    5    0    0 -0.31563443346E+03  0.13576749610E+03  0.27906653057E+03  0.44264662776E+03  0.00000000000E+00 0.  1.
         22    1    5    5    0    0  0.32882569467E+03 -0.36910611381E+01 -0.17606463731E+03  0.37301302647E+03  0.00000000000E+00 0.  1.
          5    1    4    4  502    0 -0.20351644580E+02 -0.10389023472E+03 -0.45097706947E+01  0.10606506653E+03  0.47000000000E+01 0.  1.
         -5    1    4    4    0  502  0.71603833712E+01 -0.28186200243E+02  0.90904592610E+02  0.95558714577E+02  0.47000000000E+01 0.  1.
<mgrwt>
<rscale>  0 0.99949711E+03</rscale>
<asrwt>0</asrwt>
<pdfrwt beam="1">  1        1 0.92821550E-01 0.99949711E+03</pdfrwt>
<pdfrwt beam="2">  1       -1 0.63683594E-01 0.99949711E+03</pdfrwt>
<totfact> 0.98829371E+01</totfact>
</mgrwt>
</event>
<event>
 9    1  0.4497870E-036  0.1000408E+04  0.7818608E-02  0.8680650E-01
         -1   -1    0    0    0  501 -0.00000000000E+00  0.00000000000E+00  0.22830809698E+03  0.22830809698E+03  0.00000000000E+00 0. -1.
          1   -1    0    0  501    0  0.00000000000E+00 -0.00000000000E+00 -0.10959046969E+04  0.10959046969E+04  0.00000000000E+00 0. -1.
         36    2    1    2    0    0  0.71054273576E-14  0.28421709430E-13 -0.86759659991E+03  0.13242127939E+04  0.10004077485E+04 0.  0.
         25    2    3    3    0    0  0.51757548343E+01 -0.13031962526E+03 -0.21918034787E+03  0.28455721840E+03  0.12618554784E+03 0.  0.
         35    2    3    3    0    0 -0.51757548343E+01  0.13031962526E+03 -0.64841625204E+03  0.10396555755E+04  0.80214093933E+03 0.  0.
         22    1    5    5    0    0 -0.83454584170E+02  0.23596352416E+03 -0.80044072681E+03  0.83865893514E+03  0.00000000000E+00 0. -1.
         22    1    5    5    0    0  0.78278829336E+02 -0.10564389890E+03  0.15202447477E+03  0.20099664034E+03  0.00000000000E+00 0. -1.
          5    1    4    4  502    0 -0.43553900968E+02 -0.77139521585E+02 -0.52999574296E+02  0.10333679381E+03  0.47000000000E+01 0.  1.
         -5    1    4    4    0  502  0.48729655802E+02 -0.53180103675E+02 -0.16618077357E+03  0.18122042458E+03  0.47000000000E+01 0.  1.
<mgrwt>
<rscale>  0 0.10004077E+04</rscale>
<asrwt>0</asrwt>
<pdfrwt beam="1">  1        1 0.16860072E+00 0.10004077E+04</pdfrwt>
<pdfrwt beam="2">  1       -1 0.35124322E-01 0.10004077E+04</pdfrwt>
<totfact> 0.10939015E+02</totfact>
</mgrwt>
</event>
<event>
 9    1  0.4497870E-036  0.1000113E+04  0.7818608E-02  0.8680930E-01
          1   -1    0    0  501    0  0.00000000000E+00  0.00000000000E+00  0.11764116089E+04  0.11764116089E+04  0.00000000000E+00 0. -1.
         -1   -1    0    0    0  501 -0.00000000000E+00 -0.00000000000E+00 -0.21255866347E+03  0.21255866347E+03  0.00000000000E+00 0. -1.
         36    2    1    2    0    0 -0.28421709430E-13 -0.28421709430E-13  0.96385294544E+03  0.13889702724E+04  0.10001129522E+04 0.  0.
         25    2    3    3    0    0  0.89004434822E+02  0.79856106397E+02  0.28239675530E+03  0.33120476219E+03  0.12509948020E+03 0.  0.
         35    2    3    3    0    0 -0.89004434822E+02 -0.79856106397E+02  0.68145619014E+03  0.10577655102E+04  0.80011658420E+03 0.  0.
         22    1    5    5    0    0 -0.26784727362E+03 -0.37526856247E+03  0.43140393726E+03  0.63140954463E+03  0.00000000000E+00 0.  1.
         22    1    5    5    0    0  0.17884283880E+03  0.29541245607E+03  0.25005225288E+03  0.42635596555E+03  0.00000000000E+00 0.  1.
          5    1    4    4  502    0  0.44049535437E+02  0.24165672553E+02  0.24533402868E+03  0.25046999208E+03  0.47000000000E+01 0.  1.
         -5    1    4    4    0  502  0.44954899385E+02  0.55690433844E+02  0.37062726619E+02  0.80734770111E+02  0.47000000000E+01 0.  1.
<mgrwt>
<rscale>  0 0.10001130E+04</rscale>
<asrwt>0</asrwt>
<pdfrwt beam="1">  1        1 0.18098640E+00 0.10001130E+04</pdfrwt>
<pdfrwt beam="2">  1       -1 0.32701334E-01 0.10001130E+04</pdfrwt>
<totfact> 0.10759543E+02</totfact>
</mgrwt>
</event>
<event>
 9    1  0.4497870E-036  0.1001040E+04  0.7818608E-02  0.8680048E-01
          2   -1    0    0  501    0  0.00000000000E+00  0.00000000000E+00  0.25683141133E+04  0.25683141133E+04  0.00000000000E+00 0. -1.
         -2   -1    0    0    0  501 -0.00000000000E+00 -0.00000000000E+00 -0.97542739480E+02  0.97542739480E+02  0.00000000000E+00 0. -1.
         36    2    1    2    0    0  0.00000000000E+00  0.00000000000E+00  0.24707713738E+04  0.26658568528E+04  0.10010402479E+04 0.  0.
         25    2    3    3    0    0  0.65070011207E+02  0.95272457444E+02  0.68162090187E+03  0.70270843587E+03  0.12602041295E+03 0.  0.
         35    2    3    3    0    0 -0.65070011207E+02 -0.95272457444E+02  0.17891504720E+04  0.19631484169E+04  0.79973829971E+03 0.  0.
         22    1    5    5    0    0 -0.17400443295E+03  0.10702037658E+03  0.51900963099E+02  0.21077147260E+03  0.00000000000E+00 0.  1.
         22    1    5    5    0    0  0.10893442174E+03 -0.20229283402E+03  0.17372495089E+04  0.17523769443E+04  0.00000000000E+00 0.  1.
          5    1    4    4  502    0 -0.38053956689E+02  0.22813409027E+02  0.18979144350E+03  0.19496522069E+03  0.47000000000E+01 0. -1.
         -5    1    4    4    0  502  0.10312396790E+03  0.72459048417E+02  0.49182945837E+03  0.50774321519E+03  0.47000000000E+01 0. -1.
<mgrwt>
<rscale>  0 0.10010402E+04</rscale>
<asrwt>0</asrwt>
<pdfrwt beam="1">  1        2 0.39512520E+00 0.10010402E+04</pdfrwt>
<pdfrwt beam="2">  1       -2 0.15006577E-01 0.10010402E+04</pdfrwt>
<totfact> 0.12638055E+02</totfact>
</mgrwt>
</event>
<event>
 9    1  0.4497870E-036  0.1000625E+04  0.7818608E-02  0.8680443E-01
         -1   -1    0    0    0  501 -0.00000000000E+00  0.00000000000E+00  0.99831814045E+02  0.99831814045E+02  0.00000000000E+00 0.  1.
          1   -1    0    0  501    0  0.00000000000E+00 -0.00000000000E+00 -0.25073430544E+04  0.25073430544E+04  0.00000000000E+00 0.  1.
         36    2    1    2    0    0 -0.28421709430E-13  0.00000000000E+00 -0.24075112403E+04  0.26071748684E+04  0.10006250158E+04 0.  0.
         25    2    3    3    0    0  0.13055221965E+03 -0.51372758887E+02 -0.42856380525E+03  0.46788329037E+03  0.12475895090E+03 0.  0.
         35    2    3    3    0    0 -0.13055221965E+03  0.51372758887E+02 -0.19789474351E+04  0.21392915780E+04  0.80040768529E+03 0.  0.
         22    1    5    5    0    0 -0.32592958963E+03  0.31602010039E+03 -0.85313857244E+03  0.96640789785E+03  0.00000000000E+00 0.  1.
         22    1    5    5    0    0  0.19537736998E+03 -0.26464734150E+03 -0.11258088626E+04  0.11728836802E+04  0.00000000000E+00 0.  1.
          5    1    4    4  502    0  0.41736854180E+02 -0.23252060006E+02 -0.25884031120E+02  0.54540777024E+02  0.47000000000E+01 0. -1.
         -5    1    4    4    0  502  0.88815365472E+02 -0.28120698881E+02 -0.40267977413E+03  0.41334251335E+03  0.47000000000E+01 0. -1.
<mgrwt>
<rscale>  0 0.10006250E+04</rscale>
<asrwt>0</asrwt>
<pdfrwt beam="1">  1        1 0.38574504E+00 0.10006250E+04</pdfrwt>
<pdfrwt beam="2">  1       -1 0.15358742E-01 0.10006250E+04</pdfrwt>
<totfact> 0.43185637E+01</totfact>
</mgrwt>
</event>
<event>
 9    1  0.4497870E-036  0.1003736E+04  0.7818608E-02  0.8677488E-01
         -1   -1    0    0    0  501 -0.00000000000E+00  0.00000000000E+00  0.29238417865E+03  0.29238417865E+03  0.00000000000E+00 0.  1.
          1   -1    0    0  501    0  0.00000000000E+00 -0.00000000000E+00 -0.86144026639E+03  0.86144026639E+03  0.00000000000E+00 0.  1.
         36    2    1    2    0    0 -0.35527136788E-14  0.71054273576E-14 -0.56905608773E+03  0.11538244450E+04  0.10037360305E+04 0.  0.
         25    2    3    3    0    0 -0.23305188846E+02 -0.14256596717E+02  0.56133135212E+02  0.13876475457E+03  0.12392879353E+03 0.  0.
         35    2    3    3    0    0  0.23305188846E+02  0.14256596717E+02 -0.62518922295E+03  0.10150596905E+04  0.79921100364E+03 0.  0.
         22    1    5    5    0    0 -0.38017207018E+03  0.69618067567E+02 -0.36619197493E+03  0.53242280265E+03  0.00000000000E+00 0. -1.
         22    1    5    5    0    0  0.40347725902E+03 -0.55361470850E+02 -0.25899724802E+03  0.48263688782E+03  0.00000000000E+00 0. -1.
          5    1    4    4  502    0 -0.15165857363E+02  0.46522357955E+02  0.59490062292E+02  0.77171824721E+02  0.47000000000E+01 0. -1.
         -5    1    4    4    0  502 -0.81393314829E+01 -0.60778954672E+02 -0.33569270801E+01  0.61592929849E+02  0.47000000000E+01 0. -1.
<mgrwt>
<rscale>  0 0.10037360E+04</rscale>
<asrwt>0</asrwt>
<pdfrwt beam="1">  1        1 0.13252927E+00 0.10037360E+04</pdfrwt>
<pdfrwt beam="2">  1       -1 0.44982182E-01 0.10037360E+04</pdfrwt>
<totfact> 0.10872053E+02</totfact>
</mgrwt>
</event>
<event>
 9    1  0.4497870E-036  0.1000240E+04  0.7818608E-02  0.8680809E-01
         -2   -1    0    0    0  501 -0.00000000000E+00  0.00000000000E+00  0.43851645140E+03  0.43851645140E+03  0.00000000000E+00 0.  1.
          2   -1    0    0  501    0  0.00000000000E+00 -0.00000000000E+00 -0.57037788895E+03  0.57037788895E+03  0.00000000000E+00 0.  1.
         36    2    1    2    0    0 -0.28421709430E-13  0.00000000000E+00 -0.13186143755E+03  0.10088943403E+04  0.10002401468E+04 0.  0.
         25    2    3    3    0    0 -0.97186059907E+02 -0.62407826384E+02  0.55422640929E+02  0.17854620815E+03  0.12436724763E+03 0.  0.
         35    2    3    3    0    0  0.97186059907E+02  0.62407826384E+02 -0.18728407848E+03  0.83034813219E+03  0.80066399166E+03 0.  0.
         22    1    5    5    0    0  0.30754941665E+03  0.22748625120E+03  0.14032372028E+03  0.40746458084E+03  0.00000000000E+00 0.  1.
         22    1    5    5    0    0 -0.21036335674E+03 -0.16507842482E+03 -0.32760779876E+03  0.42288355135E+03  0.00000000000E+00 0.  1.
          5    1    4    4  502    0 -0.37887848391E+02 -0.65920434915E+02  0.83196142988E+02  0.11280372779E+03  0.47000000000E+01 0.  1.
         -5    1    4    4    0  502 -0.59298211516E+02  0.35126085316E+01 -0.27773502059E+02  0.65742480363E+02  0.47000000000E+01 0.  1.
<mgrwt>
<rscale>  0 0.10002401E+04</rscale>
<asrwt>0</asrwt>
<pdfrwt beam="1">  1        2 0.87750444E-01 0.10002401E+04</pdfrwt>
<pdfrwt beam="2">  1       -2 0.67464070E-01 0.10002401E+04</pdfrwt>
<totfact> 0.12847270E+02</totfact>
</mgrwt>
</event>
<event>
 9    1  0.4497870E-036  0.9999150E+03  0.7818608E-02  0.8681119E-01
          1   -1    0    0  501    0  0.00000000000E+00  0.00000000000E+00  0.36296611408E+03  0.36296611408E+03  0.00000000000E+00 0.  1.
         -1   -1    0    0    0  501 -0.00000000000E+00 -0.00000000000E+00 -0.68865239993E+03  0.68865239993E+03  0.00000000000E+00 0.  1.
         36    2    1    2    0    0  0.35527136788E-14 -0.56843418861E-13 -0.32568628585E+03  0.10516185140E+04  0.99991496750E+03 0.  0.
         25    2    3    3    0    0  0.29265318414E+02  0.14043343166E+03 -0.55192500944E+02  0.19818605062E+03  0.12511391173E+03 0.  0.
         35    2    3    3    0    0 -0.29265318414E+02 -0.14043343166E+03 -0.27049378491E+03  0.85343246340E+03  0.79661915262E+03 0.  0.
         22    1    5    5    0    0 -0.79901451778E+02  0.32832107067E+03 -0.10840948600E+03  0.35486840392E+03  0.00000000000E+00 0.  1.
         22    1    5    5    0    0  0.50636133364E+02 -0.46875450233E+03 -0.16208429891E+03  0.49856405949E+03  0.00000000000E+00 0.  1.
          5    1    4    4  502    0  0.28528165868E+02 -0.15833473216E+02 -0.17692695192E+02  0.37412251804E+02  0.47000000000E+01 0. -1.
         -5    1    4    4    0  502  0.73715254599E+00  0.15626690487E+03 -0.37499805752E+02  0.16077379881E+03  0.47000000000E+01 0. -1.
<mgrwt>
<rscale>  0 0.99991497E+03</rscale>
<asrwt>0</asrwt>
<pdfrwt beam="1">  1        1 0.55840941E-01 0.99991497E+03</pdfrwt>
<pdfrwt beam="2">  1       -1 0.10594652E+00 0.99991497E+03</pdfrwt>
<totfact> 0.68364869E+01</totfact>
</mgrwt>
</event>
<event>
 9    1  0.4497870E-036  0.9998797E+03  0.7818608E-02  0.8681153E-01
         -4   -1    0    0    0  501 -0.00000000000E+00  0.00000000000E+00  0.81711846193E+03  0.81711846193E+03  0.00000000000E+00 0.  1.
          4   -1    0    0  501    0  0.00000000000E+00 -0.00000000000E+00 -0.30587959181E+03  0.30587959181E+03  0.00000000000E+00 0.  1.
         36    2    1    2    0    0 -0.71054273576E-14 -0.56843418861E-13  0.51123887012E+03  0.11229980537E+04  0.99987971596E+03 0.  0.
         25    2    3    3    0    0 -0.26658089384E+02  0.74701911160E+02  0.22519101638E+03  0.26991121316E+03  0.12589694146E+03 0.  0.
         35    2    3    3    0    0  0.26658089384E+02 -0.74701911160E+02  0.28604785374E+03  0.85308684058E+03  0.79977668989E+03 0.  0.
         22    1    5    5    0    0  0.90434156952E+02 -0.36360125079E+03  0.38874568821E+03  0.53991426766E+03  0.00000000000E+00 0. -1.
         22    1    5    5    0    0 -0.63776067569E+02  0.28889933963E+03 -0.10269783447E+03  0.31317257293E+03  0.00000000000E+00 0. -1.
          5    1    4    4  502    0 -0.29245137736E+02  0.75737640344E+02  0.51769248191E+02  0.96403388448E+02  0.47000000000E+01 0. -1.
         -5    1    4    4    0  502  0.25870483519E+01 -0.10357291840E+01  0.17342176819E+03  0.17350782471E+03  0.47000000000E+01 0. -1.
<mgrwt>
<rscale>  0 0.99987972E+03</rscale>
<asrwt>0</asrwt>
<pdfrwt beam="1">  1        4 0.47058399E-01 0.99987972E+03</pdfrwt>
<pdfrwt beam="2">  1       -4 0.12571053E+00 0.99987972E+03</pdfrwt>
<totfact> 0.43914480E+00</totfact>
</mgrwt>
</event>
<event>
 9    1  0.4497870E-036  0.1000218E+04  0.7818608E-02  0.8680831E-01
          2   -1    0    0  501    0  0.00000000000E+00  0.00000000000E+00  0.11910141238E+04  0.11910141238E+04  0.00000000000E+00 0.  1.
         -2   -1    0    0    0  501 -0.00000000000E+00 -0.00000000000E+00 -0.20999652734E+03  0.20999652734E+03  0.00000000000E+00 0.  1.
         36    2    1    2    0    0  0.00000000000E+00 -0.28421709430E-13  0.98101759651E+03  0.14010106512E+04  0.10002176363E+04 0.  0.
         25    2    3    3    0    0 -0.41885937210E+02 -0.89667580900E+02  0.32344468859E+03  0.36032045308E+03  0.12417590558E+03 0.  0.
         35    2    3    3    0    0  0.41885937210E+02  0.89667580900E+02  0.65757290792E+03  0.10406901981E+04  0.80052436091E+03 0.  0.
         22    1    5    5    0    0 -0.29893848671E+03  0.14941465618E+03  0.60434942888E+03  0.69059915328E+03  0.00000000000E+00 0. -1.
         22    1    5    5    0    0  0.34082442393E+03 -0.59747075282E+02  0.53223479042E+02  0.35009104483E+03  0.00000000000E+00 0. -1.
          5    1    4    4  502    0  0.37763073403E+02 -0.61498644410E+02  0.12196584149E+03  0.14179523782E+03  0.47000000000E+01 0. -1.
         -5    1    4    4    0  502 -0.79649010613E+02 -0.28168936490E+02  0.20147884710E+03  0.21852521526E+03  0.47000000000E+01 0. -1.
<mgrwt>
<rscale>  0 0.10002176E+04</rscale>
<asrwt>0</asrwt>
<pdfrwt beam="1">  1        2 0.18323294E+00 0.10002176E+04</pdfrwt>
<pdfrwt beam="2">  1       -2 0.32307159E-01 0.10002176E+04</pdfrwt>
<totfact> 0.20608453E+02</totfact>
</mgrwt>
</event>
<event>
 9    1  0.4497870E-036  0.1001111E+04  0.7818608E-02  0.8679981E-01
          1   -1    0    0  501    0  0.00000000000E+00  0.00000000000E+00  0.46788479099E+03  0.46788479099E+03  0.00000000000E+00 0. -1.
         -1   -1    0    0    0  501 -0.00000000000E+00 -0.00000000000E+00 -0.53550712649E+03  0.53550712649E+03  0.00000000000E+00 0. -1.
         36    2    1    2    0    0  0.00000000000E+00  0.00000000000E+00 -0.67622335492E+02  0.10033919175E+04  0.10011106631E+04 0.  0.
         25    2    3    3    0    0  0.91044521001E+02  0.70606740950E+02  0.69913847068E+02  0.18407792217E+03  0.12538867072E+03 0.  0.
         35    2    3    3    0    0 -0.91044521001E+02 -0.70606740950E+02 -0.13753618256E+03  0.81931399531E+03  0.79942779832E+03 0.  0.
         22    1    5    5    0    0  0.16625593934E+03 -0.20754862373E+03  0.22905160219E+03  0.35097308307E+03  0.00000000000E+00 0.  1.
         22    1    5    5    0    0 -0.25730046034E+03  0.13694188278E+03 -0.36658778475E+03  0.46834091224E+03  0.00000000000E+00 0.  1.
          5    1    4    4  502    0 -0.19038641193E+02  0.11934590015E+02 -0.19830153819E+02  0.30335281403E+02  0.47000000000E+01 0.  1.
         -5    1    4    4    0  502  0.11008316219E+03  0.58672150935E+02  0.89744000887E+02  0.15374264076E+03  0.47000000000E+01 0.  1.
<mgrwt>
<rscale>  0 0.10011107E+04</rscale>
<asrwt>0</asrwt>
<pdfrwt beam="1">  1        1 0.71982276E-01 0.10011107E+04</pdfrwt>
<pdfrwt beam="2">  1       -1 0.82385712E-01 0.10011107E+04</pdfrwt>
<totfact> 0.84242750E+01</totfact>
</mgrwt>
</event>
<event>
 9    1  0.4497870E-036  0.9994164E+03  0.7818608E-02  0.8681594E-01
         -2   -1    0    0    0  501 -0.00000000000E+00  0.00000000000E+00  0.19323345619E+03  0.19323345619E+03  0.00000000000E+00 0.  1.
          2   -1    0    0  501    0  0.00000000000E+00 -0.00000000000E+00 -0.12922621000E+04  0.12922621000E+04  0.00000000000E+00 0.  1.
         36    2    1    2    0    0 -0.42632564146E-13  0.28421709430E-13 -0.10990286438E+04  0.14854955562E+04  0.99941637347E+03 0.  0.
         25    2    3    3    0    0 -0.64481333343E+02 -0.11160834210E+03 -0.27916650904E+03  0.33210542522E+03  0.12548230677E+03 0.  0.
         35    2    3    3    0    0  0.64481333343E+02  0.11160834210E+03 -0.81986213475E+03  0.11533901310E+04  0.80094981730E+03 0.  0.
         22    1    5    5    0    0  0.30562587822E+03 -0.22466963211E+03 -0.27176190542E+03  0.46662421097E+03  0.00000000000E+00 0.  1.
         22    1    5    5    0    0 -0.24114454488E+03  0.33627797420E+03 -0.54810022933E+03  0.68676591999E+03  0.00000000000E+00 0.  1.
          5    1    4    4  502    0  0.10374212303E+02  0.80211692977E+01  0.49938374639E+01  0.14798373236E+02  0.47000000000E+01 0. -1.
         -5    1    4    4    0  502 -0.74855545647E+02 -0.11962951139E+03 -0.28416034651E+03  0.31730705198E+03  0.47000000000E+01 0. -1.
<mgrwt>
<rscale>  0 0.99941637E+03</rscale>
<asrwt>0</asrwt>
<pdfrwt beam="1">  1        2 0.19880956E+00 0.99941637E+03</pdfrwt>
<pdfrwt beam="2">  1       -2 0.29728224E-01 0.99941637E+03</pdfrwt>
<totfact> 0.20934782E+02</totfact>
</mgrwt>
</event>
<event>
 9    1  0.4497870E-036  0.9985416E+03  0.7818608E-02  0.8682428E-01
          1   -1    0    0  501    0  0.00000000000E+00  0.00000000000E+00  0.10455833792E+04  0.10455833792E+04  0.00000000000E+00 0.  1.
         -1   -1    0    0    0  501 -0.00000000000E+00 -0.00000000000E+00 -0.23840406340E+03  0.23840406340E+03  0.00000000000E+00 0.  1.
         36    2    1    2    0    0  0.00000000000E+00  0.00000000000E+00  0.80717931578E+03  0.12839874426E+04  0.99854158896E+03 0.  0.
         25    2    3    3    0    0 -0.91953043443E+02 -0.70257973029E+02  0.20509884143E+03  0.26636943301E+03  0.12448130427E+03 0.  0.
         35    2    3    3    0    0  0.91953043443E+02  0.70257973029E+02  0.60208047435E+03  0.10176180096E+04  0.81219084631E+03 0.  0.
         22    1    5    5    0    0  0.12909003056E+03  0.27019671137E+03  0.72192936062E+03  0.78157053460E+03  0.00000000000E+00 0.  1.
         22    1    5    5    0    0 -0.37136987117E+02 -0.19993873834E+03 -0.11984888627E+03  0.23604747497E+03  0.00000000000E+00 0.  1.
          5    1    4    4  502    0 -0.11365001636E+01 -0.76705937165E+02  0.74032805915E+02  0.10671475428E+03  0.47000000000E+01 0. -1.
         -5    1    4    4    0  502 -0.90816543279E+02  0.64479641362E+01  0.13106603552E+03  0.15965467873E+03  0.47000000000E+01 0. -1.
<mgrwt>
<rscale>  0 0.99854159E+03</rscale>
<asrwt>0</asrwt>
<pdfrwt beam="1">  1        1 0.16085898E+00 0.99854159E+03</pdfrwt>
<pdfrwt beam="2">  1       -1 0.36677549E-01 0.99854159E+03</pdfrwt>
<totfact> 0.11095446E+02</totfact>
</mgrwt>
</event>
<event>
 9    1  0.4497870E-036  0.1000450E+04  0.7818608E-02  0.8680609E-01
          2   -1    0    0  501    0  0.00000000000E+00  0.00000000000E+00  0.47218777032E+03  0.47218777032E+03  0.00000000000E+00 0. -1.
         -2   -1    0    0    0  501 -0.00000000000E+00 -0.00000000000E+00 -0.52992741232E+03  0.52992741232E+03  0.00000000000E+00 0. -1.
         36    2    1    2    0    0  0.00000000000E+00  0.00000000000E+00 -0.57739642000E+02  0.10021151826E+04  0.10004503851E+04 0.  0.
         25    2    3    3    0    0 -0.41653850705E+02  0.67361122844E+02  0.10274775801E+03  0.18029073609E+03  0.12520017410E+03 0.  0.
         35    2    3    3    0    0  0.41653850705E+02 -0.67361122844E+02 -0.16048740001E+03  0.82182444656E+03  0.80210139711E+03 0.  0.
         22    1    5    5    0    0  0.11353246320E+03  0.20738468395E+03  0.23604257566E+03  0.33408700193E+03  0.00000000000E+00 0.  1.
         22    1    5    5    0    0 -0.71878612496E+02 -0.27474580680E+03 -0.39652997566E+03  0.48773744462E+03  0.00000000000E+00 0.  1.
          5    1    4    4  502    0 -0.41049977844E+02  0.10359745038E+03  0.79746502935E+02  0.13710990897E+03  0.47000000000E+01 0. -1.
         -5    1    4    4    0  502 -0.60387286129E+00 -0.36236327539E+02  0.23001255073E+02  0.43180827121E+02  0.47000000000E+01 0. -1.
<mgrwt>
<rscale>  0 0.10004504E+04</rscale>
<asrwt>0</asrwt>
<pdfrwt beam="1">  1        2 0.72644273E-01 0.10004504E+04</pdfrwt>
<pdfrwt beam="2">  1       -2 0.81527294E-01 0.10004504E+04</pdfrwt>
<totfact> 0.10487853E+02</totfact>
</mgrwt>
</event>
<event>
 9    1  0.4497870E-036  0.1000119E+04  0.7818608E-02  0.8680924E-01
         -2   -1    0    0    0  501 -0.00000000000E+00  0.00000000000E+00  0.42091255774E+03  0.42091255774E+03  0.00000000000E+00 0. -1.
          2   -1    0    0  501    0  0.00000000000E+00 -0.00000000000E+00 -0.59408944855E+03  0.59408944855E+03  0.00000000000E+00 0. -1.
         36    2    1    2    0    0  0.14210854715E-13  0.00000000000E+00 -0.17317689081E+03  0.10150020063E+04  0.10001194115E+04 0.  0.
         25    2    3    3    0    0 -0.11191340348E+03  0.90449059702E+02 -0.38791688455E+02  0.19276423929E+03  0.12226043749E+03 0.  0.
         35    2    3    3    0    0  0.11191340348E+03 -0.90449059702E+02 -0.13438520236E+03  0.82223776701E+03  0.79831692992E+03 0.  0.
         22    1    5    5    0    0 -0.32848007942E+03 -0.73208659295E+01  0.59535651967E+02  0.33391204157E+03  0.00000000000E+00 0. -1.
         22    1    5    5    0    0  0.44039348290E+03 -0.83128193772E+02 -0.19392085433E+03  0.48832572543E+03  0.00000000000E+00 0. -1.
          5    1    4    4  502    0  0.16249024923E+02 -0.14746293300E+02 -0.92947697842E+01  0.24289230584E+02  0.47000000000E+01 0. -1.
         -5    1    4    4    0  502 -0.12816242840E+03  0.10519535300E+03 -0.29496918670E+02  0.16847500870E+03  0.47000000000E+01 0. -1.
<mgrwt>
<rscale>  0 0.10001194E+04</rscale>
<asrwt>0</asrwt>
<pdfrwt beam="1">  1        2 0.91398376E-01 0.10001194E+04</pdfrwt>
<pdfrwt beam="2">  1       -2 0.64755778E-01 0.10001194E+04</pdfrwt>
<totfact> 0.13366360E+02</totfact>
</mgrwt>
</event>
<event>
 9    1  0.4497870E-036  0.9988801E+03  0.7818608E-02  0.8682105E-01
          1   -1    0    0  501    0  0.00000000000E+00  0.00000000000E+00  0.10978832153E+04  0.10978832153E+04  0.00000000000E+00 0.  1.
         -1   -1    0    0    0  501 -0.00000000000E+00 -0.00000000000E+00 -0.22720116975E+03  0.22720116975E+03  0.00000000000E+00 0.  1.
         36    2    1    2    0    0  0.28421709430E-13  0.28421709430E-13  0.87068204558E+03  0.13250843851E+04  0.99888007443E+03 0.  0.
         25    2    3    3    0    0  0.71810606775E+02  0.11628007431E+03  0.16904096548E+03  0.25187362113E+03  0.12723071203E+03 0.  0.
         35    2    3    3    0    0 -0.71810606775E+02 -0.11628007431E+03  0.70164108011E+03  0.10732107640E+04  0.80050191733E+03 0.  0.
         22    1    5    5    0    0 -0.32054826354E+03 -0.29825761474E+03  0.61151803999E+03  0.75210578195E+03  0.00000000000E+00 0. -1.
         22    1    5    5    0    0  0.24873765676E+03  0.18197754043E+03  0.90123040116E+02  0.32110498201E+03  0.00000000000E+00 0. -1.
          5    1    4    4  502    0 -0.24302787890E+02  0.76121357807E+02  0.53712402653E+02  0.96396051851E+02  0.47000000000E+01 0. -1.
         -5    1    4    4    0  502  0.96113394665E+02  0.40158716503E+02  0.11532856283E+03  0.15547756928E+03  0.47000000000E+01 0. -1.
<mgrwt>
<rscale>  0 0.99888007E+03</rscale>
<asrwt>0</asrwt>
<pdfrwt beam="1">  1        1 0.16890511E+00 0.99888007E+03</pdfrwt>
<pdfrwt beam="2">  1       -1 0.34954027E-01 0.99888007E+03</pdfrwt>
<totfact> 0.10995138E+02</totfact>
</mgrwt>
</event>
<event>
 9    1  0.4497870E-036  0.9995701E+03  0.7818608E-02  0.8681447E-01
         -2   -1    0    0    0  501 -0.00000000000E+00  0.00000000000E+00  0.16147972820E+03  0.16147972820E+03  0.00000000000E+00 0. -1.
          2   -1    0    0  501    0  0.00000000000E+00 -0.00000000000E+00 -0.15468511793E+04  0.15468511793E+04  0.00000000000E+00 0. -1.
         36    2    1    2    0    0  0.71054273576E-14 -0.14210854715E-13 -0.13853714511E+04  0.17083309075E+04  0.99957012362E+03 0.  0.
         25    2    3    3    0    0 -0.18575862198E+02  0.11725760283E+03 -0.13457149284E+03  0.21863457118E+03  0.12488867423E+03 0.  0.
         35    2    3    3    0    0  0.18575862198E+02 -0.11725760283E+03 -0.12507999583E+04  0.14896963363E+04  0.80037505635E+03 0.  0.
         22    1    5    5    0    0  0.28849265352E+03 -0.32322803843E+03 -0.91386201479E+03  0.10113595592E+04  0.00000000000E+00 0.  1.
         22    1    5    5    0    0 -0.26991679133E+03  0.20597043560E+03 -0.33693794347E+03  0.47833677711E+03  0.00000000000E+00 0.  1.
          5    1    4    4  502    0  0.41032004667E+02  0.31228040028E+02 -0.50179307007E+01  0.52020049207E+02  0.47000000000E+01 0.  1.
         -5    1    4    4    0  502 -0.59607866865E+02  0.86029562802E+02 -0.12955356214E+03  0.16661452197E+03  0.47000000000E+01 0.  1.
<mgrwt>
<rscale>  0 0.99957012E+03</rscale>
<asrwt>0</asrwt>
<pdfrwt beam="1">  1        2 0.23797710E+00 0.99957012E+03</pdfrwt>
<pdfrwt beam="2">  1       -2 0.24843035E-01 0.99957012E+03</pdfrwt>
<totfact> 0.20677094E+02</totfact>
</mgrwt>
</event>
<event>
 9    1  0.4497870E-036  0.1000576E+04  0.7818608E-02  0.8680489E-01
         -1   -1    0    0    0  501 -0.00000000000E+00  0.00000000000E+00  0.71413544406E+03  0.71413544406E+03  0.00000000000E+00 0.  1.
          1   -1    0    0  501    0  0.00000000000E+00 -0.00000000000E+00 -0.35047718357E+03  0.35047718357E+03  0.00000000000E+00 0.  1.
         36    2    1    2    0    0  0.00000000000E+00  0.00000000000E+00  0.36365826048E+03  0.10646126276E+04  0.10005761922E+04 0.  0.
         25    2    3    3    0    0  0.60363165355E+02 -0.10473183210E+03  0.14956435387E+03  0.22954587737E+03  0.12533692786E+03 0.  0.
         35    2    3    3    0    0 -0.60363165355E+02  0.10473183210E+03  0.21409390661E+03  0.83506675026E+03  0.79805250964E+03 0.  0.
         22    1    5    5    0    0 -0.30142768942E+03  0.34930558917E+03  0.15425615459E+03  0.48648536237E+03  0.00000000000E+00 0.  1.
         22    1    5    5    0    0  0.24106452407E+03 -0.24457375707E+03  0.59837752028E+02  0.34858138789E+03  0.00000000000E+00 0.  1.
          5    1    4    4  502    0  0.13785835254E+02 -0.12167475616E+03  0.12067029517E+03  0.17198315521E+03  0.47000000000E+01 0.  1.
         -5    1    4    4    0  502  0.46577330101E+02  0.16942924059E+02  0.28894058701E+02  0.57562722166E+02  0.47000000000E+01 0.  1.
<mgrwt>
<rscale>  0 0.10005762E+04</rscale>
<asrwt>0</asrwt>
<pdfrwt beam="1">  1        1 0.53919567E-01 0.10005762E+04</pdfrwt>
<pdfrwt beam="2">  1       -1 0.10986699E+00 0.10005762E+04</pdfrwt>
<totfact> 0.65798361E+01</totfact>
</mgrwt>
</event>
<event>
 9    1  0.4497870E-036  0.1000680E+04  0.7818608E-02  0.8680391E-01
          1   -1    0    0  501    0  0.00000000000E+00  0.00000000000E+00  0.37790665629E+03  0.37790665629E+03  0.00000000000E+00 0. -1.
         -1   -1    0    0    0  501 -0.00000000000E+00 -0.00000000000E+00 -0.66243857631E+03  0.66243857631E+03  0.00000000000E+00 0. -1.
         36    2    1    2    0    0  0.53290705182E-14 -0.21316282073E-13 -0.28453192002E+03  0.10403452326E+04  0.10006796638E+04 0.  0.
         25    2    3    3    0    0 -0.14645634994E+02 -0.18583851907E+02  0.91009131400E+02  0.15639687163E+03  0.12496985749E+03 0.  0.
         35    2    3    3    0    0  0.14645634994E+02  0.18583851907E+02 -0.37554105142E+03  0.88394836098E+03  0.79985859338E+03 0.  0.
         22    1    5    5    0    0  0.72687554541E+02  0.36466252860E+03 -0.38184427793E+03  0.53297963652E+03  0.00000000000E+00 0. -1.
         22    1    5    5    0    0 -0.58041919547E+02 -0.34607867669E+03  0.63032265123E+01  0.35096872446E+03  0.00000000000E+00 0. -1.
          5    1    4    4  502    0 -0.23400461260E+02  0.25255815409E+02  0.10396232926E+03  0.10961611973E+03  0.47000000000E+01 0. -1.
         -5    1    4    4    0  502  0.87548262663E+01 -0.43839667316E+02 -0.12953197861E+02  0.46780751898E+02  0.47000000000E+01 0. -1.
<mgrwt>
<rscale>  0 0.10006797E+04</rscale>
<asrwt>0</asrwt>
<pdfrwt beam="1">  1        1 0.58139487E-01 0.10006797E+04</pdfrwt>
<pdfrwt beam="2">  1       -1 0.10191363E+00 0.10006797E+04</pdfrwt>
<totfact> 0.70795125E+01</totfact>
</mgrwt>
</event>
<event>
 9    1  0.4497870E-036  0.9999735E+03  0.7818608E-02  0.8681063E-01
         -1   -1    0    0    0  501 -0.00000000000E+00  0.00000000000E+00  0.10331123667E+04  0.10331123667E+04  0.00000000000E+00 0.  1.
          1   -1    0    0  501    0  0.00000000000E+00 -0.00000000000E+00 -0.24197439785E+03  0.24197439785E+03  0.00000000000E+00 0.  1.
         36    2    1    2    0    0 -0.14210854715E-13 -0.28421709430E-13  0.79113796881E+03  0.12750867645E+04  0.99997348532E+03 0.  0.
         25    2    3    3    0    0 -0.83974977462E+02 -0.81108198731E+02  0.25220875579E+03  0.30449876041E+03  0.12441825369E+03 0.  0.
         35    2    3    3    0    0  0.83974977462E+02  0.81108198731E+02  0.53892921302E+03  0.97058800410E+03  0.79872776358E+03 0.  0.
         22    1    5    5    0    0  0.20613760196E+03  0.18656797499E+03  0.69347805933E+03  0.74713595751E+03  0.00000000000E+00 0.  1.
         22    1    5    5    0    0 -0.12216262449E+03 -0.10545977626E+03 -0.15454884631E+03  0.22345204659E+03  0.00000000000E+00 0.  1.
          5    1    4    4  502    0 -0.16445846473E+02 -0.85210060572E+01  0.18181626013E+03  0.18281771210E+03  0.47000000000E+01 0. -1.
         -5    1    4    4    0  502 -0.67529130988E+02 -0.72587192674E+02  0.70392495665E+02  0.12168104831E+03  0.47000000000E+01 0. -1.
<mgrwt>
<rscale>  0 0.99997349E+03</rscale>
<asrwt>0</asrwt>
<pdfrwt beam="1">  1        1 0.37226831E-01 0.99997349E+03</pdfrwt>
<pdfrwt beam="2">  1       -1 0.15894036E+00 0.99997349E+03</pdfrwt>
<totfact> 0.40012834E+01</totfact>
</mgrwt>
</event>
<event>
 9    1  0.4497870E-036  0.1003179E+04  0.7818608E-02  0.8678017E-01
         -2   -1    0    0    0  501 -0.00000000000E+00  0.00000000000E+00  0.24895962372E+04  0.24895962372E+04  0.00000000000E+00 0. -1.
          2   -1    0    0  501    0  0.00000000000E+00 -0.00000000000E+00 -0.10105731544E+03  0.10105731544E+03  0.00000000000E+00 0. -1.
         36    2    1    2    0    0  0.00000000000E+00  0.00000000000E+00  0.23885389218E+04  0.25906535527E+04  0.10031787723E+04 0.  0.
         25    2    3    3    0    0 -0.14017780309E+03 -0.18410556269E+02  0.48479763814E+03  0.52030104430E+03  0.12528232796E+03 0.  0.
         35    2    3    3    0    0  0.14017780309E+03  0.18410556269E+02  0.19037412836E+04  0.20703525084E+04  0.80133630193E+03 0.  0.
         22    1    5    5    0    0 -0.20240614649E+03 -0.23695159474E+02  0.15928099002E+04  0.16057936004E+04  0.00000000000E+00 0. -1.
         22    1    5    5    0    0  0.34258394958E+03  0.42105715743E+02  0.31093138342E+03  0.46455890800E+03  0.00000000000E+00 0. -1.
          5    1    4    4  502    0 -0.70185395578E+02  0.35757518786E+02  0.35135505457E+03  0.36010700393E+03  0.47000000000E+01 0. -1.
         -5    1    4    4    0  502 -0.69992407510E+02 -0.54168075055E+02  0.13344258356E+03  0.16019404038E+03  0.47000000000E+01 0. -1.
<mgrwt>
<rscale>  0 0.10031788E+04</rscale>
<asrwt>0</asrwt>
<pdfrwt beam="1">  1        2 0.15547281E-01 0.10031788E+04</pdfrwt>
<pdfrwt beam="2">  1       -2 0.38301476E+00 0.10031788E+04</pdfrwt>
<totfact> 0.50650478E+00</totfact>
</mgrwt>
</event>
<event>
 9    1  0.4497870E-036  0.1000629E+04  0.7818608E-02  0.8680439E-01
         -1   -1    0    0    0  501 -0.00000000000E+00  0.00000000000E+00  0.70772965249E+02  0.70772965249E+02  0.00000000000E+00 0. -1.
          1   -1    0    0  501    0  0.00000000000E+00 -0.00000000000E+00 -0.35368668163E+04  0.35368668163E+04  0.00000000000E+00 0. -1.
         36    2    1    2    0    0  0.00000000000E+00  0.14210854715E-13 -0.34660938511E+04  0.36076397816E+04  0.10006289068E+04 0.  0.
         25    2    3    3    0    0 -0.71398800148E+02 -0.40131791414E+02 -0.10666067705E+04  0.10772022518E+04  0.12651616135E+03 0.  0.
         35    2    3    3    0    0  0.71398800148E+02  0.40131791414E+02 -0.23994870805E+04  0.25304375297E+04  0.79929186961E+03 0.  0.
         22    1    5    5    0    0  0.16058524741E+03 -0.52519563089E+02 -0.48282961287E+02  0.17571901019E+03  0.00000000000E+00 0. -1.
         22    1    5    5    0    0 -0.89186447259E+02  0.92651354503E+02 -0.23512041192E+04  0.23547185195E+04  0.00000000000E+00 0. -1.
          5    1    4    4  502    0  0.32252883312E+02 -0.30851703297E+02 -0.25247191234E+03  0.25642978103E+03  0.47000000000E+01 0.  1.
         -5    1    4    4    0  502 -0.10365168346E+03 -0.92800881173E+01 -0.81413485820E+03  0.82077247082E+03  0.47000000000E+01 0.  1.
<mgrwt>
<rscale>  0 0.10006289E+04</rscale>
<asrwt>0</asrwt>
<pdfrwt beam="1">  1        1 0.54413351E+00 0.10006289E+04</pdfrwt>
<pdfrwt beam="2">  1       -1 0.10888145E-01 0.10006289E+04</pdfrwt>
<totfact> 0.13480315E+01</totfact>
</mgrwt>
</event>
<event>
 9    1  0.4497870E-036  0.9999939E+03  0.7818608E-02  0.8681044E-01
         -2   -1    0    0    0  501 -0.00000000000E+00  0.00000000000E+00  0.12799421694E+03  0.12799421694E+03  0.00000000000E+00 0. -1.
          2   -1    0    0  501    0  0.00000000000E+00 -0.00000000000E+00 -0.19531895902E+04  0.19531895902E+04  0.00000000000E+00 0. -1.
         36    2    1    2    0    0 -0.14210854715E-13  0.28421709430E-13 -0.18251953732E+04  0.20811838071E+04  0.99999394425E+03 0.  0.
         25    2    3    3    0    0  0.91311183054E+02  0.87033921091E+02 -0.46740805270E+03  0.49993383899E+03  0.12470332823E+03 0.  0.
         35    2    3    3    0    0 -0.91311183054E+02 -0.87033921091E+02 -0.13577873205E+04  0.15812499681E+04  0.80053258417E+03 0.  0.
         22    1    5    5    0    0  0.27046833635E+03  0.17946139602E+03 -0.34734613053E+03  0.47540387885E+03  0.00000000000E+00 0. -1.
         22    1    5    5    0    0 -0.36177951941E+03 -0.26649531711E+03 -0.10104411900E+04  0.11058460893E+04  0.00000000000E+00 0. -1.
          5    1    4    4  502    0  0.56110014861E+02 -0.23662396444E+02 -0.16664979678E+03  0.17748940121E+03  0.47000000000E+01 0.  1.
         -5    1    4    4    0  502  0.35201168193E+02  0.11069631753E+03 -0.30075825591E+03  0.32244443778E+03  0.47000000000E+01 0.  1.
<mgrwt>
<rscale>  0 0.99999394E+03</rscale>
<asrwt>0</asrwt>
<pdfrwt beam="1">  1        2 0.30049068E+00 0.99999394E+03</pdfrwt>
<pdfrwt beam="2">  1       -2 0.19691420E-01 0.99999394E+03</pdfrwt>
<totfact> 0.18308384E+02</totfact>
</mgrwt>
</event>
<event>
 9    1  0.4497870E-036  0.1000265E+04  0.7818608E-02  0.8680785E-01
         -2   -1    0    0    0  501 -0.00000000000E+00  0.00000000000E+00  0.90710291832E+03  0.90710291832E+03  0.00000000000E+00 0.  1.
          2   -1    0    0  501    0  0.00000000000E+00 -0.00000000000E+00 -0.27574904752E+03  0.27574904752E+03  0.00000000000E+00 0.  1.
         36    2    1    2    0    0  0.00000000000E+00  0.00000000000E+00  0.63135387080E+03  0.11828519658E+04  0.10002654962E+04 0.  0.
         25    2    3    3    0    0 -0.35843024284E+02 -0.13704520433E+03  0.14755737454E+03  0.23962506058E+03  0.12482339706E+03 0.  0.
         35    2    3    3    0    0  0.35843024284E+02  0.13704520433E+03  0.48379649626E+03  0.94322690527E+03  0.79721504916E+03 0.  0.
         22    1    5    5    0    0  0.15858228201E+03  0.20200283699E+03 -0.14796016385E+03  0.29638774672E+03  0.00000000000E+00 0. -1.
         22    1    5    5    0    0 -0.12273925773E+03 -0.64957632659E+02  0.63175666011E+03  0.64683915854E+03  0.00000000000E+00 0. -1.
          5    1    4    4  502    0  0.20338973080E+02 -0.11026556582E+03  0.13570091660E+03  0.17609371822E+03  0.47000000000E+01 0.  1.
         -5    1    4    4    0  502 -0.56181997364E+02 -0.26779638513E+02  0.11856457945E+02  0.63531342357E+02  0.47000000000E+01 0.  1.
<mgrwt>
<rscale>  0 0.10002655E+04</rscale>
<asrwt>0</asrwt>
<pdfrwt beam="1">  1        2 0.42422931E-01 0.10002655E+04</pdfrwt>
<pdfrwt beam="2">  1       -2 0.13955429E+00 0.10002655E+04</pdfrwt>
<totfact> 0.49937967E+01</totfact>
</mgrwt>
</event>
<event>
 9    1  0.4497870E-036  0.9997443E+03  0.7818608E-02  0.8681281E-01
          1   -1    0    0  501    0  0.00000000000E+00  0.00000000000E+00  0.25556829545E+03  0.25556829545E+03  0.00000000000E+00 0. -1.
         -1   -1    0    0    0  501 -0.00000000000E+00 -0.00000000000E+00 -0.97771197730E+03  0.97771197730E+03  0.00000000000E+00 0. -1.
         36    2    1    2    0    0  0.14210854715E-13  0.00000000000E+00 -0.72214368185E+03  0.12332802727E+04  0.99974433428E+03 0.  0.
         25    2    3    3    0    0 -0.98507915849E+02 -0.90656984984E+02 -0.19159937075E+03  0.26543193204E+03  0.12578272244E+03 0.  0.
         35    2    3    3    0    0  0.98507915849E+02  0.90656984984E+02 -0.53054431110E+03  0.96784834071E+03  0.79832991060E+03 0.  0.
         22    1    5    5    0    0 -0.19352898317E+03  0.24568636155E+03 -0.55420939905E+03  0.63636727884E+03  0.00000000000E+00 0. -1.
         22    1    5    5    0    0  0.29203689902E+03 -0.15502937657E+03  0.23665087955E+02  0.33148106187E+03  0.00000000000E+00 0. -1.
          5    1    4    4  502    0 -0.66411682750E+02 -0.57857027644E+02 -0.23732098803E+02  0.91341391314E+02  0.47000000000E+01 0.  1.
         -5    1    4    4    0  502 -0.32096233099E+02 -0.32799957340E+02 -0.16786727194E+03  0.17409054073E+03  0.47000000000E+01 0.  1.
<mgrwt>
<rscale>  0 0.99974433E+03</rscale>
<asrwt>0</asrwt>
<pdfrwt beam="1">  1        1 0.39318199E-01 0.99974433E+03</pdfrwt>
<pdfrwt beam="2">  1       -1 0.15041723E+00 0.99974433E+03</pdfrwt>
<totfact> 0.43934390E+01</totfact>
</mgrwt>
</event>
<event>
 9    1  0.4497870E-036  0.1001312E+04  0.7818608E-02  0.8679790E-01
         -2   -1    0    0    0  501 -0.00000000000E+00  0.00000000000E+00  0.22810560123E+03  0.22810560123E+03  0.00000000000E+00 0.  1.
          2   -1    0    0  501    0  0.00000000000E+00 -0.00000000000E+00 -0.10988613345E+04  0.10988613345E+04  0.00000000000E+00 0.  1.
         36    2    1    2    0    0  0.00000000000E+00  0.00000000000E+00 -0.87075573324E+03  0.13269669357E+04  0.10013119901E+04 0.  0.
         25    2    3    3    0    0 -0.74779406500E+02 -0.85028501965E+02 -0.51097088801E+02  0.17582770956E+03  0.12442935820E+03 0.  0.
         35    2    3    3    0    0  0.74779406500E+02  0.85028501965E+02 -0.81965864444E+03  0.11511392261E+04  0.80028708523E+03 0.  0.
         22    1    5    5    0    0  0.20112655822E+03  0.39364683022E+03 -0.62330610337E+03  0.76414672536E+03  0.00000000000E+00 0. -1.
         22    1    5    5    0    0 -0.12634715172E+03 -0.30861832826E+03 -0.19635254107E+03  0.38699250079E+03  0.00000000000E+00 0. -1.
          5    1    4    4  502    0 -0.93627033966E+02 -0.55472044846E+02 -0.75783125826E+02  0.13269642576E+03  0.47000000000E+01 0. -1.
         -5    1    4    4    0  502  0.18847627465E+02 -0.29556457118E+02  0.24686037025E+02  0.43131283803E+02  0.47000000000E+01 0. -1.
<mgrwt>
<rscale>  0 0.10013120E+04</rscale>
<asrwt>0</asrwt>
<pdfrwt beam="1">  1        2 0.16905560E+00 0.10013120E+04</pdfrwt>
<pdfrwt beam="2">  1       -2 0.35093168E-01 0.10013120E+04</pdfrwt>
<totfact> 0.20073687E+02</totfact>
</mgrwt>
</event>
<event>
 9    1  0.4497870E-036  0.9949397E+03  0.7818608E-02  0.8685872E-01
         -2   -1    0    0    0  501 -0.00000000000E+00  0.00000000000E+00  0.19446937423E+03  0.19446937423E+03  0.00000000000E+00 0. -1.
          2   -1    0    0  501    0  0.00000000000E+00 -0.00000000000E+00 -0.12725719678E+04  0.12725719678E+04  0.00000000000E+00 0. -1.
         36    2    1    2    0    0 -0.28421709430E-13 -0.35527136788E-13 -0.10781025935E+04  0.14670413420E+04  0.99493974536E+03 0.  0.
         25    2    3    3    0    0  0.88537050750E+02  0.59632947264E+02 -0.31654624701E+03  0.35696174200E+03  0.12579849362E+03 0.  0.
         35    2    3    3    0    0 -0.88537050750E+02 -0.59632947264E+02 -0.76155634652E+03  0.11100796000E+04  0.80057089107E+03 0.  0.
         22    1    5    5    0    0  0.17221267071E+03  0.23816842311E+03 -0.53271523086E+02  0.29869592715E+03  0.00000000000E+00 0.  1.
         22    1    5    5    0    0 -0.26074972146E+03 -0.29780137038E+03 -0.70828482343E+03  0.81138367283E+03  0.00000000000E+00 0.  1.
          5    1    4    4  502    0 -0.47686864417E+01 -0.12714875751E+02  0.43399751816E+01  0.15011123220E+02  0.47000000000E+01 0.  1.
         -5    1    4    4    0  502  0.93305737191E+02  0.72347823015E+02 -0.32088622220E+03  0.34195061878E+03  0.47000000000E+01 0.  1.
<mgrwt>
<rscale>  0 0.99493975E+03</rscale>
<asrwt>0</asrwt>
<pdfrwt beam="1">  1        2 0.19578030E+00 0.99493975E+03</pdfrwt>
<pdfrwt beam="2">  1       -2 0.29918366E-01 0.99493975E+03</pdfrwt>
<totfact> 0.21246411E+02</totfact>
</mgrwt>
</event>
<event>
 9    1  0.4497870E-036  0.1000678E+04  0.7818608E-02  0.8680392E-01
         -2   -1    0    0    0  501 -0.00000000000E+00  0.00000000000E+00  0.29769701689E+03  0.29769701689E+03  0.00000000000E+00 0.  1.
          2   -1    0    0  501    0  0.00000000000E+00 -0.00000000000E+00 -0.84091932903E+03  0.84091932903E+03  0.00000000000E+00 0.  1.
         36    2    1    2    0    0  0.00000000000E+00  0.00000000000E+00 -0.54322231214E+03  0.11386163459E+04  0.10006781215E+04 0.  0.
         25    2    3    3    0    0 -0.85067463030E+02  0.86195430293E+02 -0.18405331656E+03  0.25364740576E+03  0.12567918540E+03 0.  0.
         35    2    3    3    0    0  0.85067463030E+02 -0.86195430293E+02 -0.35916899558E+03  0.88496894016E+03  0.79968839693E+03 0.  0.
         22    1    5    5    0    0 -0.29603527051E+03 -0.24810758636E+03 -0.10960987980E+03  0.40150788479E+03  0.00000000000E+00 0. -1.
         22    1    5    5    0    0  0.38110273354E+03  0.16191215607E+03 -0.24955911577E+03  0.48346105537E+03  0.00000000000E+00 0. -1.
          5    1    4    4  502    0 -0.52182856752E+02  0.11692791424E+03 -0.12266018903E+03  0.17737756239E+03  0.47000000000E+01 0.  1.
         -5    1    4    4    0  502 -0.32884606278E+02 -0.30732483949E+02 -0.61393127530E+02  0.76269843370E+02  0.47000000000E+01 0.  1.
<mgrwt>
<rscale>  0 0.10006781E+04</rscale>
<asrwt>0</asrwt>
<pdfrwt beam="1">  1        2 0.12937220E+00 0.10006781E+04</pdfrwt>
<pdfrwt beam="2">  1       -2 0.45799542E-01 0.10006781E+04</pdfrwt>
<totfact> 0.17620338E+02</totfact>
</mgrwt>
</event>
<event>
 9    1  0.4497870E-036  0.1000052E+04  0.7818608E-02  0.8680988E-01
         -1   -1    0    0    0  501 -0.00000000000E+00  0.00000000000E+00  0.13529593996E+03  0.13529593996E+03  0.00000000000E+00 0. -1.
          1   -1    0    0  501    0  0.00000000000E+00 -0.00000000000E+00 -0.18479949590E+04  0.18479949590E+04  0.00000000000E+00 0. -1.
         36    2    1    2    0    0 -0.14210854715E-13 -0.71054273576E-14 -0.17126990191E+04  0.19832908990E+04  0.10000524287E+04 0.  0.
         25    2    3    3    0    0 -0.11065734951E+03  0.63109276119E+02 -0.23194168563E+03  0.29344454260E+03  0.12682635498E+03 0.  0.
         35    2    3    3    0    0  0.11065734951E+03 -0.63109276119E+02 -0.14807573334E+04  0.16898463564E+04  0.80418318678E+03 0.  0.
         22    1    5    5    0    0 -0.32984012700E+03  0.52812218961E+02 -0.83740246917E+03  0.90156892982E+03  0.00000000000E+00 0. -1.
         22    1    5    5    0    0  0.44049747652E+03 -0.11592149508E+03 -0.64335486428E+03  0.78827742657E+03  0.00000000000E+00 0. -1.
          5    1    4    4  502    0 -0.11922959577E+02  0.16453623571E+02 -0.16275127967E+03  0.16408213714E+03  0.47000000000E+01 0. -1.
         -5    1    4    4    0  502 -0.98734389938E+02  0.46655652548E+02 -0.69190405960E+02  0.12936240547E+03  0.47000000000E+01 0. -1.
<mgrwt>
<rscale>  0 0.10000524E+04</rscale>
<asrwt>0</asrwt>
<pdfrwt beam="1">  1        1 0.28430692E+00 0.10000524E+04</pdfrwt>
<pdfrwt beam="2">  1       -1 0.20814760E-01 0.10000524E+04</pdfrwt>
<totfact> 0.76204085E+01</totfact>
</mgrwt>
</event>
<event>
 9    1  0.4497870E-036  0.1001349E+04  0.7818608E-02  0.8679754E-01
         -2   -1    0    0    0  501 -0.00000000000E+00  0.00000000000E+00  0.30500435485E+03  0.30500435485E+03  0.00000000000E+00 0.  1.
          2   -1    0    0  501    0  0.00000000000E+00 -0.00000000000E+00 -0.82187409925E+03  0.82187409925E+03  0.00000000000E+00 0.  1.
         36    2    1    2    0    0  0.46185277824E-13  0.00000000000E+00 -0.51686974441E+03  0.11268784541E+04  0.10013494483E+04 0.  0.
         25    2    3    3    0    0  0.14839143916E+02 -0.13907479141E+03 -0.71671852751E+02  0.19731531380E+03  0.11930834332E+03 0.  0.
         35    2    3    3    0    0 -0.14839143916E+02  0.13907479141E+03 -0.44519789166E+03  0.92956314030E+03  0.80394307714E+03 0.  0.
         22    1    5    5    0    0 -0.28655408822E+03 -0.22073481215E+03 -0.15609089075E+03  0.39395617643E+03  0.00000000000E+00 0.  1.
         22    1    5    5    0    0  0.27171494431E+03  0.35980960356E+03 -0.28910700091E+03  0.53560696387E+03  0.00000000000E+00 0.  1.
          5    1    4    4  502    0 -0.17415982993E+02 -0.14286325321E+03 -0.78193609852E+02  0.16385834188E+03  0.47000000000E+01 0. -1.
         -5    1    4    4    0  502  0.32255126908E+02  0.37884617980E+01  0.65217571013E+01  0.33456971925E+02  0.47000000000E+01 0. -1.
<mgrwt>
<rscale>  0 0.10013494E+04</rscale>
<asrwt>0</asrwt>
<pdfrwt beam="1">  1        2 0.12644217E+00 0.10013494E+04</pdfrwt>
<pdfrwt beam="2">  1       -2 0.46923746E-01 0.10013494E+04</pdfrwt>
<totfact> 0.17311351E+02</totfact>
</mgrwt>
</event>
<event>
 9    1  0.4497870E-036  0.9993435E+03  0.7818608E-02  0.8681663E-01
         -4   -1    0    0    0  501 -0.00000000000E+00  0.00000000000E+00  0.90499537121E+03  0.90499537121E+03  0.00000000000E+00 0. -1.
          4   -1    0    0  501    0  0.00000000000E+00 -0.00000000000E+00 -0.27588193862E+03  0.27588193862E+03  0.00000000000E+00 0. -1.
         36    2    1    2    0    0  0.71054273576E-14  0.14210854715E-13  0.62911343258E+03  0.11808773098E+04  0.99934353944E+03 0.  0.
         25    2    3    3    0    0 -0.86284581642E+01  0.10383076435E+03  0.22543623446E+03  0.27795862332E+03  0.12483678366E+03 0.  0.
         35    2    3    3    0    0  0.86284581642E+01 -0.10383076435E+03  0.40367719812E+03  0.90291868651E+03  0.80090673381E+03 0.  0.
         22    1    5    5    0    0  0.38128719971E+03 -0.47781701073E+02  0.35461030089E+03  0.52288764101E+03  0.00000000000E+00 0. -1.
         22    1    5    5    0    0 -0.37265874155E+03 -0.56049063276E+02  0.49066897233E+02  0.38003104551E+03  0.00000000000E+00 0. -1.
          5    1    4    4  502    0  0.40335722287E+02  0.10582374564E+03  0.15492503484E+03  0.19196221517E+03  0.47000000000E+01 0. -1.
         -5    1    4    4    0  502 -0.48964180451E+02 -0.19929812950E+01  0.70511199620E+02  0.85996408143E+02  0.47000000000E+01 0. -1.
<mgrwt>
<rscale>  0 0.99934354E+03</rscale>
<asrwt>0</asrwt>
<pdfrwt beam="1">  1        4 0.42443376E-01 0.99934354E+03</pdfrwt>
<pdfrwt beam="2">  1       -4 0.13923006E+00 0.99934354E+03</pdfrwt>
<totfact> 0.40417067E+00</totfact>
</mgrwt>
</event>
<event>
 9    1  0.4497870E-036  0.9998147E+03  0.7818608E-02  0.8681214E-01
         -2   -1    0    0    0  501 -0.00000000000E+00  0.00000000000E+00  0.22573606870E+03  0.22573606870E+03  0.00000000000E+00 0.  1.
          2   -1    0    0  501    0  0.00000000000E+00 -0.00000000000E+00 -0.11070776936E+04  0.11070776936E+04  0.00000000000E+00 0.  1.
         36    2    1    2    0    0 -0.28421709430E-13  0.71054273576E-14 -0.88134162488E+03  0.13328137623E+04  0.99981471541E+03 0.  0.
         25    2    3    3    0    0  0.74494129549E+02  0.34595812058E+02 -0.31966732920E+03  0.35286758088E+03  0.12482821287E+03 0.  0.
         35    2    3    3    0    0 -0.74494129549E+02 -0.34595812058E+02 -0.56167429568E+03  0.97994618139E+03  0.79879300100E+03 0.  0.
         22    1    5    5    0    0 -0.23740116782E+03  0.21996502679E+03  0.20193371965E+02  0.32427102825E+03  0.00000000000E+00 0.  1.
         22    1    5    5    0    0  0.16290703827E+03 -0.25456083885E+03 -0.58186766764E+03  0.65567515314E+03  0.00000000000E+00 0.  1.
          5    1    4    4  502    0 -0.14832632840E+02  0.31630637301E+02 -0.20188364490E+03  0.20493804013E+03  0.47000000000E+01 0. -1.
         -5    1    4    4    0  502  0.89326762389E+02  0.29651747572E+01 -0.11778368430E+03  0.14792954076E+03  0.47000000000E+01 0. -1.
<mgrwt>
<rscale>  0 0.99981472E+03</rscale>
<asrwt>0</asrwt>
<pdfrwt beam="1">  1        2 0.17031964E+00 0.99981472E+03</pdfrwt>
<pdfrwt beam="2">  1       -2 0.34728627E-01 0.99981472E+03</pdfrwt>
<totfact> 0.20235485E+02</totfact>
</mgrwt>
</event>
<event>
 9    1  0.4497870E-036  0.1000396E+04  0.7818608E-02  0.8680661E-01
         -2   -1    0    0    0  501 -0.00000000000E+00  0.00000000000E+00  0.77928126389E+02  0.77928126389E+02  0.00000000000E+00 0.  1.
          2   -1    0    0  501    0  0.00000000000E+00 -0.00000000000E+00 -0.32106245346E+04  0.32106245346E+04  0.00000000000E+00 0.  1.
         36    2    1    2    0    0  0.53290705182E-14 -0.28421709430E-13 -0.31326964082E+04  0.32885526610E+04  0.10003958307E+04 0.  0.
         25    2    3    3    0    0 -0.15114403896E+02  0.13634185891E+03 -0.71944089118E+03  0.74300905941E+03  0.12509883604E+03 0.  0.
         35    2    3    3    0    0  0.15114403896E+02 -0.13634185891E+03 -0.24132555170E+04  0.25455436015E+04  0.79823084964E+03 0.  0.
         22    1    5    5    0    0  0.48596361308E+02 -0.29217889805E+03 -0.23584724681E+04  0.23769986322E+04  0.00000000000E+00 0.  1.
         22    1    5    5    0    0 -0.33481957412E+02  0.15583703914E+03 -0.54783048917E+02  0.16854496933E+03  0.00000000000E+00 0.  1.
          5    1    4    4  502    0 -0.10913880326E+02 -0.19518608570E+02 -0.41719188115E+02  0.47567525911E+02  0.47000000000E+01 0.  1.
         -5    1    4    4    0  502 -0.42005235704E+01  0.15586046748E+03 -0.67772170306E+03  0.69544153350E+03  0.47000000000E+01 0.  1.
<mgrwt>
<rscale>  0 0.10003958E+04</rscale>
<asrwt>0</asrwt>
<pdfrwt beam="1">  1        2 0.49394229E+00 0.10003958E+04</pdfrwt>
<pdfrwt beam="2">  1       -2 0.11988941E-01 0.10003958E+04</pdfrwt>
<totfact> 0.69676340E+01</totfact>
</mgrwt>
</event>
<event>
 9    1  0.4497870E-036  0.1002183E+04  0.7818608E-02  0.8678962E-01
         -1   -1    0    0    0  501 -0.00000000000E+00  0.00000000000E+00  0.59135045338E+03  0.59135045338E+03  0.00000000000E+00 0.  1.
          1   -1    0    0  501    0  0.00000000000E+00 -0.00000000000E+00 -0.42460913761E+03  0.42460913761E+03  0.00000000000E+00 0.  1.
         36    2    1    2    0    0  0.14210854715E-13 -0.14210854715E-13  0.16674131577E+03  0.10159595910E+04  0.10021832288E+04 0.  0.
         25    2    3    3    0    0  0.12612426459E+03  0.60153620413E+02  0.52936562984E+01  0.18753955939E+03  0.12496909766E+03 0.  0.
         35    2    3    3    0    0 -0.12612426459E+03 -0.60153620413E+02  0.16144765947E+03  0.82842003159E+03  0.80043026794E+03 0.  0.
         22    1    5    5    0    0 -0.84231335872E+02 -0.24820948443E+03 -0.25741187717E+03  0.36737411533E+03  0.00000000000E+00 0. -1.
         22    1    5    5    0    0 -0.41892928720E+02  0.18805586401E+03  0.41885953665E+03  0.46104591627E+03  0.00000000000E+00 0. -1.
          5    1    4    4  502    0 -0.18816957759E+02  0.30179310226E+02  0.15555688030E+02  0.39101638011E+02  0.47000000000E+01 0.  1.
         -5    1    4    4    0  502  0.14494122235E+03  0.29974310187E+02 -0.10262031732E+02  0.14843792138E+03  0.47000000000E+01 0.  1.
<mgrwt>
<rscale>  0 0.10021832E+04</rscale>
<asrwt>0</asrwt>
<pdfrwt beam="1">  1        1 0.65324483E-01 0.10021832E+04</pdfrwt>
<pdfrwt beam="2">  1       -1 0.90976992E-01 0.10021832E+04</pdfrwt>
<totfact> 0.77778915E+01</totfact>
</mgrwt>
</event>
<event>
 9    1  0.4497870E-036  0.9963876E+03  0.7818608E-02  0.8684486E-01
         -1   -1    0    0    0  501 -0.00000000000E+00  0.00000000000E+00  0.37652203141E+03  0.37652203141E+03  0.00000000000E+00 0.  1.
          1   -1    0    0  501    0  0.00000000000E+00 -0.00000000000E+00 -0.65918342988E+03  0.65918342988E+03  0.00000000000E+00 0.  1.
         36    2    1    2    0    0  0.71054273576E-14  0.71054273576E-14 -0.28266139847E+03  0.10357054613E+04  0.99638764361E+03 0.  0.
         25    2    3    3    0    0 -0.58189031369E+02 -0.21445844853E+02  0.73961634848E+02  0.15791290946E+03  0.12498110222E+03 0.  0.
         35    2    3    3    0    0  0.58189031369E+02  0.21445844853E+02 -0.35662303332E+03  0.87779255182E+03  0.79968361775E+03 0.  0.
         22    1    5    5    0    0  0.35774386195E+02 -0.17803074025E+03  0.20943542948E+03  0.27719659143E+03  0.00000000000E+00 0.  1.
         22    1    5    5    0    0  0.22414645173E+02  0.19947658510E+03 -0.56605846280E+03  0.60059596039E+03  0.00000000000E+00 0.  1.
          5    1    4    4  502    0 -0.71295351720E+02  0.18951164190E+02  0.16723752397E+01  0.73939574248E+02  0.47000000000E+01 0.  1.
         -5    1    4    4    0  502  0.13106320352E+02 -0.40397009042E+02  0.72289259608E+02  0.83973335217E+02  0.47000000000E+01 0.  1.
<mgrwt>
<rscale>  0 0.99638764E+03</rscale>
<asrwt>0</asrwt>
<pdfrwt beam="1">  1        1 0.10141283E+00 0.99638764E+03</pdfrwt>
<pdfrwt beam="2">  1       -1 0.57926468E-01 0.99638764E+03</pdfrwt>
<totfact> 0.10401399E+02</totfact>
</mgrwt>
</event>
<event>
 9    1  0.4497870E-036  0.1000105E+04  0.7818608E-02  0.8680938E-01
          2   -1    0    0  501    0  0.00000000000E+00  0.00000000000E+00  0.52594680324E+03  0.52594680324E+03  0.00000000000E+00 0.  1.
         -2   -1    0    0    0  501 -0.00000000000E+00 -0.00000000000E+00 -0.47543309360E+03  0.47543309360E+03  0.00000000000E+00 0.  1.
         36    2    1    2    0    0  0.00000000000E+00 -0.28421709430E-13  0.50513709639E+02  0.10013798968E+04  0.10001050259E+04 0.  0.
         25    2    3    3    0    0  0.10529025589E+03 -0.61027845302E+02  0.74972575084E+02  0.19049150269E+03  0.12591937776E+03 0.  0.
         35    2    3    3    0    0 -0.10529025589E+03  0.61027845302E+02 -0.24458865445E+02  0.81088839414E+03  0.80133096518E+03 0.  0.
         22    1    5    5    0    0 -0.14913141639E+03  0.25863525286E+03 -0.32960302997E+03  0.44471398758E+03  0.00000000000E+00 0. -1.
         22    1    5    5    0    0  0.43841160499E+02 -0.19760740756E+03  0.30514416453E+03  0.36617440656E+03  0.00000000000E+00 0. -1.
          5    1    4    4  502    0 -0.23274744814E+02 -0.28473725201E+02  0.37186871524E+02  0.52511143453E+02  0.47000000000E+01 0. -1.
         -5    1    4    4    0  502  0.12856500071E+03 -0.32554120101E+02  0.37785703560E+02  0.13798035924E+03  0.47000000000E+01 0. -1.
<mgrwt>
<rscale>  0 0.10001050E+04</rscale>
<asrwt>0</asrwt>
<pdfrwt beam="1">  1        2 0.80914893E-01 0.10001050E+04</pdfrwt>
<pdfrwt beam="2">  1       -2 0.73143553E-01 0.10001050E+04</pdfrwt>
<totfact> 0.11841717E+02</totfact>
</mgrwt>
</event>
<event>
 9    1  0.4497870E-036  0.1000108E+04  0.7818608E-02  0.8680935E-01
          2   -1    0    0  501    0  0.00000000000E+00  0.00000000000E+00  0.60958228881E+03  0.60958228881E+03  0.00000000000E+00 0.  1.
         -2   -1    0    0    0  501 -0.00000000000E+00 -0.00000000000E+00 -0.41020518929E+03  0.41020518929E+03  0.00000000000E+00 0.  1.
         36    2    1    2    0    0 -0.14210854715E-13  0.71054273576E-14  0.19937709952E+03  0.10197874781E+04  0.10001076305E+04 0.  0.
         25    2    3    3    0    0 -0.27508008506E+02 -0.49374024166E+02  0.15902373396E+03  0.21629415901E+03  0.13527797480E+03 0.  0.
         35    2    3    3    0    0  0.27508008506E+02  0.49374024166E+02  0.40353365559E+02  0.80349331908E+03  0.80048649889E+03 0.  0.
         22    1    5    5    0    0 -0.23822190139E+03  0.28927553721E+03  0.18433447694E+03  0.41762328733E+03  0.00000000000E+00 0.  1.
         22    1    5    5    0    0  0.26572990989E+03 -0.23990151305E+03 -0.14398111138E+03  0.38587003176E+03  0.00000000000E+00 0.  1.
          5    1    4    4  502    0 -0.65822267261E+02  0.14411489601E+02  0.10241003282E+03  0.12267912097E+03  0.47000000000E+01 0.  1.
         -5    1    4    4    0  502  0.38314258756E+02 -0.63785513767E+02  0.56613701138E+02  0.93615038039E+02  0.47000000000E+01 0.  1.
<mgrwt>
<rscale>  0 0.10001076E+04</rscale>
<asrwt>0</asrwt>
<pdfrwt beam="1">  1        2 0.93781891E-01 0.10001076E+04</pdfrwt>
<pdfrwt beam="2">  1       -2 0.63108490E-01 0.10001076E+04</pdfrwt>
<totfact> 0.13691858E+02</totfact>
</mgrwt>
</event>
<event>
 9    1  0.4497870E-036  0.9999815E+03  0.7818608E-02  0.8681056E-01
          2   -1    0    0  501    0  0.00000000000E+00  0.00000000000E+00  0.53147384345E+03  0.53147384345E+03  0.00000000000E+00 0. -1.
         -2   -1    0    0    0  501 -0.00000000000E+00 -0.00000000000E+00 -0.47037260889E+03  0.47037260889E+03  0.00000000000E+00 0. -1.
         36    2    1    2    0    0  0.14210854715E-13  0.28421709430E-13  0.61101234563E+02  0.10018464523E+04  0.99998147643E+03 0.  0.
         25    2    3    3    0    0  0.12735717965E+02 -0.14001683653E+03  0.12096922556E+02  0.18866072560E+03  0.12521829268E+03 0.  0.
         35    2    3    3    0    0 -0.12735717965E+02  0.14001683653E+03  0.49004312007E+02  0.81318572675E+03  0.79943898489E+03 0.  0.
         22    1    5    5    0    0 -0.40311836536E+03  0.51241927458E+02  0.69724988645E+02  0.41230052833E+03  0.00000000000E+00 0.  1.
         22    1    5    5    0    0  0.39038264740E+03  0.88774909077E+02 -0.20720676638E+02  0.40088519842E+03  0.00000000000E+00 0.  1.
          5    1    4    4  502    0  0.35779510465E+02 -0.18933804032E+02 -0.37819506494E+02  0.55597368424E+02  0.47000000000E+01 0.  1.
         -5    1    4    4    0  502 -0.23043792500E+02 -0.12108303250E+03  0.49916429049E+02  0.13306335717E+03  0.47000000000E+01 0.  1.
<mgrwt>
<rscale>  0 0.99998148E+03</rscale>
<asrwt>0</asrwt>
<pdfrwt beam="1">  1        2 0.81765206E-01 0.99998148E+03</pdfrwt>
<pdfrwt beam="2">  1       -2 0.72365017E-01 0.99998148E+03</pdfrwt>
<totfact> 0.11978382E+02</totfact>
</mgrwt>
</event>
<event>
 9    1  0.4497870E-036  0.1000504E+04  0.7818608E-02  0.8680558E-01
          1   -1    0    0  501    0  0.00000000000E+00  0.00000000000E+00  0.15567803722E+04  0.15567803722E+04  0.00000000000E+00 0.  1.
         -1   -1    0    0    0  501 -0.00000000000E+00 -0.00000000000E+00 -0.16074986875E+03  0.16074986875E+03  0.00000000000E+00 0.  1.
         36    2    1    2    0    0  0.28421709430E-13 -0.28421709430E-13  0.13960305035E+04  0.17175302410E+04  0.10005043538E+04 0.  0.
         25    2    3    3    0    0  0.95096699590E+02 -0.70337291305E+02  0.39660352569E+03  0.43231417093E+03  0.12494186238E+03 0.  0.
         35    2    3    3    0    0 -0.95096699590E+02  0.70337291305E+02  0.99942697777E+03  0.12852160700E+04  0.79933431425E+03 0.  0.
         22    1    5    5    0    0  0.18282450840E+03  0.19751741681E+03  0.32457128898E+02  0.27109296566E+03  0.00000000000E+00 0.  1.
         22    1    5    5    0    0 -0.27792120799E+03 -0.12718012551E+03  0.96696984887E+03  0.10141231044E+04  0.00000000000E+00 0.  1.
          5    1    4    4  502    0  0.69214472376E+02 -0.40480554828E+02  0.38132079770E+03  0.38968828474E+03  0.47000000000E+01 0.  1.
         -5    1    4    4    0  502  0.25882227214E+02 -0.29856736477E+02  0.15282727990E+02  0.42625886189E+02  0.47000000000E+01 0.  1.
<mgrwt>
<rscale>  0 0.10005044E+04</rscale>
<asrwt>0</asrwt>
<pdfrwt beam="1">  1        1 0.23950466E+00 0.10005044E+04</pdfrwt>
<pdfrwt beam="2">  1       -1 0.24730750E-01 0.10005044E+04</pdfrwt>
<totfact> 0.91706749E+01</totfact>
</mgrwt>
</event>
<event>
 9    1  0.4497870E-036  0.1000170E+04  0.7818608E-02  0.8680876E-01
         -1   -1    0    0    0  501 -0.00000000000E+00  0.00000000000E+00  0.18883618585E+03  0.18883618585E+03  0.00000000000E+00 0. -1.
          1   -1    0    0  501    0  0.00000000000E+00 -0.00000000000E+00 -0.13243496219E+04  0.13243496219E+04  0.00000000000E+00 0. -1.
         36    2    1    2    0    0  0.14210854715E-13  0.00000000000E+00 -0.11355134360E+04  0.15131858077E+04  0.10001702482E+04 0.  0.
         25    2    3    3    0    0  0.13313419638E+02 -0.72307530176E+02 -0.39651148994E+03  0.42217667001E+03  0.12492458917E+03 0.  0.
         35    2    3    3    0    0 -0.13313419638E+02  0.72307530176E+02 -0.73900194605E+03  0.10910091377E+04  0.79923177878E+03 0.  0.
         22    1    5    5    0    0 -0.23669403985E+03  0.29094530472E+03 -0.67462585809E+03  0.77187647149E+03  0.00000000000E+00 0.  1.
         22    1    5    5    0    0  0.22338062021E+03 -0.21863777454E+03 -0.64376087967E+02  0.31913266621E+03  0.00000000000E+00 0.  1.
          5    1    4    4  502    0 -0.41653488866E+02 -0.24260534945E+02 -0.28312729619E+03  0.28723986934E+03  0.47000000000E+01 0. -1.
         -5    1    4    4    0  502  0.54966908504E+02 -0.48046995231E+02 -0.11338419376E+03  0.13493680067E+03  0.47000000000E+01 0. -1.
<mgrwt>
<rscale>  0 0.10001702E+04</rscale>
<asrwt>0</asrwt>
<pdfrwt beam="1">  1        1 0.20374609E+00 0.10001702E+04</pdfrwt>
<pdfrwt beam="2">  1       -1 0.29051722E-01 0.10001702E+04</pdfrwt>
<totfact> 0.10250895E+02</totfact>
</mgrwt>
</event>
<event>
 9    1  0.4497870E-036  0.9992851E+03  0.7818608E-02  0.8681719E-01
         -1   -1    0    0    0  501 -0.00000000000E+00  0.00000000000E+00  0.13575054317E+03  0.13575054317E+03  0.00000000000E+00 0. -1.
          1   -1    0    0  501    0  0.00000000000E+00 -0.00000000000E+00 -0.18389810960E+04  0.18389810960E+04  0.00000000000E+00 0. -1.
         36    2    1    2    0    0 -0.42632564146E-13  0.71054273576E-14 -0.17032305528E+04  0.19747316392E+04  0.99928510981E+03 0.  0.
         25    2    3    3    0    0 -0.34558950622E+02  0.32388793881E+02 -0.57373970751E+03  0.58957767528E+03  0.12720545654E+03 0.  0.
         35    2    3    3    0    0  0.34558950622E+02 -0.32388793881E+02 -0.11294908453E+04  0.13851539639E+04  0.80041150605E+03 0.  0.
         22    1    5    5    0    0  0.34412978326E+03  0.61243293415E+02 -0.20384764582E+03  0.40463552911E+03  0.00000000000E+00 0. -1.
         22    1    5    5    0    0 -0.30957083263E+03 -0.93632087296E+02 -0.92564319950E+03  0.98051843479E+03  0.00000000000E+00 0. -1.
          5    1    4    4  502    0 -0.38937983714E+02  0.75271460698E+02 -0.27776399740E+03  0.29044257199E+03  0.47000000000E+01 0.  1.
         -5    1    4    4    0  502  0.43790330924E+01 -0.42882666817E+02 -0.29597571011E+03  0.29913510329E+03  0.47000000000E+01 0.  1.
<mgrwt>
<rscale>  0 0.99928511E+03</rscale>
<asrwt>0</asrwt>
<pdfrwt beam="1">  1        1 0.28292016E+00 0.99928511E+03</pdfrwt>
<pdfrwt beam="2">  1       -1 0.20884699E-01 0.99928511E+03</pdfrwt>
<totfact> 0.76896325E+01</totfact>
</mgrwt>
</event>
<event>
 9    1  0.4497870E-036  0.9951269E+03  0.7818608E-02  0.8685692E-01
          1   -1    0    0  501    0  0.00000000000E+00  0.00000000000E+00  0.21002947507E+04  0.21002947507E+04  0.00000000000E+00 0.  1.
         -1   -1    0    0    0  501 -0.00000000000E+00 -0.00000000000E+00 -0.11787364948E+03  0.11787364948E+03  0.00000000000E+00 0.  1.
         36    2    1    2    0    0  0.00000000000E+00  0.71054273576E-14  0.19824211012E+04  0.22181684002E+04  0.99512694113E+03 0.  0.
         25    2    3    3    0    0 -0.11544276714E+03 -0.63464756280E+02  0.42980275892E+03  0.46654620057E+03  0.12482042267E+03 0.  0.
         35    2    3    3    0    0  0.11544276714E+03  0.63464756280E+02  0.15526183423E+04  0.17516221996E+04  0.80012611851E+03 0.  0.
         22    1    5    5    0    0  0.22972760714E+03 -0.16146173948E+03  0.13469517259E+03  0.31142809173E+03  0.00000000000E+00 0. -1.
         22    1    5    5    0    0 -0.11428484000E+03  0.22492649576E+03  0.14179231697E+04  0.14401941079E+04  0.00000000000E+00 0. -1.
          5    1    4    4  502    0 -0.97357411963E+01 -0.13678199681E+01 -0.69260357646E+01  0.12911837961E+02  0.47000000000E+01 0. -1.
         -5    1    4    4    0  502 -0.10570702594E+03 -0.62096936312E+02  0.43672879469E+03  0.45363436261E+03  0.47000000000E+01 0. -1.
<mgrwt>
<rscale>  0 0.99512694E+03</rscale>
<asrwt>0</asrwt>
<pdfrwt beam="1">  1        1 0.32312224E+00 0.99512694E+03</pdfrwt>
<pdfrwt beam="2">  1       -1 0.18134409E-01 0.99512694E+03</pdfrwt>
<totfact> 0.63668974E+01</totfact>
</mgrwt>
</event>
<event>
 9    1  0.4497870E-036  0.9986799E+03  0.7818608E-02  0.8682296E-01
         -2   -1    0    0    0  501 -0.00000000000E+00  0.00000000000E+00  0.40395646484E+03  0.40395646484E+03  0.00000000000E+00 0. -1.
          2   -1    0    0  501    0  0.00000000000E+00 -0.00000000000E+00 -0.61724573273E+03  0.61724573273E+03  0.00000000000E+00 0. -1.
         36    2    1    2    0    0  0.00000000000E+00  0.00000000000E+00 -0.21328926789E+03  0.10212021976E+04  0.99867993698E+03 0.  0.
         25    2    3    3    0    0 -0.91317602629E+02  0.87342723712E+02 -0.97217004276E+02  0.20294855589E+03  0.12557593115E+03 0.  0.
         35    2    3    3    0    0  0.91317602629E+02 -0.87342723712E+02 -0.11607226361E+03  0.81825364167E+03  0.80006162000E+03 0.  0.
         22    1    5    5    0    0  0.17610678089E+03  0.14806057396E+03 -0.38652117233E+03  0.44981568281E+03  0.00000000000E+00 0.  1.
         22    1    5    5    0    0 -0.84789178263E+02 -0.23540329767E+03  0.27044890872E+03  0.36843795887E+03  0.00000000000E+00 0.  1.
          5    1    4    4  502    0 -0.19451645674E+02 -0.19074927251E+02 -0.64762025028E+02  0.70416115022E+02  0.47000000000E+01 0.  1.
         -5    1    4    4    0  502 -0.71865956955E+02  0.10641765096E+03 -0.32454979248E+02  0.13253244087E+03  0.47000000000E+01 0.  1.
<mgrwt>
<rscale>  0 0.99867994E+03</rscale>
<asrwt>0</asrwt>
<pdfrwt beam="1">  1        2 0.94960881E-01 0.99867994E+03</pdfrwt>
<pdfrwt beam="2">  1       -2 0.62147149E-01 0.99867994E+03</pdfrwt>
<totfact> 0.13933720E+02</totfact>
</mgrwt>
</event>
<event>
 9    1  0.4497870E-036  0.9995274E+03  0.7818608E-02  0.8681488E-01
         -2   -1    0    0    0  501 -0.00000000000E+00  0.00000000000E+00  0.31546651498E+03  0.31546651498E+03  0.00000000000E+00 0. -1.
          2   -1    0    0  501    0  0.00000000000E+00 -0.00000000000E+00 -0.79172821053E+03  0.79172821053E+03  0.00000000000E+00 0. -1.
         36    2    1    2    0    0 -0.71054273576E-14 -0.56843418861E-13 -0.47626169555E+03  0.11071947255E+04  0.99952736708E+03 0.  0.
         25    2    3    3    0    0  0.25619862130E+02  0.68984396140E+02  0.42110532902E+02  0.15092669736E+03  0.12486131006E+03 0.  0.
         35    2    3    3    0    0 -0.25619862130E+02 -0.68984396140E+02 -0.51837222846E+03  0.95626802815E+03  0.80020219331E+03 0.  0.
         22    1    5    5    0    0  0.69877213003E+01 -0.41527069671E+03 -0.13064202768E+03  0.43539168480E+03  0.00000000000E+00 0. -1.
         22    1    5    5    0    0 -0.32607583430E+02  0.34628630057E+03 -0.38773020077E+03  0.52087634334E+03  0.00000000000E+00 0. -1.
          5    1    4    4  502    0 -0.29755257058E+02  0.60106427500E+02 -0.16959500323E+02  0.69338824627E+02  0.47000000000E+01 0. -1.
         -5    1    4    4    0  502  0.55375119188E+02  0.88779686401E+01  0.59070033224E+02  0.81587872735E+02  0.47000000000E+01 0. -1.
<mgrwt>
<rscale>  0 0.99952737E+03</rscale>
<asrwt>0</asrwt>
<pdfrwt beam="1">  1        2 0.12180434E+00 0.99952737E+03</pdfrwt>
<pdfrwt beam="2">  1       -2 0.48533311E-01 0.99952737E+03</pdfrwt>
<totfact> 0.16996586E+02</totfact>
</mgrwt>
</event>
<event>
 9    1  0.4497870E-036  0.1000087E+04  0.7818608E-02  0.8680955E-01
         -1   -1    0    0    0  501 -0.00000000000E+00  0.00000000000E+00  0.92493913628E+02  0.92493913628E+02  0.00000000000E+00 0. -1.
          1   -1    0    0  501    0  0.00000000000E+00 -0.00000000000E+00 -0.27033531787E+04  0.27033531787E+04  0.00000000000E+00 0. -1.
         36    2    1    2    0    0  0.00000000000E+00 -0.14210854715E-13 -0.26108592651E+04  0.27958470923E+04  0.10000874270E+04 0.  0.
         25    2    3    3    0    0 -0.37932563515E+02 -0.11770512718E+03 -0.72680527396E+03  0.74724386447E+03  0.12179536278E+03 0.  0.
         35    2    3    3    0    0  0.37932563515E+02  0.11770512718E+03 -0.18840539911E+04  0.20486032278E+04  0.79487254790E+03 0.  0.
         22    1    5    5    0    0 -0.80225840956E+02 -0.21953081842E+03 -0.14911228701E+03  0.27724436862E+03  0.00000000000E+00 0.  1.
         22    1    5    5    0    0  0.11815840447E+03  0.33723594560E+03 -0.17349417041E+04  0.17713588592E+04  0.00000000000E+00 0.  1.
          5    1    4    4  502    0 -0.42592744107E+02 -0.25321607291E+02 -0.82772781810E+02  0.96585449499E+02  0.47000000000E+01 0. -1.
         -5    1    4    4    0  502  0.46601805919E+01 -0.92383519890E+02 -0.64403249215E+03  0.65065841497E+03  0.47000000000E+01 0. -1.
<mgrwt>
<rscale>  0 0.10000874E+04</rscale>
<asrwt>0</asrwt>
<pdfrwt beam="1">  1        1 0.41590046E+00 0.10000874E+04</pdfrwt>
<pdfrwt beam="2">  1       -1 0.14229834E-01 0.10000874E+04</pdfrwt>
<totfact> 0.35561010E+01</totfact>
</mgrwt>
</event>
<event>
 9    1  0.4497870E-036  0.1000073E+04  0.7818608E-02  0.8680968E-01
          1   -1    0    0  501    0  0.00000000000E+00  0.00000000000E+00  0.73056552310E+03  0.73056552310E+03  0.00000000000E+00 0.  1.
         -1   -1    0    0    0  501 -0.00000000000E+00 -0.00000000000E+00 -0.34225091963E+03  0.34225091963E+03  0.00000000000E+00 0.  1.
         36    2    1    2    0    0  0.28421709430E-13  0.00000000000E+00  0.38831460347E+03  0.10728164427E+04  0.10000734416E+04 0.  0.
         25    2    3    3    0    0  0.40935198175E+02  0.97103147764E+02  0.16761135930E+03  0.23381803832E+03  0.12438888825E+03 0.  0.
         35    2    3    3    0    0 -0.40935198175E+02 -0.97103147764E+02  0.22070324417E+03  0.83899840441E+03  0.80256070727E+03 0.  0.
         22    1    5    5    0    0 -0.29382472567E+03 -0.22302012924E+03 -0.12778732091E+03  0.39038512631E+03  0.00000000000E+00 0. -1.
         22    1    5    5    0    0  0.25288952749E+03  0.12591698148E+03  0.34849056508E+03  0.44861327810E+03  0.00000000000E+00 0. -1.
          5    1    4    4  502    0 -0.19486686817E+02  0.33937640827E+02 -0.55342039411E+01  0.39802158751E+02  0.47000000000E+01 0. -1.
         -5    1    4    4    0  502  0.60421884992E+02  0.63165506937E+02  0.17314556324E+03  0.19401587957E+03  0.47000000000E+01 0. -1.
<mgrwt>
<rscale>  0 0.10000734E+04</rscale>
<asrwt>0</asrwt>
<pdfrwt beam="1">  1        1 0.11239470E+00 0.10000734E+04</pdfrwt>
<pdfrwt beam="2">  1       -1 0.52653988E-01 0.10000734E+04</pdfrwt>
<totfact> 0.10634319E+02</totfact>
</mgrwt>
</event>
<event>
 9    1  0.4497870E-036  0.1005622E+04  0.7818608E-02  0.8675702E-01
         -2   -1    0    0    0  501 -0.00000000000E+00  0.00000000000E+00  0.15796698552E+03  0.15796698552E+03  0.00000000000E+00 0. -1.
          2   -1    0    0  501    0  0.00000000000E+00 -0.00000000000E+00 -0.16004546689E+04  0.16004546689E+04  0.00000000000E+00 0. -1.
         36    2    1    2    0    0  0.49737991503E-13 -0.14210854715E-13 -0.14424876834E+04  0.17584216545E+04  0.10056221945E+04 0.  0.
         25    2    3    3    0    0 -0.40809292728E+02 -0.10396671526E+03 -0.11155698997E+03  0.20146938220E+03  0.12518176263E+03 0.  0.
         35    2    3    3    0    0  0.40809292728E+02  0.10396671526E+03 -0.13309306934E+04  0.15569522723E+04  0.80015585427E+03 0.  0.
         22    1    5    5    0    0  0.33170741530E+03  0.25491673641E+03 -0.10312017885E+04  0.11128294930E+04  0.00000000000E+00 0.  1.
         22    1    5    5    0    0 -0.29089812258E+03 -0.15095002115E+03 -0.29972890489E+03  0.44412277923E+03  0.00000000000E+00 0.  1.
          5    1    4    4  502    0 -0.75162337914E+01 -0.68915258071E+02 -0.13168589327E+03  0.14889281733E+03  0.47000000000E+01 0. -1.
         -5    1    4    4    0  502 -0.33293058937E+02 -0.35051457194E+02  0.20128903301E+02  0.52576564864E+02  0.47000000000E+01 0. -1.
<mgrwt>
<rscale>  0 0.10056222E+04</rscale>
<asrwt>0</asrwt>
<pdfrwt beam="1">  1        2 0.24622380E+00 0.10056222E+04</pdfrwt>
<pdfrwt beam="2">  1       -2 0.24302613E-01 0.10056222E+04</pdfrwt>
<totfact> 0.20051207E+02</totfact>
</mgrwt>
</event>
<event>
 9    1  0.4497870E-036  0.9996196E+03  0.7818608E-02  0.8681400E-01
          1   -1    0    0  501    0  0.00000000000E+00  0.00000000000E+00  0.21742699233E+04  0.21742699233E+04  0.00000000000E+00 0.  1.
         -1   -1    0    0    0  501 -0.00000000000E+00 -0.00000000000E+00 -0.11489367001E+03  0.11489367001E+03  0.00000000000E+00 0.  1.
         36    2    1    2    0    0  0.00000000000E+00 -0.24868995752E-13  0.20593762533E+04  0.22891635933E+04  0.99961962984E+03 0.  0.
         25    2    3    3    0    0  0.13933143414E+03 -0.53716870694E+01  0.40661488506E+03  0.44760879512E+03  0.12480330585E+03 0.  0.
         35    2    3    3    0    0 -0.13933143414E+03  0.53716870694E+01  0.16527613682E+04  0.18415547982E+04  0.80016362758E+03 0.  0.
         22    1    5    5    0    0  0.44038987228E+02 -0.36302177249E+03  0.10488421842E+04  0.11107628762E+04  0.00000000000E+00 0.  1.
         22    1    5    5    0    0 -0.18337042137E+03  0.36839345956E+03  0.60391918403E+03  0.73079192204E+03  0.00000000000E+00 0.  1.
          5    1    4    4  502    0  0.49515708002E+02 -0.33091574036E+02  0.47374064567E+02  0.76244669353E+02  0.47000000000E+01 0. -1.
         -5    1    4    4    0  502  0.89815726141E+02  0.27719886967E+02  0.35924082050E+03  0.37136412577E+03  0.47000000000E+01 0. -1.
<mgrwt>
<rscale>  0 0.99961963E+03</rscale>
<asrwt>0</asrwt>
<pdfrwt beam="1">  1        1 0.33450303E+00 0.99961963E+03</pdfrwt>
<pdfrwt beam="2">  1       -1 0.17675951E-01 0.99961963E+03</pdfrwt>
<totfact> 0.58896890E+01</totfact>
</mgrwt>
</event>
<event>
 9    1  0.4497870E-036  0.1008609E+04  0.7818608E-02  0.8672882E-01
         -1   -1    0    0    0  501 -0.00000000000E+00  0.00000000000E+00  0.39998586056E+03  0.39998586056E+03  0.00000000000E+00 0. -1.
          1   -1    0    0  501    0  0.00000000000E+00 -0.00000000000E+00 -0.63583047072E+03  0.63583047072E+03  0.00000000000E+00 0. -1.
         36    2    1    2    0    0  0.00000000000E+00  0.00000000000E+00 -0.23584461016E+03  0.10358163313E+04  0.10086093357E+04 0.  0.
         25    2    3    3    0    0 -0.69629054444E+02 -0.18859239712E+02 -0.18035383497E+03  0.23099279120E+03  0.12500515051E+03 0.  0.
         35    2    3    3    0    0  0.69629054444E+02  0.18859239712E+02 -0.55490775197E+02  0.80482354008E+03  0.79966107095E+03 0.  0.
         22    1    5    5    0    0 -0.79980811985E+02  0.21226071612E+02  0.35677427408E+03  0.36624494406E+03  0.00000000000E+00 0. -1.
         22    1    5    5    0    0  0.14960986643E+03 -0.23668319005E+01 -0.41226504928E+03  0.43857859602E+03  0.00000000000E+00 0. -1.
          5    1    4    4  502    0 -0.17332351515E+02  0.11358973094E+02 -0.16777934362E+03  0.16911958735E+03  0.47000000000E+01 0.  1.
         -5    1    4    4    0  502 -0.52296702929E+02 -0.30218212806E+02 -0.12574491346E+02  0.61873203853E+02  0.47000000000E+01 0.  1.
<mgrwt>
<rscale>  0 0.10086093E+04</rscale>
<asrwt>0</asrwt>
<pdfrwt beam="1">  1        1 0.97820072E-01 0.10086093E+04</pdfrwt>
<pdfrwt beam="2">  1       -1 0.61536287E-01 0.10086093E+04</pdfrwt>
<totfact> 0.97665358E+01</totfact>
</mgrwt>
</event>
<event>
 9    1  0.4497870E-036  0.9994173E+03  0.7818608E-02  0.8681593E-01
         -1   -1    0    0    0  501 -0.00000000000E+00  0.00000000000E+00  0.61834031212E+03  0.61834031212E+03  0.00000000000E+00 0.  1.
          1   -1    0    0  501    0  0.00000000000E+00 -0.00000000000E+00 -0.40383708738E+03  0.40383708738E+03  0.00000000000E+00 0.  1.
         36    2    1    2    0    0  0.00000000000E+00  0.00000000000E+00  0.21450322474E+03  0.10221773995E+04  0.99941733156E+03 0.  0.
         25    2    3    3    0    0 -0.78756078826E+02 -0.10912569308E+03  0.70808760878E+02  0.19725261111E+03  0.12563349526E+03 0.  0.
         35    2    3    3    0    0  0.78756078826E+02  0.10912569308E+03  0.14369446386E+03  0.82492478839E+03  0.80108792945E+03 0.  0.
         22    1    5    5    0    0 -0.14586664605E+03 -0.29477746552E+03  0.15284238583E+03  0.36267289327E+03  0.00000000000E+00 0. -1.
         22    1    5    5    0    0  0.22462272487E+03  0.40390315861E+03 -0.91479219703E+01  0.46225189512E+03  0.00000000000E+00 0. -1.
          5    1    4    4  502    0 -0.42948100260E+01  0.11743395636E+02 -0.23304300158E+02  0.26861368916E+02  0.47000000000E+01 0. -1.
         -5    1    4    4    0  502 -0.74461268800E+02 -0.12086908872E+03  0.94113061036E+02  0.17039124220E+03  0.47000000000E+01 0. -1.
<mgrwt>
<rscale>  0 0.99941733E+03</rscale>
<asrwt>0</asrwt>
<pdfrwt beam="1">  1        1 0.62128783E-01 0.99941733E+03</pdfrwt>
<pdfrwt beam="2">  1       -1 0.95129279E-01 0.99941733E+03</pdfrwt>
<totfact> 0.75547009E+01</totfact>
</mgrwt>
</event>
<event>
 9    1  0.4497870E-036  0.9981036E+03  0.7818608E-02  0.8682846E-01
          2   -1    0    0  501    0  0.00000000000E+00  0.00000000000E+00  0.59432842522E+03  0.59432842522E+03  0.00000000000E+00 0. -1.
         -2   -1    0    0    0  501 -0.00000000000E+00 -0.00000000000E+00 -0.41904897982E+03  0.41904897982E+03  0.00000000000E+00 0. -1.
         36    2    1    2    0    0 -0.14210854715E-13  0.71054273576E-14  0.17527944540E+03  0.10133774050E+04  0.99810364244E+03 0.  0.
         25    2    3    3    0    0  0.51198658106E+02  0.47737290381E+02 -0.90066960678E+02  0.16854670921E+03  0.12407974973E+03 0.  0.
         35    2    3    3    0    0 -0.51198658106E+02 -0.47737290381E+02  0.26534640607E+03  0.84483069583E+03  0.79901817120E+03 0.  0.
         22    1    5    5    0    0  0.13522570293E+03 -0.36154096133E+03  0.28420148541E+03  0.47934157108E+03  0.00000000000E+00 0. -1.
         22    1    5    5    0    0 -0.18642436104E+03  0.31380367095E+03 -0.18855079333E+02  0.36548912475E+03  0.00000000000E+00 0. -1.
          5    1    4    4  502    0 -0.79334520721E+01  0.74655065055E+02 -0.62557366454E+02  0.97835742435E+02  0.47000000000E+01 0. -1.
         -5    1    4    4    0  502  0.59132110178E+02 -0.26917774674E+02 -0.27509594223E+02  0.70710966772E+02  0.47000000000E+01 0. -1.
<mgrwt>
<rscale>  0 0.99810364E+03</rscale>
<asrwt>0</asrwt>
<pdfrwt beam="1">  1        2 0.91435143E-01 0.99810364E+03</pdfrwt>
<pdfrwt beam="2">  1       -2 0.64469074E-01 0.99810364E+03</pdfrwt>
<totfact> 0.13487233E+02</totfact>
</mgrwt>
</event>
<event>
 9    1  0.4497870E-036  0.1002025E+04  0.7818608E-02  0.8679112E-01
          2   -1    0    0  501    0  0.00000000000E+00  0.00000000000E+00  0.12364775130E+04  0.12364775130E+04  0.00000000000E+00 0.  1.
         -2   -1    0    0    0  501 -0.00000000000E+00 -0.00000000000E+00 -0.20300676247E+03  0.20300676247E+03  0.00000000000E+00 0.  1.
         36    2    1    2    0    0  0.44408920985E-15  0.00000000000E+00  0.10334707506E+04  0.14394842755E+04  0.10020245442E+04 0.  0.
         25    2    3    3    0    0 -0.97013112381E+00  0.13113574489E+03  0.27678726675E+03  0.33070206975E+03  0.12472025963E+03 0.  0.
         35    2    3    3    0    0  0.97013112381E+00 -0.13113574489E+03  0.75668348381E+03  0.11087822057E+04  0.79976906689E+03 0.  0.
         22    1    5    5    0    0  0.13719383111E+03  0.29265461297E+03  0.49870081648E+03  0.59428223442E+03  0.00000000000E+00 0.  1.
         22    1    5    5    0    0 -0.13622369998E+03 -0.42379035786E+03  0.25798266733E+03  0.51449997133E+03  0.00000000000E+00 0.  1.
          5    1    4    4  502    0  0.33916757616E+01  0.13805974853E+03  0.15146958914E+03  0.20502956876E+03  0.47000000000E+01 0. -1.
         -5    1    4    4    0  502 -0.43618068854E+01 -0.69240036452E+01  0.12531767761E+03  0.12567250100E+03  0.47000000000E+01 0. -1.
<mgrwt>
<rscale>  0 0.10020245E+04</rscale>
<asrwt>0</asrwt>
<pdfrwt beam="1">  1        2 0.19022730E+00 0.10020245E+04</pdfrwt>
<pdfrwt beam="2">  1       -2 0.31231811E-01 0.10020245E+04</pdfrwt>
<totfact> 0.20618921E+02</totfact>
</mgrwt>
</event>
<event>
 9    1  0.4497870E-036  0.9990138E+03  0.7818608E-02  0.8681978E-01
         -2   -1    0    0    0  501 -0.00000000000E+00  0.00000000000E+00  0.12377025782E+03  0.12377025782E+03  0.00000000000E+00 0. -1.
          2   -1    0    0  501    0  0.00000000000E+00 -0.00000000000E+00 -0.20158893593E+04  0.20158893593E+04  0.00000000000E+00 0. -1.
         36    2    1    2    0    0 -0.71054273576E-14 -0.28421709430E-13 -0.18921191014E+04  0.21396596171E+04  0.99901380518E+03 0.  0.
         25    2    3    3    0    0 -0.36946909586E+02 -0.71664027405E+02 -0.11690136063E+03  0.19061225709E+03  0.12714675569E+03 0.  0.
         35    2    3    3    0    0  0.36946909586E+02  0.71664027405E+02 -0.17752177408E+04  0.19490473600E+04  0.80055404393E+03 0.  0.
         22    1    5    5    0    0  0.50394114104E+02 -0.36094192099E+03 -0.94378425867E+03  0.10117051764E+04  0.00000000000E+00 0. -1.
         22    1    5    5    0    0 -0.13447204518E+02  0.43260594840E+03 -0.83143348214E+03  0.93734218358E+03  0.00000000000E+00 0. -1.
          5    1    4    4  502    0 -0.54993918486E+02  0.18002255502E+02 -0.55740039290E+02  0.80482633242E+02  0.47000000000E+01 0.  1.
         -5    1    4    4    0  502  0.18047008900E+02 -0.89666282907E+02 -0.61161321335E+02  0.11012962384E+03  0.47000000000E+01 0.  1.
<mgrwt>
<rscale>  0 0.99901381E+03</rscale>
<asrwt>0</asrwt>
<pdfrwt beam="1">  1        2 0.31013682E+00 0.99901381E+03</pdfrwt>
<pdfrwt beam="2">  1       -2 0.19041579E-01 0.99901381E+03</pdfrwt>
<totfact> 0.17868972E+02</totfact>
</mgrwt>
</event>
<event>
 9    1  0.4497870E-036  0.1001138E+04  0.7818608E-02  0.8679955E-01
         -3   -1    0    0    0  501 -0.00000000000E+00  0.00000000000E+00  0.13657652254E+03  0.13657652254E+03  0.00000000000E+00 0.  1.
          3   -1    0    0  501    0  0.00000000000E+00 -0.00000000000E+00 -0.18346440946E+04  0.18346440946E+04  0.00000000000E+00 0.  1.
         36    2    1    2    0    0 -0.56843418861E-13  0.71054273576E-14 -0.16980675720E+04  0.19712206171E+04  0.10011379736E+04 0.  0.
         25    2    3    3    0    0 -0.13484639239E+03 -0.42908310370E+02 -0.27005580731E+03  0.32884813606E+03  0.12323264539E+03 0.  0.
         35    2    3    3    0    0  0.13484639239E+03  0.42908310370E+02 -0.14280117647E+04  0.16423724810E+04  0.79883984234E+03 0.  0.
         22    1    5    5    0    0  0.36804575147E+03  0.24541082969E+03 -0.51694886663E+03  0.68038245217E+03  0.00000000000E+00 0. -1.
         22    1    5    5    0    0 -0.23319935908E+03 -0.20250251932E+03 -0.91106289808E+03  0.96199002888E+03  0.00000000000E+00 0. -1.
          5    1    4    4  502    0  0.20494460755E+02 -0.97340424093E+01 -0.12808621763E+02  0.26474993763E+02  0.47000000000E+01 0.  1.
         -5    1    4    4    0  502 -0.15534085314E+03 -0.33174267961E+02 -0.25724718555E+03  0.30237314230E+03  0.47000000000E+01 0.  1.
<mgrwt>
<rscale>  0 0.10011380E+04</rscale>
<asrwt>0</asrwt>
<pdfrwt beam="1">  1        3 0.28225292E+00 0.10011380E+04</pdfrwt>
<pdfrwt beam="2">  1       -3 0.21011774E-01 0.10011380E+04</pdfrwt>
<totfact> 0.43111706E+00</totfact>
</mgrwt>
</event>
<event>
 9    1  0.4497870E-036  0.9995949E+03  0.7818608E-02  0.8681424E-01
         -2   -1    0    0    0  501 -0.00000000000E+00  0.00000000000E+00  0.15680038679E+03  0.15680038679E+03  0.00000000000E+00 0. -1.
          2   -1    0    0  501    0  0.00000000000E+00 -0.00000000000E+00 -0.15930923652E+04  0.15930923652E+04  0.00000000000E+00 0. -1.
         36    2    1    2    0    0  0.00000000000E+00 -0.14210854715E-13 -0.14362919784E+04  0.17498927520E+04  0.99959491606E+03 0.  0.
         25    2    3    3    0    0  0.67446228027E+02  0.11002841673E+03 -0.18696031497E+03  0.26071128125E+03  0.12790999427E+03 0.  0.
         35    2    3    3    0    0 -0.67446228027E+02 -0.11002841673E+03 -0.12493316634E+04  0.14891814707E+04  0.80011036823E+03 0.  0.
         22    1    5    5    0    0 -0.19117239163E+03  0.61592573608E+02 -0.12613780847E+04  0.12772686487E+04  0.00000000000E+00 0.  1.
         22    1    5    5    0    0  0.12372616360E+03 -0.17162099033E+03  0.12046421234E+02  0.21191282205E+03  0.00000000000E+00 0.  1.
          5    1    4    4  502    0  0.90963311966E+01  0.52298662582E+02  0.33544296132E+01  0.53396961965E+02  0.47000000000E+01 0. -1.
         -5    1    4    4    0  502  0.58349896830E+02  0.57729754145E+02 -0.19031474459E+03  0.20731431929E+03  0.47000000000E+01 0. -1.
<mgrwt>
<rscale>  0 0.99959492E+03</rscale>
<asrwt>0</asrwt>
<pdfrwt beam="1">  1        2 0.24509114E+00 0.99959492E+03</pdfrwt>
<pdfrwt beam="2">  1       -2 0.24123136E-01 0.99959492E+03</pdfrwt>
<totfact> 0.20510870E+02</totfact>
</mgrwt>
</event>
<event>
 9    1  0.4497870E-036  0.9999430E+03  0.7818608E-02  0.8681092E-01
         -2   -1    0    0    0  501 -0.00000000000E+00  0.00000000000E+00  0.15298353473E+03  0.15298353473E+03  0.00000000000E+00 0.  1.
          2   -1    0    0  501    0  0.00000000000E+00 -0.00000000000E+00 -0.16339765490E+04  0.16339765490E+04  0.00000000000E+00 0.  1.
         36    2    1    2    0    0 -0.71054273576E-14  0.14210854715E-13 -0.14809930143E+04  0.17869600837E+04  0.99994301464E+03 0.  0.
         25    2    3    3    0    0 -0.63003821719E+02  0.12067539535E+03 -0.31497523826E+03  0.36532230222E+03  0.12537524152E+03 0.  0.
         35    2    3    3    0    0  0.63003821719E+02 -0.12067539535E+03 -0.11660177760E+04  0.14216377815E+04  0.80182572625E+03 0.  0.
         22    1    5    5    0    0  0.38275301832E+03 -0.10886340226E+03 -0.29984300288E+03  0.49825389087E+03  0.00000000000E+00 0. -1.
         22    1    5    5    0    0 -0.31974919660E+03 -0.11811993085E+02 -0.86617477313E+03  0.92338389065E+03  0.00000000000E+00 0. -1.
          5    1    4    4  502    0 -0.67698507959E+02  0.14173813241E+03 -0.23767213418E+03  0.28492616504E+03  0.47000000000E+01 0. -1.
         -5    1    4    4    0  502  0.46946862400E+01 -0.21062737068E+02 -0.77303104082E+02  0.80396137173E+02  0.47000000000E+01 0. -1.
<mgrwt>
<rscale>  0 0.99994301E+03</rscale>
<asrwt>0</asrwt>
<pdfrwt beam="1">  1        2 0.25138100E+00 0.99994301E+03</pdfrwt>
<pdfrwt beam="2">  1       -2 0.23535929E-01 0.99994301E+03</pdfrwt>
<totfact> 0.20315438E+02</totfact>
</mgrwt>
</event>
<event>
 9    1  0.4497870E-036  0.1000183E+04  0.7818608E-02  0.8680864E-01
          2   -1    0    0  501    0  0.00000000000E+00  0.00000000000E+00  0.14787268805E+04  0.14787268805E+04  0.00000000000E+00 0.  1.
         -2   -1    0    0    0  501 -0.00000000000E+00 -0.00000000000E+00 -0.16912616284E+03  0.16912616284E+03  0.00000000000E+00 0.  1.
         36    2    1    2    0    0 -0.14210854715E-13 -0.28421709430E-13  0.13096007176E+04  0.16478530433E+04  0.10001827896E+04 0.  0.
         25    2    3    3    0    0 -0.57692615931E+02 -0.73678487014E+02  0.66410527660E+02  0.16928355033E+03  0.12445724103E+03 0.  0.
         35    2    3    3    0    0  0.57692615931E+02  0.73678487014E+02  0.12431901900E+04  0.14785694930E+04  0.79491442290E+03 0.  0.
         22    1    5    5    0    0 -0.26392062514E+03  0.28146194163E+03  0.41791097584E+03  0.56879214542E+03  0.00000000000E+00 0. -1.
         22    1    5    5    0    0  0.32161324107E+03 -0.20778345462E+03  0.82527921412E+03  0.90977734754E+03  0.00000000000E+00 0. -1.
          5    1    4    4  502    0 -0.23448635198E+02 -0.10558457336E+03  0.51898283273E+02  0.12005608036E+03  0.47000000000E+01 0. -1.
         -5    1    4    4    0  502 -0.34243980732E+02  0.31906086347E+02  0.14512244387E+02  0.49227469969E+02  0.47000000000E+01 0. -1.
<mgrwt>
<rscale>  0 0.10001828E+04</rscale>
<asrwt>0</asrwt>
<pdfrwt beam="1">  1        2 0.22749643E+00 0.10001828E+04</pdfrwt>
<pdfrwt beam="2">  1       -2 0.26019411E-01 0.10001828E+04</pdfrwt>
<totfact> 0.20811866E+02</totfact>
</mgrwt>
</event>
<event>
 9    1  0.4497870E-036  0.1000370E+04  0.7818608E-02  0.8680686E-01
          2   -1    0    0  501    0  0.00000000000E+00  0.00000000000E+00  0.22371307400E+04  0.22371307400E+04  0.00000000000E+00 0.  1.
         -2   -1    0    0    0  501 -0.00000000000E+00 -0.00000000000E+00 -0.11183297430E+03  0.11183297430E+03  0.00000000000E+00 0.  1.
         36    2    1    2    0    0  0.42632564146E-13  0.00000000000E+00  0.21252977657E+04  0.23489637143E+04  0.10003699007E+04 0.  0.
         25    2    3    3    0    0  0.47998914356E+02 -0.13122079710E+03  0.42487743025E+03  0.46446254730E+03  0.12522712862E+03 0.  0.
         35    2    3    3    0    0 -0.47998914356E+02  0.13122079710E+03  0.17004203355E+04  0.18845011670E+04  0.80024529852E+03 0.  0.
         22    1    5    5    0    0  0.35196974001E+03  0.16144502353E+03  0.10634832911E+04  0.11317879236E+04  0.00000000000E+00 0.  1.
         22    1    5    5    0    0 -0.39996865437E+03 -0.30224226431E+02  0.63693704433E+03  0.75271324340E+03  0.00000000000E+00 0.  1.
          5    1    4    4  502    0  0.63863828742E+01 -0.13712652229E+03  0.37327047407E+03  0.39774037489E+03  0.47000000000E+01 0.  1.
         -5    1    4    4    0  502  0.41612531481E+02  0.59057251841E+01  0.51606956173E+02  0.66722172414E+02  0.47000000000E+01 0.  1.
<mgrwt>
<rscale>  0 0.10003699E+04</rscale>
<asrwt>0</asrwt>
<pdfrwt beam="1">  1        2 0.34417393E+00 0.10003699E+04</pdfrwt>
<pdfrwt beam="2">  1       -2 0.17205075E-01 0.10003699E+04</pdfrwt>
<totfact> 0.15843673E+02</totfact>
</mgrwt>
</event>
<event>
 9    1  0.4497870E-036  0.9998196E+03  0.7818608E-02  0.8681210E-01
         -1   -1    0    0    0  501 -0.00000000000E+00  0.00000000000E+00  0.12807360206E+04  0.12807360206E+04  0.00000000000E+00 0. -1.
          1   -1    0    0  501    0  0.00000000000E+00 -0.00000000000E+00 -0.19512983982E+03  0.19512983982E+03  0.00000000000E+00 0. -1.
         36    2    1    2    0    0 -0.71054273576E-14  0.14210854715E-13  0.10856061807E+04  0.14758658604E+04  0.99981961282E+03 0.  0.
         25    2    3    3    0    0 -0.43668200977E+02  0.44988119966E+02  0.38850780113E+03  0.41322285265E+03  0.12603162974E+03 0.  0.
         35    2    3    3    0    0  0.43668200977E+02 -0.44988119966E+02  0.69709837961E+03  0.10626430077E+04  0.79958312159E+03 0.  0.
         22    1    5    5    0    0  0.17669581174E+03 -0.36336752400E+03  0.18318648292E+03  0.44363797731E+03  0.00000000000E+00 0. -1.
         22    1    5    5    0    0 -0.13302761077E+03  0.31837940403E+03  0.51391189669E+03  0.61900503043E+03  0.00000000000E+00 0. -1.
          5    1    4    4  502    0 -0.82167492432E+01  0.57238103176E+02  0.36303104658E+03  0.36763752012E+03  0.47000000000E+01 0. -1.
         -5    1    4    4    0  502 -0.35451451734E+02 -0.12249983210E+02  0.25476754558E+02  0.45585332526E+02  0.47000000000E+01 0. -1.
<mgrwt>
<rscale>  0 0.99981961E+03</rscale>
<asrwt>0</asrwt>
<pdfrwt beam="1">  1        1 0.30019976E-01 0.99981961E+03</pdfrwt>
<pdfrwt beam="2">  1       -1 0.19703631E+00 0.99981961E+03</pdfrwt>
<totfact> 0.25347913E+01</totfact>
</mgrwt>
</event>
<event>
 9    1  0.4497870E-036  0.9991145E+03  0.7818608E-02  0.8681882E-01
         -1   -1    0    0    0  501 -0.00000000000E+00  0.00000000000E+00  0.24268647124E+03  0.24268647124E+03  0.00000000000E+00 0.  1.
          1   -1    0    0  501    0  0.00000000000E+00 -0.00000000000E+00 -0.10283122234E+04  0.10283122234E+04  0.00000000000E+00 0.  1.
         36    2    1    2    0    0 -0.71054273576E-14  0.14210854715E-13 -0.78562575216E+03  0.12709986946E+04  0.99911453764E+03 0.  0.
         25    2    3    3    0    0  0.55518224704E+01 -0.95951119346E+02 -0.27638730184E+03  0.31832288012E+03  0.12530792216E+03 0.  0.
         35    2    3    3    0    0 -0.55518224704E+01  0.95951119346E+02 -0.50923845032E+03  0.95267581452E+03  0.79939350025E+03 0.  0.
         22    1    5    5    0    0 -0.30323371355E+03 -0.29163908889E+01 -0.55815530126E+03  0.63521376771E+03  0.00000000000E+00 0.  1.
         22    1    5    5    0    0  0.29768189108E+03  0.98867510235E+02  0.48916850933E+02  0.31746204681E+03  0.00000000000E+00 0.  1.
          5    1    4    4  502    0  0.33032261323E+02 -0.11744756972E+03 -0.20213460735E+03  0.23614730871E+03  0.47000000000E+01 0.  1.
         -5    1    4    4    0  502 -0.27480438853E+02  0.21496450378E+02 -0.74252694488E+02  0.82175571413E+02  0.47000000000E+01 0.  1.
<mgrwt>
<rscale>  0 0.99911454E+03</rscale>
<asrwt>0</asrwt>
<pdfrwt beam="1">  1        1 0.15820188E+00 0.99911454E+03</pdfrwt>
<pdfrwt beam="2">  1       -1 0.37336380E-01 0.99911454E+03</pdfrwt>
<totfact> 0.11093275E+02</totfact>
</mgrwt>
</event>
<event>
 9    1  0.4497870E-036  0.1000438E+04  0.7818608E-02  0.8680621E-01
          2   -1    0    0  501    0  0.00000000000E+00  0.00000000000E+00  0.44188719701E+03  0.44188719701E+03  0.00000000000E+00 0. -1.
         -2   -1    0    0    0  501 -0.00000000000E+00 -0.00000000000E+00 -0.56625078439E+03  0.56625078439E+03  0.00000000000E+00 0. -1.
         36    2    1    2    0    0  0.00000000000E+00  0.00000000000E+00 -0.12436358738E+03  0.10081379814E+04  0.10004378480E+04 0.  0.
         25    2    3    3    0    0 -0.15649069929E+01  0.42490000446E+02  0.11213159085E+03  0.17340771834E+03  0.12525531542E+03 0.  0.
         35    2    3    3    0    0  0.15649069929E+01 -0.42490000446E+02 -0.23649517822E+03  0.83473026306E+03  0.79939776937E+03 0.  0.
         22    1    5    5    0    0  0.16733497108E+02  0.29019928339E+03 -0.37463662403E+03  0.47418164670E+03  0.00000000000E+00 0. -1.
         22    1    5    5    0    0 -0.15168590115E+02 -0.33268928384E+03  0.13814144581E+03  0.36054861635E+03  0.00000000000E+00 0. -1.
          5    1    4    4  502    0  0.27275131078E+02  0.54619311651E+02  0.46968106478E+01  0.61411334546E+02  0.47000000000E+01 0. -1.
         -5    1    4    4    0  502 -0.28840038071E+02 -0.12129311205E+02  0.10743478020E+03  0.11199638379E+03  0.47000000000E+01 0. -1.
<mgrwt>
<rscale>  0 0.10004378E+04</rscale>
<asrwt>0</asrwt>
<pdfrwt beam="1">  1        2 0.67982646E-01 0.10004378E+04</pdfrwt>
<pdfrwt beam="2">  1       -2 0.87115505E-01 0.10004378E+04</pdfrwt>
<totfact> 0.96849804E+01</totfact>
</mgrwt>
</event>
<event>
 9    1  0.4497870E-036  0.1000487E+04  0.7818608E-02  0.8680575E-01
         -1   -1    0    0    0  501 -0.00000000000E+00  0.00000000000E+00  0.12095905186E+03  0.12095905186E+03  0.00000000000E+00 0. -1.
          1   -1    0    0  501    0  0.00000000000E+00 -0.00000000000E+00 -0.20688279173E+04  0.20688279173E+04  0.00000000000E+00 0. -1.
         36    2    1    2    0    0 -0.42632564146E-13  0.00000000000E+00 -0.19478688654E+04  0.21897869691E+04  0.10004868082E+04 0.  0.
         25    2    3    3    0    0 -0.11944421508E+03  0.40926612109E+02 -0.23380877311E+03  0.29374690097E+03  0.12521498053E+03 0.  0.
         35    2    3    3    0    0  0.11944421508E+03 -0.40926612109E+02 -0.17140600923E+04  0.18960400682E+04  0.80063976419E+03 0.  0.
         22    1    5    5    0    0 -0.32399996330E+03 -0.12196335364E+03 -0.91947304171E+03  0.98248751151E+03  0.00000000000E+00 0. -1.
         22    1    5    5    0    0  0.44344417838E+03  0.81036741527E+02 -0.79458705060E+03  0.91355255667E+03  0.00000000000E+00 0. -1.
          5    1    4    4  502    0 -0.11575351371E+03 -0.18519416205E+02 -0.16739972830E+03  0.20441771877E+03  0.47000000000E+01 0.  1.
         -5    1    4    4    0  502 -0.36907013700E+01  0.59446028314E+02 -0.66409044807E+02  0.89329182192E+02  0.47000000000E+01 0.  1.
<mgrwt>
<rscale>  0 0.10004868E+04</rscale>
<asrwt>0</asrwt>
<pdfrwt beam="1">  1        1 0.31828121E+00 0.10004868E+04</pdfrwt>
<pdfrwt beam="2">  1       -1 0.18609085E-01 0.10004868E+04</pdfrwt>
<totfact> 0.64183816E+01</totfact>
</mgrwt>
</event>
<event>
 9    1  0.4497870E-036  0.1000795E+04  0.7818608E-02  0.8680281E-01
          1   -1    0    0  501    0  0.00000000000E+00  0.00000000000E+00  0.11895465442E+04  0.11895465442E+04  0.00000000000E+00 0. -1.
         -1   -1    0    0    0  501 -0.00000000000E+00 -0.00000000000E+00 -0.21049841703E+03  0.21049841703E+03  0.00000000000E+00 0. -1.
         36    2    1    2    0    0 -0.35527136788E-13 -0.14210854715E-13  0.97904812712E+03  0.14000449612E+04  0.10007950130E+04 0.  0.
         25    2    3    3    0    0  0.89543683789E+01  0.87605498889E+02  0.34021344997E+02  0.15884745246E+03  0.12775037022E+03 0.  0.
         35    2    3    3    0    0 -0.89543683789E+01 -0.87605498889E+02  0.94502678213E+03  0.12411975087E+04  0.79983794145E+03 0.  0.
         22    1    5    5    0    0 -0.36562574390E+03 -0.21126516670E+03  0.43038526647E+03  0.60294828374E+03  0.00000000000E+00 0.  1.
         22    1    5    5    0    0  0.35667137552E+03  0.12365966781E+03  0.51464151565E+03  0.63824922499E+03  0.00000000000E+00 0.  1.
          5    1    4    4  502    0 -0.40944905165E+02 -0.58533785085E+01  0.32458030462E+02  0.52785992843E+02  0.47000000000E+01 0.  1.
         -5    1    4    4    0  502  0.49899273544E+02  0.93458877397E+02  0.15633145354E+01  0.10606145962E+03  0.47000000000E+01 0.  1.
<mgrwt>
<rscale>  0 0.10007950E+04</rscale>
<asrwt>0</asrwt>
<pdfrwt beam="1">  1        1 0.18300716E+00 0.10007950E+04</pdfrwt>
<pdfrwt beam="2">  1       -1 0.32384373E-01 0.10007950E+04</pdfrwt>
<totfact> 0.10695986E+02</totfact>
</mgrwt>
</event>
<event>
 9    1  0.4497870E-036  0.1002767E+04  0.7818608E-02  0.8678408E-01
          1   -1    0    0  501    0  0.00000000000E+00  0.00000000000E+00  0.64450235092E+03  0.64450235092E+03  0.00000000000E+00 0. -1.
         -1   -1    0    0    0  501 -0.00000000000E+00 -0.00000000000E+00 -0.39004556664E+03  0.39004556664E+03  0.00000000000E+00 0. -1.
         36    2    1    2    0    0 -0.14210854715E-13  0.00000000000E+00  0.25445678428E+03  0.10345479176E+04  0.10027667419E+04 0.  0.
         25    2    3    3    0    0 -0.49046954135E+02  0.13127386225E+03  0.48066684171E+01  0.18803770121E+03  0.12528624185E+03 0.  0.
         35    2    3    3    0    0  0.49046954135E+02 -0.13127386225E+03  0.24965011587E+03  0.84651021635E+03  0.79662785252E+03 0.  0.
         22    1    5    5    0    0 -0.24874401065E+03  0.22199353458E+03  0.18112011743E+03  0.37941956877E+03  0.00000000000E+00 0.  1.
         22    1    5    5    0    0  0.29779096479E+03 -0.35326739683E+03  0.68529998433E+02  0.46709064758E+03  0.00000000000E+00 0.  1.
          5    1    4    4  502    0 -0.39853400852E+02  0.10551433053E+03  0.58834261574E+02  0.12729936308E+03  0.47000000000E+01 0.  1.
         -5    1    4    4    0  502 -0.91935532831E+01  0.25759531717E+02 -0.54027593157E+02  0.60738338128E+02  0.47000000000E+01 0.  1.
<mgrwt>
<rscale>  0 0.10027667E+04</rscale>
<asrwt>0</asrwt>
<pdfrwt beam="1">  1        1 0.99154207E-01 0.10027667E+04</pdfrwt>
<pdfrwt beam="2">  1       -1 0.60007010E-01 0.10027667E+04</pdfrwt>
<totfact> 0.10050959E+02</totfact>
</mgrwt>
</event>
<event>
 9    1  0.4497870E-036  0.1000956E+04  0.7818608E-02  0.8680128E-01
         -2   -1    0    0    0  501 -0.00000000000E+00  0.00000000000E+00  0.36664487209E+03  0.36664487209E+03  0.00000000000E+00 0.  1.
          2   -1    0    0  501    0  0.00000000000E+00 -0.00000000000E+00 -0.68316259898E+03  0.68316259898E+03  0.00000000000E+00 0.  1.
         36    2    1    2    0    0  0.00000000000E+00  0.35527136788E-13 -0.31651772689E+03  0.10498074711E+04  0.10009556708E+04 0.  0.
         25    2    3    3    0    0 -0.12486189713E+03 -0.27720456764E+02 -0.12547109494E+03  0.21784171638E+03  0.12390762951E+03 0.  0.
         35    2    3    3    0    0  0.12486189713E+03  0.27720456764E+02 -0.19104663195E+03  0.83196575469E+03  0.79956818616E+03 0.  0.
         22    1    5    5    0    0  0.36347223401E+03  0.27261117317E+03 -0.18340226037E+03  0.48996459641E+03  0.00000000000E+00 0.  1.
         22    1    5    5    0    0 -0.23861033688E+03 -0.24489071640E+03 -0.76443715792E+01  0.34200115828E+03  0.00000000000E+00 0.  1.
          5    1    4    4  502    0 -0.69479635272E+02 -0.53752387060E+02 -0.11932764647E+02  0.88776233894E+02  0.47000000000E+01 0. -1.
         -5    1    4    4    0  502 -0.55382261854E+02  0.26031930297E+02 -0.11353833029E+03  0.12906548248E+03  0.47000000000E+01 0. -1.
<mgrwt>
<rscale>  0 0.10009557E+04</rscale>
<asrwt>0</asrwt>
<pdfrwt beam="1">  1        2 0.10510194E+00 0.10009557E+04</pdfrwt>
<pdfrwt beam="2">  1       -2 0.56406904E-01 0.10009557E+04</pdfrwt>
<totfact> 0.15081056E+02</totfact>
</mgrwt>
</event>
<event>
 9    1  0.4497870E-036  0.9992886E+03  0.7818608E-02  0.8681716E-01
         -4   -1    0    0    0  501 -0.00000000000E+00  0.00000000000E+00  0.17077304504E+03  0.17077304504E+03  0.00000000000E+00 0.  1.
          4   -1    0    0  501    0  0.00000000000E+00 -0.00000000000E+00 -0.14618492348E+04  0.14618492348E+04  0.00000000000E+00 0.  1.
         36    2    1    2    0    0  0.00000000000E+00 -0.28421709430E-13 -0.12910761898E+04  0.16326222798E+04  0.99928863741E+03 0.  0.
         25    2    3    3    0    0  0.11783584739E+03 -0.56195088099E+02 -0.16278157602E+03  0.24335417949E+03  0.12522076636E+03 0.  0.
         35    2    3    3    0    0 -0.11783584739E+03  0.56195088099E+02 -0.11282946137E+04  0.13892681003E+04  0.79998371508E+03 0.  0.
         22    1    5    5    0    0 -0.30111836001E+03  0.34889929982E+03 -0.57305109304E+03  0.73538462275E+03  0.00000000000E+00 0. -1.
         22    1    5    5    0    0  0.18328251262E+03 -0.29270421172E+03 -0.55524352070E+03  0.65388347759E+03  0.00000000000E+00 0. -1.
          5    1    4    4  502    0  0.11699614953E+03 -0.33832605709E+02 -0.55961123570E+02  0.13411368895E+03  0.47000000000E+01 0.  1.
         -5    1    4    4    0  502  0.83969786474E+00 -0.22362482390E+02 -0.10682045245E+03  0.10924049054E+03  0.47000000000E+01 0.  1.
<mgrwt>
<rscale>  0 0.99928864E+03</rscale>
<asrwt>0</asrwt>
<pdfrwt beam="1">  1        4 0.22489989E+00 0.99928864E+03</pdfrwt>
<pdfrwt beam="2">  1       -4 0.26272775E-01 0.99928864E+03</pdfrwt>
<totfact> 0.21134817E+00</totfact>
</mgrwt>
</event>
<event>
 9    1  0.4497870E-036  0.1000137E+04  0.7818608E-02  0.8680907E-01
          2   -1    0    0  501    0  0.00000000000E+00  0.00000000000E+00  0.19083506018E+04  0.19083506018E+04  0.00000000000E+00 0.  1.
         -2   -1    0    0    0  501 -0.00000000000E+00 -0.00000000000E+00 -0.13103920184E+03  0.13103920184E+03  0.00000000000E+00 0.  1.
         36    2    1    2    0    0  0.00000000000E+00 -0.14210854715E-13  0.17773114000E+04  0.20393898037E+04  0.10001374699E+04 0.  0.
         25    2    3    3    0    0 -0.13726795497E+03  0.89039211352E+01  0.39548036272E+03  0.43696604126E+03  0.12495132110E+03 0.  0.
         35    2    3    3    0    0  0.13726795497E+03 -0.89039211352E+01  0.13818310373E+04  0.16024237624E+04  0.79961436174E+03 0.  0.
         22    1    5    5    0    0  0.21502307362E+03  0.12576121491E+03  0.40814447849E+02  0.25242152150E+03  0.00000000000E+00 0. -1.
         22    1    5    5    0    0 -0.77755118644E+02 -0.13466513605E+03  0.13410165894E+04  0.13500022409E+04  0.00000000000E+00 0. -1.
          5    1    4    4  502    0 -0.11163236224E+03 -0.40213496288E+02  0.18966434268E+03  0.22377122797E+03  0.47000000000E+01 0. -1.
         -5    1    4    4    0  502 -0.25635592733E+02  0.49117417423E+02  0.20581602005E+03  0.21319481330E+03  0.47000000000E+01 0. -1.
<mgrwt>
<rscale>  0 0.10001375E+04</rscale>
<asrwt>0</asrwt>
<pdfrwt beam="1">  1        2 0.29359238E+00 0.10001375E+04</pdfrwt>
<pdfrwt beam="2">  1       -2 0.20159879E-01 0.10001375E+04</pdfrwt>
<totfact> 0.18639478E+02</totfact>
</mgrwt>
</event>
<event>
 9    1  0.4497870E-036  0.1001220E+04  0.7818608E-02  0.8679877E-01
         -1   -1    0    0    0  501 -0.00000000000E+00  0.00000000000E+00  0.26207517377E+03  0.26207517377E+03  0.00000000000E+00 0. -1.
          1   -1    0    0  501    0  0.00000000000E+00 -0.00000000000E+00 -0.95625432324E+03  0.95625432324E+03  0.00000000000E+00 0. -1.
         36    2    1    2    0    0  0.00000000000E+00  0.00000000000E+00 -0.69417914948E+03  0.12183294970E+04  0.10012202913E+04 0.  0.
         25    2    3    3    0    0 -0.10428775045E+03  0.20090158079E+02 -0.26324923122E+03  0.30993139423E+03  0.12440965415E+03 0.  0.
         35    2    3    3    0    0  0.10428775045E+03 -0.20090158079E+02 -0.43092991826E+03  0.90839810278E+03  0.79259508536E+03 0.  0.
         22    1    5    5    0    0  0.35279947926E+03 -0.26691160885E+03 -0.18036538040E+03  0.47774569590E+03  0.00000000000E+00 0.  1.
         22    1    5    5    0    0 -0.24851172881E+03  0.24682145077E+03 -0.25056453786E+03  0.43065240688E+03  0.00000000000E+00 0.  1.
          5    1    4    4  502    0  0.30337473098E+01 -0.35074977944E+02 -0.27029028678E+02  0.44633127740E+02  0.47000000000E+01 0.  1.
         -5    1    4    4    0  502 -0.10732149776E+03  0.55165136023E+02 -0.23622020254E+03  0.26529826649E+03  0.47000000000E+01 0.  1.
<mgrwt>
<rscale>  0 0.10012203E+04</rscale>
<asrwt>0</asrwt>
<pdfrwt beam="1">  1        1 0.14711605E+00 0.10012203E+04</pdfrwt>
<pdfrwt beam="2">  1       -1 0.40319257E-01 0.10012203E+04</pdfrwt>
<totfact> 0.11047650E+02</totfact>
</mgrwt>
</event>
<event>
 9    1  0.4497870E-036  0.1000312E+04  0.7818608E-02  0.8680741E-01
         -2   -1    0    0    0  501 -0.00000000000E+00  0.00000000000E+00  0.51409472229E+03  0.51409472229E+03  0.00000000000E+00 0.  1.
          2   -1    0    0  501    0  0.00000000000E+00 -0.00000000000E+00 -0.48659478767E+03  0.48659478767E+03  0.00000000000E+00 0.  1.
         36    2    1    2    0    0 -0.14210854715E-13 -0.14210854715E-13  0.27499934619E+02  0.10006895100E+04  0.10003115759E+04 0.  0.
         25    2    3    3    0    0 -0.10767325818E+02 -0.96716529886E+02  0.10419971292E+03  0.19346908226E+03  0.13077722722E+03 0.  0.
         35    2    3    3    0    0  0.10767325818E+02  0.96716529886E+02 -0.76699778304E+02  0.80722042771E+03  0.79765402303E+03 0.  0.
         22    1    5    5    0    0 -0.16193873766E+03 -0.13488710194E+03 -0.35062767282E+03  0.40909467116E+03  0.00000000000E+00 0.  1.
         22    1    5    5    0    0  0.17270606348E+03  0.23160363183E+03  0.27392789451E+03  0.39812575655E+03  0.00000000000E+00 0.  1.
          5    1    4    4  502    0 -0.46450832871E+02 -0.17027829668E+02 -0.89240996624E+01  0.50491151823E+02  0.47000000000E+01 0. -1.
         -5    1    4    4    0  502  0.35683507052E+02 -0.79688700218E+02  0.11312381259E+03  0.14297793044E+03  0.47000000000E+01 0. -1.
<mgrwt>
<rscale>  0 0.10003116E+04</rscale>
<asrwt>0</asrwt>
<pdfrwt beam="1">  1        2 0.74860737E-01 0.10003116E+04</pdfrwt>
<pdfrwt beam="2">  1       -2 0.79091495E-01 0.10003116E+04</pdfrwt>
<totfact> 0.10866314E+02</totfact>
</mgrwt>
</event>
<event>
 9    1  0.4497870E-036  0.9995973E+03  0.7818608E-02  0.8681422E-01
          2   -1    0    0  501    0  0.00000000000E+00  0.00000000000E+00  0.17581422208E+03  0.17581422208E+03  0.00000000000E+00 0. -1.
         -2   -1    0    0    0  501 -0.00000000000E+00 -0.00000000000E+00 -0.14208105366E+04  0.14208105366E+04  0.00000000000E+00 0. -1.
         36    2    1    2    0    0  0.00000000000E+00  0.00000000000E+00 -0.12449963145E+04  0.15966247587E+04  0.99959731734E+03 0.  0.
         25    2    3    3    0    0  0.12945261783E+03 -0.65884677483E+02 -0.23977976228E+03  0.30709672803E+03  0.12536065960E+03 0.  0.
         35    2    3    3    0    0 -0.12945261783E+03  0.65884677483E+02 -0.10052165522E+04  0.12895280306E+04  0.79455865354E+03 0.  0.
         22    1    5    5    0    0  0.12979110417E+03 -0.25291638506E+03 -0.11055223497E+03  0.30501512292E+03  0.00000000000E+00 0.  1.
         22    1    5    5    0    0 -0.25924372200E+03  0.31880106254E+03 -0.89466431727E+03  0.98451290772E+03  0.00000000000E+00 0.  1.
          5    1    4    4  502    0 -0.22772286230E+02 -0.19236808599E+02 -0.22284715908E+02  0.37514402412E+02  0.47000000000E+01 0.  1.
         -5    1    4    4    0  502  0.15222490406E+03 -0.46647868884E+02 -0.21749504637E+03  0.26958232561E+03  0.47000000000E+01 0.  1.
<mgrwt>
<rscale>  0 0.99959732E+03</rscale>
<asrwt>0</asrwt>
<pdfrwt beam="1">  1        2 0.27048342E-01 0.99959732E+03</pdfrwt>
<pdfrwt beam="2">  1       -2 0.21858624E+00 0.99959732E+03</pdfrwt>
<totfact> 0.21822357E+01</totfact>
</mgrwt>
</event>
<event>
 9    1  0.4497870E-036  0.9999891E+03  0.7818608E-02  0.8681048E-01
          1   -1    0    0  501    0  0.00000000000E+00  0.00000000000E+00  0.77009107941E+03  0.77009107941E+03  0.00000000000E+00 0.  1.
         -1   -1    0    0    0  501 -0.00000000000E+00 -0.00000000000E+00 -0.32462983637E+03  0.32462983637E+03  0.00000000000E+00 0.  1.
         36    2    1    2    0    0  0.00000000000E+00 -0.28421709430E-13  0.44546124304E+03  0.10947209158E+04  0.99998908213E+03 0.  0.
         25    2    3    3    0    0  0.84548615555E+02 -0.11104018599E+03  0.10659072702E+03  0.21457063869E+03  0.12329065091E+03 0.  0.
         35    2    3    3    0    0 -0.84548615555E+02  0.11104018599E+03  0.33887051602E+03  0.88015027709E+03  0.80022052731E+03 0.  0.
         22    1    5    5    0    0 -0.33863839684E+03  0.31938528579E+03  0.28871292029E+03  0.54775731391E+03  0.00000000000E+00 0.  1.
         22    1    5    5    0    0  0.25408978128E+03 -0.20834509980E+03  0.50157595732E+02  0.33239296318E+03  0.00000000000E+00 0.  1.
          5    1    4    4  502    0 -0.16070555972E+02 -0.69319652070E+01  0.59575490525E+02  0.62270731345E+02  0.47000000000E+01 0.  1.
         -5    1    4    4    0  502  0.10061917153E+03 -0.10410822079E+03  0.47015236491E+02  0.15229990734E+03  0.47000000000E+01 0.  1.
<mgrwt>
<rscale>  0 0.99998908E+03</rscale>
<asrwt>0</asrwt>
<pdfrwt beam="1">  1        1 0.11847555E+00 0.99998908E+03</pdfrwt>
<pdfrwt beam="2">  1       -1 0.49943052E-01 0.99998908E+03</pdfrwt>
<totfact> 0.10794308E+02</totfact>
</mgrwt>
</event>
<event>
 9    1  0.4497870E-036  0.1000629E+04  0.7818608E-02  0.8680439E-01
         -2   -1    0    0    0  501 -0.00000000000E+00  0.00000000000E+00  0.28698715102E+03  0.28698715102E+03  0.00000000000E+00 0. -1.
          2   -1    0    0  501    0  0.00000000000E+00 -0.00000000000E+00 -0.87221486590E+03  0.87221486590E+03  0.00000000000E+00 0. -1.
         36    2    1    2    0    0  0.00000000000E+00 -0.71054273576E-14 -0.58522771488E+03  0.11592020169E+04  0.10006287212E+04 0.  0.
         25    2    3    3    0    0  0.96857767703E+02 -0.22525675228E+02  0.55785979398E+01  0.15991664764E+03  0.12511346942E+03 0.  0.
         35    2    3    3    0    0 -0.96857767703E+02  0.22525675228E+02 -0.59080631282E+03  0.99928536928E+03  0.79976891461E+03 0.  0.
         22    1    5    5    0    0 -0.49898490561E+02 -0.37892840130E+03 -0.39684313653E+03  0.55096376259E+03  0.00000000000E+00 0. -1.
         22    1    5    5    0    0 -0.46959277142E+02  0.40145407653E+03 -0.19396317629E+03  0.44832160669E+03  0.00000000000E+00 0. -1.
          5    1    4    4  502    0  0.99190212139E+02 -0.14497554535E+02 -0.43886202435E+02  0.10953066254E+03  0.47000000000E+01 0.  1.
         -5    1    4    4    0  502 -0.23324444360E+01 -0.80281206927E+01  0.49464800375E+02  0.50385985105E+02  0.47000000000E+01 0.  1.
<mgrwt>
<rscale>  0 0.10006287E+04</rscale>
<asrwt>0</asrwt>
<pdfrwt beam="1">  1        2 0.13418690E+00 0.10006287E+04</pdfrwt>
<pdfrwt beam="2">  1       -2 0.44151869E-01 0.10006287E+04</pdfrwt>
<totfact> 0.18031586E+02</totfact>
</mgrwt>
</event>
<event>
 9    1  0.4497870E-036  0.9999942E+03  0.7818608E-02  0.8681043E-01
          3   -1    0    0  501    0  0.00000000000E+00  0.00000000000E+00  0.48621477602E+03  0.48621477602E+03  0.00000000000E+00 0.  1.
         -3   -1    0    0    0  501 -0.00000000000E+00 -0.00000000000E+00 -0.51417007493E+03  0.51417007493E+03  0.00000000000E+00 0.  1.
         36    2    1    2    0    0  0.14210854715E-13  0.00000000000E+00 -0.27955298910E+02  0.10003848509E+04  0.99999417561E+03 0.  0.
         25    2    3    3    0    0 -0.12044088652E+03 -0.74750994767E+02  0.88265874632E+01  0.18732739881E+03  0.12214715442E+03 0.  0.
         35    2    3    3    0    0  0.12044088652E+03  0.74750994767E+02 -0.36781886373E+02  0.81305745214E+03  0.79975983579E+03 0.  0.
         22    1    5    5    0    0  0.41603105366E+03 -0.14370031725E+03  0.22647560187E+02  0.44073181275E+03  0.00000000000E+00 0.  1.
         22    1    5    5    0    0 -0.29559016714E+03  0.21845131202E+03 -0.59429446560E+02  0.37232563939E+03  0.00000000000E+00 0.  1.
          5    1    4    4  502    0 -0.36096959215E+02 -0.82965322119E+02 -0.27972719378E+02  0.94819819491E+02  0.47000000000E+01 0. -1.
         -5    1    4    4    0  502 -0.84343927302E+02  0.82143273528E+01  0.36799306841E+02  0.92507579315E+02  0.47000000000E+01 0. -1.
<mgrwt>
<rscale>  0 0.99999418E+03</rscale>
<asrwt>0</asrwt>
<pdfrwt beam="1">  1        3 0.74802274E-01 0.99999418E+03</pdfrwt>
<pdfrwt beam="2">  1       -3 0.79103088E-01 0.99999418E+03</pdfrwt>
<totfact> 0.99515989E+00</totfact>
</mgrwt>
</event>
<event>
 9    1  0.4497870E-036  0.1000809E+04  0.7818608E-02  0.8680268E-01
         -1   -1    0    0    0  501 -0.00000000000E+00  0.00000000000E+00  0.14698214492E+03  0.14698214492E+03  0.00000000000E+00 0.  1.
          1   -1    0    0  501    0  0.00000000000E+00 -0.00000000000E+00 -0.17036408732E+04  0.17036408732E+04  0.00000000000E+00 0.  1.
         36    2    1    2    0    0  0.14210854715E-13  0.28421709430E-13 -0.15566587283E+04  0.18506230182E+04  0.10008092520E+04 0.  0.
         25    2    3    3    0    0  0.53101432111E+02 -0.71195759735E+02 -0.90459660342E+02  0.17807830228E+03  0.12506131815E+03 0.  0.
         35    2    3    3    0    0 -0.53101432111E+02  0.71195759735E+02 -0.14661990680E+04  0.16725447159E+04  0.79986093876E+03 0.  0.
         22    1    5    5    0    0 -0.19937511654E+03  0.27867374504E+03 -0.23511096246E+03  0.41555584214E+03  0.00000000000E+00 0. -1.
         22    1    5    5    0    0  0.14627368443E+03 -0.20747798530E+03 -0.12310881055E+04  0.12569888737E+04  0.00000000000E+00 0. -1.
          5    1    4    4  502    0 -0.11180484166E+02  0.28750140040E+02 -0.34895958531E+02  0.46812302873E+02  0.47000000000E+01 0. -1.
         -5    1    4    4    0  502  0.64281916277E+02 -0.99945899775E+02 -0.55563701811E+02  0.13126599941E+03  0.47000000000E+01 0. -1.
<mgrwt>
<rscale>  0 0.10008093E+04</rscale>
<asrwt>0</asrwt>
<pdfrwt beam="1">  1        1 0.26209859E+00 0.10008093E+04</pdfrwt>
<pdfrwt beam="2">  1       -1 0.22612638E-01 0.10008093E+04</pdfrwt>
<totfact> 0.83869723E+01</totfact>
</mgrwt>
</event>
<event>
 9    1  0.4497870E-036  0.9948354E+03  0.7818608E-02  0.8685972E-01
         -2   -1    0    0    0  501 -0.00000000000E+00  0.00000000000E+00  0.40002222666E+03  0.40002222666E+03  0.00000000000E+00 0.  1.
          2   -1    0    0  501    0  0.00000000000E+00 -0.00000000000E+00 -0.61852658994E+03  0.61852658994E+03  0.00000000000E+00 0.  1.
         36    2    1    2    0    0  0.71054273576E-14  0.35527136788E-13 -0.21850436328E+03  0.10185488166E+04  0.99483543113E+03 0.  0.
         25    2    3    3    0    0 -0.59585489953E+02 -0.17450661143E+02  0.81122987449E+02  0.16142088409E+03  0.12498322504E+03 0.  0.
         35    2    3    3    0    0  0.59585489953E+02  0.17450661143E+02 -0.29962735073E+03  0.85712793251E+03  0.80064772977E+03 0.  0.
         22    1    5    5    0    0  0.10720007391E+03 -0.35997906545E+03 -0.29347054061E+03  0.47665683842E+03  0.00000000000E+00 0.  1.
         22    1    5    5    0    0 -0.47614583954E+02  0.37742972660E+03 -0.61568101228E+01  0.38047109408E+03  0.00000000000E+00 0.  1.
          5    1    4    4  502    0 -0.90671710785E+02  0.15474948387E+02  0.66514075868E+02  0.11360917856E+03  0.47000000000E+01 0. -1.
         -5    1    4    4    0  502  0.31086220832E+02 -0.32925609530E+02  0.14608911580E+02  0.47811705535E+02  0.47000000000E+01 0. -1.
<mgrwt>
<rscale>  0 0.99483543E+03</rscale>
<asrwt>0</asrwt>
<pdfrwt beam="1">  1        2 0.95157936E-01 0.99483543E+03</pdfrwt>
<pdfrwt beam="2">  1       -2 0.61541881E-01 0.99483543E+03</pdfrwt>
<totfact> 0.14189480E+02</totfact>
</mgrwt>
</event>
<event>
 9    1  0.4497870E-036  0.1000353E+04  0.7818608E-02  0.8680702E-01
         -1   -1    0    0    0  501 -0.00000000000E+00  0.00000000000E+00  0.76418621801E+02  0.76418621801E+02  0.00000000000E+00 0.  1.
          1   -1    0    0  501    0  0.00000000000E+00 -0.00000000000E+00 -0.32737632403E+04  0.32737632403E+04  0.00000000000E+00 0.  1.
         36    2    1    2    0    0  0.00000000000E+00 -0.56843418861E-13 -0.31973446185E+04  0.33501818621E+04  0.10003528876E+04 0.  0.
         25    2    3    3    0    0  0.46069026414E+02  0.10143930088E+03 -0.32332971683E+03  0.36501674113E+03  0.12760418709E+03 0.  0.
         35    2    3    3    0    0 -0.46069026414E+02 -0.10143930088E+03 -0.28740149017E+04  0.29851651210E+04  0.79927270533E+03 0.  0.
         22    1    5    5    0    0 -0.73406807670E+02 -0.42272960666E+03 -0.21529398570E+04  0.21952764992E+04  0.00000000000E+00 0. -1.
         22    1    5    5    0    0  0.27337781256E+02  0.32129030578E+03 -0.72107504463E+03  0.78988862180E+03  0.00000000000E+00 0. -1.
          5    1    4    4  502    0  0.70366504185E+02  0.24443534972E+02 -0.22850972164E+03  0.24039075315E+03  0.47000000000E+01 0. -1.
         -5    1    4    4    0  502 -0.24297477771E+02  0.76995765906E+02 -0.94819995186E+02  0.12462598798E+03  0.47000000000E+01 0. -1.
<mgrwt>
<rscale>  0 0.10003529E+04</rscale>
<asrwt>0</asrwt>
<pdfrwt beam="1">  1        1 0.50365576E+00 0.10003529E+04</pdfrwt>
<pdfrwt beam="2">  1       -1 0.11756714E-01 0.10003529E+04</pdfrwt>
<totfact> 0.18648910E+01</totfact>
</mgrwt>
</event>
<event>
 9    1  0.4497870E-036  0.1000411E+04  0.7818608E-02  0.8680646E-01
          2   -1    0    0  501    0  0.00000000000E+00  0.00000000000E+00  0.17872351484E+04  0.17872351484E+04  0.00000000000E+00 0.  1.
         -2   -1    0    0    0  501 -0.00000000000E+00 -0.00000000000E+00 -0.13999598078E+03  0.13999598078E+03  0.00000000000E+00 0.  1.
         36    2    1    2    0    0 -0.14210854715E-13  0.14210854715E-13  0.16472391676E+04  0.19272311291E+04  0.10004113903E+04 0.  0.
         25    2    3    3    0    0 -0.72872560094E+02  0.10423461347E+03  0.19169364976E+03  0.26155792792E+03  0.12446216149E+03 0.  0.
         35    2    3    3    0    0  0.72872560094E+02 -0.10423461347E+03  0.14555455178E+04  0.16656732012E+04  0.79979947119E+03 0.  0.
         22    1    5    5    0    0 -0.15597916407E+03  0.58484576859E+02 -0.16209257394E+02  0.16736990584E+03  0.00000000000E+00 0. -1.
         22    1    5    5    0    0  0.22885172416E+03 -0.16271919033E+03  0.14717547752E+04  0.14983032954E+04  0.00000000000E+00 0. -1.
          5    1    4    4  502    0  0.60582903005E+01  0.36697908897E+02  0.14094889368E+03  0.14584964871E+03  0.47000000000E+01 0. -1.
         -5    1    4    4    0  502 -0.78930850394E+02  0.67536704575E+02  0.50744756072E+02  0.11570827921E+03  0.47000000000E+01 0. -1.
<mgrwt>
<rscale>  0 0.10004114E+04</rscale>
<asrwt>0</asrwt>
<pdfrwt beam="1">  1        2 0.27495924E+00 0.10004114E+04</pdfrwt>
<pdfrwt beam="2">  1       -2 0.21537845E-01 0.10004114E+04</pdfrwt>
<totfact> 0.19452938E+02</totfact>
</mgrwt>
</event>
<event>
 9    1  0.4497870E-036  0.1001395E+04  0.7818608E-02  0.8679710E-01
          1   -1    0    0  501    0  0.00000000000E+00  0.00000000000E+00  0.68475767197E+03  0.68475767197E+03  0.00000000000E+00 0.  1.
         -1   -1    0    0    0  501 -0.00000000000E+00 -0.00000000000E+00 -0.36611232011E+03  0.36611232011E+03  0.00000000000E+00 0.  1.
         36    2    1    2    0    0  0.14210854715E-13 -0.14210854715E-13  0.31864535186E+03  0.10508699921E+04  0.10013954663E+04 0.  0.
         25    2    3    3    0    0  0.11382065352E+03  0.35333498251E+02 -0.12780357444E+02  0.17325616414E+03  0.12510301199E+03 0.  0.
         35    2    3    3    0    0 -0.11382065352E+03 -0.35333498251E+02  0.33142570930E+03  0.87761382794E+03  0.80384042753E+03 0.  0.
         22    1    5    5    0    0 -0.45805159412E+03 -0.76498367342E+01  0.12335305323E+03  0.47443203794E+03  0.00000000000E+00 0.  1.
         22    1    5    5    0    0  0.34423094060E+03 -0.27683661517E+02  0.20807265607E+03  0.40318179000E+03  0.00000000000E+00 0.  1.
          5    1    4    4  502    0  0.11271722024E+03  0.45593575034E+02  0.33013722875E+02  0.12607910898E+03  0.47000000000E+01 0. -1.
         -5    1    4    4    0  502  0.11034332779E+01 -0.10260076783E+02 -0.45794080319E+02  0.47177055153E+02  0.47000000000E+01 0. -1.
<mgrwt>
<rscale>  0 0.10013955E+04</rscale>
<asrwt>0</asrwt>
<pdfrwt beam="1">  1        1 0.10534733E+00 0.10013955E+04</pdfrwt>
<pdfrwt beam="2">  1       -1 0.56324973E-01 0.10013955E+04</pdfrwt>
<totfact> 0.10351613E+02</totfact>
</mgrwt>
</event>
<event>
 9    1  0.4497870E-036  0.1002641E+04  0.7818608E-02  0.8678527E-01
         -2   -1    0    0    0  501 -0.00000000000E+00  0.00000000000E+00  0.42536211934E+03  0.42536211934E+03  0.00000000000E+00 0. -1.
          2   -1    0    0  501    0  0.00000000000E+00 -0.00000000000E+00 -0.59084334016E+03  0.59084334016E+03  0.00000000000E+00 0. -1.
         36    2    1    2    0    0  0.00000000000E+00  0.14210854715E-13 -0.16548122082E+03  0.10162054595E+04  0.10026412626E+04 0.  0.
         25    2    3    3    0    0  0.63446762727E+02 -0.57126719325E+02 -0.14770134633E+03  0.21124747916E+03  0.12458272746E+03 0.  0.
         35    2    3    3    0    0 -0.63446762727E+02  0.57126719325E+02 -0.17779874489E+02  0.80495798035E+03  0.80022013998E+03 0.  0.
         22    1    5    5    0    0 -0.33122178412E+03  0.18799862546E+03  0.20530767409E+03  0.43266915131E+03  0.00000000000E+00 0.  1.
         22    1    5    5    0    0  0.26777502140E+03 -0.13087190614E+03 -0.22308754857E+03  0.37228882904E+03  0.00000000000E+00 0.  1.
          5    1    4    4  502    0  0.28954480611E+02 -0.84401021244E+02 -0.46330756055E+02  0.10065050070E+03  0.47000000000E+01 0.  1.
         -5    1    4    4    0  502  0.34492282116E+02  0.27274301920E+02 -0.10137059028E+03  0.11059697846E+03  0.47000000000E+01 0.  1.
<mgrwt>
<rscale>  0 0.10026413E+04</rscale>
<asrwt>0</asrwt>
<pdfrwt beam="1">  1        2 0.90898975E-01 0.10026413E+04</pdfrwt>
<pdfrwt beam="2">  1       -2 0.65440326E-01 0.10026413E+04</pdfrwt>
<totfact> 0.13154546E+02</totfact>
</mgrwt>
</event>
<event>
 9    1  0.4497870E-036  0.9993746E+03  0.7818608E-02  0.8681634E-01
         -1   -1    0    0    0  501 -0.00000000000E+00  0.00000000000E+00  0.12897104272E+04  0.12897104272E+04  0.00000000000E+00 0.  1.
          1   -1    0    0  501    0  0.00000000000E+00 -0.00000000000E+00 -0.19359956157E+03  0.19359956157E+03  0.00000000000E+00 0.  1.
         36    2    1    2    0    0  0.00000000000E+00  0.28421709430E-13  0.10961108656E+04  0.14833099887E+04  0.99937455092E+03 0.  0.
         25    2    3    3    0    0 -0.21702607254E+02 -0.13587917706E+03  0.16990414296E+03  0.25187174242E+03  0.12505120117E+03 0.  0.
         35    2    3    3    0    0  0.21702607254E+02  0.13587917706E+03  0.92620672264E+03  0.12314382463E+04  0.79977941179E+03 0.  0.
         22    1    5    5    0    0 -0.76070602357E+02 -0.23198891924E+03  0.15789606198E+02  0.24465262487E+03  0.00000000000E+00 0.  1.
         22    1    5    5    0    0  0.97773209611E+02  0.36786809630E+03  0.91041711644E+03  0.98678562145E+03  0.00000000000E+00 0.  1.
          5    1    4    4  502    0 -0.22240885340E+02  0.11506726728E+02 -0.17943322017E+01  0.25541561596E+02  0.47000000000E+01 0.  1.
         -5    1    4    4    0  502  0.53827808610E+00 -0.14738590379E+03  0.17169847516E+03  0.22633018083E+03  0.47000000000E+01 0.  1.
<mgrwt>
<rscale>  0 0.99937455E+03</rscale>
<asrwt>0</asrwt>
<pdfrwt beam="1">  1        1 0.29784549E-01 0.99937455E+03</pdfrwt>
<pdfrwt beam="2">  1       -1 0.19841698E+00 0.99937455E+03</pdfrwt>
<totfact> 0.24930528E+01</totfact>
</mgrwt>
</event>
<event>
 9    1  0.4497870E-036  0.1000187E+04  0.7818608E-02  0.8680860E-01
          1   -1    0    0  501    0  0.00000000000E+00  0.00000000000E+00  0.30616900496E+03  0.30616900496E+03  0.00000000000E+00 0. -1.
         -1   -1    0    0    0  501 -0.00000000000E+00 -0.00000000000E+00 -0.81684827941E+03  0.81684827941E+03  0.00000000000E+00 0. -1.
         36    2    1    2    0    0 -0.14210854715E-13  0.28421709430E-13 -0.51067927445E+03  0.11230172844E+04  0.10001872323E+04 0.  0.
         25    2    3    3    0    0  0.60113318732E+02 -0.10769896012E+03 -0.20776674329E+02  0.17670753369E+03  0.12482469774E+03 0.  0.
         35    2    3    3    0    0 -0.60113318732E+02  0.10769896012E+03 -0.48990260012E+03  0.94630975068E+03  0.80017804864E+03 0.  0.
         22    1    5    5    0    0  0.13941747696E+02 -0.29847010523E+03  0.87470120355E+01  0.29892354585E+03  0.00000000000E+00 0.  1.
         22    1    5    5    0    0 -0.74055066428E+02  0.40616906534E+03 -0.49864961215E+03  0.64738620483E+03  0.00000000000E+00 0.  1.
          5    1    4    4  502    0 -0.34575205174E+02 -0.30920895251E+02 -0.28198428905E+02  0.54486585217E+02  0.47000000000E+01 0. -1.
         -5    1    4    4    0  502  0.94688523905E+02 -0.76778064866E+02  0.74217545760E+01  0.12222094847E+03  0.47000000000E+01 0. -1.
<mgrwt>
<rscale>  0 0.10001872E+04</rscale>
<asrwt>0</asrwt>
<pdfrwt beam="1">  1        1 0.47102925E-01 0.10001872E+04</pdfrwt>
<pdfrwt beam="2">  1       -1 0.12566896E+00 0.10001872E+04</pdfrwt>
<totfact> 0.56573796E+01</totfact>
</mgrwt>
</event>
<event>
 9    1  0.4497870E-036  0.1000020E+04  0.7818608E-02  0.8681019E-01
         -2   -1    0    0    0  501 -0.00000000000E+00  0.00000000000E+00  0.25199563531E+03  0.25199563531E+03  0.00000000000E+00 0.  1.
          2   -1    0    0  501    0  0.00000000000E+00 -0.00000000000E+00 -0.99212000759E+03  0.99212000759E+03  0.00000000000E+00 0.  1.
         36    2    1    2    0    0 -0.14210854715E-13  0.00000000000E+00 -0.74012437227E+03  0.12441156429E+04  0.10000198230E+04 0.  0.
         25    2    3    3    0    0 -0.59777231846E+02 -0.50870800143E+02 -0.28354622958E+03  0.31992822137E+03  0.12567595937E+03 0.  0.
         35    2    3    3    0    0  0.59777231846E+02  0.50870800143E+02 -0.45657814269E+03  0.92418742153E+03  0.79968595960E+03 0.  0.
         22    1    5    5    0    0  0.52488885017E+02 -0.36301846637E+02 -0.68065528311E+03  0.68364063772E+03  0.00000000000E+00 0.  1.
         22    1    5    5    0    0  0.72883468289E+01  0.87172646779E+02  0.22407714041E+03  0.24054678381E+03  0.00000000000E+00 0.  1.
          5    1    4    4  502    0 -0.34550120261E+01 -0.91590001424E+01  0.11979797084E+02  0.16168794942E+02  0.47000000000E+01 0.  1.
         -5    1    4    4    0  502 -0.56322219820E+02 -0.41711800000E+02 -0.29552602667E+03  0.30375942642E+03  0.47000000000E+01 0.  1.
<mgrwt>
<rscale>  0 0.10000198E+04</rscale>
<asrwt>0</asrwt>
<pdfrwt beam="1">  1        2 0.15263385E+00 0.10000198E+04</pdfrwt>
<pdfrwt beam="2">  1       -2 0.38768559E-01 0.10000198E+04</pdfrwt>
<totfact> 0.19367734E+02</totfact>
</mgrwt>
</event>
<event>
 9    1  0.4497870E-036  0.9981770E+03  0.7818608E-02  0.8682776E-01
          2   -1    0    0  501    0  0.00000000000E+00  0.00000000000E+00  0.80280752736E+03  0.80280752736E+03  0.00000000000E+00 0. -1.
         -2   -1    0    0    0  501 -0.00000000000E+00 -0.00000000000E+00 -0.31027276986E+03  0.31027276986E+03  0.00000000000E+00 0. -1.
         36    2    1    2    0    0  0.14210854715E-13  0.00000000000E+00  0.49253475750E+03  0.11130802972E+04  0.99817696863E+03 0.  0.
         25    2    3    3    0    0  0.10198345960E+03  0.91977813518E+02  0.10903839806E+03  0.21538039283E+03  0.12505517643E+03 0.  0.
         35    2    3    3    0    0 -0.10198345960E+03 -0.91977813518E+02  0.38349635944E+03  0.89769990439E+03  0.79995944674E+03 0.  0.
         22    1    5    5    0    0 -0.33383095344E+02  0.33357848216E+03  0.31730618328E+03  0.46159749648E+03  0.00000000000E+00 0.  1.
         22    1    5    5    0    0 -0.68600364252E+02 -0.42555629567E+03  0.66190176159E+02  0.43610240791E+03  0.00000000000E+00 0.  1.
          5    1    4    4  502    0  0.12318466251E+03  0.58664332612E+02  0.11042517361E+03  0.17558978889E+03  0.47000000000E+01 0.  1.
         -5    1    4    4    0  502 -0.21201202909E+02  0.33313480906E+02 -0.13867755501E+01  0.39790603932E+02  0.47000000000E+01 0.  1.
<mgrwt>
<rscale>  0 0.99817697E+03</rscale>
<asrwt>0</asrwt>
<pdfrwt beam="1">  1        2 0.12350885E+00 0.99817697E+03</pdfrwt>
<pdfrwt beam="2">  1       -2 0.47734273E-01 0.99817697E+03</pdfrwt>
<totfact> 0.17254395E+02</totfact>
</mgrwt>
</event>
<event>
 9    1  0.4497870E-036  0.1001472E+04  0.7818608E-02  0.8679638E-01
         -2   -1    0    0    0  501 -0.00000000000E+00  0.00000000000E+00  0.43890671288E+03  0.43890671288E+03  0.00000000000E+00 0. -1.
          2   -1    0    0  501    0  0.00000000000E+00 -0.00000000000E+00 -0.57127492801E+03  0.57127492801E+03  0.00000000000E+00 0. -1.
         36    2    1    2    0    0  0.88817841970E-14  0.00000000000E+00 -0.13236821513E+03  0.10101816409E+04  0.10014717186E+04 0.  0.
         25    2    3    3    0    0 -0.12904938491E+02 -0.18250475153E+02  0.11855931588E+03  0.17332665877E+03  0.12444356945E+03 0.  0.
         35    2    3    3    0    0  0.12904938491E+02  0.18250475153E+02 -0.25092753101E+03  0.83685498212E+03  0.79803635131E+03 0.  0.
         22    1    5    5    0    0  0.33069947877E+03  0.23522899422E+03 -0.70704569238E+02  0.41193926869E+03  0.00000000000E+00 0. -1.
         22    1    5    5    0    0 -0.31779454028E+03 -0.21697851906E+03 -0.18022296177E+03  0.42491571343E+03  0.00000000000E+00 0. -1.
          5    1    4    4  502    0  0.15047903534E+02 -0.87903553172E+01  0.13701883352E+03  0.13820260666E+03  0.47000000000E+01 0. -1.
         -5    1    4    4    0  502 -0.27952842025E+02 -0.94601198356E+01 -0.18459517646E+02  0.35124052105E+02  0.47000000000E+01 0. -1.
<mgrwt>
<rscale>  0 0.10014717E+04</rscale>
<asrwt>0</asrwt>
<pdfrwt beam="1">  1        2 0.87888451E-01 0.10014717E+04</pdfrwt>
<pdfrwt beam="2">  1       -2 0.67524110E-01 0.10014717E+04</pdfrwt>
<totfact> 0.12798664E+02</totfact>
</mgrwt>
</event>
<event>
 9    1  0.4497870E-036  0.9999488E+03  0.7818608E-02  0.8681087E-01
         -1   -1    0    0    0  501 -0.00000000000E+00  0.00000000000E+00  0.20280246241E+04  0.20280246241E+04  0.00000000000E+00 0. -1.
          1   -1    0    0  501    0  0.00000000000E+00 -0.00000000000E+00 -0.12326004925E+03  0.12326004925E+03  0.00000000000E+00 0. -1.
         36    2    1    2    0    0 -0.28421709430E-13  0.51514348343E-13  0.19047645748E+04  0.21512846733E+04  0.99994882878E+03 0.  0.
         25    2    3    3    0    0 -0.13443401616E+03 -0.15613857269E+02  0.27943994861E+03  0.33446682753E+03  0.12435866114E+03 0.  0.
         35    2    3    3    0    0  0.13443401616E+03  0.15613857269E+02  0.16253246262E+04  0.18168178458E+04  0.80051898601E+03 0.  0.
         22    1    5    5    0    0 -0.21005047377E+03  0.28420718365E+03  0.93869188199E+03  0.10030141445E+04  0.00000000000E+00 0. -1.
         22    1    5    5    0    0  0.34448448993E+03 -0.26859332639E+03  0.68663274423E+03  0.81380370128E+03  0.00000000000E+00 0. -1.
          5    1    4    4  502    0 -0.15681316458E+03 -0.25392803358E+02  0.24120440188E+03  0.28885431714E+03  0.47000000000E+01 0.  1.
         -5    1    4    4    0  502  0.22379148413E+02  0.97789460886E+01  0.38235546730E+02  0.45612510390E+02  0.47000000000E+01 0.  1.
<mgrwt>
<rscale>  0 0.99994883E+03</rscale>
<asrwt>0</asrwt>
<pdfrwt beam="1">  1        1 0.18963086E-01 0.99994883E+03</pdfrwt>
<pdfrwt beam="2">  1       -1 0.31200376E+00 0.99994883E+03</pdfrwt>
<totfact> 0.30567172E+00</totfact>
</mgrwt>
</event>
<event>
 9    1  0.4497870E-036  0.9999661E+03  0.7818608E-02  0.8681070E-01
          1   -1    0    0  501    0  0.00000000000E+00  0.00000000000E+00  0.14935087666E+04  0.14935087666E+04  0.00000000000E+00 0.  1.
         -1   -1    0    0    0  501 -0.00000000000E+00 -0.00000000000E+00 -0.16737969556E+03  0.16737969556E+03  0.00000000000E+00 0.  1.
         36    2    1    2    0    0  0.00000000000E+00  0.14210854715E-13  0.13261290710E+04  0.16608884621E+04  0.99996608476E+03 0.  0.
         25    2    3    3    0    0 -0.12161921234E+03  0.32221355390E+02  0.15458124056E+03  0.23569909110E+03  0.12581435950E+03 0.  0.
         35    2    3    3    0    0  0.12161921234E+03 -0.32221355390E+02  0.11715478305E+04  0.14251893710E+04  0.80175493495E+03 0.  0.
         22    1    5    5    0    0 -0.95302631159E+02 -0.81116864460E+02  0.11950512356E+04  0.12015864483E+04  0.00000000000E+00 0.  1.
         22    1    5    5    0    0  0.21692184350E+03  0.48895509071E+02 -0.23503405094E+02  0.22360292271E+03  0.00000000000E+00 0.  1.
          5    1    4    4  502    0 -0.31307652190E+02  0.55175750401E+02  0.12069824082E+03  0.13643565464E+03  0.47000000000E+01 0.  1.
         -5    1    4    4    0  502 -0.90311560151E+02 -0.22954395012E+02  0.33882999742E+02  0.99263436465E+02  0.47000000000E+01 0.  1.
<mgrwt>
<rscale>  0 0.99996608E+03</rscale>
<asrwt>0</asrwt>
<pdfrwt beam="1">  1        1 0.22977057E+00 0.99996608E+03</pdfrwt>
<pdfrwt beam="2">  1       -1 0.25750723E-01 0.99996608E+03</pdfrwt>
<totfact> 0.95040569E+01</totfact>
</mgrwt>
</event>
<event>
 9    1  0.4497870E-036  0.9993632E+03  0.7818608E-02  0.8681645E-01
         -1   -1    0    0    0  501 -0.00000000000E+00  0.00000000000E+00  0.51440754729E+03  0.51440754729E+03  0.00000000000E+00 0.  1.
          1   -1    0    0  501    0  0.00000000000E+00 -0.00000000000E+00 -0.48537724506E+03  0.48537724506E+03  0.00000000000E+00 0.  1.
         36    2    1    2    0    0  0.00000000000E+00 -0.14210854715E-13  0.29030302234E+02  0.99978479235E+03  0.99936323355E+03 0.  0.
         25    2    3    3    0    0 -0.75374411522E+02 -0.99573815685E+02  0.67090190749E+02  0.18899531786E+03  0.12498755857E+03 0.  0.
         35    2    3    3    0    0  0.75374411522E+02  0.99573815685E+02 -0.38059888515E+02  0.81078947449E+03  0.80020920398E+03 0.  0.
         22    1    5    5    0    0  0.17156082635E+03  0.13121290739E+03 -0.38932388074E+03  0.44522244813E+03  0.00000000000E+00 0.  1.
         22    1    5    5    0    0 -0.96186414831E+02 -0.31639091707E+02  0.35126399223E+03  0.36556702635E+03  0.00000000000E+00 0.  1.
          5    1    4    4  502    0  0.30015109366E+02 -0.52240031814E+02  0.30664828588E+02  0.67766875585E+02  0.47000000000E+01 0.  1.
         -5    1    4    4    0  502 -0.10538952089E+03 -0.47333783871E+02  0.36425362162E+02  0.12122844228E+03  0.47000000000E+01 0.  1.
<mgrwt>
<rscale>  0 0.99936323E+03</rscale>
<asrwt>0</asrwt>
<pdfrwt beam="1">  1        1 0.74673422E-01 0.99936323E+03</pdfrwt>
<pdfrwt beam="2">  1       -1 0.79139623E-01 0.99936323E+03</pdfrwt>
<totfact> 0.87148257E+01</totfact>
</mgrwt>
</event>
<event>
 9    1  0.4497870E-036  0.9998111E+03  0.7818608E-02  0.8681218E-01
         -2   -1    0    0    0  501 -0.00000000000E+00  0.00000000000E+00  0.58535885790E+03  0.58535885790E+03  0.00000000000E+00 0.  1.
          2   -1    0    0  501    0  0.00000000000E+00 -0.00000000000E+00 -0.42692710804E+03  0.42692710804E+03  0.00000000000E+00 0.  1.
         36    2    1    2    0    0  0.00000000000E+00  0.00000000000E+00  0.15843174987E+03  0.10122859659E+04  0.99981111090E+03 0.  0.
         25    2    3    3    0    0 -0.80215741541E+02  0.83124381352E+02  0.11072231190E+03  0.20224089389E+03  0.12368395547E+03 0.  0.
         35    2    3    3    0    0  0.80215741541E+02 -0.83124381352E+02  0.47709437968E+02  0.81004507206E+03  0.80034530068E+03 0.  0.
         22    1    5    5    0    0 -0.26867602592E+03  0.21937812728E+03  0.21812471152E+02  0.34754762772E+03  0.00000000000E+00 0. -1.
         22    1    5    5    0    0  0.34889176746E+03 -0.30250250863E+03  0.25896966816E+02  0.46249744434E+03  0.00000000000E+00 0. -1.
          5    1    4    4  502    0  0.51135941464E+01 -0.14497998283E+02  0.61349749324E+02  0.63420994484E+02  0.47000000000E+01 0.  1.
         -5    1    4    4    0  502 -0.85329335687E+02  0.97622379635E+02  0.49372562575E+02  0.13881989940E+03  0.47000000000E+01 0.  1.
<mgrwt>
<rscale>  0 0.99981111E+03</rscale>
<asrwt>0</asrwt>
<pdfrwt beam="1">  1        2 0.65681094E-01 0.99981111E+03</pdfrwt>
<pdfrwt beam="2">  1       -2 0.90055208E-01 0.99981111E+03</pdfrwt>
<totfact> 0.93151390E+01</totfact>
</mgrwt>
</event>
<event>
 9    1  0.4497870E-036  0.1000249E+04  0.7818608E-02  0.8680801E-01
         -2   -1    0    0    0  501 -0.00000000000E+00  0.00000000000E+00  0.37247311055E+03  0.37247311055E+03  0.00000000000E+00 0. -1.
          2   -1    0    0  501    0  0.00000000000E+00 -0.00000000000E+00 -0.67152352368E+03  0.67152352368E+03  0.00000000000E+00 0. -1.
         36    2    1    2    0    0  0.14210854715E-13  0.14210854715E-13 -0.29905041314E+03  0.10439966342E+04  0.10002488804E+04 0.  0.
         25    2    3    3    0    0  0.84595722278E+02  0.27411686007E+02  0.57458572411E+02  0.16425975748E+03  0.12558639906E+03 0.  0.
         35    2    3    3    0    0 -0.84595722278E+02 -0.27411686007E+02 -0.35650898555E+03  0.87973687675E+03  0.79933126974E+03 0.  0.
         22    1    5    5    0    0 -0.42068640032E+03  0.11462775626E+03 -0.15391308308E+03  0.46239140029E+03  0.00000000000E+00 0. -1.
         22    1    5    5    0    0  0.33609067804E+03 -0.14203944227E+03 -0.20259590247E+03  0.41734547646E+03  0.00000000000E+00 0. -1.
          5    1    4    4  502    0  0.22915104476E+02  0.69465336737E+02  0.50763601629E+02  0.89160351455E+02  0.47000000000E+01 0. -1.
         -5    1    4    4    0  502  0.61680617802E+02 -0.42053650730E+02  0.66949707818E+01  0.75099406029E+02  0.47000000000E+01 0. -1.
<mgrwt>
<rscale>  0 0.10002489E+04</rscale>
<asrwt>0</asrwt>
<pdfrwt beam="1">  1        2 0.10331131E+00 0.10002489E+04</pdfrwt>
<pdfrwt beam="2">  1       -2 0.57303557E-01 0.10002489E+04</pdfrwt>
<totfact> 0.14907515E+02</totfact>
</mgrwt>
</event>
<event>
 9    1  0.4497870E-036  0.9998632E+03  0.7818608E-02  0.8681168E-01
          2   -1    0    0  501    0  0.00000000000E+00  0.00000000000E+00  0.11147130070E+04  0.11147130070E+04  0.00000000000E+00 0. -1.
         -2   -1    0    0    0  501 -0.00000000000E+00 -0.00000000000E+00 -0.22421163231E+03  0.22421163231E+03  0.00000000000E+00 0. -1.
         36    2    1    2    0    0 -0.71054273576E-14  0.00000000000E+00  0.89050137469E+03  0.13389246393E+04  0.99986323635E+03 0.  0.
         25    2    3    3    0    0  0.40589986796E+02 -0.59126103606E+02  0.64910736882E+01  0.14410045034E+03  0.12481731689E+03 0.  0.
         35    2    3    3    0    0 -0.40589986796E+02  0.59126103606E+02  0.88401030100E+03  0.11948241890E+04  0.80061675420E+03 0.  0.
         22    1    5    5    0    0 -0.27126652121E+03  0.14668947775E+03  0.34623222101E+02  0.31032578997E+03  0.00000000000E+00 0. -1.
         22    1    5    5    0    0  0.23067653442E+03 -0.87563374140E+02  0.84938707890E+03  0.88449839899E+03  0.00000000000E+00 0. -1.
          5    1    4    4  502    0  0.12201777997E+02  0.21383944474E+02 -0.39679257260E+02  0.46932823527E+02  0.47000000000E+01 0. -1.
         -5    1    4    4    0  502  0.28388208799E+02 -0.80510048079E+02  0.46170330948E+02  0.97167626813E+02  0.47000000000E+01 0. -1.
<mgrwt>
<rscale>  0 0.99986324E+03</rscale>
<asrwt>0</asrwt>
<pdfrwt beam="1">  1        2 0.17149431E+00 0.99986324E+03</pdfrwt>
<pdfrwt beam="2">  1       -2 0.34494098E-01 0.99986324E+03</pdfrwt>
<totfact> 0.20275927E+02</totfact>
</mgrwt>
</event>
<event>
 9    1  0.4497870E-036  0.1000278E+04  0.7818608E-02  0.8680774E-01
         -2   -1    0    0    0  501 -0.00000000000E+00  0.00000000000E+00  0.33870403990E+03  0.33870403990E+03  0.00000000000E+00 0.  1.
          2   -1    0    0  501    0  0.00000000000E+00 -0.00000000000E+00 -0.73851726539E+03  0.73851726539E+03  0.00000000000E+00 0.  1.
         36    2    1    2    0    0  0.00000000000E+00 -0.35527136788E-14 -0.39981322549E+03  0.10772213053E+04  0.10002775241E+04 0.  0.
         25    2    3    3    0    0  0.10079779656E+03  0.26916402814E+01 -0.18138623484E+03  0.24226580487E+03  0.12499725318E+03 0.  0.
         35    2    3    3    0    0 -0.10079779656E+03 -0.26916402814E+01 -0.21842699065E+03  0.83495550042E+03  0.79954543130E+03 0.  0.
         22    1    5    5    0    0 -0.23241903967E+03 -0.24851758238E+03 -0.38208353279E+03  0.51163211860E+03  0.00000000000E+00 0. -1.
         22    1    5    5    0    0  0.13162124311E+03  0.24582594210E+03  0.16365654214E+03  0.32332338182E+03  0.00000000000E+00 0. -1.
          5    1    4    4  502    0  0.54568519532E+02  0.26147688345E+02 -0.79783689755E+01  0.61214126647E+02  0.47000000000E+01 0. -1.
         -5    1    4    4    0  502  0.46229277030E+02 -0.23456048063E+02 -0.17340786586E+03  0.18105167822E+03  0.47000000000E+01 0. -1.
<mgrwt>
<rscale>  0 0.10002775E+04</rscale>
<asrwt>0</asrwt>
<pdfrwt beam="1">  1        2 0.11361804E+00 0.10002775E+04</pdfrwt>
<pdfrwt beam="2">  1       -2 0.52108314E-01 0.10002775E+04</pdfrwt>
<totfact> 0.16100263E+02</totfact>
</mgrwt>
</event>
<event>
 9    1  0.4497870E-036  0.1000729E+04  0.7818608E-02  0.8680344E-01
         -2   -1    0    0    0  501 -0.00000000000E+00  0.00000000000E+00  0.25452426845E+03  0.25452426845E+03  0.00000000000E+00 0.  1.
          2   -1    0    0  501    0  0.00000000000E+00 -0.00000000000E+00 -0.98365630776E+03  0.98365630776E+03  0.00000000000E+00 0.  1.
         36    2    1    2    0    0  0.00000000000E+00 -0.71054273576E-14 -0.72913203931E+03  0.12381805762E+04  0.10007285389E+04 0.  0.
         25    2    3    3    0    0 -0.74870819674E+02  0.40476932878E+00  0.93587486336E+01  0.14663327696E+03  0.12572958387E+03 0.  0.
         35    2    3    3    0    0  0.74870819674E+02 -0.40476932878E+00 -0.73849078794E+03  0.10915472992E+04  0.80031310068E+03 0.  0.
         22    1    5    5    0    0 -0.18527157440E+03  0.30938503391E+03 -0.51702058709E+03  0.63036096244E+03  0.00000000000E+00 0. -1.
         22    1    5    5    0    0  0.26014239408E+03 -0.30978980324E+03 -0.22147020086E+03  0.46118633681E+03  0.00000000000E+00 0. -1.
          5    1    4    4  502    0 -0.85256144929E+02 -0.19366818840E+02  0.49411299801E+02  0.10053482217E+03  0.47000000000E+01 0.  1.
         -5    1    4    4    0  502  0.10385325255E+02  0.19771588168E+02 -0.40052551168E+02  0.46098454794E+02  0.47000000000E+01 0.  1.
<mgrwt>
<rscale>  0 0.10007285E+04</rscale>
<asrwt>0</asrwt>
<pdfrwt beam="1">  1        2 0.15133174E+00 0.10007285E+04</pdfrwt>
<pdfrwt beam="2">  1       -2 0.39157580E-01 0.10007285E+04</pdfrwt>
<totfact> 0.19238061E+02</totfact>
</mgrwt>
</event>
<event>
 9    1  0.4497870E-036  0.1000782E+04  0.7818608E-02  0.8680294E-01
          2   -1    0    0  501    0  0.00000000000E+00  0.00000000000E+00  0.81302097680E+03  0.81302097680E+03  0.00000000000E+00 0. -1.
         -2   -1    0    0    0  501 -0.00000000000E+00 -0.00000000000E+00 -0.30797609046E+03  0.30797609046E+03  0.00000000000E+00 0. -1.
         36    2    1    2    0    0 -0.14210854715E-13 -0.28421709430E-13  0.50504488635E+03  0.11209970673E+04  0.10007817382E+04 0.  0.
         25    2    3    3    0    0 -0.85434646608E+02  0.11141420584E+03  0.10345253480E+03  0.21492673011E+03  0.12561396521E+03 0.  0.
         35    2    3    3    0    0  0.85434646608E+02 -0.11141420584E+03  0.40159235154E+03  0.90607033715E+03  0.79998427168E+03 0.  0.
         22    1    5    5    0    0 -0.17610725262E+03  0.26336809499E+03  0.32239429686E+02  0.31845862951E+03  0.00000000000E+00 0. -1.
         22    1    5    5    0    0  0.26154189923E+03 -0.37478230083E+03  0.36935292186E+03  0.58761170764E+03  0.00000000000E+00 0. -1.
          5    1    4    4  502    0 -0.59847089341E+02 -0.86753895703E+01  0.12191088439E+02  0.61867997577E+02  0.47000000000E+01 0. -1.
         -5    1    4    4    0  502 -0.25587557267E+02  0.12008959541E+03  0.91261446365E+02  0.15305873254E+03  0.47000000000E+01 0. -1.
<mgrwt>
<rscale>  0 0.10007817E+04</rscale>
<asrwt>0</asrwt>
<pdfrwt beam="1">  1        2 0.12508015E+00 0.10007817E+04</pdfrwt>
<pdfrwt beam="2">  1       -2 0.47380937E-01 0.10007817E+04</pdfrwt>
<totfact> 0.17224397E+02</totfact>
</mgrwt>
</event>
<event>
 9    1  0.4497870E-036  0.1000919E+04  0.7818608E-02  0.8680163E-01
         -2   -1    0    0    0  501 -0.00000000000E+00  0.00000000000E+00  0.20360307569E+03  0.20360307569E+03  0.00000000000E+00 0. -1.
          2   -1    0    0  501    0  0.00000000000E+00 -0.00000000000E+00 -0.12301376703E+04  0.12301376703E+04  0.00000000000E+00 0. -1.
         36    2    1    2    0    0  0.14210854715E-13  0.71054273576E-14 -0.10265345946E+04  0.14337407460E+04  0.10009192039E+04 0.  0.
         25    2    3    3    0    0  0.89586667263E+02 -0.51387766638E+02 -0.34112725765E+03  0.37738238192E+03  0.12402895937E+03 0.  0.
         35    2    3    3    0    0 -0.89586667263E+02  0.51387766638E+02 -0.68540733697E+03  0.10563583641E+04  0.79714697659E+03 0.  0.
         22    1    5    5    0    0 -0.10871917732E+03  0.39730105095E+03 -0.19451070186E+03  0.45552431081E+03  0.00000000000E+00 0. -1.
         22    1    5    5    0    0  0.19132510061E+02 -0.34591328431E+03 -0.49089663512E+03  0.60083405327E+03  0.00000000000E+00 0. -1.
          5    1    4    4  502    0 -0.30943890972E+02 -0.45239378641E+01 -0.77610547950E+02  0.83806190436E+02  0.47000000000E+01 0. -1.
         -5    1    4    4    0  502  0.12053055823E+03 -0.46863828774E+02 -0.26351670970E+03  0.29357619149E+03  0.47000000000E+01 0. -1.
<mgrwt>
<rscale>  0 0.10009192E+04</rscale>
<asrwt>0</asrwt>
<pdfrwt beam="1">  1        2 0.18925195E+00 0.10009192E+04</pdfrwt>
<pdfrwt beam="2">  1       -2 0.31323550E-01 0.10009192E+04</pdfrwt>
<totfact> 0.20684792E+02</totfact>
</mgrwt>
</event>
<event>
 9    1  0.4497870E-036  0.1004779E+04  0.7818608E-02  0.8676500E-01
         -1   -1    0    0    0  501 -0.00000000000E+00  0.00000000000E+00  0.22569307525E+03  0.22569307525E+03  0.00000000000E+00 0. -1.
          1   -1    0    0  501    0  0.00000000000E+00 -0.00000000000E+00 -0.11183111862E+04  0.11183111862E+04  0.00000000000E+00 0. -1.
         36    2    1    2    0    0 -0.14210854715E-13 -0.28421709430E-13 -0.89261811100E+03  0.13440042615E+04  0.10047787631E+04 0.  0.
         25    2    3    3    0    0  0.40910151961E+02 -0.98003555267E+02 -0.30083634936E+03  0.34238610621E+03  0.12428756676E+03 0.  0.
         35    2    3    3    0    0 -0.40910151961E+02  0.98003555267E+02 -0.59178176164E+03  0.10016181553E+04  0.80109608550E+03 0.  0.
         22    1    5    5    0    0 -0.29165482977E+03  0.33716148978E+03 -0.23376209598E+03  0.50337374528E+03  0.00000000000E+00 0. -1.
         22    1    5    5    0    0  0.25074467781E+03 -0.23915793452E+03 -0.35801966566E+03  0.49824441000E+03  0.00000000000E+00 0. -1.
          5    1    4    4  502    0  0.51468317979E+02  0.47450987007E+01 -0.54645035317E+02  0.75363609269E+02  0.47000000000E+01 0. -1.
         -5    1    4    4    0  502 -0.10558166018E+02 -0.10274865397E+03 -0.24619131404E+03  0.26702249694E+03  0.47000000000E+01 0. -1.
<mgrwt>
<rscale>  0 0.10047788E+04</rscale>
<asrwt>0</asrwt>
<pdfrwt beam="1">  1        1 0.17204788E+00 0.10047788E+04</pdfrwt>
<pdfrwt beam="2">  1       -1 0.34722011E-01 0.10047788E+04</pdfrwt>
<totfact> 0.10724668E+02</totfact>
</mgrwt>
</event>
<event>
 9    1  0.4497870E-036  0.9999663E+03  0.7818608E-02  0.8681070E-01
         -1   -1    0    0    0  501 -0.00000000000E+00  0.00000000000E+00  0.11629104578E+04  0.11629104578E+04  0.00000000000E+00 0.  1.
          1   -1    0    0  501    0  0.00000000000E+00 -0.00000000000E+00 -0.21496337672E+03  0.21496337672E+03  0.00000000000E+00 0.  1.
         36    2    1    2    0    0  0.00000000000E+00  0.21316282073E-13  0.94794708109E+03  0.13778738345E+04  0.99996631710E+03 0.  0.
         25    2    3    3    0    0 -0.10184376737E+03 -0.30123746247E+02  0.55073513208E+02  0.17420318061E+03  0.12662568158E+03 0.  0.
         35    2    3    3    0    0  0.10184376737E+03  0.30123746247E+02  0.89287356789E+03  0.12036706539E+04  0.80020012613E+03 0.  0.
         22    1    5    5    0    0 -0.62182189242E+01  0.20509974137E+03 -0.71743462291E+02  0.21737454897E+03  0.00000000000E+00 0. -1.
         22    1    5    5    0    0  0.10806198629E+03 -0.17497599513E+03  0.96461703018E+03  0.98629610496E+03  0.00000000000E+00 0. -1.
          5    1    4    4  502    0 -0.71770772961E+02 -0.32585852195E+02  0.95259482382E+02  0.12373092014E+03  0.47000000000E+01 0. -1.
         -5    1    4    4    0  502 -0.30072994405E+02  0.24621059475E+01 -0.40185969174E+02  0.50472260467E+02  0.47000000000E+01 0. -1.
<mgrwt>
<rscale>  0 0.99996632E+03</rscale>
<asrwt>0</asrwt>
<pdfrwt beam="1">  1        1 0.33071289E-01 0.99996632E+03</pdfrwt>
<pdfrwt beam="2">  1       -1 0.17890930E+00 0.99996632E+03</pdfrwt>
<totfact> 0.31763474E+01</totfact>
</mgrwt>
</event>
<event>
 9    1  0.4497870E-036  0.1000314E+04  0.7818608E-02  0.8680739E-01
         -2   -1    0    0    0  501 -0.00000000000E+00  0.00000000000E+00  0.20072851506E+03  0.20072851506E+03  0.00000000000E+00 0. -1.
          2   -1    0    0  501    0  0.00000000000E+00 -0.00000000000E+00 -0.12462453912E+04  0.12462453912E+04  0.00000000000E+00 0. -1.
         36    2    1    2    0    0  0.00000000000E+00  0.00000000000E+00 -0.10455168761E+04  0.14469739063E+04  0.10003139243E+04 0.  0.
         25    2    3    3    0    0  0.60214358038E+02 -0.12514528357E+03 -0.20625284844E+03  0.27960613930E+03  0.12787589580E+03 0.  0.
         35    2    3    3    0    0 -0.60214358038E+02  0.12514528357E+03 -0.83926402770E+03  0.11673677670E+04  0.79943497812E+03 0.  0.
         22    1    5    5    0    0  0.13927899643E+01  0.99539263259E+02 -0.99394204716E+03  0.99891481014E+03  0.00000000000E+00 0. -1.
         22    1    5    5    0    0 -0.61607148002E+02  0.25606020316E+02  0.15467801946E+03  0.16845295683E+03  0.00000000000E+00 0. -1.
          5    1    4    4  502    0  0.33463926689E+02 -0.28189330332E+02  0.62576440135E+01  0.44449081460E+02  0.47000000000E+01 0.  1.
         -5    1    4    4    0  502  0.26750431349E+02 -0.96955953243E+02 -0.21251049246E+03  0.23515705784E+03  0.47000000000E+01 0.  1.
<mgrwt>
<rscale>  0 0.10003139E+04</rscale>
<asrwt>0</asrwt>
<pdfrwt beam="1">  1        2 0.19173006E+00 0.10003139E+04</pdfrwt>
<pdfrwt beam="2">  1       -2 0.30881311E-01 0.10003139E+04</pdfrwt>
<totfact> 0.20774332E+02</totfact>
</mgrwt>
</event>
<event>
 9    1  0.4497870E-036  0.1000431E+04  0.7818608E-02  0.8680628E-01
         -2   -1    0    0    0  501 -0.00000000000E+00  0.00000000000E+00  0.14856868921E+03  0.14856868921E+03  0.00000000000E+00 0.  1.
          2   -1    0    0  501    0  0.00000000000E+00 -0.00000000000E+00 -0.16841734857E+04  0.16841734857E+04  0.00000000000E+00 0.  1.
         36    2    1    2    0    0  0.42632564146E-13  0.00000000000E+00 -0.15356047965E+04  0.18327421750E+04  0.10004308016E+04 0.  0.
         25    2    3    3    0    0 -0.11024112854E+03 -0.80548459814E+02 -0.23039962418E+03  0.29641450347E+03  0.12702917084E+03 0.  0.
         35    2    3    3    0    0  0.11024112854E+03  0.80548459814E+02 -0.13052051723E+04  0.15363276715E+04  0.79881225044E+03 0.  0.
         22    1    5    5    0    0 -0.23986337260E+02  0.33209803535E+03 -0.11779370900E+04  0.12240915968E+04  0.00000000000E+00 0.  1.
         22    1    5    5    0    0  0.13422746580E+03 -0.25154957554E+03 -0.12726808236E+03  0.31223607466E+03  0.00000000000E+00 0.  1.
          5    1    4    4  502    0 -0.55251603618E+01 -0.13294578932E+02  0.14940418565E+02  0.21273912026E+02  0.47000000000E+01 0. -1.
         -5    1    4    4    0  502 -0.10471596818E+03 -0.67253880883E+02 -0.24534004275E+03  0.27514059145E+03  0.47000000000E+01 0. -1.
<mgrwt>
<rscale>  0 0.10004308E+04</rscale>
<asrwt>0</asrwt>
<pdfrwt beam="1">  1        2 0.25910361E+00 0.10004308E+04</pdfrwt>
<pdfrwt beam="2">  1       -2 0.22856722E-01 0.10004308E+04</pdfrwt>
<totfact> 0.20039854E+02</totfact>
</mgrwt>
</event>
<event>
 9    1  0.4497870E-036  0.1000366E+04  0.7818608E-02  0.8680690E-01
          2   -1    0    0  501    0  0.00000000000E+00  0.00000000000E+00  0.21224777911E+04  0.21224777911E+04  0.00000000000E+00 0. -1.
         -2   -1    0    0    0  501 -0.00000000000E+00 -0.00000000000E+00 -0.11787298471E+03  0.11787298471E+03  0.00000000000E+00 0. -1.
         36    2    1    2    0    0  0.00000000000E+00  0.28421709430E-13  0.20046048063E+04  0.22403507758E+04  0.10003655176E+04 0.  0.
         25    2    3    3    0    0  0.70872866605E+02 -0.83746108823E+02  0.57713343913E+03  0.60056697584E+03  0.12474498768E+03 0.  0.
         35    2    3    3    0    0 -0.70872866605E+02  0.83746108823E+02  0.14274713672E+04  0.16397837999E+04  0.79948735593E+03 0.  0.
         22    1    5    5    0    0 -0.16171883565E+03  0.26262623665E+03  0.14043613603E+04  0.14378304324E+04  0.00000000000E+00 0. -1.
         22    1    5    5    0    0  0.90845969048E+02 -0.17888012783E+03  0.23110006872E+02  0.20195336749E+03  0.00000000000E+00 0. -1.
          5    1    4    4  502    0  0.23837808553E+02 -0.41260755254E+02  0.48599043943E+02  0.68224981590E+02  0.47000000000E+01 0.  1.
         -5    1    4    4    0  502  0.47035058053E+02 -0.42485353570E+02  0.52853439518E+03  0.53234199425E+03  0.47000000000E+01 0.  1.
<mgrwt>
<rscale>  0 0.10003655E+04</rscale>
<asrwt>0</asrwt>
<pdfrwt beam="1">  1        2 0.32653502E+00 0.10003655E+04</pdfrwt>
<pdfrwt beam="2">  1       -2 0.18134307E-01 0.10003655E+04</pdfrwt>
<totfact> 0.16880935E+02</totfact>
</mgrwt>
</event>
<event>
 9    1  0.4497870E-036  0.1002133E+04  0.7818608E-02  0.8679009E-01
         -2   -1    0    0    0  501 -0.00000000000E+00  0.00000000000E+00  0.54936238770E+03  0.54936238770E+03  0.00000000000E+00 0. -1.
          2   -1    0    0  501    0  0.00000000000E+00 -0.00000000000E+00 -0.45701656908E+03  0.45701656908E+03  0.00000000000E+00 0. -1.
         36    2    1    2    0    0 -0.14210854715E-13  0.17763568394E-14  0.92345818620E+02  0.10063789568E+04  0.10021331520E+04 0.  0.
         25    2    3    3    0    0  0.26663094277E+02  0.75732641259E+01  0.16009373613E+03  0.20385604100E+03  0.12312191591E+03 0.  0.
         35    2    3    3    0    0 -0.26663094277E+02 -0.75732641259E+01 -0.67747917514E+02  0.80252291578E+03  0.79917768681E+03 0.  0.
         22    1    5    5    0    0 -0.17583559514E+03 -0.19906471935E+02  0.33170015226E+03  0.37595134679E+03  0.00000000000E+00 0. -1.
         22    1    5    5    0    0  0.14917250086E+03  0.12333207809E+02 -0.39944806977E+03  0.42657156899E+03  0.00000000000E+00 0. -1.
          5    1    4    4  502    0 -0.33455349285E+02 -0.28870856947E+02  0.23762749946E+02  0.50393899052E+02  0.47000000000E+01 0. -1.
         -5    1    4    4    0  502  0.60118443563E+02  0.36444121073E+02  0.13633098619E+03  0.15346214195E+03  0.47000000000E+01 0. -1.
<mgrwt>
<rscale>  0 0.10021332E+04</rscale>
<asrwt>0</asrwt>
<pdfrwt beam="1">  1        2 0.70310241E-01 0.10021332E+04</pdfrwt>
<pdfrwt beam="2">  1       -2 0.84517291E-01 0.10021332E+04</pdfrwt>
<totfact> 0.10006286E+02</totfact>
</mgrwt>
</event>
<event>
 9    1  0.4497870E-036  0.1000215E+04  0.7818608E-02  0.8680833E-01
         -2   -1    0    0    0  501 -0.00000000000E+00  0.00000000000E+00  0.10005793130E+04  0.10005793130E+04  0.00000000000E+00 0.  1.
          2   -1    0    0  501    0  0.00000000000E+00 -0.00000000000E+00 -0.24996256631E+03  0.24996256631E+03  0.00000000000E+00 0.  1.
         36    2    1    2    0    0  0.14210854715E-13 -0.28421709430E-13  0.75061674669E+03  0.12505418793E+04  0.10002147227E+04 0.  0.
         25    2    3    3    0    0  0.39697873866E+02 -0.14107452017E+03  0.13674926527E+03  0.23108767880E+03  0.11499222718E+03 0.  0.
         35    2    3    3    0    0 -0.39697873866E+02  0.14107452017E+03  0.61386748142E+03  0.10194542005E+04  0.80060954328E+03 0.  0.
         22    1    5    5    0    0 -0.31730606934E+03  0.33108387888E+03  0.24390641723E+03  0.51941314660E+03  0.00000000000E+00 0.  1.
         22    1    5    5    0    0  0.27760819547E+03 -0.19000935871E+03  0.36996106419E+03  0.50004105392E+03  0.00000000000E+00 0.  1.
          5    1    4    4  502    0  0.59691209332E+02 -0.10546810167E+03  0.14513370874E+03  0.18913604721E+03  0.47000000000E+01 0. -1.
         -5    1    4    4    0  502 -0.19993335466E+02 -0.35606418495E+02 -0.83844434638E+01  0.41951631593E+02  0.47000000000E+01 0. -1.
<mgrwt>
<rscale>  0 0.10002147E+04</rscale>
<asrwt>0</asrwt>
<pdfrwt beam="1">  1        2 0.38455780E-01 0.10002147E+04</pdfrwt>
<pdfrwt beam="2">  1       -2 0.15393528E+00 0.10002147E+04</pdfrwt>
<totfact> 0.42467405E+01</totfact>
</mgrwt>
</event>
<event>
 9    1  0.4497870E-036  0.1000065E+04  0.7818608E-02  0.8680976E-01
          2   -1    0    0  501    0  0.00000000000E+00  0.00000000000E+00  0.10190678170E+04  0.10190678170E+04  0.00000000000E+00 0. -1.
         -2   -1    0    0    0  501 -0.00000000000E+00 -0.00000000000E+00 -0.24535412308E+03  0.24535412308E+03  0.00000000000E+00 0. -1.
         36    2    1    2    0    0  0.79936057773E-14 -0.17763568394E-13  0.77371369390E+03  0.12644219401E+04  0.10000649791E+04 0.  0.
         25    2    3    3    0    0 -0.68757368123E+01 -0.17350687676E+01 -0.33205302856E+02  0.12812748783E+03  0.12354665022E+03 0.  0.
         35    2    3    3    0    0  0.68757368123E+01  0.17350687676E+01  0.80691899676E+03  0.11362944522E+04  0.79999783038E+03 0.  0.
         22    1    5    5    0    0  0.35705155288E+03  0.17581894773E+03  0.50069331449E+03  0.63960293070E+03  0.00000000000E+00 0. -1.
         22    1    5    5    0    0 -0.35017581607E+03 -0.17408387896E+03  0.30622568227E+03  0.49669152152E+03  0.00000000000E+00 0. -1.
          5    1    4    4  502    0  0.46038080787E+01  0.10111563815E+02 -0.78641529374E+02  0.79561415987E+02  0.47000000000E+01 0.  1.
         -5    1    4    4    0  502 -0.11479544891E+02 -0.11846632582E+02  0.45436226517E+02  0.48566071846E+02  0.47000000000E+01 0.  1.
<mgrwt>
<rscale>  0 0.10000650E+04</rscale>
<asrwt>0</asrwt>
<pdfrwt beam="1">  1        2 0.15677966E+00 0.10000650E+04</pdfrwt>
<pdfrwt beam="2">  1       -2 0.37746789E-01 0.10000650E+04</pdfrwt>
<totfact> 0.19597465E+02</totfact>
</mgrwt>
</event>
<event>
 9    1  0.4497870E-036  0.1000474E+04  0.7818608E-02  0.8680587E-01
         -1   -1    0    0    0  501 -0.00000000000E+00  0.00000000000E+00  0.21095095042E+03  0.21095095042E+03  0.00000000000E+00 0. -1.
          1   -1    0    0  501    0  0.00000000000E+00 -0.00000000000E+00 -0.11862326024E+04  0.11862326024E+04  0.00000000000E+00 0. -1.
         36    2    1    2    0    0 -0.21316282073E-13  0.00000000000E+00 -0.97528165194E+03  0.13971835528E+04  0.10004736776E+04 0.  0.
         25    2    3    3    0    0  0.51242808714E+02 -0.13080303017E+03 -0.17775783821E+03  0.25987782925E+03  0.12729249367E+03 0.  0.
         35    2    3    3    0    0 -0.51242808714E+02  0.13080303017E+03 -0.79752381373E+03  0.11373057235E+04  0.79855169974E+03 0.  0.
         22    1    5    5    0    0 -0.39389422035E+03  0.21892528583E+03 -0.37539630972E+03  0.58651796814E+03  0.00000000000E+00 0. -1.
         22    1    5    5    0    0  0.34265141164E+03 -0.88122255656E+02 -0.42212750401E+03  0.55078775539E+03  0.00000000000E+00 0. -1.
          5    1    4    4  502    0  0.82251352941E+02 -0.36345785337E+02 -0.84154301381E+02  0.12324908768E+03  0.47000000000E+01 0. -1.
         -5    1    4    4    0  502 -0.31008544226E+02 -0.94457244835E+02 -0.93603536832E+02  0.13662874157E+03  0.47000000000E+01 0. -1.
<mgrwt>
<rscale>  0 0.10004737E+04</rscale>
<asrwt>0</asrwt>
<pdfrwt beam="1">  1        1 0.18249733E+00 0.10004737E+04</pdfrwt>
<pdfrwt beam="2">  1       -1 0.32453991E-01 0.10004737E+04</pdfrwt>
<totfact> 0.10717807E+02</totfact>
</mgrwt>
</event>
<event>
 9    1  0.4497870E-036  0.1000238E+04  0.7818608E-02  0.8680812E-01
          1   -1    0    0  501    0  0.00000000000E+00  0.00000000000E+00  0.59097539578E+03  0.59097539578E+03  0.00000000000E+00 0.  1.
         -1   -1    0    0    0  501 -0.00000000000E+00 -0.00000000000E+00 -0.42323047470E+03  0.42323047470E+03  0.00000000000E+00 0.  1.
         36    2    1    2    0    0  0.42632564146E-13  0.14210854715E-13  0.16774492108E+03  0.10142058705E+04  0.10002375664E+04 0.  0.
         25    2    3    3    0    0 -0.11784221448E+03 -0.70320216347E+02 -0.14487584980E+01  0.18538523885E+03  0.12463493708E+03 0.  0.
         35    2    3    3    0    0  0.11784221448E+03  0.70320216347E+02  0.16919367958E+03  0.82882063164E+03  0.79967832150E+03 0.  0.
         22    1    5    5    0    0 -0.22954627080E+03  0.30337019072E+03  0.15343698331E+03  0.41020466952E+03  0.00000000000E+00 0. -1.
         22    1    5    5    0    0  0.34738848528E+03 -0.23304997437E+03  0.15756696273E+02  0.41861596211E+03  0.00000000000E+00 0. -1.
          5    1    4    4  502    0 -0.52624232376E+02 -0.93173048849E+02  0.27070412786E+02  0.11047816125E+03  0.47000000000E+01 0. -1.
         -5    1    4    4    0  502 -0.65217982109E+02  0.22852832502E+02 -0.28519171284E+02  0.74907077599E+02  0.47000000000E+01 0. -1.
<mgrwt>
<rscale>  0 0.10002376E+04</rscale>
<asrwt>0</asrwt>
<pdfrwt beam="1">  1        1 0.90919292E-01 0.10002376E+04</pdfrwt>
<pdfrwt beam="2">  1       -1 0.65112380E-01 0.10002376E+04</pdfrwt>
<totfact> 0.97549961E+01</totfact>
</mgrwt>
</event>
<event>
 9    1  0.4497870E-036  0.9991019E+03  0.7818608E-02  0.8681894E-01
         -1   -1    0    0    0  501 -0.00000000000E+00  0.00000000000E+00  0.40873897091E+03  0.40873897091E+03  0.00000000000E+00 0.  1.
          1   -1    0    0  501    0  0.00000000000E+00 -0.00000000000E+00 -0.61053920138E+03  0.61053920138E+03  0.00000000000E+00 0.  1.
         36    2    1    2    0    0  0.14210854715E-13  0.00000000000E+00 -0.20180023047E+03  0.10192781723E+04  0.99910192647E+03 0.  0.
         25    2    3    3    0    0  0.56752396972E+02 -0.65278247198E+02  0.75560957747E+02  0.16921794567E+03  0.12427055436E+03 0.  0.
         35    2    3    3    0    0 -0.56752396972E+02  0.65278247198E+02 -0.27736118821E+03  0.85006022661E+03  0.79886862251E+03 0.  0.
         22    1    5    5    0    0 -0.35484950022E+03 -0.22817992381E+02  0.92015716165E+02  0.36729514101E+03  0.00000000000E+00 0. -1.
         22    1    5    5    0    0  0.29809710325E+03  0.88096239579E+02 -0.36937690438E+03  0.48276508561E+03  0.00000000000E+00 0. -1.
          5    1    4    4  502    0 -0.25671113035E+02 -0.30481821052E+02 -0.14037275422E+02  0.42512146033E+02  0.47000000000E+01 0. -1.
         -5    1    4    4    0  502  0.82423510007E+02 -0.34796426146E+02  0.89598233169E+02  0.12670579964E+03  0.47000000000E+01 0. -1.
<mgrwt>
<rscale>  0 0.99910193E+03</rscale>
<asrwt>0</asrwt>
<pdfrwt beam="1">  1        1 0.93929107E-01 0.99910193E+03</pdfrwt>
<pdfrwt beam="2">  1       -1 0.62882919E-01 0.99910193E+03</pdfrwt>
<totfact> 0.99540578E+01</totfact>
</mgrwt>
</event>
<event>
 9    1  0.4497870E-036  0.1000185E+04  0.7818608E-02  0.8680862E-01
          2   -1    0    0  501    0  0.00000000000E+00  0.00000000000E+00  0.23384341677E+03  0.23384341677E+03  0.00000000000E+00 0.  1.
         -2   -1    0    0    0  501 -0.00000000000E+00 -0.00000000000E+00 -0.10694859935E+04  0.10694859935E+04  0.00000000000E+00 0.  1.
         36    2    1    2    0    0  0.14210854715E-13  0.14210854715E-13 -0.83564257678E+03  0.13033294103E+04  0.10001845008E+04 0.  0.
         25    2    3    3    0    0 -0.91937852745E+02 -0.10241882766E+03 -0.16966116375E+03  0.25172096676E+03  0.12504539015E+03 0.  0.
         35    2    3    3    0    0  0.91937852745E+02  0.10241882766E+03 -0.66598141303E+03  0.10516084436E+04  0.80212648070E+03 0.  0.
         22    1    5    5    0    0  0.98484261343E+02 -0.77767573023E+02 -0.81073341235E+03  0.82038747616E+03  0.00000000000E+00 0. -1.
         22    1    5    5    0    0 -0.65464085980E+01  0.18018640068E+03  0.14475199932E+03  0.23122096739E+03  0.00000000000E+00 0. -1.
          5    1    4    4  502    0 -0.19110080101E+02 -0.11058132088E+03 -0.96844840397E+02  0.14830521501E+03  0.47000000000E+01 0.  1.
         -5    1    4    4    0  502 -0.72827772645E+02  0.81624932191E+01 -0.72816323348E+02  0.10341575175E+03  0.47000000000E+01 0.  1.
<mgrwt>
<rscale>  0 0.10001845E+04</rscale>
<asrwt>0</asrwt>
<pdfrwt beam="1">  1        2 0.35975911E-01 0.10001845E+04</pdfrwt>
<pdfrwt beam="2">  1       -2 0.16453631E+00 0.10001845E+04</pdfrwt>
<totfact> 0.37828731E+01</totfact>
</mgrwt>
</event>
<event>
 9    1  0.4497870E-036  0.9965357E+03  0.7818608E-02  0.8684344E-01
          2   -1    0    0  501    0  0.00000000000E+00  0.00000000000E+00  0.30576800949E+04  0.30576800949E+04  0.00000000000E+00 0.  1.
         -2   -1    0    0    0  501 -0.00000000000E+00 -0.00000000000E+00 -0.81195819396E+02  0.81195819396E+02  0.00000000000E+00 0.  1.
         36    2    1    2    0    0 -0.14210854715E-13  0.00000000000E+00  0.29764842755E+04  0.31388759143E+04  0.99653568076E+03 0.  0.
         25    2    3    3    0    0  0.79871900400E+02 -0.11183506917E+03  0.52367271731E+03  0.55517689596E+03  0.12288884319E+03 0.  0.
         35    2    3    3    0    0 -0.79871900400E+02  0.11183506917E+03  0.24528115582E+04  0.25836990183E+04  0.80020589487E+03 0.  0.
         22    1    5    5    0    0  0.14221408941E+03 -0.23348117398E+03  0.17379874488E+04  0.17593574616E+04  0.00000000000E+00 0.  1.
         22    1    5    5    0    0 -0.22208598981E+03  0.34531624315E+03  0.71482410943E+03  0.82434155668E+03  0.00000000000E+00 0.  1.
          5    1    4    4  502    0  0.60472902773E+02 -0.37846396737E+02  0.90776467009E+02  0.11554989692E+03  0.47000000000E+01 0.  1.
         -5    1    4    4    0  502  0.19398997628E+02 -0.73988672429E+02  0.43289625031E+03  0.43962699904E+03  0.47000000000E+01 0.  1.
<mgrwt>
<rscale>  0 0.99653568E+03</rscale>
<asrwt>0</asrwt>
<pdfrwt beam="1">  1        2 0.47041223E+00 0.99653568E+03</pdfrwt>
<pdfrwt beam="2">  1       -2 0.12491667E-01 0.99653568E+03</pdfrwt>
<totfact> 0.82994778E+01</totfact>
</mgrwt>
</event>
<event>
 9    1  0.4497870E-036  0.1000992E+04  0.7818608E-02  0.8680094E-01
          1   -1    0    0  501    0  0.00000000000E+00  0.00000000000E+00  0.93703946285E+03  0.93703946285E+03  0.00000000000E+00 0. -1.
         -1   -1    0    0    0  501 -0.00000000000E+00 -0.00000000000E+00 -0.26732706125E+03  0.26732706125E+03  0.00000000000E+00 0. -1.
         36    2    1    2    0    0  0.14210854715E-13  0.71054273576E-14  0.66971240160E+03  0.12043665241E+04  0.10009915202E+04 0.  0.
         25    2    3    3    0    0 -0.12507642495E+03  0.55144021336E+02  0.16388928052E+03  0.24766429616E+03  0.12566993337E+03 0.  0.
         35    2    3    3    0    0  0.12507642495E+03 -0.55144021336E+02  0.50582312108E+03  0.95670222794E+03  0.80046058489E+03 0.  0.
         22    1    5    5    0    0  0.53980150796E+01  0.36332061967E+03  0.14454842010E+03  0.39105659053E+03  0.00000000000E+00 0. -1.
         22    1    5    5    0    0  0.11967840987E+03 -0.41846464100E+03  0.36127470098E+03  0.56564563742E+03  0.00000000000E+00 0. -1.
          5    1    4    4  502    0 -0.11988914868E+03 -0.12638960678E+01  0.14401407835E+03  0.18744906019E+03  0.47000000000E+01 0. -1.
         -5    1    4    4    0  502 -0.51872762679E+01  0.56407917404E+02  0.19875202178E+02  0.60215235967E+02  0.47000000000E+01 0. -1.
<mgrwt>
<rscale>  0 0.10009915E+04</rscale>
<asrwt>0</asrwt>
<pdfrwt beam="1">  1        1 0.14415992E+00 0.10009915E+04</pdfrwt>
<pdfrwt beam="2">  1       -1 0.41127241E-01 0.10009915E+04</pdfrwt>
<totfact> 0.11054315E+02</totfact>
</mgrwt>
</event>
<event>
 9    1  0.4497870E-036  0.1001367E+04  0.7818608E-02  0.8679738E-01
          2   -1    0    0  501    0  0.00000000000E+00  0.00000000000E+00  0.73871527271E+03  0.73871527271E+03  0.00000000000E+00 0. -1.
         -2   -1    0    0    0  501 -0.00000000000E+00 -0.00000000000E+00 -0.33935100926E+03  0.33935100926E+03  0.00000000000E+00 0. -1.
         36    2    1    2    0    0  0.00000000000E+00  0.71054273576E-14  0.39936426346E+03  0.10780662820E+04  0.10013666129E+04 0.  0.
         25    2    3    3    0    0  0.13792156612E+03 -0.42856842056E+02  0.77755168987E+02  0.20380524320E+03  0.12096133077E+03 0.  0.
         35    2    3    3    0    0 -0.13792156612E+03  0.42856842056E+02  0.32160909447E+03  0.87426103877E+03  0.80002555394E+03 0.  0.
         22    1    5    5    0    0 -0.81697706907E+02  0.52434282761E+02  0.59098938673E+03  0.59890927906E+03  0.00000000000E+00 0. -1.
         22    1    5    5    0    0 -0.56223859211E+02 -0.95774407041E+01 -0.26938029226E+03  0.27535175971E+03  0.00000000000E+00 0. -1.
          5    1    4    4  502    0 -0.16436885510E+02  0.15697918161E+02  0.10607111335E+02  0.25518555029E+02  0.47000000000E+01 0. -1.
         -5    1    4    4    0  502  0.15435845163E+03 -0.58554760217E+02  0.67148057652E+02  0.17828668817E+03  0.47000000000E+01 0. -1.
<mgrwt>
<rscale>  0 0.10013666E+04</rscale>
<asrwt>0</asrwt>
<pdfrwt beam="1">  1        2 0.11364850E+00 0.10013666E+04</pdfrwt>
<pdfrwt beam="2">  1       -2 0.52207848E-01 0.10013666E+04</pdfrwt>
<totfact> 0.16032480E+02</totfact>
</mgrwt>
</event>
<event>
 9    1  0.4497870E-036  0.9997425E+03  0.7818608E-02  0.8681283E-01
          2   -1    0    0  501    0  0.00000000000E+00  0.00000000000E+00  0.26942155835E+04  0.26942155835E+04  0.00000000000E+00 0. -1.
         -2   -1    0    0    0  501 -0.00000000000E+00 -0.00000000000E+00 -0.92743602394E+02  0.92743602394E+02  0.00000000000E+00 0. -1.
         36    2    1    2    0    0  0.00000000000E+00  0.00000000000E+00  0.26014719811E+04  0.27869591859E+04  0.99974248453E+03 0.  0.
         25    2    3    3    0    0  0.21583928122E+02 -0.90397381720E+02  0.19932526602E+03  0.25289207416E+03  0.12484505167E+03 0.  0.
         35    2    3    3    0    0 -0.21583928122E+02  0.90397381720E+02  0.24021467151E+04  0.25340671118E+04  0.80159199932E+03 0.  0.
         22    1    5    5    0    0 -0.24959381588E+03  0.85136527367E+02  0.22982834047E+03  0.34980904405E+03  0.00000000000E+00 0. -1.
         22    1    5    5    0    0  0.22800988776E+03  0.52608543532E+01  0.21723183746E+04  0.21842580677E+04  0.00000000000E+00 0. -1.
          5    1    4    4  502    0 -0.33722706585E+02 -0.68915892544E+02  0.16993817941E+03  0.18651459998E+03  0.47000000000E+01 0.  1.
         -5    1    4    4    0  502  0.55306634707E+02 -0.21481489176E+02  0.29387086612E+02  0.66377474187E+02  0.47000000000E+01 0.  1.
<mgrwt>
<rscale>  0 0.99974248E+03</rscale>
<asrwt>0</asrwt>
<pdfrwt beam="1">  1        2 0.41449465E+00 0.99974248E+03</pdfrwt>
<pdfrwt beam="2">  1       -2 0.14268249E-01 0.99974248E+03</pdfrwt>
<totfact> 0.11480717E+02</totfact>
</mgrwt>
</event>
<event>
 9    1  0.4497870E-036  0.9999170E+03  0.7818608E-02  0.8681117E-01
          4   -1    0    0  501    0  0.00000000000E+00  0.00000000000E+00  0.31031698044E+03  0.31031698044E+03  0.00000000000E+00 0.  1.
         -4   -1    0    0    0  501 -0.00000000000E+00 -0.00000000000E+00 -0.80549408161E+03  0.80549408161E+03  0.00000000000E+00 0.  1.
         36    2    1    2    0    0  0.00000000000E+00  0.00000000000E+00 -0.49517710117E+03  0.11158110620E+04  0.99991697888E+03 0.  0.
         25    2    3    3    0    0  0.49291566846E+02 -0.12757264979E+03 -0.13542987043E+03  0.22877007235E+03  0.12365296868E+03 0.  0.
         35    2    3    3    0    0 -0.49291566846E+02  0.12757264979E+03 -0.35974723074E+03  0.88704098969E+03  0.79919910400E+03 0.  0.
         22    1    5    5    0    0 -0.20727285836E+03  0.37029583601E+03  0.10853880857E+01  0.42436095726E+03  0.00000000000E+00 0.  1.
         22    1    5    5    0    0  0.15798129152E+03 -0.24272318622E+03 -0.36083261882E+03  0.46268003243E+03  0.00000000000E+00 0.  1.
          5    1    4    4  502    0  0.43721292838E+02  0.42750868377E+01 -0.73086318992E+01  0.44780954826E+02  0.47000000000E+01 0.  1.
         -5    1    4    4    0  502  0.55702740073E+01 -0.13184773663E+03 -0.12812123853E+03  0.18398911753E+03  0.47000000000E+01 0.  1.
<mgrwt>
<rscale>  0 0.99991698E+03</rscale>
<asrwt>0</asrwt>
<pdfrwt beam="1">  1        4 0.47741074E-01 0.99991698E+03</pdfrwt>
<pdfrwt beam="2">  1       -4 0.12392217E+00 0.99991698E+03</pdfrwt>
<totfact> 0.44372858E+00</totfact>
</mgrwt>
</event>
<event>
 9    1  0.4497870E-036  0.1000608E+04  0.7818608E-02  0.8680459E-01
         -4   -1    0    0    0  501 -0.00000000000E+00  0.00000000000E+00  0.55677637057E+03  0.55677637057E+03  0.00000000000E+00 0. -1.
          4   -1    0    0  501    0  0.00000000000E+00 -0.00000000000E+00 -0.44955935314E+03  0.44955935314E+03  0.00000000000E+00 0. -1.
         36    2    1    2    0    0 -0.71054273576E-14  0.00000000000E+00  0.10721701743E+03  0.10063357237E+04  0.10006078652E+04 0.  0.
         25    2    3    3    0    0 -0.53396063005E+02  0.68179148658E+02  0.12224351170E+03  0.19278696673E+03  0.12134167682E+03 0.  0.
         35    2    3    3    0    0  0.53396063005E+02 -0.68179148658E+02 -0.15026494267E+02  0.81354875698E+03  0.80878689937E+03 0.  0.
         22    1    5    5    0    0 -0.13815381492E+03  0.12635781050E+03 -0.34059384150E+03  0.38866044013E+03  0.00000000000E+00 0. -1.
         22    1    5    5    0    0  0.19154987793E+03 -0.19453695915E+03  0.32556734723E+03  0.42488831685E+03  0.00000000000E+00 0. -1.
          5    1    4    4  502    0 -0.77371950135E+02  0.88094311771E+02  0.10046566846E+03  0.15447481016E+03  0.47000000000E+01 0.  1.
         -5    1    4    4    0  502  0.23975887130E+02 -0.19915163114E+02  0.21777843239E+02  0.38312156577E+02  0.47000000000E+01 0.  1.
<mgrwt>
<rscale>  0 0.10006079E+04</rscale>
<asrwt>0</asrwt>
<pdfrwt beam="1">  1        4 0.69162978E-01 0.10006079E+04</pdfrwt>
<pdfrwt beam="2">  1       -4 0.85657903E-01 0.10006079E+04</pdfrwt>
<totfact> 0.52185685E+00</totfact>
</mgrwt>
</event>
<event>
 9    1  0.4497870E-036  0.1000177E+04  0.7818608E-02  0.8680869E-01
         -2   -1    0    0    0  501 -0.00000000000E+00  0.00000000000E+00  0.60863285463E+03  0.60863285463E+03  0.00000000000E+00 0.  1.
          2   -1    0    0  501    0  0.00000000000E+00 -0.00000000000E+00 -0.41090244269E+03  0.41090244269E+03  0.00000000000E+00 0.  1.
         36    2    1    2    0    0  0.14210854715E-13  0.00000000000E+00  0.19773041195E+03  0.10195352973E+04  0.10001774376E+04 0.  0.
         25    2    3    3    0    0 -0.12348886734E+03 -0.64408793796E+02  0.17274695469E+02  0.18791385488E+03  0.12496082857E+03 0.  0.
         35    2    3    3    0    0  0.12348886734E+03  0.64408793796E+02  0.18045571648E+03  0.83162144244E+03  0.79976994495E+03 0.  0.
         22    1    5    5    0    0  0.18803729089E+02  0.35317658066E+03  0.33555254056E+03  0.48752721445E+03  0.00000000000E+00 0.  1.
         22    1    5    5    0    0  0.10468513825E+03 -0.28876778686E+03 -0.15509682408E+03  0.34409422799E+03  0.00000000000E+00 0.  1.
          5    1    4    4  502    0 -0.38233148228E+01 -0.14046874971E+01  0.48615819108E+02  0.49012026593E+02  0.47000000000E+01 0. -1.
         -5    1    4    4    0  502 -0.11966555252E+03 -0.63004106299E+02 -0.31341123639E+02  0.13890182828E+03  0.47000000000E+01 0. -1.
<mgrwt>
<rscale>  0 0.10001774E+04</rscale>
<asrwt>0</asrwt>
<pdfrwt beam="1">  1        2 0.63215760E-01 0.10001774E+04</pdfrwt>
<pdfrwt beam="2">  1       -2 0.93635825E-01 0.10001774E+04</pdfrwt>
<totfact> 0.88695578E+01</totfact>
</mgrwt>
</event>
<event>
 9    1  0.4497870E-036  0.1000377E+04  0.7818608E-02  0.8680679E-01
         -1   -1    0    0    0  501 -0.00000000000E+00  0.00000000000E+00  0.10655403251E+03  0.10655403251E+03  0.00000000000E+00 0.  1.
          1   -1    0    0  501    0  0.00000000000E+00 -0.00000000000E+00 -0.23479958695E+04  0.23479958695E+04  0.00000000000E+00 0.  1.
         36    2    1    2    0    0  0.35527136788E-14 -0.31974423109E-13 -0.22414418370E+04  0.24545499020E+04  0.10003767854E+04 0.  0.
         25    2    3    3    0    0  0.18477052632E+02  0.31217265595E+02 -0.73890723363E+03  0.75045624077E+03  0.12603471849E+03 0.  0.
         35    2    3    3    0    0 -0.18477052632E+02 -0.31217265595E+02 -0.15025346033E+04  0.17040936612E+04  0.80312455622E+03 0.  0.
         22    1    5    5    0    0 -0.53672317920E+02  0.36730904203E+03 -0.48516461025E+03  0.61088570871E+03  0.00000000000E+00 0.  1.
         22    1    5    5    0    0  0.35195265288E+02 -0.39852630763E+03 -0.10173699931E+04  0.10932079525E+04  0.00000000000E+00 0.  1.
          5    1    4    4  502    0 -0.14542063408E+02 -0.14975977845E+02 -0.59914495005E+03  0.59952690739E+03  0.47000000000E+01 0. -1.
         -5    1    4    4    0  502  0.33019116040E+02  0.46193243440E+02 -0.13976228358E+03  0.15092933338E+03  0.47000000000E+01 0. -1.
<mgrwt>
<rscale>  0 0.10003768E+04</rscale>
<asrwt>0</asrwt>
<pdfrwt beam="1">  1        1 0.36123010E+00 0.10003768E+04</pdfrwt>
<pdfrwt beam="2">  1       -1 0.16392930E-01 0.10003768E+04</pdfrwt>
<totfact> 0.50279642E+01</totfact>
</mgrwt>
</event>
<event>
 9    1  0.4497870E-036  0.9996867E+03  0.7818608E-02  0.8681336E-01
          1   -1    0    0  501    0  0.00000000000E+00  0.00000000000E+00  0.45107210383E+03  0.45107210383E+03  0.00000000000E+00 0.  1.
         -1   -1    0    0    0  501 -0.00000000000E+00 -0.00000000000E+00 -0.55388791344E+03  0.55388791344E+03  0.00000000000E+00 0.  1.
         36    2    1    2    0    0  0.00000000000E+00 -0.71054273576E-14 -0.10281580961E+03  0.10049600173E+04  0.99968672373E+03 0.  0.
         25    2    3    3    0    0 -0.45465339814E+02  0.18145843808E+02 -0.15678534170E+03  0.20256632081E+03  0.11855421622E+03 0.  0.
         35    2    3    3    0    0  0.45465339814E+02 -0.18145843808E+02  0.53969532082E+02  0.80239369646E+03  0.79907857245E+03 0.  0.
         22    1    5    5    0    0 -0.19612972657E+02  0.15581358533E+03 -0.33575867124E+03  0.37067024076E+03  0.00000000000E+00 0.  1.
         22    1    5    5    0    0  0.65078312472E+02 -0.17395942914E+03  0.38972820332E+03  0.43172345570E+03  0.00000000000E+00 0.  1.
          5    1    4    4  502    0  0.68701342640E+01 -0.29421932246E+02 -0.11773799985E+03  0.12164364122E+03  0.47000000000E+01 0. -1.
         -5    1    4    4    0  502 -0.52335474078E+02  0.47567776055E+02 -0.39047341849E+02  0.80922679585E+02  0.47000000000E+01 0. -1.
<mgrwt>
<rscale>  0 0.99968672E+03</rscale>
<asrwt>0</asrwt>
<pdfrwt beam="1">  1        1 0.69395708E-01 0.99968672E+03</pdfrwt>
<pdfrwt beam="2">  1       -1 0.85213525E-01 0.99968672E+03</pdfrwt>
<totfact> 0.82447731E+01</totfact>
</mgrwt>
</event>
<event>
 9    1  0.4497870E-036  0.9996514E+03  0.7818608E-02  0.8681370E-01
          2   -1    0    0  501    0  0.00000000000E+00  0.00000000000E+00  0.14366624257E+04  0.14366624257E+04  0.00000000000E+00 0.  1.
         -2   -1    0    0    0  501 -0.00000000000E+00 -0.00000000000E+00 -0.17389311919E+03  0.17389311919E+03  0.00000000000E+00 0.  1.
         36    2    1    2    0    0 -0.14210854715E-13  0.28421709430E-13  0.12627693065E+04  0.16105555449E+04  0.99965136008E+03 0.  0.
         25    2    3    3    0    0 -0.52210136175E+02  0.12183074824E+03  0.29587513741E+03  0.34822873254E+03  0.12709257920E+03 0.  0.
         35    2    3    3    0    0  0.52210136175E+02 -0.12183074824E+03  0.96689416906E+03  0.12623268123E+04  0.80063475905E+03 0.  0.
         22    1    5    5    0    0  0.18352046411E+03 -0.42594540518E+03  0.43594778082E+03  0.63652157587E+03  0.00000000000E+00 0.  1.
         22    1    5    5    0    0 -0.13131032793E+03  0.30411465694E+03  0.53094638824E+03  0.62580523645E+03  0.00000000000E+00 0.  1.
          5    1    4    4  502    0 -0.67778760172E+02  0.84367301290E+01  0.97141460452E+02  0.11884314067E+03  0.47000000000E+01 0. -1.
         -5    1    4    4    0  502  0.15568623997E+02  0.11339401812E+03  0.19873367696E+03  0.22938559187E+03  0.47000000000E+01 0. -1.
<mgrwt>
<rscale>  0 0.99965136E+03</rscale>
<asrwt>0</asrwt>
<pdfrwt beam="1">  1        2 0.22102498E+00 0.99965136E+03</pdfrwt>
<pdfrwt beam="2">  1       -2 0.26752788E-01 0.99965136E+03</pdfrwt>
<totfact> 0.20923394E+02</totfact>
</mgrwt>
</event>
<event>
 9    1  0.4497870E-036  0.1000056E+04  0.7818608E-02  0.8680984E-01
         -2   -1    0    0    0  501 -0.00000000000E+00  0.00000000000E+00  0.10124067489E+03  0.10124067489E+03  0.00000000000E+00 0.  1.
          2   -1    0    0  501    0  0.00000000000E+00 -0.00000000000E+00 -0.24696411745E+04  0.24696411745E+04  0.00000000000E+00 0.  1.
         36    2    1    2    0    0  0.14210854715E-13 -0.21316282073E-13 -0.23684004996E+04  0.25708818493E+04  0.10000562769E+04 0.  0.
         25    2    3    3    0    0  0.12129008414E+03  0.19721743267E+02 -0.26412965738E+03  0.31683324613E+03  0.12457366607E+03 0.  0.
         35    2    3    3    0    0 -0.12129008414E+03 -0.19721743267E+02 -0.21042708422E+04  0.22540486032E+04  0.79854811799E+03 0.  0.
         22    1    5    5    0    0 -0.27497804734E+03  0.31091610448E+03 -0.14104761800E+04  0.14702805191E+04  0.00000000000E+00 0.  1.
         22    1    5    5    0    0  0.15368796320E+03 -0.33063784774E+03 -0.69379466222E+03  0.78376808414E+03  0.00000000000E+00 0.  1.
          5    1    4    4  502    0  0.63717029739E+02  0.68175112379E+02 -0.18661975937E+03  0.20870249259E+03  0.47000000000E+01 0.  1.
         -5    1    4    4    0  502  0.57573054402E+02 -0.48453369112E+02 -0.77509898009E+02  0.10813075354E+03  0.47000000000E+01 0.  1.
<mgrwt>
<rscale>  0 0.10000563E+04</rscale>
<asrwt>0</asrwt>
<pdfrwt beam="1">  1        2 0.37994474E+00 0.10000563E+04</pdfrwt>
<pdfrwt beam="2">  1       -2 0.15575491E-01 0.10000563E+04</pdfrwt>
<totfact> 0.13638880E+02</totfact>
</mgrwt>
</event>
<event>
 9    1  0.4497870E-036  0.1000590E+04  0.7818608E-02  0.8680476E-01
          1   -1    0    0  501    0  0.00000000000E+00  0.00000000000E+00  0.26752886655E+03  0.26752886655E+03  0.00000000000E+00 0.  1.
         -1   -1    0    0    0  501 -0.00000000000E+00 -0.00000000000E+00 -0.93558158957E+03  0.93558158957E+03  0.00000000000E+00 0.  1.
         36    2    1    2    0    0 -0.56843418861E-13 -0.71054273576E-14 -0.66805272302E+03  0.12031104561E+04  0.10005899904E+04 0.  0.
         25    2    3    3    0    0 -0.13321515712E+03 -0.44402768153E+02 -0.12784043744E+03  0.22747957614E+03  0.12524334796E+03 0.  0.
         35    2    3    3    0    0  0.13321515712E+03  0.44402768153E+02 -0.54021228557E+03  0.97563087998E+03  0.80019273714E+03 0.  0.
         22    1    5    5    0    0 -0.33657741125E+03  0.56833104663E+02 -0.25269915249E+03  0.42470132707E+03  0.00000000000E+00 0.  1.
         22    1    5    5    0    0  0.46979256837E+03 -0.12430336510E+02 -0.28751313308E+03  0.55092955290E+03  0.00000000000E+00 0.  1.
          5    1    4    4  502    0 -0.13147746969E+03 -0.32569756117E+02 -0.43759374005E+02  0.14242221338E+03  0.47000000000E+01 0.  1.
         -5    1    4    4    0  502 -0.17376874306E+01 -0.11833012036E+02 -0.84081063438E+02  0.85057362763E+02  0.47000000000E+01 0.  1.
<mgrwt>
<rscale>  0 0.10005900E+04</rscale>
<asrwt>0</asrwt>
<pdfrwt beam="1">  1        1 0.41158287E-01 0.10005900E+04</pdfrwt>
<pdfrwt beam="2">  1       -1 0.14393563E+00 0.10005900E+04</pdfrwt>
<totfact> 0.46942512E+01</totfact>
</mgrwt>
</event>
<event>
 9    1  0.4497870E-036  0.1000011E+04  0.7818608E-02  0.8681027E-01
         -2   -1    0    0    0  501 -0.00000000000E+00  0.00000000000E+00  0.35863019923E+03  0.35863019923E+03  0.00000000000E+00 0. -1.
          2   -1    0    0  501    0  0.00000000000E+00 -0.00000000000E+00 -0.69711292617E+03  0.69711292617E+03  0.00000000000E+00 0. -1.
         36    2    1    2    0    0  0.14210854715E-13  0.00000000000E+00 -0.33848272695E+03  0.10557431254E+04  0.10000114951E+04 0.  0.
         25    2    3    3    0    0  0.15289591299E+02 -0.13388649507E+03 -0.29623557956E+02  0.18605621666E+03  0.12481985183E+03 0.  0.
         35    2    3    3    0    0 -0.15289591299E+02  0.13388649507E+03 -0.30885916899E+03  0.86968690874E+03  0.80174931730E+03 0.  0.
         22    1    5    5    0    0 -0.12933313339E+03  0.14766441878E+03  0.23936324933E+03  0.30955872641E+03  0.00000000000E+00 0.  1.
         22    1    5    5    0    0  0.11404354209E+03 -0.13777923716E+02 -0.54822241833E+03  0.56012818232E+03  0.00000000000E+00 0.  1.
          5    1    4    4  502    0  0.30589326260E+02 -0.15300292707E+03 -0.14216133974E+02  0.15674753918E+03  0.47000000000E+01 0. -1.
         -5    1    4    4    0  502 -0.15299734961E+02  0.19116432002E+02 -0.15407423982E+02  0.29308677488E+02  0.47000000000E+01 0. -1.
<mgrwt>
<rscale>  0 0.10000115E+04</rscale>
<asrwt>0</asrwt>
<pdfrwt beam="1">  1        2 0.10724814E+00 0.10000115E+04</pdfrwt>
<pdfrwt beam="2">  1       -2 0.55173877E-01 0.10000115E+04</pdfrwt>
<totfact> 0.15395736E+02</totfact>
</mgrwt>
</event>
<event>
 9    1  0.4497870E-036  0.9998707E+03  0.7818608E-02  0.8681161E-01
          1   -1    0    0  501    0  0.00000000000E+00  0.00000000000E+00  0.95643013186E+03  0.95643013186E+03  0.00000000000E+00 0.  1.
         -1   -1    0    0    0  501 -0.00000000000E+00 -0.00000000000E+00 -0.26132105811E+03  0.26132105811E+03  0.00000000000E+00 0.  1.
         36    2    1    2    0    0  0.10658141036E-13 -0.56843418861E-13  0.69510907375E+03  0.12177511900E+04  0.99987065977E+03 0.  0.
         25    2    3    3    0    0  0.25014529875E+01  0.12839094685E+03  0.19623634454E+03  0.26530057579E+03  0.12403709162E+03 0.  0.
         35    2    3    3    0    0 -0.25014529875E+01 -0.12839094685E+03  0.49887272921E+03  0.95245061418E+03  0.80112276213E+03 0.  0.
         22    1    5    5    0    0  0.83036329928E+02  0.31273948299E+03  0.69528466113E+02  0.33096106101E+03  0.00000000000E+00 0. -1.
         22    1    5    5    0    0 -0.85537782916E+02 -0.44113042984E+03  0.42934426310E+03  0.62148955316E+03  0.00000000000E+00 0. -1.
          5    1    4    4  502    0  0.23790377860E+02  0.30607641149E+02 -0.60966118992E+01  0.39523011677E+02  0.47000000000E+01 0. -1.
         -5    1    4    4    0  502 -0.21288924872E+02  0.97783305702E+02  0.20233295644E+03  0.22577756412E+03  0.47000000000E+01 0. -1.
<mgrwt>
<rscale>  0 0.99987066E+03</rscale>
<asrwt>0</asrwt>
<pdfrwt beam="1">  1        1 0.14714310E+00 0.99987066E+03</pdfrwt>
<pdfrwt beam="2">  1       -1 0.40203240E-01 0.99987066E+03</pdfrwt>
<totfact> 0.11102258E+02</totfact>
</mgrwt>
</event>
<event>
 9    1  0.4497870E-036  0.1000180E+04  0.7818608E-02  0.8680867E-01
          2   -1    0    0  501    0  0.00000000000E+00  0.00000000000E+00  0.34927836639E+03  0.34927836639E+03  0.00000000000E+00 0.  1.
         -2   -1    0    0    0  501 -0.00000000000E+00 -0.00000000000E+00 -0.71601906136E+03  0.71601906136E+03  0.00000000000E+00 0.  1.
         36    2    1    2    0    0 -0.56843418861E-13 -0.35527136788E-14 -0.36674069497E+03  0.10652974277E+04  0.10001799199E+04 0.  0.
         25    2    3    3    0    0 -0.13072457705E+03 -0.10046200419E+02 -0.12076517340E+03  0.21781101535E+03  0.12517016463E+03 0.  0.
         35    2    3    3    0    0  0.13072457705E+03  0.10046200419E+02 -0.24597552157E+03  0.84748641240E+03  0.80033706699E+03 0.  0.
         22    1    5    5    0    0  0.39667704862E+03 -0.19556530322E+03 -0.20563796702E+02  0.44274297110E+03  0.00000000000E+00 0. -1.
         22    1    5    5    0    0 -0.26595247157E+03  0.20561150364E+03 -0.22541172487E+03  0.40474344129E+03  0.00000000000E+00 0. -1.
          5    1    4    4  502    0 -0.21433603125E+02 -0.20975535586E+02  0.22096270297E+02  0.37546072992E+02  0.47000000000E+01 0.  1.
         -5    1    4    4    0  502 -0.10929097393E+03  0.10929335168E+02 -0.14286144370E+03  0.18026494236E+03  0.47000000000E+01 0.  1.
<mgrwt>
<rscale>  0 0.10001799E+04</rscale>
<asrwt>0</asrwt>
<pdfrwt beam="1">  1        2 0.53735134E-01 0.10001799E+04</pdfrwt>
<pdfrwt beam="2">  1       -2 0.11015678E+00 0.10001799E+04</pdfrwt>
<totfact> 0.71458905E+01</totfact>
</mgrwt>
</event>
<event>
 9    1  0.4497870E-036  0.9994757E+03  0.7818608E-02  0.8681537E-01
          2   -1    0    0  501    0  0.00000000000E+00  0.00000000000E+00  0.20255919254E+04  0.20255919254E+04  0.00000000000E+00 0.  1.
         -2   -1    0    0    0  501 -0.00000000000E+00 -0.00000000000E+00 -0.12329133495E+03  0.12329133495E+03  0.00000000000E+00 0.  1.
         36    2    1    2    0    0 -0.71054273576E-14 -0.35527136788E-14  0.19023005905E+04  0.21488832604E+04  0.99947572767E+03 0.  0.
         25    2    3    3    0    0  0.40871782438E+02  0.18790696632E+01  0.64338133040E+03  0.65666482594E+03  0.12488043811E+03 0.  0.
         35    2    3    3    0    0 -0.40871782438E+02 -0.18790696632E+01  0.12589192601E+04  0.14922184344E+04  0.80010256791E+03 0.  0.
         22    1    5    5    0    0  0.19913568233E+03 -0.21777550952E+03  0.13805558515E+03  0.32579216859E+03  0.00000000000E+00 0.  1.
         22    1    5    5    0    0 -0.24000746477E+03  0.21589643986E+03  0.11208636749E+04  0.11664262658E+04  0.00000000000E+00 0.  1.
          5    1    4    4  502    0 -0.43096246837E+01  0.22648196959E+02  0.18874415541E+02  0.30163674385E+02  0.47000000000E+01 0.  1.
         -5    1    4    4    0  502  0.45181407122E+02 -0.20769127296E+02  0.62450691486E+03  0.62650115156E+03  0.47000000000E+01 0.  1.
<mgrwt>
<rscale>  0 0.99947573E+03</rscale>
<asrwt>0</asrwt>
<pdfrwt beam="1">  1        2 0.31162950E+00 0.99947573E+03</pdfrwt>
<pdfrwt beam="2">  1       -2 0.18967899E-01 0.99947573E+03</pdfrwt>
<totfact> 0.17760525E+02</totfact>
</mgrwt>
</event>
<event>
 9    1  0.4497870E-036  0.1000058E+04  0.7818608E-02  0.8680983E-01
          2   -1    0    0  501    0  0.00000000000E+00  0.00000000000E+00  0.14195033808E+04  0.14195033808E+04  0.00000000000E+00 0.  1.
         -2   -1    0    0    0  501 -0.00000000000E+00 -0.00000000000E+00 -0.17613840467E+03  0.17613840467E+03  0.00000000000E+00 0.  1.
         36    2    1    2    0    0  0.14210854715E-13 -0.71054273576E-14  0.12433649762E+04  0.15956417855E+04  0.10000581202E+04 0.  0.
         25    2    3    3    0    0  0.15886414423E+02  0.37581365417E+02  0.44715827641E+03  0.46608980413E+03  0.12499777661E+03 0.  0.
         35    2    3    3    0    0 -0.15886414423E+02 -0.37581365417E+02  0.79620669974E+03  0.11295519814E+04  0.80017362660E+03 0.  0.
         22    1    5    5    0    0 -0.16874120772E+03 -0.38452367028E+03  0.37681545492E+03  0.56420026166E+03  0.00000000000E+00 0.  1.
         22    1    5    5    0    0  0.15285479330E+03  0.34694230486E+03  0.41939124482E+03  0.56535171971E+03  0.00000000000E+00 0.  1.
          5    1    4    4  502    0  0.51704252164E+02 -0.86846605431E+01  0.91007588600E+02  0.10513431506E+03  0.47000000000E+01 0. -1.
         -5    1    4    4    0  502 -0.35817837741E+02  0.46266025961E+02  0.35615068781E+03  0.36095548907E+03  0.47000000000E+01 0. -1.
<mgrwt>
<rscale>  0 0.10000581E+04</rscale>
<asrwt>0</asrwt>
<pdfrwt beam="1">  1        2 0.21838513E+00 0.10000581E+04</pdfrwt>
<pdfrwt beam="2">  1       -2 0.27098217E-01 0.10000581E+04</pdfrwt>
<totfact> 0.20913196E+02</totfact>
</mgrwt>
</event>
<event>
 9    1  0.4497870E-036  0.1000142E+04  0.7818608E-02  0.8680903E-01
          1   -1    0    0  501    0  0.00000000000E+00  0.00000000000E+00  0.73029246655E+03  0.73029246655E+03  0.00000000000E+00 0.  1.
         -1   -1    0    0    0  501 -0.00000000000E+00 -0.00000000000E+00 -0.34242571461E+03  0.34242571461E+03  0.00000000000E+00 0.  1.
         36    2    1    2    0    0 -0.14210854715E-13  0.00000000000E+00  0.38786675194E+03  0.10727181812E+04  0.10001418294E+04 0.  0.
         25    2    3    3    0    0 -0.12426227072E+03 -0.54385401994E+02  0.37405562779E+02  0.18873960386E+03  0.12579577919E+03 0.  0.
         35    2    3    3    0    0  0.12426227072E+03  0.54385401994E+02  0.35046118916E+03  0.88397857730E+03  0.80012261319E+03 0.  0.
         22    1    5    5    0    0  0.73913774734E+02  0.26271655534E+02 -0.25960260713E+03  0.27119542697E+03  0.00000000000E+00 0. -1.
         22    1    5    5    0    0  0.50348495986E+02  0.28113746461E+02  0.61006379629E+03  0.61278315033E+03  0.00000000000E+00 0. -1.
          5    1    4    4  502    0 -0.13304565842E+03 -0.95180187135E+01  0.47527664305E+02  0.14167818738E+03  0.47000000000E+01 0. -1.
         -5    1    4    4    0  502  0.87833876988E+01 -0.44867383281E+02 -0.10122101525E+02  0.47061416481E+02  0.47000000000E+01 0. -1.
<mgrwt>
<rscale>  0 0.10001418E+04</rscale>
<asrwt>0</asrwt>
<pdfrwt beam="1">  1        1 0.11235269E+00 0.10001418E+04</pdfrwt>
<pdfrwt beam="2">  1       -1 0.52680879E-01 0.10001418E+04</pdfrwt>
<totfact> 0.10630327E+02</totfact>
</mgrwt>
</event>
<event>
 9    1  0.4497870E-036  0.1000472E+04  0.7818608E-02  0.8680589E-01
         -2   -1    0    0    0  501 -0.00000000000E+00  0.00000000000E+00  0.23502303355E+03  0.23502303355E+03  0.00000000000E+00 0. -1.
          2   -1    0    0  501    0  0.00000000000E+00 -0.00000000000E+00 -0.10647293689E+04  0.10647293689E+04  0.00000000000E+00 0. -1.
         36    2    1    2    0    0 -0.14210854715E-13 -0.14210854715E-13 -0.82970633534E+03  0.12997524024E+04  0.10004717411E+04 0.  0.
         25    2    3    3    0    0 -0.54326437150E+02  0.51637228915E+02 -0.30944271928E+03  0.34200350246E+03  0.12487527375E+03 0.  0.
         35    2    3    3    0    0  0.54326437150E+02 -0.51637228915E+02 -0.52026361606E+03  0.95774889998E+03  0.80061911046E+03 0.  0.
         22    1    5    5    0    0  0.20534014510E+03  0.29244830480E+02 -0.68764333096E+03  0.71824312451E+03  0.00000000000E+00 0. -1.
         22    1    5    5    0    0 -0.15101370796E+03 -0.80882059394E+02  0.16737971490E+03  0.23950577547E+03  0.00000000000E+00 0. -1.
          5    1    4    4  502    0 -0.38315516003E+02  0.19956915527E+02 -0.15882566782E+02  0.46267733589E+02  0.47000000000E+01 0. -1.
         -5    1    4    4    0  502 -0.16010921147E+02  0.31680313388E+02 -0.29356015250E+03  0.29573576887E+03  0.47000000000E+01 0. -1.
<mgrwt>
<rscale>  0 0.10004717E+04</rscale>
<asrwt>0</asrwt>
<pdfrwt beam="1">  1        2 0.16380452E+00 0.10004717E+04</pdfrwt>
<pdfrwt beam="2">  1       -2 0.36157389E-01 0.10004717E+04</pdfrwt>
<totfact> 0.19914361E+02</totfact>
</mgrwt>
</event>
<event>
 9    1  0.4497870E-036  0.1000100E+04  0.7818608E-02  0.8680943E-01
         -3   -1    0    0    0  501 -0.00000000000E+00  0.00000000000E+00  0.61561943825E+02  0.61561943825E+02  0.00000000000E+00 0.  1.
          3   -1    0    0  501    0  0.00000000000E+00 -0.00000000000E+00 -0.40617622972E+04  0.40617622972E+04  0.00000000000E+00 0.  1.
         36    2    1    2    0    0  0.28421709430E-13  0.00000000000E+00 -0.40002003534E+04  0.41233242411E+04  0.10000999597E+04 0.  0.
         25    2    3    3    0    0  0.22156756626E+02 -0.13473280431E+03 -0.62967758457E+03  0.65644988083E+03  0.12565323361E+03 0.  0.
         35    2    3    3    0    0 -0.22156756626E+02  0.13473280431E+03 -0.33705227688E+04  0.34668743602E+04  0.80009389692E+03 0.  0.
         22    1    5    5    0    0 -0.29691252377E+03 -0.13904237452E+03 -0.23906572535E+04  0.24130337612E+04  0.00000000000E+00 0. -1.
         22    1    5    5    0    0  0.27475576714E+03  0.27377517883E+03 -0.97986551530E+03  0.10538405990E+04  0.00000000000E+00 0. -1.
          5    1    4    4  502    0  0.43598512260E+02  0.49804730068E+01 -0.14971905357E+03  0.15608818144E+03  0.47000000000E+01 0.  1.
         -5    1    4    4    0  502 -0.21441755634E+02 -0.13971327732E+03 -0.47995853100E+03  0.50036169939E+03  0.47000000000E+01 0.  1.
<mgrwt>
<rscale>  0 0.10001000E+04</rscale>
<asrwt>0</asrwt>
<pdfrwt beam="1">  1        3 0.62488649E+00 0.10001000E+04</pdfrwt>
<pdfrwt beam="2">  1       -3 0.94710685E-02 0.10001000E+04</pdfrwt>
<totfact> 0.14145027E+00</totfact>
</mgrwt>
</event>
<event>
 9    1  0.4497870E-036  0.1000428E+04  0.7818608E-02  0.8680631E-01
          2   -1    0    0  501    0  0.00000000000E+00  0.00000000000E+00  0.87490818186E+03  0.87490818186E+03  0.00000000000E+00 0.  1.
         -2   -1    0    0    0  501 -0.00000000000E+00 -0.00000000000E+00 -0.28598889436E+03  0.28598889436E+03  0.00000000000E+00 0.  1.
         36    2    1    2    0    0 -0.14210854715E-13  0.71054273576E-14  0.58891928751E+03  0.11608970762E+04  0.10004279556E+04 0.  0.
         25    2    3    3    0    0  0.10378796606E+03  0.63704340200E+02  0.19629736970E+03  0.26159575428E+03  0.12275787733E+03 0.  0.
         35    2    3    3    0    0 -0.10378796606E+03 -0.63704340200E+02  0.39262191780E+03  0.89930132194E+03  0.79985043130E+03 0.  0.
         22    1    5    5    0    0 -0.40986346501E+02 -0.38382986737E+02 -0.24842285775E+03  0.25469010685E+03  0.00000000000E+00 0.  1.
         22    1    5    5    0    0 -0.62801619555E+02 -0.25321353463E+02  0.64104477556E+03  0.64461121510E+03  0.00000000000E+00 0.  1.
          5    1    4    4  502    0  0.70988165646E+02  0.98658420415E+02  0.16148243582E+03  0.20216693760E+03  0.47000000000E+01 0.  1.
         -5    1    4    4    0  502  0.32799800410E+02 -0.34954080214E+02  0.34814933884E+02  0.59428816679E+02  0.47000000000E+01 0.  1.
<mgrwt>
<rscale>  0 0.10004280E+04</rscale>
<asrwt>0</asrwt>
<pdfrwt beam="1">  1        2 0.13460126E+00 0.10004280E+04</pdfrwt>
<pdfrwt beam="2">  1       -2 0.43998292E-01 0.10004280E+04</pdfrwt>
<totfact> 0.18079478E+02</totfact>
</mgrwt>
</event>
<event>
 9    1  0.4497870E-036  0.1002287E+04  0.7818608E-02  0.8678863E-01
         -2   -1    0    0    0  501 -0.00000000000E+00  0.00000000000E+00  0.19480304373E+03  0.19480304373E+03  0.00000000000E+00 0. -1.
          2   -1    0    0  501    0  0.00000000000E+00 -0.00000000000E+00 -0.12892245071E+04  0.12892245071E+04  0.00000000000E+00 0. -1.
         36    2    1    2    0    0  0.00000000000E+00  0.14210854715E-13 -0.10944214633E+04  0.14840275508E+04  0.10022871006E+04 0.  0.
         25    2    3    3    0    0  0.11992058086E+03 -0.37917418879E+02 -0.10837816279E+03  0.20779313031E+03  0.12495392138E+03 0.  0.
         35    2    3    3    0    0 -0.11992058086E+03  0.37917418879E+02 -0.98604330053E+03  0.12762344205E+04  0.80042128227E+03 0.  0.
         22    1    5    5    0    0 -0.60731308609E+02  0.20566236188E+03 -0.10615486287E+04  0.10829915928E+04  0.00000000000E+00 0. -1.
         22    1    5    5    0    0 -0.59189272248E+02 -0.16774494300E+03  0.75505328209E+02  0.19324282766E+03  0.00000000000E+00 0. -1.
          5    1    4    4  502    0  0.12344953305E+03 -0.41744383005E+02 -0.36279133223E+02  0.13535378173E+03  0.47000000000E+01 0.  1.
         -5    1    4    4    0  502 -0.35289521891E+01  0.38269641256E+01 -0.72099029568E+02  0.72439348579E+02  0.47000000000E+01 0.  1.
<mgrwt>
<rscale>  0 0.10022871E+04</rscale>
<asrwt>0</asrwt>
<pdfrwt beam="1">  1        2 0.19834224E+00 0.10022871E+04</pdfrwt>
<pdfrwt beam="2">  1       -2 0.29969698E-01 0.10022871E+04</pdfrwt>
<totfact> 0.20712459E+02</totfact>
</mgrwt>
</event>
<event>
 9    1  0.4497870E-036  0.9999604E+03  0.7818608E-02  0.8681076E-01
         -1   -1    0    0    0  501 -0.00000000000E+00  0.00000000000E+00  0.36974184895E+03  0.36974184895E+03  0.00000000000E+00 0.  1.
          1   -1    0    0  501    0  0.00000000000E+00 -0.00000000000E+00 -0.67609381545E+03  0.67609381545E+03  0.00000000000E+00 0.  1.
         36    2    1    2    0    0 -0.71054273576E-14  0.00000000000E+00 -0.30635196651E+03  0.10458356644E+04  0.99996035399E+03 0.  0.
         25    2    3    3    0    0 -0.11860830243E+02  0.12790872112E+03  0.25946233894E+02  0.17970119938E+03  0.12295525110E+03 0.  0.
         35    2    3    3    0    0  0.11860830243E+02 -0.12790872112E+03 -0.33229820040E+03  0.86613446502E+03  0.78947165704E+03 0.  0.
         22    1    5    5    0    0  0.31769101142E+03  0.43561714824E+02 -0.39623518702E+03  0.50973279782E+03  0.00000000000E+00 0.  1.
         22    1    5    5    0    0 -0.30583018118E+03 -0.17147043594E+03  0.63936986623E+02  0.35640166720E+03  0.00000000000E+00 0.  1.
          5    1    4    4  502    0  0.14366599371E+02  0.42862683823E+02 -0.46370147586E+02  0.64929880865E+02  0.47000000000E+01 0. -1.
         -5    1    4    4    0  502 -0.26227429614E+02  0.85046037298E+02  0.72316381480E+02  0.11477131852E+03  0.47000000000E+01 0. -1.
<mgrwt>
<rscale>  0 0.99996035E+03</rscale>
<asrwt>0</asrwt>
<pdfrwt beam="1">  1        1 0.10401443E+00 0.99996035E+03</pdfrwt>
<pdfrwt beam="2">  1       -1 0.56883362E-01 0.99996035E+03</pdfrwt>
<totfact> 0.10359715E+02</totfact>
</mgrwt>
</event>
<event>
 9    1  0.4497870E-036  0.1000405E+04  0.7818608E-02  0.8680652E-01
         -1   -1    0    0    0  501 -0.00000000000E+00  0.00000000000E+00  0.64286137867E+03  0.64286137867E+03  0.00000000000E+00 0.  1.
          1   -1    0    0  501    0  0.00000000000E+00 -0.00000000000E+00 -0.38920144409E+03  0.38920144409E+03  0.00000000000E+00 0.  1.
         36    2    1    2    0    0  0.00000000000E+00 -0.14210854715E-13  0.25365993458E+03  0.10320628228E+04  0.10004050718E+04 0.  0.
         25    2    3    3    0    0 -0.25406485662E+02  0.94085150549E+02  0.15348658333E+03  0.22032281318E+03  0.12444478967E+03 0.  0.
         35    2    3    3    0    0  0.25406485662E+02 -0.94085150549E+02  0.10017335125E+03  0.81174000958E+03  0.79961843262E+03 0.  0.
         22    1    5    5    0    0  0.55307192545E+02 -0.37827947810E+03 -0.17007709207E+03  0.41842617789E+03  0.00000000000E+00 0. -1.
         22    1    5    5    0    0 -0.29900706883E+02  0.28419432755E+03  0.27025044332E+03  0.39331383169E+03  0.00000000000E+00 0. -1.
          5    1    4    4  502    0 -0.66091013771E+02  0.59904224848E+02  0.13868780804E+03  0.16496343945E+03  0.47000000000E+01 0. -1.
         -5    1    4    4    0  502  0.40684528110E+02  0.34180925701E+02  0.14798775294E+02  0.55359373727E+02  0.47000000000E+01 0. -1.
<mgrwt>
<rscale>  0 0.10004051E+04</rscale>
<asrwt>0</asrwt>
<pdfrwt beam="1">  1        1 0.59877145E-01 0.10004051E+04</pdfrwt>
<pdfrwt beam="2">  1       -1 0.98901750E-01 0.10004051E+04</pdfrwt>
<totfact> 0.72826437E+01</totfact>
</mgrwt>
</event>
<event>
 9    1  0.4497870E-036  0.1000327E+04  0.7818608E-02  0.8680727E-01
         -1   -1    0    0    0  501 -0.00000000000E+00  0.00000000000E+00  0.41581204258E+03  0.41581204258E+03  0.00000000000E+00 0.  1.
          1   -1    0    0  501    0  0.00000000000E+00 -0.00000000000E+00 -0.60162602199E+03  0.60162602199E+03  0.00000000000E+00 0.  1.
         36    2    1    2    0    0  0.00000000000E+00 -0.14210854715E-13 -0.18581397940E+03  0.10174380646E+04  0.10003266368E+04 0.  0.
         25    2    3    3    0    0 -0.15170050474E+02 -0.11638499772E+03  0.34974654881E+02  0.17597039169E+03  0.12635962228E+03 0.  0.
         35    2    3    3    0    0  0.15170050474E+02  0.11638499772E+03 -0.22078863428E+03  0.84146767288E+03  0.80345791759E+03 0.  0.
         22    1    5    5    0    0  0.58624513649E+02 -0.41083494795E+02  0.29337265427E+03  0.30198046529E+03  0.00000000000E+00 0. -1.
         22    1    5    5    0    0 -0.43454463175E+02  0.15746849251E+03 -0.51416128855E+03  0.53948720759E+03  0.00000000000E+00 0. -1.
          5    1    4    4  502    0 -0.89504322963E+01 -0.82261416566E+02 -0.40891426999E+02  0.92418881706E+02  0.47000000000E+01 0. -1.
         -5    1    4    4    0  502 -0.62196181773E+01 -0.34123581152E+02  0.75866081880E+02  0.83551509984E+02  0.47000000000E+01 0. -1.
<mgrwt>
<rscale>  0 0.10003266E+04</rscale>
<asrwt>0</asrwt>
<pdfrwt beam="1">  1        1 0.92557849E-01 0.10003266E+04</pdfrwt>
<pdfrwt beam="2">  1       -1 0.63971084E-01 0.10003266E+04</pdfrwt>
<totfact> 0.98370099E+01</totfact>
</mgrwt>
</event>
<event>
 9    1  0.4497870E-036  0.1000038E+04  0.7818608E-02  0.8681002E-01
         -2   -1    0    0    0  501 -0.00000000000E+00  0.00000000000E+00  0.18268071135E+03  0.18268071135E+03  0.00000000000E+00 0. -1.
          2   -1    0    0  501    0  0.00000000000E+00 -0.00000000000E+00 -0.13686116422E+04  0.13686116422E+04  0.00000000000E+00 0. -1.
         36    2    1    2    0    0  0.00000000000E+00 -0.28421709430E-13 -0.11859309309E+04  0.15512923536E+04  0.10000378960E+04 0.  0.
         25    2    3    3    0    0  0.83128200164E+02  0.52873023476E+02 -0.75497488822E+02  0.17890757943E+03  0.12884951256E+03 0.  0.
         35    2    3    3    0    0 -0.83128200164E+02 -0.52873023476E+02 -0.11104334421E+04  0.13723847741E+04  0.80041969290E+03 0.  0.
         22    1    5    5    0    0 -0.80371973790E+02  0.37109277280E+03 -0.58176635320E+03  0.69470971629E+03  0.00000000000E+00 0.  1.
         22    1    5    5    0    0 -0.27562263741E+01 -0.42396579627E+03 -0.52866708886E+03  0.67767505785E+03  0.00000000000E+00 0.  1.
          5    1    4    4  502    0 -0.10805325457E+02 -0.10251773660E+02  0.23671007824E+02  0.28359487527E+02  0.47000000000E+01 0. -1.
         -5    1    4    4    0  502  0.93933525621E+02  0.63124797136E+02 -0.99168496645E+02  0.15054809190E+03  0.47000000000E+01 0. -1.
<mgrwt>
<rscale>  0 0.10000379E+04</rscale>
<asrwt>0</asrwt>
<pdfrwt beam="1">  1        2 0.21055564E+00 0.10000379E+04</pdfrwt>
<pdfrwt beam="2">  1       -2 0.28104725E-01 0.10000379E+04</pdfrwt>
<totfact> 0.20941846E+02</totfact>
</mgrwt>
</event>
<event>
 9    1  0.4497870E-036  0.9998715E+03  0.7818608E-02  0.8681160E-01
         -1   -1    0    0    0  501 -0.00000000000E+00  0.00000000000E+00  0.38235038350E+03  0.38235038350E+03  0.00000000000E+00 0.  1.
          1   -1    0    0  501    0  0.00000000000E+00 -0.00000000000E+00 -0.65368248527E+03  0.65368248527E+03  0.00000000000E+00 0.  1.
         36    2    1    2    0    0 -0.14210854715E-13 -0.17763568394E-13 -0.27133210178E+03  0.10360328688E+04  0.99987148960E+03 0.  0.
         25    2    3    3    0    0 -0.64429066373E+02 -0.77413062898E+01 -0.17903553934E+03  0.22767126741E+03  0.12477759910E+03 0.  0.
         35    2    3    3    0    0  0.64429066373E+02  0.77413062898E+01 -0.92296562434E+02  0.80836160137E+03  0.80044911813E+03 0.  0.
         22    1    5    5    0    0 -0.79660737240E+02  0.30965853263E+03 -0.27978338690E+03  0.42486819541E+03  0.00000000000E+00 0. -1.
         22    1    5    5    0    0  0.14408980361E+03 -0.30191722634E+03  0.18748682446E+03  0.38349340596E+03  0.00000000000E+00 0. -1.
          5    1    4    4  502    0 -0.80796679764E+02 -0.27475711246E+02 -0.56646940177E+02  0.10253771989E+03  0.47000000000E+01 0. -1.
         -5    1    4    4    0  502  0.16367613391E+02  0.19734404957E+02 -0.12238859917E+03  0.12513354751E+03  0.47000000000E+01 0. -1.
<mgrwt>
<rscale>  0 0.99987149E+03</rscale>
<asrwt>0</asrwt>
<pdfrwt beam="1">  1        1 0.10056654E+00 0.99987149E+03</pdfrwt>
<pdfrwt beam="2">  1       -1 0.58823136E-01 0.99987149E+03</pdfrwt>
<totfact> 0.10225655E+02</totfact>
</mgrwt>
</event>
<event>
 9    1  0.4497870E-036  0.1003957E+04  0.7818608E-02  0.8677279E-01
         -2   -1    0    0    0  501 -0.00000000000E+00  0.00000000000E+00  0.88832127299E+02  0.88832127299E+02  0.00000000000E+00 0. -1.
          2   -1    0    0  501    0  0.00000000000E+00 -0.00000000000E+00 -0.28366113217E+04  0.28366113217E+04  0.00000000000E+00 0. -1.
         36    2    1    2    0    0  0.14210854715E-13 -0.28421709430E-13 -0.27477791944E+04  0.29254434490E+04  0.10039566087E+04 0.  0.
         25    2    3    3    0    0 -0.88436023728E+02 -0.10869928200E+03 -0.61523583880E+03  0.64328072595E+03  0.12513389163E+03 0.  0.
         35    2    3    3    0    0  0.88436023728E+02  0.10869928200E+03 -0.21325433556E+04  0.22821627230E+04  0.80055547388E+03 0.  0.
         22    1    5    5    0    0 -0.32680568434E+03  0.56773379643E+02 -0.52470632179E+03  0.62075912887E+03  0.00000000000E+00 0. -1.
         22    1    5    5    0    0  0.41524170806E+03  0.51925902353E+02 -0.16078370338E+04  0.16614035942E+04  0.00000000000E+00 0. -1.
          5    1    4    4  502    0  0.13076363849E+02 -0.65745880659E+02 -0.13843983725E+03  0.15388694114E+03  0.47000000000E+01 0. -1.
         -5    1    4    4    0  502 -0.10151238758E+03 -0.42953401337E+02 -0.47679600154E+03  0.48939378480E+03  0.47000000000E+01 0. -1.
<mgrwt>
<rscale>  0 0.10039566E+04</rscale>
<asrwt>0</asrwt>
<pdfrwt beam="1">  1        2 0.43640171E+00 0.10039566E+04</pdfrwt>
<pdfrwt beam="2">  1       -2 0.13666482E-01 0.10039566E+04</pdfrwt>
<totfact> 0.10006805E+02</totfact>
</mgrwt>
</event>
<event>
 9    1  0.4497870E-036  0.1000820E+04  0.7818608E-02  0.8680258E-01
          2   -1    0    0  501    0  0.00000000000E+00  0.00000000000E+00  0.69211478665E+03  0.69211478665E+03  0.00000000000E+00 0. -1.
         -2   -1    0    0    0  501 -0.00000000000E+00 -0.00000000000E+00 -0.36180406586E+03  0.36180406586E+03  0.00000000000E+00 0. -1.
         36    2    1    2    0    0  0.14210854715E-13 -0.14210854715E-13  0.33031072079E+03  0.10539188525E+04  0.10008195519E+04 0.  0.
         25    2    3    3    0    0  0.25108431741E+02  0.27988724228E+02 -0.80383948549E+02  0.15372609411E+03  0.12552422394E+03 0.  0.
         35    2    3    3    0    0 -0.25108431741E+02 -0.27988724228E+02  0.41069466934E+03  0.90019275840E+03  0.80016441362E+03 0.  0.
         22    1    5    5    0    0 -0.22907203537E+03 -0.27344176860E+03  0.45482121498E+03  0.57801966731E+03  0.00000000000E+00 0.  1.
         22    1    5    5    0    0  0.20396360363E+03  0.24545304437E+03 -0.44126545633E+02  0.32217309109E+03  0.00000000000E+00 0.  1.
          5    1    4    4  502    0 -0.35237633684E+02  0.17173513386E+02  0.13305021867E+02  0.41662141046E+02  0.47000000000E+01 0.  1.
         -5    1    4    4    0  502  0.60346065426E+02  0.10815210842E+02 -0.93688970416E+02  0.11206395306E+03  0.47000000000E+01 0.  1.
<mgrwt>
<rscale>  0 0.10008196E+04</rscale>
<asrwt>0</asrwt>
<pdfrwt beam="1">  1        2 0.10647920E+00 0.10008196E+04</pdfrwt>
<pdfrwt beam="2">  1       -2 0.55662164E-01 0.10008196E+04</pdfrwt>
<totfact> 0.15253894E+02</totfact>
</mgrwt>
</event>
<event>
 9    1  0.4497870E-036  0.9997840E+03  0.7818608E-02  0.8681244E-01
          2   -1    0    0  501    0  0.00000000000E+00  0.00000000000E+00  0.16615684924E+04  0.16615684924E+04  0.00000000000E+00 0.  1.
         -2   -1    0    0    0  501 -0.00000000000E+00 -0.00000000000E+00 -0.15039524634E+03  0.15039524634E+03  0.00000000000E+00 0.  1.
         36    2    1    2    0    0 -0.71054273576E-14  0.42632564146E-13  0.15111732461E+04  0.18119637387E+04  0.99978398213E+03 0.  0.
         25    2    3    3    0    0  0.34006314578E+01 -0.81692320601E+02  0.48864566116E+03  0.51090853362E+03  0.12477078190E+03 0.  0.
         35    2    3    3    0    0 -0.34006314578E+01  0.81692320601E+02  0.10225275849E+04  0.13010552051E+04  0.80031043062E+03 0.  0.
         22    1    5    5    0    0  0.18497186183E+03  0.38286654468E+03  0.39717411553E+03  0.58184934369E+03  0.00000000000E+00 0.  1.
         22    1    5    5    0    0 -0.18837249328E+03 -0.30117422408E+03  0.62535346936E+03  0.71920586143E+03  0.00000000000E+00 0.  1.
          5    1    4    4  502    0  0.23785461930E+02  0.16477799082E+01  0.32649562446E+03  0.32739875712E+03  0.47000000000E+01 0.  1.
         -5    1    4    4    0  502 -0.20384830472E+02 -0.83340100509E+02  0.16215003671E+03  0.18350977650E+03  0.47000000000E+01 0.  1.
<mgrwt>
<rscale>  0 0.99978398E+03</rscale>
<asrwt>0</asrwt>
<pdfrwt beam="1">  1        2 0.25562591E+00 0.99978398E+03</pdfrwt>
<pdfrwt beam="2">  1       -2 0.23137731E-01 0.99978398E+03</pdfrwt>
<totfact> 0.20198212E+02</totfact>
</mgrwt>
</event>
<event>
 9    1  0.4497870E-036  0.1000118E+04  0.7818608E-02  0.8680926E-01
         -2   -1    0    0    0  501 -0.00000000000E+00  0.00000000000E+00  0.19106540038E+03  0.19106540038E+03  0.00000000000E+00 0.  1.
          2   -1    0    0  501    0  0.00000000000E+00 -0.00000000000E+00 -0.13087603383E+04  0.13087603383E+04  0.00000000000E+00 0.  1.
         36    2    1    2    0    0  0.28421709430E-13 -0.14210854715E-13 -0.11176949379E+04  0.14998257387E+04  0.10001176292E+04 0.  0.
         25    2    3    3    0    0 -0.95590535808E+02  0.60904637341E+02 -0.86942787666E+02  0.19017778598E+03  0.12554527696E+03 0.  0.
         35    2    3    3    0    0  0.95590535808E+02 -0.60904637341E+02 -0.10307521503E+04  0.13096479527E+04  0.79992552116E+03 0.  0.
         22    1    5    5    0    0  0.43935011417E+03 -0.12280158822E+03 -0.53297116636E+03  0.70154616175E+03  0.00000000000E+00 0. -1.
         22    1    5    5    0    0 -0.34375957837E+03  0.61896950875E+02 -0.49778098391E+03  0.60810179097E+03  0.00000000000E+00 0. -1.
          5    1    4    4  502    0  0.10282623925E+02  0.41982853034E+02  0.10769319482E+02  0.44792416164E+02  0.47000000000E+01 0. -1.
         -5    1    4    4    0  502 -0.10587315973E+03  0.18921784306E+02 -0.97712107148E+02  0.14538536982E+03  0.47000000000E+01 0. -1.
<mgrwt>
<rscale>  0 0.10001176E+04</rscale>
<asrwt>0</asrwt>
<pdfrwt beam="1">  1        2 0.20134774E+00 0.10001176E+04</pdfrwt>
<pdfrwt beam="2">  1       -2 0.29394677E-01 0.10001176E+04</pdfrwt>
<totfact> 0.20902990E+02</totfact>
</mgrwt>
</event>
<event>
 9    1  0.4497870E-036  0.1000434E+04  0.7818608E-02  0.8680625E-01
          2   -1    0    0  501    0  0.00000000000E+00  0.00000000000E+00  0.36295433992E+04  0.36295433992E+04  0.00000000000E+00 0.  1.
         -2   -1    0    0    0  501 -0.00000000000E+00 -0.00000000000E+00 -0.68939016301E+02  0.68939016301E+02  0.00000000000E+00 0.  1.
         36    2    1    2    0    0 -0.28421709430E-13  0.00000000000E+00  0.35606043829E+04  0.36984824155E+04  0.10004342089E+04 0.  0.
         25    2    3    3    0    0  0.12719872250E+03 -0.54532619615E+02  0.65147264303E+03  0.67791264524E+03  0.12647382474E+03 0.  0.
         35    2    3    3    0    0 -0.12719872250E+03  0.54532619615E+02  0.29091317399E+04  0.30205697703E+04  0.80102492815E+03 0.  0.
         22    1    5    5    0    0  0.33930245900E+03  0.21488204710E+02  0.10584719349E+04  0.11117332138E+04  0.00000000000E+00 0.  1.
         22    1    5    5    0    0 -0.46650118150E+03  0.33044414905E+02  0.18506598050E+04  0.19088365565E+04  0.00000000000E+00 0.  1.
          5    1    4    4  502    0  0.12870622050E+03 -0.39726057842E+02  0.64807221888E+03  0.66193892600E+03  0.47000000000E+01 0.  1.
         -5    1    4    4    0  502 -0.15074980029E+01 -0.14806561774E+02  0.34004241470E+01  0.15973719234E+02  0.47000000000E+01 0.  1.
<mgrwt>
<rscale>  0 0.10004342E+04</rscale>
<asrwt>0</asrwt>
<pdfrwt beam="1">  1        2 0.55839114E+00 0.10004342E+04</pdfrwt>
<pdfrwt beam="2">  1       -2 0.10606005E-01 0.10004342E+04</pdfrwt>
<totfact> 0.41681673E+01</totfact>
</mgrwt>
</event>
<event>
 9    1  0.4497870E-036  0.9995272E+03  0.7818608E-02  0.8681488E-01
         -2   -1    0    0    0  501 -0.00000000000E+00  0.00000000000E+00  0.39822851128E+03  0.39822851128E+03  0.00000000000E+00 0. -1.
          2   -1    0    0  501    0  0.00000000000E+00 -0.00000000000E+00 -0.62718679858E+03  0.62718679858E+03  0.00000000000E+00 0. -1.
         36    2    1    2    0    0  0.14210854715E-13  0.42632564146E-13 -0.22895828730E+03  0.10254153099E+04  0.99952721843E+03 0.  0.
         25    2    3    3    0    0 -0.11108955561E+03 -0.64401264655E+02 -0.10034549277E+03  0.20566137139E+03  0.12545504974E+03 0.  0.
         35    2    3    3    0    0  0.11108955561E+03  0.64401264655E+02 -0.12861279453E+03  0.81975393848E+03  0.79935402450E+03 0.  0.
         22    1    5    5    0    0  0.24368655941E+03  0.36143071666E+03 -0.21086931686E+03  0.48423255877E+03  0.00000000000E+00 0.  1.
         22    1    5    5    0    0 -0.13259700380E+03 -0.29702945200E+03  0.82256522335E+02  0.33552137971E+03  0.00000000000E+00 0.  1.
          5    1    4    4  502    0 -0.11554553754E+02  0.23677415740E+01  0.27540781294E+02  0.30326532062E+02  0.47000000000E+01 0.  1.
         -5    1    4    4    0  502 -0.99535001858E+02 -0.66769006229E+02 -0.12788627406E+03  0.17533483933E+03  0.47000000000E+01 0.  1.
<mgrwt>
<rscale>  0 0.99952722E+03</rscale>
<asrwt>0</asrwt>
<pdfrwt beam="1">  1        2 0.96490277E-01 0.99952722E+03</pdfrwt>
<pdfrwt beam="2">  1       -2 0.61265925E-01 0.99952722E+03</pdfrwt>
<totfact> 0.14086129E+02</totfact>
</mgrwt>
</event>
<event>
 9    1  0.4497870E-036  0.9998110E+03  0.7818608E-02  0.8681218E-01
          2   -1    0    0  501    0  0.00000000000E+00  0.00000000000E+00  0.28456613547E+03  0.28456613547E+03  0.00000000000E+00 0.  1.
         -2   -1    0    0    0  501 -0.00000000000E+00 -0.00000000000E+00 -0.87819830346E+03  0.87819830346E+03  0.00000000000E+00 0.  1.
         36    2    1    2    0    0 -0.71054273576E-14 -0.28421709430E-13 -0.59363216799E+03  0.11627644389E+04  0.99981097692E+03 0.  0.
         25    2    3    3    0    0 -0.27695572516E+02  0.11362378211E+03 -0.39693127472E+02  0.17558791389E+03  0.12481250954E+03 0.  0.
         35    2    3    3    0    0  0.27695572516E+02 -0.11362378211E+03 -0.55393904052E+03  0.98717652504E+03  0.80869748508E+03 0.  0.
         22    1    5    5    0    0  0.26402706207E+03  0.25609116438E+03 -0.33176905482E+03  0.49534198259E+03  0.00000000000E+00 0. -1.
         22    1    5    5    0    0 -0.23633148955E+03 -0.36971494648E+03 -0.22216998570E+03  0.49183454245E+03  0.00000000000E+00 0. -1.
          5    1    4    4  502    0  0.46314642808E+02  0.18944581308E+02 -0.17975235581E+02  0.53377358436E+02  0.47000000000E+01 0. -1.
         -5    1    4    4    0  502 -0.74010215324E+02  0.94679200798E+02 -0.21717891891E+02  0.12221055545E+03  0.47000000000E+01 0. -1.
<mgrwt>
<rscale>  0 0.99981098E+03</rscale>
<asrwt>0</asrwt>
<pdfrwt beam="1">  1        2 0.43779407E-01 0.99981098E+03</pdfrwt>
<pdfrwt beam="2">  1       -2 0.13510743E+00 0.99981098E+03</pdfrwt>
<totfact> 0.52662255E+01</totfact>
</mgrwt>
</event>
<event>
 9    1  0.4497870E-036  0.1000378E+04  0.7818608E-02  0.8680678E-01
          2   -1    0    0  501    0  0.00000000000E+00  0.00000000000E+00  0.14128208866E+03  0.14128208866E+03  0.00000000000E+00 0. -1.
         -2   -1    0    0    0  501 -0.00000000000E+00 -0.00000000000E+00 -0.17708464205E+04  0.17708464205E+04  0.00000000000E+00 0. -1.
         36    2    1    2    0    0  0.00000000000E+00 -0.14210854715E-13 -0.16295643318E+04  0.19121285091E+04  0.10003776906E+04 0.  0.
         25    2    3    3    0    0 -0.65350842358E+02  0.23938938711E+02 -0.51472867442E+03  0.53792684669E+03  0.13991382608E+03 0.  0.
         35    2    3    3    0    0  0.65350842358E+02 -0.23938938711E+02 -0.11148356574E+04  0.13742016624E+04  0.80045478367E+03 0.  0.
         22    1    5    5    0    0  0.27584812856E+03  0.11743981386E+03 -0.82175115935E+02  0.31086500219E+03  0.00000000000E+00 0. -1.
         22    1    5    5    0    0 -0.21049728620E+03 -0.14137875257E+03 -0.10326605414E+04  0.10633366602E+04  0.00000000000E+00 0. -1.
          5    1    4    4  502    0  0.28704826805E+02 -0.32689462128E+02 -0.19474386290E+03  0.19959917373E+03  0.47000000000E+01 0.  1.
         -5    1    4    4    0  502 -0.94055669163E+02  0.56628400839E+02 -0.31998481153E+03  0.33832767296E+03  0.47000000000E+01 0.  1.
<mgrwt>
<rscale>  0 0.10003777E+04</rscale>
<asrwt>0</asrwt>
<pdfrwt beam="1">  1        2 0.21735704E-01 0.10003777E+04</pdfrwt>
<pdfrwt beam="2">  1       -2 0.27243794E+00 0.10003777E+04</pdfrwt>
<totfact> 0.12972834E+01</totfact>
</mgrwt>
</event>
<event>
 9    1  0.4497870E-036  0.9997018E+03  0.7818608E-02  0.8681322E-01
         -2   -1    0    0    0  501 -0.00000000000E+00  0.00000000000E+00  0.37137736213E+03  0.37137736213E+03  0.00000000000E+00 0. -1.
          2   -1    0    0  501    0  0.00000000000E+00 -0.00000000000E+00 -0.67276830486E+03  0.67276830486E+03  0.00000000000E+00 0. -1.
         36    2    1    2    0    0  0.14210854715E-13  0.00000000000E+00 -0.30139094272E+03  0.10441456670E+04  0.99970179230E+03 0.  0.
         25    2    3    3    0    0 -0.81968233170E+02 -0.20711082273E+02  0.57399974017E+02  0.16258045378E+03  0.12645120306E+03 0.  0.
         35    2    3    3    0    0  0.81968233170E+02  0.20711082273E+02 -0.35879091674E+03  0.88156521321E+03  0.80079870319E+03 0.  0.
         22    1    5    5    0    0  0.22444786411E+03 -0.71380214738E+02  0.19286288375E+03  0.30441430763E+03  0.00000000000E+00 0. -1.
         22    1    5    5    0    0 -0.14247963094E+03  0.92091297011E+02 -0.55165380049E+03  0.57715090558E+03  0.00000000000E+00 0. -1.
          5    1    4    4  502    0 -0.97059653772E+00  0.45998428420E+02  0.98695484520E+01  0.47289485738E+02  0.47000000000E+01 0.  1.
         -5    1    4    4    0  502 -0.80997636632E+02 -0.66709510692E+02  0.47530425565E+02  0.11529096804E+03  0.47000000000E+01 0.  1.
<mgrwt>
<rscale>  0 0.99970179E+03</rscale>
<asrwt>0</asrwt>
<pdfrwt beam="1">  1        2 0.10350282E+00 0.99970179E+03</pdfrwt>
<pdfrwt beam="2">  1       -2 0.57134979E-01 0.99970179E+03</pdfrwt>
<totfact> 0.14965020E+02</totfact>
</mgrwt>
</event>
<event>
 9    1  0.4497870E-036  0.9977274E+03  0.7818608E-02  0.8683205E-01
         -2   -1    0    0    0  501 -0.00000000000E+00  0.00000000000E+00  0.25093189367E+03  0.25093189367E+03  0.00000000000E+00 0.  1.
          2   -1    0    0  501    0  0.00000000000E+00 -0.00000000000E+00 -0.99176306647E+03  0.99176306647E+03  0.00000000000E+00 0.  1.
         36    2    1    2    0    0  0.00000000000E+00  0.39079850467E-13 -0.74083117280E+03  0.12426949601E+04  0.99772738630E+03 0.  0.
         25    2    3    3    0    0 -0.67499381803E+02  0.77822485836E+01 -0.28970848219E+03  0.32287133700E+03  0.12529232085E+03 0.  0.
         35    2    3    3    0    0  0.67499381803E+02 -0.77822485836E+01 -0.45112269061E+03  0.91982362315E+03  0.79871589804E+03 0.  0.
         22    1    5    5    0    0 -0.26311215014E+03  0.26450672546E+03 -0.19948825180E+03  0.42306899434E+03  0.00000000000E+00 0.  1.
         22    1    5    5    0    0  0.33061153195E+03 -0.27228897405E+03 -0.25163443881E+03  0.49675462880E+03  0.00000000000E+00 0.  1.
          5    1    4    4  502    0 -0.82156056171E+02 -0.21957887273E+02 -0.27193362098E+03  0.28495920865E+03  0.47000000000E+01 0. -1.
         -5    1    4    4    0  502  0.14656674368E+02  0.29740135857E+02 -0.17774861214E+02  0.37912128343E+02  0.47000000000E+01 0. -1.
<mgrwt>
<rscale>  0 0.99772739E+03</rscale>
<asrwt>0</asrwt>
<pdfrwt beam="1">  1        2 0.15257893E+00 0.99772739E+03</pdfrwt>
<pdfrwt beam="2">  1       -2 0.38604907E-01 0.99772739E+03</pdfrwt>
<totfact> 0.19534697E+02</totfact>
</mgrwt>
</event>
<event>
 9    1  0.4497870E-036  0.1000493E+04  0.7818608E-02  0.8680569E-01
          1   -1    0    0  501    0  0.00000000000E+00  0.00000000000E+00  0.11619509227E+04  0.11619509227E+04  0.00000000000E+00 0. -1.
         -1   -1    0    0    0  501 -0.00000000000E+00 -0.00000000000E+00 -0.21536747252E+03  0.21536747252E+03  0.00000000000E+00 0. -1.
         36    2    1    2    0    0 -0.14210854715E-13  0.00000000000E+00  0.94658345017E+03  0.13773183952E+04  0.10004927454E+04 0.  0.
         25    2    3    3    0    0  0.14060271731E+02 -0.64069738486E+02  0.14108228334E+02  0.14788085311E+03  0.13178422507E+03 0.  0.
         35    2    3    3    0    0 -0.14060271731E+02  0.64069738486E+02  0.93247522184E+03  0.12294375421E+04  0.79856371565E+03 0.  0.
         22    1    5    5    0    0  0.14112071381E+03 -0.48124292094E+02  0.10113917230E+04  0.10223229532E+04  0.00000000000E+00 0. -1.
         22    1    5    5    0    0 -0.15518098554E+03  0.11219403058E+03 -0.78916501150E+02  0.20711458888E+03  0.00000000000E+00 0. -1.
          5    1    4    4  502    0 -0.27532124447E+02 -0.47918349137E+02  0.61366928536E+02  0.82717446640E+02  0.47000000000E+01 0.  1.
         -5    1    4    4    0  502  0.41592396178E+02 -0.16151389349E+02 -0.47258700202E+02  0.65163406468E+02  0.47000000000E+01 0.  1.
<mgrwt>
<rscale>  0 0.10004927E+04</rscale>
<asrwt>0</asrwt>
<pdfrwt beam="1">  1        1 0.17876168E+00 0.10004927E+04</pdfrwt>
<pdfrwt beam="2">  1       -1 0.33133458E-01 0.10004927E+04</pdfrwt>
<totfact> 0.10784524E+02</totfact>
</mgrwt>
</event>
<event>
 9    1  0.4497870E-036  0.9998002E+03  0.7818608E-02  0.8681228E-01
          2   -1    0    0  501    0  0.00000000000E+00  0.00000000000E+00  0.16029569437E+04  0.16029569437E+04  0.00000000000E+00 0. -1.
         -2   -1    0    0    0  501 -0.00000000000E+00 -0.00000000000E+00 -0.15589944761E+03  0.15589944761E+03  0.00000000000E+00 0. -1.
         36    2    1    2    0    0 -0.14210854715E-13  0.14210854715E-13  0.14470574961E+04  0.17588563913E+04  0.99980018415E+03 0.  0.
         25    2    3    3    0    0 -0.62372070037E+02  0.97085453093E+02  0.13054064264E+03  0.21465958897E+03  0.12538747717E+03 0.  0.
         35    2    3    3    0    0  0.62372070037E+02 -0.97085453093E+02  0.13165168534E+04  0.15441968023E+04  0.79875608203E+03 0.  0.
         22    1    5    5    0    0 -0.24922358174E+03 -0.61279991525E+02  0.11703578732E+04  0.11981674267E+04  0.00000000000E+00 0. -1.
         22    1    5    5    0    0  0.31159565178E+03 -0.35805461567E+02  0.14615898024E+03  0.34602937562E+03  0.00000000000E+00 0. -1.
          5    1    4    4  502    0 -0.24337530957E+00  0.64600122966E+02  0.12903258010E+03  0.14437704750E+03  0.47000000000E+01 0.  1.
         -5    1    4    4    0  502 -0.62128694727E+02  0.32485330126E+02  0.15080625390E+01  0.70282541464E+02  0.47000000000E+01 0.  1.
<mgrwt>
<rscale>  0 0.99980018E+03</rscale>
<asrwt>0</asrwt>
<pdfrwt beam="1">  1        2 0.24660875E+00 0.99980018E+03</pdfrwt>
<pdfrwt beam="2">  1       -2 0.23984532E-01 0.99980018E+03</pdfrwt>
<totfact> 0.20457119E+02</totfact>
</mgrwt>
</event>
<event>
 9    1  0.4497870E-036  0.1000366E+04  0.7818608E-02  0.8680690E-01
         -2   -1    0    0    0  501 -0.00000000000E+00  0.00000000000E+00  0.42092602594E+03  0.42092602594E+03  0.00000000000E+00 0.  1.
          2   -1    0    0  501    0  0.00000000000E+00 -0.00000000000E+00 -0.59436322825E+03  0.59436322825E+03  0.00000000000E+00 0.  1.
         36    2    1    2    0    0  0.00000000000E+00  0.00000000000E+00 -0.17343720231E+03  0.10152892542E+04  0.10003658364E+04 0.  0.
         25    2    3    3    0    0 -0.36088534439E+02  0.12200217542E+03 -0.91054694205E+02  0.20065745064E+03  0.12564052705E+03 0.  0.
         35    2    3    3    0    0  0.36088534439E+02 -0.12200217542E+03 -0.82382508107E+02  0.81463180356E+03  0.80040688690E+03 0.  0.
         22    1    5    5    0    0  0.39728962701E+03 -0.94662718865E+02 -0.16930666394E+03  0.44211404018E+03  0.00000000000E+00 0. -1.
         22    1    5    5    0    0 -0.36120109257E+03 -0.27339456551E+02  0.86924155829E+02  0.37251776337E+03  0.00000000000E+00 0. -1.
          5    1    4    4  502    0 -0.18868237542E+02  0.10070652209E+03  0.29731452016E+01  0.10260966607E+03  0.47000000000E+01 0. -1.
         -5    1    4    4    0  502 -0.17220296897E+02  0.21295653328E+02 -0.94027839406E+02  0.98047784571E+02  0.47000000000E+01 0. -1.
<mgrwt>
<rscale>  0 0.10003658E+04</rscale>
<asrwt>0</asrwt>
<pdfrwt beam="1">  1        2 0.91440496E-01 0.10003658E+04</pdfrwt>
<pdfrwt beam="2">  1       -2 0.64757851E-01 0.10003658E+04</pdfrwt>
<totfact> 0.13358085E+02</totfact>
</mgrwt>
</event>
<event>
 9    1  0.4497870E-036  0.1001902E+04  0.7818608E-02  0.8679228E-01
          1   -1    0    0  501    0  0.00000000000E+00  0.00000000000E+00  0.15362354887E+04  0.15362354887E+04  0.00000000000E+00 0. -1.
         -1   -1    0    0    0  501 -0.00000000000E+00 -0.00000000000E+00 -0.16335520324E+03  0.16335520324E+03  0.00000000000E+00 0. -1.
         36    2    1    2    0    0  0.28421709430E-13 -0.14210854715E-13  0.13728802855E+04  0.16995906919E+04  0.10019023116E+04 0.  0.
         25    2    3    3    0    0  0.88314412550E+02  0.10802253508E+03  0.30458565765E+03  0.35758790436E+03  0.12501353107E+03 0.  0.
         35    2    3    3    0    0 -0.88314412550E+02 -0.10802253508E+03  0.10682946278E+04  0.13420027876E+04  0.80015608885E+03 0.  0.
         22    1    5    5    0    0  0.18334113880E+03  0.11958378689E+03  0.93991044456E+03  0.96506263996E+03  0.00000000000E+00 0. -1.
         22    1    5    5    0    0 -0.27165555134E+03 -0.22760632198E+03  0.12838418326E+03  0.37694014763E+03  0.00000000000E+00 0. -1.
          5    1    4    4  502    0  0.32015696573E+02 -0.24852961421E+02  0.46534159938E+02  0.61888549503E+02  0.47000000000E+01 0.  1.
         -5    1    4    4    0  502  0.56298715977E+02  0.13287549651E+03  0.25805149771E+03  0.29569935486E+03  0.47000000000E+01 0.  1.
<mgrwt>
<rscale>  0 0.10019023E+04</rscale>
<asrwt>0</asrwt>
<pdfrwt beam="1">  1        1 0.23634391E+00 0.10019023E+04</pdfrwt>
<pdfrwt beam="2">  1       -1 0.25131571E-01 0.10019023E+04</pdfrwt>
<totfact> 0.92304341E+01</totfact>
</mgrwt>
</event>
<event>
 9    1  0.4497870E-036  0.9990852E+03  0.7818608E-02  0.8681910E-01
          2   -1    0    0  501    0  0.00000000000E+00  0.00000000000E+00  0.10577876205E+04  0.10577876205E+04  0.00000000000E+00 0. -1.
         -2   -1    0    0    0  501 -0.00000000000E+00 -0.00000000000E+00 -0.23591011180E+03  0.23591011180E+03  0.00000000000E+00 0. -1.
         36    2    1    2    0    0  0.28421709430E-13  0.28421709430E-13  0.82187750874E+03  0.12936977323E+04  0.99908517318E+03 0.  0.
         25    2    3    3    0    0 -0.79526430616E+02  0.10750684119E+03  0.19991993718E+03  0.27140270307E+03  0.12573492705E+03 0.  0.
         35    2    3    3    0    0  0.79526430616E+02 -0.10750684119E+03  0.62195757156E+03  0.10222950293E+04  0.80023354840E+03 0.  0.
         22    1    5    5    0    0 -0.14151585967E+03 -0.20217009285E+03  0.72113080101E+03  0.76218706178E+03  0.00000000000E+00 0. -1.
         22    1    5    5    0    0  0.22104229029E+03  0.94663251665E+02 -0.99173229448E+02  0.26010796749E+03  0.00000000000E+00 0. -1.
          5    1    4    4  502    0 -0.86032113757E+02  0.30944118673E+02  0.53647645367E+02  0.10610948559E+03  0.47000000000E+01 0.  1.
         -5    1    4    4    0  502  0.65056831411E+01  0.76562722515E+02  0.14627229182E+03  0.16529321748E+03  0.47000000000E+01 0.  1.
<mgrwt>
<rscale>  0 0.99908517E+03</rscale>
<asrwt>0</asrwt>
<pdfrwt beam="1">  1        2 0.16273655E+00 0.99908517E+03</pdfrwt>
<pdfrwt beam="2">  1       -2 0.36293864E-01 0.99908517E+03</pdfrwt>
<totfact> 0.19969354E+02</totfact>
</mgrwt>
</event>
<event>
 9    1  0.4497870E-036  0.1000281E+04  0.7818608E-02  0.8680770E-01
          1   -1    0    0  501    0  0.00000000000E+00  0.00000000000E+00  0.23929397146E+03  0.23929397146E+03  0.00000000000E+00 0. -1.
         -1   -1    0    0    0  501 -0.00000000000E+00 -0.00000000000E+00 -0.10453283192E+04  0.10453283192E+04  0.00000000000E+00 0. -1.
         36    2    1    2    0    0 -0.14210854715E-13 -0.71054273576E-14 -0.80603434778E+03  0.12846222907E+04  0.10002814903E+04 0.  0.
         25    2    3    3    0    0  0.10747864395E+03 -0.41949463921E+02 -0.25628815812E+03  0.30727975900E+03  0.12420069997E+03 0.  0.
         35    2    3    3    0    0 -0.10747864395E+03  0.41949463921E+02 -0.54974618966E+03  0.97734253168E+03  0.79979130701E+03 0.  0.
         22    1    5    5    0    0  0.10430474474E+03 -0.34010312562E+03 -0.34261292815E+03  0.49389597525E+03  0.00000000000E+00 0. -1.
         22    1    5    5    0    0 -0.21178338870E+03  0.38205258954E+03 -0.20713326151E+03  0.48344655643E+03  0.00000000000E+00 0. -1.
          5    1    4    4  502    0  0.41435061533E+02  0.21022674348E+02 -0.14653185322E+02  0.48945101911E+02  0.47000000000E+01 0. -1.
         -5    1    4    4    0  502  0.66043582420E+02 -0.62972138268E+02 -0.24163497280E+03  0.25833465709E+03  0.47000000000E+01 0. -1.
<mgrwt>
<rscale>  0 0.10002815E+04</rscale>
<asrwt>0</asrwt>
<pdfrwt beam="1">  1        1 0.36814457E-01 0.10002815E+04</pdfrwt>
<pdfrwt beam="2">  1       -1 0.16081974E+00 0.10002815E+04</pdfrwt>
<totfact> 0.39150785E+01</totfact>
</mgrwt>
</event>
<event>
 9    1  0.4497870E-036  0.1000262E+04  0.7818608E-02  0.8680788E-01
         -2   -1    0    0    0  501 -0.00000000000E+00  0.00000000000E+00  0.33307458217E+03  0.33307458217E+03  0.00000000000E+00 0. -1.
          2   -1    0    0  501    0  0.00000000000E+00 -0.00000000000E+00 -0.75097598723E+03  0.75097598723E+03  0.00000000000E+00 0. -1.
         36    2    1    2    0    0 -0.35527136788E-13  0.28421709430E-13 -0.41790140506E+03  0.10840505694E+04  0.10002619920E+04 0.  0.
         25    2    3    3    0    0 -0.46286980882E+01 -0.13232288478E+03 -0.12245186942E+03  0.22106457492E+03  0.12784488757E+03 0.  0.
         35    2    3    3    0    0  0.46286980882E+01  0.13232288478E+03 -0.29544953564E+03  0.86298599447E+03  0.79995226599E+03 0.  0.
         22    1    5    5    0    0 -0.30590648480E+03 -0.93143408239E+02  0.76243392279E+02  0.32873625722E+03  0.00000000000E+00 0. -1.
         22    1    5    5    0    0  0.31053518289E+03  0.22546629302E+03 -0.37169292791E+03  0.53424973726E+03  0.00000000000E+00 0. -1.
          5    1    4    4  502    0  0.38586014369E+02 -0.66597518484E+02 -0.20132235895E+01  0.77137883315E+02  0.47000000000E+01 0. -1.
         -5    1    4    4    0  502 -0.43214712457E+02 -0.65725366297E+02 -0.12043864583E+03  0.14392669161E+03  0.47000000000E+01 0. -1.
<mgrwt>
<rscale>  0 0.10002620E+04</rscale>
<asrwt>0</asrwt>
<pdfrwt beam="1">  1        2 0.11553477E+00 0.10002620E+04</pdfrwt>
<pdfrwt beam="2">  1       -2 0.51242244E-01 0.10002620E+04</pdfrwt>
<totfact> 0.16307482E+02</totfact>
</mgrwt>
</event>
<event>
 9    1  0.4497870E-036  0.1000240E+04  0.7818608E-02  0.8680809E-01
          1   -1    0    0  501    0  0.00000000000E+00  0.00000000000E+00  0.60259748638E+03  0.60259748638E+03  0.00000000000E+00 0.  1.
         -1   -1    0    0    0  501 -0.00000000000E+00 -0.00000000000E+00 -0.41507012459E+03  0.41507012459E+03  0.00000000000E+00 0.  1.
         36    2    1    2    0    0  0.28421709430E-13  0.00000000000E+00  0.18752736179E+03  0.10176676110E+04  0.10002403986E+04 0.  0.
         25    2    3    3    0    0 -0.75421426009E+02 -0.85609500299E+02 -0.47260138876E+02  0.17617638103E+03  0.12564719839E+03 0.  0.
         35    2    3    3    0    0  0.75421426009E+02  0.85609500299E+02  0.23478750067E+03  0.84149122994E+03  0.79997808817E+03 0.  0.
         22    1    5    5    0    0 -0.33501243671E+03  0.13090527009E+03 -0.13018360080E+02  0.35991526807E+03  0.00000000000E+00 0. -1.
         22    1    5    5    0    0  0.41043386272E+03 -0.45295769788E+02  0.24780586075E+03  0.48157596187E+03  0.00000000000E+00 0. -1.
          5    1    4    4  502    0 -0.31944348409E+02 -0.73970673550E+02 -0.85027459770E+02  0.11723421367E+03  0.47000000000E+01 0.  1.
         -5    1    4    4    0  502 -0.43477077600E+02 -0.11638826748E+02  0.37767320894E+02  0.58942167353E+02  0.47000000000E+01 0.  1.
<mgrwt>
<rscale>  0 0.10002404E+04</rscale>
<asrwt>0</asrwt>
<pdfrwt beam="1">  1        1 0.92707306E-01 0.10002404E+04</pdfrwt>
<pdfrwt beam="2">  1       -1 0.63856942E-01 0.10002404E+04</pdfrwt>
<totfact> 0.98480043E+01</totfact>
</mgrwt>
</event>
<event>
 9    1  0.4497870E-036  0.9991721E+03  0.7818608E-02  0.8681827E-01
         -2   -1    0    0    0  501 -0.00000000000E+00  0.00000000000E+00  0.27738134748E+03  0.27738134748E+03  0.00000000000E+00 0. -1.
          2   -1    0    0  501    0  0.00000000000E+00 -0.00000000000E+00 -0.89979449166E+03  0.89979449166E+03  0.00000000000E+00 0. -1.
         36    2    1    2    0    0  0.42632564146E-13  0.28421709430E-13 -0.62241314418E+03  0.11771758391E+04  0.99917207437E+03 0.  0.
         25    2    3    3    0    0 -0.12278993453E+03 -0.66863858122E+02 -0.12767827768E+03  0.22646921218E+03  0.12425143029E+03 0.  0.
         35    2    3    3    0    0  0.12278993453E+03  0.66863858122E+02 -0.49473486650E+03  0.95070662696E+03  0.79970767088E+03 0.  0.
         22    1    5    5    0    0 -0.28423250260E+03 -0.15543302124E+03 -0.31930200136E+03  0.45486405408E+03  0.00000000000E+00 0. -1.
         22    1    5    5    0    0  0.40702243713E+03  0.22229687936E+03 -0.17543286514E+03  0.49584257287E+03  0.00000000000E+00 0. -1.
          5    1    4    4  502    0 -0.11915812002E+03  0.34160169608E+00 -0.75038493135E+02  0.14089584703E+03  0.47000000000E+01 0. -1.
         -5    1    4    4    0  502 -0.36318145061E+01 -0.67205459818E+02 -0.52639784547E+02  0.85573365150E+02  0.47000000000E+01 0. -1.
<mgrwt>
<rscale>  0 0.99917207E+03</rscale>
<asrwt>0</asrwt>
<pdfrwt beam="1">  1        2 0.13842992E+00 0.99917207E+03</pdfrwt>
<pdfrwt beam="2">  1       -2 0.42674054E-01 0.99917207E+03</pdfrwt>
<totfact> 0.18470623E+02</totfact>
</mgrwt>
</event>
<event>
 9    1  0.4497870E-036  0.1008185E+04  0.7818608E-02  0.8673282E-01
          2   -1    0    0  501    0  0.00000000000E+00  0.00000000000E+00  0.14043738878E+04  0.14043738878E+04  0.00000000000E+00 0.  1.
         -2   -1    0    0    0  501 -0.00000000000E+00 -0.00000000000E+00 -0.18094123241E+03  0.18094123241E+03  0.00000000000E+00 0.  1.
         36    2    1    2    0    0  0.00000000000E+00  0.14210854715E-13  0.12234326554E+04  0.15853151202E+04  0.10081847887E+04 0.  0.
         25    2    3    3    0    0 -0.92444344000E+02 -0.82367314495E+02  0.36611389615E+03  0.40620954028E+03  0.12504588929E+03 0.  0.
         35    2    3    3    0    0  0.92444344000E+02  0.82367314495E+02  0.85731875925E+03  0.11791055799E+04  0.79997761371E+03 0.  0.
         22    1    5    5    0    0  0.21178275821E+03  0.69495516514E+02  0.98144449250E+03  0.10064367120E+04  0.00000000000E+00 0. -1.
         22    1    5    5    0    0 -0.11933841421E+03  0.12871797980E+02 -0.12412573324E+03  0.17266886790E+03  0.00000000000E+00 0. -1.
          5    1    4    4  502    0 -0.10082243118E+03 -0.10718919110E+03  0.32993707221E+03  0.36129661905E+03  0.47000000000E+01 0.  1.
         -5    1    4    4    0  502  0.83780871838E+01  0.24821876608E+02  0.36176823942E+02  0.44912921233E+02  0.47000000000E+01 0.  1.
<mgrwt>
<rscale>  0 0.10081848E+04</rscale>
<asrwt>0</asrwt>
<pdfrwt beam="1">  1        2 0.21605751E+00 0.10081848E+04</pdfrwt>
<pdfrwt beam="2">  1       -2 0.27837114E-01 0.10081848E+04</pdfrwt>
<totfact> 0.20324582E+02</totfact>
</mgrwt>
</event>
<event>
 9    1  0.4497870E-036  0.1000032E+04  0.7818608E-02  0.8681008E-01
          2   -1    0    0  501    0  0.00000000000E+00  0.00000000000E+00  0.42090060258E+03  0.42090060258E+03  0.00000000000E+00 0. -1.
         -2   -1    0    0    0  501 -0.00000000000E+00 -0.00000000000E+00 -0.59400242671E+03  0.59400242671E+03  0.00000000000E+00 0. -1.
         36    2    1    2    0    0  0.00000000000E+00  0.00000000000E+00 -0.17310182413E+03  0.10149030293E+04  0.10000319582E+04 0.  0.
         25    2    3    3    0    0  0.73193383138E+02  0.97249742016E+02  0.40236433436E+02  0.17826006527E+03  0.12386644678E+03 0.  0.
         35    2    3    3    0    0 -0.73193383138E+02 -0.97249742016E+02 -0.21333825757E+03  0.83664296402E+03  0.79977712736E+03 0.  0.
         22    1    5    5    0    0  0.15411176069E+03 -0.27552386238E+03 -0.38711861883E+03  0.49952443240E+03  0.00000000000E+00 0.  1.
         22    1    5    5    0    0 -0.22730514383E+03  0.17827412037E+03  0.17378036126E+03  0.33711853162E+03  0.00000000000E+00 0.  1.
          5    1    4    4  502    0  0.70761140549E+02  0.72876050051E+00  0.40346369368E+02  0.81594053857E+02  0.47000000000E+01 0. -1.
         -5    1    4    4    0  502  0.24322425894E+01  0.96520981516E+02 -0.10993593230E+00  0.96666011414E+02  0.47000000000E+01 0. -1.
<mgrwt>
<rscale>  0 0.10000320E+04</rscale>
<asrwt>0</asrwt>
<pdfrwt beam="1">  1        2 0.64753939E-01 0.10000320E+04</pdfrwt>
<pdfrwt beam="2">  1       -2 0.91384989E-01 0.10000320E+04</pdfrwt>
<totfact> 0.91443287E+01</totfact>
</mgrwt>
</event>
<event>
 9    1  0.4497870E-036  0.1004598E+04  0.7818608E-02  0.8676672E-01
          2   -1    0    0  501    0  0.00000000000E+00  0.00000000000E+00  0.12121154608E+04  0.12121154608E+04  0.00000000000E+00 0. -1.
         -2   -1    0    0    0  501 -0.00000000000E+00 -0.00000000000E+00 -0.20815197362E+03  0.20815197362E+03  0.00000000000E+00 0. -1.
         36    2    1    2    0    0  0.00000000000E+00  0.00000000000E+00  0.10039634872E+04  0.14202674345E+04  0.10045978806E+04 0.  0.
         25    2    3    3    0    0 -0.41366373952E+02  0.13675496951E+03  0.14026262591E+03  0.23449307927E+03  0.12206679080E+03 0.  0.
         35    2    3    3    0    0  0.41366373952E+02 -0.13675496951E+03  0.86370086129E+03  0.11857743552E+04  0.79979281382E+03 0.  0.
         22    1    5    5    0    0 -0.36297951715E+03 -0.17479980160E+03  0.37557670775E+03  0.55078758511E+03  0.00000000000E+00 0.  1.
         22    1    5    5    0    0  0.40434589110E+03  0.38044832087E+02  0.48812415354E+03  0.63498677007E+03  0.00000000000E+00 0.  1.
          5    1    4    4  502    0 -0.30146148021E+02  0.13503635958E+03  0.55996752402E+02  0.14933631484E+03  0.47000000000E+01 0.  1.
         -5    1    4    4    0  502 -0.11220225931E+02  0.17186099325E+01  0.84265873509E+02  0.85156764431E+02  0.47000000000E+01 0.  1.
<mgrwt>
<rscale>  0 0.10045979E+04</rscale>
<asrwt>0</asrwt>
<pdfrwt beam="1">  1        2 0.18647930E+00 0.10045979E+04</pdfrwt>
<pdfrwt beam="2">  1       -2 0.32023381E-01 0.10045979E+04</pdfrwt>
<totfact> 0.20352574E+02</totfact>
</mgrwt>
</event>
<event>
 9    1  0.4497870E-036  0.9995521E+03  0.7818608E-02  0.8681465E-01
          2   -1    0    0  501    0  0.00000000000E+00  0.00000000000E+00  0.26162719644E+04  0.26162719644E+04  0.00000000000E+00 0. -1.
         -2   -1    0    0    0  501 -0.00000000000E+00 -0.00000000000E+00 -0.95470243991E+02  0.95470243991E+02  0.00000000000E+00 0. -1.
         36    2    1    2    0    0 -0.14210854715E-13 -0.56843418861E-13  0.25208017204E+04  0.27117422083E+04  0.99955214528E+03 0.  0.
         25    2    3    3    0    0 -0.50758112724E+02 -0.13389013545E+03  0.57109089264E+03  0.60034768773E+03  0.11734387128E+03 0.  0.
         35    2    3    3    0    0  0.50758112724E+02  0.13389013545E+03  0.19497108277E+04  0.21113945206E+04  0.79756601957E+03 0.  0.
         22    1    5    5    0    0 -0.73457963602E+02 -0.32563569720E+03  0.76808908108E+03  0.83749359172E+03  0.00000000000E+00 0. -1.
         22    1    5    5    0    0  0.12421607633E+03  0.45952583265E+03  0.11816217466E+04  0.12739009289E+04  0.00000000000E+00 0. -1.
          5    1    4    4  502    0  0.19824777379E+02  0.11422869515E+02  0.64330805950E+02  0.68440093076E+02  0.47000000000E+01 0. -1.
         -5    1    4    4    0  502 -0.70582890104E+02 -0.14531300497E+03  0.50676008669E+03  0.53190759466E+03  0.47000000000E+01 0. -1.
<mgrwt>
<rscale>  0 0.99955215E+03</rscale>
<asrwt>0</asrwt>
<pdfrwt beam="1">  1        2 0.40250333E+00 0.99955215E+03</pdfrwt>
<pdfrwt beam="2">  1       -2 0.14687732E-01 0.99955215E+03</pdfrwt>
<totfact> 0.12236706E+02</totfact>
</mgrwt>
</event>
<event>
 9    1  0.4497870E-036  0.1000336E+04  0.7818608E-02  0.8680718E-01
          2   -1    0    0  501    0  0.00000000000E+00  0.00000000000E+00  0.12914302439E+04  0.12914302439E+04  0.00000000000E+00 0. -1.
         -2   -1    0    0    0  501 -0.00000000000E+00 -0.00000000000E+00 -0.19371411665E+03  0.19371411665E+03  0.00000000000E+00 0. -1.
         36    2    1    2    0    0  0.00000000000E+00  0.00000000000E+00  0.10977161273E+04  0.14851443606E+04  0.10003364812E+04 0.  0.
         25    2    3    3    0    0 -0.11030302974E+03  0.70806582270E+02  0.13811885560E+03  0.22905730848E+03  0.12731889818E+03 0.  0.
         35    2    3    3    0    0  0.11030302974E+03 -0.70806582270E+02  0.95959727170E+03  0.12560870521E+04  0.79984212703E+03 0.  0.
         22    1    5    5    0    0  0.23884072821E+03 -0.13537968956E+03  0.10505955093E+04  0.10858745222E+04  0.00000000000E+00 0.  1.
         22    1    5    5    0    0 -0.12853769848E+03  0.64573107293E+02 -0.90998237558E+02  0.17021252996E+03  0.00000000000E+00 0.  1.
          5    1    4    4  502    0 -0.94273287569E+02  0.41829035434E+02  0.18547901928E+02  0.10489630890E+03  0.47000000000E+01 0. -1.
         -5    1    4    4    0  502 -0.16029742167E+02  0.28977546836E+02  0.11957095367E+03  0.12416099958E+03  0.47000000000E+01 0. -1.
<mgrwt>
<rscale>  0 0.10003365E+04</rscale>
<asrwt>0</asrwt>
<pdfrwt beam="1">  1        2 0.19868157E+00 0.10003365E+04</pdfrwt>
<pdfrwt beam="2">  1       -2 0.29802173E-01 0.10003365E+04</pdfrwt>
<totfact> 0.20863472E+02</totfact>
</mgrwt>
</event>
<event>
 9    1  0.4497870E-036  0.9990130E+03  0.7818608E-02  0.8681978E-01
         -2   -1    0    0    0  501 -0.00000000000E+00  0.00000000000E+00  0.16424929525E+03  0.16424929525E+03  0.00000000000E+00 0. -1.
          2   -1    0    0  501    0  0.00000000000E+00 -0.00000000000E+00 -0.15190734574E+04  0.15190734574E+04  0.00000000000E+00 0. -1.
         36    2    1    2    0    0  0.28421709430E-13  0.14210854715E-13 -0.13548241622E+04  0.16833227526E+04  0.99901300253E+03 0.  0.
         25    2    3    3    0    0 -0.49968972227E+02  0.79778407497E+02 -0.42453468738E+03  0.45239740963E+03  0.12478871328E+03 0.  0.
         35    2    3    3    0    0  0.49968972227E+02 -0.79778407497E+02 -0.93028947477E+03  0.12309253430E+04  0.80054806272E+03 0.  0.
         22    1    5    5    0    0 -0.35979324278E+03 -0.11927077382E+03 -0.32722043831E+03  0.50074934876E+03  0.00000000000E+00 0.  1.
         22    1    5    5    0    0  0.40976221501E+03  0.39492366324E+02 -0.60306903646E+03  0.73017599425E+03  0.00000000000E+00 0.  1.
          5    1    4    4  502    0  0.15636259383E+02  0.14489786797E+02 -0.45366305048E+01  0.22296132966E+02  0.47000000000E+01 0. -1.
         -5    1    4    4    0  502 -0.65605231610E+02  0.65288620700E+02 -0.41999805688E+03  0.43010127667E+03  0.47000000000E+01 0. -1.
<mgrwt>
<rscale>  0 0.99901300E+03</rscale>
<asrwt>0</asrwt>
<pdfrwt beam="1">  1        2 0.23370362E+00 0.99901300E+03</pdfrwt>
<pdfrwt beam="2">  1       -2 0.25269121E-01 0.99901300E+03</pdfrwt>
<totfact> 0.20801438E+02</totfact>
</mgrwt>
</event>
<event>
 9    1  0.4497870E-036  0.1000112E+04  0.7818608E-02  0.8680932E-01
          2   -1    0    0  501    0  0.00000000000E+00  0.00000000000E+00  0.12023544761E+04  0.12023544761E+04  0.00000000000E+00 0. -1.
         -2   -1    0    0    0  501 -0.00000000000E+00 -0.00000000000E+00 -0.20797180144E+03  0.20797180144E+03  0.00000000000E+00 0. -1.
         36    2    1    2    0    0  0.00000000000E+00 -0.28421709430E-13  0.99438267468E+03  0.14103262776E+04  0.10001116465E+04 0.  0.
         25    2    3    3    0    0 -0.29207341256E+01 -0.13432851487E+03  0.23339356379E+03  0.29676966524E+03  0.12468760161E+03 0.  0.
         35    2    3    3    0    0  0.29207341256E+01  0.13432851487E+03  0.76098911089E+03  0.11135566123E+04  0.80178003303E+03 0.  0.
         22    1    5    5    0    0 -0.21907569494E+02 -0.27891842365E+03  0.61314050453E+03  0.67395601263E+03  0.00000000000E+00 0. -1.
         22    1    5    5    0    0  0.24828303620E+02  0.41324693852E+03  0.14784860636E+03  0.43960059970E+03  0.00000000000E+00 0. -1.
          5    1    4    4  502    0 -0.49587985542E+02 -0.75764921617E+02  0.62486092097E+02  0.11011763421E+03  0.47000000000E+01 0. -1.
         -5    1    4    4    0  502  0.46667251417E+02 -0.58563593249E+02  0.17090747169E+03  0.18665203103E+03  0.47000000000E+01 0. -1.
<mgrwt>
<rscale>  0 0.10001116E+04</rscale>
<asrwt>0</asrwt>
<pdfrwt beam="1">  1        2 0.18497761E+00 0.10001116E+04</pdfrwt>
<pdfrwt beam="2">  1       -2 0.31995662E-01 0.10001116E+04</pdfrwt>
<totfact> 0.20657683E+02</totfact>
</mgrwt>
</event>
<event>
 9    1  0.4497870E-036  0.9987349E+03  0.7818608E-02  0.8682244E-01
          1   -1    0    0  501    0  0.00000000000E+00  0.00000000000E+00  0.45687206252E+03  0.45687206252E+03  0.00000000000E+00 0.  1.
         -1   -1    0    0    0  501 -0.00000000000E+00 -0.00000000000E+00 -0.54581548979E+03  0.54581548979E+03  0.00000000000E+00 0.  1.
         36    2    1    2    0    0  0.00000000000E+00  0.00000000000E+00 -0.88943427268E+02  0.10026875523E+04  0.99873489690E+03 0.  0.
         25    2    3    3    0    0  0.57532864622E+02 -0.50077396777E+01 -0.14500135844E+03  0.19959033194E+03  0.12440176320E+03 0.  0.
         35    2    3    3    0    0 -0.57532864622E+02  0.50077396777E+01  0.56057931174E+02  0.80309722036E+03  0.79905415695E+03 0.  0.
         22    1    5    5    0    0  0.13117045396E+03  0.27974501352E+03  0.26725270970E+03  0.40851801848E+03  0.00000000000E+00 0. -1.
         22    1    5    5    0    0 -0.18870331858E+03 -0.27473727384E+03 -0.21119477853E+03  0.39457920188E+03  0.00000000000E+00 0. -1.
          5    1    4    4  502    0  0.55842344360E+02 -0.36109242156E+02 -0.18441844234E+02  0.69169620582E+02  0.47000000000E+01 0.  1.
         -5    1    4    4    0  502  0.16905202613E+01  0.31101502478E+02 -0.12655951421E+03  0.13042071136E+03  0.47000000000E+01 0.  1.
<mgrwt>
<rscale>  0 0.99873490E+03</rscale>
<asrwt>0</asrwt>
<pdfrwt beam="1">  1        1 0.70288010E-01 0.99873490E+03</pdfrwt>
<pdfrwt beam="2">  1       -1 0.83971613E-01 0.99873490E+03</pdfrwt>
<totfact> 0.83600991E+01</totfact>
</mgrwt>
</event>
<event>
 9    1  0.4497870E-036  0.9987333E+03  0.7818608E-02  0.8682245E-01
          1   -1    0    0  501    0  0.00000000000E+00  0.00000000000E+00  0.85839548831E+03  0.85839548831E+03  0.00000000000E+00 0. -1.
         -1   -1    0    0    0  501 -0.00000000000E+00 -0.00000000000E+00 -0.29050368259E+03  0.29050368259E+03  0.00000000000E+00 0. -1.
         36    2    1    2    0    0 -0.28421709430E-13  0.00000000000E+00  0.56789180572E+03  0.11488991709E+04  0.99873329869E+03 0.  0.
         25    2    3    3    0    0  0.90237129094E+02 -0.38379249189E+02  0.21894069063E+03  0.27040349182E+03  0.12476905121E+03 0.  0.
         35    2    3    3    0    0 -0.90237129094E+02  0.38379249189E+02  0.34895111508E+03  0.87849567908E+03  0.80023251072E+03 0.  0.
         22    1    5    5    0    0 -0.43058234980E+03  0.12224728139E+03  0.13364648014E+03  0.46712625640E+03  0.00000000000E+00 0.  1.
         22    1    5    5    0    0  0.34034522071E+03 -0.83868032199E+02  0.21530463495E+03  0.41136942268E+03  0.00000000000E+00 0.  1.
          5    1    4    4  502    0  0.99503548304E+02 -0.15867275174E+02  0.78569028981E+02  0.12785894127E+03  0.47000000000E+01 0. -1.
         -5    1    4    4    0  502 -0.92664192101E+01 -0.22511974015E+02  0.14037166165E+03  0.14254455056E+03  0.47000000000E+01 0. -1.
<mgrwt>
<rscale>  0 0.99873330E+03</rscale>
<asrwt>0</asrwt>
<pdfrwt beam="1">  1        1 0.13206084E+00 0.99873330E+03</pdfrwt>
<pdfrwt beam="2">  1       -1 0.44692875E-01 0.99873330E+03</pdfrwt>
<totfact> 0.11070710E+02</totfact>
</mgrwt>
</event>
<event>
 9    1  0.4497870E-036  0.1000095E+04  0.7818608E-02  0.8680948E-01
         -2   -1    0    0    0  501 -0.00000000000E+00  0.00000000000E+00  0.93461165683E+03  0.93461165683E+03  0.00000000000E+00 0. -1.
          2   -1    0    0  501    0  0.00000000000E+00 -0.00000000000E+00 -0.26754141073E+03  0.26754141073E+03  0.00000000000E+00 0. -1.
         36    2    1    2    0    0 -0.39079850467E-13  0.00000000000E+00  0.66707024610E+03  0.12021530676E+04  0.10000946378E+04 0.  0.
         25    2    3    3    0    0 -0.10799717948E+02  0.90692931528E+02  0.25384046140E+03  0.29729608811E+03  0.12493255152E+03 0.  0.
         35    2    3    3    0    0  0.10799717948E+02 -0.90692931528E+02  0.41322978470E+03  0.90485697945E+03  0.79979088301E+03 0.  0.
         22    1    5    5    0    0 -0.37073682842E+03  0.78266851768E+02  0.13021109253E+03  0.40065749045E+03  0.00000000000E+00 0.  1.
         22    1    5    5    0    0  0.38153654637E+03 -0.16895978330E+03  0.28301869217E+03  0.50419948900E+03  0.00000000000E+00 0.  1.
          5    1    4    4  502    0  0.27888413495E+02  0.42330405981E+02  0.22148940468E+03  0.22726476467E+03  0.47000000000E+01 0. -1.
         -5    1    4    4    0  502 -0.38688131443E+02  0.48362525548E+02  0.32351056718E+02  0.70031323439E+02  0.47000000000E+01 0. -1.
<mgrwt>
<rscale>  0 0.10000946E+04</rscale>
<asrwt>0</asrwt>
<pdfrwt beam="1">  1        2 0.41160218E-01 0.10000946E+04</pdfrwt>
<pdfrwt beam="2">  1       -2 0.14378641E+00 0.10000946E+04</pdfrwt>
<totfact> 0.47590891E+01</totfact>
</mgrwt>
</event>
<event>
 9    1  0.4497870E-036  0.9999349E+03  0.7818608E-02  0.8681100E-01
         -2   -1    0    0    0  501 -0.00000000000E+00  0.00000000000E+00  0.13942956195E+03  0.13942956195E+03  0.00000000000E+00 0. -1.
          2   -1    0    0  501    0  0.00000000000E+00 -0.00000000000E+00 -0.17927866038E+04  0.17927866038E+04  0.00000000000E+00 0. -1.
         36    2    1    2    0    0 -0.14210854715E-13  0.30198066270E-13 -0.16533570418E+04  0.19322161657E+04  0.99993489955E+03 0.  0.
         25    2    3    3    0    0  0.12318653570E+03 -0.98302662434E+01 -0.44273065244E+03  0.47638688773E+03  0.12514982813E+03 0.  0.
         35    2    3    3    0    0 -0.12318653570E+03  0.98302662434E+01 -0.12106263894E+04  0.14558292780E+04  0.79909390892E+03 0.  0.
         22    1    5    5    0    0 -0.72366178706E+02  0.33945851526E+03 -0.22090396804E+03  0.41142132966E+03  0.00000000000E+00 0.  1.
         22    1    5    5    0    0 -0.50820356989E+02 -0.32962824902E+03 -0.98972242135E+03  0.10444079483E+04  0.00000000000E+00 0.  1.
          5    1    4    4  502    0  0.28112631892E+02 -0.10634614855E+02 -0.81394079561E+01  0.31492142939E+02  0.47000000000E+01 0.  1.
         -5    1    4    4    0  502  0.95073903803E+02  0.80434861134E+00 -0.43459124448E+03  0.44489474479E+03  0.47000000000E+01 0.  1.
<mgrwt>
<rscale>  0 0.99993490E+03</rscale>
<asrwt>0</asrwt>
<pdfrwt beam="1">  1        2 0.27581333E+00 0.99993490E+03</pdfrwt>
<pdfrwt beam="2">  1       -2 0.21450701E-01 0.99993490E+03</pdfrwt>
<totfact> 0.19450122E+02</totfact>
</mgrwt>
</event>
<event>
 9    1  0.4497870E-036  0.9998751E+03  0.7818608E-02  0.8681157E-01
         -2   -1    0    0    0  501 -0.00000000000E+00  0.00000000000E+00  0.30879855735E+03  0.30879855735E+03  0.00000000000E+00 0.  1.
          2   -1    0    0  501    0  0.00000000000E+00 -0.00000000000E+00 -0.80938700201E+03  0.80938700201E+03  0.00000000000E+00 0.  1.
         36    2    1    2    0    0  0.00000000000E+00  0.00000000000E+00 -0.50058844466E+03  0.11181855594E+04  0.99987506930E+03 0.  0.
         25    2    3    3    0    0  0.63894906201E+02  0.97231216275E+02 -0.65675342965E+01  0.17198488952E+03  0.12648794907E+03 0.  0.
         35    2    3    3    0    0 -0.63894906201E+02 -0.97231216275E+02 -0.49402091036E+03  0.94620066983E+03  0.79856282111E+03 0.  0.
         22    1    5    5    0    0 -0.41228292242E+02 -0.37532985119E+03 -0.54454000713E+03  0.66264325895E+03  0.00000000000E+00 0.  1.
         22    1    5    5    0    0 -0.22666613960E+02  0.27809863491E+03  0.50519096763E+02  0.28355741088E+03  0.00000000000E+00 0.  1.
          5    1    4    4  502    0  0.27897271652E+02 -0.28966115379E+02 -0.33944470114E+01  0.40631341059E+02  0.47000000000E+01 0. -1.
         -5    1    4    4    0  502  0.35997634550E+02  0.12619733165E+03 -0.31730872851E+01  0.13135354846E+03  0.47000000000E+01 0. -1.
<mgrwt>
<rscale>  0 0.99987507E+03</rscale>
<asrwt>0</asrwt>
<pdfrwt beam="1">  1        2 0.12452108E+00 0.99987507E+03</pdfrwt>
<pdfrwt beam="2">  1       -2 0.47507470E-01 0.99987507E+03</pdfrwt>
<totfact> 0.17234059E+02</totfact>
</mgrwt>
</event>
<event>
 9    1  0.4497870E-036  0.9986848E+03  0.7818608E-02  0.8682291E-01
          2   -1    0    0  501    0  0.00000000000E+00  0.00000000000E+00  0.11779121710E+04  0.11779121710E+04  0.00000000000E+00 0. -1.
         -2   -1    0    0    0  501 -0.00000000000E+00 -0.00000000000E+00 -0.21168200803E+03  0.21168200803E+03  0.00000000000E+00 0. -1.
         36    2    1    2    0    0 -0.14210854715E-13 -0.28421709430E-13  0.96623016300E+03  0.13895941791E+04  0.99868476237E+03 0.  0.
         25    2    3    3    0    0 -0.56927927371E+02  0.47254993189E+02  0.17318578873E+02  0.14649354549E+03  0.12524616720E+03 0.  0.
         35    2    3    3    0    0  0.56927927371E+02 -0.47254993189E+02  0.94891158413E+03  0.12431006336E+04  0.79962001439E+03 0.  0.
         22    1    5    5    0    0  0.26379503357E+03 -0.31056422272E+03  0.27802467424E+03  0.49329066042E+03  0.00000000000E+00 0.  1.
         22    1    5    5    0    0 -0.20686710620E+03  0.26330922953E+03  0.67088690989E+03  0.74980997315E+03  0.00000000000E+00 0.  1.
          5    1    4    4  502    0 -0.66673634525E+02 -0.14731237713E+02  0.40391867020E+02  0.79473113861E+02  0.47000000000E+01 0.  1.
         -5    1    4    4    0  502  0.97457071540E+01  0.61986230902E+02 -0.23073288148E+02  0.67020431626E+02  0.47000000000E+01 0.  1.
<mgrwt>
<rscale>  0 0.99868476E+03</rscale>
<asrwt>0</asrwt>
<pdfrwt beam="1">  1        2 0.18121725E+00 0.99868476E+03</pdfrwt>
<pdfrwt beam="2">  1       -2 0.32566463E-01 0.99868476E+03</pdfrwt>
<totfact> 0.20673939E+02</totfact>
</mgrwt>
</event>
<event>
 9    1  0.4497870E-036  0.1000414E+04  0.7818608E-02  0.8680644E-01
          2   -1    0    0  501    0  0.00000000000E+00  0.00000000000E+00  0.87775319241E+03  0.87775319241E+03  0.00000000000E+00 0. -1.
         -2   -1    0    0    0  501 -0.00000000000E+00 -0.00000000000E+00 -0.28505394927E+03  0.28505394927E+03  0.00000000000E+00 0. -1.
         36    2    1    2    0    0  0.14210854715E-13 -0.49737991503E-13  0.59269924314E+03  0.11628071417E+04  0.10004139423E+04 0.  0.
         25    2    3    3    0    0 -0.66683774171E+02 -0.13650729512E+01 -0.32165230506E+02  0.14537760574E+03  0.12510578339E+03 0.  0.
         35    2    3    3    0    0  0.66683774171E+02  0.13650729512E+01  0.62486447365E+03  0.10174295359E+04  0.80016164680E+03 0.  0.
         22    1    5    5    0    0  0.26104671168E+03 -0.31405075827E+03  0.45021049529E+03  0.60783447954E+03  0.00000000000E+00 0.  1.
         22    1    5    5    0    0 -0.19436293751E+03  0.31541583123E+03  0.17465397836E+03  0.40959505639E+03  0.00000000000E+00 0.  1.
          5    1    4    4  502    0 -0.57122408672E+02 -0.50866192922E+02  0.12759031169E+02  0.77686691468E+02  0.47000000000E+01 0.  1.
         -5    1    4    4    0  502 -0.95613654985E+01  0.49501119971E+02 -0.44924261674E+02  0.67690914276E+02  0.47000000000E+01 0.  1.
<mgrwt>
<rscale>  0 0.10004139E+04</rscale>
<asrwt>0</asrwt>
<pdfrwt beam="1">  1        2 0.13503895E+00 0.10004139E+04</pdfrwt>
<pdfrwt beam="2">  1       -2 0.43854454E-01 0.10004139E+04</pdfrwt>
<totfact> 0.18115845E+02</totfact>
</mgrwt>
</event>
<event>
 9    1  0.4497870E-036  0.9974679E+03  0.7818608E-02  0.8683453E-01
          2   -1    0    0  501    0  0.00000000000E+00  0.00000000000E+00  0.13291072930E+04  0.13291072930E+04  0.00000000000E+00 0. -1.
         -2   -1    0    0    0  501 -0.00000000000E+00 -0.00000000000E+00 -0.18714484207E+03  0.18714484207E+03  0.00000000000E+00 0. -1.
         36    2    1    2    0    0 -0.14210854715E-13  0.14210854715E-13  0.11419624510E+04  0.15162521351E+04  0.99746794323E+03 0.  0.
         25    2    3    3    0    0 -0.87041461015E+02 -0.96284920840E+02  0.15275539917E+03  0.23623148215E+03  0.12499639701E+03 0.  0.
         35    2    3    3    0    0  0.87041461015E+02  0.96284920840E+02  0.98920705180E+03  0.12800206530E+04  0.80191974582E+03 0.  0.
         22    1    5    5    0    0 -0.13496497530E+03  0.26719879467E+03  0.95130573914E+03  0.99729301098E+03  0.00000000000E+00 0.  1.
         22    1    5    5    0    0  0.22200643632E+03 -0.17091387383E+03  0.37901312663E+02  0.28272764197E+03  0.00000000000E+00 0.  1.
          5    1    4    4  502    0 -0.12990332968E+02 -0.16715411955E+02  0.12095206811E+03  0.12288061900E+03  0.47000000000E+01 0. -1.
         -5    1    4    4    0  502 -0.74051128047E+02 -0.79569508884E+02  0.31803331065E+02  0.11335086315E+03  0.47000000000E+01 0. -1.
<mgrwt>
<rscale>  0 0.99746794E+03</rscale>
<asrwt>0</asrwt>
<pdfrwt beam="1">  1        2 0.20447804E+00 0.99746794E+03</pdfrwt>
<pdfrwt beam="2">  1       -2 0.28791515E-01 0.99746794E+03</pdfrwt>
<totfact> 0.21124230E+02</totfact>
</mgrwt>
</event>
<event>
 9    1  0.4497870E-036  0.9995741E+03  0.7818608E-02  0.8681444E-01
         -1   -1    0    0    0  501 -0.00000000000E+00  0.00000000000E+00  0.10814829002E+04  0.10814829002E+04  0.00000000000E+00 0.  1.
          1   -1    0    0  501    0  0.00000000000E+00 -0.00000000000E+00 -0.23096719764E+03  0.23096719764E+03  0.00000000000E+00 0.  1.
         36    2    1    2    0    0  0.00000000000E+00 -0.14210854715E-13  0.85051570252E+03  0.13124500978E+04  0.99957405878E+03 0.  0.
         25    2    3    3    0    0 -0.13944801478E+03 -0.42514525219E+01  0.17385839042E+03  0.25544084200E+03  0.12473756518E+03 0.  0.
         35    2    3    3    0    0  0.13944801478E+03  0.42514525219E+01  0.67665731210E+03  0.10570092558E+04  0.79996226484E+03 0.  0.
         22    1    5    5    0    0  0.38571963997E+02 -0.37154543931E+03  0.51371934109E+03  0.63517034825E+03  0.00000000000E+00 0. -1.
         22    1    5    5    0    0  0.10087605078E+03  0.37579689183E+03  0.16293797101E+03  0.42183890756E+03  0.00000000000E+00 0. -1.
          5    1    4    4  502    0 -0.15049043789E+03 -0.24528369585E+02  0.11200552393E+03  0.18925205468E+03  0.47000000000E+01 0. -1.
         -5    1    4    4    0  502  0.11042423107E+02  0.20276917063E+02  0.61852866491E+02  0.66188787320E+02  0.47000000000E+01 0. -1.
<mgrwt>
<rscale>  0 0.99957406E+03</rscale>
<asrwt>0</asrwt>
<pdfrwt beam="1">  1        1 0.35533416E-01 0.99957406E+03</pdfrwt>
<pdfrwt beam="2">  1       -1 0.16638198E+00 0.99957406E+03</pdfrwt>
<totfact> 0.36833910E+01</totfact>
</mgrwt>
</event>
<event>
 9    1  0.4497870E-036  0.9972376E+03  0.7818608E-02  0.8683673E-01
          2   -1    0    0  501    0  0.00000000000E+00  0.00000000000E+00  0.12211378839E+04  0.12211378839E+04  0.00000000000E+00 0.  1.
         -2   -1    0    0    0  501 -0.00000000000E+00 -0.00000000000E+00 -0.20359756721E+03  0.20359756721E+03  0.00000000000E+00 0.  1.
         36    2    1    2    0    0  0.71054273576E-14  0.28421709430E-13  0.10175403167E+04  0.14247354511E+04  0.99723758932E+03 0.  0.
         25    2    3    3    0    0  0.51522976444E+02 -0.86872694755E+02  0.57033208897E+02  0.17059160941E+03  0.12508888075E+03 0.  0.
         35    2    3    3    0    0 -0.51522976444E+02  0.86872694755E+02  0.96050710779E+03  0.12541438417E+04  0.80006336584E+03 0.  0.
         22    1    5    5    0    0  0.28708817871E+03  0.27618494413E+03  0.34716968994E+03  0.52841701272E+03  0.00000000000E+00 0.  1.
         22    1    5    5    0    0 -0.33861115516E+03 -0.18931224937E+03  0.61333741785E+03  0.72572682897E+03  0.00000000000E+00 0.  1.
          5    1    4    4  502    0  0.71703995450E+02 -0.22177967989E+02 -0.91409595480E+01  0.75756005498E+02  0.47000000000E+01 0. -1.
         -5    1    4    4    0  502 -0.20181019006E+02 -0.64694726766E+02  0.66174168445E+02  0.94835603909E+02  0.47000000000E+01 0. -1.
<mgrwt>
<rscale>  0 0.99723759E+03</rscale>
<asrwt>0</asrwt>
<pdfrwt beam="1">  1        2 0.18786736E+00 0.99723759E+03</pdfrwt>
<pdfrwt beam="2">  1       -2 0.31322703E-01 0.99723759E+03</pdfrwt>
<totfact> 0.20939550E+02</totfact>
</mgrwt>
</event>
<event>
 9    1  0.4497870E-036  0.9997265E+03  0.7818608E-02  0.8681298E-01
          1   -1    0    0  501    0  0.00000000000E+00  0.00000000000E+00  0.64809921579E+03  0.64809921579E+03  0.00000000000E+00 0.  1.
         -1   -1    0    0    0  501 -0.00000000000E+00 -0.00000000000E+00 -0.38553243398E+03  0.38553243398E+03  0.00000000000E+00 0.  1.
         36    2    1    2    0    0  0.00000000000E+00 -0.14210854715E-13  0.26256678181E+03  0.10336316498E+04  0.99972649885E+03 0.  0.
         25    2    3    3    0    0 -0.11451288043E+03 -0.63506101985E+02  0.55041700137E+01  0.18310763943E+03  0.12787449690E+03 0.  0.
         35    2    3    3    0    0  0.11451288043E+03  0.63506101985E+02  0.25706261180E+03  0.85052401034E+03  0.80010229409E+03 0.  0.
         22    1    5    5    0    0  0.43825883184E+03  0.79370486435E+02  0.14403482570E+02  0.44562084569E+03  0.00000000000E+00 0. -1.
         22    1    5    5    0    0 -0.32374595141E+03 -0.15864384450E+02  0.24265912923E+03  0.40490316466E+03  0.00000000000E+00 0. -1.
          5    1    4    4  502    0 -0.64474872182E+02 -0.58288366159E+02 -0.56005746318E+02  0.10350495830E+03  0.47000000000E+01 0. -1.
         -5    1    4    4    0  502 -0.50038008243E+02 -0.52177358266E+01  0.61509916332E+02  0.79602681131E+02  0.47000000000E+01 0. -1.
<mgrwt>
<rscale>  0 0.99972650E+03</rscale>
<asrwt>0</asrwt>
<pdfrwt beam="1">  1        1 0.99707572E-01 0.99972650E+03</pdfrwt>
<pdfrwt beam="2">  1       -1 0.59312682E-01 0.99972650E+03</pdfrwt>
<totfact> 0.10195196E+02</totfact>
</mgrwt>
</event>
<event>
 9    1  0.4497870E-036  0.1000196E+04  0.7818608E-02  0.8680851E-01
         -2   -1    0    0    0  501 -0.00000000000E+00  0.00000000000E+00  0.37088825896E+03  0.37088825896E+03  0.00000000000E+00 0. -1.
          2   -1    0    0  501    0  0.00000000000E+00 -0.00000000000E+00 -0.67432231854E+03  0.67432231854E+03  0.00000000000E+00 0. -1.
         36    2    1    2    0    0 -0.14210854715E-13  0.00000000000E+00 -0.30343405958E+03  0.10452105775E+04  0.10001964421E+04 0.  0.
         25    2    3    3    0    0 -0.37783719729E+02  0.13317714969E+03 -0.32019314945E+02  0.18922714161E+03  0.12497164445E+03 0.  0.
         35    2    3    3    0    0  0.37783719729E+02 -0.13317714969E+03 -0.27141474464E+03  0.85598343589E+03  0.79992369401E+03 0.  0.
         22    1    5    5    0    0  0.22977736349E+03  0.22569045215E+03  0.64251522565E+02  0.32842362144E+03  0.00000000000E+00 0. -1.
         22    1    5    5    0    0 -0.19199364376E+03 -0.35886760184E+03 -0.33566626720E+03  0.52755981446E+03  0.00000000000E+00 0. -1.
          5    1    4    4  502    0  0.21315638460E+02  0.22085861590E+02 -0.53139681152E+02  0.61547196834E+02  0.47000000000E+01 0.  1.
         -5    1    4    4    0  502 -0.59099358190E+02  0.11109128810E+03  0.21120366207E+02  0.12767994478E+03  0.47000000000E+01 0.  1.
<mgrwt>
<rscale>  0 0.10001964E+04</rscale>
<asrwt>0</asrwt>
<pdfrwt beam="1">  1        2 0.10374189E+00 0.10001964E+04</pdfrwt>
<pdfrwt beam="2">  1       -2 0.57059733E-01 0.10001964E+04</pdfrwt>
<totfact> 0.14963523E+02</totfact>
</mgrwt>
</event>
<event>
 9    1  0.4497870E-036  0.1000223E+04  0.7818608E-02  0.8680826E-01
          2   -1    0    0  501    0  0.00000000000E+00  0.00000000000E+00  0.19254388855E+03  0.19254388855E+03  0.00000000000E+00 0. -1.
         -2   -1    0    0    0  501 -0.00000000000E+00 -0.00000000000E+00 -0.12989840843E+04  0.12989840843E+04  0.00000000000E+00 0. -1.
         36    2    1    2    0    0  0.14210854715E-13 -0.14210854715E-13 -0.11064401958E+04  0.14915279729E+04  0.10002228687E+04 0.  0.
         25    2    3    3    0    0 -0.81398639593E+02  0.10744342181E+03 -0.14846736112E+03  0.23638089890E+03  0.12515408356E+03 0.  0.
         35    2    3    3    0    0  0.81398639593E+02 -0.10744342181E+03 -0.95797283467E+03  0.12551470740E+04  0.79969519066E+03 0.  0.
         22    1    5    5    0    0  0.64806836915E+02  0.11207802424E+03  0.10681351324E+03  0.16784080624E+03  0.00000000000E+00 0.  1.
         22    1    5    5    0    0  0.16591802678E+02 -0.21952144605E+03 -0.10647863479E+04  0.10873062677E+04  0.00000000000E+00 0.  1.
          5    1    4    4  502    0 -0.69192052158E+01 -0.26975131261E+02 -0.11569321279E+02  0.30520031163E+02  0.47000000000E+01 0.  1.
         -5    1    4    4    0  502 -0.74479434377E+02  0.13441855307E+03 -0.13689803984E+03  0.20586086774E+03  0.47000000000E+01 0.  1.
<mgrwt>
<rscale>  0 0.10002229E+04</rscale>
<asrwt>0</asrwt>
<pdfrwt beam="1">  1        2 0.29622136E-01 0.10002229E+04</pdfrwt>
<pdfrwt beam="2">  1       -2 0.19984371E+00 0.10002229E+04</pdfrwt>
<totfact> 0.26232557E+01</totfact>
</mgrwt>
</event>
<event>
 9    1  0.4497870E-036  0.9997510E+03  0.7818608E-02  0.8681275E-01
         -1   -1    0    0    0  501 -0.00000000000E+00  0.00000000000E+00  0.32325069598E+03  0.32325069598E+03  0.00000000000E+00 0.  1.
          1   -1    0    0  501    0  0.00000000000E+00 -0.00000000000E+00 -0.77300844147E+03  0.77300844147E+03  0.00000000000E+00 0.  1.
         36    2    1    2    0    0 -0.71054273576E-14  0.00000000000E+00 -0.44975774549E+03  0.10962591374E+04  0.99975100240E+03 0.  0.
         25    2    3    3    0    0  0.46516433877E+02  0.13166015147E+03 -0.12190096198E+03  0.22111162469E+03  0.12055012210E+03 0.  0.
         35    2    3    3    0    0 -0.46516433877E+02 -0.13166015147E+03 -0.32785678352E+03  0.87514751275E+03  0.79930902940E+03 0.  0.
         22    1    5    5    0    0 -0.50761381230E+02 -0.39060117019E+03  0.70365665032E+02  0.40012163000E+03  0.00000000000E+00 0.  1.
         22    1    5    5    0    0  0.42449473528E+01  0.25894101873E+03 -0.39822244855E+03  0.47502588275E+03  0.00000000000E+00 0.  1.
          5    1    4    4  502    0  0.23033323891E+02  0.46921451420E+02 -0.12226547468E+03  0.13305297032E+03  0.47000000000E+01 0. -1.
         -5    1    4    4    0  502  0.23483109986E+02  0.84738700046E+02  0.36451270427E+00  0.88058654371E+02  0.47000000000E+01 0. -1.
<mgrwt>
<rscale>  0 0.99975100E+03</rscale>
<asrwt>0</asrwt>
<pdfrwt beam="1">  1        1 0.11892437E+00 0.99975100E+03</pdfrwt>
<pdfrwt beam="2">  1       -1 0.49730877E-01 0.99975100E+03</pdfrwt>
<totfact> 0.10814169E+02</totfact>
</mgrwt>
</event>
<event>
 9    1  0.4497870E-036  0.1000202E+04  0.7818608E-02  0.8680846E-01
         -1   -1    0    0    0  501 -0.00000000000E+00  0.00000000000E+00  0.22779761881E+03  0.22779761881E+03  0.00000000000E+00 0.  1.
          1   -1    0    0  501    0  0.00000000000E+00 -0.00000000000E+00 -0.10979087622E+04  0.10979087622E+04  0.00000000000E+00 0.  1.
         36    2    1    2    0    0 -0.14210854715E-13  0.88817841970E-15 -0.87011114337E+03  0.13257063810E+04  0.10002019830E+04 0.  0.
         25    2    3    3    0    0 -0.12485869753E+03 -0.68386238053E+01 -0.26026973609E+03  0.31368857083E+03  0.12257129689E+03 0.  0.
         35    2    3    3    0    0  0.12485869753E+03  0.68386238053E+01 -0.60984140727E+03  0.10120178102E+04  0.79789538469E+03 0.  0.
         22    1    5    5    0    0 -0.32625303179E+03  0.90132000101E+02 -0.17997199194E+03  0.38334675697E+03  0.00000000000E+00 0. -1.
         22    1    5    5    0    0  0.45111172933E+03 -0.83293376295E+02 -0.42986941534E+03  0.62867105319E+03  0.00000000000E+00 0. -1.
          5    1    4    4  502    0 -0.35065226985E+02  0.38171639542E+01  0.25829032289E+01  0.35677756001E+02  0.47000000000E+01 0.  1.
         -5    1    4    4    0  502 -0.89793470549E+02 -0.10655787760E+02 -0.26285263932E+03  0.27801081483E+03  0.47000000000E+01 0.  1.
<mgrwt>
<rscale>  0 0.10002020E+04</rscale>
<asrwt>0</asrwt>
<pdfrwt beam="1">  1        1 0.16890904E+00 0.10002020E+04</pdfrwt>
<pdfrwt beam="2">  1       -1 0.35045787E-01 0.10002020E+04</pdfrwt>
<totfact> 0.10943177E+02</totfact>
</mgrwt>
</event>
<event>
 9    1  0.4497870E-036  0.1000667E+04  0.7818608E-02  0.8680403E-01
          2   -1    0    0  501    0  0.00000000000E+00  0.00000000000E+00  0.11476715489E+04  0.11476715489E+04  0.00000000000E+00 0. -1.
         -2   -1    0    0    0  501 -0.00000000000E+00 -0.00000000000E+00 -0.21812303503E+03  0.21812303503E+03  0.00000000000E+00 0. -1.
         36    2    1    2    0    0  0.14210854715E-13 -0.71054273576E-14  0.92954851384E+03  0.13657945839E+04  0.10006669805E+04 0.  0.
         25    2    3    3    0    0 -0.31457527114E+01  0.56022904745E+02  0.35210728646E+03  0.37781388495E+03  0.12496130948E+03 0.  0.
         35    2    3    3    0    0  0.31457527114E+01 -0.56022904745E+02  0.57744122738E+03  0.98798069895E+03  0.79969933650E+03 0.  0.
         22    1    5    5    0    0  0.21283339150E+03 -0.12638339953E+03  0.69481429083E+03  0.73758912340E+03  0.00000000000E+00 0. -1.
         22    1    5    5    0    0 -0.20968763878E+03  0.70360494783E+02 -0.11737306345E+03  0.25039157555E+03  0.00000000000E+00 0. -1.
          5    1    4    4  502    0 -0.49826399324E+02  0.71748584586E+02  0.22180274078E+03  0.23843044117E+03  0.47000000000E+01 0.  1.
         -5    1    4    4    0  502  0.46680646612E+02 -0.15725679841E+02  0.13030454568E+03  0.13938344378E+03  0.47000000000E+01 0.  1.
<mgrwt>
<rscale>  0 0.10006670E+04</rscale>
<asrwt>0</asrwt>
<pdfrwt beam="1">  1        2 0.17656485E+00 0.10006670E+04</pdfrwt>
<pdfrwt beam="2">  1       -2 0.33557391E-01 0.10006670E+04</pdfrwt>
<totfact> 0.20388508E+02</totfact>
</mgrwt>
</event>
<event>
 9    1  0.4497870E-036  0.9997324E+03  0.7818608E-02  0.8681293E-01
         -2   -1    0    0    0  501 -0.00000000000E+00  0.00000000000E+00  0.73945684580E+02  0.73945684580E+02  0.00000000000E+00 0.  1.
          2   -1    0    0  501    0  0.00000000000E+00 -0.00000000000E+00 -0.33790509228E+04  0.33790509228E+04  0.00000000000E+00 0.  1.
         36    2    1    2    0    0  0.71054273576E-14  0.00000000000E+00 -0.33051052382E+04  0.34529966074E+04  0.99973243164E+03 0.  0.
         25    2    3    3    0    0  0.61590644644E+01  0.58037383931E+02 -0.10535758606E+04  0.10626511490E+04  0.12569446531E+03 0.  0.
         35    2    3    3    0    0 -0.61590644644E+01 -0.58037383931E+02 -0.22515293777E+04  0.23903454584E+04  0.80060014970E+03 0.  0.
         22    1    5    5    0    0  0.36570861935E+03  0.99533857276E+01 -0.15590533196E+04  0.16014022348E+04  0.00000000000E+00 0. -1.
         22    1    5    5    0    0 -0.37186768382E+03 -0.67990769658E+02 -0.69247605807E+03  0.78894322358E+03  0.00000000000E+00 0. -1.
          5    1    4    4  502    0 -0.28228814659E+02 -0.44877723571E+00 -0.57238276917E+02  0.63995138272E+02  0.47000000000E+01 0. -1.
         -5    1    4    4    0  502  0.34387879124E+02  0.58486161166E+02 -0.99633758364E+03  0.99865601077E+03  0.47000000000E+01 0. -1.
<mgrwt>
<rscale>  0 0.99973243E+03</rscale>
<asrwt>0</asrwt>
<pdfrwt beam="1">  1        2 0.51985399E+00 0.99973243E+03</pdfrwt>
<pdfrwt beam="2">  1       -2 0.11376259E-01 0.99973243E+03</pdfrwt>
<totfact> 0.57530155E+01</totfact>
</mgrwt>
</event>
<event>
 9    1  0.4497870E-036  0.9996378E+03  0.7818608E-02  0.8681383E-01
          2   -1    0    0  501    0  0.00000000000E+00  0.00000000000E+00  0.12225353537E+04  0.12225353537E+04  0.00000000000E+00 0.  1.
         -2   -1    0    0    0  501 -0.00000000000E+00 -0.00000000000E+00 -0.20434494360E+03  0.20434494360E+03  0.00000000000E+00 0.  1.
         36    2    1    2    0    0 -0.14210854715E-13  0.00000000000E+00  0.10181904101E+04  0.14268802973E+04  0.99963777018E+03 0.  0.
         25    2    3    3    0    0 -0.36272845797E+02 -0.11561807809E+03  0.87349684083E+02  0.19423481335E+03  0.12415287384E+03 0.  0.
         35    2    3    3    0    0  0.36272845797E+02  0.11561807809E+03  0.93084072600E+03  0.12326454839E+04  0.79891624877E+03 0.  0.
         22    1    5    5    0    0 -0.16498300972E+03 -0.30219202724E+03  0.39512673958E+03  0.52408449238E+03  0.00000000000E+00 0. -1.
         22    1    5    5    0    0  0.20125585552E+03  0.41781010533E+03  0.53571398642E+03  0.70856099155E+03  0.00000000000E+00 0. -1.
          5    1    4    4  502    0 -0.69416702969E+02 -0.59484737738E+02  0.90605548025E+02  0.12879661489E+03  0.47000000000E+01 0. -1.
         -5    1    4    4    0  502  0.33143857172E+02 -0.56133340347E+02 -0.32558639422E+01  0.65438198453E+02  0.47000000000E+01 0. -1.
<mgrwt>
<rscale>  0 0.99963777E+03</rscale>
<asrwt>0</asrwt>
<pdfrwt beam="1">  1        2 0.18808236E+00 0.99963777E+03</pdfrwt>
<pdfrwt beam="2">  1       -2 0.31437684E-01 0.99963777E+03</pdfrwt>
<totfact> 0.20759780E+02</totfact>
</mgrwt>
</event>
<event>
 9    1  0.4497870E-036  0.9994178E+03  0.7818608E-02  0.8681593E-01
         -1   -1    0    0    0  501 -0.00000000000E+00  0.00000000000E+00  0.13175709922E+03  0.13175709922E+03  0.00000000000E+00 0.  1.
          1   -1    0    0  501    0  0.00000000000E+00 -0.00000000000E+00 -0.18952223240E+04  0.18952223240E+04  0.00000000000E+00 0.  1.
         36    2    1    2    0    0  0.00000000000E+00 -0.28421709430E-13 -0.17634652248E+04  0.20269794232E+04  0.99941782211E+03 0.  0.
         25    2    3    3    0    0 -0.93311902654E+02  0.43513559617E+02 -0.52316909302E+03  0.54757571341E+03  0.12463033734E+03 0.  0.
         35    2    3    3    0    0  0.93311902654E+02 -0.43513559617E+02 -0.12402961318E+04  0.14794037098E+04  0.79981266624E+03 0.  0.
         22    1    5    5    0    0 -0.93129670242E+02 -0.31219207389E+03 -0.10536344113E+04  0.11028519843E+04  0.00000000000E+00 0. -1.
         22    1    5    5    0    0  0.18644157290E+03  0.26867851427E+03 -0.18666172045E+03  0.37655172556E+03  0.00000000000E+00 0. -1.
          5    1    4    4  502    0  0.29876480792E+02  0.31396442925E+01 -0.72745714873E+02  0.78844724003E+02  0.47000000000E+01 0. -1.
         -5    1    4    4    0  502 -0.12318838345E+03  0.40373915324E+02 -0.45042337815E+03  0.46873098941E+03  0.47000000000E+01 0. -1.
<mgrwt>
<rscale>  0 0.99941782E+03</rscale>
<asrwt>0</asrwt>
<pdfrwt beam="1">  1        1 0.29157265E+00 0.99941782E+03</pdfrwt>
<pdfrwt beam="2">  1       -1 0.20270324E-01 0.99941782E+03</pdfrwt>
<totfact> 0.73778470E+01</totfact>
</mgrwt>
</event>
<event>
 9    1  0.4497870E-036  0.9993954E+03  0.7818608E-02  0.8681614E-01
          2   -1    0    0  501    0  0.00000000000E+00  0.00000000000E+00  0.34947836685E+04  0.34947836685E+04  0.00000000000E+00 0.  1.
         -2   -1    0    0    0  501 -0.00000000000E+00 -0.00000000000E+00 -0.71448713216E+02  0.71448713216E+02  0.00000000000E+00 0.  1.
         36    2    1    2    0    0  0.21316282073E-13 -0.14210854715E-13  0.34233349553E+04  0.35662323817E+04  0.99939540941E+03 0.  0.
         25    2    3    3    0    0 -0.97685164655E+01 -0.77420303829E+02  0.10481620710E+04  0.10583810622E+04  0.12424740797E+03 0.  0.
         35    2    3    3    0    0  0.97685164655E+01  0.77420303829E+02  0.23751728844E+04  0.25078513196E+04  0.80111340221E+03 0.  0.
         22    1    5    5    0    0  0.32518044076E+03  0.22798274826E+03  0.78521439660E+03  0.87993187304E+03  0.00000000000E+00 0.  1.
         22    1    5    5    0    0 -0.31541192430E+03 -0.15056244443E+03  0.15899584878E+04  0.16279194465E+04  0.00000000000E+00 0.  1.
          5    1    4    4  502    0 -0.30357758394E+01 -0.10991357650E+03  0.88465699328E+03  0.89147646968E+03  0.47000000000E+01 0. -1.
         -5    1    4    4    0  502 -0.67327406261E+01  0.32493272667E+02  0.16350507767E+03  0.16690459247E+03  0.47000000000E+01 0. -1.
<mgrwt>
<rscale>  0 0.99939541E+03</rscale>
<asrwt>0</asrwt>
<pdfrwt beam="1">  1        2 0.53765889E+00 0.99939541E+03</pdfrwt>
<pdfrwt beam="2">  1       -2 0.10992112E-01 0.99939541E+03</pdfrwt>
<totfact> 0.49921677E+01</totfact>
</mgrwt>
</event>
<event>
 9    1  0.4497870E-036  0.9858534E+03  0.7818608E-02  0.8694628E-01
         -1   -1    0    0    0  501 -0.00000000000E+00  0.00000000000E+00  0.21016791283E+03  0.21016791283E+03  0.00000000000E+00 0.  1.
          1   -1    0    0  501    0  0.00000000000E+00 -0.00000000000E+00 -0.11561076626E+04  0.11561076626E+04  0.00000000000E+00 0.  1.
         36    2    1    2    0    0 -0.35527136788E-14  0.00000000000E+00 -0.94593974982E+03  0.13662755755E+04  0.98585340587E+03 0.  0.
         25    2    3    3    0    0 -0.27048570953E+02 -0.91501903841E+02 -0.28266462789E+03  0.32343706167E+03  0.12493205117E+03 0.  0.
         35    2    3    3    0    0  0.27048570953E+02  0.91501903841E+02 -0.66327512193E+03  0.10428385138E+04  0.79904571515E+03 0.  0.
         22    1    5    5    0    0 -0.30241110182E+03 -0.15497367536E+03 -0.49021103490E+03  0.59646975891E+03  0.00000000000E+00 0.  1.
         22    1    5    5    0    0  0.32945967277E+03  0.24647557920E+03 -0.17306408704E+03  0.44636875490E+03  0.00000000000E+00 0.  1.
          5    1    4    4  502    0 -0.21632832351E+02  0.19060020615E+02 -0.13887144498E+03  0.14191064813E+03  0.47000000000E+01 0. -1.
         -5    1    4    4    0  502 -0.54157386014E+01 -0.11056192446E+03 -0.14379318290E+03  0.18152641354E+03  0.47000000000E+01 0. -1.
<mgrwt>
<rscale>  0 0.98585341E+03</rscale>
<asrwt>0</asrwt>
<pdfrwt beam="1">  1        1 0.17786272E+00 0.98585341E+03</pdfrwt>
<pdfrwt beam="2">  1       -1 0.32333525E-01 0.98585341E+03</pdfrwt>
<totfact> 0.11379418E+02</totfact>
</mgrwt>
</event>
<event>
 9    1  0.4497870E-036  0.9994359E+03  0.7818608E-02  0.8681575E-01
         -3   -1    0    0    0  501 -0.00000000000E+00  0.00000000000E+00  0.16354312637E+03  0.16354312637E+03  0.00000000000E+00 0.  1.
          3   -1    0    0  501    0  0.00000000000E+00 -0.00000000000E+00 -0.15269245569E+04  0.15269245569E+04  0.00000000000E+00 0.  1.
         36    2    1    2    0    0  0.00000000000E+00 -0.35527136788E-13 -0.13633814305E+04  0.16904676833E+04  0.99943587243E+03 0.  0.
         25    2    3    3    0    0  0.47892864306E+02  0.45186325767E+02 -0.48437357609E+02  0.14951955668E+03  0.12519740304E+03 0.  0.
         35    2    3    3    0    0 -0.47892864306E+02 -0.45186325767E+02 -0.13149440729E+04  0.15409481266E+04  0.80069200288E+03 0.  0.
         22    1    5    5    0    0 -0.25096625785E+03  0.28566423632E+03 -0.87599881473E+03  0.95496703707E+03  0.00000000000E+00 0. -1.
         22    1    5    5    0    0  0.20307339354E+03 -0.33085056209E+03 -0.43894525821E+03  0.58598108954E+03  0.00000000000E+00 0. -1.
          5    1    4    4  502    0  0.87845749072E+01 -0.24009791946E+02 -0.63383558302E+02  0.68506965548E+02  0.47000000000E+01 0.  1.
         -5    1    4    4    0  502  0.39108289399E+02  0.69196117712E+02  0.14946200693E+02  0.81012591128E+02  0.47000000000E+01 0.  1.
<mgrwt>
<rscale>  0 0.99943587E+03</rscale>
<asrwt>0</asrwt>
<pdfrwt beam="1">  1        3 0.23491148E+00 0.99943587E+03</pdfrwt>
<pdfrwt beam="2">  1       -3 0.25160480E-01 0.99943587E+03</pdfrwt>
<totfact> 0.53978797E+00</totfact>
</mgrwt>
</event>
<event>
 9    1  0.4497870E-036  0.9997677E+03  0.7818608E-02  0.8681259E-01
          1   -1    0    0  501    0  0.00000000000E+00  0.00000000000E+00  0.11732454561E+04  0.11732454561E+04  0.00000000000E+00 0. -1.
         -1   -1    0    0    0  501 -0.00000000000E+00 -0.00000000000E+00 -0.21298514790E+03  0.21298514790E+03  0.00000000000E+00 0. -1.
         36    2    1    2    0    0  0.14210854715E-13  0.00000000000E+00  0.96026030819E+03  0.13862306040E+04  0.99976768699E+03 0.  0.
         25    2    3    3    0    0  0.82051314276E+02 -0.10264944680E+03  0.93874622584E+02  0.20126218942E+03  0.12010286017E+03 0.  0.
         35    2    3    3    0    0 -0.82051314276E+02  0.10264944680E+03  0.86638568561E+03  0.11849684146E+04  0.79765698154E+03 0.  0.
         22    1    5    5    0    0 -0.31577075038E+03  0.13005773711E+03  0.88530366975E+03  0.94888817542E+03  0.00000000000E+00 0. -1.
         22    1    5    5    0    0  0.23371943610E+03 -0.27408290311E+02 -0.18917984147E+02  0.23608023915E+03  0.00000000000E+00 0. -1.
          5    1    4    4  502    0  0.34541719555E+02 -0.72987561480E+02 -0.11633091891E+02  0.81717399295E+02  0.47000000000E+01 0.  1.
         -5    1    4    4    0  502  0.47509594722E+02 -0.29661885321E+02  0.10550771447E+03  0.11954479012E+03  0.47000000000E+01 0.  1.
<mgrwt>
<rscale>  0 0.99976769E+03</rscale>
<asrwt>0</asrwt>
<pdfrwt beam="1">  1        1 0.18049930E+00 0.99976769E+03</pdfrwt>
<pdfrwt beam="2">  1       -1 0.32766946E-01 0.99976769E+03</pdfrwt>
<totfact> 0.10781577E+02</totfact>
</mgrwt>
</event>
<event>
 9    1  0.4497870E-036  0.1000546E+04  0.7818608E-02  0.8680518E-01
          1   -1    0    0  501    0  0.00000000000E+00  0.00000000000E+00  0.22145219539E+04  0.22145219539E+04  0.00000000000E+00 0. -1.
         -1   -1    0    0    0  501 -0.00000000000E+00 -0.00000000000E+00 -0.11301450276E+03  0.11301450276E+03  0.00000000000E+00 0. -1.
         36    2    1    2    0    0 -0.28421709430E-13 -0.71054273576E-14  0.21015074512E+04  0.23275364567E+04  0.10005460458E+04 0.  0.
         25    2    3    3    0    0 -0.85405576009E+02 -0.57654110930E+02  0.61690848692E+03  0.63779217306E+03  0.12483855924E+03 0.  0.
         35    2    3    3    0    0  0.85405576009E+02  0.57654110930E+02  0.14845989643E+04  0.16897442836E+04  0.80036463592E+03 0.  0.
         22    1    5    5    0    0 -0.35213656220E+03  0.10324733089E+03  0.66204078367E+03  0.75694000358E+03  0.00000000000E+00 0. -1.
         22    1    5    5    0    0  0.43754213821E+03 -0.45593219962E+02  0.82255818058E+03  0.93280428004E+03  0.00000000000E+00 0. -1.
          5    1    4    4  502    0 -0.44459065228E+02 -0.87711532584E+02  0.50900867479E+03  0.51844174450E+03  0.47000000000E+01 0. -1.
         -5    1    4    4    0  502 -0.40946510781E+02  0.30057421654E+02  0.10789981212E+03  0.11935042856E+03  0.47000000000E+01 0. -1.
<mgrwt>
<rscale>  0 0.10005460E+04</rscale>
<asrwt>0</asrwt>
<pdfrwt beam="1">  1        1 0.34069565E+00 0.10005460E+04</pdfrwt>
<pdfrwt beam="2">  1       -1 0.17386848E-01 0.10005460E+04</pdfrwt>
<totfact> 0.56691052E+01</totfact>
</mgrwt>
</event>
<event>
 9    1  0.4497870E-036  0.1000499E+04  0.7818608E-02  0.8680563E-01
         -2   -1    0    0    0  501 -0.00000000000E+00  0.00000000000E+00  0.58976664422E+03  0.58976664422E+03  0.00000000000E+00 0.  1.
          2   -1    0    0  501    0  0.00000000000E+00 -0.00000000000E+00 -0.42431996381E+03  0.42431996381E+03  0.00000000000E+00 0.  1.
         36    2    1    2    0    0 -0.14210854715E-13 -0.28421709430E-13  0.16544668041E+03  0.10140866080E+04  0.10004993976E+04 0.  0.
         25    2    3    3    0    0  0.58058751873E+02  0.12188058410E+03  0.70360148133E+02  0.19697832012E+03  0.12499685077E+03 0.  0.
         35    2    3    3    0    0 -0.58058751873E+02 -0.12188058410E+03  0.95086532275E+02  0.81710828790E+03  0.80024921749E+03 0.  0.
         22    1    5    5    0    0  0.74315962992E+02 -0.43286516598E+03 -0.63502491184E+02  0.44376534414E+03  0.00000000000E+00 0. -1.
         22    1    5    5    0    0 -0.13237471487E+03  0.31098458187E+03  0.15858902346E+03  0.37334294377E+03  0.00000000000E+00 0. -1.
          5    1    4    4  502    0 -0.15220044756E+02  0.10135939268E+03  0.17207334231E+02  0.10403633306E+03  0.47000000000E+01 0.  1.
         -5    1    4    4    0  502  0.73278796629E+02  0.20521191429E+02  0.53152813901E+02  0.92941987060E+02  0.47000000000E+01 0.  1.
<mgrwt>
<rscale>  0 0.10004994E+04</rscale>
<asrwt>0</asrwt>
<pdfrwt beam="1">  1        2 0.65279994E-01 0.10004994E+04</pdfrwt>
<pdfrwt beam="2">  1       -2 0.90733330E-01 0.10004994E+04</pdfrwt>
<totfact> 0.92152146E+01</totfact>
</mgrwt>
</event>
<event>
 9    1  0.4497870E-036  0.1000484E+04  0.7818608E-02  0.8680577E-01
         -2   -1    0    0    0  501 -0.00000000000E+00  0.00000000000E+00  0.32094141502E+03  0.32094141502E+03  0.00000000000E+00 0.  1.
          2   -1    0    0  501    0  0.00000000000E+00 -0.00000000000E+00 -0.77971298906E+03  0.77971298906E+03  0.00000000000E+00 0.  1.
         36    2    1    2    0    0  0.14210854715E-13  0.28421709430E-13 -0.45877157404E+03  0.11006544041E+04  0.10004842628E+04 0.  0.
         25    2    3    3    0    0 -0.17527190297E+02  0.14479926580E+03 -0.67129608984E+02  0.20037334161E+03  0.11987102174E+03 0.  0.
         35    2    3    3    0    0  0.17527190297E+02 -0.14479926580E+03 -0.39164196506E+03  0.90028106247E+03  0.79740111165E+03 0.  0.
         22    1    5    5    0    0 -0.38200875744E+03 -0.54831249461E+02 -0.27685415365E+03  0.47495829192E+03  0.00000000000E+00 0. -1.
         22    1    5    5    0    0  0.39953594773E+03 -0.89968016337E+02 -0.11478781141E+03  0.42532277054E+03  0.00000000000E+00 0. -1.
          5    1    4    4  502    0 -0.25248406134E+02  0.24162378019E+02 -0.71067050785E+02  0.79334218539E+02  0.47000000000E+01 0. -1.
         -5    1    4    4    0  502  0.77212158370E+01  0.12063688778E+03  0.39374418009E+01  0.12103912308E+03  0.47000000000E+01 0. -1.
<mgrwt>
<rscale>  0 0.10004843E+04</rscale>
<asrwt>0</asrwt>
<pdfrwt beam="1">  1        2 0.11995584E+00 0.10004843E+04</pdfrwt>
<pdfrwt beam="2">  1       -2 0.49375603E-01 0.10004843E+04</pdfrwt>
<totfact> 0.16748770E+02</totfact>
</mgrwt>
</event>
<event>
 9    1  0.4497870E-036  0.1002108E+04  0.7818608E-02  0.8679033E-01
         -2   -1    0    0    0  501 -0.00000000000E+00  0.00000000000E+00  0.30059714262E+03  0.30059714262E+03  0.00000000000E+00 0. -1.
          2   -1    0    0  501    0  0.00000000000E+00 -0.00000000000E+00 -0.83518731246E+03  0.83518731246E+03  0.00000000000E+00 0. -1.
         36    2    1    2    0    0  0.14210854715E-13  0.00000000000E+00 -0.53459016985E+03  0.11357844551E+04  0.10021076183E+04 0.  0.
         25    2    3    3    0    0 -0.11160782433E+03 -0.68103211573E+02 -0.35672766111E+02  0.18430871521E+03  0.12491117798E+03 0.  0.
         35    2    3    3    0    0  0.11160782433E+03  0.68103211573E+02 -0.49891740374E+03  0.95147573987E+03  0.79955809916E+03 0.  0.
         22    1    5    5    0    0 -0.45654568432E+02  0.16692731541E+03  0.17876044685E+03  0.24880587937E+03  0.00000000000E+00 0. -1.
         22    1    5    5    0    0  0.15726239276E+03 -0.98824103840E+02 -0.67767785059E+03  0.70266986050E+03  0.00000000000E+00 0. -1.
          5    1    4    4  502    0 -0.11294847037E+02 -0.34353867727E+02 -0.64869170357E+02  0.74416806302E+02  0.47000000000E+01 0. -1.
         -5    1    4    4    0  502 -0.10031297729E+03 -0.33749343847E+02  0.29196404246E+02  0.10989190891E+03  0.47000000000E+01 0. -1.
<mgrwt>
<rscale>  0 0.10021076E+04</rscale>
<asrwt>0</asrwt>
<pdfrwt beam="1">  1        2 0.12849036E+00 0.10021076E+04</pdfrwt>
<pdfrwt beam="2">  1       -2 0.46245714E-01 0.10021076E+04</pdfrwt>
<totfact> 0.17443638E+02</totfact>
</mgrwt>
</event>
<event>
 9    1  0.4497870E-036  0.1000726E+04  0.7818608E-02  0.8680347E-01
          1   -1    0    0  501    0  0.00000000000E+00  0.00000000000E+00  0.19901719144E+04  0.19901719144E+04  0.00000000000E+00 0. -1.
         -1   -1    0    0    0  501 -0.00000000000E+00 -0.00000000000E+00 -0.12579980744E+03  0.12579980744E+03  0.00000000000E+00 0. -1.
         36    2    1    2    0    0 -0.14210854715E-13 -0.28421709430E-13  0.18643721070E+04  0.21159717219E+04  0.10007262235E+04 0.  0.
         25    2    3    3    0    0  0.95826592928E+02  0.10259560654E+03  0.33483121267E+03  0.38418742479E+03  0.12561624893E+03 0.  0.
         35    2    3    3    0    0 -0.95826592928E+02 -0.10259560654E+03  0.15295408943E+04  0.17317842971E+04  0.79992056470E+03 0.  0.
         22    1    5    5    0    0 -0.27361746556E+02  0.19877841385E+03  0.32612723546E+02  0.20328579076E+03  0.00000000000E+00 0.  1.
         22    1    5    5    0    0 -0.68464846372E+02 -0.30137402039E+03  0.14969281708E+04  0.15284985063E+04  0.00000000000E+00 0.  1.
          5    1    4    4  502    0  0.11068235623E+03  0.93359776698E+02  0.33613589049E+03  0.36602740166E+03  0.47000000000E+01 0.  1.
         -5    1    4    4    0  502 -0.14855763301E+02  0.92358298388E+01 -0.13046778201E+01  0.18160023135E+02  0.47000000000E+01 0.  1.
<mgrwt>
<rscale>  0 0.10007262E+04</rscale>
<asrwt>0</asrwt>
<pdfrwt beam="1">  1        1 0.30618027E+00 0.10007262E+04</pdfrwt>
<pdfrwt beam="2">  1       -1 0.19353818E-01 0.10007262E+04</pdfrwt>
<totfact> 0.68315158E+01</totfact>
</mgrwt>
</event>
<event>
 9    1  0.4497870E-036  0.9992997E+03  0.7818608E-02  0.8681705E-01
          2   -1    0    0  501    0  0.00000000000E+00  0.00000000000E+00  0.29391051661E+04  0.29391051661E+04  0.00000000000E+00 0.  1.
         -2   -1    0    0    0  501 -0.00000000000E+00 -0.00000000000E+00 -0.84940804819E+02  0.84940804819E+02  0.00000000000E+00 0.  1.
         36    2    1    2    0    0 -0.35527136788E-14  0.00000000000E+00  0.28541643613E+04  0.30240459709E+04  0.99929967129E+03 0.  0.
         25    2    3    3    0    0 -0.24323036433E+02  0.79551670198E+02  0.19615199862E+03  0.24687842259E+03  0.12471275253E+03 0.  0.
         35    2    3    3    0    0  0.24323036433E+02 -0.79551670198E+02  0.26580123627E+04  0.27771675484E+04  0.80044349778E+03 0.  0.
         22    1    5    5    0    0  0.31547073702E+03  0.10806423601E+02  0.22269119359E+04  0.22491721444E+04  0.00000000000E+00 0.  1.
         22    1    5    5    0    0 -0.29114770058E+03 -0.90358093798E+02  0.43110042679E+03  0.52799540400E+03  0.00000000000E+00 0.  1.
          5    1    4    4  502    0 -0.13217973190E+02  0.93653593658E+02  0.20537614462E+03  0.22615738149E+03  0.47000000000E+01 0. -1.
         -5    1    4    4    0  502 -0.11105063243E+02 -0.14101923460E+02 -0.92241460010E+01  0.20721041102E+02  0.47000000000E+01 0. -1.
<mgrwt>
<rscale>  0 0.99929967E+03</rscale>
<asrwt>0</asrwt>
<pdfrwt beam="1">  1        2 0.45216995E+00 0.99929967E+03</pdfrwt>
<pdfrwt beam="2">  1       -2 0.13067818E-01 0.99929967E+03</pdfrwt>
<totfact> 0.92421765E+01</totfact>
</mgrwt>
</event>
<event>
 9    1  0.4497870E-036  0.1002373E+04  0.7818608E-02  0.8678782E-01
         -2   -1    0    0    0  501 -0.00000000000E+00  0.00000000000E+00  0.13735272291E+03  0.13735272291E+03  0.00000000000E+00 0. -1.
          2   -1    0    0  501    0  0.00000000000E+00 -0.00000000000E+00 -0.18287787349E+04  0.18287787349E+04  0.00000000000E+00 0. -1.
         36    2    1    2    0    0  0.00000000000E+00  0.71054273576E-14 -0.16914260119E+04  0.19661314578E+04  0.10023726629E+04 0.  0.
         25    2    3    3    0    0 -0.13600081992E+03  0.28486816909E+02 -0.26494084591E+03  0.32410920654E+03  0.12468121018E+03 0.  0.
         35    2    3    3    0    0  0.13600081992E+03 -0.28486816909E+02 -0.14264851660E+04  0.16420222512E+04  0.80129234544E+03 0.  0.
         22    1    5    5    0    0  0.43137677334E+03  0.60170835333E+02 -0.48769411755E+03  0.65387460747E+03  0.00000000000E+00 0. -1.
         22    1    5    5    0    0 -0.29537595342E+03 -0.88657652241E+02 -0.93879104848E+03  0.98814764376E+03  0.00000000000E+00 0. -1.
          5    1    4    4  502    0 -0.89471462613E+02 -0.66794970521E+01 -0.24711647867E+03  0.26294182310E+03  0.47000000000E+01 0. -1.
         -5    1    4    4    0  502 -0.46529357308E+02  0.35166313961E+02 -0.17824367238E+02  0.61167383437E+02  0.47000000000E+01 0. -1.
<mgrwt>
<rscale>  0 0.10023727E+04</rscale>
<asrwt>0</asrwt>
<pdfrwt beam="1">  1        2 0.28135056E+00 0.10023727E+04</pdfrwt>
<pdfrwt beam="2">  1       -2 0.21131189E-01 0.10023727E+04</pdfrwt>
<totfact> 0.19052763E+02</totfact>
</mgrwt>
</event>
<event>
 9    1  0.4497870E-036  0.1000375E+04  0.7818608E-02  0.8680681E-01
          1   -1    0    0  501    0  0.00000000000E+00  0.00000000000E+00  0.33924105499E+03  0.33924105499E+03  0.00000000000E+00 0. -1.
         -1   -1    0    0    0  501 -0.00000000000E+00 -0.00000000000E+00 -0.73749173619E+03  0.73749173619E+03  0.00000000000E+00 0. -1.
         36    2    1    2    0    0  0.00000000000E+00 -0.71054273576E-14 -0.39825068120E+03  0.10767327912E+04  0.10003748790E+04 0.  0.
         25    2    3    3    0    0 -0.72834092712E+02 -0.41593358057E+02  0.45155602302E+02  0.15749364903E+03  0.12542092556E+03 0.  0.
         35    2    3    3    0    0  0.72834092712E+02  0.41593358057E+02 -0.44340628350E+03  0.91923914216E+03  0.80084746097E+03 0.  0.
         22    1    5    5    0    0 -0.19077920984E+02 -0.13139294687E+03  0.20369107869E+03  0.24314219933E+03  0.00000000000E+00 0. -1.
         22    1    5    5    0    0  0.91912013696E+02  0.17298630492E+03 -0.64709736219E+03  0.67609694283E+03  0.00000000000E+00 0. -1.
          5    1    4    4  502    0 -0.21381750351E+01  0.12268277941E+02 -0.35170305956E+02  0.37604824919E+02  0.47000000000E+01 0. -1.
         -5    1    4    4    0  502 -0.70695917677E+02 -0.53861635998E+02  0.80325908258E+02  0.11988882411E+03  0.47000000000E+01 0. -1.
<mgrwt>
<rscale>  0 0.10003749E+04</rscale>
<asrwt>0</asrwt>
<pdfrwt beam="1">  1        1 0.52190932E-01 0.10003749E+04</pdfrwt>
<pdfrwt beam="2">  1       -1 0.11346027E+00 0.10003749E+04</pdfrwt>
<totfact> 0.63644801E+01</totfact>
</mgrwt>
</event>
<event>
 9    1  0.4497870E-036  0.1000205E+04  0.7818608E-02  0.8680843E-01
          2   -1    0    0  501    0  0.00000000000E+00  0.00000000000E+00  0.63127341277E+03  0.63127341277E+03  0.00000000000E+00 0.  1.
         -2   -1    0    0    0  501 -0.00000000000E+00 -0.00000000000E+00 -0.39618693360E+03  0.39618693360E+03  0.00000000000E+00 0.  1.
         36    2    1    2    0    0  0.28421709430E-13  0.42632564146E-13  0.23508647917E+03  0.10274603464E+04  0.10002045344E+04 0.  0.
         25    2    3    3    0    0 -0.11734457229E+03 -0.63450471139E+01 -0.34884332955E+02  0.17487418187E+03  0.12471589526E+03 0.  0.
         35    2    3    3    0    0  0.11734457229E+03  0.63450471139E+01  0.26997081213E+03  0.85258616450E+03  0.80013056449E+03 0.  0.
         22    1    5    5    0    0  0.11646350223E+03  0.30187410884E+03 -0.13554752445E+03  0.35080600954E+03  0.00000000000E+00 0. -1.
         22    1    5    5    0    0  0.88107006106E+00 -0.29552906173E+03  0.40551833658E+03  0.50178015496E+03  0.00000000000E+00 0. -1.
          5    1    4    4  502    0 -0.13069094650E+02 -0.52545205251E+02 -0.26367916693E+02  0.60408251593E+02  0.47000000000E+01 0.  1.
         -5    1    4    4    0  502 -0.10427547764E+03  0.46200158137E+02 -0.85164162620E+01  0.11446593028E+03  0.47000000000E+01 0.  1.
<mgrwt>
<rscale>  0 0.10002045E+04</rscale>
<asrwt>0</asrwt>
<pdfrwt beam="1">  1        2 0.97118987E-01 0.10002045E+04</pdfrwt>
<pdfrwt beam="2">  1       -2 0.60951836E-01 0.10002045E+04</pdfrwt>
<totfact> 0.14128030E+02</totfact>
</mgrwt>
</event>
<event>
 9    1  0.4497870E-036  0.9936314E+03  0.7818608E-02  0.8687127E-01
          2   -1    0    0  501    0  0.00000000000E+00  0.00000000000E+00  0.85722982884E+03  0.85722982884E+03  0.00000000000E+00 0. -1.
         -2   -1    0    0    0  501 -0.00000000000E+00 -0.00000000000E+00 -0.28793424400E+03  0.28793424400E+03  0.00000000000E+00 0. -1.
         36    2    1    2    0    0 -0.14210854715E-13  0.00000000000E+00  0.56929558484E+03  0.11451640728E+04  0.99363136565E+03 0.  0.
         25    2    3    3    0    0 -0.10079257664E+03  0.81506929705E+02  0.67908064586E+02  0.19251260550E+03  0.12508826860E+03 0.  0.
         35    2    3    3    0    0  0.10079257664E+03 -0.81506929705E+02  0.50138752026E+03  0.95265146734E+03  0.79959542874E+03 0.  0.
         22    1    5    5    0    0  0.16218492129E+03 -0.36326221162E+03  0.53019492579E+03  0.66284993960E+03  0.00000000000E+00 0.  1.
         22    1    5    5    0    0 -0.61392344646E+02  0.28175528192E+03 -0.28807405540E+02  0.28980152774E+03  0.00000000000E+00 0.  1.
          5    1    4    4  502    0 -0.54250716467E+02 -0.24379259150E+02  0.44451631150E+02  0.74401115756E+02  0.47000000000E+01 0.  1.
         -5    1    4    4    0  502 -0.46541860177E+02  0.10588618885E+03  0.23456433436E+02  0.11811148974E+03  0.47000000000E+01 0.  1.
<mgrwt>
<rscale>  0 0.99363137E+03</rscale>
<asrwt>0</asrwt>
<pdfrwt beam="1">  1        2 0.13188151E+00 0.99363137E+03</pdfrwt>
<pdfrwt beam="2">  1       -2 0.44297576E-01 0.99363137E+03</pdfrwt>
<totfact> 0.18338275E+02</totfact>
</mgrwt>
</event>
<event>
 9    1  0.4497870E-036  0.9980576E+03  0.7818608E-02  0.8682890E-01
          2   -1    0    0  501    0  0.00000000000E+00  0.00000000000E+00  0.14932513732E+04  0.14932513732E+04  0.00000000000E+00 0. -1.
         -2   -1    0    0    0  501 -0.00000000000E+00 -0.00000000000E+00 -0.16677014357E+03  0.16677014357E+03  0.00000000000E+00 0. -1.
         36    2    1    2    0    0  0.00000000000E+00  0.00000000000E+00  0.13264812296E+04  0.16600215168E+04  0.99805760533E+03 0.  0.
         25    2    3    3    0    0  0.12890646771E+03 -0.29912274669E+02  0.18330591705E+03  0.25834715830E+03  0.12502229154E+03 0.  0.
         35    2    3    3    0    0 -0.12890646771E+03  0.29912274669E+02  0.11431753126E+04  0.14016743585E+04  0.80020596743E+03 0.  0.
         22    1    5    5    0    0  0.33946808443E+03 -0.11534983991E+02  0.51742323142E+03  0.61894946208E+03  0.00000000000E+00 0. -1.
         22    1    5    5    0    0 -0.46837455214E+03  0.41447258660E+02  0.62575208117E+03  0.78272489639E+03  0.00000000000E+00 0. -1.
          5    1    4    4  502    0  0.12905193463E+03  0.14330086660E+02  0.16553730481E+03  0.21043869060E+03  0.47000000000E+01 0. -1.
         -5    1    4    4    0  502 -0.14546692438E+00 -0.44242361329E+02  0.17768612242E+02  0.47908467703E+02  0.47000000000E+01 0. -1.
<mgrwt>
<rscale>  0 0.99805761E+03</rscale>
<asrwt>0</asrwt>
<pdfrwt beam="1">  1        2 0.22973097E+00 0.99805761E+03</pdfrwt>
<pdfrwt beam="2">  1       -2 0.25656946E-01 0.99805761E+03</pdfrwt>
<totfact> 0.20938564E+02</totfact>
</mgrwt>
</event>
<event>
 9    1  0.4497870E-036  0.9993097E+03  0.7818608E-02  0.8681696E-01
         -2   -1    0    0    0  501 -0.00000000000E+00  0.00000000000E+00  0.87229985748E+02  0.87229985748E+02  0.00000000000E+00 0.  1.
          2   -1    0    0  501    0  0.00000000000E+00 -0.00000000000E+00 -0.28620317279E+04  0.28620317279E+04  0.00000000000E+00 0.  1.
         36    2    1    2    0    0  0.42632564146E-13  0.00000000000E+00 -0.27748017421E+04  0.29492617136E+04  0.99930973543E+03 0.  0.
         25    2    3    3    0    0  0.41776830445E+02 -0.13368676695E+03 -0.52720994594E+03  0.55965151463E+03  0.12506812347E+03 0.  0.
         35    2    3    3    0    0 -0.41776830445E+02  0.13368676695E+03 -0.22475917962E+04  0.23896101990E+04  0.79934383442E+03 0.  0.
         22    1    5    5    0    0  0.37869656517E+03  0.72651992442E+02 -0.11298519393E+04  0.11938403600E+04  0.00000000000E+00 0. -1.
         22    1    5    5    0    0 -0.42047339562E+03  0.61034774509E+02 -0.11177398569E+04  0.11957698390E+04  0.00000000000E+00 0. -1.
          5    1    4    4  502    0  0.20004897589E+02 -0.78289072721E+02 -0.47013825133E+03  0.47705496560E+03  0.47000000000E+01 0. -1.
         -5    1    4    4    0  502  0.21771932856E+02 -0.55397694230E+02 -0.57071694602E+02  0.82596549026E+02  0.47000000000E+01 0. -1.
<mgrwt>
<rscale>  0 0.99930974E+03</rscale>
<asrwt>0</asrwt>
<pdfrwt beam="1">  1        2 0.44031248E+00 0.99930974E+03</pdfrwt>
<pdfrwt beam="2">  1       -2 0.13420001E-01 0.99930974E+03</pdfrwt>
<totfact> 0.99319597E+01</totfact>
</mgrwt>
</event>
<event>
 9    1  0.4497870E-036  0.9996976E+03  0.7818608E-02  0.8681326E-01
          1   -1    0    0  501    0  0.00000000000E+00  0.00000000000E+00  0.32044043469E+04  0.32044043469E+04  0.00000000000E+00 0.  1.
         -1   -1    0    0    0  501 -0.00000000000E+00 -0.00000000000E+00 -0.77970438568E+02  0.77970438568E+02  0.00000000000E+00 0.  1.
         36    2    1    2    0    0  0.28421709430E-13  0.00000000000E+00  0.31264339083E+04  0.32823747855E+04  0.99969757883E+03 0.  0.
         25    2    3    3    0    0 -0.11074285296E+03  0.17218545896E+02  0.78776968372E+03  0.80561139486E+03  0.12596899280E+03 0.  0.
         35    2    3    3    0    0  0.11074285296E+03 -0.17218545896E+02  0.23386642246E+04  0.24767633906E+04  0.80774134458E+03 0.  0.
         22    1    5    5    0    0  0.36788648061E+03 -0.25591933834E+03  0.10601142721E+04  0.11509463238E+04  0.00000000000E+00 0.  1.
         22    1    5    5    0    0 -0.25714362765E+03  0.23870079244E+03  0.12785499525E+04  0.13258170668E+04  0.00000000000E+00 0.  1.
          5    1    4    4  502    0 -0.46344043044E+02 -0.52802208289E+02  0.26271371541E+03  0.27198608381E+03  0.47000000000E+01 0. -1.
         -5    1    4    4    0  502 -0.64398809917E+02  0.70020754185E+02  0.52505596831E+03  0.53362531105E+03  0.47000000000E+01 0. -1.
<mgrwt>
<rscale>  0 0.99969758E+03</rscale>
<asrwt>0</asrwt>
<pdfrwt beam="1">  1        1 0.49298518E+00 0.99969758E+03</pdfrwt>
<pdfrwt beam="2">  1       -1 0.11995455E-01 0.99969758E+03</pdfrwt>
<totfact> 0.20315599E+01</totfact>
</mgrwt>
</event>
<event>
 9    1  0.4497870E-036  0.1001736E+04  0.7818608E-02  0.8679386E-01
         -1   -1    0    0    0  501 -0.00000000000E+00  0.00000000000E+00  0.11600148152E+03  0.11600148152E+03  0.00000000000E+00 0.  1.
          1   -1    0    0  501    0  0.00000000000E+00 -0.00000000000E+00 -0.21626349644E+04  0.21626349644E+04  0.00000000000E+00 0.  1.
         36    2    1    2    0    0  0.00000000000E+00 -0.14210854715E-13 -0.20466334829E+04  0.22786364459E+04  0.10017362125E+04 0.  0.
         25    2    3    3    0    0 -0.69762124570E+02 -0.11557122503E+03 -0.27409154082E+03  0.33017503661E+03  0.12516357287E+03 0.  0.
         35    2    3    3    0    0  0.69762124570E+02  0.11557122503E+03 -0.17725419420E+04  0.19484614093E+04  0.79773019568E+03 0.  0.
         22    1    5    5    0    0  0.14286363749E+03  0.29226194513E+03 -0.17195324467E+04  0.17500339708E+04  0.00000000000E+00 0.  1.
         22    1    5    5    0    0 -0.73101512918E+02 -0.17669072010E+03 -0.53009495304E+02  0.19842743851E+03  0.00000000000E+00 0.  1.
          5    1    4    4  502    0 -0.50580217122E+02  0.12941616439E+00 -0.29161588500E+02  0.58573572167E+02  0.47000000000E+01 0.  1.
         -5    1    4    4    0  502 -0.19181907448E+02 -0.11570064119E+03 -0.24492995232E+03  0.27160146445E+03  0.47000000000E+01 0.  1.
<mgrwt>
<rscale>  0 0.10017362E+04</rscale>
<asrwt>0</asrwt>
<pdfrwt beam="1">  1        1 0.33271304E+00 0.10017362E+04</pdfrwt>
<pdfrwt beam="2">  1       -1 0.17846383E-01 0.10017362E+04</pdfrwt>
<totfact> 0.59072633E+01</totfact>
</mgrwt>
</event>
<event>
 9    1  0.4497870E-036  0.1000588E+04  0.7818608E-02  0.8680478E-01
          1   -1    0    0  501    0  0.00000000000E+00  0.00000000000E+00  0.14690165794E+04  0.14690165794E+04  0.00000000000E+00 0. -1.
         -1   -1    0    0    0  501 -0.00000000000E+00 -0.00000000000E+00 -0.17038211352E+03  0.17038211352E+03  0.00000000000E+00 0. -1.
         36    2    1    2    0    0  0.14210854715E-13 -0.28421709430E-13  0.12986344659E+04  0.16393986929E+04  0.10005881262E+04 0.  0.
         25    2    3    3    0    0 -0.75480644681E+02  0.47335843427E+02  0.66060812618E+02  0.16724247542E+03  0.12517190111E+03 0.  0.
         35    2    3    3    0    0  0.75480644681E+02 -0.47335843427E+02  0.12325736533E+04  0.14721562175E+04  0.80004256649E+03 0.  0.
         22    1    5    5    0    0 -0.17573178232E+03 -0.31403467934E+03  0.29427472647E+03  0.46486240307E+03  0.00000000000E+00 0.  1.
         22    1    5    5    0    0  0.25121242700E+03  0.26669883592E+03  0.93829892681E+03  0.10072938144E+04  0.00000000000E+00 0.  1.
          5    1    4    4  502    0 -0.36350378685E+02  0.22958933552E+01  0.94202238465E+02  0.10110772912E+03  0.47000000000E+01 0. -1.
         -5    1    4    4    0  502 -0.39130265996E+02  0.45039950072E+02 -0.28141425848E+02  0.66134746300E+02  0.47000000000E+01 0. -1.
<mgrwt>
<rscale>  0 0.10005881E+04</rscale>
<asrwt>0</asrwt>
<pdfrwt beam="1">  1        1 0.22600254E+00 0.10005881E+04</pdfrwt>
<pdfrwt beam="2">  1       -1 0.26212634E-01 0.10005881E+04</pdfrwt>
<totfact> 0.96012876E+01</totfact>
</mgrwt>
</event>
<event>
 9    1  0.4497870E-036  0.1000181E+04  0.7818608E-02  0.8680865E-01
         -2   -1    0    0    0  501 -0.00000000000E+00  0.00000000000E+00  0.60825973571E+03  0.60825973571E+03  0.00000000000E+00 0. -1.
          2   -1    0    0  501    0  0.00000000000E+00 -0.00000000000E+00 -0.41115755850E+03  0.41115755850E+03  0.00000000000E+00 0. -1.
         36    2    1    2    0    0  0.71054273576E-14  0.00000000000E+00  0.19710217721E+03  0.10194172942E+04  0.10001811593E+04 0.  0.
         25    2    3    3    0    0 -0.20448149857E+02 -0.12268125007E+03  0.90552224864E+02  0.20305325380E+03  0.13252208306E+03 0.  0.
         35    2    3    3    0    0  0.20448149857E+02  0.12268125007E+03  0.10654995235E+03  0.81636404042E+03  0.79976780267E+03 0.  0.
         22    1    5    5    0    0  0.78869712307E+02  0.21899839435E+03  0.42170539767E+03  0.48168056912E+03  0.00000000000E+00 0. -1.
         22    1    5    5    0    0 -0.58421562450E+02 -0.96317144275E+02 -0.31515544532E+03  0.33468347129E+03  0.00000000000E+00 0. -1.
          5    1    4    4  502    0  0.28570959691E+02 -0.79863136436E+02  0.10615183445E+03  0.13595853139E+03  0.47000000000E+01 0.  1.
         -5    1    4    4    0  502 -0.49019109547E+02 -0.42818113636E+02 -0.15599609589E+02  0.67094722412E+02  0.47000000000E+01 0.  1.
<mgrwt>
<rscale>  0 0.10001812E+04</rscale>
<asrwt>0</asrwt>
<pdfrwt beam="1">  1        2 0.63255009E-01 0.10001812E+04</pdfrwt>
<pdfrwt beam="2">  1       -2 0.93578422E-01 0.10001812E+04</pdfrwt>
<totfact> 0.88762763E+01</totfact>
</mgrwt>
</event>
<event>
 9    1  0.4497870E-036  0.1003406E+04  0.7818608E-02  0.8677801E-01
          1   -1    0    0  501    0  0.00000000000E+00  0.00000000000E+00  0.21706202744E+03  0.21706202744E+03  0.00000000000E+00 0. -1.
         -1   -1    0    0    0  501 -0.00000000000E+00 -0.00000000000E+00 -0.11596028863E+04  0.11596028863E+04  0.00000000000E+00 0. -1.
         36    2    1    2    0    0  0.71054273576E-14 -0.14210854715E-13 -0.94254085886E+03  0.13766649137E+04  0.10034057076E+04 0.  0.
         25    2    3    3    0    0 -0.63178697656E+02 -0.83040382598E+02 -0.38675402924E+02  0.16492315610E+03  0.12172348847E+03 0.  0.
         35    2    3    3    0    0  0.63178697656E+02  0.83040382598E+02 -0.90386545593E+03  0.12117417576E+04  0.80028624367E+03 0.  0.
         22    1    5    5    0    0 -0.11450748588E+03  0.36449973563E+03 -0.19573409150E+03  0.42928295584E+03  0.00000000000E+00 0. -1.
         22    1    5    5    0    0  0.17768618354E+03 -0.28145935303E+03 -0.70813136443E+03  0.78245880180E+03  0.00000000000E+00 0. -1.
          5    1    4    4  502    0 -0.63693731055E+02 -0.28217816168E+02 -0.72239998859E+02  0.10046812410E+03  0.47000000000E+01 0.  1.
         -5    1    4    4    0  502  0.51503339884E+00 -0.54822566430E+02  0.33564595935E+02  0.64455031997E+02  0.47000000000E+01 0.  1.
<mgrwt>
<rscale>  0 0.10034057E+04</rscale>
<asrwt>0</asrwt>
<pdfrwt beam="1">  1        1 0.33394159E-01 0.10034057E+04</pdfrwt>
<pdfrwt beam="2">  1       -1 0.17840044E+00 0.10034057E+04</pdfrwt>
<totfact> 0.31660277E+01</totfact>
</mgrwt>
</event>
<event>
 9    1  0.4497870E-036  0.9994130E+03  0.7818608E-02  0.8681597E-01
          2   -1    0    0  501    0  0.00000000000E+00  0.00000000000E+00  0.71828904564E+03  0.71828904564E+03  0.00000000000E+00 0. -1.
         -2   -1    0    0    0  501 -0.00000000000E+00 -0.00000000000E+00 -0.34764079418E+03  0.34764079418E+03  0.00000000000E+00 0. -1.
         36    2    1    2    0    0 -0.42632564146E-13  0.53290705182E-14  0.37064825147E+03  0.10659298398E+04  0.99941297625E+03 0.  0.
         25    2    3    3    0    0  0.46112740517E+02 -0.45297854492E+01  0.20913744175E+03  0.24864431525E+03  0.12624825611E+03 0.  0.
         35    2    3    3    0    0 -0.46112740517E+02  0.45297854492E+01  0.16151080972E+03  0.81728552457E+03  0.79982684577E+03 0.  0.
         22    1    5    5    0    0  0.26709331990E+03 -0.23479709340E+03  0.22091888988E+03  0.41865698669E+03  0.00000000000E+00 0.  1.
         22    1    5    5    0    0 -0.31320606042E+03  0.23932687884E+03 -0.59408080162E+02  0.39862853787E+03  0.00000000000E+00 0.  1.
          5    1    4    4  502    0  0.76855299091E+02  0.69281929544E+01  0.65787132406E+02  0.10151243099E+03  0.47000000000E+01 0. -1.
         -5    1    4    4    0  502 -0.30742558574E+02 -0.11457978404E+02  0.14335030935E+03  0.14713188426E+03  0.47000000000E+01 0. -1.
<mgrwt>
<rscale>  0 0.99941298E+03</rscale>
<asrwt>0</asrwt>
<pdfrwt beam="1">  1        2 0.11050601E+00 0.99941298E+03</pdfrwt>
<pdfrwt beam="2">  1       -2 0.53483199E-01 0.99941298E+03</pdfrwt>
<totfact> 0.15810555E+02</totfact>
</mgrwt>
</event>
<event>
 9    1  0.4497870E-036  0.1000294E+04  0.7818608E-02  0.8680758E-01
          2   -1    0    0  501    0  0.00000000000E+00  0.00000000000E+00  0.21553440946E+04  0.21553440946E+04  0.00000000000E+00 0. -1.
         -2   -1    0    0    0  501 -0.00000000000E+00 -0.00000000000E+00 -0.11605896510E+03  0.11605896510E+03  0.00000000000E+00 0. -1.
         36    2    1    2    0    0  0.00000000000E+00 -0.14210854715E-13  0.20392851295E+04  0.22714030597E+04  0.10002939669E+04 0.  0.
         25    2    3    3    0    0 -0.13606544942E+03  0.34258572093E+02  0.35202882329E+03  0.39892854604E+03  0.12462839215E+03 0.  0.
         35    2    3    3    0    0  0.13606544942E+03 -0.34258572093E+02  0.16872563062E+04  0.18724745136E+04  0.79977465899E+03 0.  0.
         22    1    5    5    0    0  0.38739643080E+03 -0.79465231503E+02  0.40885308304E+03  0.56881592903E+03  0.00000000000E+00 0. -1.
         22    1    5    5    0    0 -0.25133098138E+03  0.45206659411E+02  0.12784032231E+04  0.13036585846E+04  0.00000000000E+00 0. -1.
          5    1    4    4  502    0 -0.29086213293E+02 -0.45455404248E+02  0.10291143675E+03  0.11629727165E+03  0.47000000000E+01 0.  1.
         -5    1    4    4    0  502 -0.10697923612E+03  0.79713976340E+02  0.24911738654E+03  0.28263127439E+03  0.47000000000E+01 0.  1.
<mgrwt>
<rscale>  0 0.10002940E+04</rscale>
<asrwt>0</asrwt>
<pdfrwt beam="1">  1        2 0.33159137E+00 0.10002940E+04</pdfrwt>
<pdfrwt beam="2">  1       -2 0.17855227E-01 0.10002940E+04</pdfrwt>
<totfact> 0.16593209E+02</totfact>
</mgrwt>
</event>
<event>
 9    1  0.4497870E-036  0.1000987E+04  0.7818608E-02  0.8680099E-01
         -2   -1    0    0    0  501 -0.00000000000E+00  0.00000000000E+00  0.21298921067E+03  0.21298921067E+03  0.00000000000E+00 0.  1.
          2   -1    0    0  501    0  0.00000000000E+00 -0.00000000000E+00 -0.11760857140E+04  0.11760857140E+04  0.00000000000E+00 0.  1.
         36    2    1    2    0    0 -0.14210854715E-13 -0.42632564146E-13 -0.96309650335E+03  0.13890749247E+04  0.10009866491E+04 0.  0.
         25    2    3    3    0    0  0.64042770009E+02 -0.10990341017E+03 -0.93305823613E+02  0.20136296721E+03  0.12514324546E+03 0.  0.
         35    2    3    3    0    0 -0.64042770009E+02  0.10990341017E+03 -0.86979067974E+03  0.11877119575E+04  0.79871373560E+03 0.  0.
         22    1    5    5    0    0 -0.18044001378E+03  0.41502481516E+03 -0.65755104693E+03  0.79823403529E+03  0.00000000000E+00 0.  1.
         22    1    5    5    0    0  0.11639724378E+03 -0.30512140499E+03 -0.21223963281E+03  0.38947792220E+03  0.00000000000E+00 0.  1.
          5    1    4    4  502    0  0.33448662600E+02 -0.61941385147E+02 -0.11933106262E+03  0.13862734481E+03  0.47000000000E+01 0. -1.
         -5    1    4    4    0  502  0.30594107408E+02 -0.47962025021E+02  0.26025239004E+02  0.62735622396E+02  0.47000000000E+01 0. -1.
<mgrwt>
<rscale>  0 0.10009866E+04</rscale>
<asrwt>0</asrwt>
<pdfrwt beam="1">  1        2 0.18093627E+00 0.10009866E+04</pdfrwt>
<pdfrwt beam="2">  1       -2 0.32767570E-01 0.10009866E+04</pdfrwt>
<totfact> 0.20491312E+02</totfact>
</mgrwt>
</event>
<event>
 9    1  0.4497870E-036  0.9999516E+03  0.7818608E-02  0.8681084E-01
         -2   -1    0    0    0  501 -0.00000000000E+00  0.00000000000E+00  0.52575087533E+03  0.52575087533E+03  0.00000000000E+00 0.  1.
          2   -1    0    0  501    0  0.00000000000E+00 -0.00000000000E+00 -0.47546431467E+03  0.47546431467E+03  0.00000000000E+00 0.  1.
         36    2    1    2    0    0 -0.14210854715E-13 -0.28421709430E-13  0.50286560655E+02  0.10012151900E+04  0.99995155808E+03 0.  0.
         25    2    3    3    0    0 -0.10348445218E+03 -0.91717592438E+02  0.42371810477E+02  0.18891711497E+03  0.12154487813E+03 0.  0.
         35    2    3    3    0    0  0.10348445218E+03  0.91717592438E+02  0.79147501774E+01  0.81229807503E+03  0.80040263044E+03 0.  0.
         22    1    5    5    0    0  0.54530525086E+02 -0.26857760374E+03 -0.24643415787E+03  0.36856112323E+03  0.00000000000E+00 0.  1.
         22    1    5    5    0    0  0.48953927095E+02  0.36029519618E+03  0.25434890805E+03  0.44373695180E+03  0.00000000000E+00 0.  1.
          5    1    4    4  502    0 -0.93974958221E+01 -0.89246458986E+02  0.21344623147E+02  0.92363013737E+02  0.47000000000E+01 0.  1.
         -5    1    4    4    0  502 -0.94086956359E+02 -0.24711334518E+01  0.21027187330E+02  0.96554101231E+02  0.47000000000E+01 0.  1.
<mgrwt>
<rscale>  0 0.99995156E+03</rscale>
<asrwt>0</asrwt>
<pdfrwt beam="1">  1        2 0.73148356E-01 0.99995156E+03</pdfrwt>
<pdfrwt beam="2">  1       -2 0.80884750E-01 0.99995156E+03</pdfrwt>
<totfact> 0.10597882E+02</totfact>
</mgrwt>
</event>
<event>
 9    1  0.4497870E-036  0.9995792E+03  0.7818608E-02  0.8681439E-01
         -1   -1    0    0    0  501 -0.00000000000E+00  0.00000000000E+00  0.94037430583E+02  0.94037430583E+02  0.00000000000E+00 0. -1.
          1   -1    0    0  501    0  0.00000000000E+00 -0.00000000000E+00 -0.26562787285E+04  0.26562787285E+04  0.00000000000E+00 0. -1.
         36    2    1    2    0    0  0.00000000000E+00 -0.14210854715E-13 -0.25622412979E+04  0.27503161591E+04  0.99957916453E+03 0.  0.
         25    2    3    3    0    0 -0.35659191945E+02 -0.54559537609E+02 -0.14430853675E+03  0.20273281576E+03  0.12659905092E+03 0.  0.
         35    2    3    3    0    0  0.35659191945E+02  0.54559537609E+02 -0.24179327612E+04  0.25475833433E+04  0.79970852973E+03 0.  0.
         22    1    5    5    0    0 -0.34177541970E+02 -0.12019474787E+03 -0.26578242911E+01  0.12498778269E+03  0.00000000000E+00 0.  1.
         22    1    5    5    0    0  0.69836733915E+02  0.17475428548E+03 -0.24152749369E+04  0.24225955606E+04  0.00000000000E+00 0.  1.
          5    1    4    4  502    0  0.50352379630E+01 -0.22009935773E+02 -0.14846526368E+03  0.15024584991E+03  0.47000000000E+01 0.  1.
         -5    1    4    4    0  502 -0.40694429908E+02 -0.32549601836E+02  0.41567269393E+01  0.52486965850E+02  0.47000000000E+01 0.  1.
<mgrwt>
<rscale>  0 0.99957916E+03</rscale>
<asrwt>0</asrwt>
<pdfrwt beam="1">  1        1 0.40865820E+00 0.99957916E+03</pdfrwt>
<pdfrwt beam="2">  1       -1 0.14467299E-01 0.99957916E+03</pdfrwt>
<totfact> 0.37380770E+01</totfact>
</mgrwt>
</event>
<event>
 9    1  0.4497870E-036  0.9998635E+03  0.7818608E-02  0.8681168E-01
         -2   -1    0    0    0  501 -0.00000000000E+00  0.00000000000E+00  0.14513804327E+03  0.14513804327E+03  0.00000000000E+00 0.  1.
          2   -1    0    0  501    0  0.00000000000E+00 -0.00000000000E+00 -0.17220279098E+04  0.17220279098E+04  0.00000000000E+00 0.  1.
         36    2    1    2    0    0  0.00000000000E+00  0.42632564146E-13 -0.15768898665E+04  0.18671659531E+04  0.99986351326E+03 0.  0.
         25    2    3    3    0    0 -0.94812638998E+02 -0.10157057989E+03 -0.30976021400E+03  0.36126873606E+03  0.12352202340E+03 0.  0.
         35    2    3    3    0    0  0.94812638998E+02  0.10157057989E+03 -0.12671296525E+04  0.15058972170E+04  0.80174986914E+03 0.  0.
         22    1    5    5    0    0  0.73831681438E+02  0.35824246726E+03 -0.11778433430E+04  0.12333303382E+04  0.00000000000E+00 0.  1.
         22    1    5    5    0    0  0.20980957560E+02 -0.25667188736E+03 -0.89286309528E+02  0.27256687879E+03  0.00000000000E+00 0.  1.
          5    1    4    4  502    0 -0.81443738425E+02 -0.10516559452E+03 -0.14877919430E+03  0.19962520747E+03  0.47000000000E+01 0. -1.
         -5    1    4    4    0  502 -0.13368900573E+02  0.35950146296E+01 -0.16098101970E+03  0.16164352859E+03  0.47000000000E+01 0. -1.
<mgrwt>
<rscale>  0 0.99986351E+03</rscale>
<asrwt>0</asrwt>
<pdfrwt beam="1">  1        2 0.26492738E+00 0.99986351E+03</pdfrwt>
<pdfrwt beam="2">  1       -2 0.22328929E-01 0.99986351E+03</pdfrwt>
<totfact> 0.19877534E+02</totfact>
</mgrwt>
</event>
<event>
 9    1  0.4497870E-036  0.1000033E+04  0.7818608E-02  0.8681007E-01
         -2   -1    0    0    0  501 -0.00000000000E+00  0.00000000000E+00  0.79198321366E+02  0.79198321366E+02  0.00000000000E+00 0. -1.
          2   -1    0    0  501    0  0.00000000000E+00 -0.00000000000E+00 -0.31568399440E+04  0.31568399440E+04  0.00000000000E+00 0. -1.
         36    2    1    2    0    0  0.71054273576E-14 -0.35527136788E-14 -0.30776416226E+04  0.32360382653E+04  0.10000328482E+04 0.  0.
         25    2    3    3    0    0  0.48643377911E+01 -0.21697694537E+02 -0.12862980195E+03  0.18055795455E+03  0.12474412721E+03 0.  0.
         35    2    3    3    0    0 -0.48643377911E+01  0.21697694537E+02 -0.29490118206E+04  0.30554803108E+04  0.79924636971E+03 0.  0.
         22    1    5    5    0    0 -0.35735526875E+03 -0.17228271955E+03 -0.15180502432E+04  0.15690317602E+04  0.00000000000E+00 0.  1.
         22    1    5    5    0    0  0.35249093095E+03  0.19398041409E+03 -0.14309615774E+04  0.14864485506E+04  0.00000000000E+00 0.  1.
          5    1    4    4  502    0 -0.16979996498E+02 -0.36197577644E+02  0.82637443011E+01  0.41097011792E+02  0.47000000000E+01 0.  1.
         -5    1    4    4    0  502  0.21844334289E+02  0.14499883107E+02 -0.13689354625E+03  0.13946094276E+03  0.47000000000E+01 0.  1.
<mgrwt>
<rscale>  0 0.10000328E+04</rscale>
<asrwt>0</asrwt>
<pdfrwt beam="1">  1        2 0.48566762E+00 0.10000328E+04</pdfrwt>
<pdfrwt beam="2">  1       -2 0.12184359E-01 0.10000328E+04</pdfrwt>
<totfact> 0.73958982E+01</totfact>
</mgrwt>
</event>
<event>
 9    1  0.4497870E-036  0.9996427E+03  0.7818608E-02  0.8681378E-01
          2   -1    0    0  501    0  0.00000000000E+00  0.00000000000E+00  0.21606379792E+04  0.21606379792E+04  0.00000000000E+00 0.  1.
         -2   -1    0    0    0  501 -0.00000000000E+00 -0.00000000000E+00 -0.11562389774E+03  0.11562389774E+03  0.00000000000E+00 0.  1.
         36    2    1    2    0    0 -0.14210854715E-13  0.14210854715E-13  0.20450140815E+04  0.22762618770E+04  0.99964270569E+03 0.  0.
         25    2    3    3    0    0 -0.18128928009E+02  0.88509059209E+02  0.14287404266E+03  0.21052349078E+03  0.12547763350E+03 0.  0.
         35    2    3    3    0    0  0.18128928009E+02 -0.88509059209E+02  0.19021400388E+04  0.20657383862E+04  0.80060966850E+03 0.  0.
         22    1    5    5    0    0 -0.25446632073E+03  0.25961681078E+03  0.86276377942E+03  0.93622397743E+03  0.00000000000E+00 0. -1.
         22    1    5    5    0    0  0.27259524874E+03 -0.34812586999E+03  0.10393762594E+04  0.11295144088E+04  0.00000000000E+00 0. -1.
          5    1    4    4  502    0 -0.64499286078E+02  0.44357310049E+02  0.37014026018E+02  0.86717108932E+02  0.47000000000E+01 0.  1.
         -5    1    4    4    0  502  0.46370358069E+02  0.44151749160E+02  0.10586001665E+03  0.12380638185E+03  0.47000000000E+01 0.  1.
<mgrwt>
<rscale>  0 0.99964271E+03</rscale>
<asrwt>0</asrwt>
<pdfrwt beam="1">  1        2 0.33240581E+00 0.99964271E+03</pdfrwt>
<pdfrwt beam="2">  1       -2 0.17788294E-01 0.99964271E+03</pdfrwt>
<totfact> 0.16582676E+02</totfact>
</mgrwt>
</event>
<event>
 9    1  0.4497870E-036  0.1002086E+04  0.7818608E-02  0.8679054E-01
          2   -1    0    0  501    0  0.00000000000E+00  0.00000000000E+00  0.11141476299E+04  0.11141476299E+04  0.00000000000E+00 0. -1.
         -2   -1    0    0    0  501 -0.00000000000E+00 -0.00000000000E+00 -0.22532390766E+03  0.22532390766E+03  0.00000000000E+00 0. -1.
         36    2    1    2    0    0  0.14210854715E-13 -0.35527136788E-14  0.88882372227E+03  0.13394715376E+04  0.10020860196E+04 0.  0.
         25    2    3    3    0    0 -0.21065103549E+02 -0.89269091538E+01 -0.18294307641E+02  0.12939835855E+03  0.12603898289E+03 0.  0.
         35    2    3    3    0    0  0.21065103549E+02  0.89269091538E+01  0.90711802991E+03  0.12100731790E+04  0.80055640036E+03 0.  0.
         22    1    5    5    0    0 -0.31048142956E+03  0.14175121667E+03  0.74170218831E+03  0.81646448892E+03  0.00000000000E+00 0.  1.
         22    1    5    5    0    0  0.33154653311E+03 -0.13282430752E+03  0.16541584161E+03  0.39360869012E+03  0.00000000000E+00 0.  1.
          5    1    4    4  502    0 -0.59749817673E+02  0.31497833365E+02 -0.26390116592E+02  0.72668304455E+02  0.47000000000E+01 0. -1.
         -5    1    4    4    0  502  0.38684714124E+02 -0.40424742519E+02  0.80958089511E+01  0.56730054091E+02  0.47000000000E+01 0. -1.
<mgrwt>
<rscale>  0 0.10020860E+04</rscale>
<asrwt>0</asrwt>
<pdfrwt beam="1">  1        2 0.17140732E+00 0.10020860E+04</pdfrwt>
<pdfrwt beam="2">  1       -2 0.34665217E-01 0.10020860E+04</pdfrwt>
<totfact> 0.20105384E+02</totfact>
</mgrwt>
</event>
<event>
 9    1  0.4497870E-036  0.9900155E+03  0.7818608E-02  0.8690605E-01
         -2   -1    0    0    0  501 -0.00000000000E+00  0.00000000000E+00  0.28163711382E+03  0.28163711382E+03  0.00000000000E+00 0.  1.
          2   -1    0    0  501    0  0.00000000000E+00 -0.00000000000E+00 -0.87002972726E+03  0.87002972726E+03  0.00000000000E+00 0.  1.
         36    2    1    2    0    0  0.00000000000E+00 -0.56843418861E-13 -0.58839261344E+03  0.11516668411E+04  0.99001547730E+03 0.  0.
         25    2    3    3    0    0 -0.39548342260E+02 -0.11425264688E+03 -0.16386044716E+03  0.23816915853E+03  0.12351746126E+03 0.  0.
         35    2    3    3    0    0  0.39548342260E+02  0.11425264688E+03 -0.42453216627E+03  0.91349768255E+03  0.79977041526E+03 0.  0.
         22    1    5    5    0    0  0.76974208325E+02  0.43793172037E+03 -0.37947783429E+03  0.58456192757E+03  0.00000000000E+00 0.  1.
         22    1    5    5    0    0 -0.37425866065E+02 -0.32367907349E+03 -0.45054331989E+02  0.32893575497E+03  0.00000000000E+00 0.  1.
          5    1    4    4  502    0  0.15321145327E+02 -0.10572570530E+03 -0.66312533754E+02  0.12582569049E+03  0.47000000000E+01 0. -1.
         -5    1    4    4    0  502 -0.54869487587E+02 -0.85269415802E+01 -0.97547913408E+02  0.11234346804E+03  0.47000000000E+01 0. -1.
<mgrwt>
<rscale>  0 0.99001548E+03</rscale>
<asrwt>0</asrwt>
<pdfrwt beam="1">  1        2 0.13385072E+00 0.99001548E+03</pdfrwt>
<pdfrwt beam="2">  1       -2 0.43328788E-01 0.99001548E+03</pdfrwt>
<totfact> 0.18770496E+02</totfact>
</mgrwt>
</event>
<event>
 9    1  0.4497870E-036  0.9872837E+03  0.7818608E-02  0.8693243E-01
          2   -1    0    0  501    0  0.00000000000E+00  0.00000000000E+00  0.12067642398E+04  0.12067642398E+04  0.00000000000E+00 0. -1.
         -2   -1    0    0    0  501 -0.00000000000E+00 -0.00000000000E+00 -0.20193032620E+03  0.20193032620E+03  0.00000000000E+00 0. -1.
         36    2    1    2    0    0  0.24868995752E-13 -0.14210854715E-13  0.10048339136E+04  0.14086945660E+04  0.98728374156E+03 0.  0.
         25    2    3    3    0    0  0.22585982664E+02 -0.91688112282E+02  0.63794813690E+02  0.16956763075E+03  0.12556498954E+03 0.  0.
         35    2    3    3    0    0 -0.22585982664E+02  0.91688112282E+02  0.94103909992E+03  0.12391269352E+04  0.80060235918E+03 0.  0.
         22    1    5    5    0    0 -0.32261362041E+03 -0.16392614569E+03  0.66774700641E+03  0.75949811974E+03  0.00000000000E+00 0. -1.
         22    1    5    5    0    0  0.30002763775E+03  0.25561425797E+03  0.27329209350E+03  0.47962881550E+03  0.00000000000E+00 0. -1.
          5    1    4    4  502    0  0.16223208135E+02  0.22351065624E+02  0.46025866193E+02  0.53881657135E+02  0.47000000000E+01 0.  1.
         -5    1    4    4    0  502  0.63627745288E+01 -0.11403917791E+03  0.17768947496E+02  0.11568597362E+03  0.47000000000E+01 0.  1.
<mgrwt>
<rscale>  0 0.98728374E+03</rscale>
<asrwt>0</asrwt>
<pdfrwt beam="1">  1        2 0.18565603E+00 0.98728374E+03</pdfrwt>
<pdfrwt beam="2">  1       -2 0.31066205E-01 0.98728374E+03</pdfrwt>
<totfact> 0.21676702E+02</totfact>
</mgrwt>
</event>
<event>
 9    1  0.4497870E-036  0.1000876E+04  0.7818608E-02  0.8680204E-01
         -1   -1    0    0    0  501 -0.00000000000E+00  0.00000000000E+00  0.14206053112E+03  0.14206053112E+03  0.00000000000E+00 0.  1.
          1   -1    0    0  501    0  0.00000000000E+00 -0.00000000000E+00 -0.17628969202E+04  0.17628969202E+04  0.00000000000E+00 0.  1.
         36    2    1    2    0    0  0.28421709430E-13 -0.14210854715E-13 -0.16208363890E+04  0.19049574513E+04  0.10008757621E+04 0.  0.
         25    2    3    3    0    0 -0.13679550638E+03 -0.32021249772E+02 -0.29997902539E+03  0.35425532204E+03  0.12558282734E+03 0.  0.
         35    2    3    3    0    0  0.13679550638E+03  0.32021249772E+02 -0.13208573637E+04  0.15507021292E+04  0.80017157379E+03 0.  0.
         22    1    5    5    0    0 -0.17724195667E+03  0.19750134716E+03 -0.10720982129E+03  0.28620873347E+03  0.00000000000E+00 0. -1.
         22    1    5    5    0    0  0.31403746305E+03 -0.16548009739E+03 -0.12136475424E+04  0.12644933958E+04  0.00000000000E+00 0. -1.
          5    1    4    4  502    0 -0.74061640856E+02  0.10275060432E+01 -0.39132852318E+02  0.83902637298E+02  0.47000000000E+01 0.  1.
         -5    1    4    4    0  502 -0.62733865520E+02 -0.33048755815E+02 -0.26084617307E+03  0.27035268474E+03  0.47000000000E+01 0.  1.
<mgrwt>
<rscale>  0 0.10008758E+04</rscale>
<asrwt>0</asrwt>
<pdfrwt beam="1">  1        1 0.27121492E+00 0.10008758E+04</pdfrwt>
<pdfrwt beam="2">  1       -1 0.21855466E-01 0.10008758E+04</pdfrwt>
<totfact> 0.80638559E+01</totfact>
</mgrwt>
</event>
<event>
 9    1  0.4497870E-036  0.1000220E+04  0.7818608E-02  0.8680829E-01
          2   -1    0    0  501    0  0.00000000000E+00  0.00000000000E+00  0.26591217731E+04  0.26591217731E+04  0.00000000000E+00 0.  1.
         -2   -1    0    0    0  501 -0.00000000000E+00 -0.00000000000E+00 -0.94057300122E+02  0.94057300122E+02  0.00000000000E+00 0.  1.
         36    2    1    2    0    0  0.35527136788E-14 -0.28421709430E-13  0.25650644730E+04  0.27531790732E+04  0.10002196052E+04 0.  0.
         25    2    3    3    0    0  0.17790148506E+02 -0.10002098993E+03  0.73658577009E+03  0.75460846307E+03  0.12866486707E+03 0.  0.
         35    2    3    3    0    0 -0.17790148506E+02  0.10002098993E+03  0.18284787029E+04  0.19985706102E+04  0.80039329649E+03 0.  0.
         22    1    5    5    0    0 -0.35470702357E+02  0.40991388237E+03  0.57381342022E+03  0.70608030911E+03  0.00000000000E+00 0.  1.
         22    1    5    5    0    0  0.17680553851E+02 -0.30989289245E+03  0.12546652827E+04  0.12924903011E+04  0.00000000000E+00 0.  1.
          5    1    4    4  502    0 -0.48936442448E+01 -0.80368105378E+01 -0.13471787559E+01  0.10603912873E+02  0.47000000000E+01 0. -1.
         -5    1    4    4    0  502  0.22683792751E+02 -0.91984179389E+02  0.73793294885E+03  0.74400455019E+03  0.47000000000E+01 0. -1.
<mgrwt>
<rscale>  0 0.10002196E+04</rscale>
<asrwt>0</asrwt>
<pdfrwt beam="1">  1        2 0.40909560E+00 0.10002196E+04</pdfrwt>
<pdfrwt beam="2">  1       -2 0.14470356E-01 0.10002196E+04</pdfrwt>
<totfact> 0.11796964E+02</totfact>
</mgrwt>
</event>
<event>
 9    1  0.4497870E-036  0.9970456E+03  0.7818608E-02  0.8683856E-01
          1   -1    0    0  501    0  0.00000000000E+00  0.00000000000E+00  0.14413551422E+04  0.14413551422E+04  0.00000000000E+00 0.  1.
         -1   -1    0    0    0  501 -0.00000000000E+00 -0.00000000000E+00 -0.17242453789E+03  0.17242453789E+03  0.00000000000E+00 0.  1.
         36    2    1    2    0    0  0.14210854715E-13 -0.14210854715E-13  0.12689306044E+04  0.16137796801E+04  0.99704562452E+03 0.  0.
         25    2    3    3    0    0  0.86971617943E+02  0.60095029150E+02  0.94281516943E+02  0.18857445879E+03  0.12448231688E+03 0.  0.
         35    2    3    3    0    0 -0.86971617943E+02 -0.60095029150E+02  0.11746490874E+04  0.14252052214E+04  0.80014621761E+03 0.  0.
         22    1    5    5    0    0  0.29558251601E+03  0.16444000708E+03  0.33765217646E+03  0.47793151389E+03  0.00000000000E+00 0.  1.
         22    1    5    5    0    0 -0.38255413396E+03 -0.22453503623E+03  0.83699691095E+03  0.94727370746E+03  0.00000000000E+00 0.  1.
          5    1    4    4  502    0  0.77474625102E+02  0.95415371351E+02  0.55120459016E+02  0.13478414457E+03  0.47000000000E+01 0. -1.
         -5    1    4    4    0  502  0.94969928413E+01 -0.35320342202E+02  0.39161057926E+02  0.53790314223E+02  0.47000000000E+01 0. -1.
<mgrwt>
<rscale>  0 0.99704562E+03</rscale>
<asrwt>0</asrwt>
<pdfrwt beam="1">  1        1 0.22174694E+00 0.99704562E+03</pdfrwt>
<pdfrwt beam="2">  1       -1 0.26526853E-01 0.99704562E+03</pdfrwt>
<totfact> 0.98514900E+01</totfact>
</mgrwt>
</event>
<event>
 9    1  0.4497870E-036  0.9954877E+03  0.7818608E-02  0.8685347E-01
         -2   -1    0    0    0  501 -0.00000000000E+00  0.00000000000E+00  0.71050701013E+02  0.71050701013E+02  0.00000000000E+00 0.  1.
          2   -1    0    0  501    0  0.00000000000E+00 -0.00000000000E+00 -0.34869313877E+04  0.34869313877E+04  0.00000000000E+00 0.  1.
         36    2    1    2    0    0  0.28421709430E-13  0.14210854715E-13 -0.34158806867E+04  0.35579820887E+04  0.99548765835E+03 0.  0.
         25    2    3    3    0    0 -0.10758900291E+03 -0.59122575543E+02 -0.46365094480E+03  0.49685741777E+03  0.12970822061E+03 0.  0.
         35    2    3    3    0    0  0.10758900291E+03  0.59122575543E+02 -0.29522297419E+04  0.30611246710E+04  0.79984556614E+03 0.  0.
         22    1    5    5    0    0 -0.21235367573E+02 -0.14223855653E+03 -0.27329758027E+04  0.27367571112E+04  0.00000000000E+00 0. -1.
         22    1    5    5    0    0  0.12882437048E+03  0.20136113208E+03 -0.21925393923E+03  0.32436755974E+03  0.00000000000E+00 0. -1.
          5    1    4    4  502    0 -0.10327002495E+02  0.21333320111E+02 -0.10349469776E+02  0.26286099980E+02  0.47000000000E+01 0.  1.
         -5    1    4    4    0  502 -0.97262000417E+02 -0.80455895654E+02 -0.45330147502E+03  0.47057131779E+03  0.47000000000E+01 0.  1.
<mgrwt>
<rscale>  0 0.99548766E+03</rscale>
<asrwt>0</asrwt>
<pdfrwt beam="1">  1        2 0.53645094E+00 0.99548766E+03</pdfrwt>
<pdfrwt beam="2">  1       -2 0.10930878E-01 0.99548766E+03</pdfrwt>
<totfact> 0.51081604E+01</totfact>
</mgrwt>
</event>
<event>
 9    1  0.4497870E-036  0.1000250E+04  0.7818608E-02  0.8680800E-01
         -2   -1    0    0    0  501 -0.00000000000E+00  0.00000000000E+00  0.10342343698E+04  0.10342343698E+04  0.00000000000E+00 0. -1.
          2   -1    0    0  501    0  0.00000000000E+00 -0.00000000000E+00 -0.24184547827E+03  0.24184547827E+03  0.00000000000E+00 0. -1.
         36    2    1    2    0    0  0.14210854715E-13  0.00000000000E+00  0.79238889154E+03  0.12760798481E+04  0.10002497804E+04 0.  0.
         25    2    3    3    0    0 -0.10345434242E+03  0.95951005986E+02  0.13413593195E+03  0.23084062018E+03  0.12403849067E+03 0.  0.
         35    2    3    3    0    0  0.10345434242E+03 -0.95951005986E+02  0.65825295959E+03  0.10452392279E+04  0.79957406676E+03 0.  0.
         22    1    5    5    0    0 -0.10232584398E+03  0.65512771344E+02 -0.15154987560E+03  0.19424177293E+03  0.00000000000E+00 0.  1.
         22    1    5    5    0    0  0.20578018640E+03 -0.16146377733E+03  0.80980283519E+03  0.85099745498E+03  0.00000000000E+00 0.  1.
          5    1    4    4  502    0 -0.21024508808E+02 -0.13078880567E+02 -0.14322987990E+02  0.28988360982E+02  0.47000000000E+01 0.  1.
         -5    1    4    4    0  502 -0.82429833613E+02  0.10902988655E+03  0.14845891994E+03  0.20185225920E+03  0.47000000000E+01 0.  1.
<mgrwt>
<rscale>  0 0.10002498E+04</rscale>
<asrwt>0</asrwt>
<pdfrwt beam="1">  1        2 0.37206997E-01 0.10002498E+04</pdfrwt>
<pdfrwt beam="2">  1       -2 0.15911298E+00 0.10002498E+04</pdfrwt>
<totfact> 0.40107891E+01</totfact>
</mgrwt>
</event>
<event>
 9    1  0.4497870E-036  0.9962260E+03  0.7818608E-02  0.8684640E-01
          2   -1    0    0  501    0  0.00000000000E+00  0.00000000000E+00  0.66167460220E+03  0.66167460220E+03  0.00000000000E+00 0.  1.
         -2   -1    0    0    0  501 -0.00000000000E+00 -0.00000000000E+00 -0.37498274700E+03  0.37498274700E+03  0.00000000000E+00 0.  1.
         36    2    1    2    0    0  0.14210854715E-13  0.00000000000E+00  0.28669185521E+03  0.10366573492E+04  0.99622599836E+03 0.  0.
         25    2    3    3    0    0  0.11603721545E+03 -0.11967202485E+02  0.12377527603E+03  0.21137585183E+03  0.12550530855E+03 0.  0.
         35    2    3    3    0    0 -0.11603721545E+03  0.11967202485E+02  0.16291657917E+03  0.82528149737E+03  0.80058721500E+03 0.  0.
         22    1    5    5    0    0 -0.10139196803E+03  0.35560257818E+03  0.27796878222E+03  0.46260152256E+03  0.00000000000E+00 0. -1.
         22    1    5    5    0    0 -0.14645247412E+02 -0.34363537569E+03 -0.11505220305E+03  0.36267997481E+03  0.00000000000E+00 0. -1.
          5    1    4    4  502    0  0.96258568862E+02 -0.41461984664E+02  0.27216643436E+02  0.10838654867E+03  0.47000000000E+01 0. -1.
         -5    1    4    4    0  502  0.19778646585E+02  0.29494782180E+02  0.96558632598E+02  0.10298930316E+03  0.47000000000E+01 0. -1.
<mgrwt>
<rscale>  0 0.99622600E+03</rscale>
<asrwt>0</asrwt>
<pdfrwt beam="1">  1        2 0.10179609E+00 0.99622600E+03</pdfrwt>
<pdfrwt beam="2">  1       -2 0.57689653E-01 0.99622600E+03</pdfrwt>
<totfact> 0.14969696E+02</totfact>
</mgrwt>
</event>
<event>
 9    1  0.4497870E-036  0.1002866E+04  0.7818608E-02  0.8678313E-01
         -1   -1    0    0    0  501 -0.00000000000E+00  0.00000000000E+00  0.43315285760E+03  0.43315285760E+03  0.00000000000E+00 0. -1.
          1   -1    0    0  501    0  0.00000000000E+00 -0.00000000000E+00 -0.58047644536E+03  0.58047644536E+03  0.00000000000E+00 0. -1.
         36    2    1    2    0    0  0.28421709430E-13 -0.71054273576E-14 -0.14732358777E+03  0.10136293030E+04  0.10028659553E+04 0.  0.
         25    2    3    3    0    0  0.29394850642E+02  0.12843081982E+02  0.10599062787E+03  0.17505784222E+03  0.13558109355E+03 0.  0.
         35    2    3    3    0    0 -0.29394850642E+02 -0.12843081982E+02 -0.25331421563E+03  0.83857146074E+03  0.79875215237E+03 0.  0.
         22    1    5    5    0    0  0.35353163070E+03 -0.90663423715E+02  0.13819124495E+02  0.36523340278E+03  0.00000000000E+00 0. -1.
         22    1    5    5    0    0 -0.38292648134E+03  0.77820341733E+02 -0.26713334013E+03  0.47333805796E+03  0.00000000000E+00 0. -1.
          5    1    4    4  502    0 -0.32948663412E+02  0.36239317512E+02  0.95573132219E+02  0.10749519132E+03  0.47000000000E+01 0.  1.
         -5    1    4    4    0  502  0.62343514054E+02 -0.23396235530E+02  0.10417495649E+02  0.67562650904E+02  0.47000000000E+01 0.  1.
<mgrwt>
<rscale>  0 0.10028660E+04</rscale>
<asrwt>0</asrwt>
<pdfrwt beam="1">  1        1 0.89304068E-01 0.10028660E+04</pdfrwt>
<pdfrwt beam="2">  1       -1 0.66638901E-01 0.10028660E+04</pdfrwt>
<totfact> 0.95660374E+01</totfact>
</mgrwt>
</event>
<event>
 9    1  0.4497870E-036  0.1000068E+04  0.7818608E-02  0.8680974E-01
         -2   -1    0    0    0  501 -0.00000000000E+00  0.00000000000E+00  0.12413864543E+03  0.12413864543E+03  0.00000000000E+00 0.  1.
          2   -1    0    0  501    0  0.00000000000E+00 -0.00000000000E+00 -0.20141495357E+04  0.20141495357E+04  0.00000000000E+00 0.  1.
         36    2    1    2    0    0  0.00000000000E+00  0.28421709430E-13 -0.18900108903E+04  0.21382881812E+04  0.10000675879E+04 0.  0.
         25    2    3    3    0    0 -0.35659792489E+02 -0.49171716339E+02 -0.62391897385E+03  0.63930921516E+03  0.12550660610E+03 0.  0.
         35    2    3    3    0    0  0.35659792489E+02  0.49171716339E+02 -0.12660919164E+04  0.14989789660E+04  0.80016230925E+03 0.  0.
         22    1    5    5    0    0 -0.49475956452E+02 -0.27589136980E+03 -0.12045605746E+03  0.30507962891E+03  0.00000000000E+00 0. -1.
         22    1    5    5    0    0  0.85135748941E+02  0.32506308614E+03 -0.11456358590E+04  0.11938993371E+04  0.00000000000E+00 0. -1.
          5    1    4    4  502    0 -0.66403571817E+02 -0.73306004412E+02 -0.47971963728E+03  0.48983285417E+03  0.47000000000E+01 0. -1.
         -5    1    4    4    0  502  0.30743779329E+02  0.24134288074E+02 -0.14419933657E+03  0.14947636099E+03  0.47000000000E+01 0. -1.
<mgrwt>
<rscale>  0 0.10000676E+04</rscale>
<asrwt>0</asrwt>
<pdfrwt beam="1">  1        2 0.30986915E+00 0.10000676E+04</pdfrwt>
<pdfrwt beam="2">  1       -2 0.19098253E-01 0.10000676E+04</pdfrwt>
<totfact> 0.17818343E+02</totfact>
</mgrwt>
</event>
<event>
 9    1  0.4497870E-036  0.9994316E+03  0.7818608E-02  0.8681579E-01
         -2   -1    0    0    0  501 -0.00000000000E+00  0.00000000000E+00  0.14544712705E+03  0.14544712705E+03  0.00000000000E+00 0.  1.
          2   -1    0    0  501    0  0.00000000000E+00 -0.00000000000E+00 -0.17168842959E+04  0.17168842959E+04  0.00000000000E+00 0.  1.
         36    2    1    2    0    0  0.28421709430E-13  0.14210854715E-13 -0.15714371688E+04  0.18623314229E+04  0.99943161509E+03 0.  0.
         25    2    3    3    0    0  0.11065471324E+03  0.79079488102E+02 -0.34429243027E+03  0.39076633060E+03  0.12515197397E+03 0.  0.
         35    2    3    3    0    0 -0.11065471324E+03 -0.79079488102E+02 -0.12271447386E+04  0.14715650923E+04  0.80070068101E+03 0.  0.
         22    1    5    5    0    0 -0.44117728165E+03  0.37523742656E+02 -0.83850188845E+03  0.94822510094E+03  0.00000000000E+00 0.  1.
         22    1    5    5    0    0  0.33052256840E+03 -0.11660323076E+03 -0.38864285011E+03  0.52333999139E+03  0.00000000000E+00 0.  1.
          5    1    4    4  502    0  0.13435852197E+03  0.60224533795E+02 -0.23585871965E+03  0.27808385881E+03  0.47000000000E+01 0.  1.
         -5    1    4    4    0  502 -0.23703808725E+02  0.18854954307E+02 -0.10843371062E+03  0.11268247179E+03  0.47000000000E+01 0.  1.
<mgrwt>
<rscale>  0 0.99943162E+03</rscale>
<asrwt>0</asrwt>
<pdfrwt beam="1">  1        2 0.26413605E+00 0.99943162E+03</pdfrwt>
<pdfrwt beam="2">  1       -2 0.22376481E-01 0.99943162E+03</pdfrwt>
<totfact> 0.19936080E+02</totfact>
</mgrwt>
</event>
<event>
 9    1  0.4497870E-036  0.1000665E+04  0.7818608E-02  0.8680405E-01
          1   -1    0    0  501    0  0.00000000000E+00  0.00000000000E+00  0.46777347779E+03  0.46777347779E+03  0.00000000000E+00 0. -1.
         -1   -1    0    0    0  501 -0.00000000000E+00 -0.00000000000E+00 -0.53515802712E+03  0.53515802712E+03  0.00000000000E+00 0. -1.
         36    2    1    2    0    0  0.00000000000E+00  0.28421709430E-13 -0.67384549328E+02  0.10029315049E+04  0.10006652418E+04 0.  0.
         25    2    3    3    0    0 -0.18725512832E+02  0.13966021575E+03 -0.90297990081E+01  0.18868615806E+03  0.12516112926E+03 0.  0.
         35    2    3    3    0    0  0.18725512832E+02 -0.13966021575E+03 -0.58354750320E+02  0.81424534686E+03  0.79983409986E+03 0.  0.
         22    1    5    5    0    0 -0.42721190380E+02 -0.71533134727E+02  0.36841838242E+03  0.37772237686E+03  0.00000000000E+00 0. -1.
         22    1    5    5    0    0  0.61446703212E+02 -0.68127081028E+02 -0.42677313274E+03  0.43652297000E+03  0.00000000000E+00 0. -1.
          5    1    4    4  502    0 -0.58418662129E+02  0.75402763529E+02 -0.44205558373E+02  0.10523563191E+03  0.47000000000E+01 0.  1.
         -5    1    4    4    0  502  0.39693149297E+02  0.64257452226E+02  0.35175759365E+02  0.83450526149E+02  0.47000000000E+01 0.  1.
<mgrwt>
<rscale>  0 0.10006652E+04</rscale>
<asrwt>0</asrwt>
<pdfrwt beam="1">  1        1 0.71965151E-01 0.10006652E+04</pdfrwt>
<pdfrwt beam="2">  1       -1 0.82332004E-01 0.10006652E+04</pdfrwt>
<totfact> 0.84390273E+01</totfact>
</mgrwt>
</event>
<event>
 9    1  0.4497870E-036  0.1000708E+04  0.7818608E-02  0.8680364E-01
          2   -1    0    0  501    0  0.00000000000E+00  0.00000000000E+00  0.46679932923E+03  0.46679932923E+03  0.00000000000E+00 0. -1.
         -2   -1    0    0    0  501 -0.00000000000E+00 -0.00000000000E+00 -0.53632104406E+03  0.53632104406E+03  0.00000000000E+00 0. -1.
         36    2    1    2    0    0 -0.14210854715E-13 -0.14210854715E-13 -0.69521714834E+02  0.10031203733E+04  0.10007083564E+04 0.  0.
         25    2    3    3    0    0  0.45454770756E+02  0.61536144510E+02 -0.13085854757E+03  0.19714241314E+03  0.12604895207E+03 0.  0.
         35    2    3    3    0    0 -0.45454770756E+02 -0.61536144510E+02  0.61336832740E+02  0.80597796015E+03  0.79999089491E+03 0.  0.
         22    1    5    5    0    0  0.85395656110E+02 -0.15884480991E+03  0.39520857951E+03  0.43441214651E+03  0.00000000000E+00 0. -1.
         22    1    5    5    0    0 -0.13085042687E+03  0.97308665396E+02 -0.33387174677E+03  0.37156581364E+03  0.00000000000E+00 0. -1.
          5    1    4    4  502    0  0.26296345903E+02  0.43918491270E+02  0.11226997289E+02  0.52616225172E+02  0.47000000000E+01 0.  1.
         -5    1    4    4    0  502  0.19158424852E+02  0.17617653240E+02 -0.14208554486E+03  0.14452618796E+03  0.47000000000E+01 0.  1.
<mgrwt>
<rscale>  0 0.10007084E+04</rscale>
<asrwt>0</asrwt>
<pdfrwt beam="1">  1        2 0.71815281E-01 0.10007084E+04</pdfrwt>
<pdfrwt beam="2">  1       -2 0.82510930E-01 0.10007084E+04</pdfrwt>
<totfact> 0.10333545E+02</totfact>
</mgrwt>
</event>
<event>
 9    1  0.4497870E-036  0.1001978E+04  0.7818608E-02  0.8679156E-01
          1   -1    0    0  501    0  0.00000000000E+00  0.00000000000E+00  0.84331969617E+03  0.84331969617E+03  0.00000000000E+00 0. -1.
         -1   -1    0    0    0  501 -0.00000000000E+00 -0.00000000000E+00 -0.29762157231E+03  0.29762157231E+03  0.00000000000E+00 0. -1.
         36    2    1    2    0    0 -0.28421709430E-13  0.14210854715E-13  0.54569812386E+03  0.11409412685E+04  0.10019783110E+04 0.  0.
         25    2    3    3    0    0 -0.13167326061E+03 -0.47702438175E+02  0.68591892627E+02  0.19992758591E+03  0.12511123733E+03 0.  0.
         35    2    3    3    0    0  0.13167326061E+03  0.47702438175E+02  0.47710623123E+03  0.94101368257E+03  0.79891365287E+03 0.  0.
         22    1    5    5    0    0  0.30363272657E+03 -0.19310733792E+03  0.52980793267E+03  0.64045274777E+03  0.00000000000E+00 0. -1.
         22    1    5    5    0    0 -0.17195946596E+03  0.24080977609E+03 -0.52701701445E+02  0.30056093480E+03  0.00000000000E+00 0. -1.
          5    1    4    4  502    0 -0.83199373088E+02 -0.88231694155E+02  0.27594353154E+02  0.12446086076E+03  0.47000000000E+01 0. -1.
         -5    1    4    4    0  502 -0.48473887519E+02  0.40529255980E+02  0.40997539473E+02  0.75466725147E+02  0.47000000000E+01 0. -1.
<mgrwt>
<rscale>  0 0.10019783E+04</rscale>
<asrwt>0</asrwt>
<pdfrwt beam="1">  1        1 0.12974149E+00 0.10019783E+04</pdfrwt>
<pdfrwt beam="2">  1       -1 0.45787935E-01 0.10019783E+04</pdfrwt>
<totfact> 0.10910854E+02</totfact>
</mgrwt>
</event>
<event>
 9    1  0.4497870E-036  0.9935833E+03  0.7818608E-02  0.8687173E-01
         -3   -1    0    0    0  501 -0.00000000000E+00  0.00000000000E+00  0.36426593745E+03  0.36426593745E+03  0.00000000000E+00 0. -1.
          1   -1    0    0  501    0  0.00000000000E+00 -0.00000000000E+00 -0.67753231878E+03  0.67753231878E+03  0.00000000000E+00 0. -1.
         36    2    1    2    0    0  0.71054273576E-13  0.00000000000E+00 -0.31326638133E+03  0.10417982562E+04  0.99358330352E+03 0.  0.
         25    2    3    3    0    0  0.80460166065E+02 -0.82578305421E+02  0.22579980788E+02  0.17156632822E+03  0.12502853513E+03 0.  0.
         35    2    3    3    0    0 -0.80460166065E+02  0.82578305421E+02 -0.33584636212E+03  0.87023192801E+03  0.79449217412E+03 0.  0.
         22    1    5    5    0    0 -0.35144333469E+03 -0.42977097262E+02  0.75379917399E+02  0.36199665790E+03  0.00000000000E+00 0.  1.
         22    1    5    5    0    0  0.27098316862E+03  0.12555540268E+03 -0.41122627951E+03  0.50823527011E+03  0.00000000000E+00 0.  1.
          5    1    4    4  502    0  0.14210965054E+02 -0.95307938752E+02  0.35346175010E+02  0.10274724719E+03  0.47000000000E+01 0. -1.
         -5    1    4    4    0  502  0.66249201012E+02  0.12729633331E+02 -0.12766194222E+02  0.68819081034E+02  0.47000000000E+01 0. -1.
<mgrwt>
<rscale>  0 0.99358330E+03</rscale>
<asrwt>0</asrwt>
<pdfrwt beam="1">  1        1 0.10423574E+00 0.99358330E+03</pdfrwt>
<pdfrwt beam="2">  1       -3 0.56040913E-01 0.99358330E+03</pdfrwt>
<totfact> 0.60114214E+01</totfact>
</mgrwt>
</event>
<event>
 9    1  0.4497870E-036  0.1000385E+04  0.7818608E-02  0.8680671E-01
         -2   -1    0    0    0  501 -0.00000000000E+00  0.00000000000E+00  0.98657712560E+03  0.98657712560E+03  0.00000000000E+00 0. -1.
          2   -1    0    0  501    0  0.00000000000E+00 -0.00000000000E+00 -0.25359672756E+03  0.25359672756E+03  0.00000000000E+00 0. -1.
         36    2    1    2    0    0  0.00000000000E+00  0.14210854715E-13  0.73298039804E+03  0.12401738532E+04  0.10003853868E+04 0.  0.
         25    2    3    3    0    0  0.74439267648E+02  0.11245555876E+03  0.85607028179E+02  0.20270481970E+03  0.12479272172E+03 0.  0.
         35    2    3    3    0    0 -0.74439267648E+02 -0.11245555876E+03  0.64737336986E+03  0.10374690335E+04  0.79941369648E+03 0.  0.
         22    1    5    5    0    0 -0.24558479217E+03 -0.38830440296E+03  0.24571304881E+03  0.52102504916E+03  0.00000000000E+00 0.  1.
         22    1    5    5    0    0  0.17114552452E+03  0.27584884420E+03  0.40166032105E+03  0.51644398430E+03  0.00000000000E+00 0.  1.
          5    1    4    4  502    0  0.41371908141E+02  0.65801455185E+02  0.11449527510E+03  0.13846560695E+03  0.47000000000E+01 0.  1.
         -5    1    4    4    0  502  0.33067359507E+02  0.46654103572E+02 -0.28888246922E+02  0.64239212753E+02  0.47000000000E+01 0.  1.
<mgrwt>
<rscale>  0 0.10003854E+04</rscale>
<asrwt>0</asrwt>
<pdfrwt beam="1">  1        2 0.39014882E-01 0.10003854E+04</pdfrwt>
<pdfrwt beam="2">  1       -2 0.15178109E+00 0.10003854E+04</pdfrwt>
<totfact> 0.43478596E+01</totfact>
</mgrwt>
</event>
<event>
 9    1  0.4497870E-036  0.9989792E+03  0.7818608E-02  0.8682011E-01
         -3   -1    0    0    0  501 -0.00000000000E+00  0.00000000000E+00  0.18238590678E+03  0.18238590678E+03  0.00000000000E+00 0.  1.
          3   -1    0    0  501    0  0.00000000000E+00 -0.00000000000E+00 -0.13679229064E+04  0.13679229064E+04  0.00000000000E+00 0.  1.
         36    2    1    2    0    0  0.00000000000E+00 -0.28421709430E-13 -0.11855369997E+04  0.15503088132E+04  0.99897919839E+03 0.  0.
         25    2    3    3    0    0 -0.42957413553E+02  0.12964680935E+03 -0.23313390663E+03  0.29875986793E+03  0.12748492348E+03 0.  0.
         35    2    3    3    0    0  0.42957413553E+02 -0.12964680935E+03 -0.95240309302E+03  0.12515489453E+04  0.80040581975E+03 0.  0.
         22    1    5    5    0    0 -0.12191545193E+03 -0.37383114828E+03 -0.85525012751E+03  0.94131072737E+03  0.00000000000E+00 0.  1.
         22    1    5    5    0    0  0.16487286548E+03  0.24418433893E+03 -0.97152965512E+02  0.31023821792E+03  0.00000000000E+00 0.  1.
          5    1    4    4  502    0  0.17093581404E+02 -0.24799576799E+01 -0.10053967345E+03  0.10212079442E+03  0.47000000000E+01 0. -1.
         -5    1    4    4    0  502 -0.60050994957E+02  0.13212676703E+03 -0.13259423318E+03  0.19663907352E+03  0.47000000000E+01 0. -1.
<mgrwt>
<rscale>  0 0.99897920E+03</rscale>
<asrwt>0</asrwt>
<pdfrwt beam="1">  1        3 0.21044967E+00 0.99897920E+03</pdfrwt>
<pdfrwt beam="2">  1       -3 0.28059371E-01 0.99897920E+03</pdfrwt>
<totfact> 0.62042604E+00</totfact>
</mgrwt>
</event>
<event>
 9    1  0.4497870E-036  0.1004571E+04  0.7818608E-02  0.8676697E-01
         -3   -1    0    0    0  501 -0.00000000000E+00  0.00000000000E+00  0.22306065883E+03  0.22306065883E+03  0.00000000000E+00 0. -1.
          3   -1    0    0  501    0  0.00000000000E+00 -0.00000000000E+00 -0.11310406264E+04  0.11310406264E+04  0.00000000000E+00 0. -1.
         36    2    1    2    0    0  0.28421709430E-13 -0.35527136788E-13 -0.90797996752E+03  0.13541012852E+04  0.10045708880E+04 0.  0.
         25    2    3    3    0    0  0.14015846406E+03  0.35801189938E+02 -0.16705693759E+03  0.25424619658E+03  0.12572584392E+03 0.  0.
         35    2    3    3    0    0 -0.14015846406E+03 -0.35801189938E+02 -0.74092302993E+03  0.10998550886E+04  0.79986758866E+03 0.  0.
         22    1    5    5    0    0 -0.27251588389E+03 -0.29375889822E+03 -0.70065347035E+03  0.80713969223E+03  0.00000000000E+00 0. -1.
         22    1    5    5    0    0  0.13235741983E+03  0.25795770828E+03 -0.40269559584E+02  0.29271539637E+03  0.00000000000E+00 0. -1.
          5    1    4    4  502    0  0.12624500870E+03 -0.22786331538E+02 -0.92149753014E+02  0.15802115715E+03  0.47000000000E+01 0. -1.
         -5    1    4    4    0  502  0.13913455363E+02  0.58587521476E+02 -0.74907184573E+02  0.96225039431E+02  0.47000000000E+01 0. -1.
<mgrwt>
<rscale>  0 0.10045709E+04</rscale>
<asrwt>0</asrwt>
<pdfrwt beam="1">  1        3 0.17400625E+00 0.10045709E+04</pdfrwt>
<pdfrwt beam="2">  1       -3 0.34317024E-01 0.10045709E+04</pdfrwt>
<totfact> 0.74684158E+00</totfact>
</mgrwt>
</event>
<event>
 9    1  0.4497870E-036  0.9997847E+03  0.7818608E-02  0.8681243E-01
         -2   -1    0    0    0  501 -0.00000000000E+00  0.00000000000E+00  0.76678180814E+03  0.76678180814E+03  0.00000000000E+00 0. -1.
          2   -1    0    0  501    0  0.00000000000E+00 -0.00000000000E+00 -0.32589764459E+03  0.32589764459E+03  0.00000000000E+00 0. -1.
         36    2    1    2    0    0  0.00000000000E+00 -0.14210854715E-13  0.44088416355E+03  0.10926794527E+04  0.99978474721E+03 0.  0.
         25    2    3    3    0    0 -0.48869431804E+02  0.11928958745E+03  0.21910685094E+02  0.18075556514E+03  0.12479691169E+03 0.  0.
         35    2    3    3    0    0  0.48869431804E+02 -0.11928958745E+03  0.41897347845E+03  0.91192388759E+03  0.79965503442E+03 0.  0.
         22    1    5    5    0    0  0.41179556286E+03 -0.39053921433E+02  0.33148041110E+03  0.53007552039E+03  0.00000000000E+00 0. -1.
         22    1    5    5    0    0 -0.36292613105E+03 -0.80235666019E+02  0.87493067347E+02  0.38184836720E+03  0.00000000000E+00 0. -1.
          5    1    4    4  502    0 -0.74169386293E+02  0.32024067399E+02 -0.15479798024E+02  0.82391461346E+02  0.47000000000E+01 0. -1.
         -5    1    4    4    0  502  0.25299954488E+02  0.87265520053E+02  0.37390483118E+02  0.98364103793E+02  0.47000000000E+01 0. -1.
<mgrwt>
<rscale>  0 0.99978475E+03</rscale>
<asrwt>0</asrwt>
<pdfrwt beam="1">  1        2 0.50138099E-01 0.99978475E+03</pdfrwt>
<pdfrwt beam="2">  1       -2 0.11796643E+00 0.99978475E+03</pdfrwt>
<totfact> 0.64794724E+01</totfact>
</mgrwt>
</event>
<event>
 9    1  0.4497870E-036  0.1000088E+04  0.7818608E-02  0.8680954E-01
         -1   -1    0    0    0  501 -0.00000000000E+00  0.00000000000E+00  0.16711579464E+03  0.16711579464E+03  0.00000000000E+00 0.  1.
          1   -1    0    0  501    0  0.00000000000E+00 -0.00000000000E+00 -0.14962329361E+04  0.14962329361E+04  0.00000000000E+00 0.  1.
         36    2    1    2    0    0 -0.71054273576E-14  0.00000000000E+00 -0.13291171415E+04  0.16633487308E+04  0.10000883083E+04 0.  0.
         25    2    3    3    0    0 -0.26975233582E+02 -0.12655318479E+03 -0.16302269103E+03  0.24339370728E+03  0.12617736384E+03 0.  0.
         35    2    3    3    0    0  0.26975233582E+02  0.12655318479E+03 -0.11660944505E+04  0.14199550235E+04  0.79984537851E+03 0.  0.
         22    1    5    5    0    0 -0.55252778935E+02  0.45184405194E+03 -0.51392732772E+03  0.68654003163E+03  0.00000000000E+00 0.  1.
         22    1    5    5    0    0  0.82228012517E+02 -0.32529086715E+03 -0.65216712275E+03  0.73341499186E+03  0.00000000000E+00 0.  1.
          5    1    4    4  502    0  0.20114917007E+02 -0.10760315209E+02  0.13592259462E+02  0.26967272514E+02  0.47000000000E+01 0. -1.
         -5    1    4    4    0  502 -0.47090150588E+02 -0.11579286958E+03 -0.17661495049E+03  0.21642643477E+03  0.47000000000E+01 0. -1.
<mgrwt>
<rscale>  0 0.10000883E+04</rscale>
<asrwt>0</asrwt>
<pdfrwt beam="1">  1        1 0.23018968E+00 0.10000883E+04</pdfrwt>
<pdfrwt beam="2">  1       -1 0.25710123E-01 0.10000883E+04</pdfrwt>
<totfact> 0.94867810E+01</totfact>
</mgrwt>
</event>
<event>
 9    1  0.4497870E-036  0.9984485E+03  0.7818608E-02  0.8682517E-01
         -2   -1    0    0    0  501 -0.00000000000E+00  0.00000000000E+00  0.28353485105E+03  0.28353485105E+03  0.00000000000E+00 0. -1.
          2   -1    0    0  501    0  0.00000000000E+00 -0.00000000000E+00 -0.87899198734E+03  0.87899198734E+03  0.00000000000E+00 0. -1.
         36    2    1    2    0    0  0.00000000000E+00  0.00000000000E+00 -0.59545713629E+03  0.11625268384E+04  0.99844852086E+03 0.  0.
         25    2    3    3    0    0  0.38034164074E+02  0.13040067945E+03 -0.83022937476E+02  0.20268523075E+03  0.12544943116E+03 0.  0.
         35    2    3    3    0    0 -0.38034164074E+02 -0.13040067945E+03 -0.51243419881E+03  0.95984160763E+03  0.80016008948E+03 0.  0.
         22    1    5    5    0    0 -0.16470242741E+03 -0.43255559512E+03 -0.40505713756E+03  0.61506301885E+03  0.00000000000E+00 0.  1.
         22    1    5    5    0    0  0.12666826334E+03  0.30215491567E+03 -0.10737706126E+03  0.34477858879E+03  0.00000000000E+00 0.  1.
          5    1    4    4  502    0  0.65194947061E+02  0.81560430784E+02 -0.99422652552E+02  0.14425477057E+03  0.47000000000E+01 0. -1.
         -5    1    4    4    0  502 -0.27160782987E+02  0.48840248670E+02  0.16399715076E+02  0.58430460183E+02  0.47000000000E+01 0. -1.
<mgrwt>
<rscale>  0 0.99844852E+03</rscale>
<asrwt>0</asrwt>
<pdfrwt beam="1">  1        2 0.13522953E+00 0.99844852E+03</pdfrwt>
<pdfrwt beam="2">  1       -2 0.43620747E-01 0.99844852E+03</pdfrwt>
<totfact> 0.18271069E+02</totfact>
</mgrwt>
</event>
<event>
 9    1  0.4497870E-036  0.1000355E+04  0.7818608E-02  0.8680700E-01
         -4   -1    0    0    0  501 -0.00000000000E+00  0.00000000000E+00  0.12345274640E+04  0.12345274640E+04  0.00000000000E+00 0. -1.
          4   -1    0    0  501    0  0.00000000000E+00 -0.00000000000E+00 -0.20265030871E+03  0.20265030871E+03  0.00000000000E+00 0. -1.
         36    2    1    2    0    0  0.28421709430E-13 -0.14210854715E-13  0.10318771553E+04  0.14371777727E+04  0.10003546805E+04 0.  0.
         25    2    3    3    0    0 -0.12807476788E+03  0.40391785783E+02  0.13029575021E+03  0.22440899420E+03  0.12388612363E+03 0.  0.
         35    2    3    3    0    0  0.12807476788E+03 -0.40391785783E+02  0.90158140511E+03  0.12127687786E+04  0.79995277214E+03 0.  0.
         22    1    5    5    0    0 -0.14925754254E+03 -0.33197020510E+03  0.23219135864E+03  0.43173470802E+03  0.00000000000E+00 0. -1.
         22    1    5    5    0    0  0.27733231042E+03  0.29157841932E+03  0.66939004647E+03  0.78103407053E+03  0.00000000000E+00 0. -1.
          5    1    4    4  502    0 -0.68406430222E+02  0.68279976676E+02  0.12512281924E+03  0.15817523449E+03  0.47000000000E+01 0. -1.
         -5    1    4    4    0  502 -0.59668337660E+02 -0.27888190893E+02  0.51729309684E+01  0.66233759709E+02  0.47000000000E+01 0. -1.
<mgrwt>
<rscale>  0 0.10003547E+04</rscale>
<asrwt>0</asrwt>
<pdfrwt beam="1">  1        4 0.31176971E-01 0.10003547E+04</pdfrwt>
<pdfrwt beam="2">  1       -4 0.18992730E+00 0.10003547E+04</pdfrwt>
<totfact> 0.27910577E+00</totfact>
</mgrwt>
</event>
<event>
 9    1  0.4497870E-036  0.9997541E+03  0.7818608E-02  0.8681272E-01
         -1   -1    0    0    0  501 -0.00000000000E+00  0.00000000000E+00  0.15657663959E+03  0.15657663959E+03  0.00000000000E+00 0. -1.
          1   -1    0    0  501    0  0.00000000000E+00 -0.00000000000E+00 -0.15958769664E+04  0.15958769664E+04  0.00000000000E+00 0. -1.
         36    2    1    2    0    0  0.00000000000E+00 -0.71054273576E-14 -0.14393003268E+04  0.17524536060E+04  0.99975407494E+03 0.  0.
         25    2    3    3    0    0  0.71745825572E+02 -0.33420253042E+02 -0.47153282883E+03  0.49398555013E+03  0.12415368813E+03 0.  0.
         35    2    3    3    0    0 -0.71745825572E+02  0.33420253042E+02 -0.96776749797E+03  0.12584680558E+04  0.80056451372E+03 0.  0.
         22    1    5    5    0    0 -0.39793493346E+03  0.15913381157E+03 -0.37098796706E+03  0.56684023583E+03  0.00000000000E+00 0.  1.
         22    1    5    5    0    0  0.32618910788E+03 -0.12571355853E+03 -0.59677953091E+03  0.69162782001E+03  0.00000000000E+00 0.  1.
          5    1    4    4  502    0  0.65249157956E+02  0.19244098299E+02 -0.11658720087E+03  0.13506462653E+03  0.47000000000E+01 0. -1.
         -5    1    4    4    0  502  0.64966676157E+01 -0.52664351341E+02 -0.35494562796E+03  0.35892092360E+03  0.47000000000E+01 0. -1.
<mgrwt>
<rscale>  0 0.99975407E+03</rscale>
<asrwt>0</asrwt>
<pdfrwt beam="1">  1        1 0.24551954E+00 0.99975407E+03</pdfrwt>
<pdfrwt beam="2">  1       -1 0.24088714E-01 0.99975407E+03</pdfrwt>
<totfact> 0.89922242E+01</totfact>
</mgrwt>
</event>
<event>
 9    1  0.4497870E-036  0.9976640E+03  0.7818608E-02  0.8683266E-01
          1   -1    0    0  501    0  0.00000000000E+00  0.00000000000E+00  0.98511219131E+03  0.98511219131E+03  0.00000000000E+00 0.  1.
         -1   -1    0    0    0  501 -0.00000000000E+00 -0.00000000000E+00 -0.25259390990E+03  0.25259390990E+03  0.00000000000E+00 0.  1.
         36    2    1    2    0    0  0.00000000000E+00 -0.56843418861E-13  0.73251828141E+03  0.12377061012E+04  0.99766395162E+03 0.  0.
         25    2    3    3    0    0 -0.21889091629E+02 -0.13087679231E+03  0.17384840538E+03  0.25206662484E+03  0.12532536937E+03 0.  0.
         35    2    3    3    0    0  0.21889091629E+02  0.13087679231E+03  0.55866987603E+03  0.98563947637E+03  0.80110254019E+03 0.  0.
         22    1    5    5    0    0  0.35414938010E+03 -0.13325151285E+03  0.33742777034E+03  0.50698643897E+03  0.00000000000E+00 0. -1.
         22    1    5    5    0    0 -0.33226028847E+03  0.26412830516E+03  0.22124210569E+03  0.47865303740E+03  0.00000000000E+00 0. -1.
          5    1    4    4  502    0  0.52079319379E+02 -0.44762648943E+02  0.62205789688E+02  0.92777155152E+02  0.47000000000E+01 0. -1.
         -5    1    4    4    0  502 -0.73968411008E+02 -0.86114143367E+02  0.11164261569E+03  0.15928946969E+03  0.47000000000E+01 0. -1.
<mgrwt>
<rscale>  0 0.99766395E+03</rscale>
<asrwt>0</asrwt>
<pdfrwt beam="1">  1        1 0.15155572E+00 0.99766395E+03</pdfrwt>
<pdfrwt beam="2">  1       -1 0.38860602E-01 0.99766395E+03</pdfrwt>
<totfact> 0.11185026E+02</totfact>
</mgrwt>
</event>
<event>
 9    1  0.4497870E-036  0.1000025E+04  0.7818608E-02  0.8681014E-01
          1   -1    0    0  501    0  0.00000000000E+00  0.00000000000E+00  0.55310372563E+03  0.55310372563E+03  0.00000000000E+00 0. -1.
         -1   -1    0    0    0  501 -0.00000000000E+00 -0.00000000000E+00 -0.45201760239E+03  0.45201760239E+03  0.00000000000E+00 0. -1.
         36    2    1    2    0    0  0.00000000000E+00  0.17763568394E-13  0.10108612324E+03  0.10051213280E+04  0.10000252395E+04 0.  0.
         25    2    3    3    0    0  0.13773559457E+03  0.19382454403E+02  0.43389875344E+02  0.19171283400E+03  0.12459677318E+03 0.  0.
         35    2    3    3    0    0 -0.13773559457E+03 -0.19382454403E+02  0.57696247893E+02  0.81340849402E+03  0.79934832681E+03 0.  0.
         22    1    5    5    0    0 -0.34158785153E+03  0.27644318648E+03 -0.39570904392E+02  0.44121304620E+03  0.00000000000E+00 0. -1.
         22    1    5    5    0    0  0.20385225696E+03 -0.29582564088E+03  0.97267152284E+02  0.37219544782E+03  0.00000000000E+00 0. -1.
          5    1    4    4  502    0  0.12678886189E+03  0.14631799858E+02  0.81498136847E+02  0.15150426190E+03  0.47000000000E+01 0.  1.
         -5    1    4    4    0  502  0.10946732688E+02  0.47506545445E+01 -0.38108261503E+02  0.40208572095E+02  0.47000000000E+01 0.  1.
<mgrwt>
<rscale>  0 0.10000252E+04</rscale>
<asrwt>0</asrwt>
<pdfrwt beam="1">  1        1 0.85092881E-01 0.10000252E+04</pdfrwt>
<pdfrwt beam="2">  1       -1 0.69541169E-01 0.10000252E+04</pdfrwt>
<totfact> 0.94288621E+01</totfact>
</mgrwt>
</event>
<event>
 9    1  0.4497870E-036  0.9998163E+03  0.7818608E-02  0.8681213E-01
         -1   -1    0    0    0  501 -0.00000000000E+00  0.00000000000E+00  0.26676482946E+03  0.26676482946E+03  0.00000000000E+00 0. -1.
          1   -1    0    0  501    0  0.00000000000E+00 -0.00000000000E+00 -0.93681082159E+03  0.93681082159E+03  0.00000000000E+00 0. -1.
         36    2    1    2    0    0  0.71054273576E-14  0.28421709430E-13 -0.67004599213E+03  0.12035756511E+04  0.99981634126E+03 0.  0.
         25    2    3    3    0    0  0.51029912361E+02  0.10371310336E+03 -0.22185807614E+03  0.27941491324E+03  0.12446376190E+03 0.  0.
         35    2    3    3    0    0 -0.51029912361E+02 -0.10371310336E+03 -0.44818791599E+03  0.92416073782E+03  0.79990011971E+03 0.  0.
         22    1    5    5    0    0 -0.87498965984E+01 -0.22618422295E+03  0.17596335162E+03  0.28670361790E+03  0.00000000000E+00 0.  1.
         22    1    5    5    0    0 -0.42280015763E+02  0.12247111959E+03 -0.62415126761E+03  0.63745711991E+03  0.00000000000E+00 0.  1.
          5    1    4    4  502    0 -0.58439419948E+01  0.10884330343E+03 -0.11735850101E+03  0.16023771129E+03  0.47000000000E+01 0. -1.
         -5    1    4    4    0  502  0.56873854356E+02 -0.51302000695E+01 -0.10449957512E+03  0.11917720194E+03  0.47000000000E+01 0. -1.
<mgrwt>
<rscale>  0 0.99981634E+03</rscale>
<asrwt>0</asrwt>
<pdfrwt beam="1">  1        1 0.14412474E+00 0.99981634E+03</pdfrwt>
<pdfrwt beam="2">  1       -1 0.41040742E-01 0.99981634E+03</pdfrwt>
<totfact> 0.11101957E+02</totfact>
</mgrwt>
</event>
<event>
 9    1  0.4497870E-036  0.1001717E+04  0.7818608E-02  0.8679405E-01
          2   -1    0    0  501    0  0.00000000000E+00  0.00000000000E+00  0.21895702646E+04  0.21895702646E+04  0.00000000000E+00 0. -1.
         -2   -1    0    0    0  501 -0.00000000000E+00 -0.00000000000E+00 -0.11456998342E+03  0.11456998342E+03  0.00000000000E+00 0. -1.
         36    2    1    2    0    0  0.00000000000E+00 -0.14210854715E-13  0.20750002812E+04  0.23041402480E+04  0.10017165845E+04 0.  0.
         25    2    3    3    0    0  0.12362393602E+03  0.68596214888E+02  0.43419350870E+03  0.47324307365E+03  0.12428469536E+03 0.  0.
         35    2    3    3    0    0 -0.12362393602E+03 -0.68596214888E+02  0.16408067725E+04  0.18308971744E+04  0.79996829954E+03 0.  0.
         22    1    5    5    0    0 -0.41694685116E+03  0.11297646803E+03  0.63864902956E+03  0.77102590228E+03  0.00000000000E+00 0.  1.
         22    1    5    5    0    0  0.29332291514E+03 -0.18157268292E+03  0.10021577429E+04  0.10598712721E+04  0.00000000000E+00 0.  1.
          5    1    4    4  502    0  0.54217550028E+02 -0.20730082706E+02  0.25275899802E+03  0.25938095562E+03  0.47000000000E+01 0.  1.
         -5    1    4    4    0  502  0.69406385993E+02  0.89326297594E+02  0.18143451068E+03  0.21386211802E+03  0.47000000000E+01 0.  1.
<mgrwt>
<rscale>  0 0.10017166E+04</rscale>
<asrwt>0</asrwt>
<pdfrwt beam="1">  1        2 0.33685693E+00 0.10017166E+04</pdfrwt>
<pdfrwt beam="2">  1       -2 0.17626153E-01 0.10017166E+04</pdfrwt>
<totfact> 0.16205340E+02</totfact>
</mgrwt>
</event>
<event>
 9    1  0.4497870E-036  0.9994511E+03  0.7818608E-02  0.8681561E-01
          1   -1    0    0  501    0  0.00000000000E+00  0.00000000000E+00  0.24290255238E+04  0.24290255238E+04  0.00000000000E+00 0.  1.
         -1   -1    0    0    0  501 -0.00000000000E+00 -0.00000000000E+00 -0.10280896639E+03  0.10280896639E+03  0.00000000000E+00 0.  1.
         36    2    1    2    0    0  0.00000000000E+00  0.00000000000E+00  0.23262165574E+04  0.25318344902E+04  0.99945105620E+03 0.  0.
         25    2    3    3    0    0 -0.12383281141E+03 -0.18070969711E+02  0.58969518653E+03  0.61577831367E+03  0.12562401619E+03 0.  0.
         35    2    3    3    0    0  0.12383281141E+03  0.18070969711E+02  0.17365213709E+04  0.19160561765E+04  0.80006479420E+03 0.  0.
         22    1    5    5    0    0 -0.27158977340E+03  0.21051359810E+03  0.52760600368E+03  0.62963884499E+03  0.00000000000E+00 0.  1.
         22    1    5    5    0    0  0.39542258481E+03 -0.19244262839E+03  0.12089153672E+04  0.12864173315E+04  0.00000000000E+00 0.  1.
          5    1    4    4  502    0 -0.14159256703E+03 -0.38837633267E+02  0.52959970477E+03  0.54959508193E+03  0.47000000000E+01 0. -1.
         -5    1    4    4    0  502  0.17759755620E+02  0.20766663556E+02  0.60095481762E+02  0.66183231737E+02  0.47000000000E+01 0. -1.
<mgrwt>
<rscale>  0 0.99945106E+03</rscale>
<asrwt>0</asrwt>
<pdfrwt beam="1">  1        1 0.37369619E+00 0.99945106E+03</pdfrwt>
<pdfrwt beam="2">  1       -1 0.15816766E-01 0.99945106E+03</pdfrwt>
<totfact> 0.46739874E+01</totfact>
</mgrwt>
</event>
<event>
 9    1  0.4497870E-036  0.1000209E+04  0.7818608E-02  0.8680839E-01
          1   -1    0    0  501    0  0.00000000000E+00  0.00000000000E+00  0.33834631214E+04  0.33834631214E+04  0.00000000000E+00 0.  1.
         -1   -1    0    0    0  501 -0.00000000000E+00 -0.00000000000E+00 -0.73919725820E+02  0.73919725820E+02  0.00000000000E+00 0.  1.
         36    2    1    2    0    0 -0.53290705182E-14  0.56843418861E-13  0.33095433956E+04  0.34573828472E+04  0.10002093106E+04 0.  0.
         25    2    3    3    0    0 -0.96445383762E+01  0.11349722508E+03  0.33756638250E+03  0.37766125081E+03  0.12530890052E+03 0.  0.
         35    2    3    3    0    0  0.96445383762E+01 -0.11349722508E+03  0.29719770131E+04  0.30797215964E+04  0.79941422796E+03 0.  0.
         22    1    5    5    0    0  0.12910109443E+03  0.30437255568E+03  0.81710868998E+03  0.88146262341E+03  0.00000000000E+00 0. -1.
         22    1    5    5    0    0 -0.11945655605E+03 -0.41786978075E+03  0.21548683231E+04  0.21982589730E+04  0.00000000000E+00 0. -1.
          5    1    4    4  502    0 -0.15913285597E+02  0.12790628781E+03  0.19276941812E+03  0.23193833163E+03  0.47000000000E+01 0. -1.
         -5    1    4    4    0  502  0.62687472206E+01 -0.14409062728E+02  0.14479696438E+03  0.14572291918E+03  0.47000000000E+01 0. -1.
<mgrwt>
<rscale>  0 0.10002093E+04</rscale>
<asrwt>0</asrwt>
<pdfrwt beam="1">  1        1 0.52053267E+00 0.10002093E+04</pdfrwt>
<pdfrwt beam="2">  1       -1 0.11372268E-01 0.10002093E+04</pdfrwt>
<totfact> 0.16320959E+01</totfact>
</mgrwt>
</event>
<event>
 9    1  0.4497870E-036  0.1001239E+04  0.7818608E-02  0.8679859E-01
         -2   -1    0    0    0  501 -0.00000000000E+00  0.00000000000E+00  0.50137746115E+03  0.50137746115E+03  0.00000000000E+00 0. -1.
          2   -1    0    0  501    0  0.00000000000E+00 -0.00000000000E+00 -0.49986285906E+03  0.49986285906E+03  0.00000000000E+00 0. -1.
         36    2    1    2    0    0 -0.35527136788E-13  0.00000000000E+00  0.15146020909E+01  0.10012403202E+04  0.10012391746E+04 0.  0.
         25    2    3    3    0    0  0.49178860179E+02  0.13128866886E+03  0.20981384186E+02  0.18929047940E+03  0.12544079181E+03 0.  0.
         35    2    3    3    0    0 -0.49178860179E+02 -0.13128866886E+03 -0.19466782095E+02  0.81194984082E+03  0.79951755049E+03 0.  0.
         22    1    5    5    0    0  0.37010673032E+03 -0.66415953061E+01 -0.49686161724E+02  0.37348603359E+03  0.00000000000E+00 0.  1.
         22    1    5    5    0    0 -0.41928559050E+03 -0.12464707355E+03  0.30219379629E+02  0.43846380723E+03  0.00000000000E+00 0.  1.
          5    1    4    4  502    0  0.87812134695E+02  0.59419982829E+02  0.68847747384E+01  0.10635410421E+03  0.47000000000E+01 0.  1.
         -5    1    4    4    0  502 -0.38633274516E+02  0.71868686027E+02  0.14096609447E+02  0.82936375186E+02  0.47000000000E+01 0.  1.
<mgrwt>
<rscale>  0 0.10012392E+04</rscale>
<asrwt>0</asrwt>
<pdfrwt beam="1">  1        2 0.76901978E-01 0.10012392E+04</pdfrwt>
<pdfrwt beam="2">  1       -2 0.77134994E-01 0.10012392E+04</pdfrwt>
<totfact> 0.11152336E+02</totfact>
</mgrwt>
</event>
<event>
 9    1  0.4497870E-036  0.9979983E+03  0.7818608E-02  0.8682946E-01
         -2   -1    0    0    0  501 -0.00000000000E+00  0.00000000000E+00  0.17642178369E+03  0.17642178369E+03  0.00000000000E+00 0.  1.
          2   -1    0    0  501    0  0.00000000000E+00 -0.00000000000E+00 -0.14113912732E+04  0.14113912732E+04  0.00000000000E+00 0.  1.
         36    2    1    2    0    0  0.14210854715E-13  0.00000000000E+00 -0.12349694895E+04  0.15878130568E+04  0.99799832844E+03 0.  0.
         25    2    3    3    0    0  0.31369143171E+02 -0.47696381443E+02 -0.42899642591E+03  0.45115639979E+03  0.12745664235E+03 0.  0.
         35    2    3    3    0    0 -0.31369143171E+02  0.47696381443E+02 -0.80597306355E+03  0.11366566570E+04  0.79946032353E+03 0.  0.
         22    1    5    5    0    0  0.14998526359E+03  0.97656436045E+02 -0.90606668031E+03  0.92357413777E+03  0.00000000000E+00 0.  1.
         22    1    5    5    0    0 -0.18135440676E+03 -0.49960054602E+02  0.10009361676E+03  0.21308251928E+03  0.00000000000E+00 0.  1.
          5    1    4    4  502    0 -0.38615392071E+02 -0.54337916819E+02 -0.25042474489E+03  0.25918796376E+03  0.47000000000E+01 0.  1.
         -5    1    4    4    0  502  0.69984535241E+02  0.66415353763E+01 -0.17857168103E+03  0.19196843603E+03  0.47000000000E+01 0.  1.
<mgrwt>
<rscale>  0 0.99799833E+03</rscale>
<asrwt>0</asrwt>
<pdfrwt beam="1">  1        2 0.21713712E+00 0.99799833E+03</pdfrwt>
<pdfrwt beam="2">  1       -2 0.27141812E-01 0.99799833E+03</pdfrwt>
<totfact> 0.21076660E+02</totfact>
</mgrwt>
</event>
<event>
 9    1  0.4497870E-036  0.1000272E+04  0.7818608E-02  0.8680779E-01
         -2   -1    0    0    0  501 -0.00000000000E+00  0.00000000000E+00  0.79634229663E+03  0.79634229663E+03  0.00000000000E+00 0.  1.
          2   -1    0    0  501    0  0.00000000000E+00 -0.00000000000E+00 -0.31410604807E+03  0.31410604807E+03  0.00000000000E+00 0.  1.
         36    2    1    2    0    0 -0.14210854715E-13  0.14210854715E-13  0.48223624856E+03  0.11104483447E+04  0.10002718265E+04 0.  0.
         25    2    3    3    0    0 -0.82843568407E+02 -0.44187640510E+02  0.20502173721E+03  0.25815676693E+03  0.12567974852E+03 0.  0.
         35    2    3    3    0    0  0.82843568407E+02  0.44187640510E+02  0.27721451135E+03  0.85229157776E+03  0.80046076969E+03 0.  0.
         22    1    5    5    0    0  0.40872025512E+03 -0.13647557937E+03  0.18164836861E+03  0.46762587667E+03  0.00000000000E+00 0.  1.
         22    1    5    5    0    0 -0.32587668671E+03  0.18066321988E+03  0.95566142740E+02  0.38466570109E+03  0.00000000000E+00 0.  1.
          5    1    4    4  502    0 -0.37934711296E+02  0.21130596063E+02  0.62631452331E+01  0.44123252366E+02  0.47000000000E+01 0.  1.
         -5    1    4    4    0  502 -0.44908857111E+02 -0.65318236573E+02  0.19875859197E+03  0.21403351457E+03  0.47000000000E+01 0.  1.
<mgrwt>
<rscale>  0 0.10002718E+04</rscale>
<asrwt>0</asrwt>
<pdfrwt beam="1">  1        2 0.48324008E-01 0.10002718E+04</pdfrwt>
<pdfrwt beam="2">  1       -2 0.12251420E+00 0.10002718E+04</pdfrwt>
<totfact> 0.61171328E+01</totfact>
</mgrwt>
</event>
<event>
 9    1  0.4497870E-036  0.9997550E+03  0.7818608E-02  0.8681271E-01
         -2   -1    0    0    0  501 -0.00000000000E+00  0.00000000000E+00  0.65040157550E+02  0.65040157550E+02  0.00000000000E+00 0. -1.
          2   -1    0    0  501    0  0.00000000000E+00 -0.00000000000E+00 -0.38418961633E+04  0.38418961633E+04  0.00000000000E+00 0. -1.
         36    2    1    2    0    0  0.00000000000E+00  0.71054273576E-14 -0.37768560058E+04  0.39069363209E+04  0.99975503350E+03 0.  0.
         25    2    3    3    0    0  0.96728435991E+02  0.57052188401E+02 -0.10262508484E+04  0.10399672678E+04  0.12541838613E+03 0.  0.
         35    2    3    3    0    0 -0.96728435991E+02 -0.57052188401E+02 -0.27506051573E+04  0.28669690531E+04  0.80066939330E+03 0.  0.
         22    1    5    5    0    0  0.67315820651E+02 -0.57522379453E+02  0.20602329749E+02  0.90910394560E+02  0.00000000000E+00 0. -1.
         22    1    5    5    0    0 -0.16404425664E+03  0.47019105220E+00 -0.27712074871E+04  0.27760586585E+04  0.00000000000E+00 0. -1.
          5    1    4    4  502    0  0.65711175418E+02  0.17213132248E+02 -0.91697224370E+03  0.91949683861E+03  0.47000000000E+01 0.  1.
         -5    1    4    4    0  502  0.31017260572E+02  0.39839056153E+02 -0.10927860475E+03  0.12047042917E+03  0.47000000000E+01 0.  1.
<mgrwt>
<rscale>  0 0.99975503E+03</rscale>
<asrwt>0</asrwt>
<pdfrwt beam="1">  1        2 0.59106116E+00 0.99975503E+03</pdfrwt>
<pdfrwt beam="2">  1       -2 0.10006175E-01 0.99975503E+03</pdfrwt>
<totfact> 0.30896916E+01</totfact>
</mgrwt>
</event>
<event>
 9    1  0.4497870E-036  0.9989492E+03  0.7818608E-02  0.8682039E-01
         -2   -1    0    0    0  501 -0.00000000000E+00  0.00000000000E+00  0.73574617815E+03  0.73574617815E+03  0.00000000000E+00 0. -1.
          2   -1    0    0  501    0  0.00000000000E+00 -0.00000000000E+00 -0.33907734212E+03  0.33907734212E+03  0.00000000000E+00 0. -1.
         36    2    1    2    0    0  0.00000000000E+00  0.00000000000E+00  0.39666883604E+03  0.10748235203E+04  0.99894916499E+03 0.  0.
         25    2    3    3    0    0  0.62798558873E+02  0.12279208841E+03  0.93535091032E+02  0.20823513587E+03  0.12486593844E+03 0.  0.
         35    2    3    3    0    0 -0.62798558873E+02 -0.12279208841E+03  0.30313374500E+03  0.86658838440E+03  0.80003987691E+03 0.  0.
         22    1    5    5    0    0  0.80059504340E+02  0.32028415986E+03  0.21162198868E+03  0.39214198116E+03  0.00000000000E+00 0.  1.
         22    1    5    5    0    0 -0.14285806321E+03 -0.44307624827E+03  0.91511756322E+02  0.47444640324E+03  0.00000000000E+00 0.  1.
          5    1    4    4  502    0  0.58000479964E+02  0.11174733732E+03  0.12988945681E+02  0.12665830326E+03  0.47000000000E+01 0. -1.
         -5    1    4    4    0  502  0.47980789090E+01  0.11044751088E+02  0.80546145351E+02  0.81576832611E+02  0.47000000000E+01 0. -1.
<mgrwt>
<rscale>  0 0.99894916E+03</rscale>
<asrwt>0</asrwt>
<pdfrwt beam="1">  1        2 0.52165745E-01 0.99894916E+03</pdfrwt>
<pdfrwt beam="2">  1       -2 0.11319172E+00 0.99894916E+03</pdfrwt>
<totfact> 0.68947652E+01</totfact>
</mgrwt>
</event>
<event>
 9    1  0.4497870E-036  0.1000084E+04  0.7818608E-02  0.8680958E-01
          2   -1    0    0  501    0  0.00000000000E+00  0.00000000000E+00  0.21825645004E+04  0.21825645004E+04  0.00000000000E+00 0. -1.
         -2   -1    0    0    0  501 -0.00000000000E+00 -0.00000000000E+00 -0.11456334809E+03  0.11456334809E+03  0.00000000000E+00 0. -1.
         36    2    1    2    0    0  0.00000000000E+00  0.71054273576E-14  0.20680011523E+04  0.22971278485E+04  0.10000837897E+04 0.  0.
         25    2    3    3    0    0  0.93628666824E+02  0.19264684769E+02  0.15331672411E+03  0.21970414427E+03  0.12500575101E+03 0.  0.
         35    2    3    3    0    0 -0.93628666824E+02 -0.19264684769E+02  0.19146844282E+04  0.20774237042E+04  0.80033451256E+03 0.  0.
         22    1    5    5    0    0 -0.14539059806E+03  0.17579603623E+03  0.18521485475E+04  0.18661449339E+04  0.00000000000E+00 0. -1.
         22    1    5    5    0    0  0.51761931240E+02 -0.19506072100E+03  0.62535880657E+02  0.21127877028E+03  0.00000000000E+00 0. -1.
          5    1    4    4  502    0  0.96949027756E+02  0.30757439716E+02  0.46185817278E+02  0.11180498110E+03  0.47000000000E+01 0. -1.
         -5    1    4    4    0  502 -0.33203609317E+01 -0.11492754947E+02  0.10713090684E+03  0.10789916317E+03  0.47000000000E+01 0. -1.
<mgrwt>
<rscale>  0 0.10000838E+04</rscale>
<asrwt>0</asrwt>
<pdfrwt beam="1">  1        2 0.33577912E+00 0.10000838E+04</pdfrwt>
<pdfrwt beam="2">  1       -2 0.17625132E-01 0.10000838E+04</pdfrwt>
<totfact> 0.16359651E+02</totfact>
</mgrwt>
</event>
<event>
 9    1  0.4497870E-036  0.1000007E+04  0.7818608E-02  0.8681031E-01
         -2   -1    0    0    0  501 -0.00000000000E+00  0.00000000000E+00  0.29223020031E+03  0.29223020031E+03  0.00000000000E+00 0.  1.
          2   -1    0    0  501    0  0.00000000000E+00 -0.00000000000E+00 -0.85550273856E+03  0.85550273856E+03  0.00000000000E+00 0.  1.
         36    2    1    2    0    0 -0.28421709430E-13 -0.35527136788E-13 -0.56327253825E+03  0.11477329389E+04  0.10000074733E+04 0.  0.
         25    2    3    3    0    0 -0.76776596514E+02  0.48647813008E+02  0.15267729275E+02  0.15609313827E+03  0.12597900133E+03 0.  0.
         35    2    3    3    0    0  0.76776596514E+02 -0.48647813008E+02 -0.57854026753E+03  0.99163980060E+03  0.80023708830E+03 0.  0.
         22    1    5    5    0    0 -0.26873511195E+03 -0.26544210823E+03 -0.38778122247E+03  0.54134309797E+03  0.00000000000E+00 0.  1.
         22    1    5    5    0    0  0.34551170846E+03  0.21679429522E+03 -0.19075904506E+03  0.45029670263E+03  0.00000000000E+00 0.  1.
          5    1    4    4  502    0 -0.84757104118E+02  0.55967971646E+02 -0.32612203614E+02  0.10677933495E+03  0.47000000000E+01 0. -1.
         -5    1    4    4    0  502  0.79805076034E+01 -0.73201586383E+01  0.47879932889E+02  0.49313803317E+02  0.47000000000E+01 0. -1.
<mgrwt>
<rscale>  0 0.10000075E+04</rscale>
<asrwt>0</asrwt>
<pdfrwt beam="1">  1        2 0.13161580E+00 0.10000075E+04</pdfrwt>
<pdfrwt beam="2">  1       -2 0.44958493E-01 0.10000075E+04</pdfrwt>
<totfact> 0.17861109E+02</totfact>
</mgrwt>
</event>
<event>
 9    1  0.4497870E-036  0.1001485E+04  0.7818608E-02  0.8679625E-01
          2   -1    0    0  501    0  0.00000000000E+00  0.00000000000E+00  0.51094626564E+03  0.51094626564E+03  0.00000000000E+00 0.  1.
         -2   -1    0    0    0  501 -0.00000000000E+00 -0.00000000000E+00 -0.49074212047E+03  0.49074212047E+03  0.00000000000E+00 0.  1.
         36    2    1    2    0    0  0.14210854715E-13  0.00000000000E+00  0.20204145172E+02  0.10016883861E+04  0.10014846057E+04 0.  0.
         25    2    3    3    0    0 -0.29584627584E+02 -0.75164157545E+02 -0.11196458489E+03  0.18714205401E+03  0.12633756108E+03 0.  0.
         35    2    3    3    0    0  0.29584627584E+02  0.75164157545E+02  0.13216873006E+03  0.81454633211E+03  0.79968259527E+03 0.  0.
         22    1    5    5    0    0  0.34322606143E+03 -0.38885659951E+02  0.28468106242E+03  0.44761538300E+03  0.00000000000E+00 0.  1.
         22    1    5    5    0    0 -0.31364143385E+03  0.11404981750E+03 -0.15251233236E+03  0.36693094911E+03  0.00000000000E+00 0.  1.
          5    1    4    4  502    0  0.37053590289E+02 -0.74024486915E+02 -0.67094144859E+02  0.10665977447E+03  0.47000000000E+01 0. -1.
         -5    1    4    4    0  502 -0.66638217873E+02 -0.11396706296E+01 -0.44870440028E+02  0.80482279533E+02  0.47000000000E+01 0. -1.
<mgrwt>
<rscale>  0 0.10014846E+04</rscale>
<asrwt>0</asrwt>
<pdfrwt beam="1">  1        2 0.78607118E-01 0.10014846E+04</pdfrwt>
<pdfrwt beam="2">  1       -2 0.75498788E-01 0.10014846E+04</pdfrwt>
<totfact> 0.11411006E+02</totfact>
</mgrwt>
</event>
<event>
 9    1  0.4497870E-036  0.9995176E+03  0.7818608E-02  0.8681497E-01
         -1   -1    0    0    0  501 -0.00000000000E+00  0.00000000000E+00  0.12508239926E+03  0.12508239926E+03  0.00000000000E+00 0.  1.
          1   -1    0    0  501    0  0.00000000000E+00 -0.00000000000E+00 -0.19967547766E+04  0.19967547766E+04  0.00000000000E+00 0.  1.
         36    2    1    2    0    0 -0.14210854715E-13 -0.28421709430E-13 -0.18716723773E+04  0.21218371759E+04  0.99951764005E+03 0.  0.
         25    2    3    3    0    0 -0.11155014036E+03 -0.34732233373E+02 -0.18673419658E+03  0.25295386641E+03  0.12436332460E+03 0.  0.
         35    2    3    3    0    0  0.11155014036E+03  0.34732233373E+02 -0.16849381808E+04  0.18688833095E+04  0.80003649263E+03 0.  0.
         22    1    5    5    0    0 -0.65689870314E+02  0.35050634702E+03 -0.40937382390E+03  0.54291508182E+03  0.00000000000E+00 0. -1.
         22    1    5    5    0    0  0.17724001068E+03 -0.31577411365E+03 -0.12755643569E+04  0.13259682276E+04  0.00000000000E+00 0. -1.
          5    1    4    4  502    0 -0.28054528805E+02 -0.42624227378E+02 -0.34765080017E+01  0.51362023460E+02  0.47000000000E+01 0. -1.
         -5    1    4    4    0  502 -0.83495611559E+02  0.78919940053E+01 -0.18325768858E+03  0.20159184294E+03  0.47000000000E+01 0. -1.
<mgrwt>
<rscale>  0 0.99951764E+03</rscale>
<asrwt>0</asrwt>
<pdfrwt beam="1">  1        1 0.30719305E+00 0.99951764E+03</pdfrwt>
<pdfrwt beam="2">  1       -1 0.19243446E-01 0.99951764E+03</pdfrwt>
<totfact> 0.68238438E+01</totfact>
</mgrwt>
</event>
<event>
 9    1  0.4497870E-036  0.9993059E+03  0.7818608E-02  0.8681699E-01
          2   -1    0    0  501    0  0.00000000000E+00  0.00000000000E+00  0.21094369512E+04  0.21094369512E+04  0.00000000000E+00 0.  1.
         -2   -1    0    0    0  501 -0.00000000000E+00 -0.00000000000E+00 -0.11835057230E+03  0.11835057230E+03  0.00000000000E+00 0.  1.
         36    2    1    2    0    0 -0.14210854715E-13  0.00000000000E+00  0.19910863789E+04  0.22277875235E+04  0.99930589990E+03 0.  0.
         25    2    3    3    0    0 -0.59600415013E+02 -0.83488652357E+02  0.16555918876E+03  0.23167719274E+03  0.12546677692E+03 0.  0.
         35    2    3    3    0    0  0.59600415013E+02  0.83488652357E+02  0.18255271901E+04  0.19961103307E+04  0.80086476140E+03 0.  0.
         22    1    5    5    0    0  0.17229322116E+03  0.38073459034E+03  0.60803423845E+03  0.73780039134E+03  0.00000000000E+00 0.  1.
         22    1    5    5    0    0 -0.11269280615E+03 -0.29724593798E+03  0.12174929516E+04  0.12583099394E+04  0.00000000000E+00 0.  1.
          5    1    4    4  502    0  0.25542254320E+02  0.80643017314E+01  0.42330440608E+01  0.27521780106E+02  0.47000000000E+01 0.  1.
         -5    1    4    4    0  502 -0.85142669333E+02 -0.91552954088E+02  0.16132614470E+03  0.20415541263E+03  0.47000000000E+01 0.  1.
<mgrwt>
<rscale>  0 0.99930590E+03</rscale>
<asrwt>0</asrwt>
<pdfrwt beam="1">  1        2 0.32452873E+00 0.99930590E+03</pdfrwt>
<pdfrwt beam="2">  1       -2 0.18207782E-01 0.99930590E+03</pdfrwt>
<totfact> 0.17057118E+02</totfact>
</mgrwt>
</event>
<event>
 9    1  0.4497870E-036  0.9987897E+03  0.7818608E-02  0.8682191E-01
          1   -1    0    0  501    0  0.00000000000E+00  0.00000000000E+00  0.24117192009E+03  0.24117192009E+03  0.00000000000E+00 0.  1.
         -1   -1    0    0    0  501 -0.00000000000E+00 -0.00000000000E+00 -0.10340972380E+04  0.10340972380E+04  0.00000000000E+00 0.  1.
         36    2    1    2    0    0  0.00000000000E+00 -0.35527136788E-13 -0.79292531787E+03  0.12752691580E+04  0.99878970046E+03 0.  0.
         25    2    3    3    0    0 -0.86076673218E+02 -0.13348249974E+02 -0.28595315474E+03  0.32402201199E+03  0.12503474758E+03 0.  0.
         35    2    3    3    0    0  0.86076673218E+02  0.13348249974E+02 -0.50697216314E+03  0.95124714605E+03  0.80016435139E+03 0.  0.
         22    1    5    5    0    0  0.15396486231E+03 -0.25407469080E+03  0.75678818909E+02  0.30657203226E+03  0.00000000000E+00 0. -1.
         22    1    5    5    0    0 -0.67888189097E+02  0.26742294077E+03 -0.58265098205E+03  0.64467511380E+03  0.00000000000E+00 0. -1.
          5    1    4    4  502    0 -0.63077102326E+02 -0.50733416760E+02 -0.26101750149E+03  0.27332183685E+03  0.47000000000E+01 0. -1.
         -5    1    4    4    0  502 -0.22999570891E+02  0.37385166787E+02 -0.24935653248E+02  0.50700175145E+02  0.47000000000E+01 0. -1.
<mgrwt>
<rscale>  0 0.99878970E+03</rscale>
<asrwt>0</asrwt>
<pdfrwt beam="1">  1        1 0.37103373E-01 0.99878970E+03</pdfrwt>
<pdfrwt beam="2">  1       -1 0.15909188E+00 0.99878970E+03</pdfrwt>
<totfact> 0.40074995E+01</totfact>
</mgrwt>
</event>
<event>
 9    1  0.4497870E-036  0.1001251E+04  0.7818608E-02  0.8679848E-01
         -1   -1    0    0    0  501 -0.00000000000E+00  0.00000000000E+00  0.14905658679E+03  0.14905658679E+03  0.00000000000E+00 0.  1.
          1   -1    0    0  501    0  0.00000000000E+00 -0.00000000000E+00 -0.16814143260E+04  0.16814143260E+04  0.00000000000E+00 0.  1.
         36    2    1    2    0    0  0.00000000000E+00  0.28421709430E-13 -0.15323577392E+04  0.18304709128E+04  0.10012509784E+04 0.  0.
         25    2    3    3    0    0  0.37883321994E+02 -0.87164826104E+02 -0.97341044095E+02  0.18477622859E+03  0.12503648584E+03 0.  0.
         35    2    3    3    0    0 -0.37883321994E+02  0.87164826104E+02 -0.14350166951E+04  0.16456946842E+04  0.80000326586E+03 0.  0.
         22    1    5    5    0    0  0.26965390397E+02  0.14971229679E+03  0.48330063276E+02  0.15961421962E+03  0.00000000000E+00 0. -1.
         22    1    5    5    0    0 -0.64848712392E+02 -0.62547470685E+02 -0.14833467584E+04  0.14860804646E+04  0.00000000000E+00 0. -1.
          5    1    4    4  502    0 -0.38345741820E+02 -0.67115759540E+02 -0.39770539732E+02  0.87055769050E+02  0.47000000000E+01 0.  1.
         -5    1    4    4    0  502  0.76229063814E+02 -0.20049066564E+02 -0.57570504364E+02  0.97720459540E+02  0.47000000000E+01 0.  1.
<mgrwt>
<rscale>  0 0.10012510E+04</rscale>
<asrwt>0</asrwt>
<pdfrwt beam="1">  1        1 0.25867915E+00 0.10012510E+04</pdfrwt>
<pdfrwt beam="2">  1       -1 0.22931781E-01 0.10012510E+04</pdfrwt>
<totfact> 0.84940174E+01</totfact>
</mgrwt>
</event>
<event>
 9    1  0.4497870E-036  0.1000920E+04  0.7818608E-02  0.8680162E-01
          1   -1    0    0  501    0  0.00000000000E+00  0.00000000000E+00  0.59051196853E+03  0.59051196853E+03  0.00000000000E+00 0.  1.
         -1   -1    0    0    0  501 -0.00000000000E+00 -0.00000000000E+00 -0.42414072031E+03  0.42414072031E+03  0.00000000000E+00 0.  1.
         36    2    1    2    0    0  0.14210854715E-13 -0.14210854715E-13  0.16637124822E+03  0.10146526888E+04  0.10009199202E+04 0.  0.
         25    2    3    3    0    0  0.74975565656E+02 -0.97402396926E+02 -0.39655273831E+02  0.18008801023E+03  0.12550134785E+03 0.  0.
         35    2    3    3    0    0 -0.74975565656E+02  0.97402396926E+02  0.20602652205E+03  0.83456467861E+03  0.79933892225E+03 0.  0.
         22    1    5    5    0    0 -0.17867498189E+02  0.37301323195E+03  0.35573892882E+03  0.51575992882E+03  0.00000000000E+00 0.  1.
         22    1    5    5    0    0 -0.57108067467E+02 -0.27561083502E+03 -0.14971240676E+03  0.31880474979E+03  0.00000000000E+00 0.  1.
          5    1    4    4  502    0 -0.12605768160E+02 -0.81816582217E+02 -0.37446922783E+02  0.90979231380E+02  0.47000000000E+01 0. -1.
         -5    1    4    4    0  502  0.87581333816E+02 -0.15585814709E+02 -0.22083510480E+01  0.89108778846E+02  0.47000000000E+01 0. -1.
<mgrwt>
<rscale>  0 0.10009199E+04</rscale>
<asrwt>0</asrwt>
<pdfrwt beam="1">  1        1 0.90847995E-01 0.10009199E+04</pdfrwt>
<pdfrwt beam="2">  1       -1 0.65252418E-01 0.10009199E+04</pdfrwt>
<totfact> 0.97246968E+01</totfact>
</mgrwt>
</event>
<event>
 9    1  0.4497870E-036  0.9992749E+03  0.7818608E-02  0.8681729E-01
         -2   -1    0    0    0  501 -0.00000000000E+00  0.00000000000E+00  0.20470543762E+03  0.20470543762E+03  0.00000000000E+00 0. -1.
          2   -1    0    0  501    0  0.00000000000E+00 -0.00000000000E+00 -0.12194966391E+04  0.12194966391E+04  0.00000000000E+00 0. -1.
         36    2    1    2    0    0  0.00000000000E+00  0.00000000000E+00 -0.10147912014E+04  0.14242020767E+04  0.99927492348E+03 0.  0.
         25    2    3    3    0    0  0.18602733297E+02  0.12426293149E+03 -0.29063341353E+03  0.34048835369E+03  0.12520862633E+03 0.  0.
         35    2    3    3    0    0 -0.18602733297E+02 -0.12426293149E+03 -0.72415778790E+03  0.10837137230E+04  0.79639411963E+03 0.  0.
         22    1    5    5    0    0 -0.13421713349E+03  0.53695849257E+02 -0.83283517939E+03  0.84528806875E+03  0.00000000000E+00 0.  1.
         22    1    5    5    0    0  0.11561440019E+03 -0.17795878075E+03  0.10867739149E+03  0.23842565424E+03  0.00000000000E+00 0.  1.
          5    1    4    4  502    0 -0.28764088905E+02  0.12244291932E+03 -0.17620104955E+03  0.21653762067E+03  0.47000000000E+01 0. -1.
         -5    1    4    4    0  502  0.47366822202E+02  0.18200121714E+01 -0.11443236398E+03  0.12395073302E+03  0.47000000000E+01 0. -1.
<mgrwt>
<rscale>  0 0.99927492E+03</rscale>
<asrwt>0</asrwt>
<pdfrwt beam="1">  1        2 0.18761486E+00 0.99927492E+03</pdfrwt>
<pdfrwt beam="2">  1       -2 0.31493145E-01 0.99927492E+03</pdfrwt>
<totfact> 0.20778127E+02</totfact>
</mgrwt>
</event>
<event>
 9    1  0.4497870E-036  0.1000102E+04  0.7818608E-02  0.8680941E-01
         -2   -1    0    0    0  501 -0.00000000000E+00  0.00000000000E+00  0.16687762454E+03  0.16687762454E+03  0.00000000000E+00 0.  1.
          2   -1    0    0  501    0  0.00000000000E+00 -0.00000000000E+00 -0.14984084728E+04  0.14984084728E+04  0.00000000000E+00 0.  1.
         36    2    1    2    0    0  0.28421709430E-13 -0.71054273576E-14 -0.13315308483E+04  0.16652860973E+04  0.10001016879E+04 0.  0.
         25    2    3    3    0    0 -0.13761732545E+03  0.19202016511E+02 -0.26261054901E+03  0.32269731694E+03  0.12594448065E+03 0.  0.
         35    2    3    3    0    0  0.13761732545E+03 -0.19202016511E+02 -0.10689202993E+04  0.13425887804E+04  0.80040413631E+03 0.  0.
         22    1    5    5    0    0 -0.13182132601E+03  0.11811901734E+03  0.49672439462E+02  0.18383774229E+03  0.00000000000E+00 0.  1.
         22    1    5    5    0    0  0.26943865146E+03 -0.13732103385E+03 -0.11185927387E+04  0.11587510381E+04  0.00000000000E+00 0.  1.
          5    1    4    4  502    0 -0.40206377261E+00  0.31927234071E+02 -0.12026378877E+03  0.12451898979E+03  0.47000000000E+01 0. -1.
         -5    1    4    4    0  502 -0.13721526168E+03 -0.12725217560E+02 -0.14234676025E+03  0.19817832715E+03  0.47000000000E+01 0. -1.
<mgrwt>
<rscale>  0 0.10001017E+04</rscale>
<asrwt>0</asrwt>
<pdfrwt beam="1">  1        2 0.23052438E+00 0.10001017E+04</pdfrwt>
<pdfrwt beam="2">  1       -2 0.25673480E-01 0.10001017E+04</pdfrwt>
<totfact> 0.20774243E+02</totfact>
</mgrwt>
</event>
<event>
 9    1  0.4497870E-036  0.1000232E+04  0.7818608E-02  0.8680817E-01
          4   -1    0    0  501    0  0.00000000000E+00  0.00000000000E+00  0.76578377807E+03  0.76578377807E+03  0.00000000000E+00 0.  1.
         -4   -1    0    0    0  501 -0.00000000000E+00 -0.00000000000E+00 -0.32661447272E+03  0.32661447272E+03  0.00000000000E+00 0.  1.
         36    2    1    2    0    0 -0.28421709430E-13  0.14210854715E-13  0.43916930535E+03  0.10923982508E+04  0.10002321028E+04 0.  0.
         25    2    3    3    0    0  0.10101303892E+03 -0.94302838666E+02  0.52887800539E+02  0.19350241873E+03  0.12469726219E+03 0.  0.
         35    2    3    3    0    0 -0.10101303892E+03  0.94302838666E+02  0.38628150481E+03  0.89889583205E+03  0.79981476387E+03 0.  0.
         22    1    5    5    0    0  0.28276422066E+03  0.21158875428E+03  0.34793916757E+03  0.49576916982E+03  0.00000000000E+00 0.  1.
         22    1    5    5    0    0 -0.38377725958E+03 -0.11728591561E+03  0.38342337245E+02  0.40312666223E+03  0.00000000000E+00 0.  1.
          5    1    4    4  502    0  0.10098840295E+03 -0.11451560107E+03  0.68619872892E+02  0.16746121155E+03  0.47000000000E+01 0.  1.
         -5    1    4    4    0  502  0.24635969832E-01  0.20212762402E+02 -0.15732072353E+02  0.26041207180E+02  0.47000000000E+01 0.  1.
<mgrwt>
<rscale>  0 0.10002321E+04</rscale>
<asrwt>0</asrwt>
<pdfrwt beam="1">  1        4 0.11781289E+00 0.10002321E+04</pdfrwt>
<pdfrwt beam="2">  1       -4 0.50248381E-01 0.10002321E+04</pdfrwt>
<totfact> 0.45738825E+00</totfact>
</mgrwt>
</event>
<event>
 9    1  0.4497870E-036  0.9998212E+03  0.7818608E-02  0.8681208E-01
         -1   -1    0    0    0  501 -0.00000000000E+00  0.00000000000E+00  0.56750209788E+03  0.56750209788E+03  0.00000000000E+00 0. -1.
          1   -1    0    0  501    0  0.00000000000E+00 -0.00000000000E+00 -0.44036947371E+03  0.44036947371E+03  0.00000000000E+00 0. -1.
         36    2    1    2    0    0  0.14210854715E-13  0.00000000000E+00  0.12713262417E+03  0.10078715716E+04  0.99982118435E+03 0.  0.
         25    2    3    3    0    0  0.58888908404E+02  0.12563457235E+03  0.40985612707E+02  0.19107751740E+03  0.12481525509E+03 0.  0.
         35    2    3    3    0    0 -0.58888908404E+02 -0.12563457235E+03  0.86147011467E+02  0.81679405419E+03  0.80029948774E+03 0.  0.
         22    1    5    5    0    0  0.31453904226E+03 -0.15564838015E+03 -0.14152616558E+03  0.37840571203E+03  0.00000000000E+00 0.  1.
         22    1    5    5    0    0 -0.37342795067E+03  0.30013807800E+02  0.22767317705E+03  0.43838834216E+03  0.00000000000E+00 0.  1.
          5    1    4    4  502    0 -0.19806872849E+02  0.10001188824E+03  0.35271538518E+02  0.10798546861E+03  0.47000000000E+01 0.  1.
         -5    1    4    4    0  502  0.78695781254E+02  0.25622684107E+02  0.57140741892E+01  0.83092048788E+02  0.47000000000E+01 0.  1.
<mgrwt>
<rscale>  0 0.99982118E+03</rscale>
<asrwt>0</asrwt>
<pdfrwt beam="1">  1        1 0.67749150E-01 0.99982118E+03</pdfrwt>
<pdfrwt beam="2">  1       -1 0.87308015E-01 0.99982118E+03</pdfrwt>
<totfact> 0.80886851E+01</totfact>
</mgrwt>
</event>
<event>
 9    1  0.4497870E-036  0.9998302E+03  0.7818608E-02  0.8681200E-01
          2   -1    0    0  501    0  0.00000000000E+00  0.00000000000E+00  0.15905780630E+04  0.15905780630E+04  0.00000000000E+00 0. -1.
         -2   -1    0    0    0  501 -0.00000000000E+00 -0.00000000000E+00 -0.15712219257E+03  0.15712219257E+03  0.00000000000E+00 0. -1.
         36    2    1    2    0    0 -0.14210854715E-13 -0.97699626167E-14  0.14334558705E+04  0.17477002556E+04  0.99983021102E+03 0.  0.
         25    2    3    3    0    0 -0.28346531113E+02  0.77798192047E+00  0.28424254587E+02  0.13129795430E+03  0.12500833361E+03 0.  0.
         35    2    3    3    0    0  0.28346531113E+02 -0.77798192047E+00  0.14050316159E+04  0.16164023013E+04  0.79864787420E+03 0.  0.
         22    1    5    5    0    0 -0.26329529771E+03  0.17375518322E+03  0.22259439896E+03  0.38608748224E+03  0.00000000000E+00 0. -1.
         22    1    5    5    0    0  0.29164182883E+03 -0.17453316515E+03  0.11824372169E+04  0.12303148191E+04  0.00000000000E+00 0. -1.
          5    1    4    4  502    0  0.48133646382E+02  0.19674899248E+01  0.25263703277E+02  0.54599117519E+02  0.47000000000E+01 0.  1.
         -5    1    4    4    0  502 -0.76480177494E+02 -0.11895080044E+01  0.31605513102E+01  0.76698836780E+02  0.47000000000E+01 0.  1.
<mgrwt>
<rscale>  0 0.99983021E+03</rscale>
<asrwt>0</asrwt>
<pdfrwt beam="1">  1        2 0.24470431E+00 0.99983021E+03</pdfrwt>
<pdfrwt beam="2">  1       -2 0.24172646E-01 0.99983021E+03</pdfrwt>
<totfact> 0.20503515E+02</totfact>
</mgrwt>
</event>
<event>
 9    1  0.4497870E-036  0.9996070E+03  0.7818608E-02  0.8681412E-01
         -2   -1    0    0    0  501 -0.00000000000E+00  0.00000000000E+00  0.21265726015E+03  0.21265726015E+03  0.00000000000E+00 0.  1.
          2   -1    0    0  501    0  0.00000000000E+00 -0.00000000000E+00 -0.11746768381E+04  0.11746768381E+04  0.00000000000E+00 0.  1.
         36    2    1    2    0    0  0.71054273576E-14  0.28421709430E-13 -0.96201957798E+03  0.13873340983E+04  0.99960703872E+03 0.  0.
         25    2    3    3    0    0 -0.41761236519E+02  0.96493373410E+02 -0.31090292567E+03  0.35073809522E+03  0.12369967768E+03 0.  0.
         35    2    3    3    0    0  0.41761236519E+02 -0.96493373410E+02 -0.65111665231E+03  0.10365960031E+04  0.79970207370E+03 0.  0.
         22    1    5    5    0    0  0.20671731629E+03  0.26400513213E+03 -0.52056328086E+03  0.61920666019E+03  0.00000000000E+00 0.  1.
         22    1    5    5    0    0 -0.16495607977E+03 -0.36049850554E+03 -0.13055337145E+03  0.41738934288E+03  0.00000000000E+00 0.  1.
          5    1    4    4  502    0  0.23806010523E+02  0.84441146443E+02 -0.22741110287E+03  0.24379280764E+03  0.47000000000E+01 0.  1.
         -5    1    4    4    0  502 -0.65567247042E+02  0.12052226967E+02 -0.83491822804E+02  0.10694528758E+03  0.47000000000E+01 0.  1.
<mgrwt>
<rscale>  0 0.99960704E+03</rscale>
<asrwt>0</asrwt>
<pdfrwt beam="1">  1        2 0.18071952E+00 0.99960704E+03</pdfrwt>
<pdfrwt beam="2">  1       -2 0.32716500E-01 0.99960704E+03</pdfrwt>
<totfact> 0.20590231E+02</totfact>
</mgrwt>
</event>
<event>
 9    1  0.4497870E-036  0.1000637E+04  0.7818608E-02  0.8680431E-01
         -2   -1    0    0    0  501 -0.00000000000E+00  0.00000000000E+00  0.29182214256E+03  0.29182214256E+03  0.00000000000E+00 0.  1.
          2   -1    0    0  501    0  0.00000000000E+00 -0.00000000000E+00 -0.85777847268E+03  0.85777847268E+03  0.00000000000E+00 0.  1.
         36    2    1    2    0    0  0.00000000000E+00  0.00000000000E+00 -0.56595633012E+03  0.11496006152E+04  0.10006373004E+04 0.  0.
         25    2    3    3    0    0 -0.60739525868E+02  0.10704138322E+03 -0.25620523802E+02  0.17626788440E+03  0.12355892564E+03 0.  0.
         35    2    3    3    0    0  0.60739525868E+02 -0.10704138322E+03 -0.54033580632E+03  0.97333273084E+03  0.80016665365E+03 0.  0.
         22    1    5    5    0    0 -0.19000977207E+03  0.12866051408E+03 -0.58302430855E+03  0.62655772737E+03  0.00000000000E+00 0. -1.
         22    1    5    5    0    0  0.25074929794E+03 -0.23570189731E+03  0.42688502231E+02  0.34677500347E+03  0.00000000000E+00 0. -1.
          5    1    4    4  502    0  0.32725847509E+02  0.88303099156E+01  0.10658371889E+02  0.35841963670E+02  0.47000000000E+01 0.  1.
         -5    1    4    4    0  502 -0.93465373377E+02  0.98211073308E+02 -0.36278895691E+02  0.14042592073E+03  0.47000000000E+01 0.  1.
<mgrwt>
<rscale>  0 0.10006373E+04</rscale>
<asrwt>0</asrwt>
<pdfrwt beam="1">  1        2 0.13196592E+00 0.10006373E+04</pdfrwt>
<pdfrwt beam="2">  1       -2 0.44895714E-01 0.10006373E+04</pdfrwt>
<totfact> 0.17846587E+02</totfact>
</mgrwt>
</event>
<event>
 9    1  0.4497870E-036  0.9985252E+03  0.7818608E-02  0.8682444E-01
         -2   -1    0    0    0  501 -0.00000000000E+00  0.00000000000E+00  0.85214391245E+03  0.85214391245E+03  0.00000000000E+00 0.  1.
          2   -1    0    0  501    0  0.00000000000E+00 -0.00000000000E+00 -0.29251297309E+03  0.29251297309E+03  0.00000000000E+00 0.  1.
         36    2    1    2    0    0  0.14210854715E-13  0.00000000000E+00  0.55963093935E+03  0.11446568855E+04  0.99852521116E+03 0.  0.
         25    2    3    3    0    0 -0.71453440248E+02  0.11386184977E+03  0.10697744061E+03  0.21525275986E+03  0.12968987189E+03 0.  0.
         35    2    3    3    0    0  0.71453440248E+02 -0.11386184977E+03  0.45265349875E+03  0.92940412568E+03  0.80051653571E+03 0.  0.
         22    1    5    5    0    0 -0.49500425256E+02  0.30729717248E+03  0.36997153502E+03  0.48348813950E+03  0.00000000000E+00 0. -1.
         22    1    5    5    0    0  0.12095386550E+03 -0.42115902225E+03  0.82681963723E+02  0.44591598618E+03  0.00000000000E+00 0. -1.
          5    1    4    4  502    0 -0.35701551120E+02 -0.22573611748E+02  0.89661198597E+01  0.43435584548E+02  0.47000000000E+01 0. -1.
         -5    1    4    4    0  502 -0.35751889128E+02  0.13643546152E+03  0.98011320746E+02  0.17181717531E+03  0.47000000000E+01 0. -1.
<mgrwt>
<rscale>  0 0.99852521E+03</rscale>
<asrwt>0</asrwt>
<pdfrwt beam="1">  1        2 0.45001996E-01 0.99852521E+03</pdfrwt>
<pdfrwt beam="2">  1       -2 0.13109906E+00 0.99852521E+03</pdfrwt>
<totfact> 0.55383030E+01</totfact>
</mgrwt>
</event>
<event>
 9    1  0.4497870E-036  0.1000369E+04  0.7818608E-02  0.8680686E-01
          1   -1    0    0  501    0  0.00000000000E+00  0.00000000000E+00  0.31051022942E+04  0.31051022942E+04  0.00000000000E+00 0.  1.
         -1   -1    0    0    0  501 -0.00000000000E+00 -0.00000000000E+00 -0.80572105819E+02  0.80572105819E+02  0.00000000000E+00 0.  1.
         36    2    1    2    0    0 -0.28421709430E-13 -0.46185277824E-13  0.30245301884E+04  0.31856744000E+04  0.10003691931E+04 0.  0.
         25    2    3    3    0    0 -0.11048133328E+03 -0.24007280613E+02  0.78020488960E+03  0.79820357023E+03  0.12500718079E+03 0.  0.
         35    2    3    3    0    0  0.11048133328E+03  0.24007280613E+02  0.22443252988E+04  0.23874708298E+04  0.80637363661E+03 0.  0.
         22    1    5    5    0    0  0.32056233582E+03  0.31729511005E+03  0.11541184509E+04  0.12391229950E+04  0.00000000000E+00 0.  1.
         22    1    5    5    0    0 -0.21008100253E+03 -0.29328782943E+03  0.10902068479E+04  0.11483478348E+04  0.00000000000E+00 0.  1.
          5    1    4    4  502    0  0.47372614314E+01  0.28502265753E+02  0.30482124710E+03  0.30622361679E+03  0.47000000000E+01 0. -1.
         -5    1    4    4    0  502 -0.11521859472E+03 -0.52509546366E+02  0.47538364250E+03  0.49197995344E+03  0.47000000000E+01 0. -1.
<mgrwt>
<rscale>  0 0.10003692E+04</rscale>
<asrwt>0</asrwt>
<pdfrwt beam="1">  1        1 0.47770795E+00 0.10003692E+04</pdfrwt>
<pdfrwt beam="2">  1       -1 0.12395711E-01 0.10003692E+04</pdfrwt>
<totfact> 0.22800937E+01</totfact>
</mgrwt>
</event>
<event>
 9    1  0.4497870E-036  0.9995851E+03  0.7818608E-02  0.8681433E-01
          1   -1    0    0  501    0  0.00000000000E+00  0.00000000000E+00  0.18109354747E+04  0.18109354747E+04  0.00000000000E+00 0.  1.
         -1   -1    0    0    0  501 -0.00000000000E+00 -0.00000000000E+00 -0.13793566453E+03  0.13793566453E+03  0.00000000000E+00 0.  1.
         36    2    1    2    0    0  0.28421709430E-13 -0.14210854715E-13  0.16729998101E+04  0.19488711392E+04  0.99958509017E+03 0.  0.
         25    2    3    3    0    0  0.71766700676E+02  0.86841894152E+02  0.47709911992E+03  0.50596839253E+03  0.12525362313E+03 0.  0.
         35    2    3    3    0    0 -0.71766700676E+02 -0.86841894152E+02  0.11959006902E+04  0.14429027467E+04  0.79943598967E+03 0.  0.
         22    1    5    5    0    0 -0.95840447744E+02  0.64209514224E+02  0.12683984524E+04  0.12736337336E+04  0.00000000000E+00 0. -1.
         22    1    5    5    0    0  0.24073747068E+02 -0.15105140838E+03 -0.72497762218E+02  0.16926901310E+03  0.00000000000E+00 0. -1.
          5    1    4    4  502    0  0.99445635794E+02  0.30650081342E+02  0.32904898661E+03  0.34514372014E+03  0.47000000000E+01 0.  1.
         -5    1    4    4    0  502 -0.27678935118E+02  0.56191812810E+02  0.14805013331E+03  0.16082467239E+03  0.47000000000E+01 0.  1.
<mgrwt>
<rscale>  0 0.99958509E+03</rscale>
<asrwt>0</asrwt>
<pdfrwt beam="1">  1        1 0.27860544E+00 0.99958509E+03</pdfrwt>
<pdfrwt beam="2">  1       -1 0.21220873E-01 0.99958509E+03</pdfrwt>
<totfact> 0.78357078E+01</totfact>
</mgrwt>
</event>
<event>
 9    1  0.4497870E-036  0.1000142E+04  0.7818608E-02  0.8680903E-01
          1   -1    0    0  501    0  0.00000000000E+00  0.00000000000E+00  0.19311183835E+04  0.19311183835E+04  0.00000000000E+00 0.  1.
         -1   -1    0    0    0  501 -0.00000000000E+00 -0.00000000000E+00 -0.12949539781E+03  0.12949539781E+03  0.00000000000E+00 0.  1.
         36    2    1    2    0    0  0.00000000000E+00  0.71054273576E-14  0.18016229857E+04  0.20606137813E+04  0.10001418765E+04 0.  0.
         25    2    3    3    0    0 -0.11659647050E+03  0.29407343359E+02  0.18414626060E+03  0.25317084840E+03  0.12540376554E+03 0.  0.
         35    2    3    3    0    0  0.11659647050E+03 -0.29407343359E+02  0.16174767251E+04  0.18074429329E+04  0.79759605736E+03 0.  0.
         22    1    5    5    0    0 -0.88047600291E+02 -0.91214007919E+02  0.15863583001E+04  0.15914160460E+04  0.00000000000E+00 0.  1.
         22    1    5    5    0    0  0.20464407079E+03  0.61806664560E+02  0.31118424990E+02  0.21602688691E+03  0.00000000000E+00 0.  1.
          5    1    4    4  502    0 -0.59294782162E+01 -0.39517058112E+02  0.24931743295E+02  0.47333269668E+02  0.47000000000E+01 0. -1.
         -5    1    4    4    0  502 -0.11066699228E+03  0.68924401470E+02  0.15921451731E+03  0.20583757874E+03  0.47000000000E+01 0. -1.
<mgrwt>
<rscale>  0 0.10001419E+04</rscale>
<asrwt>0</asrwt>
<pdfrwt beam="1">  1        1 0.29709512E+00 0.10001419E+04</pdfrwt>
<pdfrwt beam="2">  1       -1 0.19922370E-01 0.10001419E+04</pdfrwt>
<totfact> 0.71641746E+01</totfact>
</mgrwt>
</event>
<event>
 9    1  0.4497870E-036  0.1001102E+04  0.7818608E-02  0.8679989E-01
         -2   -1    0    0    0  501 -0.00000000000E+00  0.00000000000E+00  0.91363812653E+02  0.91363812653E+02  0.00000000000E+00 0. -1.
          2   -1    0    0  501    0  0.00000000000E+00 -0.00000000000E+00 -0.27423469588E+04  0.27423469588E+04  0.00000000000E+00 0. -1.
         36    2    1    2    0    0  0.14210854715E-13  0.00000000000E+00 -0.26509831462E+04  0.28337107715E+04  0.10011019404E+04 0.  0.
         25    2    3    3    0    0 -0.40577103791E+02 -0.12422064069E+03 -0.62660918992E+03  0.65239987554E+03  0.12613188255E+03 0.  0.
         35    2    3    3    0    0  0.40577103791E+02  0.12422064069E+03 -0.20243739563E+04  0.21813108959E+04  0.80184165584E+03 0.  0.
         22    1    5    5    0    0  0.15543957864E+03  0.90963323971E+02 -0.29074207696E+02  0.18243107868E+03  0.00000000000E+00 0. -1.
         22    1    5    5    0    0 -0.11486247484E+03  0.33257316717E+02 -0.19952997486E+04  0.19988798173E+04  0.00000000000E+00 0. -1.
          5    1    4    4  502    0  0.37505419458E+02 -0.73809924631E+02 -0.37687087485E+03  0.38588639231E+03  0.47000000000E+01 0. -1.
         -5    1    4    4    0  502 -0.78082523249E+02 -0.50410716058E+02 -0.24973831507E+03  0.26651348323E+03  0.47000000000E+01 0. -1.
<mgrwt>
<rscale>  0 0.10011019E+04</rscale>
<asrwt>0</asrwt>
<pdfrwt beam="1">  1        2 0.42189948E+00 0.10011019E+04</pdfrwt>
<pdfrwt beam="2">  1       -2 0.14055973E-01 0.10011019E+04</pdfrwt>
<totfact> 0.10974456E+02</totfact>
</mgrwt>
</event>
<event>
 9    1  0.4497870E-036  0.9996970E+03  0.7818608E-02  0.8681327E-01
          2   -1    0    0  501    0  0.00000000000E+00  0.00000000000E+00  0.15199435253E+04  0.15199435253E+04  0.00000000000E+00 0.  1.
         -2   -1    0    0    0  501 -0.00000000000E+00 -0.00000000000E+00 -0.16438012956E+03  0.16438012956E+03  0.00000000000E+00 0.  1.
         36    2    1    2    0    0  0.14210854715E-13 -0.28421709430E-13  0.13555633958E+04  0.16843236549E+04  0.99969698132E+03 0.  0.
         25    2    3    3    0    0 -0.34237298351E+02 -0.13161184773E+03  0.30048053379E+03  0.35241448819E+03  0.12415131588E+03 0.  0.
         35    2    3    3    0    0  0.34237298351E+02  0.13161184773E+03  0.10550828620E+04  0.13319091667E+04  0.80142891865E+03 0.  0.
         22    1    5    5    0    0  0.18732740333E+03  0.32743253329E+03  0.10115040694E+04  0.10795573640E+04  0.00000000000E+00 0. -1.
         22    1    5    5    0    0 -0.15309010498E+03 -0.19582068556E+03  0.43578792589E+02  0.25235180265E+03  0.00000000000E+00 0. -1.
          5    1    4    4  502    0 -0.39240301652E+02 -0.77707089102E+01  0.18423138509E+02  0.44290938387E+02  0.47000000000E+01 0.  1.
         -5    1    4    4    0  502  0.50030033010E+01 -0.12384113882E+03  0.28205739529E+03  0.30812354980E+03  0.47000000000E+01 0.  1.
<mgrwt>
<rscale>  0 0.99969698E+03</rscale>
<asrwt>0</asrwt>
<pdfrwt beam="1">  1        2 0.23383746E+00 0.99969698E+03</pdfrwt>
<pdfrwt beam="2">  1       -2 0.25289252E-01 0.99969698E+03</pdfrwt>
<totfact> 0.20748444E+02</totfact>
</mgrwt>
</event>
<event>
 9    1  0.4497870E-036  0.1000025E+04  0.7818608E-02  0.8681015E-01
         -1   -1    0    0    0  501 -0.00000000000E+00  0.00000000000E+00  0.98408455976E+02  0.98408455976E+02  0.00000000000E+00 0. -1.
          1   -1    0    0  501    0  0.00000000000E+00 -0.00000000000E+00 -0.25405569809E+04  0.25405569809E+04  0.00000000000E+00 0. -1.
         36    2    1    2    0    0  0.14210854715E-13  0.00000000000E+00 -0.24421485249E+04  0.26389654368E+04  0.10000245793E+04 0.  0.
         25    2    3    3    0    0 -0.11665194181E+03 -0.67358838093E+02 -0.56621158236E+03  0.59528311936E+03  0.12498618966E+03 0.  0.
         35    2    3    3    0    0  0.11665194181E+03  0.67358838093E+02 -0.18759369425E+04  0.20436823175E+04  0.79959559393E+03 0.  0.
         22    1    5    5    0    0 -0.33208122965E+03 -0.21380816537E+02 -0.57092309615E+03  0.66082392823E+03  0.00000000000E+00 0.  1.
         22    1    5    5    0    0  0.44873317146E+03  0.88739654631E+02 -0.13050138464E+04  0.13828583893E+04  0.00000000000E+00 0.  1.
          5    1    4    4  502    0 -0.97482441646E+02 -0.10359166338E+03 -0.44943300899E+03  0.47142992981E+03  0.47000000000E+01 0.  1.
         -5    1    4    4    0  502 -0.19169500161E+02  0.36232825285E+02 -0.11677857337E+03  0.12385318956E+03  0.47000000000E+01 0.  1.
<mgrwt>
<rscale>  0 0.10000246E+04</rscale>
<asrwt>0</asrwt>
<pdfrwt beam="1">  1        1 0.39085484E+00 0.10000246E+04</pdfrwt>
<pdfrwt beam="2">  1       -1 0.15139766E-01 0.10000246E+04</pdfrwt>
<totfact> 0.41891452E+01</totfact>
</mgrwt>
</event>
<event>
 9    1  0.4497870E-036  0.1000960E+04  0.7818608E-02  0.8680124E-01
          1   -1    0    0  501    0  0.00000000000E+00  0.00000000000E+00  0.17382182705E+04  0.17382182705E+04  0.00000000000E+00 0. -1.
         -1   -1    0    0    0  501 -0.00000000000E+00 -0.00000000000E+00 -0.14410179684E+03  0.14410179684E+03  0.00000000000E+00 0. -1.
         36    2    1    2    0    0  0.00000000000E+00  0.00000000000E+00  0.15941164737E+04  0.18823200673E+04  0.10009602911E+04 0.  0.
         25    2    3    3    0    0 -0.92419599194E+02  0.29595998245E+02  0.14179019430E+03  0.22141109639E+03  0.13964637116E+03 0.  0.
         35    2    3    3    0    0  0.92419599194E+02 -0.29595998245E+02  0.14523262794E+04  0.16609089709E+04  0.79996855102E+03 0.  0.
         22    1    5    5    0    0  0.75073152605E+01 -0.39623368725E+03  0.97920747733E+03  0.10563639422E+04  0.00000000000E+00 0. -1.
         22    1    5    5    0    0  0.84912283933E+02  0.36663768901E+03  0.47311880203E+03  0.60454502876E+03  0.00000000000E+00 0. -1.
          5    1    4    4  502    0  0.45659607080E+01 -0.61096816084E+00 -0.25117649677E+02  0.25965507978E+02  0.47000000000E+01 0.  1.
         -5    1    4    4    0  502 -0.96985559902E+02  0.30206966406E+02  0.16690784398E+03  0.19544558841E+03  0.47000000000E+01 0.  1.
<mgrwt>
<rscale>  0 0.10009603E+04</rscale>
<asrwt>0</asrwt>
<pdfrwt beam="1">  1        1 0.26741818E+00 0.10009603E+04</pdfrwt>
<pdfrwt beam="2">  1       -1 0.22169508E-01 0.10009603E+04</pdfrwt>
<totfact> 0.81957066E+01</totfact>
</mgrwt>
</event>
<event>
 9    1  0.4497870E-036  0.1000101E+04  0.7818608E-02  0.8680942E-01
         -1   -1    0    0    0  501 -0.00000000000E+00  0.00000000000E+00  0.76095758790E+02  0.76095758790E+02  0.00000000000E+00 0.  1.
          1   -1    0    0  501    0  0.00000000000E+00 -0.00000000000E+00 -0.32859977947E+04  0.32859977947E+04  0.00000000000E+00 0.  1.
         36    2    1    2    0    0  0.00000000000E+00  0.71054273576E-14 -0.32099020360E+04  0.33620935535E+04  0.10001009860E+04 0.  0.
         25    2    3    3    0    0  0.12852647484E+03 -0.53823196981E+02 -0.66073519581E+03  0.68665948835E+03  0.12455626315E+03 0.  0.
         35    2    3    3    0    0 -0.12852647484E+03  0.53823196981E+02 -0.25491668401E+04  0.26754340652E+04  0.80017489775E+03 0.  0.
         22    1    5    5    0    0  0.20159875702E+03  0.10037261614E+03 -0.21202929885E+04  0.21322192847E+04  0.00000000000E+00 0.  1.
         22    1    5    5    0    0 -0.33012523186E+03 -0.46549419162E+02 -0.42887385167E+03  0.54321478053E+03  0.00000000000E+00 0.  1.
          5    1    4    4  502    0 -0.33955095507E+01 -0.17518788392E+02 -0.30393599483E+03  0.30449567548E+03  0.47000000000E+01 0. -1.
         -5    1    4    4    0  502  0.13192198439E+03 -0.36304408589E+02 -0.35679920098E+03  0.38216381287E+03  0.47000000000E+01 0. -1.
<mgrwt>
<rscale>  0 0.10001010E+04</rscale>
<asrwt>0</asrwt>
<pdfrwt beam="1">  1        1 0.50553794E+00 0.10001010E+04</pdfrwt>
<pdfrwt beam="2">  1       -1 0.11707044E-01 0.10001010E+04</pdfrwt>
<totfact> 0.18389222E+01</totfact>
</mgrwt>
</event>
<event>
 9    1  0.4497870E-036  0.9999930E+03  0.7818608E-02  0.8681045E-01
          1   -1    0    0  501    0  0.00000000000E+00  0.00000000000E+00  0.13520111388E+04  0.13520111388E+04  0.00000000000E+00 0. -1.
         -1   -1    0    0    0  501 -0.00000000000E+00 -0.00000000000E+00 -0.18490713286E+03  0.18490713286E+03  0.00000000000E+00 0. -1.
         36    2    1    2    0    0  0.00000000000E+00 -0.42632564146E-13  0.11671040060E+04  0.15369182717E+04  0.99999300654E+03 0.  0.
         25    2    3    3    0    0 -0.71227116477E+02 -0.83484243678E+02  0.84273653834E+02  0.18779583029E+03  0.12697363537E+03 0.  0.
         35    2    3    3    0    0  0.71227116477E+02  0.83484243678E+02  0.10828303522E+04  0.13491224414E+04  0.79722447863E+03 0.  0.
         22    1    5    5    0    0 -0.16572260371E+02  0.42636974269E+03  0.42570511327E+03  0.60273596272E+03  0.00000000000E+00 0.  1.
         22    1    5    5    0    0  0.87799376847E+02 -0.34288549901E+03  0.65712523888E+03  0.74638647870E+03  0.00000000000E+00 0.  1.
          5    1    4    4  502    0 -0.45023330147E+02 -0.28933362190E+02 -0.27686971610E+02  0.60439209972E+02  0.47000000000E+01 0. -1.
         -5    1    4    4    0  502 -0.26203786330E+02 -0.54550881488E+02  0.11196062544E+03  0.12735662032E+03  0.47000000000E+01 0. -1.
<mgrwt>
<rscale>  0 0.99999301E+03</rscale>
<asrwt>0</asrwt>
<pdfrwt beam="1">  1        1 0.20800171E+00 0.99999301E+03</pdfrwt>
<pdfrwt beam="2">  1       -1 0.28447252E-01 0.99999301E+03</pdfrwt>
<totfact> 0.10144781E+02</totfact>
</mgrwt>
</event>
<event>
 9    1  0.4497870E-036  0.1000201E+04  0.7818608E-02  0.8680847E-01
         -1   -1    0    0    0  501 -0.00000000000E+00  0.00000000000E+00  0.53486351741E+03  0.53486351741E+03  0.00000000000E+00 0.  1.
          1   -1    0    0  501    0  0.00000000000E+00 -0.00000000000E+00 -0.46759653553E+03  0.46759653553E+03  0.00000000000E+00 0.  1.
         36    2    1    2    0    0  0.00000000000E+00  0.00000000000E+00  0.67266981878E+02  0.10024600529E+04  0.10002006353E+04 0.  0.
         25    2    3    3    0    0 -0.40419106099E+02  0.39043836492E+01 -0.12107996167E+03  0.17929428151E+03  0.12584567500E+03 0.  0.
         35    2    3    3    0    0  0.40419106099E+02 -0.39043836492E+01  0.18834694355E+03  0.82316577143E+03  0.80029892401E+03 0.  0.
         22    1    5    5    0    0  0.16994355819E+03  0.27388806708E+03  0.35069333724E+03  0.47632058851E+03  0.00000000000E+00 0. -1.
         22    1    5    5    0    0 -0.12952445209E+03 -0.27779245073E+03 -0.16234639369E+03  0.34684518292E+03  0.00000000000E+00 0. -1.
          5    1    4    4  502    0 -0.39022816816E+02  0.58907328774E+02 -0.40411176735E+02  0.81535310269E+02  0.47000000000E+01 0. -1.
         -5    1    4    4    0  502 -0.13962892839E+01 -0.55002945124E+02 -0.80668784932E+02  0.97758971243E+02  0.47000000000E+01 0. -1.
<mgrwt>
<rscale>  0 0.10002006E+04</rscale>
<asrwt>0</asrwt>
<pdfrwt beam="1">  1        1 0.71937928E-01 0.10002006E+04</pdfrwt>
<pdfrwt beam="2">  1       -1 0.82286696E-01 0.10002006E+04</pdfrwt>
<totfact> 0.84536276E+01</totfact>
</mgrwt>
</event>
<event>
 9    1  0.4497870E-036  0.1003126E+04  0.7818608E-02  0.8678067E-01
          1   -1    0    0  501    0  0.00000000000E+00  0.00000000000E+00  0.69186981100E+03  0.69186981100E+03  0.00000000000E+00 0. -1.
         -1   -1    0    0    0  501 -0.00000000000E+00 -0.00000000000E+00 -0.36360224534E+03  0.36360224534E+03  0.00000000000E+00 0. -1.
         36    2    1    2    0    0  0.00000000000E+00  0.00000000000E+00  0.32826756565E+03  0.10554720563E+04  0.10031259478E+04 0.  0.
         25    2    3    3    0    0 -0.19960683254E+02  0.11007011625E+03  0.15644905910E+03  0.22955727077E+03  0.12532506973E+03 0.  0.
         35    2    3    3    0    0  0.19960683254E+02 -0.11007011625E+03  0.17181850656E+03  0.82591478557E+03  0.80006235661E+03 0.  0.
         22    1    5    5    0    0 -0.22274428132E+03  0.27281798835E+03  0.10617556396E+03  0.36785584134E+03  0.00000000000E+00 0.  1.
         22    1    5    5    0    0  0.24270496457E+03 -0.38288810460E+03  0.65642942593E+02  0.45805894423E+03  0.00000000000E+00 0.  1.
          5    1    4    4  502    0 -0.39785026382E+02 -0.13852432189E+02  0.38218737944E+02  0.57074513855E+02  0.47000000000E+01 0. -1.
         -5    1    4    4    0  502  0.19824343129E+02  0.12392254844E+03  0.11823032115E+03  0.17248275691E+03  0.47000000000E+01 0. -1.
<mgrwt>
<rscale>  0 0.10031259E+04</rscale>
<asrwt>0</asrwt>
<pdfrwt beam="1">  1        1 0.10644151E+00 0.10031259E+04</pdfrwt>
<pdfrwt beam="2">  1       -1 0.55938807E-01 0.10031259E+04</pdfrwt>
<totfact> 0.10321488E+02</totfact>
</mgrwt>
</event>
<event>
 9    1  0.4497870E-036  0.9934556E+03  0.7818608E-02  0.8687295E-01
         -2   -1    0    0    0  501 -0.00000000000E+00  0.00000000000E+00  0.26377774372E+03  0.26377774372E+03  0.00000000000E+00 0.  1.
          2   -1    0    0  501    0  0.00000000000E+00 -0.00000000000E+00 -0.93540308849E+03  0.93540308849E+03  0.00000000000E+00 0.  1.
         36    2    1    2    0    0 -0.14210854715E-13  0.00000000000E+00 -0.67162534477E+03  0.11991808322E+04  0.99345561783E+03 0.  0.
         25    2    3    3    0    0  0.50511027098E+02 -0.97882390893E+01  0.24612654661E+02  0.13704940753E+03  0.12461775095E+03 0.  0.
         35    2    3    3    0    0 -0.50511027098E+02  0.97882390893E+01 -0.69623799943E+03  0.10621314247E+04  0.80045526917E+03 0.  0.
         22    1    5    5    0    0 -0.24457942195E+03  0.17961721719E+03 -0.74069410056E+03  0.80044312037E+03  0.00000000000E+00 0.  1.
         22    1    5    5    0    0  0.19406839485E+03 -0.16982897810E+03  0.44456101124E+02  0.26168830430E+03  0.00000000000E+00 0.  1.
          5    1    4    4  502    0 -0.37149532616E+01 -0.59948283760E+02  0.17243951144E+02  0.62666110894E+02  0.47000000000E+01 0. -1.
         -5    1    4    4    0  502  0.54225980360E+02  0.50160044671E+02  0.73687035171E+01  0.74383296639E+02  0.47000000000E+01 0. -1.
<mgrwt>
<rscale>  0 0.99345562E+03</rscale>
<asrwt>0</asrwt>
<pdfrwt beam="1">  1        2 0.14390817E+00 0.99345562E+03</pdfrwt>
<pdfrwt beam="2">  1       -2 0.40581192E-01 0.99345562E+03</pdfrwt>
<totfact> 0.19292313E+02</totfact>
</mgrwt>
</event>
<event>
 9    1  0.4497870E-036  0.9996996E+03  0.7818608E-02  0.8681324E-01
          2   -1    0    0  501    0  0.00000000000E+00  0.00000000000E+00  0.23040797773E+04  0.23040797773E+04  0.00000000000E+00 0. -1.
         -2   -1    0    0    0  501 -0.00000000000E+00 -0.00000000000E+00 -0.10843799938E+03  0.10843799938E+03  0.00000000000E+00 0. -1.
         36    2    1    2    0    0  0.14210854715E-13 -0.28421709430E-13  0.21956417780E+04  0.24125177767E+04  0.99969955779E+03 0.  0.
         25    2    3    3    0    0  0.66589629533E+02  0.11708182961E+03  0.32207367121E+03  0.37074561536E+03  0.12481397373E+03 0.  0.
         35    2    3    3    0    0 -0.66589629533E+02 -0.11708182961E+03  0.18735681068E+04  0.20417721614E+04  0.80027106324E+03 0.  0.
         22    1    5    5    0    0  0.16575814104E+03  0.11388576659E+03  0.76634501000E+02  0.21521750834E+03  0.00000000000E+00 0. -1.
         22    1    5    5    0    0 -0.23234777057E+03 -0.23096759619E+03  0.17969336058E+04  0.18265546530E+04  0.00000000000E+00 0. -1.
          5    1    4    4  502    0 -0.31768680684E+02  0.41565857515E+01  0.41142054762E+02  0.52357281706E+02  0.47000000000E+01 0.  1.
         -5    1    4    4    0  502  0.98358310217E+02  0.11292524386E+03  0.28093161645E+03  0.31838833366E+03  0.47000000000E+01 0.  1.
<mgrwt>
<rscale>  0 0.99969956E+03</rscale>
<asrwt>0</asrwt>
<pdfrwt beam="1">  1        2 0.35447378E+00 0.99969956E+03</pdfrwt>
<pdfrwt beam="2">  1       -2 0.16682771E-01 0.99969956E+03</pdfrwt>
<totfact> 0.15250418E+02</totfact>
</mgrwt>
</event>
<event>
 9    1  0.4497870E-036  0.9994090E+03  0.7818608E-02  0.8681601E-01
         -1   -1    0    0    0  501 -0.00000000000E+00  0.00000000000E+00  0.89628105211E+03  0.89628105211E+03  0.00000000000E+00 0.  1.
          1   -1    0    0  501    0  0.00000000000E+00 -0.00000000000E+00 -0.27860077429E+03  0.27860077429E+03  0.00000000000E+00 0.  1.
         36    2    1    2    0    0 -0.14210854715E-13  0.00000000000E+00  0.61768027783E+03  0.11748818264E+04  0.99940901556E+03 0.  0.
         25    2    3    3    0    0  0.50808422243E+02  0.12137428683E+03  0.17153467089E+03  0.24995132663E+03  0.12545241766E+03 0.  0.
         35    2    3    3    0    0 -0.50808422243E+02 -0.12137428683E+03  0.44614560694E+03  0.92493049976E+03  0.79946063913E+03 0.  0.
         22    1    5    5    0    0  0.33569611284E+03 -0.20796212305E+03  0.12257020734E+03  0.41347742445E+03  0.00000000000E+00 0. -1.
         22    1    5    5    0    0 -0.38650453508E+03  0.86587836224E+02  0.32357539961E+03  0.51145307532E+03  0.00000000000E+00 0. -1.
          5    1    4    4  502    0  0.54992835659E+02  0.95392363916E+02  0.42408298927E+02  0.11808670071E+03  0.47000000000E+01 0. -1.
         -5    1    4    4    0  502 -0.41844134160E+01  0.25981922914E+02  0.12912637196E+03  0.13186462592E+03  0.47000000000E+01 0. -1.
<mgrwt>
<rscale>  0 0.99940902E+03</rscale>
<asrwt>0</asrwt>
<pdfrwt beam="1">  1        1 0.42861658E-01 0.99940902E+03</pdfrwt>
<pdfrwt beam="2">  1       -1 0.13788939E+00 0.99940902E+03</pdfrwt>
<totfact> 0.50139312E+01</totfact>
</mgrwt>
</event>
<event>
 9    1  0.4497870E-036  0.9995694E+03  0.7818608E-02  0.8681448E-01
          2   -1    0    0  501    0  0.00000000000E+00  0.00000000000E+00  0.20131382055E+04  0.20131382055E+04  0.00000000000E+00 0.  1.
         -2   -1    0    0    0  501 -0.00000000000E+00 -0.00000000000E+00 -0.12407729866E+03  0.12407729866E+03  0.00000000000E+00 0.  1.
         36    2    1    2    0    0  0.00000000000E+00  0.00000000000E+00  0.18890609069E+04  0.21372155042E+04  0.99956940804E+03 0.  0.
         25    2    3    3    0    0  0.45019169752E+02 -0.16164894104E+02  0.76111534374E+02  0.15451377704E+03  0.12567224110E+03 0.  0.
         35    2    3    3    0    0 -0.45019169752E+02  0.16164894104E+02  0.18129493725E+04  0.19827017271E+04  0.80126941921E+03 0.  0.
         22    1    5    5    0    0 -0.11974840291E+03  0.20271467380E+03  0.17589156409E+04  0.17746033784E+04  0.00000000000E+00 0. -1.
         22    1    5    5    0    0  0.74729233154E+02 -0.18654977970E+03  0.54033731623E+02  0.20809834874E+03  0.00000000000E+00 0. -1.
          5    1    4    4  502    0  0.58262946570E+01  0.50867367382E+02  0.99000076010E+01  0.52359668871E+02  0.47000000000E+01 0.  1.
         -5    1    4    4    0  502  0.39192875095E+02 -0.67032261486E+02  0.66211526773E+02  0.10215410817E+03  0.47000000000E+01 0.  1.
<mgrwt>
<rscale>  0 0.99956941E+03</rscale>
<asrwt>0</asrwt>
<pdfrwt beam="1">  1        2 0.30971355E+00 0.99956941E+03</pdfrwt>
<pdfrwt beam="2">  1       -2 0.19088817E-01 0.99956941E+03</pdfrwt>
<totfact> 0.17857291E+02</totfact>
</mgrwt>
</event>
<event>
 9    1  0.4497870E-036  0.9994559E+03  0.7818608E-02  0.8681556E-01
          2   -1    0    0  501    0  0.00000000000E+00  0.00000000000E+00  0.26248277597E+04  0.26248277597E+04  0.00000000000E+00 0.  1.
         -2   -1    0    0    0  501 -0.00000000000E+00 -0.00000000000E+00 -0.95140735280E+02  0.95140735280E+02  0.00000000000E+00 0.  1.
         36    2    1    2    0    0 -0.28421709430E-13  0.14210854715E-13  0.25296870244E+04  0.27199684950E+04  0.99945593808E+03 0.  0.
         25    2    3    3    0    0  0.10126008957E+03  0.75712338918E+02  0.30132459605E+03  0.34932959039E+03  0.12348557217E+03 0.  0.
         35    2    3    3    0    0 -0.10126008957E+03 -0.75712338918E+02  0.22283624283E+04  0.23706389046E+04  0.79896416676E+03 0.  0.
         22    1    5    5    0    0 -0.60931530885E+02 -0.42134331132E+02 -0.51467858614E+02  0.90204732615E+02  0.00000000000E+00 0. -1.
         22    1    5    5    0    0 -0.40328558685E+02 -0.33578007785E+02  0.22798302870E+04  0.22804341719E+04  0.00000000000E+00 0. -1.
          5    1    4    4  502    0  0.10620010878E+03  0.98910011238E+02  0.21321044342E+03  0.25795820710E+03  0.47000000000E+01 0. -1.
         -5    1    4    4    0  502 -0.49400192052E+01 -0.23197672321E+02  0.88114152629E+02  0.91371383291E+02  0.47000000000E+01 0. -1.
<mgrwt>
<rscale>  0 0.99945594E+03</rscale>
<asrwt>0</asrwt>
<pdfrwt beam="1">  1        2 0.40381960E+00 0.99945594E+03</pdfrwt>
<pdfrwt beam="2">  1       -2 0.14637038E-01 0.99945594E+03</pdfrwt>
<totfact> 0.12157905E+02</totfact>
</mgrwt>
</event>
<event>
 9    1  0.4497870E-036  0.1001998E+04  0.7818608E-02  0.8679138E-01
         -2   -1    0    0    0  501 -0.00000000000E+00  0.00000000000E+00  0.48830547605E+03  0.48830547605E+03  0.00000000000E+00 0.  1.
          2   -1    0    0  501    0  0.00000000000E+00 -0.00000000000E+00 -0.51402233745E+03  0.51402233745E+03  0.00000000000E+00 0.  1.
         36    2    1    2    0    0  0.00000000000E+00  0.14210854715E-13 -0.25716861404E+02  0.10023278135E+04  0.10019978487E+04 0.  0.
         25    2    3    3    0    0 -0.49643297923E+02  0.41714866894E+02  0.11955528882E+03  0.18507421965E+03  0.12551658276E+03 0.  0.
         35    2    3    3    0    0  0.49643297923E+02 -0.41714866894E+02 -0.14527215022E+03  0.81725359385E+03  0.80162014189E+03 0.  0.
         22    1    5    5    0    0  0.15745577158E+03 -0.19884802685E+03 -0.41537586883E+03  0.48669289104E+03  0.00000000000E+00 0.  1.
         22    1    5    5    0    0 -0.10781247365E+03  0.15713315995E+03  0.27010371861E+03  0.33056070281E+03  0.00000000000E+00 0.  1.
          5    1    4    4  502    0 -0.31889759116E+02 -0.41285549899E+02  0.25370233134E+02  0.58199588454E+02  0.47000000000E+01 0. -1.
         -5    1    4    4    0  502 -0.17753538807E+02  0.83000416793E+02  0.94185055684E+02  0.12687463120E+03  0.47000000000E+01 0. -1.
<mgrwt>
<rscale>  0 0.10019978E+04</rscale>
<asrwt>0</asrwt>
<pdfrwt beam="1">  1        2 0.79080359E-01 0.10019978E+04</pdfrwt>
<pdfrwt beam="2">  1       -2 0.75123920E-01 0.10019978E+04</pdfrwt>
<totfact> 0.11458838E+02</totfact>
</mgrwt>
</event>
<event>
 9    1  0.4497870E-036  0.1000421E+04  0.7818608E-02  0.8680637E-01
         -2   -1    0    0    0  501 -0.00000000000E+00  0.00000000000E+00  0.57832387264E+03  0.57832387264E+03  0.00000000000E+00 0. -1.
          2   -1    0    0  501    0  0.00000000000E+00 -0.00000000000E+00 -0.43264780161E+03  0.43264780161E+03  0.00000000000E+00 0. -1.
         36    2    1    2    0    0  0.00000000000E+00  0.00000000000E+00  0.14567607103E+03  0.10109716743E+04  0.10004210156E+04 0.  0.
         25    2    3    3    0    0  0.15629241129E+02 -0.13352614484E+03 -0.18020527484E+02  0.18337184494E+03  0.12339768868E+03 0.  0.
         35    2    3    3    0    0 -0.15629241129E+02  0.13352614484E+03  0.16369659852E+03  0.82759982931E+03  0.80003212222E+03 0.  0.
         22    1    5    5    0    0  0.19129978789E+02  0.24809526891E+03  0.45169916980E+03  0.51570278120E+03  0.00000000000E+00 0.  1.
         22    1    5    5    0    0 -0.34759219917E+02 -0.11456912407E+03 -0.28800257128E+03  0.31189704811E+03  0.00000000000E+00 0.  1.
          5    1    4    4  502    0  0.35784453979E+02 -0.18799604884E+02  0.36508513295E+02  0.54670959689E+02  0.47000000000E+01 0. -1.
         -5    1    4    4    0  502 -0.20155212850E+02 -0.11472653996E+03 -0.54529040779E+02  0.12870088525E+03  0.47000000000E+01 0. -1.
<mgrwt>
<rscale>  0 0.10004210E+04</rscale>
<asrwt>0</asrwt>
<pdfrwt beam="1">  1        2 0.66561200E-01 0.10004210E+04</pdfrwt>
<pdfrwt beam="2">  1       -2 0.88972904E-01 0.10004210E+04</pdfrwt>
<totfact> 0.94403729E+01</totfact>
</mgrwt>
</event>
<event>
 9    1  0.4497870E-036  0.1000366E+04  0.7818608E-02  0.8680689E-01
         -2   -1    0    0    0  501 -0.00000000000E+00  0.00000000000E+00  0.14817483271E+03  0.14817483271E+03  0.00000000000E+00 0. -1.
          2   -1    0    0  501    0  0.00000000000E+00 -0.00000000000E+00 -0.16884329102E+04  0.16884329102E+04  0.00000000000E+00 0. -1.
         36    2    1    2    0    0 -0.28421709430E-13 -0.14210854715E-13 -0.15402580774E+04  0.18366077429E+04  0.10003664609E+04 0.  0.
         25    2    3    3    0    0  0.11876390679E+03 -0.62269069414E+02 -0.35081742845E+03  0.39602385875E+03  0.12561737951E+03 0.  0.
         35    2    3    3    0    0 -0.11876390679E+03  0.62269069414E+02 -0.11894406490E+04  0.14405838841E+04  0.80158004412E+03 0.  0.
         22    1    5    5    0    0 -0.30159834408E+03 -0.21261897356E+03 -0.98601569122E+03  0.10528035583E+04  0.00000000000E+00 0. -1.
         22    1    5    5    0    0  0.18283443729E+03  0.27488804298E+03 -0.20342495777E+03  0.38778032580E+03  0.00000000000E+00 0. -1.
          5    1    4    4  502    0  0.96490164765E+02 -0.60573987635E+02 -0.35495919027E+03  0.37282392175E+03  0.47000000000E+01 0.  1.
         -5    1    4    4    0  502  0.22273742024E+02 -0.16950817794E+01  0.41417618147E+01  0.23199937003E+02  0.47000000000E+01 0.  1.
<mgrwt>
<rscale>  0 0.10003665E+04</rscale>
<asrwt>0</asrwt>
<pdfrwt beam="1">  1        2 0.25975891E+00 0.10003665E+04</pdfrwt>
<pdfrwt beam="2">  1       -2 0.22796128E-01 0.10003665E+04</pdfrwt>
<totfact> 0.20022480E+02</totfact>
</mgrwt>
</event>
<event>
 9    1  0.4497870E-036  0.9990839E+03  0.7818608E-02  0.8681911E-01
         -2   -1    0    0    0  501 -0.00000000000E+00  0.00000000000E+00  0.26925874450E+03  0.26925874450E+03  0.00000000000E+00 0. -1.
          2   -1    0    0  501    0  0.00000000000E+00 -0.00000000000E+00 -0.92677455277E+03  0.92677455277E+03  0.00000000000E+00 0. -1.
         36    2    1    2    0    0  0.00000000000E+00  0.00000000000E+00 -0.65751580826E+03  0.11960332973E+04  0.99908388539E+03 0.  0.
         25    2    3    3    0    0 -0.22014835278E+01 -0.11874309676E+03 -0.20471512675E+03  0.26768374629E+03  0.12506612392E+03 0.  0.
         35    2    3    3    0    0  0.22014835278E+01  0.11874309676E+03 -0.45280068151E+03  0.92834955097E+03  0.80168551319E+03 0.  0.
         22    1    5    5    0    0 -0.24039876872E+02 -0.29403742277E+03  0.25376238946E+02  0.29610787759E+03  0.00000000000E+00 0. -1.
         22    1    5    5    0    0  0.26241360400E+02  0.41278051953E+03 -0.47817692046E+03  0.63224167338E+03  0.00000000000E+00 0. -1.
          5    1    4    4  502    0 -0.45886970292E+02 -0.11988061859E+03 -0.15581167208E+03  0.20193153273E+03  0.47000000000E+01 0. -1.
         -5    1    4    4    0  502  0.43685486764E+02  0.11375218262E+01 -0.48903454672E+02  0.65752213564E+02  0.47000000000E+01 0. -1.
<mgrwt>
<rscale>  0 0.99908389E+03</rscale>
<asrwt>0</asrwt>
<pdfrwt beam="1">  1        2 0.14258070E+00 0.99908389E+03</pdfrwt>
<pdfrwt beam="2">  1       -2 0.41424423E-01 0.99908389E+03</pdfrwt>
<totfact> 0.18783419E+02</totfact>
</mgrwt>
</event>
<event>
 9    1  0.4497870E-036  0.9998779E+03  0.7818608E-02  0.8681154E-01
         -2   -1    0    0    0  501 -0.00000000000E+00  0.00000000000E+00  0.14986730717E+03  0.14986730717E+03  0.00000000000E+00 0. -1.
          2   -1    0    0  501    0  0.00000000000E+00 -0.00000000000E+00 -0.16677350467E+04  0.16677350467E+04  0.00000000000E+00 0. -1.
         36    2    1    2    0    0 -0.28421709430E-13 -0.28421709430E-13 -0.15178677395E+04  0.18176023539E+04  0.99987791358E+03 0.  0.
         25    2    3    3    0    0  0.11487393178E+03 -0.68748558533E+02 -0.35729636869E+03  0.40198877486E+03  0.12653811889E+03 0.  0.
         35    2    3    3    0    0 -0.11487393178E+03  0.68748558533E+02 -0.11605713708E+04  0.14156135790E+04  0.79944575409E+03 0.  0.
         22    1    5    5    0    0 -0.30415430519E+02  0.35536547013E+03 -0.10291243402E+04  0.10891770395E+04  0.00000000000E+00 0.  1.
         22    1    5    5    0    0 -0.84458501261E+02 -0.28661691160E+03 -0.13144703062E+03  0.32643653948E+03  0.00000000000E+00 0.  1.
          5    1    4    4  502    0  0.97687889900E+01 -0.64799748938E+02 -0.69972950209E+02  0.95983021737E+02  0.47000000000E+01 0. -1.
         -5    1    4    4    0  502  0.10510514279E+03 -0.39488095944E+01 -0.28732341848E+03  0.30600575312E+03  0.47000000000E+01 0. -1.
<mgrwt>
<rscale>  0 0.99987791E+03</rscale>
<asrwt>0</asrwt>
<pdfrwt beam="1">  1        2 0.25657464E+00 0.99987791E+03</pdfrwt>
<pdfrwt beam="2">  1       -2 0.23056507E-01 0.99987791E+03</pdfrwt>
<totfact> 0.20161417E+02</totfact>
</mgrwt>
</event>
<event>
 9    1  0.4497870E-036  0.1002456E+04  0.7818608E-02  0.8678702E-01
         -1   -1    0    0    0  501 -0.00000000000E+00  0.00000000000E+00  0.10867452010E+03  0.10867452010E+03  0.00000000000E+00 0.  1.
          1   -1    0    0  501    0  0.00000000000E+00 -0.00000000000E+00 -0.23117616993E+04  0.23117616993E+04  0.00000000000E+00 0.  1.
         36    2    1    2    0    0 -0.28421709430E-13  0.00000000000E+00 -0.22030871792E+04  0.24204362194E+04  0.10024561701E+04 0.  0.
         25    2    3    3    0    0 -0.44598435786E+01  0.13375299959E+03 -0.52289727530E+03  0.55404243142E+03  0.12502679788E+03 0.  0.
         35    2    3    3    0    0  0.44598435786E+01 -0.13375299959E+03 -0.16801899039E+04  0.18663937880E+04  0.80154719358E+03 0.  0.
         22    1    5    5    0    0 -0.31719960201E+03  0.82444539149E+02 -0.12273199489E+04  0.12703255277E+04  0.00000000000E+00 0.  1.
         22    1    5    5    0    0  0.32165944559E+03 -0.21619753874E+03 -0.45286995507E+03  0.59606826027E+03  0.00000000000E+00 0.  1.
          5    1    4    4  502    0  0.15185511072E+01  0.15765741494E+03 -0.46182948498E+03  0.48802328805E+03  0.47000000000E+01 0.  1.
         -5    1    4    4    0  502 -0.59783946859E+01 -0.23904415348E+02 -0.61067790325E+02  0.66019143370E+02  0.47000000000E+01 0.  1.
<mgrwt>
<rscale>  0 0.10024562E+04</rscale>
<asrwt>0</asrwt>
<pdfrwt beam="1">  1        1 0.35565569E+00 0.10024562E+04</pdfrwt>
<pdfrwt beam="2">  1       -1 0.16719155E-01 0.10024562E+04</pdfrwt>
<totfact> 0.51627084E+01</totfact>
</mgrwt>
</event>
<event>
 9    1  0.4497870E-036  0.1000837E+04  0.7818608E-02  0.8680242E-01
          2   -1    0    0  501    0  0.00000000000E+00  0.00000000000E+00  0.76969842859E+03  0.76969842859E+03  0.00000000000E+00 0.  1.
         -2   -1    0    0    0  501 -0.00000000000E+00 -0.00000000000E+00 -0.32534632769E+03  0.32534632769E+03  0.00000000000E+00 0.  1.
         36    2    1    2    0    0 -0.28421709430E-13  0.14210854715E-13  0.44435210090E+03  0.10950447563E+04  0.10008367643E+04 0.  0.
         25    2    3    3    0    0  0.11017273563E+03 -0.85204367908E+02  0.44707965428E+02  0.19270869764E+03  0.12545925230E+03 0.  0.
         35    2    3    3    0    0 -0.11017273563E+03  0.85204367908E+02  0.39964413547E+03  0.90233605863E+03  0.79692980350E+03 0.  0.
         22    1    5    5    0    0  0.14572668218E+03  0.22227323664E+03  0.52320002098E+03  0.58683892132E+03  0.00000000000E+00 0.  1.
         22    1    5    5    0    0 -0.25589941781E+03 -0.13706886873E+03 -0.12355588551E+03  0.31549713731E+03  0.00000000000E+00 0.  1.
          5    1    4    4  502    0  0.13436660628E+03 -0.75067121134E+02  0.18092725414E+02  0.15504481375E+03  0.47000000000E+01 0. -1.
         -5    1    4    4    0  502 -0.24193870646E+02 -0.10137246774E+02  0.26615240013E+02  0.37663883894E+02  0.47000000000E+01 0. -1.
<mgrwt>
<rscale>  0 0.10008368E+04</rscale>
<asrwt>0</asrwt>
<pdfrwt beam="1">  1        2 0.11841514E+00 0.10008368E+04</pdfrwt>
<pdfrwt beam="2">  1       -2 0.50053281E-01 0.10008368E+04</pdfrwt>
<totfact> 0.16569383E+02</totfact>
</mgrwt>
</event>
<event>
 9    1  0.4497870E-036  0.9995523E+03  0.7818608E-02  0.8681464E-01
         -1   -1    0    0    0  501 -0.00000000000E+00  0.00000000000E+00  0.20890144779E+03  0.20890144779E+03  0.00000000000E+00 0. -1.
          1   -1    0    0  501    0  0.00000000000E+00 -0.00000000000E+00 -0.11956652245E+04  0.11956652245E+04  0.00000000000E+00 0. -1.
         36    2    1    2    0    0  0.14210854715E-13  0.14210854715E-13 -0.98676377667E+03  0.14045666723E+04  0.99955229271E+03 0.  0.
         25    2    3    3    0    0 -0.15167113092E+02 -0.11955188177E+03 -0.28682795015E+03  0.33530292694E+03  0.12504033779E+03 0.  0.
         35    2    3    3    0    0  0.15167113092E+02  0.11955188177E+03 -0.69993582652E+03  0.10692637453E+04  0.79930726385E+03 0.  0.
         22    1    5    5    0    0 -0.13093197032E+03  0.43664935207E+03 -0.44416307843E+03  0.63646419990E+03  0.00000000000E+00 0.  1.
         22    1    5    5    0    0  0.14609908341E+03 -0.31709747030E+03 -0.25577274809E+03  0.43279954541E+03  0.00000000000E+00 0.  1.
          5    1    4    4  502    0  0.35061904542E+02 -0.47217481645E+02 -0.21068765528E+03  0.21879260913E+03  0.47000000000E+01 0. -1.
         -5    1    4    4    0  502 -0.50229017635E+02 -0.72334400121E+02 -0.76140294866E+02  0.11651031781E+03  0.47000000000E+01 0. -1.
<mgrwt>
<rscale>  0 0.99955229E+03</rscale>
<asrwt>0</asrwt>
<pdfrwt beam="1">  1        1 0.18394850E+00 0.99955229E+03</pdfrwt>
<pdfrwt beam="2">  1       -1 0.32138684E-01 0.99955229E+03</pdfrwt>
<totfact> 0.10724985E+02</totfact>
</mgrwt>
</event>
<event>
 9    1  0.4497870E-036  0.1001236E+04  0.7818608E-02  0.8679862E-01
         -1   -1    0    0    0  501 -0.00000000000E+00  0.00000000000E+00  0.86619754609E+02  0.86619754609E+02  0.00000000000E+00 0. -1.
          1   -1    0    0  501    0  0.00000000000E+00 -0.00000000000E+00 -0.28933171055E+04  0.28933171055E+04  0.00000000000E+00 0. -1.
         36    2    1    2    0    0 -0.71054273576E-14  0.00000000000E+00 -0.28066973509E+04  0.29799368601E+04  0.10012360714E+04 0.  0.
         25    2    3    3    0    0 -0.61291869696E+02 -0.39374591761E+01 -0.92356375013E+03  0.93412938748E+03  0.12591868455E+03 0.  0.
         35    2    3    3    0    0  0.61291869696E+02  0.39374591761E+01 -0.18831336007E+04  0.20458074726E+04  0.79709714582E+03 0.  0.
         22    1    5    5    0    0 -0.17409827516E+03 -0.28489710211E+03 -0.13794698965E+04  0.14193004487E+04  0.00000000000E+00 0. -1.
         22    1    5    5    0    0  0.23539014486E+03  0.28883456128E+03 -0.50366370419E+03  0.62650702391E+03  0.00000000000E+00 0. -1.
          5    1    4    4  502    0 -0.13287440450E+02 -0.28161583625E+02 -0.78186152522E+03  0.78249547314E+03  0.47000000000E+01 0. -1.
         -5    1    4    4    0  502 -0.48004429246E+02  0.24224124449E+02 -0.14170222491E+03  0.15163391434E+03  0.47000000000E+01 0. -1.
<mgrwt>
<rscale>  0 0.10012361E+04</rscale>
<asrwt>0</asrwt>
<pdfrwt beam="1">  1        1 0.44512570E+00 0.10012361E+04</pdfrwt>
<pdfrwt beam="2">  1       -1 0.13326116E-01 0.10012361E+04</pdfrwt>
<totfact> 0.28928249E+01</totfact>
</mgrwt>
</event>
<event>
 9    1  0.4497870E-036  0.9977435E+03  0.7818608E-02  0.8683190E-01
         -1   -1    0    0    0  501 -0.00000000000E+00  0.00000000000E+00  0.15613421694E+03  0.15613421694E+03  0.00000000000E+00 0.  1.
          1   -1    0    0  501    0  0.00000000000E+00 -0.00000000000E+00 -0.15939686138E+04  0.15939686138E+04  0.00000000000E+00 0.  1.
         36    2    1    2    0    0 -0.28421709430E-13  0.14210854715E-13 -0.14378343969E+04  0.17501028308E+04  0.99774353689E+03 0.  0.
         25    2    3    3    0    0  0.13017586637E+03 -0.19886666509E+02 -0.21338519610E+03  0.28167733778E+03  0.12832632237E+03 0.  0.
         35    2    3    3    0    0 -0.13017586637E+03  0.19886666509E+02 -0.12244492008E+04  0.14684254930E+04  0.79978518833E+03 0.  0.
         22    1    5    5    0    0  0.24320562703E+03  0.13383961600E+03 -0.95385860029E+03  0.99343255895E+03  0.00000000000E+00 0. -1.
         22    1    5    5    0    0 -0.37338149340E+03 -0.11395294950E+03 -0.27059060048E+03  0.47499293403E+03  0.00000000000E+00 0. -1.
          5    1    4    4  502    0  0.13944824963E+03 -0.11738381989E+01 -0.21888427577E+03  0.25957582399E+03  0.47000000000E+01 0.  1.
         -5    1    4    4    0  502 -0.92723832595E+01 -0.18712828310E+02  0.54990796654E+01  0.22101513791E+02  0.47000000000E+01 0.  1.
<mgrwt>
<rscale>  0 0.99774354E+03</rscale>
<asrwt>0</asrwt>
<pdfrwt beam="1">  1        1 0.24522594E+00 0.99774354E+03</pdfrwt>
<pdfrwt beam="2">  1       -1 0.24020649E-01 0.99774354E+03</pdfrwt>
<totfact> 0.90644169E+01</totfact>
</mgrwt>
</event>
<event>
 9    1  0.4497870E-036  0.9991317E+03  0.7818608E-02  0.8681865E-01
         -1   -1    0    0    0  501 -0.00000000000E+00  0.00000000000E+00  0.31486174711E+03  0.31486174711E+03  0.00000000000E+00 0.  1.
          1   -1    0    0  501    0  0.00000000000E+00 -0.00000000000E+00 -0.79262098503E+03  0.79262098503E+03  0.00000000000E+00 0.  1.
         36    2    1    2    0    0  0.14210854715E-13 -0.71054273576E-14 -0.47775923792E+03  0.11074827321E+04  0.99913167929E+03 0.  0.
         25    2    3    3    0    0  0.89639695268E+02 -0.27914066478E+02 -0.20394299431E+03  0.25668348160E+03  0.12441541191E+03 0.  0.
         35    2    3    3    0    0 -0.89639695268E+02  0.27914066478E+02 -0.27381624361E+03  0.85079925054E+03  0.80004347343E+03 0.  0.
         22    1    5    5    0    0  0.26549435270E+03  0.11699471761E+03 -0.37196717044E+03  0.47173572173E+03  0.00000000000E+00 0.  1.
         22    1    5    5    0    0 -0.35513404797E+03 -0.89080651136E+02  0.98150926833E+02  0.37906352881E+03  0.00000000000E+00 0.  1.
          5    1    4    4  502    0 -0.22839408625E+02 -0.11345124072E+02 -0.34632634688E+01  0.26161701405E+02  0.47000000000E+01 0.  1.
         -5    1    4    4    0  502  0.11247910389E+03 -0.16568942406E+02 -0.20047973084E+03  0.23052178020E+03  0.47000000000E+01 0.  1.
<mgrwt>
<rscale>  0 0.99913168E+03</rscale>
<asrwt>0</asrwt>
<pdfrwt beam="1">  1        1 0.12194169E+00 0.99913168E+03</pdfrwt>
<pdfrwt beam="2">  1       -1 0.48440269E-01 0.99913168E+03</pdfrwt>
<totfact> 0.10902566E+02</totfact>
</mgrwt>
</event>
<event>
 9    1  0.4497870E-036  0.1000796E+04  0.7818608E-02  0.8680280E-01
          1   -1    0    0  501    0  0.00000000000E+00  0.00000000000E+00  0.36780443099E+04  0.36780443099E+04  0.00000000000E+00 0.  1.
         -1   -1    0    0    0  501 -0.00000000000E+00 -0.00000000000E+00 -0.68079216978E+02  0.68079216978E+02  0.00000000000E+00 0.  1.
         36    2    1    2    0    0 -0.14210854715E-13  0.00000000000E+00  0.36099650929E+04  0.37461235269E+04  0.10007964361E+04 0.  0.
         25    2    3    3    0    0 -0.96902640008E+02 -0.91496029048E+02  0.89119733892E+03  0.90927029459E+03  0.12156531889E+03 0.  0.
         35    2    3    3    0    0  0.96902640008E+02  0.91496029048E+02  0.27187677540E+04  0.28368532323E+04  0.79892209655E+03 0.  0.
         22    1    5    5    0    0  0.32603113549E+03  0.20502002763E+03  0.23875434622E+04  0.24184071818E+04  0.00000000000E+00 0.  1.
         22    1    5    5    0    0 -0.22912849548E+03 -0.11352399858E+03  0.33122429178E+03  0.41844605047E+03  0.00000000000E+00 0.  1.
          5    1    4    4  502    0 -0.13498638275E+02 -0.84940004111E+02  0.60360001752E+03  0.60971476010E+03  0.47000000000E+01 0.  1.
         -5    1    4    4    0  502 -0.83404001733E+02 -0.65560249370E+01  0.28759732141E+03  0.29955553450E+03  0.47000000000E+01 0.  1.
<mgrwt>
<rscale>  0 0.10007964E+04</rscale>
<asrwt>0</asrwt>
<pdfrwt beam="1">  1        1 0.56585282E+00 0.10007964E+04</pdfrwt>
<pdfrwt beam="2">  1       -1 0.10473729E-01 0.10007964E+04</pdfrwt>
<totfact> 0.11282080E+01</totfact>
</mgrwt>
</event>
<event>
 9    1  0.4497870E-036  0.1001491E+04  0.7818608E-02  0.8679620E-01
         -2   -1    0    0    0  501 -0.00000000000E+00  0.00000000000E+00  0.18635099355E+03  0.18635099355E+03  0.00000000000E+00 0. -1.
          2   -1    0    0  501    0  0.00000000000E+00 -0.00000000000E+00 -0.13455570208E+04  0.13455570208E+04  0.00000000000E+00 0. -1.
         36    2    1    2    0    0 -0.28421709430E-13  0.00000000000E+00 -0.11592060272E+04  0.15319080143E+04  0.10014906644E+04 0.  0.
         25    2    3    3    0    0  0.12684603403E+03  0.32400394352E+02 -0.29435035918E+03  0.34543687131E+03  0.12467877208E+03 0.  0.
         35    2    3    3    0    0 -0.12684603403E+03 -0.32400394352E+02 -0.86485566807E+03  0.11864711430E+04  0.80162257001E+03 0.  0.
         22    1    5    5    0    0 -0.41188394008E+03  0.70905276576E+02 -0.21640562348E+03  0.47064565462E+03  0.00000000000E+00 0.  1.
         22    1    5    5    0    0  0.28503790605E+03 -0.10330567093E+03 -0.64845004459E+03  0.71582548841E+03  0.00000000000E+00 0.  1.
          5    1    4    4  502    0  0.11035585557E+03 -0.27004180188E+02 -0.14859975748E+03  0.18711391859E+03  0.47000000000E+01 0.  1.
         -5    1    4    4    0  502  0.16490178455E+02  0.59404574540E+02 -0.14575060170E+03  0.15832295272E+03  0.47000000000E+01 0.  1.
<mgrwt>
<rscale>  0 0.10014907E+04</rscale>
<asrwt>0</asrwt>
<pdfrwt beam="1">  1        2 0.20700878E+00 0.10014907E+04</pdfrwt>
<pdfrwt beam="2">  1       -2 0.28669383E-01 0.10014907E+04</pdfrwt>
<totfact> 0.20827489E+02</totfact>
</mgrwt>
</event>
<event>
 9    1  0.4497870E-036  0.9895120E+03  0.7818608E-02  0.8691090E-01
         -1   -1    0    0    0  501 -0.00000000000E+00  0.00000000000E+00  0.84505564157E+03  0.84505564157E+03  0.00000000000E+00 0. -1.
          1   -1    0    0  501    0  0.00000000000E+00 -0.00000000000E+00 -0.28966556960E+03  0.28966556960E+03  0.00000000000E+00 0. -1.
         36    2    1    2    0    0  0.35527136788E-13  0.00000000000E+00  0.55539007196E+03  0.11347212112E+04  0.98951204897E+03 0.  0.
         25    2    3    3    0    0  0.28272370153E+02  0.11509129200E+03  0.12720924616E+03  0.21410751789E+03  0.12495801095E+03 0.  0.
         35    2    3    3    0    0 -0.28272370153E+02 -0.11509129200E+03  0.42818082581E+03  0.92061369328E+03  0.80631595560E+03 0.  0.
         22    1    5    5    0    0 -0.40920051596E+03  0.63859313574E+01  0.27183130462E+03  0.49130245323E+03  0.00000000000E+00 0. -1.
         22    1    5    5    0    0  0.38092814580E+03 -0.12147722336E+03  0.15634952119E+03  0.42931124005E+03  0.00000000000E+00 0. -1.
          5    1    4    4  502    0  0.84590932159E+01 -0.19422786511E+02  0.57045711752E+02  0.61033631083E+02  0.47000000000E+01 0. -1.
         -5    1    4    4    0  502  0.19813276937E+02  0.13451407852E+03  0.70163534407E+02  0.15307388681E+03  0.47000000000E+01 0. -1.
<mgrwt>
<rscale>  0 0.98951205E+03</rscale>
<asrwt>0</asrwt>
<pdfrwt beam="1">  1        1 0.44563934E-01 0.98951205E+03</pdfrwt>
<pdfrwt beam="2">  1       -1 0.13000856E+00 0.98951205E+03</pdfrwt>
<totfact> 0.55797755E+01</totfact>
</mgrwt>
</event>
<event>
 9    1  0.4497870E-036  0.1000323E+04  0.7818608E-02  0.8680730E-01
         -2   -1    0    0    0  501 -0.00000000000E+00  0.00000000000E+00  0.13341181945E+03  0.13341181945E+03  0.00000000000E+00 0. -1.
          2   -1    0    0  501    0  0.00000000000E+00 -0.00000000000E+00 -0.18751081033E+04  0.18751081033E+04  0.00000000000E+00 0. -1.
         36    2    1    2    0    0  0.00000000000E+00  0.14210854715E-13 -0.17416962838E+04  0.20085199227E+04  0.10003231153E+04 0.  0.
         25    2    3    3    0    0  0.89996560321E+02 -0.71045345169E+02 -0.16138111488E+03  0.23366361511E+03  0.12412896055E+03 0.  0.
         35    2    3    3    0    0 -0.89996560321E+02  0.71045345169E+02 -0.15803151689E+04  0.17748563076E+04  0.79973249125E+03 0.  0.
         22    1    5    5    0    0 -0.42405072548E+03  0.15278810601E+03 -0.73418268697E+03  0.86150301274E+03  0.00000000000E+00 0. -1.
         22    1    5    5    0    0  0.33405416516E+03 -0.81742760842E+02 -0.84613248196E+03  0.91335329486E+03  0.00000000000E+00 0. -1.
          5    1    4    4  502    0  0.93281860571E+02 -0.47933824963E+02 -0.43896230720E+02  0.11378983328E+03  0.47000000000E+01 0.  1.
         -5    1    4    4    0  502 -0.32853002492E+01 -0.23111520207E+02 -0.11748488416E+03  0.11987378183E+03  0.47000000000E+01 0.  1.
<mgrwt>
<rscale>  0 0.10003231E+04</rscale>
<asrwt>0</asrwt>
<pdfrwt beam="1">  1        2 0.28847814E+00 0.10003231E+04</pdfrwt>
<pdfrwt beam="2">  1       -2 0.20524897E-01 0.10003231E+04</pdfrwt>
<totfact> 0.18869332E+02</totfact>
</mgrwt>
</event>
<event>
 9    1  0.4497870E-036  0.9962364E+03  0.7818608E-02  0.8684630E-01
         -1   -1    0    0    0  501 -0.00000000000E+00  0.00000000000E+00  0.16879888947E+03  0.16879888947E+03  0.00000000000E+00 0.  1.
          1   -1    0    0  501    0  0.00000000000E+00 -0.00000000000E+00 -0.14699251158E+04  0.14699251158E+04  0.00000000000E+00 0.  1.
         36    2    1    2    0    0  0.00000000000E+00  0.71054273576E-14 -0.13011262263E+04  0.16387240053E+04  0.99623637185E+03 0.  0.
         25    2    3    3    0    0  0.12975052781E+03 -0.45289194732E+02 -0.20215778194E+03  0.27443397753E+03  0.12473944282E+03 0.  0.
         35    2    3    3    0    0 -0.12975052781E+03  0.45289194732E+02 -0.10989684444E+04  0.13642900277E+04  0.79666136307E+03 0.  0.
         22    1    5    5    0    0 -0.16545352815E+03 -0.16707838454E+03 -0.11232314954E+04  0.11475796482E+04  0.00000000000E+00 0. -1.
         22    1    5    5    0    0  0.35703000337E+02  0.21236757927E+03  0.24263051066E+02  0.21671037955E+03  0.00000000000E+00 0. -1.
          5    1    4    4  502    0  0.12664217687E+02 -0.53192033501E+02 -0.21470757091E+02  0.58930961706E+02  0.47000000000E+01 0.  1.
         -5    1    4    4    0  502  0.11708631013E+03  0.79028387688E+01 -0.18068702485E+03  0.21550301582E+03  0.47000000000E+01 0.  1.
<mgrwt>
<rscale>  0 0.99623637E+03</rscale>
<asrwt>0</asrwt>
<pdfrwt beam="1">  1        1 0.22614233E+00 0.99623637E+03</pdfrwt>
<pdfrwt beam="2">  1       -1 0.25969060E-01 0.99623637E+03</pdfrwt>
<totfact> 0.97425613E+01</totfact>
</mgrwt>
</event>
<event>
 9    1  0.4497870E-036  0.9993060E+03  0.7818608E-02  0.8681699E-01
          2   -1    0    0  501    0  0.00000000000E+00  0.00000000000E+00  0.12097473581E+04  0.12097473581E+04  0.00000000000E+00 0. -1.
         -2   -1    0    0    0  501 -0.00000000000E+00 -0.00000000000E+00 -0.20636797818E+03  0.20636797818E+03  0.00000000000E+00 0. -1.
         36    2    1    2    0    0 -0.56843418861E-13  0.14210854715E-13  0.10033793799E+04  0.14161153362E+04  0.99930599195E+03 0.  0.
         25    2    3    3    0    0  0.12541625566E+03  0.89568790471E+01  0.10119464507E+03  0.20385678503E+03  0.12453019611E+03 0.  0.
         35    2    3    3    0    0 -0.12541625566E+03 -0.89568790471E+01  0.90218473481E+03  0.12122585512E+04  0.79989001518E+03 0.  0.
         22    1    5    5    0    0  0.21174544187E+03 -0.22823099287E+03  0.69121438890E+03  0.75809158397E+03  0.00000000000E+00 0. -1.
         22    1    5    5    0    0 -0.33716169754E+03  0.21927411382E+03  0.21097034590E+03  0.45416696723E+03  0.00000000000E+00 0. -1.
          5    1    4    4  502    0  0.42280452384E+02 -0.90578030678E+01 -0.26069357645E+02  0.50708794683E+02  0.47000000000E+01 0. -1.
         -5    1    4    4    0  502  0.83135803277E+02  0.18014682115E+02  0.12726400272E+03  0.15314799034E+03  0.47000000000E+01 0. -1.
<mgrwt>
<rscale>  0 0.99930599E+03</rscale>
<asrwt>0</asrwt>
<pdfrwt beam="1">  1        2 0.18611497E+00 0.99930599E+03</pdfrwt>
<pdfrwt beam="2">  1       -2 0.31748920E-01 0.99930599E+03</pdfrwt>
<totfact> 0.20744345E+02</totfact>
</mgrwt>
</event>
<event>
 9    1  0.4497870E-036  0.9991010E+03  0.7818608E-02  0.8681895E-01
          2   -1    0    0  501    0  0.00000000000E+00  0.00000000000E+00  0.22429145611E+04  0.22429145611E+04  0.00000000000E+00 0. -1.
         -2   -1    0    0    0  501 -0.00000000000E+00 -0.00000000000E+00 -0.11126179946E+03  0.11126179946E+03  0.00000000000E+00 0. -1.
         36    2    1    2    0    0 -0.28421709430E-13 -0.35527136788E-14  0.21316527617E+04  0.23541763606E+04  0.99910101613E+03 0.  0.
         25    2    3    3    0    0  0.13486984070E+03 -0.28599982884E+02  0.36774414899E+03  0.41210152389E+03  0.12483618837E+03 0.  0.
         35    2    3    3    0    0 -0.13486984070E+03  0.28599982884E+02  0.17639086127E+04  0.19420748367E+04  0.80079538242E+03 0.  0.
         22    1    5    5    0    0 -0.13562684921E+03  0.36814072815E+02  0.18501299968E+04  0.18554597606E+04  0.00000000000E+00 0.  1.
         22    1    5    5    0    0  0.75700851000E+00 -0.82140899309E+01 -0.86221384094E+02  0.86615076115E+02  0.00000000000E+00 0.  1.
          5    1    4    4  502    0 -0.17330369560E+02 -0.27326177068E+02  0.82745972718E+02  0.88972173534E+02  0.47000000000E+01 0.  1.
         -5    1    4    4    0  502  0.15220021026E+03 -0.12738058156E+01  0.28499817627E+03  0.32312935036E+03  0.47000000000E+01 0.  1.
<mgrwt>
<rscale>  0 0.99910102E+03</rscale>
<asrwt>0</asrwt>
<pdfrwt beam="1">  1        2 0.34506374E+00 0.99910102E+03</pdfrwt>
<pdfrwt beam="2">  1       -2 0.17117202E-01 0.99910102E+03</pdfrwt>
<totfact> 0.15858475E+02</totfact>
</mgrwt>
</event>
<event>
 9    1  0.4497870E-036  0.9976460E+03  0.7818608E-02  0.8683283E-01
          3   -1    0    0  501    0  0.00000000000E+00  0.00000000000E+00  0.21344071531E+03  0.21344071531E+03  0.00000000000E+00 0. -1.
         -3   -1    0    0    0  501 -0.00000000000E+00 -0.00000000000E+00 -0.11657774053E+04  0.11657774053E+04  0.00000000000E+00 0. -1.
         36    2    1    2    0    0 -0.14210854715E-13  0.00000000000E+00 -0.95233668997E+03  0.13792181206E+04  0.99764595579E+03 0.  0.
         25    2    3    3    0    0  0.33543775820E+02 -0.11016090906E+03 -0.27922089842E+03  0.32721147758E+03  0.12586671587E+03 0.  0.
         35    2    3    3    0    0 -0.33543775820E+02  0.11016090906E+03 -0.67311579155E+03  0.10520066430E+04  0.80023277696E+03 0.  0.
         22    1    5    5    0    0  0.59487595062E+02  0.40358626632E+03 -0.13076934280E+03  0.42839382505E+03  0.00000000000E+00 0.  1.
         22    1    5    5    0    0 -0.93031370882E+02 -0.29342535726E+03 -0.54234644875E+03  0.62361281795E+03  0.00000000000E+00 0.  1.
          5    1    4    4  502    0  0.21482564728E+02 -0.13778598154E+03 -0.23871567233E+03  0.27650269350E+03  0.47000000000E+01 0. -1.
         -5    1    4    4    0  502  0.12061211093E+02  0.27625072478E+02 -0.40505226093E+02  0.50708784085E+02  0.47000000000E+01 0. -1.
<mgrwt>
<rscale>  0 0.99764596E+03</rscale>
<asrwt>0</asrwt>
<pdfrwt beam="1">  1        3 0.32837033E-01 0.99764596E+03</pdfrwt>
<pdfrwt beam="2">  1       -3 0.17935037E+00 0.99764596E+03</pdfrwt>
<totfact> 0.53635246E+00</totfact>
</mgrwt>
</event>
<event>
 9    1  0.4497870E-036  0.1000320E+04  0.7818608E-02  0.8680733E-01
         -1   -1    0    0    0  501 -0.00000000000E+00  0.00000000000E+00  0.26604976761E+03  0.26604976761E+03  0.00000000000E+00 0.  1.
          1   -1    0    0  501    0  0.00000000000E+00 -0.00000000000E+00 -0.94027619631E+03  0.94027619631E+03  0.00000000000E+00 0.  1.
         36    2    1    2    0    0  0.14210854715E-13 -0.71054273576E-14 -0.67422642869E+03  0.12063259639E+04  0.10003204757E+04 0.  0.
         25    2    3    3    0    0  0.10676912796E+03 -0.31579615969E+02 -0.23990648570E+02  0.16962422338E+03  0.12569768140E+03 0.  0.
         35    2    3    3    0    0 -0.10676912796E+03  0.31579615969E+02 -0.65023578012E+03  0.10367017405E+04  0.79971683129E+03 0.  0.
         22    1    5    5    0    0 -0.22290353152E+03  0.24805853091E+03  0.85473180677E+01  0.33360466988E+03  0.00000000000E+00 0. -1.
         22    1    5    5    0    0  0.11613440356E+03 -0.21647891494E+03 -0.65878309819E+03  0.70309707066E+03  0.00000000000E+00 0. -1.
          5    1    4    4  502    0  0.98719359998E+02 -0.13804928978E+01 -0.64664693024E+02  0.11811447973E+03  0.47000000000E+01 0. -1.
         -5    1    4    4    0  502  0.80497679584E+01 -0.30199123071E+02  0.40674044454E+02  0.51509743649E+02  0.47000000000E+01 0. -1.
<mgrwt>
<rscale>  0 0.10003205E+04</rscale>
<asrwt>0</asrwt>
<pdfrwt beam="1">  1        1 0.14465788E+00 0.10003205E+04</pdfrwt>
<pdfrwt beam="2">  1       -1 0.40930734E-01 0.10003205E+04</pdfrwt>
<totfact> 0.11082355E+02</totfact>
</mgrwt>
</event>
<event>
 9    1  0.4497870E-036  0.1002925E+04  0.7818608E-02  0.8678257E-01
          2   -1    0    0  501    0  0.00000000000E+00  0.00000000000E+00  0.76543102813E+03  0.76543102813E+03  0.00000000000E+00 0. -1.
         -2   -1    0    0    0  501 -0.00000000000E+00 -0.00000000000E+00 -0.32852700637E+03  0.32852700637E+03  0.00000000000E+00 0. -1.
         36    2    1    2    0    0 -0.28421709430E-13 -0.42632564146E-13  0.43690402175E+03  0.10939580345E+04  0.10029252500E+04 0.  0.
         25    2    3    3    0    0  0.13097482154E+03  0.58177833526E+02  0.62488731724E+02  0.20010583561E+03  0.12489371346E+03 0.  0.
         35    2    3    3    0    0 -0.13097482154E+03 -0.58177833526E+02  0.37441529003E+03  0.89385219889E+03  0.79890292268E+03 0.  0.
         22    1    5    5    0    0  0.48529220373E+02 -0.41170275409E+03  0.20877734098E+03  0.46415753906E+03  0.00000000000E+00 0.  1.
         22    1    5    5    0    0 -0.17950404191E+03  0.35352492057E+03  0.16563794905E+03  0.42969465983E+03  0.00000000000E+00 0.  1.
          5    1    4    4  502    0  0.11599118149E+03  0.44911900360E+01  0.80503720723E+02  0.14134024205E+03  0.47000000000E+01 0. -1.
         -5    1    4    4    0  502  0.14983640045E+02  0.53686643490E+02 -0.18014988999E+02  0.58765593563E+02  0.47000000000E+01 0. -1.
<mgrwt>
<rscale>  0 0.10029252E+04</rscale>
<asrwt>0</asrwt>
<pdfrwt beam="1">  1        2 0.11775862E+00 0.10029252E+04</pdfrwt>
<pdfrwt beam="2">  1       -2 0.50542617E-01 0.10029252E+04</pdfrwt>
<totfact> 0.16363863E+02</totfact>
</mgrwt>
</event>
<event>
 9    1  0.4497870E-036  0.9999822E+03  0.7818608E-02  0.8681055E-01
         -1   -1    0    0    0  501 -0.00000000000E+00  0.00000000000E+00  0.20232868500E+03  0.20232868500E+03  0.00000000000E+00 0.  1.
          1   -1    0    0  501    0  0.00000000000E+00 -0.00000000000E+00 -0.12355691221E+04  0.12355691221E+04  0.00000000000E+00 0.  1.
         36    2    1    2    0    0  0.14210854715E-13  0.00000000000E+00 -0.10332404371E+04  0.14378978071E+04  0.99998215126E+03 0.  0.
         25    2    3    3    0    0 -0.81615411666E+02 -0.91474224475E+02 -0.10371510651E+03  0.20498825598E+03  0.12741566861E+03 0.  0.
         35    2    3    3    0    0  0.81615411666E+02  0.91474224475E+02 -0.92952533062E+03  0.12329095512E+04  0.80063725363E+03 0.  0.
         22    1    5    5    0    0  0.32474643647E+03  0.22207779951E+03 -0.17705927079E+03  0.43142645075E+03  0.00000000000E+00 0.  1.
         22    1    5    5    0    0 -0.24313102481E+03 -0.13060357503E+03 -0.75246605982E+03  0.80148310040E+03  0.00000000000E+00 0.  1.
          5    1    4    4  502    0 -0.60478362417E+02 -0.10828516171E+03 -0.31948580822E+02  0.12816438813E+03  0.47000000000E+01 0.  1.
         -5    1    4    4    0  502 -0.21137049248E+02  0.16810937239E+02 -0.71766525691E+02  0.76823867850E+02  0.47000000000E+01 0.  1.
<mgrwt>
<rscale>  0 0.99998215E+03</rscale>
<asrwt>0</asrwt>
<pdfrwt beam="1">  1        1 0.19008756E+00 0.99998215E+03</pdfrwt>
<pdfrwt beam="2">  1       -1 0.31127490E-01 0.99998215E+03</pdfrwt>
<totfact> 0.10582670E+02</totfact>
</mgrwt>
</event>
<event>
 9    1  0.4497870E-036  0.9994586E+03  0.7818608E-02  0.8681554E-01
          1   -1    0    0  501    0  0.00000000000E+00  0.00000000000E+00  0.21880180913E+04  0.21880180913E+04  0.00000000000E+00 0. -1.
         -1   -1    0    0    0  501 -0.00000000000E+00 -0.00000000000E+00 -0.11413495588E+03  0.11413495588E+03  0.00000000000E+00 0. -1.
         36    2    1    2    0    0  0.00000000000E+00  0.00000000000E+00  0.20738831354E+04  0.23021530472E+04  0.99945855006E+03 0.  0.
         25    2    3    3    0    0  0.96852694703E+02 -0.96183063993E+02  0.31829824214E+03  0.36831038178E+03  0.12532812977E+03 0.  0.
         35    2    3    3    0    0 -0.96852694703E+02  0.96183063993E+02  0.17555848933E+04  0.19338426654E+04  0.79939821787E+03 0.  0.
         22    1    5    5    0    0 -0.30108749950E+02  0.43897918530E+03  0.11943246394E+04  0.12728003010E+04  0.00000000000E+00 0.  1.
         22    1    5    5    0    0 -0.66743944753E+02 -0.34279612131E+03  0.56126025388E+03  0.66104236440E+03  0.00000000000E+00 0.  1.
          5    1    4    4  502    0 -0.54116351903E+01  0.46870920069E+01  0.13554856089E+03  0.13581883885E+03  0.47000000000E+01 0.  1.
         -5    1    4    4    0  502  0.10226432989E+03 -0.10087015600E+03  0.18274968124E+03  0.23249154293E+03  0.47000000000E+01 0.  1.
<mgrwt>
<rscale>  0 0.99945855E+03</rscale>
<asrwt>0</asrwt>
<pdfrwt beam="1">  1        1 0.33661814E+00 0.99945855E+03</pdfrwt>
<pdfrwt beam="2">  1       -1 0.17559226E-01 0.99945855E+03</pdfrwt>
<totfact> 0.58230254E+01</totfact>
</mgrwt>
</event>
<event>
 9    1  0.4497870E-036  0.1000386E+04  0.7818608E-02  0.8680670E-01
          2   -1    0    0  501    0  0.00000000000E+00  0.00000000000E+00  0.19607817618E+04  0.19607817618E+04  0.00000000000E+00 0. -1.
         -2   -1    0    0    0  501 -0.00000000000E+00 -0.00000000000E+00 -0.12759867918E+03  0.12759867918E+03  0.00000000000E+00 0. -1.
         36    2    1    2    0    0  0.00000000000E+00  0.28421709430E-13  0.18331830826E+04  0.20883804410E+04  0.10003862513E+04 0.  0.
         25    2    3    3    0    0  0.50685001243E+02  0.97659197605E+02  0.52274702361E+03  0.54920894356E+03  0.12751362582E+03 0.  0.
         35    2    3    3    0    0 -0.50685001243E+02 -0.97659197605E+02  0.13104360590E+04  0.15391714974E+04  0.79981244393E+03 0.  0.
         22    1    5    5    0    0  0.96263492765E+02  0.51181445323E+02 -0.78646596368E+02  0.13443023285E+03  0.00000000000E+00 0.  1.
         22    1    5    5    0    0 -0.14694849401E+03 -0.14884064293E+03  0.13890826554E+04  0.14047412646E+04  0.00000000000E+00 0.  1.
          5    1    4    4  502    0 -0.42993444948E+02  0.29994299252E+02  0.17379113931E+03  0.18158619000E+03  0.47000000000E+01 0.  1.
         -5    1    4    4    0  502  0.93678446191E+02  0.67664898353E+02  0.34895588430E+03  0.36762275356E+03  0.47000000000E+01 0.  1.
<mgrwt>
<rscale>  0 0.10003863E+04</rscale>
<asrwt>0</asrwt>
<pdfrwt beam="1">  1        2 0.30165871E+00 0.10003863E+04</pdfrwt>
<pdfrwt beam="2">  1       -2 0.19630567E-01 0.10003863E+04</pdfrwt>
<totfact> 0.18224683E+02</totfact>
</mgrwt>
</event>
<event>
 9    1  0.4497870E-036  0.1003741E+04  0.7818608E-02  0.8677484E-01
          1   -1    0    0  501    0  0.00000000000E+00  0.00000000000E+00  0.21134932756E+03  0.21134932756E+03  0.00000000000E+00 0.  1.
         -1   -1    0    0    0  501 -0.00000000000E+00 -0.00000000000E+00 -0.11917414224E+04  0.11917414224E+04  0.00000000000E+00 0.  1.
         36    2    1    2    0    0  0.00000000000E+00  0.00000000000E+00 -0.98039209480E+03  0.14030907499E+04  0.10037405008E+04 0.  0.
         25    2    3    3    0    0  0.85339440422E+02  0.15545378141E+02 -0.26389744458E+02  0.15528647275E+03  0.12606740710E+03 0.  0.
         35    2    3    3    0    0 -0.85339440422E+02 -0.15545378141E+02 -0.95400235035E+03  0.12478042772E+04  0.79960649746E+03 0.  0.
         22    1    5    5    0    0 -0.85472953538E+02  0.20653388891E+03 -0.99687290856E+03  0.10216249159E+04  0.00000000000E+00 0.  1.
         22    1    5    5    0    0  0.13351311605E+00 -0.22207926705E+03  0.42870558217E+02  0.22617936122E+03  0.00000000000E+00 0.  1.
          5    1    4    4  502    0  0.25157954190E+02  0.46030846096E+02  0.35581567618E+02  0.63560203000E+02  0.47000000000E+01 0.  1.
         -5    1    4    4    0  502  0.60181486232E+02 -0.30485467955E+02 -0.61971312076E+02  0.91726269748E+02  0.47000000000E+01 0.  1.
<mgrwt>
<rscale>  0 0.10037405E+04</rscale>
<asrwt>0</asrwt>
<pdfrwt beam="1">  1        1 0.32515282E-01 0.10037405E+04</pdfrwt>
<pdfrwt beam="2">  1       -1 0.18334483E+00 0.10037405E+04</pdfrwt>
<totfact> 0.29788546E+01</totfact>
</mgrwt>
</event>
<event>
 9    1  0.4497870E-036  0.1000640E+04  0.7818608E-02  0.8680429E-01
         -2   -1    0    0    0  501 -0.00000000000E+00  0.00000000000E+00  0.61599417777E+02  0.61599417777E+02  0.00000000000E+00 0.  1.
          2   -1    0    0  501    0  0.00000000000E+00 -0.00000000000E+00 -0.40636746967E+04  0.40636746967E+04  0.00000000000E+00 0.  1.
         36    2    1    2    0    0 -0.14210854715E-13  0.00000000000E+00 -0.40020752790E+04  0.41252741145E+04  0.10006397860E+04 0.  0.
         25    2    3    3    0    0  0.96370153268E+02  0.75373780512E+02 -0.10484925303E+04  0.10630304370E+04  0.12541415671E+03 0.  0.
         35    2    3    3    0    0 -0.96370153268E+02 -0.75373780512E+02 -0.29535827487E+04  0.30622436775E+04  0.79919764386E+03 0.  0.
         22    1    5    5    0    0  0.22471121378E+03  0.43121210446E+02 -0.25728380389E+03  0.34431021497E+03  0.00000000000E+00 0.  1.
         22    1    5    5    0    0 -0.32108136705E+03 -0.11849499096E+03 -0.26962989448E+04  0.27179334625E+04  0.00000000000E+00 0.  1.
          5    1    4    4  502    0 -0.89111488676E+01  0.61553765109E+02 -0.25843028597E+03  0.26585066726E+03  0.47000000000E+01 0.  1.
         -5    1    4    4    0  502  0.10528130214E+03  0.13820015404E+02 -0.79006224432E+03  0.79717976975E+03  0.47000000000E+01 0.  1.
<mgrwt>
<rscale>  0 0.10006398E+04</rscale>
<asrwt>0</asrwt>
<pdfrwt beam="1">  1        2 0.62518063E+00 0.10006398E+04</pdfrwt>
<pdfrwt beam="2">  1       -2 0.94768349E-02 0.10006398E+04</pdfrwt>
<totfact> 0.21787052E+01</totfact>
</mgrwt>
</event>
<event>
 9    1  0.4497870E-036  0.9995713E+03  0.7818608E-02  0.8681446E-01
          2   -1    0    0  501    0  0.00000000000E+00  0.00000000000E+00  0.79266959837E+03  0.79266959837E+03  0.00000000000E+00 0. -1.
         -2   -1    0    0    0  501 -0.00000000000E+00 -0.00000000000E+00 -0.31511953785E+03  0.31511953785E+03  0.00000000000E+00 0. -1.
         36    2    1    2    0    0  0.00000000000E+00  0.00000000000E+00  0.47755006052E+03  0.11077891362E+04  0.99957126311E+03 0.  0.
         25    2    3    3    0    0 -0.25557849137E+02  0.90276912132E+02  0.20292929515E+03  0.25626459608E+03  0.12525222496E+03 0.  0.
         35    2    3    3    0    0  0.25557849137E+02 -0.90276912132E+02  0.27462076537E+03  0.85152454015E+03  0.80054628422E+03 0.  0.
         22    1    5    5    0    0  0.59534869143E+02  0.35325364847E+03  0.86366862428E+02  0.36849935648E+03  0.00000000000E+00 0. -1.
         22    1    5    5    0    0 -0.33977020006E+02 -0.44353056061E+03  0.18825390294E+03  0.48302518366E+03  0.00000000000E+00 0. -1.
          5    1    4    4  502    0  0.34640395027E+02 -0.11862442340E+02  0.60672471879E+02  0.71020513584E+02  0.47000000000E+01 0.  1.
         -5    1    4    4    0  502 -0.60198244164E+02  0.10213935447E+03  0.14225682327E+03  0.18524408249E+03  0.47000000000E+01 0.  1.
<mgrwt>
<rscale>  0 0.99957126E+03</rscale>
<asrwt>0</asrwt>
<pdfrwt beam="1">  1        2 0.12194917E+00 0.99957126E+03</pdfrwt>
<pdfrwt beam="2">  1       -2 0.48479929E-01 0.99957126E+03</pdfrwt>
<totfact> 0.17007777E+02</totfact>
</mgrwt>
</event>
<event>
 9    1  0.4497870E-036  0.9998742E+03  0.7818608E-02  0.8681158E-01
          2   -1    0    0  501    0  0.00000000000E+00  0.00000000000E+00  0.18943124056E+04  0.18943124056E+04  0.00000000000E+00 0.  1.
         -2   -1    0    0    0  501 -0.00000000000E+00 -0.00000000000E+00 -0.13194079947E+03  0.13194079947E+03  0.00000000000E+00 0.  1.
         36    2    1    2    0    0  0.00000000000E+00  0.56843418861E-13  0.17623716062E+04  0.20262532051E+04  0.99987417856E+03 0.  0.
         25    2    3    3    0    0 -0.50263004513E+02 -0.12522049193E+03  0.25846678308E+03  0.31732908427E+03  0.12524427550E+03 0.  0.
         35    2    3    3    0    0  0.50263004513E+02  0.12522049193E+03  0.15039048231E+04  0.17089241208E+04  0.80030331290E+03 0.  0.
         22    1    5    5    0    0  0.17869046758E+03 -0.23766857763E+03  0.22370781428E+03  0.37210458498E+03  0.00000000000E+00 0.  1.
         22    1    5    5    0    0 -0.12842746307E+03  0.36288906955E+03  0.12801970088E+04  0.13368195358E+04  0.00000000000E+00 0.  1.
          5    1    4    4  502    0  0.83826052105E+01 -0.44823668572E+02  0.63973374592E+01  0.46286555942E+02  0.47000000000E+01 0.  1.
         -5    1    4    4    0  502 -0.58645609724E+02 -0.80396823353E+02  0.25206944562E+03  0.27104252833E+03  0.47000000000E+01 0.  1.
<mgrwt>
<rscale>  0 0.99987418E+03</rscale>
<asrwt>0</asrwt>
<pdfrwt beam="1">  1        2 0.29143266E+00 0.99987418E+03</pdfrwt>
<pdfrwt beam="2">  1       -2 0.20298586E-01 0.99987418E+03</pdfrwt>
<totfact> 0.18759972E+02</totfact>
</mgrwt>
</event>
<event>
 9    1  0.4497870E-036  0.1000797E+04  0.7818608E-02  0.8680279E-01
         -2   -1    0    0    0  501 -0.00000000000E+00  0.00000000000E+00  0.13027647039E+03  0.13027647039E+03  0.00000000000E+00 0.  1.
          2   -1    0    0  501    0  0.00000000000E+00 -0.00000000000E+00 -0.19220575793E+04  0.19220575793E+04  0.00000000000E+00 0.  1.
         36    2    1    2    0    0  0.00000000000E+00 -0.28421709430E-13 -0.17917811089E+04  0.20523340497E+04  0.10007974367E+04 0.  0.
         25    2    3    3    0    0 -0.71290104675E+02  0.93455531878E+02 -0.49960655178E+03  0.52830031962E+03  0.12521304112E+03 0.  0.
         35    2    3    3    0    0  0.71290104675E+02 -0.93455531878E+02 -0.12921745571E+04  0.15240337301E+04  0.79946701547E+03 0.  0.
         22    1    5    5    0    0 -0.28139932550E+03 -0.18705725994E+03 -0.10031741241E+04  0.10585529378E+04  0.00000000000E+00 0.  1.
         22    1    5    5    0    0  0.35268943017E+03  0.93601728060E+02 -0.28900043299E+03  0.46548079221E+03  0.00000000000E+00 0.  1.
          5    1    4    4  502    0  0.21154242763E+01  0.95250204385E+02 -0.23412872520E+03  0.25281500434E+03  0.47000000000E+01 0.  1.
         -5    1    4    4    0  502 -0.73405528951E+02 -0.17946725069E+01 -0.26547782658E+03  0.27548531528E+03  0.47000000000E+01 0.  1.
<mgrwt>
<rscale>  0 0.10007974E+04</rscale>
<asrwt>0</asrwt>
<pdfrwt beam="1">  1        2 0.29570115E+00 0.10007974E+04</pdfrwt>
<pdfrwt beam="2">  1       -2 0.20042535E-01 0.10007974E+04</pdfrwt>
<totfact> 0.18494711E+02</totfact>
</mgrwt>
</event>
<event>
 9    1  0.4497870E-036  0.9993430E+03  0.7818608E-02  0.8681664E-01
          2   -1    0    0  501    0  0.00000000000E+00  0.00000000000E+00  0.78884457160E+03  0.78884457160E+03  0.00000000000E+00 0.  1.
         -2   -1    0    0    0  501 -0.00000000000E+00 -0.00000000000E+00 -0.31650291742E+03  0.31650291742E+03  0.00000000000E+00 0.  1.
         36    2    1    2    0    0  0.71054273576E-14  0.28421709430E-13  0.47234165418E+03  0.11053474890E+04  0.99934300079E+03 0.  0.
         25    2    3    3    0    0  0.59983093963E+01  0.81748727048E+02  0.21507156741E+03  0.26069022423E+03  0.12241233522E+03 0.  0.
         35    2    3    3    0    0 -0.59983093963E+01 -0.81748727048E+02  0.25727008677E+03  0.84465726479E+03  0.80033690614E+03 0.  0.
         22    1    5    5    0    0  0.24733648808E+03 -0.35152897263E+03  0.18319968532E+03  0.46723664415E+03  0.00000000000E+00 0. -1.
         22    1    5    5    0    0 -0.25333479748E+03  0.26978024558E+03  0.74070401456E+02  0.37742062065E+03  0.00000000000E+00 0. -1.
          5    1    4    4  502    0 -0.52908414788E+02  0.11896334765E+02  0.63429544392E+02  0.83583612257E+02  0.47000000000E+01 0. -1.
         -5    1    4    4    0  502  0.58906724184E+02  0.69852392283E+02  0.15164202302E+03  0.17710661198E+03  0.47000000000E+01 0. -1.
<mgrwt>
<rscale>  0 0.99934300E+03</rscale>
<asrwt>0</asrwt>
<pdfrwt beam="1">  1        2 0.12136070E+00 0.99934300E+03</pdfrwt>
<pdfrwt beam="2">  1       -2 0.48692757E-01 0.99934300E+03</pdfrwt>
<totfact> 0.16965508E+02</totfact>
</mgrwt>
</event>
<event>
 9    1  0.4497870E-036  0.1000952E+04  0.7818608E-02  0.8680132E-01
         -1   -1    0    0    0  501 -0.00000000000E+00  0.00000000000E+00  0.67004092221E+02  0.67004092221E+02  0.00000000000E+00 0.  1.
          1   -1    0    0  501    0  0.00000000000E+00 -0.00000000000E+00 -0.37382231366E+04  0.37382231366E+04  0.00000000000E+00 0.  1.
         36    2    1    2    0    0 -0.14210854715E-13 -0.14210854715E-13 -0.36712190444E+04  0.38052272288E+04  0.10009520424E+04 0.  0.
         25    2    3    3    0    0  0.12320635076E+03 -0.56853147128E+02 -0.83371501481E+03  0.85387719664E+03  0.12495381471E+03 0.  0.
         35    2    3    3    0    0 -0.12320635076E+03  0.56853147128E+02 -0.28375040296E+04  0.29513500322E+04  0.80039103534E+03 0.  0.
         22    1    5    5    0    0  0.43381309295E+02 -0.30077310582E+03 -0.20300369333E+04  0.20526559258E+04  0.00000000000E+00 0. -1.
         22    1    5    5    0    0 -0.16658766006E+03  0.35762625294E+03 -0.80746709622E+03  0.89869410634E+03  0.00000000000E+00 0. -1.
          5    1    4    4  502    0  0.98561778542E+02 -0.37269697331E+02 -0.27936109497E+03  0.29861039150E+03  0.47000000000E+01 0.  1.
         -5    1    4    4    0  502  0.24644572220E+02 -0.19583449797E+02 -0.55435391984E+03  0.55526680514E+03  0.47000000000E+01 0.  1.
<mgrwt>
<rscale>  0 0.10009520E+04</rscale>
<asrwt>0</asrwt>
<pdfrwt beam="1">  1        1 0.57511127E+00 0.10009520E+04</pdfrwt>
<pdfrwt beam="2">  1       -1 0.10308322E-01 0.10009520E+04</pdfrwt>
<totfact> 0.10441967E+01</totfact>
</mgrwt>
</event>
<event>
 9    1  0.4497870E-036  0.9991064E+03  0.7818608E-02  0.8681889E-01
         -2   -1    0    0    0  501 -0.00000000000E+00  0.00000000000E+00  0.27097449289E+03  0.27097449289E+03  0.00000000000E+00 0.  1.
          2   -1    0    0  501    0  0.00000000000E+00 -0.00000000000E+00 -0.92094792425E+03  0.92094792425E+03  0.00000000000E+00 0.  1.
         36    2    1    2    0    0  0.00000000000E+00  0.00000000000E+00 -0.64997343136E+03  0.11919224171E+04  0.99910639425E+03 0.  0.
         25    2    3    3    0    0 -0.40190586248E+02  0.44857438999E+02  0.23026629278E+02  0.14088533932E+03  0.12526364246E+03 0.  0.
         35    2    3    3    0    0  0.40190586248E+02 -0.44857438999E+02 -0.67300006063E+03  0.10510370778E+04  0.80506048486E+03 0.  0.
         22    1    5    5    0    0 -0.21791248664E+03  0.17972025629E+03  0.14792957138E+02  0.28284987880E+03  0.00000000000E+00 0. -1.
         22    1    5    5    0    0  0.25810307289E+03 -0.22457769528E+03 -0.68779301777E+03  0.76818719903E+03  0.00000000000E+00 0. -1.
          5    1    4    4  502    0 -0.12015001335E+02  0.45168575048E+02  0.70951373821E+02  0.85092584143E+02  0.47000000000E+01 0. -1.
         -5    1    4    4    0  502 -0.28175584913E+02 -0.31113604928E+00 -0.47924744543E+02  0.55792755178E+02  0.47000000000E+01 0. -1.
<mgrwt>
<rscale>  0 0.99910639E+03</rscale>
<asrwt>0</asrwt>
<pdfrwt beam="1">  1        2 0.14168429E+00 0.99910639E+03</pdfrwt>
<pdfrwt beam="2">  1       -2 0.41688384E-01 0.99910639E+03</pdfrwt>
<totfact> 0.18717443E+02</totfact>
</mgrwt>
</event>
<event>
 9    1  0.4497870E-036  0.9946268E+03  0.7818608E-02  0.8686172E-01
         -2   -1    0    0    0  501 -0.00000000000E+00  0.00000000000E+00  0.99457270883E+02  0.99457270883E+02  0.00000000000E+00 0.  1.
          2   -1    0    0  501    0  0.00000000000E+00 -0.00000000000E+00 -0.24867020692E+04  0.24867020692E+04  0.00000000000E+00 0.  1.
         36    2    1    2    0    0 -0.21316282073E-13  0.00000000000E+00 -0.23872447983E+04  0.25861593401E+04  0.99462676678E+03 0.  0.
         25    2    3    3    0    0  0.43991581249E+02 -0.53162282779E+02 -0.13691796632E+03  0.19799943396E+03  0.12528271555E+03 0.  0.
         35    2    3    3    0    0 -0.43991581249E+02  0.53162282779E+02 -0.22503268320E+04  0.23881599061E+04  0.79660240953E+03 0.  0.
         22    1    5    5    0    0  0.29321139136E+03 -0.96673743390E+02 -0.42148015683E+03  0.52245981212E+03  0.00000000000E+00 0.  1.
         22    1    5    5    0    0 -0.33720297261E+03  0.14983602617E+03 -0.18288466751E+04  0.18657000940E+04  0.00000000000E+00 0.  1.
          5    1    4    4  502    0  0.79442376562E+02 -0.10271070523E+02 -0.10959524925E+03  0.13583002150E+03  0.47000000000E+01 0.  1.
         -5    1    4    4    0  502 -0.35450795313E+02 -0.42891212256E+02 -0.27322717068E+02  0.62169412455E+02  0.47000000000E+01 0.  1.
<mgrwt>
<rscale>  0 0.99462677E+03</rscale>
<asrwt>0</asrwt>
<pdfrwt beam="1">  1        2 0.38256953E+00 0.99462677E+03</pdfrwt>
<pdfrwt beam="2">  1       -2 0.15301119E-01 0.99462677E+03</pdfrwt>
<totfact> 0.13723267E+02</totfact>
</mgrwt>
</event>
<event>
 9    1  0.4497870E-036  0.9993201E+03  0.7818608E-02  0.8681686E-01
         -2   -1    0    0    0  501 -0.00000000000E+00  0.00000000000E+00  0.79611724408E+02  0.79611724408E+02  0.00000000000E+00 0. -1.
          2   -1    0    0  501    0  0.00000000000E+00 -0.00000000000E+00 -0.31359724971E+04  0.31359724971E+04  0.00000000000E+00 0. -1.
         36    2    1    2    0    0  0.00000000000E+00 -0.14210854715E-13 -0.30563607727E+04  0.32155842215E+04  0.99932012526E+03 0.  0.
         25    2    3    3    0    0 -0.14004785488E+02  0.77989649741E+02 -0.93826092050E+03  0.95073422311E+03  0.13146668234E+03 0.  0.
         35    2    3    3    0    0  0.14004785488E+02 -0.77989649741E+02 -0.21180998522E+04  0.22648499984E+04  0.79807268586E+03 0.  0.
         22    1    5    5    0    0 -0.34831096457E+03  0.14041588979E+03 -0.89268683248E+03  0.96846627769E+03  0.00000000000E+00 0.  1.
         22    1    5    5    0    0  0.36231575006E+03 -0.21840553953E+03 -0.12254130197E+04  0.12963837207E+04  0.00000000000E+00 0.  1.
          5    1    4    4  502    0 -0.54727782053E+02 -0.40636096585E+01 -0.49688268395E+03  0.49992612921E+03  0.47000000000E+01 0. -1.
         -5    1    4    4    0  502  0.40722996565E+02  0.82053259399E+02 -0.44137823655E+03  0.45080809390E+03  0.47000000000E+01 0. -1.
<mgrwt>
<rscale>  0 0.99932013E+03</rscale>
<asrwt>0</asrwt>
<pdfrwt beam="1">  1        2 0.48245733E+00 0.99932013E+03</pdfrwt>
<pdfrwt beam="2">  1       -2 0.12247957E-01 0.99932013E+03</pdfrwt>
<totfact> 0.75802234E+01</totfact>
</mgrwt>
</event>
<event>
 9    1  0.4497870E-036  0.9992861E+03  0.7818608E-02  0.8681718E-01
         -1   -1    0    0    0  501 -0.00000000000E+00  0.00000000000E+00  0.43995017745E+03  0.43995017745E+03  0.00000000000E+00 0. -1.
          1   -1    0    0  501    0  0.00000000000E+00 -0.00000000000E+00 -0.56743514239E+03  0.56743514239E+03  0.00000000000E+00 0. -1.
         36    2    1    2    0    0  0.00000000000E+00  0.28421709430E-13 -0.12748496494E+03  0.10073853198E+04  0.99928612836E+03 0.  0.
         25    2    3    3    0    0  0.42282121475E+01  0.82934971739E+02  0.81763148328E+02  0.17097743740E+03  0.12510789088E+03 0.  0.
         35    2    3    3    0    0 -0.42282121475E+01 -0.82934971739E+02 -0.20924811326E+03  0.83640788244E+03  0.80554161009E+03 0.  0.
         22    1    5    5    0    0 -0.39328746303E+02  0.27689279597E+03 -0.35037225609E+03  0.44830468276E+03  0.00000000000E+00 0. -1.
         22    1    5    5    0    0  0.35100534156E+02 -0.35982776771E+03  0.14112414282E+03  0.38810319968E+03  0.00000000000E+00 0. -1.
          5    1    4    4  502    0 -0.46936332215E+02 -0.56468524504E+01  0.30531832496E+02  0.56472905184E+02  0.47000000000E+01 0.  1.
         -5    1    4    4    0  502  0.51164544362E+02  0.88581824190E+02  0.51231315832E+02  0.11450453222E+03  0.47000000000E+01 0.  1.
<mgrwt>
<rscale>  0 0.99928613E+03</rscale>
<asrwt>0</asrwt>
<pdfrwt beam="1">  1        1 0.87297714E-01 0.99928613E+03</pdfrwt>
<pdfrwt beam="2">  1       -1 0.67684643E-01 0.99928613E+03</pdfrwt>
<totfact> 0.95897392E+01</totfact>
</mgrwt>
</event>
<event>
 9    1  0.4497870E-036  0.9994038E+03  0.7818608E-02  0.8681606E-01
         -2   -1    0    0    0  501 -0.00000000000E+00  0.00000000000E+00  0.22271218725E+03  0.22271218725E+03  0.00000000000E+00 0. -1.
          2   -1    0    0  501    0  0.00000000000E+00 -0.00000000000E+00 -0.11211869987E+04  0.11211869987E+04  0.00000000000E+00 0. -1.
         36    2    1    2    0    0 -0.71054273576E-14  0.35527136788E-14 -0.89847481148E+03  0.13438991860E+04  0.99940383989E+03 0.  0.
         25    2    3    3    0    0  0.42613988766E+02  0.27414034315E+02 -0.34356605850E+03  0.36925544268E+03  0.12547694640E+03 0.  0.
         35    2    3    3    0    0 -0.42613988766E+02 -0.27414034315E+02 -0.55490875297E+03  0.97464374329E+03  0.79964943625E+03 0.  0.
         22    1    5    5    0    0  0.56967202981E+02 -0.40479541199E+03 -0.24800511863E+03  0.47813295918E+03  0.00000000000E+00 0. -1.
         22    1    5    5    0    0 -0.99581191748E+02  0.37738137768E+03 -0.30690363434E+03  0.49651078411E+03  0.00000000000E+00 0. -1.
          5    1    4    4  502    0 -0.27979151245E+02  0.25154412838E+02 -0.31595958836E+02  0.49355567106E+02  0.47000000000E+01 0.  1.
         -5    1    4    4    0  502  0.70593140011E+02  0.22596214771E+01 -0.31197009967E+03  0.31989987557E+03  0.47000000000E+01 0.  1.
<mgrwt>
<rscale>  0 0.99940384E+03</rscale>
<asrwt>0</asrwt>
<pdfrwt beam="1">  1        2 0.17249031E+00 0.99940384E+03</pdfrwt>
<pdfrwt beam="2">  1       -2 0.34263413E-01 0.99940384E+03</pdfrwt>
<totfact> 0.20347003E+02</totfact>
</mgrwt>
</event>
<event>
 9    1  0.4497870E-036  0.1002178E+04  0.7818608E-02  0.8678967E-01
         -4   -1    0    0    0  501 -0.00000000000E+00  0.00000000000E+00  0.27929207386E+03  0.27929207386E+03  0.00000000000E+00 0.  1.
          4   -1    0    0  501    0  0.00000000000E+00 -0.00000000000E+00 -0.89902368951E+03  0.89902368951E+03  0.00000000000E+00 0.  1.
         36    2    1    2    0    0  0.00000000000E+00  0.00000000000E+00 -0.61973161565E+03  0.11783157634E+04  0.10021780095E+04 0.  0.
         25    2    3    3    0    0 -0.37237892986E+02  0.10831911062E+03 -0.21574867518E+03  0.27289544684E+03  0.12167474539E+03 0.  0.
         35    2    3    3    0    0  0.37237892986E+02 -0.10831911062E+03 -0.40398294047E+03  0.90542031652E+03  0.80216210518E+03 0.  0.
         22    1    5    5    0    0  0.82889709840E+02  0.35181650067E+02 -0.62858847134E+03  0.63500544785E+03  0.00000000000E+00 0. -1.
         22    1    5    5    0    0 -0.45651816854E+02 -0.14350076068E+03  0.22460553087E+03  0.27041486867E+03  0.00000000000E+00 0. -1.
          5    1    4    4  502    0 -0.73612903349E+02  0.10749623155E+03 -0.16559098937E+03  0.21075285311E+03  0.47000000000E+01 0. -1.
         -5    1    4    4    0  502  0.36375010363E+02  0.82287907020E+00 -0.50157685817E+02  0.62142593729E+02  0.47000000000E+01 0. -1.
<mgrwt>
<rscale>  0 0.10021780E+04</rscale>
<asrwt>0</asrwt>
<pdfrwt beam="1">  1        4 0.13831134E+00 0.10021780E+04</pdfrwt>
<pdfrwt beam="2">  1       -4 0.42968011E-01 0.10021780E+04</pdfrwt>
<totfact> 0.39970296E+00</totfact>
</mgrwt>
</event>
<event>
 9    1  0.4497870E-036  0.1000479E+04  0.7818608E-02  0.8680582E-01
          2   -1    0    0  501    0  0.00000000000E+00  0.00000000000E+00  0.67048421675E+03  0.67048421675E+03  0.00000000000E+00 0.  1.
         -2   -1    0    0    0  501 -0.00000000000E+00 -0.00000000000E+00 -0.37322188721E+03  0.37322188721E+03  0.00000000000E+00 0.  1.
         36    2    1    2    0    0 -0.35527136788E-14  0.28421709430E-13  0.29726232954E+03  0.10437061040E+04  0.10004786549E+04 0.  0.
         25    2    3    3    0    0  0.60117771295E+01 -0.68986208109E+02 -0.71990269219E+02  0.15996822815E+03  0.12494797630E+03 0.  0.
         35    2    3    3    0    0 -0.60117771295E+01  0.68986208109E+02  0.36925259876E+03  0.88373787581E+03  0.79990619017E+03 0.  0.
         22    1    5    5    0    0 -0.33062434350E+02 -0.31643534490E+03  0.38202210655E+03  0.49715726079E+03  0.00000000000E+00 0. -1.
         22    1    5    5    0    0  0.27050657221E+02  0.38542155300E+03 -0.12769507790E+02  0.38658061502E+03  0.00000000000E+00 0. -1.
          5    1    4    4  502    0 -0.39367087284E+02 -0.84149693328E+02 -0.35311300649E+02  0.99498323614E+02  0.47000000000E+01 0. -1.
         -5    1    4    4    0  502  0.45378864414E+02  0.15163485219E+02 -0.36678968570E+02  0.60469904538E+02  0.47000000000E+01 0. -1.
<mgrwt>
<rscale>  0 0.10004787E+04</rscale>
<asrwt>0</asrwt>
<pdfrwt beam="1">  1        2 0.10315142E+00 0.10004787E+04</pdfrwt>
<pdfrwt beam="2">  1       -2 0.57418752E-01 0.10004787E+04</pdfrwt>
<totfact> 0.14873644E+02</totfact>
</mgrwt>
</event>
<event>
 9    1  0.4497870E-036  0.1002000E+04  0.7818608E-02  0.8679136E-01
          3   -1    0    0  501    0  0.00000000000E+00  0.00000000000E+00  0.36880722470E+03  0.36880722470E+03  0.00000000000E+00 0.  1.
         -3   -1    0    0    0  501 -0.00000000000E+00 -0.00000000000E+00 -0.68057523976E+03  0.68057523976E+03  0.00000000000E+00 0.  1.
         36    2    1    2    0    0  0.00000000000E+00 -0.35527136788E-14 -0.31176801506E+03  0.10493824645E+04  0.10020001305E+04 0.  0.
         25    2    3    3    0    0 -0.11902798945E+03  0.17803846504E+01 -0.14460970700E+03  0.22506700188E+03  0.12478924607E+03 0.  0.
         35    2    3    3    0    0  0.11902798945E+03 -0.17803846504E+01 -0.16715830806E+03  0.82431546258E+03  0.79836285601E+03 0.  0.
         22    1    5    5    0    0 -0.76417471365E+02 -0.23351766152E+03 -0.38098287401E+03  0.45334101785E+03  0.00000000000E+00 0.  1.
         22    1    5    5    0    0  0.19544546082E+03  0.23173727687E+03  0.21382456595E+03  0.37097444474E+03  0.00000000000E+00 0.  1.
          5    1    4    4  502    0  0.17519072225E+02  0.25857325688E+02 -0.41802433708E+02  0.52393250016E+02  0.47000000000E+01 0. -1.
         -5    1    4    4    0  502 -0.13654706168E+03 -0.24076941038E+02 -0.10280727329E+03  0.17267375187E+03  0.47000000000E+01 0. -1.
<mgrwt>
<rscale>  0 0.10020001E+04</rscale>
<asrwt>0</asrwt>
<pdfrwt beam="1">  1        3 0.56739573E-01 0.10020001E+04</pdfrwt>
<pdfrwt beam="2">  1       -3 0.10470388E+00 0.10020001E+04</pdfrwt>
<totfact> 0.87626145E+00</totfact>
</mgrwt>
</event>
<event>
 9    1  0.4497870E-036  0.1000171E+04  0.7818608E-02  0.8680875E-01
          2   -1    0    0  501    0  0.00000000000E+00  0.00000000000E+00  0.95437757206E+03  0.95437757206E+03  0.00000000000E+00 0. -1.
         -2   -1    0    0    0  501 -0.00000000000E+00 -0.00000000000E+00 -0.26204067135E+03  0.26204067135E+03  0.00000000000E+00 0. -1.
         36    2    1    2    0    0  0.00000000000E+00  0.42632564146E-13  0.69233690071E+03  0.12164182434E+04  0.10001714647E+04 0.  0.
         25    2    3    3    0    0 -0.13297735355E+03 -0.43615567989E+02  0.14783956397E+03  0.23920529278E+03  0.12560788627E+03 0.  0.
         35    2    3    3    0    0  0.13297735355E+03  0.43615567989E+02  0.54449733674E+03  0.97721295064E+03  0.79930126163E+03 0.  0.
         22    1    5    5    0    0  0.18436994816E+02  0.37624255236E+03  0.64617133017E+02  0.38219596396E+03  0.00000000000E+00 0. -1.
         22    1    5    5    0    0  0.11454035873E+03 -0.33262698437E+03  0.47988020373E+03  0.59501698668E+03  0.00000000000E+00 0. -1.
          5    1    4    4  502    0 -0.35924508218E+02  0.44082212261E+02  0.41347544882E+02  0.70466454404E+02  0.47000000000E+01 0. -1.
         -5    1    4    4    0  502 -0.97052845330E+02 -0.87697780250E+02  0.10649201909E+03  0.16873883838E+03  0.47000000000E+01 0. -1.
<mgrwt>
<rscale>  0 0.10001715E+04</rscale>
<asrwt>0</asrwt>
<pdfrwt beam="1">  1        2 0.14682732E+00 0.10001715E+04</pdfrwt>
<pdfrwt beam="2">  1       -2 0.40313950E-01 0.10001715E+04</pdfrwt>
<totfact> 0.18995047E+02</totfact>
</mgrwt>
</event>
<event>
 9    1  0.4497870E-036  0.1000143E+04  0.7818608E-02  0.8680902E-01
         -2   -1    0    0    0  501 -0.00000000000E+00  0.00000000000E+00  0.85445373128E+03  0.85445373128E+03  0.00000000000E+00 0.  1.
          2   -1    0    0  501    0  0.00000000000E+00 -0.00000000000E+00 -0.29266825737E+03  0.29266825737E+03  0.00000000000E+00 0.  1.
         36    2    1    2    0    0 -0.28421709430E-13 -0.71054273576E-14  0.56178547391E+03  0.11471219887E+04  0.10001429589E+04 0.  0.
         25    2    3    3    0    0 -0.11812301143E+03  0.19893148413E+02  0.42360491705E+02  0.17833807949E+03  0.12514502050E+03 0.  0.
         35    2    3    3    0    0  0.11812301143E+03 -0.19893148413E+02  0.51942498220E+03  0.96878390917E+03  0.80894447729E+03 0.  0.
         22    1    5    5    0    0  0.43577778533E+03  0.50104437979E+02  0.12216092923E+03  0.45534165801E+03  0.00000000000E+00 0. -1.
         22    1    5    5    0    0 -0.31765477390E+03 -0.69997586392E+02  0.39726405298E+03  0.51344225116E+03  0.00000000000E+00 0. -1.
          5    1    4    4  502    0 -0.11021546134E+03  0.34281965243E+02  0.77610048106E+02  0.13916935951E+03  0.47000000000E+01 0.  1.
         -5    1    4    4    0  502 -0.79075500870E+01 -0.14388816830E+02 -0.35249556401E+02  0.39168719977E+02  0.47000000000E+01 0.  1.
<mgrwt>
<rscale>  0 0.10001430E+04</rscale>
<asrwt>0</asrwt>
<pdfrwt beam="1">  1        2 0.45025886E-01 0.10001430E+04</pdfrwt>
<pdfrwt beam="2">  1       -2 0.13145442E+00 0.10001430E+04</pdfrwt>
<totfact> 0.54944070E+01</totfact>
</mgrwt>
</event>
<event>
 9    1  0.4497870E-036  0.9999773E+03  0.7818608E-02  0.8681060E-01
          2   -1    0    0  501    0  0.00000000000E+00  0.00000000000E+00  0.17720629438E+04  0.17720629438E+04  0.00000000000E+00 0. -1.
         -2   -1    0    0    0  501 -0.00000000000E+00 -0.00000000000E+00 -0.14107209423E+03  0.14107209423E+03  0.00000000000E+00 0. -1.
         36    2    1    2    0    0  0.00000000000E+00  0.71054273576E-14  0.16309908496E+04  0.19131350380E+04  0.99997726092E+03 0.  0.
         25    2    3    3    0    0  0.94832401459E+02  0.34712397401E+02  0.48515118036E+03  0.51099514197E+03  0.12468453157E+03 0.  0.
         35    2    3    3    0    0 -0.94832401459E+02 -0.34712397401E+02  0.11458396692E+04  0.14021398961E+04  0.80177902547E+03 0.  0.
         22    1    5    5    0    0  0.22894769452E+03  0.15765114473E+03  0.92430944596E+03  0.96520406244E+03  0.00000000000E+00 0.  1.
         22    1    5    5    0    0 -0.32378009598E+03 -0.19236354213E+03  0.22153022326E+03  0.43693583363E+03  0.00000000000E+00 0.  1.
          5    1    4    4  502    0  0.58372488431E+02  0.40303036345E+02  0.46146274247E+03  0.46690645190E+03  0.47000000000E+01 0.  1.
         -5    1    4    4    0  502  0.36459913028E+02 -0.55906389438E+01  0.23688437891E+02  0.44088690064E+02  0.47000000000E+01 0.  1.
<mgrwt>
<rscale>  0 0.99997726E+03</rscale>
<asrwt>0</asrwt>
<pdfrwt beam="1">  1        2 0.27262505E+00 0.99997726E+03</pdfrwt>
<pdfrwt beam="2">  1       -2 0.21703400E-01 0.99997726E+03</pdfrwt>
<totfact> 0.19576866E+02</totfact>
</mgrwt>
</event>
<event>
 9    1  0.4497870E-036  0.9998791E+03  0.7818608E-02  0.8681153E-01
          2   -1    0    0  501    0  0.00000000000E+00  0.00000000000E+00  0.22619898103E+04  0.22619898103E+04  0.00000000000E+00 0. -1.
         -2   -1    0    0    0  501 -0.00000000000E+00 -0.00000000000E+00 -0.11049544847E+03  0.11049544847E+03  0.00000000000E+00 0. -1.
         36    2    1    2    0    0  0.00000000000E+00 -0.28421709430E-13  0.21514943618E+04  0.23724852588E+04  0.99987914976E+03 0.  0.
         25    2    3    3    0    0  0.68125437443E+02  0.11410495373E+03  0.50952742877E+03  0.54113306612E+03  0.12468271285E+03 0.  0.
         35    2    3    3    0    0 -0.68125437443E+02 -0.11410495373E+03  0.16419669330E+04  0.18313521926E+04  0.80008401346E+03 0.  0.
         22    1    5    5    0    0  0.33332142646E+02 -0.31946134847E+03  0.15526128402E+04  0.15854883211E+04  0.00000000000E+00 0.  1.
         22    1    5    5    0    0 -0.10145758009E+03  0.20535639474E+03  0.89354092883E+02  0.24586387155E+03  0.00000000000E+00 0.  1.
          5    1    4    4  502    0  0.79964355328E+01  0.12085111239E+03  0.35462119736E+03  0.37476288232E+03  0.47000000000E+01 0.  1.
         -5    1    4    4    0  502  0.60129001910E+02 -0.67461586576E+01  0.15490623141E+03  0.16637018380E+03  0.47000000000E+01 0.  1.
<mgrwt>
<rscale>  0 0.99987915E+03</rscale>
<asrwt>0</asrwt>
<pdfrwt beam="1">  1        2 0.34799840E+00 0.99987915E+03</pdfrwt>
<pdfrwt beam="2">  1       -2 0.16999301E-01 0.99987915E+03</pdfrwt>
<totfact> 0.15638117E+02</totfact>
</mgrwt>
</event>
<event>
 9    1  0.4497870E-036  0.9997406E+03  0.7818608E-02  0.8681285E-01
          1   -1    0    0  501    0  0.00000000000E+00  0.00000000000E+00  0.18909261027E+03  0.18909261027E+03  0.00000000000E+00 0. -1.
         -1   -1    0    0    0  501 -0.00000000000E+00 -0.00000000000E+00 -0.13214176159E+04  0.13214176159E+04  0.00000000000E+00 0. -1.
         36    2    1    2    0    0  0.24868995752E-13  0.00000000000E+00 -0.11323250056E+04  0.15105102261E+04  0.99974057881E+03 0.  0.
         25    2    3    3    0    0  0.20778404485E+02 -0.11039140482E+03 -0.86055602847E+02  0.18882863243E+03  0.12503072140E+03 0.  0.
         35    2    3    3    0    0 -0.20778404485E+02  0.11039140482E+03 -0.10462694027E+04  0.13216815937E+04  0.79971530411E+03 0.  0.
         22    1    5    5    0    0  0.37514341853E+03 -0.44966274561E+02 -0.42357605300E+03  0.56760128875E+03  0.00000000000E+00 0. -1.
         22    1    5    5    0    0 -0.39592182301E+03  0.15535767938E+03 -0.62269334974E+03  0.75408030494E+03  0.00000000000E+00 0. -1.
          5    1    4    4  502    0  0.16254458007E+02  0.17665603407E+02  0.12155421876E+02  0.27315292966E+02  0.47000000000E+01 0.  1.
         -5    1    4    4    0  502  0.45239464782E+01 -0.12805700823E+03 -0.98211024722E+02  0.16151333947E+03  0.47000000000E+01 0.  1.
<mgrwt>
<rscale>  0 0.99974058E+03</rscale>
<asrwt>0</asrwt>
<pdfrwt beam="1">  1        1 0.29091171E-01 0.99974058E+03</pdfrwt>
<pdfrwt beam="2">  1       -1 0.20329501E+00 0.99974058E+03</pdfrwt>
<totfact> 0.23367770E+01</totfact>
</mgrwt>
</event>
<event>
 9    1  0.4497870E-036  0.9985956E+03  0.7818608E-02  0.8682376E-01
         -1   -1    0    0    0  501 -0.00000000000E+00  0.00000000000E+00  0.37473759565E+03  0.37473759565E+03  0.00000000000E+00 0.  1.
          1   -1    0    0  501    0  0.00000000000E+00 -0.00000000000E+00 -0.66526100534E+03  0.66526100534E+03  0.00000000000E+00 0.  1.
         36    2    1    2    0    0 -0.14210854715E-13 -0.42632564146E-13 -0.29052340969E+03  0.10399986010E+04  0.99859563312E+03 0.  0.
         25    2    3    3    0    0 -0.10166884595E+03  0.96525213386E+02 -0.43579214810E+02  0.19291226875E+03  0.12514920861E+03 0.  0.
         35    2    3    3    0    0  0.10166884595E+03 -0.96525213386E+02 -0.24694419488E+03  0.84708633224E+03  0.79807277101E+03 0.  0.
         22    1    5    5    0    0  0.13344119462E+03 -0.25116769459E+03 -0.48452612349E+03  0.56183389678E+03  0.00000000000E+00 0. -1.
         22    1    5    5    0    0 -0.31772348676E+02  0.15464248120E+03  0.23758192861E+03  0.28525243546E+03  0.00000000000E+00 0. -1.
          5    1    4    4  502    0  0.27829402298E+02  0.29604816696E+02 -0.18650721131E+02  0.44953978718E+02  0.47000000000E+01 0.  1.
         -5    1    4    4    0  502 -0.12949824825E+03  0.66920396690E+02 -0.24928493679E+02  0.14795829003E+03  0.47000000000E+01 0.  1.
<mgrwt>
<rscale>  0 0.99859563E+03</rscale>
<asrwt>0</asrwt>
<pdfrwt beam="1">  1        1 0.10234785E+00 0.99859563E+03</pdfrwt>
<pdfrwt beam="2">  1       -1 0.57651938E-01 0.99859563E+03</pdfrwt>
<totfact> 0.10349746E+02</totfact>
</mgrwt>
</event>
<event>
 9    1  0.4497870E-036  0.9996001E+03  0.7818608E-02  0.8681419E-01
         -2   -1    0    0    0  501 -0.00000000000E+00  0.00000000000E+00  0.16236133408E+03  0.16236133408E+03  0.00000000000E+00 0.  1.
          2   -1    0    0  501    0  0.00000000000E+00 -0.00000000000E+00 -0.15385443238E+04  0.15385443238E+04  0.00000000000E+00 0.  1.
         36    2    1    2    0    0 -0.71054273576E-14 -0.28421709430E-13 -0.13761829897E+04  0.17009056579E+04  0.99960013798E+03 0.  0.
         25    2    3    3    0    0 -0.28253585991E+02  0.13760279201E+03 -0.27359799689E+03  0.33185500942E+03  0.12465588586E+03 0.  0.
         35    2    3    3    0    0  0.28253585991E+02 -0.13760279201E+03 -0.11025849928E+04  0.13690506485E+04  0.79929545112E+03 0.  0.
         22    1    5    5    0    0 -0.16419997122E+03 -0.30610556925E+03 -0.10525753335E+04  0.11084119644E+04  0.00000000000E+00 0. -1.
         22    1    5    5    0    0  0.19245355721E+03  0.16850277724E+03 -0.50009659321E+02  0.26063868409E+03  0.00000000000E+00 0. -1.
          5    1    4    4  502    0  0.22637791207E+02 -0.76175004298E+01 -0.84910271572E+02  0.88330856002E+02  0.47000000000E+01 0. -1.
         -5    1    4    4    0  502 -0.50891377198E+02  0.14522029244E+03 -0.18868772532E+03  0.24352415342E+03  0.47000000000E+01 0. -1.
<mgrwt>
<rscale>  0 0.99960014E+03</rscale>
<asrwt>0</asrwt>
<pdfrwt beam="1">  1        2 0.23669912E+00 0.99960014E+03</pdfrwt>
<pdfrwt beam="2">  1       -2 0.24978667E-01 0.99960014E+03</pdfrwt>
<totfact> 0.20701050E+02</totfact>
</mgrwt>
</event>
<event>
 9    1  0.4497870E-036  0.9997055E+03  0.7818608E-02  0.8681318E-01
         -3   -1    0    0    0  501 -0.00000000000E+00  0.00000000000E+00  0.16924213196E+03  0.16924213196E+03  0.00000000000E+00 0. -1.
          3   -1    0    0  501    0  0.00000000000E+00 -0.00000000000E+00 -0.14763036183E+04  0.14763036183E+04  0.00000000000E+00 0. -1.
         36    2    1    2    0    0  0.00000000000E+00 -0.28421709430E-13 -0.13070614863E+04  0.16455457502E+04  0.99970550018E+03 0.  0.
         25    2    3    3    0    0  0.28413103478E+00  0.12065792235E+03 -0.33757207402E+03  0.38229890646E+03  0.13281240064E+03 0.  0.
         35    2    3    3    0    0 -0.28413103478E+00 -0.12065792235E+03 -0.96948941231E+03  0.12632468438E+04  0.80082735518E+03 0.  0.
         22    1    5    5    0    0 -0.58289466592E+02 -0.32666454294E+03 -0.70627299486E+02  0.33925742580E+03  0.00000000000E+00 0. -1.
         22    1    5    5    0    0  0.58005335557E+02  0.20600662059E+03 -0.89886211282E+03  0.92398941798E+03  0.00000000000E+00 0. -1.
          5    1    4    4  502    0 -0.59941082299E+02  0.67653125989E+02 -0.23611830386E+03  0.25287115735E+03  0.47000000000E+01 0.  1.
         -5    1    4    4    0  502  0.60225213334E+02  0.53004796361E+02 -0.10145377016E+03  0.12942774910E+03  0.47000000000E+01 0.  1.
<mgrwt>
<rscale>  0 0.99970550E+03</rscale>
<asrwt>0</asrwt>
<pdfrwt beam="1">  1        3 0.22712364E+00 0.99970550E+03</pdfrwt>
<pdfrwt beam="2">  1       -3 0.26037250E-01 0.99970550E+03</pdfrwt>
<totfact> 0.56260604E+00</totfact>
</mgrwt>
</event>
<event>
 9    1  0.4497870E-036  0.9977861E+03  0.7818608E-02  0.8683149E-01
          1   -1    0    0  501    0  0.00000000000E+00  0.00000000000E+00  0.32125781780E+03  0.32125781780E+03  0.00000000000E+00 0.  1.
         -1   -1    0    0    0  501 -0.00000000000E+00 -0.00000000000E+00 -0.77474934488E+03  0.77474934488E+03  0.00000000000E+00 0.  1.
         36    2    1    2    0    0 -0.14210854715E-13 -0.71054273576E-14 -0.45349152708E+03  0.10960071627E+04  0.99778611711E+03 0.  0.
         25    2    3    3    0    0  0.12267665449E+03 -0.43085828967E+02 -0.13231601399E+03  0.22373206812E+03  0.12507022242E+03 0.  0.
         35    2    3    3    0    0 -0.12267665449E+03  0.43085828967E+02 -0.32117551309E+03  0.87227509455E+03  0.80050245481E+03 0.  0.
         22    1    5    5    0    0  0.24157484329E+03  0.10298488617E+03 -0.41526027779E+03  0.49133022500E+03  0.00000000000E+00 0. -1.
         22    1    5    5    0    0 -0.36425149778E+03 -0.59899057207E+02  0.94084764699E+02  0.38094486955E+03  0.00000000000E+00 0. -1.
          5    1    4    4  502    0  0.86804837181E+02  0.21203072385E+02 -0.11880976096E+03  0.14873634168E+03  0.47000000000E+01 0. -1.
         -5    1    4    4    0  502  0.35871817305E+02 -0.64288901352E+02 -0.13506253026E+02  0.74995726442E+02  0.47000000000E+01 0. -1.
<mgrwt>
<rscale>  0 0.99778612E+03</rscale>
<asrwt>0</asrwt>
<pdfrwt beam="1">  1        1 0.49424280E-01 0.99778612E+03</pdfrwt>
<pdfrwt beam="2">  1       -1 0.11919221E+00 0.99778612E+03</pdfrwt>
<totfact> 0.60668165E+01</totfact>
</mgrwt>
</event>
<event>
 9    1  0.4497870E-036  0.9966344E+03  0.7818608E-02  0.8684250E-01
         -2   -1    0    0    0  501 -0.00000000000E+00  0.00000000000E+00  0.99711957811E+02  0.99711957811E+02  0.00000000000E+00 0.  1.
          2   -1    0    0  501    0  0.00000000000E+00 -0.00000000000E+00 -0.24903734468E+04  0.24903734468E+04  0.00000000000E+00 0.  1.
         36    2    1    2    0    0 -0.14210854715E-13  0.71054273576E-14 -0.23906614890E+04  0.25900854046E+04  0.99663436036E+03 0.  0.
         25    2    3    3    0    0 -0.48933739265E+02  0.58416666632E+02 -0.74238215335E+03  0.75656639863E+03  0.12431587243E+03 0.  0.
         35    2    3    3    0    0  0.48933739265E+02 -0.58416666632E+02 -0.16482793357E+04  0.18335190060E+04  0.79947492721E+03 0.  0.
         22    1    5    5    0    0  0.40041986494E+03 -0.58572805523E+01 -0.11769692734E+04  0.12432324989E+04  0.00000000000E+00 0.  1.
         22    1    5    5    0    0 -0.35148612567E+03 -0.52559386080E+02 -0.47131006229E+03  0.59028650706E+03  0.00000000000E+00 0.  1.
          5    1    4    4  502    0 -0.60348441756E+02  0.49420765975E+02 -0.21165942079E+03  0.22562390596E+03  0.47000000000E+01 0.  1.
         -5    1    4    4    0  502  0.11414702491E+02  0.89959006575E+01 -0.53072273256E+03  0.53094249266E+03  0.47000000000E+01 0.  1.
<mgrwt>
<rscale>  0 0.99663436E+03</rscale>
<asrwt>0</asrwt>
<pdfrwt beam="1">  1        2 0.38313439E+00 0.99663436E+03</pdfrwt>
<pdfrwt beam="2">  1       -2 0.15340301E-01 0.99663436E+03</pdfrwt>
<totfact> 0.13593908E+02</totfact>
</mgrwt>
</event>
<event>
 9    1  0.4497870E-036  0.1000422E+04  0.7818608E-02  0.8680636E-01
         -2   -1    0    0    0  501 -0.00000000000E+00  0.00000000000E+00  0.40665100230E+03  0.40665100230E+03  0.00000000000E+00 0.  1.
          2   -1    0    0  501    0  0.00000000000E+00 -0.00000000000E+00 -0.61529708247E+03  0.61529708247E+03  0.00000000000E+00 0.  1.
         36    2    1    2    0    0  0.00000000000E+00  0.00000000000E+00 -0.20864608017E+03  0.10219480848E+04  0.10004222614E+04 0.  0.
         25    2    3    3    0    0 -0.10359612226E+01  0.13717785227E+03 -0.11848065987E+02  0.18666720582E+03  0.12603742577E+03 0.  0.
         35    2    3    3    0    0  0.10359612226E+01 -0.13717785227E+03 -0.19679801418E+03  0.83528087894E+03  0.80009115229E+03 0.  0.
         22    1    5    5    0    0 -0.30087662315E+02  0.27989868626E+03  0.12456406961E+03  0.30783883679E+03  0.00000000000E+00 0. -1.
         22    1    5    5    0    0  0.31123623538E+02 -0.41707653853E+03 -0.32136208379E+03  0.52744204216E+03  0.00000000000E+00 0. -1.
          5    1    4    4  502    0 -0.19640861059E+02  0.31602893002E+02 -0.58636956789E+02  0.69605236661E+02  0.47000000000E+01 0. -1.
         -5    1    4    4    0  502  0.18604899837E+02  0.10557495927E+03  0.46788890801E+02  0.11706196916E+03  0.47000000000E+01 0. -1.
<mgrwt>
<rscale>  0 0.10004223E+04</rscale>
<asrwt>0</asrwt>
<pdfrwt beam="1">  1        2 0.94661089E-01 0.10004223E+04</pdfrwt>
<pdfrwt beam="2">  1       -2 0.62561693E-01 0.10004223E+04</pdfrwt>
<totfact> 0.13791330E+02</totfact>
</mgrwt>
</event>
<event>
 9    1  0.4497870E-036  0.9994878E+03  0.7818608E-02  0.8681526E-01
          2   -1    0    0  501    0  0.00000000000E+00  0.00000000000E+00  0.10634959911E+04  0.10634959911E+04  0.00000000000E+00 0. -1.
         -2   -1    0    0    0  501 -0.00000000000E+00 -0.00000000000E+00 -0.23483298885E+03  0.23483298885E+03  0.00000000000E+00 0. -1.
         36    2    1    2    0    0 -0.28421709430E-13  0.00000000000E+00  0.82866300225E+03  0.12983289800E+04  0.99948775325E+03 0.  0.
         25    2    3    3    0    0  0.91472698721E+02  0.89297757616E+02  0.83836953318E+02  0.19727173927E+03  0.12468424218E+03 0.  0.
         35    2    3    3    0    0 -0.91472698721E+02 -0.89297757616E+02  0.74482604893E+03  0.11010572407E+04  0.80076204953E+03 0.  0.
         22    1    5    5    0    0 -0.21200002929E+03 -0.67059902379E+02  0.88636449608E+03  0.91382879295E+03  0.00000000000E+00 0.  1.
         22    1    5    5    0    0  0.12052733057E+03 -0.22237855237E+02 -0.14153844714E+03  0.18722844773E+03  0.00000000000E+00 0.  1.
          5    1    4    4  502    0  0.12132555884E+03  0.69163393563E+02  0.79322538909E+02  0.16067862775E+03  0.47000000000E+01 0.  1.
         -5    1    4    4    0  502 -0.29852860121E+02  0.20134364053E+02  0.45144144096E+01  0.36593111520E+02  0.47000000000E+01 0.  1.
<mgrwt>
<rscale>  0 0.99948775E+03</rscale>
<asrwt>0</asrwt>
<pdfrwt beam="1">  1        2 0.16361477E+00 0.99948775E+03</pdfrwt>
<pdfrwt beam="2">  1       -2 0.36128153E-01 0.99948775E+03</pdfrwt>
<totfact> 0.19979579E+02</totfact>
</mgrwt>
</event>
<event>
 9    1  0.4497870E-036  0.1013417E+04  0.7818608E-02  0.8668365E-01
         -1   -1    0    0    0  501 -0.00000000000E+00  0.00000000000E+00  0.10070194602E+03  0.10070194602E+03  0.00000000000E+00 0.  1.
          1   -1    0    0  501    0  0.00000000000E+00 -0.00000000000E+00 -0.25496379476E+04  0.25496379476E+04  0.00000000000E+00 0.  1.
         36    2    1    2    0    0  0.00000000000E+00  0.14210854715E-13 -0.24489360016E+04  0.26503398936E+04  0.10134169980E+04 0.  0.
         25    2    3    3    0    0  0.12459335190E+03 -0.69886891474E+02 -0.59237539620E+03  0.62197670755E+03  0.12465445748E+03 0.  0.
         35    2    3    3    0    0 -0.12459335190E+03  0.69886891474E+02 -0.18565606054E+04  0.20283631861E+04  0.80438315015E+03 0.  0.
         22    1    5    5    0    0 -0.43659307786E+03  0.18716633981E+03 -0.12324282991E+04  0.13208044015E+04  0.00000000000E+00 0.  1.
         22    1    5    5    0    0  0.31199972596E+03 -0.11727944834E+03 -0.62413230625E+03  0.70755878462E+03  0.00000000000E+00 0.  1.
          5    1    4    4  502    0  0.13542153309E+03 -0.21249812327E+02 -0.38686361441E+03  0.41045839291E+03  0.47000000000E+01 0. -1.
         -5    1    4    4    0  502 -0.10828181190E+02 -0.48637079147E+02 -0.20551178179E+03  0.21151831464E+03  0.47000000000E+01 0. -1.
<mgrwt>
<rscale>  0 0.10134170E+04</rscale>
<asrwt>0</asrwt>
<pdfrwt beam="1">  1        1 0.39225194E+00 0.10134170E+04</pdfrwt>
<pdfrwt beam="2">  1       -1 0.15492609E-01 0.10134170E+04</pdfrwt>
<totfact> 0.39737359E+01</totfact>
</mgrwt>
</event>
<event>
 9    1  0.4497870E-036  0.1002244E+04  0.7818608E-02  0.8678904E-01
          2   -1    0    0  501    0  0.00000000000E+00  0.00000000000E+00  0.10424799447E+04  0.10424799447E+04  0.00000000000E+00 0. -1.
         -2   -1    0    0    0  501 -0.00000000000E+00 -0.00000000000E+00 -0.24089025918E+03  0.24089025918E+03  0.00000000000E+00 0. -1.
         36    2    1    2    0    0  0.14210854715E-13  0.71054273576E-14  0.80158968550E+03  0.12833702039E+04  0.10022440103E+04 0.  0.
         25    2    3    3    0    0  0.12490059835E+03 -0.50661213232E+02  0.92228804505E+02  0.20587798222E+03  0.12535099995E+03 0.  0.
         35    2    3    3    0    0 -0.12490059835E+03  0.50661213232E+02  0.70936088099E+03  0.10774922216E+04  0.79976866042E+03 0.  0.
         22    1    5    5    0    0 -0.10659203685E+03 -0.80159256483E+02  0.86393227949E+03  0.87416608963E+03  0.00000000000E+00 0.  1.
         22    1    5    5    0    0 -0.18308561501E+02  0.13082046971E+03 -0.15457139849E+03  0.20332613200E+03  0.00000000000E+00 0.  1.
          5    1    4    4  502    0  0.13387684685E+03 -0.70815882367E+02  0.10052946633E+03  0.18184103750E+03  0.47000000000E+01 0. -1.
         -5    1    4    4    0  502 -0.89762484958E+01  0.20154669135E+02 -0.83006618272E+01  0.24036944726E+02  0.47000000000E+01 0. -1.
<mgrwt>
<rscale>  0 0.10022440E+04</rscale>
<asrwt>0</asrwt>
<pdfrwt beam="1">  1        2 0.16038153E+00 0.10022440E+04</pdfrwt>
<pdfrwt beam="2">  1       -2 0.37060040E-01 0.10022440E+04</pdfrwt>
<totfact> 0.19620851E+02</totfact>
</mgrwt>
</event>
<event>
 9    1  0.4497870E-036  0.1001129E+04  0.7818608E-02  0.8679964E-01
          4   -1    0    0  501    0  0.00000000000E+00  0.00000000000E+00  0.80184945362E+03  0.80184945362E+03  0.00000000000E+00 0.  1.
         -4   -1    0    0    0  501 -0.00000000000E+00 -0.00000000000E+00 -0.31248357625E+03  0.31248357625E+03  0.00000000000E+00 0.  1.
         36    2    1    2    0    0 -0.14210854715E-13  0.00000000000E+00  0.48936587737E+03  0.11143330299E+04  0.10011289325E+04 0.  0.
         25    2    3    3    0    0 -0.91945331264E+02  0.28677605606E+02  0.20608774083E+03  0.25960448819E+03  0.12508390929E+03 0.  0.
         35    2    3    3    0    0  0.91945331264E+02 -0.28677605606E+02  0.28327813654E+03  0.85472854167E+03  0.80064850484E+03 0.  0.
         22    1    5    5    0    0  0.18789743312E+03 -0.28260404371E+03  0.42870947933E+03  0.54677445859E+03  0.00000000000E+00 0. -1.
         22    1    5    5    0    0 -0.95952101858E+02  0.25392643811E+03 -0.14543134279E+03  0.30795408308E+03  0.00000000000E+00 0. -1.
          5    1    4    4  502    0 -0.27991920339E+02  0.21147792664E+02  0.18972280255E+03  0.19299639516E+03  0.47000000000E+01 0. -1.
         -5    1    4    4    0  502 -0.63953410926E+02  0.75298129417E+01  0.16364938283E+02  0.66608093029E+02  0.47000000000E+01 0. -1.
<mgrwt>
<rscale>  0 0.10011289E+04</rscale>
<asrwt>0</asrwt>
<pdfrwt beam="1">  1        4 0.12336145E+00 0.10011289E+04</pdfrwt>
<pdfrwt beam="2">  1       -4 0.48074397E-01 0.10011289E+04</pdfrwt>
<totfact> 0.44098735E+00</totfact>
</mgrwt>
</event>
<event>
 9    1  0.4497870E-036  0.9994421E+03  0.7818608E-02  0.8681569E-01
         -2   -1    0    0    0  501 -0.00000000000E+00  0.00000000000E+00  0.16079157815E+04  0.16079157815E+04  0.00000000000E+00 0.  1.
          2   -1    0    0  501    0  0.00000000000E+00 -0.00000000000E+00 -0.15530733382E+03  0.15530733382E+03  0.00000000000E+00 0.  1.
         36    2    1    2    0    0 -0.14210854715E-13  0.00000000000E+00  0.14526084476E+04  0.17632231153E+04  0.99944207040E+03 0.  0.
         25    2    3    3    0    0  0.65899559268E+02  0.12282106615E+03  0.26111136071E+03  0.32175508280E+03  0.12617220144E+03 0.  0.
         35    2    3    3    0    0 -0.65899559268E+02 -0.12282106615E+03  0.11914970869E+04  0.14414680325E+04  0.79921024409E+03 0.  0.
         22    1    5    5    0    0 -0.10521192860E+03 -0.88839331888E+01 -0.99366197540E+02  0.14499005277E+03  0.00000000000E+00 0. -1.
         22    1    5    5    0    0  0.39312369332E+02 -0.11393713297E+03  0.12908632845E+04  0.12964779797E+04  0.00000000000E+00 0. -1.
          5    1    4    4  502    0  0.46529257412E+02  0.13732367549E+03  0.15288646740E+03  0.21075845311E+03  0.47000000000E+01 0. -1.
         -5    1    4    4    0  502  0.19370301856E+02 -0.14502609332E+02  0.10822489331E+03  0.11099662969E+03  0.47000000000E+01 0. -1.
<mgrwt>
<rscale>  0 0.99944207E+03</rscale>
<asrwt>0</asrwt>
<pdfrwt beam="1">  1        2 0.23893437E-01 0.99944207E+03</pdfrwt>
<pdfrwt beam="2">  1       -2 0.24737165E+00 0.99944207E+03</pdfrwt>
<totfact> 0.16513488E+01</totfact>
</mgrwt>
</event>
<event>
 9    1  0.4497870E-036  0.9989694E+03  0.7818608E-02  0.8682020E-01
          2   -1    0    0  501    0  0.00000000000E+00  0.00000000000E+00  0.52134000056E+03  0.52134000056E+03  0.00000000000E+00 0. -1.
         -2   -1    0    0    0  501 -0.00000000000E+00 -0.00000000000E+00 -0.47854559869E+03  0.47854559869E+03  0.00000000000E+00 0. -1.
         36    2    1    2    0    0 -0.14210854715E-13  0.14210854715E-13  0.42794401871E+02  0.99988559924E+03  0.99896939430E+03 0.  0.
         25    2    3    3    0    0  0.11925721784E+03  0.62607829642E+02  0.43157979231E+02  0.18914989767E+03  0.12559079694E+03 0.  0.
         35    2    3    3    0    0 -0.11925721784E+03 -0.62607829642E+02 -0.36357736045E+00  0.81073570157E+03  0.79946871188E+03 0.  0.
         22    1    5    5    0    0  0.42289412166E+02 -0.73767076643E+02  0.38418575411E+03  0.39348274377E+03  0.00000000000E+00 0. -1.
         22    1    5    5    0    0 -0.16154663001E+03  0.11159247001E+02 -0.38454933147E+03  0.41725295781E+03  0.00000000000E+00 0. -1.
          5    1    4    4  502    0  0.14290285678E+03  0.47252225862E+02  0.51869273711E+02  0.15926867514E+03  0.47000000000E+01 0.  1.
         -5    1    4    4    0  502 -0.23645638937E+02  0.15355603781E+02 -0.87112944796E+01  0.29881222528E+02  0.47000000000E+01 0.  1.
<mgrwt>
<rscale>  0 0.99896939E+03</rscale>
<asrwt>0</asrwt>
<pdfrwt beam="1">  1        2 0.80206154E-01 0.99896939E+03</pdfrwt>
<pdfrwt beam="2">  1       -2 0.73622400E-01 0.99896939E+03</pdfrwt>
<totfact> 0.11791929E+02</totfact>
</mgrwt>
</event>
<event>
 9    1  0.4497870E-036  0.1000391E+04  0.7818608E-02  0.8680666E-01
         -1   -1    0    0    0  501 -0.00000000000E+00  0.00000000000E+00  0.70493004481E+02  0.70493004481E+02  0.00000000000E+00 0. -1.
          1   -1    0    0  501    0  0.00000000000E+00 -0.00000000000E+00 -0.35492246838E+04  0.35492246838E+04  0.00000000000E+00 0. -1.
         36    2    1    2    0    0  0.00000000000E+00  0.00000000000E+00 -0.34787316793E+04  0.36197176883E+04  0.10003909467E+04 0.  0.
         25    2    3    3    0    0 -0.11735317592E+03 -0.75922500546E+02 -0.53572681848E+03  0.56757657986E+03  0.12491579554E+03 0.  0.
         35    2    3    3    0    0  0.11735317592E+03  0.75922500546E+02 -0.29430048609E+04  0.30521411084E+04  0.79671308564E+03 0.  0.
         22    1    5    5    0    0  0.46025633295E+03  0.71657168226E+02 -0.17240130142E+04  0.17858307632E+04  0.00000000000E+00 0. -1.
         22    1    5    5    0    0 -0.34290315704E+03  0.42653323198E+01 -0.12189918467E+04  0.12663103453E+04  0.00000000000E+00 0. -1.
          5    1    4    4  502    0 -0.14673556245E+02 -0.52171698425E+02 -0.34810256637E+03  0.35232752672E+03  0.47000000000E+01 0.  1.
         -5    1    4    4    0  502 -0.10267961967E+03 -0.23750802121E+02 -0.18762425210E+03  0.21524905313E+03  0.47000000000E+01 0.  1.
<mgrwt>
<rscale>  0 0.10003909E+04</rscale>
<asrwt>0</asrwt>
<pdfrwt beam="1">  1        1 0.54603454E+00 0.10003909E+04</pdfrwt>
<pdfrwt beam="2">  1       -1 0.10845078E-01 0.10003909E+04</pdfrwt>
<totfact> 0.13284581E+01</totfact>
</mgrwt>
</event>
<event>
 9    1  0.4497870E-036  0.9999443E+03  0.7818608E-02  0.8681091E-01
          2   -1    0    0  501    0  0.00000000000E+00  0.00000000000E+00  0.11949339778E+04  0.11949339778E+04  0.00000000000E+00 0.  1.
         -2   -1    0    0    0  501 -0.00000000000E+00 -0.00000000000E+00 -0.20919326207E+03  0.20919326207E+03  0.00000000000E+00 0.  1.
         36    2    1    2    0    0  0.28421709430E-13  0.00000000000E+00  0.98574071576E+03  0.14041272399E+04  0.99994427201E+03 0.  0.
         25    2    3    3    0    0 -0.12937970830E+03  0.26872645300E+01  0.92271687832E+02  0.19810080204E+03  0.11825198976E+03 0.  0.
         35    2    3    3    0    0  0.12937970830E+03 -0.26872645300E+01  0.89346902793E+03  0.12060264379E+04  0.79966651465E+03 0.  0.
         22    1    5    5    0    0  0.17998631059E+03  0.10929628454E+03  0.10129641072E+04  0.10346192693E+04  0.00000000000E+00 0.  1.
         22    1    5    5    0    0 -0.50606602290E+02 -0.11198354907E+03 -0.11949507932E+03  0.17140716858E+03  0.00000000000E+00 0.  1.
          5    1    4    4  502    0 -0.93271900506E+02 -0.46253488495E+02  0.88940769368E+02  0.13700942697E+03  0.47000000000E+01 0. -1.
         -5    1    4    4    0  502 -0.36107807793E+02  0.48940753025E+02  0.33309184633E+01  0.61091375071E+02  0.47000000000E+01 0. -1.
<mgrwt>
<rscale>  0 0.99994427E+03</rscale>
<asrwt>0</asrwt>
<pdfrwt beam="1">  1        2 0.18383599E+00 0.99994427E+03</pdfrwt>
<pdfrwt beam="2">  1       -2 0.32183579E-01 0.99994427E+03</pdfrwt>
<totfact> 0.20643818E+02</totfact>
</mgrwt>
</event>
<event>
 9    1  0.4497870E-036  0.1000176E+04  0.7818608E-02  0.8680870E-01
         -1   -1    0    0    0  501 -0.00000000000E+00  0.00000000000E+00  0.47605306458E+03  0.47605306458E+03  0.00000000000E+00 0.  1.
          1   -1    0    0  501    0  0.00000000000E+00 -0.00000000000E+00 -0.52533659865E+03  0.52533659865E+03  0.00000000000E+00 0.  1.
         36    2    1    2    0    0  0.71054273576E-14  0.00000000000E+00 -0.49283534067E+02  0.10013896632E+04  0.10001761799E+04 0.  0.
         25    2    3    3    0    0  0.46706060562E+02  0.15645359699E+02  0.12212317243E+03  0.18136601358E+03  0.12471298355E+03 0.  0.
         35    2    3    3    0    0 -0.46706060562E+02 -0.15645359699E+02 -0.17140670649E+03  0.82002364965E+03  0.80039508593E+03 0.  0.
         22    1    5    5    0    0 -0.46053951819E+02 -0.32519299079E+03 -0.33564347370E+03  0.46960407704E+03  0.00000000000E+00 0. -1.
         22    1    5    5    0    0 -0.65210874347E+00  0.30954763109E+03  0.16423676721E+03  0.35041957260E+03  0.00000000000E+00 0. -1.
          5    1    4    4  502    0  0.34483598311E+00 -0.28414871344E+02 -0.13148601364E+02  0.31662273184E+02  0.47000000000E+01 0. -1.
         -5    1    4    4    0  502  0.46361224579E+02  0.44060231043E+02  0.13527177379E+03  0.14970374040E+03  0.47000000000E+01 0. -1.
<mgrwt>
<rscale>  0 0.10001762E+04</rscale>
<asrwt>0</asrwt>
<pdfrwt beam="1">  1        1 0.80821015E-01 0.10001762E+04</pdfrwt>
<pdfrwt beam="2">  1       -1 0.73238933E-01 0.10001762E+04</pdfrwt>
<totfact> 0.91444617E+01</totfact>
</mgrwt>
</event>
<event>
 9    1  0.4497870E-036  0.9947710E+03  0.7818608E-02  0.8686033E-01
         -2   -1    0    0    0  501 -0.00000000000E+00  0.00000000000E+00  0.28832991477E+03  0.28832991477E+03  0.00000000000E+00 0. -1.
          2   -1    0    0  501    0  0.00000000000E+00 -0.00000000000E+00 -0.85801834985E+03  0.85801834985E+03  0.00000000000E+00 0. -1.
         36    2    1    2    0    0  0.00000000000E+00 -0.71054273576E-14 -0.56968843508E+03  0.11463482646E+04  0.99477104438E+03 0.  0.
         25    2    3    3    0    0 -0.10261203963E+02  0.80457691221E+01 -0.26139397008E+03  0.29014154326E+03  0.12524089118E+03 0.  0.
         35    2    3    3    0    0  0.10261203963E+02 -0.80457691221E+01 -0.30829446500E+03  0.85620672136E+03  0.79867042380E+03 0.  0.
         22    1    5    5    0    0 -0.70816015329E+02  0.20253737292E+03 -0.51015709002E+03  0.55344064899E+03  0.00000000000E+00 0.  1.
         22    1    5    5    0    0  0.81077219293E+02 -0.21058314204E+03  0.20186262502E+03  0.30276607237E+03  0.00000000000E+00 0.  1.
          5    1    4    4  502    0 -0.67198371158E+02  0.11263133556E+02 -0.15365022348E+03  0.16814565245E+03  0.47000000000E+01 0.  1.
         -5    1    4    4    0  502  0.56937167195E+02 -0.32173644340E+01 -0.10774374660E+03  0.12199589081E+03  0.47000000000E+01 0.  1.
<mgrwt>
<rscale>  0 0.99477104E+03</rscale>
<asrwt>0</asrwt>
<pdfrwt beam="1">  1        2 0.13200282E+00 0.99477104E+03</pdfrwt>
<pdfrwt beam="2">  1       -2 0.44358448E-01 0.99477104E+03</pdfrwt>
<totfact> 0.18266468E+02</totfact>
</mgrwt>
</event>
<event>
 9    1  0.4497870E-036  0.9999867E+03  0.7818608E-02  0.8681051E-01
         -2   -1    0    0    0  501 -0.00000000000E+00  0.00000000000E+00  0.20435766609E+03  0.20435766609E+03  0.00000000000E+00 0. -1.
          2   -1    0    0  501    0  0.00000000000E+00 -0.00000000000E+00 -0.12233129143E+04  0.12233129143E+04  0.00000000000E+00 0. -1.
         36    2    1    2    0    0  0.56843418861E-13  0.35527136788E-14 -0.10189552482E+04  0.14276705804E+04  0.99998674404E+03 0.  0.
         25    2    3    3    0    0 -0.13637046764E+03 -0.29761264541E+02 -0.21613904643E+03  0.28605114593E+03  0.12500613338E+03 0.  0.
         35    2    3    3    0    0  0.13637046764E+03  0.29761264541E+02 -0.80281620181E+03  0.11416194345E+04  0.79956140601E+03 0.  0.
         22    1    5    5    0    0 -0.27692577517E+03  0.22789469113E+01 -0.63856920243E+03  0.69603426988E+03  0.00000000000E+00 0.  1.
         22    1    5    5    0    0  0.41329624282E+03  0.27482317630E+02 -0.16424699938E+03  0.44558516461E+03  0.00000000000E+00 0.  1.
          5    1    4    4  502    0  0.21603843567E+02 -0.17169879125E+02 -0.23427130230E+02  0.36502756565E+02  0.47000000000E+01 0. -1.
         -5    1    4    4    0  502 -0.15797431121E+03 -0.12591385417E+02 -0.19271191620E+03  0.24954838936E+03  0.47000000000E+01 0. -1.
<mgrwt>
<rscale>  0 0.99998674E+03</rscale>
<asrwt>0</asrwt>
<pdfrwt beam="1">  1        2 0.18820199E+00 0.99998674E+03</pdfrwt>
<pdfrwt beam="2">  1       -2 0.31439640E-01 0.99998674E+03</pdfrwt>
<totfact> 0.20735539E+02</totfact>
</mgrwt>
</event>
<event>
 9    1  0.4497870E-036  0.1000488E+04  0.7818608E-02  0.8680573E-01
          2   -1    0    0  501    0  0.00000000000E+00  0.00000000000E+00  0.14241681149E+04  0.14241681149E+04  0.00000000000E+00 0.  1.
         -2   -1    0    0    0  501 -0.00000000000E+00 -0.00000000000E+00 -0.17571256096E+03  0.17571256096E+03  0.00000000000E+00 0.  1.
         36    2    1    2    0    0  0.00000000000E+00  0.42632564146E-13  0.12484555539E+04  0.15998806758E+04  0.10004883342E+04 0.  0.
         25    2    3    3    0    0  0.13133713768E+03 -0.45124740785E+02  0.27631697224E+03  0.33312988804E+03  0.12384977672E+03 0.  0.
         35    2    3    3    0    0 -0.13133713768E+03  0.45124740785E+02  0.97213858166E+03  0.12667507878E+04  0.80019900677E+03 0.  0.
         22    1    5    5    0    0 -0.19759082210E+03  0.35933989805E+03  0.26000181783E+03  0.48555971887E+03  0.00000000000E+00 0. -1.
         22    1    5    5    0    0  0.66253684416E+02 -0.31421515727E+03  0.71213676383E+03  0.78119106891E+03  0.00000000000E+00 0. -1.
          5    1    4    4  502    0  0.13874199835E+02 -0.62128741907E+02  0.67557577472E+02  0.92944016838E+02  0.47000000000E+01 0.  1.
         -5    1    4    4    0  502  0.11746293785E+03  0.17004001122E+02  0.20875939476E+03  0.24018587120E+03  0.47000000000E+01 0.  1.
<mgrwt>
<rscale>  0 0.10004883E+04</rscale>
<asrwt>0</asrwt>
<pdfrwt beam="1">  1        2 0.21910278E+00 0.10004883E+04</pdfrwt>
<pdfrwt beam="2">  1       -2 0.27032703E-01 0.10004883E+04</pdfrwt>
<totfact> 0.20875913E+02</totfact>
</mgrwt>
</event>
<event>
 9    1  0.4497870E-036  0.1000050E+04  0.7818608E-02  0.8680990E-01
         -1   -1    0    0    0  501 -0.00000000000E+00  0.00000000000E+00  0.60870766843E+03  0.60870766843E+03  0.00000000000E+00 0. -1.
          1   -1    0    0  501    0  0.00000000000E+00 -0.00000000000E+00 -0.41074729283E+03  0.41074729283E+03  0.00000000000E+00 0. -1.
         36    2    1    2    0    0  0.00000000000E+00  0.00000000000E+00  0.19796037561E+03  0.10194549613E+04  0.10000500526E+04 0.  0.
         25    2    3    3    0    0  0.89422403827E+02 -0.65778263407E+02  0.12333822172E+03  0.20779078981E+03  0.12506617907E+03 0.  0.
         35    2    3    3    0    0 -0.89422403827E+02  0.65778263407E+02  0.74622153883E+02  0.81166417145E+03  0.80056674620E+03 0.  0.
         22    1    5    5    0    0 -0.20124626833E+03  0.39631049546E+03  0.11843672217E+03  0.45998839821E+03  0.00000000000E+00 0.  1.
         22    1    5    5    0    0  0.11182386450E+03 -0.33053223205E+03 -0.43814568292E+02  0.35167577325E+03  0.00000000000E+00 0.  1.
          5    1    4    4  502    0  0.13757863161E+02 -0.83954806666E+02  0.41534043903E+02  0.94788475903E+02  0.47000000000E+01 0. -1.
         -5    1    4    4    0  502  0.75664540666E+02  0.18176543259E+02  0.81804177821E+02  0.11300231391E+03  0.47000000000E+01 0. -1.
<mgrwt>
<rscale>  0 0.10000501E+04</rscale>
<asrwt>0</asrwt>
<pdfrwt beam="1">  1        1 0.63191891E-01 0.10000501E+04</pdfrwt>
<pdfrwt beam="2">  1       -1 0.93647334E-01 0.10000501E+04</pdfrwt>
<totfact> 0.76414662E+01</totfact>
</mgrwt>
</event>
<event>
 9    1  0.4497870E-036  0.9992690E+03  0.7818608E-02  0.8681734E-01
         -1   -1    0    0    0  501 -0.00000000000E+00  0.00000000000E+00  0.13688478448E+03  0.13688478448E+03  0.00000000000E+00 0.  1.
          1   -1    0    0  501    0  0.00000000000E+00 -0.00000000000E+00 -0.18236841777E+04  0.18236841777E+04  0.00000000000E+00 0.  1.
         36    2    1    2    0    0 -0.42632564146E-13  0.00000000000E+00 -0.16867993933E+04  0.19605689622E+04  0.99926896404E+03 0.  0.
         25    2    3    3    0    0  0.10449191020E+03  0.78830333852E+02 -0.40375380695E+03  0.44283826135E+03  0.12631630241E+03 0.  0.
         35    2    3    3    0    0 -0.10449191020E+03 -0.78830333852E+02 -0.12830455863E+04  0.15177307009E+04  0.80010481998E+03 0.  0.
         22    1    5    5    0    0 -0.14246226448E+03 -0.36881652148E+03 -0.31215644081E+03  0.50374871400E+03  0.00000000000E+00 0.  1.
         22    1    5    5    0    0  0.37970354279E+02  0.28998618763E+03 -0.97088914550E+03  0.10139819869E+04  0.00000000000E+00 0.  1.
          5    1    4    4  502    0  0.14403524630E+02 -0.18124707929E+02 -0.71098153992E+01  0.24669941919E+02  0.47000000000E+01 0. -1.
         -5    1    4    4    0  502  0.90088385574E+02  0.96955041781E+02 -0.39664399155E+03  0.41816831943E+03  0.47000000000E+01 0. -1.
<mgrwt>
<rscale>  0 0.99926896E+03</rscale>
<asrwt>0</asrwt>
<pdfrwt beam="1">  1        1 0.28056678E+00 0.99926896E+03</pdfrwt>
<pdfrwt beam="2">  1       -1 0.21059199E-01 0.99926896E+03</pdfrwt>
<totfact> 0.77740427E+01</totfact>
</mgrwt>
</event>
<event>
 9    1  0.4497870E-036  0.1000282E+04  0.7818608E-02  0.8680769E-01
          1   -1    0    0  501    0  0.00000000000E+00  0.00000000000E+00  0.83772641425E+03  0.83772641425E+03  0.00000000000E+00 0. -1.
         -1   -1    0    0    0  501 -0.00000000000E+00 -0.00000000000E+00 -0.29859537242E+03  0.29859537242E+03  0.00000000000E+00 0. -1.
         36    2    1    2    0    0  0.71054273576E-14 -0.14210854715E-13  0.53913104182E+03  0.11363217867E+04  0.10002824214E+04 0.  0.
         25    2    3    3    0    0  0.43668465636E+02  0.75666390903E+02  0.22614947645E+03  0.27322245734E+03  0.12599439628E+03 0.  0.
         35    2    3    3    0    0 -0.43668465636E+02 -0.75666390903E+02  0.31298156538E+03  0.86309932933E+03  0.79959405602E+03 0.  0.
         22    1    5    5    0    0  0.31008779838E+03  0.52634362202E+01 -0.87911212731E+02  0.32235155930E+03  0.00000000000E+00 0.  1.
         22    1    5    5    0    0 -0.35375626401E+03 -0.80929827123E+02  0.40089277811E+03  0.54074777002E+03  0.00000000000E+00 0.  1.
          5    1    4    4  502    0 -0.60359133492E+01 -0.29214771228E+02  0.18857558783E+02  0.35603828883E+02  0.47000000000E+01 0. -1.
         -5    1    4    4    0  502  0.49704378985E+02  0.10488116213E+03  0.20729191767E+03  0.23761862846E+03  0.47000000000E+01 0. -1.
<mgrwt>
<rscale>  0 0.10002824E+04</rscale>
<asrwt>0</asrwt>
<pdfrwt beam="1">  1        1 0.12888099E+00 0.10002824E+04</pdfrwt>
<pdfrwt beam="2">  1       -1 0.45937750E-01 0.10002824E+04</pdfrwt>
<totfact> 0.10968757E+02</totfact>
</mgrwt>
</event>
<event>
 9    1  0.4497870E-036  0.1000148E+04  0.7818608E-02  0.8680897E-01
         -2   -1    0    0    0  501 -0.00000000000E+00  0.00000000000E+00  0.30206382487E+03  0.30206382487E+03  0.00000000000E+00 0.  1.
          2   -1    0    0  501    0  0.00000000000E+00 -0.00000000000E+00 -0.82788468576E+03  0.82788468576E+03  0.00000000000E+00 0.  1.
         36    2    1    2    0    0 -0.42632564146E-13  0.14210854715E-13 -0.52582086089E+03  0.11299485106E+04  0.10001480185E+04 0.  0.
         25    2    3    3    0    0 -0.10243031634E+03 -0.58463096751E+02 -0.19182331246E+03  0.25748158795E+03  0.12486265070E+03 0.  0.
         35    2    3    3    0    0  0.10243031634E+03  0.58463096751E+02 -0.33399754843E+03  0.87246692269E+03  0.79732945853E+03 0.  0.
         22    1    5    5    0    0 -0.34054881859E+03  0.10016711898E+03 -0.95298683249E+02  0.36754426753E+03  0.00000000000E+00 0. -1.
         22    1    5    5    0    0  0.44297913493E+03 -0.41704022233E+02 -0.23869886518E+03  0.50492265516E+03  0.00000000000E+00 0. -1.
          5    1    4    4  502    0 -0.10079974349E+03 -0.92327603458E+02 -0.16259954277E+03  0.21247511844E+03  0.47000000000E+01 0. -1.
         -5    1    4    4    0  502 -0.16305728525E+01  0.33864506707E+02 -0.29223769690E+02  0.45006469505E+02  0.47000000000E+01 0. -1.
<mgrwt>
<rscale>  0 0.10001480E+04</rscale>
<asrwt>0</asrwt>
<pdfrwt beam="1">  1        2 0.12736687E+00 0.10001480E+04</pdfrwt>
<pdfrwt beam="2">  1       -2 0.46471358E-01 0.10001480E+04</pdfrwt>
<totfact> 0.17478291E+02</totfact>
</mgrwt>
</event>
<event>
 9    1  0.4497870E-036  0.1000377E+04  0.7818608E-02  0.8680679E-01
          2   -1    0    0  501    0  0.00000000000E+00  0.00000000000E+00  0.11574010527E+04  0.11574010527E+04  0.00000000000E+00 0. -1.
         -2   -1    0    0    0  501 -0.00000000000E+00 -0.00000000000E+00 -0.21616395799E+03  0.21616395799E+03  0.00000000000E+00 0. -1.
         36    2    1    2    0    0  0.28421709430E-13  0.00000000000E+00  0.94123709469E+03  0.13735650107E+04  0.10003767141E+04 0.  0.
         25    2    3    3    0    0  0.74484055145E+02 -0.10888382211E+03  0.23073103847E+03  0.29459373165E+03  0.12706334416E+03 0.  0.
         35    2    3    3    0    0 -0.74484055145E+02  0.10888382211E+03  0.71050605622E+03  0.10789712790E+04  0.80122194419E+03 0.  0.
         22    1    5    5    0    0 -0.38888289031E+03  0.29501264666E+02  0.63632168191E+03  0.74632801760E+03  0.00000000000E+00 0.  1.
         22    1    5    5    0    0  0.31439883517E+03  0.79382557441E+02  0.74184374319E+02  0.33264326143E+03  0.00000000000E+00 0.  1.
          5    1    4    4  502    0  0.27522735306E+02 -0.12444804083E+03  0.19644903850E+03  0.23422026076E+03  0.47000000000E+01 0.  1.
         -5    1    4    4    0  502  0.46961319838E+02  0.15564218719E+02  0.34281999969E+02  0.60373470889E+02  0.47000000000E+01 0.  1.
<mgrwt>
<rscale>  0 0.10003767E+04</rscale>
<asrwt>0</asrwt>
<pdfrwt beam="1">  1        2 0.17806170E+00 0.10003767E+04</pdfrwt>
<pdfrwt beam="2">  1       -2 0.33255994E-01 0.10003767E+04</pdfrwt>
<totfact> 0.20456273E+02</totfact>
</mgrwt>
</event>
<event>
 9    1  0.4497870E-036  0.1000483E+04  0.7818608E-02  0.8680578E-01
         -2   -1    0    0    0  501 -0.00000000000E+00  0.00000000000E+00  0.69774744506E+03  0.69774744506E+03  0.00000000000E+00 0.  1.
          2   -1    0    0  501    0  0.00000000000E+00 -0.00000000000E+00 -0.35864174969E+03  0.35864174969E+03  0.00000000000E+00 0.  1.
         36    2    1    2    0    0  0.14210854715E-13 -0.10658141036E-13  0.33910569538E+03  0.10563891948E+04  0.10004826126E+04 0.  0.
         25    2    3    3    0    0 -0.32219816917E+02  0.17491687561E+02 -0.79975635333E+02  0.15252711603E+03  0.12459672203E+03 0.  0.
         35    2    3    3    0    0  0.32219816917E+02 -0.17491687561E+02  0.41908133071E+03  0.90386207873E+03  0.79999588741E+03 0.  0.
         22    1    5    5    0    0  0.17463724202E+03  0.14518033982E+03  0.58745736106E+03  0.62982668126E+03  0.00000000000E+00 0.  1.
         22    1    5    5    0    0 -0.14241742511E+03 -0.16267202738E+03 -0.16837603035E+03  0.27403539746E+03  0.00000000000E+00 0.  1.
          5    1    4    4  502    0 -0.74096444450E+02  0.36754307751E+02 -0.43578739881E+02  0.93607471860E+02  0.47000000000E+01 0.  1.
         -5    1    4    4    0  502  0.41876627533E+02 -0.19262620190E+02 -0.36396895452E+02  0.58919644165E+02  0.47000000000E+01 0.  1.
<mgrwt>
<rscale>  0 0.10004826E+04</rscale>
<asrwt>0</asrwt>
<pdfrwt beam="1">  1        2 0.55175654E-01 0.10004826E+04</pdfrwt>
<pdfrwt beam="2">  1       -2 0.10734576E+00 0.10004826E+04</pdfrwt>
<totfact> 0.74029473E+01</totfact>
</mgrwt>
</event>
<event>
 9    1  0.4497870E-036  0.1001297E+04  0.7818608E-02  0.8679804E-01
         -2   -1    0    0    0  501 -0.00000000000E+00  0.00000000000E+00  0.75436772317E+02  0.75436772317E+02  0.00000000000E+00 0.  1.
          2   -1    0    0  501    0  0.00000000000E+00 -0.00000000000E+00 -0.33226347687E+04  0.33226347687E+04  0.00000000000E+00 0.  1.
         36    2    1    2    0    0  0.00000000000E+00  0.14210854715E-13 -0.32471979964E+04  0.33980715411E+04  0.10012968442E+04 0.  0.
         25    2    3    3    0    0 -0.81142797170E+02 -0.55896487445E+02 -0.96816080675E+03  0.98113351181E+03  0.12481606232E+03 0.  0.
         35    2    3    3    0    0  0.81142797170E+02  0.55896487445E+02 -0.22790371897E+04  0.24169380292E+04  0.79866786245E+03 0.  0.
         22    1    5    5    0    0 -0.11824905542E+03 -0.19540836084E+03 -0.17278173286E+03  0.28639272652E+03  0.00000000000E+00 0.  1.
         22    1    5    5    0    0  0.19939185259E+03  0.25130484828E+03 -0.21062554568E+04  0.21305453027E+04  0.00000000000E+00 0.  1.
          5    1    4    4  502    0 -0.64784499936E+02 -0.50519965083E+02 -0.95600108134E+03  0.95953606281E+03  0.47000000000E+01 0. -1.
         -5    1    4    4    0  502 -0.16358297234E+02 -0.53765223618E+01 -0.12159725414E+02  0.21597448999E+02  0.47000000000E+01 0. -1.
<mgrwt>
<rscale>  0 0.10012968E+04</rscale>
<asrwt>0</asrwt>
<pdfrwt beam="1">  1        2 0.51117454E+00 0.10012968E+04</pdfrwt>
<pdfrwt beam="2">  1       -2 0.11605658E-01 0.10012968E+04</pdfrwt>
<totfact> 0.61182297E+01</totfact>
</mgrwt>
</event>
<event>
 9    1  0.4497870E-036  0.9997837E+03  0.7818608E-02  0.8681244E-01
          2   -1    0    0  501    0  0.00000000000E+00  0.00000000000E+00  0.69276632396E+03  0.69276632396E+03  0.00000000000E+00 0.  1.
         -2   -1    0    0    0  501 -0.00000000000E+00 -0.00000000000E+00 -0.36071592418E+03  0.36071592418E+03  0.00000000000E+00 0.  1.
         36    2    1    2    0    0 -0.71054273576E-14  0.71054273576E-14  0.33205039979E+03  0.10534822481E+04  0.99978366618E+03 0.  0.
         25    2    3    3    0    0 -0.41945824787E+02  0.52724450566E+02  0.19023123497E+03  0.23807683619E+03  0.12630652107E+03 0.  0.
         35    2    3    3    0    0  0.41945824787E+02 -0.52724450566E+02  0.14181916481E+03  0.81540541196E+03  0.80014623066E+03 0.  0.
         22    1    5    5    0    0  0.28266148649E+03  0.15971689303E+02  0.37731360583E+03  0.47171831419E+03  0.00000000000E+00 0.  1.
         22    1    5    5    0    0 -0.24071566170E+03 -0.68696139869E+02 -0.23549444101E+03  0.34368709776E+03  0.00000000000E+00 0.  1.
          5    1    4    4  502    0 -0.49236526938E+02  0.58176437469E+02  0.37623375684E+02  0.85125447778E+02  0.47000000000E+01 0. -1.
         -5    1    4    4    0  502  0.72907021512E+01 -0.54519869028E+01  0.15260785929E+03  0.15295138841E+03  0.47000000000E+01 0. -1.
<mgrwt>
<rscale>  0 0.99978367E+03</rscale>
<asrwt>0</asrwt>
<pdfrwt beam="1">  1        2 0.10657943E+00 0.99978367E+03</pdfrwt>
<pdfrwt beam="2">  1       -2 0.55494758E-01 0.99978367E+03</pdfrwt>
<totfact> 0.15331177E+02</totfact>
</mgrwt>
</event>
<event>
 9    1  0.4497870E-036  0.9996649E+03  0.7818608E-02  0.8681357E-01
         -2   -1    0    0    0  501 -0.00000000000E+00  0.00000000000E+00  0.24896309056E+03  0.24896309056E+03  0.00000000000E+00 0. -1.
          2   -1    0    0  501    0  0.00000000000E+00 -0.00000000000E+00 -0.10034919717E+04  0.10034919717E+04  0.00000000000E+00 0. -1.
         36    2    1    2    0    0  0.00000000000E+00 -0.14210854715E-13 -0.75452888112E+03  0.12524550622E+04  0.99966486908E+03 0.  0.
         25    2    3    3    0    0 -0.13220569600E+03 -0.15753254411E+02 -0.19675852461E+03  0.26805116635E+03  0.12414104758E+03 0.  0.
         35    2    3    3    0    0  0.13220569600E+03  0.15753254411E+02 -0.55777035651E+03  0.98440389589E+03  0.80013545638E+03 0.  0.
         22    1    5    5    0    0  0.41904515708E+03 -0.56630553591E+02 -0.54297021718E+03  0.68820238304E+03  0.00000000000E+00 0. -1.
         22    1    5    5    0    0 -0.28683946108E+03  0.72383808002E+02 -0.14800139326E+02  0.29620151285E+03  0.00000000000E+00 0. -1.
          5    1    4    4  502    0 -0.87286478841E+02  0.49879989362E+02 -0.91334360988E+02  0.13590805062E+03  0.47000000000E+01 0.  1.
         -5    1    4    4    0  502 -0.44919217158E+02 -0.65633243773E+02 -0.10542416362E+03  0.13214311572E+03  0.47000000000E+01 0.  1.
<mgrwt>
<rscale>  0 0.99966487E+03</rscale>
<asrwt>0</asrwt>
<pdfrwt beam="1">  1        2 0.15438338E+00 0.99966487E+03</pdfrwt>
<pdfrwt beam="2">  1       -2 0.38302014E-01 0.99966487E+03</pdfrwt>
<totfact> 0.19494963E+02</totfact>
</mgrwt>
</event>
<event>
 9    1  0.4497870E-036  0.9997048E+03  0.7818608E-02  0.8681319E-01
          2   -1    0    0  501    0  0.00000000000E+00  0.00000000000E+00  0.98982388860E+03  0.98982388860E+03  0.00000000000E+00 0. -1.
         -2   -1    0    0    0  501 -0.00000000000E+00 -0.00000000000E+00 -0.25242108623E+03  0.25242108623E+03  0.00000000000E+00 0. -1.
         36    2    1    2    0    0 -0.14210854715E-13  0.00000000000E+00  0.73740280237E+03  0.12422449748E+04  0.99970479870E+03 0.  0.
         25    2    3    3    0    0 -0.57516196525E+02  0.65301786529E+02  0.27337025462E+03  0.31311249405E+03  0.12544202497E+03 0.  0.
         35    2    3    3    0    0  0.57516196525E+02 -0.65301786529E+02  0.46403254775E+03  0.92913248079E+03  0.80024279147E+03 0.  0.
         22    1    5    5    0    0  0.80660211362E+02 -0.38641770143E+03  0.40057460407E+02  0.39677362540E+03  0.00000000000E+00 0. -1.
         22    1    5    5    0    0 -0.23144014837E+02  0.32111591490E+03  0.42397508734E+03  0.53235885539E+03  0.00000000000E+00 0. -1.
          5    1    4    4  502    0 -0.32651058301E+02  0.13217387927E+02  0.24689735516E+03  0.24944174658E+03  0.47000000000E+01 0.  1.
         -5    1    4    4    0  502 -0.24865138224E+02  0.52084398603E+02  0.26472899458E+02  0.63670747463E+02  0.47000000000E+01 0.  1.
<mgrwt>
<rscale>  0 0.99970480E+03</rscale>
<asrwt>0</asrwt>
<pdfrwt beam="1">  1        2 0.15228060E+00 0.99970480E+03</pdfrwt>
<pdfrwt beam="2">  1       -2 0.38834014E-01 0.99970480E+03</pdfrwt>
<totfact> 0.19370185E+02</totfact>
</mgrwt>
</event>
<event>
 9    1  0.4497870E-036  0.9999288E+03  0.7818608E-02  0.8681106E-01
         -1   -1    0    0    0  501 -0.00000000000E+00  0.00000000000E+00  0.80146233081E+03  0.80146233081E+03  0.00000000000E+00 0.  1.
          1   -1    0    0  501    0  0.00000000000E+00 -0.00000000000E+00 -0.31188539706E+03  0.31188539706E+03  0.00000000000E+00 0.  1.
         36    2    1    2    0    0 -0.14210854715E-13  0.28421709430E-13  0.48957693376E+03  0.11133477279E+04  0.99992879201E+03 0.  0.
         25    2    3    3    0    0 -0.31367617267E+02 -0.92387430782E+02 -0.20428622281E+02  0.16023344281E+03  0.12545143605E+03 0.  0.
         35    2    3    3    0    0  0.31367617267E+02  0.92387430782E+02  0.51000555604E+03  0.95311428506E+03  0.79925077943E+03 0.  0.
         22    1    5    5    0    0 -0.17987988749E+03  0.31834642084E+03  0.52914988068E+03  0.64319578187E+03  0.00000000000E+00 0.  1.
         22    1    5    5    0    0  0.21124750475E+03 -0.22595899006E+03 -0.19144324646E+02  0.30991850319E+03  0.00000000000E+00 0.  1.
          5    1    4    4  502    0  0.12168420730E+02 -0.10483074583E+03 -0.36786445389E+02  0.11186102225E+03  0.47000000000E+01 0. -1.
         -5    1    4    4    0  502 -0.43536037997E+02  0.12443315051E+02  0.16357823108E+02  0.48372420559E+02  0.47000000000E+01 0. -1.
<mgrwt>
<rscale>  0 0.99992879E+03</rscale>
<asrwt>0</asrwt>
<pdfrwt beam="1">  1        1 0.47982369E-01 0.99992879E+03</pdfrwt>
<pdfrwt beam="2">  1       -1 0.12330190E+00 0.99992879E+03</pdfrwt>
<totfact> 0.57945723E+01</totfact>
</mgrwt>
</event>
<event>
 9    1  0.4497870E-036  0.9966032E+03  0.7818608E-02  0.8684280E-01
         -2   -1    0    0    0  501 -0.00000000000E+00  0.00000000000E+00  0.14210617729E+03  0.14210617729E+03  0.00000000000E+00 0.  1.
          2   -1    0    0  501    0  0.00000000000E+00 -0.00000000000E+00 -0.17473164480E+04  0.17473164480E+04  0.00000000000E+00 0.  1.
         36    2    1    2    0    0  0.00000000000E+00 -0.14210854715E-13 -0.16052102707E+04  0.18894226253E+04  0.99660315258E+03 0.  0.
         25    2    3    3    0    0  0.12917196968E+03  0.42996669413E+02 -0.27524955248E+03  0.33134915954E+03  0.12448228007E+03 0.  0.
         35    2    3    3    0    0 -0.12917196968E+03 -0.42996669413E+02 -0.13299607182E+04  0.15580734657E+04  0.80016454639E+03 0.  0.
         22    1    5    5    0    0  0.16050318790E+03 -0.20499608341E+03 -0.91585739642E+02  0.27599386813E+03  0.00000000000E+00 0.  1.
         22    1    5    5    0    0 -0.28967515759E+03  0.16199941399E+03 -0.12383749786E+04  0.12820795976E+04  0.00000000000E+00 0.  1.
          5    1    4    4  502    0  0.11913683844E+03  0.74481766759E+02 -0.25790974902E+03  0.29373567794E+03  0.47000000000E+01 0. -1.
         -5    1    4    4    0  502  0.10035131242E+02 -0.31485097346E+02 -0.17339803464E+02  0.37613481600E+02  0.47000000000E+01 0. -1.
<mgrwt>
<rscale>  0 0.99660315E+03</rscale>
<asrwt>0</asrwt>
<pdfrwt beam="1">  1        2 0.26881793E+00 0.99660315E+03</pdfrwt>
<pdfrwt beam="2">  1       -2 0.21862488E-01 0.99660315E+03</pdfrwt>
<totfact> 0.19959793E+02</totfact>
</mgrwt>
</event>
<event>
 9    1  0.4497870E-036  0.1000130E+04  0.7818608E-02  0.8680914E-01
         -1   -1    0    0    0  501 -0.00000000000E+00  0.00000000000E+00  0.36177972585E+03  0.36177972585E+03  0.00000000000E+00 0. -1.
          1   -1    0    0  501    0  0.00000000000E+00 -0.00000000000E+00 -0.69120745416E+03  0.69120745416E+03  0.00000000000E+00 0. -1.
         36    2    1    2    0    0  0.00000000000E+00  0.00000000000E+00 -0.32942772831E+03  0.10529871800E+04  0.10001296781E+04 0.  0.
         25    2    3    3    0    0  0.42300342929E+02 -0.76263237602E+02 -0.17830374676E+03  0.23456584664E+03  0.12499403937E+03 0.  0.
         35    2    3    3    0    0 -0.42300342929E+02  0.76263237602E+02 -0.15112398155E+03  0.81842133338E+03  0.79960591588E+03 0.  0.
         22    1    5    5    0    0 -0.18675899805E+02 -0.23354022886E+03  0.22890420359E+03  0.32754688543E+03  0.00000000000E+00 0. -1.
         22    1    5    5    0    0 -0.23624443124E+02  0.30980346647E+03 -0.38002818515E+03  0.49087444795E+03  0.00000000000E+00 0. -1.
          5    1    4    4  502    0  0.47085032023E+02 -0.21482910407E+02 -0.44443135747E+01  0.52157047494E+02  0.47000000000E+01 0.  1.
         -5    1    4    4    0  502 -0.47846890938E+01 -0.54780327194E+02 -0.17385943318E+03  0.18240879914E+03  0.47000000000E+01 0.  1.
<mgrwt>
<rscale>  0 0.10001297E+04</rscale>
<asrwt>0</asrwt>
<pdfrwt beam="1">  1        1 0.10633961E+00 0.10001297E+04</pdfrwt>
<pdfrwt beam="2">  1       -1 0.55658419E-01 0.10001297E+04</pdfrwt>
<totfact> 0.10438184E+02</totfact>
</mgrwt>
</event>
<event>
 9    1  0.4497870E-036  0.9998955E+03  0.7818608E-02  0.8681138E-01
          2   -1    0    0  501    0  0.00000000000E+00  0.00000000000E+00  0.25807337119E+04  0.25807337119E+04  0.00000000000E+00 0. -1.
         -2   -1    0    0    0  501 -0.00000000000E+00 -0.00000000000E+00 -0.96851422252E+02  0.96851422252E+02  0.00000000000E+00 0. -1.
         36    2    1    2    0    0  0.00000000000E+00  0.28421709430E-13  0.24838822896E+04  0.26775851341E+04  0.99989545543E+03 0.  0.
         25    2    3    3    0    0 -0.92527055666E+02  0.10510602772E+03  0.49042143717E+03  0.52502061360E+03  0.12459905930E+03 0.  0.
         35    2    3    3    0    0  0.92527055666E+02 -0.10510602772E+03  0.19934608524E+04  0.21525645205E+04  0.80002456941E+03 0.  0.
         22    1    5    5    0    0  0.28789693817E+03 -0.32573237651E+03  0.16173286029E+04  0.16747352142E+04  0.00000000000E+00 0.  1.
         22    1    5    5    0    0 -0.19536988251E+03  0.22062634880E+03  0.37613224956E+03  0.47782930627E+03  0.00000000000E+00 0.  1.
          5    1    4    4  502    0 -0.45499372616E+02  0.17167767859E+02  0.34611602137E+03  0.34954730067E+03  0.47000000000E+01 0. -1.
         -5    1    4    4    0  502 -0.47027683050E+02  0.87938259856E+02  0.14430541580E+03  0.17547331293E+03  0.47000000000E+01 0. -1.
<mgrwt>
<rscale>  0 0.99989546E+03</rscale>
<asrwt>0</asrwt>
<pdfrwt beam="1">  1        2 0.39703590E+00 0.99989546E+03</pdfrwt>
<pdfrwt beam="2">  1       -2 0.14900221E-01 0.99989546E+03</pdfrwt>
<totfact> 0.12566600E+02</totfact>
</mgrwt>
</event>
<event>
 9    1  0.4497870E-036  0.9999647E+03  0.7818608E-02  0.8681072E-01
         -1   -1    0    0    0  501 -0.00000000000E+00  0.00000000000E+00  0.58082496883E+03  0.58082496883E+03  0.00000000000E+00 0.  1.
          1   -1    0    0  501    0  0.00000000000E+00 -0.00000000000E+00 -0.43039183960E+03  0.43039183960E+03  0.00000000000E+00 0.  1.
         36    2    1    2    0    0  0.28421709430E-13 -0.42632564146E-13  0.15043312923E+03  0.10112168084E+04  0.99996465301E+03 0.  0.
         25    2    3    3    0    0 -0.79553933122E+02  0.11537046889E+03  0.55293069054E+02  0.19423601394E+03  0.12260151817E+03 0.  0.
         35    2    3    3    0    0  0.79553933122E+02 -0.11537046889E+03  0.95140060173E+02  0.81698079449E+03  0.79922888721E+03 0.  0.
         22    1    5    5    0    0  0.33656207905E+03 -0.26494600126E+03  0.23478221293E+03  0.48845993095E+03  0.00000000000E+00 0. -1.
         22    1    5    5    0    0 -0.25700814593E+03  0.14957553236E+03 -0.13964215275E+03  0.32852086354E+03  0.00000000000E+00 0. -1.
          5    1    4    4  502    0 -0.50038554831E+02  0.39771958909E+02  0.86071168754E+02  0.10731263568E+03  0.47000000000E+01 0. -1.
         -5    1    4    4    0  502 -0.29515378292E+02  0.75598509983E+02 -0.30778099701E+02  0.86923378262E+02  0.47000000000E+01 0. -1.
<mgrwt>
<rscale>  0 0.99996465E+03</rscale>
<asrwt>0</asrwt>
<pdfrwt beam="1">  1        1 0.66214129E-01 0.99996465E+03</pdfrwt>
<pdfrwt beam="2">  1       -1 0.89357688E-01 0.99996465E+03</pdfrwt>
<totfact> 0.79394922E+01</totfact>
</mgrwt>
</event>
<event>
 9    1  0.4497870E-036  0.9994997E+03  0.7818608E-02  0.8681515E-01
         -2   -1    0    0    0  501 -0.00000000000E+00  0.00000000000E+00  0.15817422897E+03  0.15817422897E+03  0.00000000000E+00 0. -1.
          2   -1    0    0  501    0  0.00000000000E+00 -0.00000000000E+00 -0.15789545570E+04  0.15789545570E+04  0.00000000000E+00 0. -1.
         36    2    1    2    0    0  0.00000000000E+00  0.00000000000E+00 -0.14207803280E+04  0.17371287860E+04  0.99949971412E+03 0.  0.
         25    2    3    3    0    0 -0.54563817142E+02  0.21255465454E+02 -0.33023643284E+02  0.13417362826E+03  0.11611630615E+03 0.  0.
         35    2    3    3    0    0  0.54563817142E+02 -0.21255465454E+02 -0.13877566847E+04  0.16029551577E+04  0.80010475352E+03 0.  0.
         22    1    5    5    0    0 -0.65759541626E+02  0.38919014682E+02  0.90581985371E+02  0.11850781870E+03  0.00000000000E+00 0.  1.
         22    1    5    5    0    0  0.12032335877E+03 -0.60174480136E+02 -0.14783386701E+04  0.14844473390E+04  0.00000000000E+00 0.  1.
          5    1    4    4  502    0 -0.10235667698E+02  0.57521572716E+02  0.13602512154E+02  0.60171575996E+02  0.47000000000E+01 0. -1.
         -5    1    4    4    0  502 -0.44328149444E+02 -0.36266107262E+02 -0.46626155438E+02  0.74002052269E+02  0.47000000000E+01 0. -1.
<mgrwt>
<rscale>  0 0.99949971E+03</rscale>
<asrwt>0</asrwt>
<pdfrwt beam="1">  1        2 0.24291610E+00 0.99949971E+03</pdfrwt>
<pdfrwt beam="2">  1       -2 0.24334496E-01 0.99949971E+03</pdfrwt>
<totfact> 0.20571299E+02</totfact>
</mgrwt>
</event>
<event>
 9    1  0.4497870E-036  0.1001095E+04  0.7818608E-02  0.8679996E-01
          1   -1    0    0  501    0  0.00000000000E+00  0.00000000000E+00  0.88624606958E+03  0.88624606958E+03  0.00000000000E+00 0. -1.
         -1   -1    0    0    0  501 -0.00000000000E+00 -0.00000000000E+00 -0.28270661502E+03  0.28270661502E+03  0.00000000000E+00 0. -1.
         36    2    1    2    0    0  0.28421709430E-13  0.71054273576E-14  0.60353945456E+03  0.11689526846E+04  0.10010946537E+04 0.  0.
         25    2    3    3    0    0  0.99482260424E+02 -0.22485048008E+02  0.47602653206E+00  0.16185370655E+03  0.12567457260E+03 0.  0.
         35    2    3    3    0    0 -0.99482260424E+02  0.22485048008E+02  0.60306342802E+03  0.10070989780E+04  0.80010034111E+03 0.  0.
         22    1    5    5    0    0  0.12877547002E+02  0.25895019179E+03  0.68528306366E+03  0.73268950476E+03  0.00000000000E+00 0.  1.
         22    1    5    5    0    0 -0.11235980743E+03 -0.23646514378E+03 -0.82219635633E+02  0.27440947329E+03  0.00000000000E+00 0.  1.
          5    1    4    4  502    0  0.11017074983E+03 -0.55739487724E+02 -0.12738945134E+02  0.12421294350E+03  0.47000000000E+01 0.  1.
         -5    1    4    4    0  502 -0.10688489408E+02  0.33254439716E+02  0.13214971666E+02  0.37640763047E+02  0.47000000000E+01 0.  1.
<mgrwt>
<rscale>  0 0.10010947E+04</rscale>
<asrwt>0</asrwt>
<pdfrwt beam="1">  1        1 0.13634555E+00 0.10010947E+04</pdfrwt>
<pdfrwt beam="2">  1       -1 0.43493326E-01 0.10010947E+04</pdfrwt>
<totfact> 0.11013525E+02</totfact>
</mgrwt>
</event>
<event>
 9    1  0.4497870E-036  0.1000168E+04  0.7818608E-02  0.8680878E-01
         -2   -1    0    0    0  501 -0.00000000000E+00  0.00000000000E+00  0.14290596289E+03  0.14290596289E+03  0.00000000000E+00 0.  1.
          2   -1    0    0  501    0  0.00000000000E+00 -0.00000000000E+00 -0.17499899147E+04  0.17499899147E+04  0.00000000000E+00 0.  1.
         36    2    1    2    0    0 -0.10658141036E-13  0.21316282073E-13 -0.16070839518E+04  0.18928958776E+04  0.10001679735E+04 0.  0.
         25    2    3    3    0    0  0.60799719852E+01  0.53924113993E+02 -0.54659318194E+03  0.56333850185E+03  0.12506552280E+03 0.  0.
         35    2    3    3    0    0 -0.60799719852E+01 -0.53924113993E+02 -0.10604907699E+04  0.13295573757E+04  0.80008584931E+03 0.  0.
         22    1    5    5    0    0  0.21678644367E+03  0.29039044468E+03 -0.32181299160E+03  0.48465098172E+03  0.00000000000E+00 0.  1.
         22    1    5    5    0    0 -0.22286641566E+03 -0.34431455867E+03 -0.73867777826E+03  0.84490639401E+03  0.00000000000E+00 0.  1.
          5    1    4    4  502    0  0.69613045358E+01 -0.27650144691E+02 -0.33918667781E+03  0.34041545598E+03  0.47000000000E+01 0.  1.
         -5    1    4    4    0  502 -0.88133255060E+00  0.81574258684E+02 -0.20740650413E+03  0.22292304587E+03  0.47000000000E+01 0.  1.
<mgrwt>
<rscale>  0 0.10001680E+04</rscale>
<asrwt>0</asrwt>
<pdfrwt beam="1">  1        2 0.26922922E+00 0.10001680E+04</pdfrwt>
<pdfrwt beam="2">  1       -2 0.21985532E-01 0.10001680E+04</pdfrwt>
<totfact> 0.19696598E+02</totfact>
</mgrwt>
</event>
<event>
 9    1  0.4497870E-036  0.9999413E+03  0.7818608E-02  0.8681094E-01
         -1   -1    0    0    0  501 -0.00000000000E+00  0.00000000000E+00  0.39077090734E+03  0.39077090734E+03  0.00000000000E+00 0.  1.
          1   -1    0    0  501    0  0.00000000000E+00 -0.00000000000E+00 -0.63968590504E+03  0.63968590504E+03  0.00000000000E+00 0.  1.
         36    2    1    2    0    0  0.00000000000E+00 -0.28421709430E-13 -0.24891499770E+03  0.10304568124E+04  0.99994128133E+03 0.  0.
         25    2    3    3    0    0  0.76908197992E+02 -0.11303242546E+03 -0.29612166908E+02  0.18836463060E+03  0.12614734839E+03 0.  0.
         35    2    3    3    0    0 -0.76908197992E+02  0.11303242546E+03 -0.21930283079E+03  0.84209218179E+03  0.80145761642E+03 0.  0.
         22    1    5    5    0    0  0.31521521056E+03  0.23418628664E+03 -0.17289074515E+03  0.42906299722E+03  0.00000000000E+00 0. -1.
         22    1    5    5    0    0 -0.39212340856E+03 -0.12115386118E+03 -0.46412085642E+02  0.41302918457E+03  0.00000000000E+00 0. -1.
          5    1    4    4  502    0  0.53557875801E+02  0.10270772752E+02  0.12059303043E+02  0.56048654071E+02  0.47000000000E+01 0. -1.
         -5    1    4    4    0  502  0.23350322191E+02 -0.12330319821E+03 -0.41671469951E+02  0.13231597653E+03  0.47000000000E+01 0. -1.
<mgrwt>
<rscale>  0 0.99994128E+03</rscale>
<asrwt>0</asrwt>
<pdfrwt beam="1">  1        1 0.98413215E-01 0.99994128E+03</pdfrwt>
<pdfrwt beam="2">  1       -1 0.60118602E-01 0.99994128E+03</pdfrwt>
<totfact> 0.10130472E+02</totfact>
</mgrwt>
</event>
<event>
 9    1  0.4497870E-036  0.1001187E+04  0.7818608E-02  0.8679909E-01
         -2   -1    0    0    0  501 -0.00000000000E+00  0.00000000000E+00  0.64264926308E+03  0.64264926308E+03  0.00000000000E+00 0.  1.
          2   -1    0    0  501    0  0.00000000000E+00 -0.00000000000E+00 -0.38993859171E+03  0.38993859171E+03  0.00000000000E+00 0.  1.
         36    2    1    2    0    0 -0.14210854715E-13  0.28421709430E-13  0.25271067138E+03  0.10325878548E+04  0.10011867930E+04 0.  0.
         25    2    3    3    0    0 -0.20527248244E+02 -0.12850814045E+03  0.10053518011E+03  0.20669870908E+03  0.12522509258E+03 0.  0.
         35    2    3    3    0    0  0.20527248244E+02  0.12850814045E+03  0.15217549127E+03  0.82588914571E+03  0.80124889440E+03 0.  0.
         22    1    5    5    0    0  0.13034427733E+03  0.45172999143E+03  0.78638211301E+02  0.47669023911E+03  0.00000000000E+00 0.  1.
         22    1    5    5    0    0 -0.10981702909E+03 -0.32322185097E+03  0.73537279966E+02  0.34919890660E+03  0.00000000000E+00 0.  1.
          5    1    4    4  502    0 -0.55666255013E+02 -0.32353083684E+02  0.78922319225E+02  0.10196213240E+03  0.47000000000E+01 0.  1.
         -5    1    4    4    0  502  0.35139006768E+02 -0.96155056771E+02  0.21612860886E+02  0.10473657668E+03  0.47000000000E+01 0.  1.
<mgrwt>
<rscale>  0 0.10011868E+04</rscale>
<asrwt>0</asrwt>
<pdfrwt beam="1">  1        2 0.59990553E-01 0.10011868E+04</pdfrwt>
<pdfrwt beam="2">  1       -2 0.98869117E-01 0.10011868E+04</pdfrwt>
<totfact> 0.82559001E+01</totfact>
</mgrwt>
</event>
<event>
 9    1  0.4497870E-036  0.9992354E+03  0.7818608E-02  0.8681766E-01
          1   -1    0    0  501    0  0.00000000000E+00  0.00000000000E+00  0.34000434467E+03  0.34000434467E+03  0.00000000000E+00 0.  1.
         -1   -1    0    0    0  501 -0.00000000000E+00 -0.00000000000E+00 -0.73416078128E+03  0.73416078128E+03  0.00000000000E+00 0.  1.
         36    2    1    2    0    0  0.71054273576E-14  0.71054273576E-14 -0.39415643661E+03  0.10741651259E+04  0.99923541834E+03 0.  0.
         25    2    3    3    0    0 -0.48417884637E+01 -0.21508337298E+02 -0.22255227743E+03  0.25619451413E+03  0.12498024400E+03 0.  0.
         35    2    3    3    0    0  0.48417884637E+01  0.21508337298E+02 -0.17160415918E+03  0.81797061181E+03  0.79946349689E+03 0.  0.
         22    1    5    5    0    0 -0.37144743008E+03  0.10170788396E+03  0.24954447984E+02  0.38592798738E+03  0.00000000000E+00 0. -1.
         22    1    5    5    0    0  0.37628921854E+03 -0.80199546666E+02 -0.19655860716E+03  0.43204262443E+03  0.00000000000E+00 0. -1.
          5    1    4    4  502    0  0.37682496904E+02 -0.41671982017E+02 -0.19147163876E+03  0.19959960699E+03  0.47000000000E+01 0.  1.
         -5    1    4    4    0  502 -0.42524285368E+02  0.20163644719E+02 -0.31080638667E+02  0.56594907142E+02  0.47000000000E+01 0.  1.
<mgrwt>
<rscale>  0 0.99923542E+03</rscale>
<asrwt>0</asrwt>
<pdfrwt beam="1">  1        1 0.52308362E-01 0.99923542E+03</pdfrwt>
<pdfrwt beam="2">  1       -1 0.11294781E+00 0.99923542E+03</pdfrwt>
<totfact> 0.64154929E+01</totfact>
</mgrwt>
</event>
<event>
 9    1  0.4497870E-036  0.1002283E+04  0.7818608E-02  0.8678867E-01
         -2   -1    0    0    0  501 -0.00000000000E+00  0.00000000000E+00  0.16240954030E+03  0.16240954030E+03  0.00000000000E+00 0.  1.
          2   -1    0    0  501    0  0.00000000000E+00 -0.00000000000E+00 -0.15463559980E+04  0.15463559980E+04  0.00000000000E+00 0.  1.
         36    2    1    2    0    0  0.00000000000E+00 -0.14210854715E-13 -0.13839464577E+04  0.17087655383E+04  0.10022833267E+04 0.  0.
         25    2    3    3    0    0  0.16807828219E+02  0.56114594621E+02 -0.48542808912E+03  0.50471959287E+03  0.12518021766E+03 0.  0.
         35    2    3    3    0    0 -0.16807828219E+02 -0.56114594621E+02 -0.89851836857E+03  0.12040459454E+04  0.79934975399E+03 0.  0.
         22    1    5    5    0    0  0.33078430272E+03 -0.23020907370E+03 -0.55067317512E+03  0.68238949166E+03  0.00000000000E+00 0.  1.
         22    1    5    5    0    0 -0.34759213094E+03  0.17409447908E+03 -0.34784519346E+03  0.52165645376E+03  0.00000000000E+00 0.  1.
          5    1    4    4  502    0  0.23851257235E+02  0.95151149947E+02 -0.35150972698E+03  0.36497096045E+03  0.47000000000E+01 0. -1.
         -5    1    4    4    0  502 -0.70434290156E+01 -0.39036555326E+02 -0.13391836214E+03  0.13974863242E+03  0.47000000000E+01 0. -1.
<mgrwt>
<rscale>  0 0.10022833E+04</rscale>
<asrwt>0</asrwt>
<pdfrwt beam="1">  1        2 0.23790092E+00 0.10022833E+04</pdfrwt>
<pdfrwt beam="2">  1       -2 0.24986083E-01 0.10022833E+04</pdfrwt>
<totfact> 0.20480636E+02</totfact>
</mgrwt>
</event>
<event>
 9    1  0.4497870E-036  0.9994111E+03  0.7818608E-02  0.8681599E-01
         -2   -1    0    0    0  501 -0.00000000000E+00  0.00000000000E+00  0.17039295403E+04  0.17039295403E+04  0.00000000000E+00 0.  1.
          2   -1    0    0  501    0  0.00000000000E+00 -0.00000000000E+00 -0.14654691455E+03  0.14654691455E+03  0.00000000000E+00 0.  1.
         36    2    1    2    0    0  0.00000000000E+00  0.00000000000E+00  0.15573826257E+04  0.18504764548E+04  0.99941106004E+03 0.  0.
         25    2    3    3    0    0 -0.86828831154E+02  0.97532241981E+02  0.38308494003E+03  0.42355317256E+03  0.12486566607E+03 0.  0.
         35    2    3    3    0    0  0.86828831154E+02 -0.97532241981E+02  0.11742976857E+04  0.14269232823E+04  0.80005200748E+03 0.  0.
         22    1    5    5    0    0  0.18562053888E+03  0.81347277666E+02  0.12035495156E+04  0.12204932611E+04  0.00000000000E+00 0. -1.
         22    1    5    5    0    0 -0.98791707723E+02 -0.17887951965E+03 -0.29251829893E+02  0.20643002111E+03  0.00000000000E+00 0. -1.
          5    1    4    4  502    0  0.20623344501E+01  0.47635688112E+00 -0.87630358477E+01  0.10166658081E+02  0.47000000000E+01 0. -1.
         -5    1    4    4    0  502 -0.88891165604E+02  0.97055885100E+02  0.39184797588E+03  0.41338651448E+03  0.47000000000E+01 0. -1.
<mgrwt>
<rscale>  0 0.99941106E+03</rscale>
<asrwt>0</asrwt>
<pdfrwt beam="1">  1        2 0.22545680E-01 0.99941106E+03</pdfrwt>
<pdfrwt beam="2">  1       -2 0.26214299E+00 0.99941106E+03</pdfrwt>
<totfact> 0.14338224E+01</totfact>
</mgrwt>
</event>
<event>
 9    1  0.4497870E-036  0.1000212E+04  0.7818608E-02  0.8680836E-01
          1   -1    0    0  501    0  0.00000000000E+00  0.00000000000E+00  0.32124182891E+04  0.32124182891E+04  0.00000000000E+00 0. -1.
         -1   -1    0    0    0  501 -0.00000000000E+00 -0.00000000000E+00 -0.77856063334E+02  0.77856063334E+02  0.00000000000E+00 0. -1.
         36    2    1    2    0    0  0.71054273576E-14  0.14210854715E-13  0.31345622258E+04  0.32902743524E+04  0.10002124610E+04 0.  0.
         25    2    3    3    0    0  0.45440614832E+02  0.61031467993E+02  0.19200316237E+03  0.24047586492E+03  0.12318172629E+03 0.  0.
         35    2    3    3    0    0 -0.45440614832E+02 -0.61031467993E+02  0.29425590634E+04  0.30497984875E+04  0.79801458837E+03 0.  0.
         22    1    5    5    0    0 -0.40080881893E+02 -0.16522461667E+03  0.29405370561E+04  0.29454479845E+04  0.00000000000E+00 0. -1.
         22    1    5    5    0    0 -0.53597329399E+01  0.10419314868E+03  0.20220073121E+01  0.10435050303E+03  0.00000000000E+00 0. -1.
          5    1    4    4  502    0 -0.40830714212E+02  0.35102849340E+02  0.62153345066E+02  0.82367988671E+02  0.47000000000E+01 0.  1.
         -5    1    4    4    0  502  0.86271329045E+02  0.25928618653E+02  0.12984981730E+03  0.15810787625E+03  0.47000000000E+01 0.  1.
<mgrwt>
<rscale>  0 0.10002125E+04</rscale>
<asrwt>0</asrwt>
<pdfrwt beam="1">  1        1 0.49421810E+00 0.10002125E+04</pdfrwt>
<pdfrwt beam="2">  1       -1 0.11977858E-01 0.10002125E+04</pdfrwt>
<totfact> 0.20088060E+01</totfact>
</mgrwt>
</event>
<event>
 9    1  0.4497870E-036  0.1000168E+04  0.7818608E-02  0.8680878E-01
         -2   -1    0    0    0  501 -0.00000000000E+00  0.00000000000E+00  0.19038378091E+03  0.19038378091E+03  0.00000000000E+00 0.  1.
          2   -1    0    0  501    0  0.00000000000E+00 -0.00000000000E+00 -0.13135771817E+04  0.13135771817E+04  0.00000000000E+00 0.  1.
         36    2    1    2    0    0  0.71054273576E-14  0.56843418861E-13 -0.11231934008E+04  0.15039609626E+04  0.10001675667E+04 0.  0.
         25    2    3    3    0    0 -0.21742552567E+02 -0.13095110830E+03 -0.14711162626E+03  0.23520158644E+03  0.12671631436E+03 0.  0.
         35    2    3    3    0    0  0.21742552567E+02  0.13095110830E+03 -0.97608177454E+03  0.12687593762E+04  0.79962103067E+03 0.  0.
         22    1    5    5    0    0  0.87208194663E+02 -0.26601608771E+03 -0.87440799006E+02  0.29328436963E+03  0.00000000000E+00 0.  1.
         22    1    5    5    0    0 -0.65465642096E+02  0.39696719601E+03 -0.88864097553E+03  0.97547500654E+03  0.00000000000E+00 0.  1.
          5    1    4    4  502    0  0.33384208871E+02  0.43070444870E+01 -0.47249710327E+02  0.58203789913E+02  0.47000000000E+01 0. -1.
         -5    1    4    4    0  502 -0.55126761439E+02 -0.13525815278E+03 -0.99861915933E+02  0.17699779653E+03  0.47000000000E+01 0. -1.
<mgrwt>
<rscale>  0 0.10001676E+04</rscale>
<asrwt>0</asrwt>
<pdfrwt beam="1">  1        2 0.20208879E+00 0.10001676E+04</pdfrwt>
<pdfrwt beam="2">  1       -2 0.29289813E-01 0.10001676E+04</pdfrwt>
<totfact> 0.20904439E+02</totfact>
</mgrwt>
</event>
<event>
 9    1  0.4497870E-036  0.9989332E+03  0.7818608E-02  0.8682054E-01
         -1   -1    0    0    0  501 -0.00000000000E+00  0.00000000000E+00  0.79791403027E+03  0.79791403027E+03  0.00000000000E+00 0. -1.
          1   -1    0    0  501    0  0.00000000000E+00 -0.00000000000E+00 -0.31264884858E+03  0.31264884858E+03  0.00000000000E+00 0. -1.
         36    2    1    2    0    0  0.14210854715E-13  0.14210854715E-13  0.48526518169E+03  0.11105628788E+04  0.99893323667E+03 0.  0.
         25    2    3    3    0    0  0.59331482464E+02  0.54906225191E+02 -0.25780731502E+02  0.15708902747E+03  0.13220211064E+03 0.  0.
         35    2    3    3    0    0 -0.59331482464E+02 -0.54906225191E+02  0.51104591319E+03  0.95347385138E+03  0.80088047891E+03 0.  0.
         22    1    5    5    0    0  0.32409271833E+03  0.86583822086E+02  0.53032090591E+02  0.33962516243E+03  0.00000000000E+00 0.  1.
         22    1    5    5    0    0 -0.38342420080E+03 -0.14149004728E+03  0.45801382260E+03  0.61384868895E+03  0.00000000000E+00 0.  1.
          5    1    4    4  502    0  0.92095430668E+02  0.43357986920E+02  0.15346006483E+02  0.10304888789E+03  0.47000000000E+01 0. -1.
         -5    1    4    4    0  502 -0.32763948204E+02  0.11548238271E+02 -0.41126737984E+02  0.54040139584E+02  0.47000000000E+01 0. -1.
<mgrwt>
<rscale>  0 0.99893324E+03</rscale>
<asrwt>0</asrwt>
<pdfrwt beam="1">  1        1 0.48099823E-01 0.99893324E+03</pdfrwt>
<pdfrwt beam="2">  1       -1 0.12275600E+00 0.99893324E+03</pdfrwt>
<totfact> 0.58414770E+01</totfact>
</mgrwt>
</event>
<event>
 9    1  0.4497870E-036  0.1000835E+04  0.7818608E-02  0.8680243E-01
         -2   -1    0    0    0  501 -0.00000000000E+00  0.00000000000E+00  0.36528723290E+03  0.36528723290E+03  0.00000000000E+00 0.  1.
          2   -1    0    0  501    0  0.00000000000E+00 -0.00000000000E+00 -0.68553698222E+03  0.68553698222E+03  0.00000000000E+00 0.  1.
         36    2    1    2    0    0  0.42632564146E-13 -0.71054273576E-14 -0.32024974932E+03  0.10508242151E+04  0.10008354656E+04 0.  0.
         25    2    3    3    0    0 -0.38722961528E+02  0.25338794921E+02  0.79124749286E+02  0.15598735730E+03  0.12621334086E+03 0.  0.
         35    2    3    3    0    0  0.38722961528E+02 -0.25338794921E+02 -0.39937449861E+03  0.89483685781E+03  0.79943197940E+03 0.  0.
         22    1    5    5    0    0 -0.26869871741E+03  0.26535328855E+03 -0.18415495000E+03  0.42014808591E+03  0.00000000000E+00 0. -1.
         22    1    5    5    0    0  0.30742167894E+03 -0.29069208347E+03 -0.21521954860E+03  0.47468877190E+03  0.00000000000E+00 0. -1.
          5    1    4    4  502    0  0.36592458118E+02 -0.21196171959E+02  0.10368423767E+02  0.43793605792E+02  0.47000000000E+01 0.  1.
         -5    1    4    4    0  502 -0.75315419646E+02  0.46534966880E+02  0.68756325519E+02  0.11219375151E+03  0.47000000000E+01 0.  1.
<mgrwt>
<rscale>  0 0.10008355E+04</rscale>
<asrwt>0</asrwt>
<pdfrwt beam="1">  1        2 0.10546723E+00 0.10008355E+04</pdfrwt>
<pdfrwt beam="2">  1       -2 0.56198037E-01 0.10008355E+04</pdfrwt>
<totfact> 0.15132395E+02</totfact>
</mgrwt>
</event>
<event>
 9    1  0.4497870E-036  0.9998192E+03  0.7818608E-02  0.8681210E-01
          1   -1    0    0  501    0  0.00000000000E+00  0.00000000000E+00  0.57001481286E+03  0.57001481286E+03  0.00000000000E+00 0.  1.
         -1   -1    0    0    0  501 -0.00000000000E+00 -0.00000000000E+00 -0.43842654024E+03  0.43842654024E+03  0.00000000000E+00 0.  1.
         36    2    1    2    0    0  0.71054273576E-14  0.00000000000E+00  0.13158827262E+03  0.10084413531E+04  0.99981922824E+03 0.  0.
         25    2    3    3    0    0  0.24215693283E+02 -0.13317755396E+03  0.58943590351E+02  0.19348324094E+03  0.12505501590E+03 0.  0.
         35    2    3    3    0    0 -0.24215693283E+02  0.13317755396E+03  0.72644682267E+02  0.81495811217E+03  0.80034793312E+03 0.  0.
         22    1    5    5    0    0  0.19629545648E+03  0.33960747902E+03  0.24955059039E+03  0.46490928492E+03  0.00000000000E+00 0. -1.
         22    1    5    5    0    0 -0.22051114976E+03 -0.20642992506E+03 -0.17690590813E+03  0.35004882725E+03  0.00000000000E+00 0. -1.
          5    1    4    4  502    0  0.16216048083E+02 -0.15482765006E+03  0.65614025700E+02  0.16900252012E+03  0.47000000000E+01 0.  1.
         -5    1    4    4    0  502  0.79996451998E+01  0.21650096096E+02 -0.66704353491E+01  0.24480720823E+02  0.47000000000E+01 0.  1.
<mgrwt>
<rscale>  0 0.99981923E+03</rscale>
<asrwt>0</asrwt>
<pdfrwt beam="1">  1        1 0.87694587E-01 0.99981923E+03</pdfrwt>
<pdfrwt beam="2">  1       -1 0.67450237E-01 0.99981923E+03</pdfrwt>
<totfact> 0.95922234E+01</totfact>
</mgrwt>
</event>
<event>
 9    1  0.4497870E-036  0.1001233E+04  0.7818608E-02  0.8679865E-01
          2   -1    0    0  501    0  0.00000000000E+00  0.00000000000E+00  0.95388551440E+03  0.95388551440E+03  0.00000000000E+00 0.  1.
         -2   -1    0    0    0  501 -0.00000000000E+00 -0.00000000000E+00 -0.26273249877E+03  0.26273249877E+03  0.00000000000E+00 0.  1.
         36    2    1    2    0    0  0.28421709430E-13  0.14210854715E-13  0.69115301563E+03  0.12166180132E+04  0.10012326897E+04 0.  0.
         25    2    3    3    0    0 -0.84460577865E+02 -0.87718041130E+02  0.41668589099E+02  0.17940138933E+03  0.12498217162E+03 0.  0.
         35    2    3    3    0    0  0.84460577865E+02  0.87718041130E+02  0.64948442653E+03  0.10372166238E+04  0.79947499054E+03 0.  0.
         22    1    5    5    0    0 -0.19979280923E+03 -0.27768146510E+03  0.32518772015E+03  0.47198645745E+03  0.00000000000E+00 0. -1.
         22    1    5    5    0    0  0.28425338710E+03  0.36539950623E+03  0.32429670639E+03  0.56523016639E+03  0.00000000000E+00 0. -1.
          5    1    4    4  502    0 -0.19533691595E+02 -0.18502483090E+02 -0.43787837629E+02  0.51607864828E+02  0.47000000000E+01 0.  1.
         -5    1    4    4    0  502 -0.64926886270E+02 -0.69215558040E+02  0.85456426728E+02  0.12779352450E+03  0.47000000000E+01 0.  1.
<mgrwt>
<rscale>  0 0.10012327E+04</rscale>
<asrwt>0</asrwt>
<pdfrwt beam="1">  1        2 0.14675162E+00 0.10012327E+04</pdfrwt>
<pdfrwt beam="2">  1       -2 0.40420385E-01 0.10012327E+04</pdfrwt>
<totfact> 0.18912767E+02</totfact>
</mgrwt>
</event>
<event>
 9    1  0.4497870E-036  0.9990248E+03  0.7818608E-02  0.8681967E-01
         -1   -1    0    0    0  501 -0.00000000000E+00  0.00000000000E+00  0.43827334033E+03  0.43827334033E+03  0.00000000000E+00 0.  1.
          1   -1    0    0  501    0  0.00000000000E+00 -0.00000000000E+00 -0.56930821559E+03  0.56930821559E+03  0.00000000000E+00 0.  1.
         36    2    1    2    0    0  0.28421709430E-13  0.00000000000E+00 -0.13103487526E+03  0.10075815559E+04  0.99902475110E+03 0.  0.
         25    2    3    3    0    0  0.13136352173E+03 -0.45470789078E+02 -0.43429455637E+02  0.19152096677E+03  0.12437924101E+03 0.  0.
         35    2    3    3    0    0 -0.13136352173E+03  0.45470789078E+02 -0.87605419622E+02  0.81606058916E+03  0.79934736387E+03 0.  0.
         22    1    5    5    0    0 -0.26271686736E+03  0.87131352994E+02 -0.39318940152E+03  0.48084293749E+03  0.00000000000E+00 0. -1.
         22    1    5    5    0    0  0.13135334564E+03 -0.41660563916E+02  0.30558398190E+03  0.33521765167E+03  0.00000000000E+00 0. -1.
          5    1    4    4  502    0  0.15146936025E+01 -0.41723492778E+02  0.20401964544E+02  0.46706255508E+02  0.47000000000E+01 0.  1.
         -5    1    4    4    0  502  0.12984882812E+03 -0.37472963001E+01 -0.63831420181E+02  0.14481471126E+03  0.47000000000E+01 0.  1.
<mgrwt>
<rscale>  0 0.99902475E+03</rscale>
<asrwt>0</asrwt>
<pdfrwt beam="1">  1        1 0.87585879E-01 0.99902475E+03</pdfrwt>
<pdfrwt beam="2">  1       -1 0.67426668E-01 0.99902475E+03</pdfrwt>
<totfact> 0.96166396E+01</totfact>
</mgrwt>
</event>
<event>
 9    1  0.4497870E-036  0.9989269E+03  0.7818608E-02  0.8682060E-01
         -1   -1    0    0    0  501 -0.00000000000E+00  0.00000000000E+00  0.18933305020E+03  0.18933305020E+03  0.00000000000E+00 0.  1.
          1   -1    0    0  501    0  0.00000000000E+00 -0.00000000000E+00 -0.13175922276E+04  0.13175922276E+04  0.00000000000E+00 0.  1.
         36    2    1    2    0    0 -0.14210854715E-13 -0.56843418861E-13 -0.11282591774E+04  0.15069252778E+04  0.99892693502E+03 0.  0.
         25    2    3    3    0    0  0.48909213148E+02  0.10554989150E+03 -0.32993927089E+03  0.37155137997E+03  0.12513039103E+03 0.  0.
         35    2    3    3    0    0 -0.48909213148E+02 -0.10554989150E+03 -0.79831990650E+03  0.11353738978E+04  0.79889068340E+03 0.  0.
         22    1    5    5    0    0 -0.12037181510E+03  0.32547658409E+03 -0.49080082838E+03  0.60109053710E+03  0.00000000000E+00 0. -1.
         22    1    5    5    0    0  0.71462601953E+02 -0.43102647559E+03 -0.30751907812E+03  0.53428336072E+03  0.00000000000E+00 0. -1.
          5    1    4    4  502    0  0.63867876761E+02  0.12605197659E+03 -0.24603223071E+03  0.28376425961E+03  0.47000000000E+01 0.  1.
         -5    1    4    4    0  502 -0.14958663613E+02 -0.20502085090E+02 -0.83907040178E+02  0.87787120362E+02  0.47000000000E+01 0.  1.
<mgrwt>
<rscale>  0 0.99892694E+03</rscale>
<asrwt>0</asrwt>
<pdfrwt beam="1">  1        1 0.20270649E+00 0.99892694E+03</pdfrwt>
<pdfrwt beam="2">  1       -1 0.29128162E-01 0.99892694E+03</pdfrwt>
<totfact> 0.10322462E+02</totfact>
</mgrwt>
</event>
<event>
 9    1  0.4497870E-036  0.1000776E+04  0.7818608E-02  0.8680300E-01
         -1   -1    0    0    0  501 -0.00000000000E+00  0.00000000000E+00  0.25152259981E+03  0.25152259981E+03  0.00000000000E+00 0. -1.
          1   -1    0    0  501    0  0.00000000000E+00 -0.00000000000E+00 -0.99548906687E+03  0.99548906687E+03  0.00000000000E+00 0. -1.
         36    2    1    2    0    0  0.00000000000E+00 -0.42632564146E-13 -0.74396646706E+03  0.12470116667E+04  0.10007756955E+04 0.  0.
         25    2    3    3    0    0  0.57177567917E+02  0.11717249757E+03 -0.70818005351E+02  0.19307976464E+03  0.12355540122E+03 0.  0.
         35    2    3    3    0    0 -0.57177567917E+02 -0.11717249757E+03 -0.67314846171E+03  0.10539319020E+04  0.80040298237E+03 0.  0.
         22    1    5    5    0    0 -0.46725566708E+02  0.31133723615E+03 -0.50165753582E+03  0.59226213491E+03  0.00000000000E+00 0.  1.
         22    1    5    5    0    0 -0.10452001209E+02 -0.42850973373E+03 -0.17149092589E+03  0.46166976714E+03  0.00000000000E+00 0.  1.
          5    1    4    4  502    0  0.60186498348E+02  0.24694016117E+02  0.14851758958E+02  0.66894497230E+02  0.47000000000E+01 0. -1.
         -5    1    4    4    0  502 -0.30089304320E+01  0.92478481456E+02 -0.85669764310E+02  0.12618526741E+03  0.47000000000E+01 0. -1.
<mgrwt>
<rscale>  0 0.10007757E+04</rscale>
<asrwt>0</asrwt>
<pdfrwt beam="1">  1        1 0.15315216E+00 0.10007757E+04</pdfrwt>
<pdfrwt beam="2">  1       -1 0.38695785E-01 0.10007757E+04</pdfrwt>
<totfact> 0.11053715E+02</totfact>
</mgrwt>
</event>
<event>
 9    1  0.4497870E-036  0.9986834E+03  0.7818608E-02  0.8682293E-01
         -2   -1    0    0    0  501 -0.00000000000E+00  0.00000000000E+00  0.19250428903E+03  0.19250428903E+03  0.00000000000E+00 0. -1.
          2   -1    0    0  501    0  0.00000000000E+00 -0.00000000000E+00 -0.12952548716E+04  0.12952548716E+04  0.00000000000E+00 0. -1.
         36    2    1    2    0    0 -0.71054273576E-14  0.00000000000E+00 -0.11027505826E+04  0.14877591606E+04  0.99868336959E+03 0.  0.
         25    2    3    3    0    0  0.36309939238E+02 -0.89701528943E+02 -0.35387280843E+03  0.38769578071E+03  0.12536856804E+03 0.  0.
         35    2    3    3    0    0 -0.36309939238E+02  0.89701528943E+02 -0.74887777415E+03  0.11000633799E+04  0.79997296408E+03 0.  0.
         22    1    5    5    0    0  0.17119222267E+03  0.19504970147E+03 -0.81728858712E+03  0.85750323485E+03  0.00000000000E+00 0.  1.
         22    1    5    5    0    0 -0.20750216190E+03 -0.10534817253E+03  0.68410812972E+02  0.24256014508E+03  0.00000000000E+00 0.  1.
          5    1    4    4  502    0 -0.22867828159E+02  0.28261811818E+01 -0.81073347020E+01  0.24874560112E+02  0.47000000000E+01 0.  1.
         -5    1    4    4    0  502  0.59177767397E+02 -0.92527710125E+02 -0.34576547372E+03  0.36282122060E+03  0.47000000000E+01 0.  1.
<mgrwt>
<rscale>  0 0.99868337E+03</rscale>
<asrwt>0</asrwt>
<pdfrwt beam="1">  1        2 0.19926998E+00 0.99868337E+03</pdfrwt>
<pdfrwt beam="2">  1       -2 0.29616044E-01 0.99868337E+03</pdfrwt>
<totfact> 0.20995137E+02</totfact>
</mgrwt>
</event>
<event>
 9    1  0.4497870E-036  0.1001817E+04  0.7818608E-02  0.8679309E-01
          2   -1    0    0  501    0  0.00000000000E+00  0.00000000000E+00  0.16959803017E+03  0.16959803017E+03  0.00000000000E+00 0.  1.
         -2   -1    0    0    0  501 -0.00000000000E+00 -0.00000000000E+00 -0.14794362853E+04  0.14794362853E+04  0.00000000000E+00 0.  1.
         36    2    1    2    0    0  0.14210854715E-13  0.71054273576E-14 -0.13098382551E+04  0.16490343154E+04  0.10018173082E+04 0.  0.
         25    2    3    3    0    0 -0.11920146327E+03  0.28328476758E+02 -0.12155065226E+03  0.21135294643E+03  0.12200006336E+03 0.  0.
         35    2    3    3    0    0  0.11920146327E+03 -0.28328476758E+02 -0.11882876028E+04  0.14376813690E+04  0.79993049715E+03 0.  0.
         22    1    5    5    0    0 -0.26181823089E+03 -0.67482492057E+02 -0.10738265490E+03  0.29091872977E+03  0.00000000000E+00 0.  1.
         22    1    5    5    0    0  0.38101969415E+03  0.39154015299E+02 -0.10809049479E+04  0.11467626392E+04  0.00000000000E+00 0.  1.
          5    1    4    4  502    0 -0.81005719497E+02 -0.14281080710E+02 -0.63455503499E+01  0.82633116041E+02  0.47000000000E+01 0. -1.
         -5    1    4    4    0  502 -0.38195743770E+02  0.42609557467E+02 -0.11520510191E+03  0.12871983039E+03  0.47000000000E+01 0. -1.
<mgrwt>
<rscale>  0 0.10018173E+04</rscale>
<asrwt>0</asrwt>
<pdfrwt beam="1">  1        2 0.26092005E-01 0.10018173E+04</pdfrwt>
<pdfrwt beam="2">  1       -2 0.22760558E+00 0.10018173E+04</pdfrwt>
<totfact> 0.19879285E+01</totfact>
</mgrwt>
</event>
<event>
 9    1  0.4497870E-036  0.1000132E+04  0.7818608E-02  0.8680912E-01
         -1   -1    0    0    0  501 -0.00000000000E+00  0.00000000000E+00  0.60390177272E+03  0.60390177272E+03  0.00000000000E+00 0. -1.
          1   -1    0    0  501    0  0.00000000000E+00 -0.00000000000E+00 -0.41408421634E+03  0.41408421634E+03  0.00000000000E+00 0. -1.
         36    2    1    2    0    0 -0.14210854715E-13 -0.42632564146E-13  0.18981755638E+03  0.10179859891E+04  0.10001323758E+04 0.  0.
         25    2    3    3    0    0 -0.92314355936E+02 -0.93282320724E+02  0.91152930183E+02  0.20271619303E+03  0.12474560739E+03 0.  0.
         35    2    3    3    0    0  0.92314355936E+02  0.93282320724E+02  0.98664626195E+02  0.81526979602E+03  0.79856533870E+03 0.  0.
         22    1    5    5    0    0  0.14350177502E+03  0.37718672430E+03  0.26450153095E+03  0.48251802484E+03  0.00000000000E+00 0.  1.
         22    1    5    5    0    0 -0.51187419082E+02 -0.28390440358E+03 -0.16583690476E+03  0.33275177118E+03  0.00000000000E+00 0.  1.
          5    1    4    4  502    0 -0.80285179522E+02 -0.78073546424E+02  0.12219437477E+03  0.16581539110E+03  0.47000000000E+01 0.  1.
         -5    1    4    4    0  502 -0.12029176414E+02 -0.15208774300E+02 -0.31041444585E+02  0.36900801926E+02  0.47000000000E+01 0.  1.
<mgrwt>
<rscale>  0 0.10001324E+04</rscale>
<asrwt>0</asrwt>
<pdfrwt beam="1">  1        1 0.63705264E-01 0.10001324E+04</pdfrwt>
<pdfrwt beam="2">  1       -1 0.92907965E-01 0.10001324E+04</pdfrwt>
<totfact> 0.76900032E+01</totfact>
</mgrwt>
</event>
<event>
 9    1  0.4497870E-036  0.1000477E+04  0.7818608E-02  0.8680584E-01
         -1   -1    0    0    0  501 -0.00000000000E+00  0.00000000000E+00  0.10769872302E+03  0.10769872302E+03  0.00000000000E+00 0. -1.
          1   -1    0    0  501    0  0.00000000000E+00 -0.00000000000E+00 -0.23235063498E+04  0.23235063498E+04  0.00000000000E+00 0. -1.
         36    2    1    2    0    0  0.71054273576E-14  0.00000000000E+00 -0.22158076268E+04  0.24312050728E+04  0.10004772197E+04 0.  0.
         25    2    3    3    0    0  0.46046328010E+02  0.64453372941E+02 -0.13354228258E+03  0.19939855144E+03  0.12510691217E+03 0.  0.
         35    2    3    3    0    0 -0.46046328010E+02 -0.64453372941E+02 -0.20822653442E+04  0.22318065214E+04  0.79928523298E+03 0.  0.
         22    1    5    5    0    0 -0.37756144702E+01 -0.80120108642E+02 -0.21494242634E+04  0.21509203033E+04  0.00000000000E+00 0.  1.
         22    1    5    5    0    0 -0.42270713540E+02  0.15666735702E+02  0.67158919259E+02  0.80886218028E+02  0.00000000000E+00 0.  1.
          5    1    4    4  502    0  0.66215385161E+00  0.22549655511E+02  0.22070503415E+02  0.31908032412E+02  0.47000000000E+01 0.  1.
         -5    1    4    4    0  502  0.45384174159E+02  0.41903717429E+02 -0.15561278600E+03  0.16749051903E+03  0.47000000000E+01 0.  1.
<mgrwt>
<rscale>  0 0.10004772E+04</rscale>
<asrwt>0</asrwt>
<pdfrwt beam="1">  1        1 0.35746248E+00 0.10004772E+04</pdfrwt>
<pdfrwt beam="2">  1       -1 0.16569036E-01 0.10004772E+04</pdfrwt>
<totfact> 0.51410580E+01</totfact>
</mgrwt>
</event>
<event>
 9    1  0.4497870E-036  0.1000071E+04  0.7818608E-02  0.8680970E-01
          3   -1    0    0  501    0  0.00000000000E+00  0.00000000000E+00  0.66646528071E+03  0.66646528071E+03  0.00000000000E+00 0. -1.
         -3   -1    0    0    0  501 -0.00000000000E+00 -0.00000000000E+00 -0.37516693391E+03  0.37516693391E+03  0.00000000000E+00 0. -1.
         36    2    1    2    0    0  0.17763568394E-14 -0.14210854715E-13  0.29129834680E+03  0.10416322146E+04  0.10000714693E+04 0.  0.
         25    2    3    3    0    0 -0.20289267387E+01 -0.38034395366E+02 -0.83798184224E+02  0.15609773875E+03  0.12606996704E+03 0.  0.
         35    2    3    3    0    0  0.20289267387E+01  0.38034395366E+02  0.37509653103E+03  0.88553447587E+03  0.80126348263E+03 0.  0.
         22    1    5    5    0    0 -0.40192332809E+02  0.34693352516E+03 -0.55792675529E+02  0.35368222621E+03  0.00000000000E+00 0. -1.
         22    1    5    5    0    0  0.42221259548E+02 -0.30889912979E+03  0.43088920656E+03  0.53185224966E+03  0.00000000000E+00 0. -1.
          5    1    4    4  502    0  0.86257610483E+01 -0.34316168141E+02 -0.11615127693E+03  0.12151218985E+03  0.47000000000E+01 0.  1.
         -5    1    4    4    0  502 -0.10654687787E+02 -0.37182272244E+01  0.32353092705E+02  0.34585548906E+02  0.47000000000E+01 0.  1.
<mgrwt>
<rscale>  0 0.10000715E+04</rscale>
<asrwt>0</asrwt>
<pdfrwt beam="1">  1        3 0.10253312E+00 0.10000715E+04</pdfrwt>
<pdfrwt beam="2">  1       -3 0.57717990E-01 0.10000715E+04</pdfrwt>
<totfact> 0.10076130E+01</totfact>
</mgrwt>
</event>
<event>
 9    1  0.4497870E-036  0.1000308E+04  0.7818608E-02  0.8680745E-01
         -2   -1    0    0    0  501 -0.00000000000E+00  0.00000000000E+00  0.20684585945E+03  0.20684585945E+03  0.00000000000E+00 0. -1.
          2   -1    0    0  501    0  0.00000000000E+00 -0.00000000000E+00 -0.12093740847E+04  0.12093740847E+04  0.00000000000E+00 0. -1.
         36    2    1    2    0    0  0.14210854715E-13 -0.14210854715E-13 -0.10025282252E+04  0.14162199441E+04  0.10003079965E+04 0.  0.
         25    2    3    3    0    0  0.16440061952E+02 -0.95559378078E+02 -0.33364015686E+03  0.36898467800E+03  0.12422587473E+03 0.  0.
         35    2    3    3    0    0 -0.16440061952E+02  0.95559378078E+02 -0.66888806836E+03  0.10472352661E+04  0.79993036212E+03 0.  0.
         22    1    5    5    0    0  0.90789137396E+02  0.40789074557E+03 -0.17481635092E+03  0.45296609623E+03  0.00000000000E+00 0.  1.
         22    1    5    5    0    0 -0.10722919935E+03 -0.31233136749E+03 -0.49407171743E+03  0.59426916989E+03  0.00000000000E+00 0.  1.
          5    1    4    4  502    0  0.27844309773E+02 -0.10368704167E+03 -0.14876085739E+03  0.18351618700E+03  0.47000000000E+01 0. -1.
         -5    1    4    4    0  502 -0.11404247821E+02  0.81276635927E+01 -0.18487929947E+03  0.18546849101E+03  0.47000000000E+01 0. -1.
<mgrwt>
<rscale>  0 0.10003080E+04</rscale>
<asrwt>0</asrwt>
<pdfrwt beam="1">  1        2 0.18605755E+00 0.10003080E+04</pdfrwt>
<pdfrwt beam="2">  1       -2 0.31822440E-01 0.10003080E+04</pdfrwt>
<totfact> 0.20666742E+02</totfact>
</mgrwt>
</event>
<event>
 9    1  0.4497870E-036  0.1000370E+04  0.7818608E-02  0.8680685E-01
         -1   -1    0    0    0  501 -0.00000000000E+00  0.00000000000E+00  0.83652036769E+03  0.83652036769E+03  0.00000000000E+00 0. -1.
          1   -1    0    0  501    0  0.00000000000E+00 -0.00000000000E+00 -0.29907839867E+03  0.29907839867E+03  0.00000000000E+00 0. -1.
         36    2    1    2    0    0 -0.28421709430E-13  0.00000000000E+00  0.53744196902E+03  0.11355987664E+04  0.10003702755E+04 0.  0.
         25    2    3    3    0    0  0.98916485643E+02  0.10823028402E+03  0.75107233454E+02  0.20711269883E+03  0.12552413309E+03 0.  0.
         35    2    3    3    0    0 -0.98916485643E+02 -0.10823028402E+03  0.46233473557E+03  0.92848606753E+03  0.79172893365E+03 0.  0.
         22    1    5    5    0    0  0.17521350144E+03  0.18192108083E+02  0.57873085471E+03  0.60494638281E+03  0.00000000000E+00 0.  1.
         22    1    5    5    0    0 -0.27412998708E+03 -0.12642239210E+03 -0.11639611914E+03  0.32353968472E+03  0.00000000000E+00 0.  1.
          5    1    4    4  502    0  0.19886787293E+02 -0.61423583128E+01  0.64122277465E+02  0.67579355885E+02  0.47000000000E+01 0. -1.
         -5    1    4    4    0  502  0.79029698350E+02  0.11437264233E+03  0.10984955989E+02  0.13953334294E+03  0.47000000000E+01 0. -1.
<mgrwt>
<rscale>  0 0.10003703E+04</rscale>
<asrwt>0</asrwt>
<pdfrwt beam="1">  1        1 0.46012062E-01 0.10003703E+04</pdfrwt>
<pdfrwt beam="2">  1       -1 0.12869544E+00 0.10003703E+04</pdfrwt>
<totfact> 0.54876487E+01</totfact>
</mgrwt>
</event>
<event>
 9    1  0.4497870E-036  0.1001114E+04  0.7818608E-02  0.8679978E-01
         -1   -1    0    0    0  501 -0.00000000000E+00  0.00000000000E+00  0.12599687988E+03  0.12599687988E+03  0.00000000000E+00 0. -1.
          1   -1    0    0  501    0  0.00000000000E+00 -0.00000000000E+00 -0.19886003859E+04  0.19886003859E+04  0.00000000000E+00 0. -1.
         36    2    1    2    0    0  0.00000000000E+00  0.00000000000E+00 -0.18626035060E+04  0.21145972658E+04  0.10011142671E+04 0.  0.
         25    2    3    3    0    0  0.92610998908E+02  0.70616727162E+02 -0.51390624590E+03  0.54153562009E+03  0.12489066807E+03 0.  0.
         35    2    3    3    0    0 -0.92610998908E+02 -0.70616727162E+02 -0.13486972601E+04  0.15730616457E+04  0.80123350057E+03 0.  0.
         22    1    5    5    0    0 -0.22381521146E+03 -0.17782582550E+03 -0.13725087457E+04  0.14019613155E+04  0.00000000000E+00 0. -1.
         22    1    5    5    0    0  0.13120421255E+03  0.10720909833E+03  0.23811485572E+02  0.17110033022E+03  0.00000000000E+00 0. -1.
          5    1    4    4  502    0 -0.18528785202E+02 -0.17158243185E+02 -0.12518552304E+03  0.12779368673E+03  0.47000000000E+01 0.  1.
         -5    1    4    4    0  502  0.11113978411E+03  0.87774970347E+02 -0.38872072286E+03  0.41374193335E+03  0.47000000000E+01 0.  1.
<mgrwt>
<rscale>  0 0.10011143E+04</rscale>
<asrwt>0</asrwt>
<pdfrwt beam="1">  1        1 0.30593847E+00 0.10011143E+04</pdfrwt>
<pdfrwt beam="2">  1       -1 0.19384138E-01 0.10011143E+04</pdfrwt>
<totfact> 0.68310483E+01</totfact>
</mgrwt>
</event>
<event>
 9    1  0.4497870E-036  0.1000181E+04  0.7818608E-02  0.8680866E-01
         -1   -1    0    0    0  501 -0.00000000000E+00  0.00000000000E+00  0.42265614421E+03  0.42265614421E+03  0.00000000000E+00 0.  1.
          1   -1    0    0  501    0  0.00000000000E+00 -0.00000000000E+00 -0.59171154332E+03  0.59171154332E+03  0.00000000000E+00 0.  1.
         36    2    1    2    0    0  0.00000000000E+00 -0.14210854715E-13 -0.16905539912E+03  0.10143676875E+04  0.10001810224E+04 0.  0.
         25    2    3    3    0    0 -0.29522760626E+02 -0.28835148649E+02  0.10371723293E+03  0.16746353002E+03  0.12483473190E+03 0.  0.
         35    2    3    3    0    0  0.29522760626E+02  0.28835148649E+02 -0.27277263204E+03  0.84690415751E+03  0.80071136124E+03 0.  0.
         22    1    5    5    0    0 -0.27647015780E+03 -0.17772128075E+03  0.77844885074E+02  0.33775794279E+03  0.00000000000E+00 0. -1.
         22    1    5    5    0    0  0.30599291843E+03  0.20655642940E+03 -0.35061751712E+03  0.50914621472E+03  0.00000000000E+00 0. -1.
          5    1    4    4  502    0 -0.77706919446E+02 -0.75356235505E+01  0.68020642863E+02  0.10365350360E+03  0.47000000000E+01 0. -1.
         -5    1    4    4    0  502  0.48184158820E+02 -0.21299525098E+02  0.35696590062E+02  0.63810026427E+02  0.47000000000E+01 0. -1.
<mgrwt>
<rscale>  0 0.10001810E+04</rscale>
<asrwt>0</asrwt>
<pdfrwt beam="1">  1        1 0.91032545E-01 0.10001810E+04</pdfrwt>
<pdfrwt beam="2">  1       -1 0.65024022E-01 0.10001810E+04</pdfrwt>
<totfact> 0.97632200E+01</totfact>
</mgrwt>
</event>
<event>
 9    1  0.4497870E-036  0.1003068E+04  0.7818608E-02  0.8678122E-01
         -1   -1    0    0    0  501 -0.00000000000E+00  0.00000000000E+00  0.26675190529E+03  0.26675190529E+03  0.00000000000E+00 0.  1.
          1   -1    0    0  501    0  0.00000000000E+00 -0.00000000000E+00 -0.94296008577E+03  0.94296008577E+03  0.00000000000E+00 0.  1.
         36    2    1    2    0    0  0.28421709430E-13  0.00000000000E+00 -0.67620818048E+03  0.12097119911E+04  0.10030680924E+04 0.  0.
         25    2    3    3    0    0  0.10840581823E+03  0.70695301995E+02 -0.17612715742E+03  0.25206469664E+03  0.12556348420E+03 0.  0.
         35    2    3    3    0    0 -0.10840581823E+03 -0.70695301995E+02 -0.50008102307E+03  0.95764729442E+03  0.80638555526E+03 0.  0.
         22    1    5    5    0    0 -0.38120987012E+02  0.46346466284E+02  0.21830539998E+03  0.22640329558E+03  0.00000000000E+00 0. -1.
         22    1    5    5    0    0 -0.70284831214E+02 -0.11704176828E+03 -0.71838642305E+03  0.73124399884E+03  0.00000000000E+00 0. -1.
          5    1    4    4  502    0  0.44370443484E+02  0.61488184441E+02 -0.13742322013E+02  0.77204109315E+02  0.47000000000E+01 0.  1.
         -5    1    4    4    0  502  0.64035374742E+02  0.92071175533E+01 -0.16238483540E+03  0.17486058733E+03  0.47000000000E+01 0.  1.
<mgrwt>
<rscale>  0 0.10030681E+04</rscale>
<asrwt>0</asrwt>
<pdfrwt beam="1">  1        1 0.14507078E+00 0.10030681E+04</pdfrwt>
<pdfrwt beam="2">  1       -1 0.41038755E-01 0.10030681E+04</pdfrwt>
<totfact> 0.10972080E+02</totfact>
</mgrwt>
</event>
<event>
 9    1  0.4497870E-036  0.9999382E+03  0.7818608E-02  0.8681097E-01
         -2   -1    0    0    0  501 -0.00000000000E+00  0.00000000000E+00  0.39103949262E+03  0.39103949262E+03  0.00000000000E+00 0.  1.
          2   -1    0    0  501    0  0.00000000000E+00 -0.00000000000E+00 -0.63924264685E+03  0.63924264685E+03  0.00000000000E+00 0.  1.
         36    2    1    2    0    0  0.00000000000E+00  0.35527136788E-14 -0.24820315422E+03  0.10302821395E+04  0.99993823867E+03 0.  0.
         25    2    3    3    0    0  0.13440726558E+03 -0.18396278973E+02 -0.18377036950E+02  0.18549063225E+03  0.12516118826E+03 0.  0.
         35    2    3    3    0    0 -0.13440726558E+03  0.18396278973E+02 -0.22982611727E+03  0.84479150722E+03  0.80152910762E+03 0.  0.
         22    1    5    5    0    0 -0.37654318747E+03  0.73141468299E+02 -0.39185360200E+03  0.54834632471E+03  0.00000000000E+00 0.  1.
         22    1    5    5    0    0  0.24213592189E+03 -0.54745189326E+02  0.16202748473E+03  0.29644518251E+03  0.00000000000E+00 0.  1.
          5    1    4    4  502    0  0.15713076692E+02  0.21656858960E+02  0.39078005296E+02  0.47593075305E+02  0.47000000000E+01 0.  1.
         -5    1    4    4    0  502  0.11869418888E+03 -0.40053137933E+02 -0.57455042245E+02  0.13789755695E+03  0.47000000000E+01 0.  1.
<mgrwt>
<rscale>  0 0.99993824E+03</rscale>
<asrwt>0</asrwt>
<pdfrwt beam="1">  1        2 0.98345021E-01 0.99993824E+03</pdfrwt>
<pdfrwt beam="2">  1       -2 0.60159923E-01 0.99993824E+03</pdfrwt>
<totfact> 0.14302650E+02</totfact>
</mgrwt>
</event>
<event>
 9    1  0.4497870E-036  0.9998758E+03  0.7818608E-02  0.8681156E-01
          2   -1    0    0  501    0  0.00000000000E+00  0.00000000000E+00  0.44527482200E+03  0.44527482200E+03  0.00000000000E+00 0.  1.
         -2   -1    0    0    0  501 -0.00000000000E+00 -0.00000000000E+00 -0.56131156493E+03  0.56131156493E+03  0.00000000000E+00 0.  1.
         36    2    1    2    0    0  0.00000000000E+00  0.00000000000E+00 -0.11603674293E+03  0.10065863869E+04  0.99987580662E+03 0.  0.
         25    2    3    3    0    0 -0.12346819599E+03  0.31818801630E+02 -0.81098919783E+02  0.19604394491E+03  0.12489740585E+03 0.  0.
         35    2    3    3    0    0  0.12346819599E+03 -0.31818801630E+02 -0.34937823147E+02  0.81054244203E+03  0.79968841888E+03 0.  0.
         22    1    5    5    0    0 -0.33377867526E+03  0.62240262259E+02 -0.51565355394E+02  0.34342545069E+03  0.00000000000E+00 0. -1.
         22    1    5    5    0    0  0.45724687125E+03 -0.94059063889E+02  0.16627532247E+02  0.46711699134E+03  0.00000000000E+00 0. -1.
          5    1    4    4  502    0 -0.13451083829E+03  0.42640614536E+02 -0.32568444052E+02  0.14489368921E+03  0.47000000000E+01 0.  1.
         -5    1    4    4    0  502  0.11042642301E+02 -0.10821812906E+02 -0.48530475731E+02  0.51150255701E+02  0.47000000000E+01 0.  1.
<mgrwt>
<rscale>  0 0.99987581E+03</rscale>
<asrwt>0</asrwt>
<pdfrwt beam="1">  1        2 0.68503819E-01 0.99987581E+03</pdfrwt>
<pdfrwt beam="2">  1       -2 0.86355625E-01 0.99987581E+03</pdfrwt>
<totfact> 0.98008979E+01</totfact>
</mgrwt>
</event>
<event>
 9    1  0.4497870E-036  0.9990320E+03  0.7818608E-02  0.8681960E-01
         -1   -1    0    0    0  501 -0.00000000000E+00  0.00000000000E+00  0.18403748480E+03  0.18403748480E+03  0.00000000000E+00 0.  1.
          1   -1    0    0  501    0  0.00000000000E+00 -0.00000000000E+00 -0.13557903670E+04  0.13557903670E+04  0.00000000000E+00 0.  1.
         36    2    1    2    0    0  0.00000000000E+00  0.00000000000E+00 -0.11717528822E+04  0.15398278518E+04  0.99903202962E+03 0.  0.
         25    2    3    3    0    0  0.10433690849E+03 -0.91799147157E+02 -0.24725230884E+03  0.30988538891E+03  0.12482778592E+03 0.  0.
         35    2    3    3    0    0 -0.10433690849E+03  0.91799147157E+02 -0.92450057331E+03  0.12299424628E+04  0.79921453814E+03 0.  0.
         22    1    5    5    0    0 -0.33273397196E+03  0.15648387416E+03 -0.92192907015E+03  0.99254839145E+03  0.00000000000E+00 0.  1.
         22    1    5    5    0    0  0.22839706347E+03 -0.64684727006E+02 -0.25715031544E+01  0.23739407140E+03  0.00000000000E+00 0.  1.
          5    1    4    4  502    0 -0.33180334190E+01  0.25801166417E+01  0.12077062818E+02  0.13623941940E+02  0.47000000000E+01 0. -1.
         -5    1    4    4    0  502  0.10765494191E+03 -0.94379263798E+02 -0.25932937166E+03  0.29626144697E+03  0.47000000000E+01 0. -1.
<mgrwt>
<rscale>  0 0.99903203E+03</rscale>
<asrwt>0</asrwt>
<pdfrwt beam="1">  1        1 0.20858314E+00 0.99903203E+03</pdfrwt>
<pdfrwt beam="2">  1       -1 0.28313458E-01 0.99903203E+03</pdfrwt>
<totfact> 0.10163099E+02</totfact>
</mgrwt>
</event>
<event>
 9    1  0.4497870E-036  0.9975461E+03  0.7818608E-02  0.8683378E-01
          2   -1    0    0  501    0  0.00000000000E+00  0.00000000000E+00  0.18051165928E+04  0.18051165928E+04  0.00000000000E+00 0. -1.
         -2   -1    0    0    0  501 -0.00000000000E+00 -0.00000000000E+00 -0.13781633796E+03  0.13781633796E+03  0.00000000000E+00 0. -1.
         36    2    1    2    0    0  0.00000000000E+00  0.17763568394E-13  0.16673002549E+04  0.19429329308E+04  0.99754610603E+03 0.  0.
         25    2    3    3    0    0 -0.13848483036E+03 -0.17596424637E+02  0.31582575930E+03  0.36632735444E+03  0.12231981841E+03 0.  0.
         35    2    3    3    0    0  0.13848483036E+03  0.17596424637E+02  0.13514744956E+04  0.15766055763E+04  0.79982132304E+03 0.  0.
         22    1    5    5    0    0  0.31875439745E+03 -0.16874654332E+03  0.23511236994E+03  0.43053175060E+03  0.00000000000E+00 0.  1.
         22    1    5    5    0    0 -0.18026956709E+03  0.18634296795E+03  0.11163621256E+04  0.11460738257E+04  0.00000000000E+00 0.  1.
          5    1    4    4  502    0 -0.74058129524E+02  0.30574510538E+02  0.24908572135E+03  0.26169675929E+03  0.47000000000E+01 0. -1.
         -5    1    4    4    0  502 -0.64426700837E+02 -0.48170935175E+02  0.66740037948E+02  0.10463059515E+03  0.47000000000E+01 0. -1.
<mgrwt>
<rscale>  0 0.99754611E+03</rscale>
<asrwt>0</asrwt>
<pdfrwt beam="1">  1        2 0.27771023E+00 0.99754611E+03</pdfrwt>
<pdfrwt beam="2">  1       -2 0.21202515E-01 0.99754611E+03</pdfrwt>
<totfact> 0.19532972E+02</totfact>
</mgrwt>
</event>
<event>
 9    1  0.4497870E-036  0.1000246E+04  0.7818608E-02  0.8680804E-01
         -1   -1    0    0    0  501 -0.00000000000E+00  0.00000000000E+00  0.65961331802E+03  0.65961331802E+03  0.00000000000E+00 0. -1.
          1   -1    0    0  501    0  0.00000000000E+00 -0.00000000000E+00 -0.37919611515E+03  0.37919611515E+03  0.00000000000E+00 0. -1.
         36    2    1    2    0    0  0.00000000000E+00  0.14210854715E-13  0.28041720287E+03  0.10388094332E+04  0.10002455852E+04 0.  0.
         25    2    3    3    0    0 -0.10576688632E+02  0.12322453343E+03  0.11938421188E+03  0.21326562549E+03  0.12622790891E+03 0.  0.
         35    2    3    3    0    0  0.10576688632E+02 -0.12322453343E+03  0.16103299099E+03  0.82554380768E+03  0.80018423018E+03 0.  0.
         22    1    5    5    0    0 -0.25646914297E+02  0.19769513078E+03 -0.23912200187E+03  0.31132051125E+03  0.00000000000E+00 0.  1.
         22    1    5    5    0    0  0.36223602929E+02 -0.32091966420E+03  0.40015499286E+03  0.51422329643E+03  0.00000000000E+00 0.  1.
          5    1    4    4  502    0  0.25603271389E+02  0.98640151940E+02  0.19146332776E+02  0.10379826174E+03  0.47000000000E+01 0. -1.
         -5    1    4    4    0  502 -0.36179960021E+02  0.24584381487E+02  0.10023787910E+03  0.10946736375E+03  0.47000000000E+01 0. -1.
<mgrwt>
<rscale>  0 0.10002456E+04</rscale>
<asrwt>0</asrwt>
<pdfrwt beam="1">  1        1 0.58337864E-01 0.10002456E+04</pdfrwt>
<pdfrwt beam="2">  1       -1 0.10147897E+00 0.10002456E+04</pdfrwt>
<totfact> 0.71163284E+01</totfact>
</mgrwt>
</event>
<event>
 9    1  0.4497870E-036  0.9984018E+03  0.7818608E-02  0.8682561E-01
         -2   -1    0    0    0  501 -0.00000000000E+00  0.00000000000E+00  0.24719169814E+03  0.24719169814E+03  0.00000000000E+00 0.  1.
          2   -1    0    0  501    0  0.00000000000E+00 -0.00000000000E+00 -0.10081306732E+04  0.10081306732E+04  0.00000000000E+00 0.  1.
         36    2    1    2    0    0  0.14210854715E-13 -0.10658141036E-13 -0.76093897505E+03  0.12553223713E+04  0.99840178897E+03 0.  0.
         25    2    3    3    0    0 -0.71257773963E+02 -0.26420845120E+02 -0.28763283052E+03  0.32234707794E+03  0.12409376316E+03 0.  0.
         35    2    3    3    0    0  0.71257773963E+02  0.26420845120E+02 -0.47330614453E+03  0.93297529339E+03  0.80040518503E+03 0.  0.
         22    1    5    5    0    0  0.40390570715E+03  0.17411340345E+03 -0.26955301871E+03  0.51586250826E+03  0.00000000000E+00 0. -1.
         22    1    5    5    0    0 -0.33264793319E+03 -0.14769255833E+03 -0.20375312582E+03  0.41711278513E+03  0.00000000000E+00 0. -1.
          5    1    4    4  502    0  0.29754472232E+02  0.15721714914E+02 -0.92820392635E+02  0.98844404124E+02  0.47000000000E+01 0.  1.
         -5    1    4    4    0  502 -0.10101224619E+03 -0.42142560034E+02 -0.19481243789E+03  0.22350267382E+03  0.47000000000E+01 0.  1.
<mgrwt>
<rscale>  0 0.99840179E+03</rscale>
<asrwt>0</asrwt>
<pdfrwt beam="1">  1        2 0.15509703E+00 0.99840179E+03</pdfrwt>
<pdfrwt beam="2">  1       -2 0.38029492E-01 0.99840179E+03</pdfrwt>
<totfact> 0.19629184E+02</totfact>
</mgrwt>
</event>
<event>
 9    1  0.4497870E-036  0.9989615E+03  0.7818608E-02  0.8682028E-01
         -2   -1    0    0    0  501 -0.00000000000E+00  0.00000000000E+00  0.20892035599E+03  0.20892035599E+03  0.00000000000E+00 0. -1.
          2   -1    0    0  501    0  0.00000000000E+00 -0.00000000000E+00 -0.11941441789E+04  0.11941441789E+04  0.00000000000E+00 0. -1.
         36    2    1    2    0    0 -0.28421709430E-13  0.00000000000E+00 -0.98522382294E+03  0.14030645349E+04  0.99896151471E+03 0.  0.
         25    2    3    3    0    0 -0.59065905636E+02 -0.77903497137E+02 -0.45736689406E+02  0.16525601427E+03  0.12513979950E+03 0.  0.
         35    2    3    3    0    0  0.59065905636E+02  0.77903497137E+02 -0.93948713353E+03  0.12378085207E+04  0.79998507715E+03 0.  0.
         22    1    5    5    0    0 -0.20949197909E+03 -0.19704571504E+03 -0.83472521596E+02  0.29946880468E+03  0.00000000000E+00 0.  1.
         22    1    5    5    0    0  0.26855788472E+03  0.27494921218E+03 -0.85601461194E+03  0.93833971597E+03  0.00000000000E+00 0.  1.
          5    1    4    4  502    0 -0.28064287660E+02 -0.82668324066E+02  0.22267444138E+02  0.90219649269E+02  0.47000000000E+01 0.  1.
         -5    1    4    4    0  502 -0.31001617977E+02  0.47648269286E+01 -0.68004133544E+02  0.75036364996E+02  0.47000000000E+01 0.  1.
<mgrwt>
<rscale>  0 0.99896151E+03</rscale>
<asrwt>0</asrwt>
<pdfrwt beam="1">  1        2 0.18371450E+00 0.99896151E+03</pdfrwt>
<pdfrwt beam="2">  1       -2 0.32141592E-01 0.99896151E+03</pdfrwt>
<totfact> 0.20715874E+02</totfact>
</mgrwt>
</event>
<event>
 9    1  0.4497870E-036  0.9996733E+03  0.7818608E-02  0.8681349E-01
          2   -1    0    0  501    0  0.00000000000E+00  0.00000000000E+00  0.26041256293E+04  0.26041256293E+04  0.00000000000E+00 0. -1.
         -2   -1    0    0    0  501 -0.00000000000E+00 -0.00000000000E+00 -0.95938804359E+02  0.95938804359E+02  0.00000000000E+00 0. -1.
         36    2    1    2    0    0  0.14210854715E-13 -0.14210854715E-13  0.25081868250E+04  0.27000644337E+04  0.99967334521E+03 0.  0.
         25    2    3    3    0    0 -0.38833523579E+02 -0.12010846226E+03  0.30422288726E+03  0.35244941032E+03  0.12543897496E+03 0.  0.
         35    2    3    3    0    0  0.38833523579E+02  0.12010846226E+03  0.22039639377E+04  0.23476150234E+04  0.79868966061E+03 0.  0.
         22    1    5    5    0    0  0.32568020403E+03 -0.11181277951E+03  0.16253201874E+04  0.16613956195E+04  0.00000000000E+00 0. -1.
         22    1    5    5    0    0 -0.28684668045E+03  0.23192124177E+03  0.57864375034E+03  0.68621940389E+03  0.00000000000E+00 0. -1.
          5    1    4    4  502    0 -0.49867856525E+02  0.37878393507E+01  0.59339032066E+02  0.77745492267E+02  0.47000000000E+01 0.  1.
         -5    1    4    4    0  502  0.11034332947E+02 -0.12389630161E+03  0.24488385519E+03  0.27470391805E+03  0.47000000000E+01 0.  1.
<mgrwt>
<rscale>  0 0.99967335E+03</rscale>
<asrwt>0</asrwt>
<pdfrwt beam="1">  1        2 0.40063466E+00 0.99967335E+03</pdfrwt>
<pdfrwt beam="2">  1       -2 0.14759818E-01 0.99967335E+03</pdfrwt>
<totfact> 0.12349276E+02</totfact>
</mgrwt>
</event>
<event>
 9    1  0.4497870E-036  0.1000627E+04  0.7818608E-02  0.8680441E-01
         -2   -1    0    0    0  501 -0.00000000000E+00  0.00000000000E+00  0.47372561680E+03  0.47372561680E+03  0.00000000000E+00 0.  1.
          2   -1    0    0  501    0  0.00000000000E+00 -0.00000000000E+00 -0.52839413324E+03  0.52839413324E+03  0.00000000000E+00 0.  1.
         36    2    1    2    0    0  0.00000000000E+00 -0.17763568394E-13 -0.54668516444E+02  0.10021197500E+04  0.10006274765E+04 0.  0.
         25    2    3    3    0    0 -0.90290765520E+02 -0.25975938830E+02 -0.11608437692E+03  0.19474044271E+03  0.12498434192E+03 0.  0.
         35    2    3    3    0    0  0.90290765520E+02  0.25975938830E+02  0.61415860472E+02  0.80737930734E+03  0.79953878346E+03 0.  0.
         22    1    5    5    0    0  0.10931862923E+03 -0.34055546275E+03 -0.14539987205E+03  0.38609546578E+03  0.00000000000E+00 0. -1.
         22    1    5    5    0    0 -0.19027863711E+02  0.36653140158E+03  0.20681573252E+03  0.42128384156E+03  0.00000000000E+00 0. -1.
          5    1    4    4  502    0 -0.77988373754E+02 -0.43835467348E+02 -0.14490361856E+02  0.90751282223E+02  0.47000000000E+01 0. -1.
         -5    1    4    4    0  502 -0.12302391766E+02  0.17859528518E+02 -0.10159401506E+03  0.10398916048E+03  0.47000000000E+01 0. -1.
<mgrwt>
<rscale>  0 0.10006275E+04</rscale>
<asrwt>0</asrwt>
<pdfrwt beam="1">  1        2 0.81291404E-01 0.10006275E+04</pdfrwt>
<pdfrwt beam="2">  1       -2 0.72880865E-01 0.10006275E+04</pdfrwt>
<totfact> 0.11871910E+02</totfact>
</mgrwt>
</event>
<event>
 9    1  0.4497870E-036  0.1000293E+04  0.7818608E-02  0.8680759E-01
         -2   -1    0    0    0  501 -0.00000000000E+00  0.00000000000E+00  0.43405736186E+03  0.43405736186E+03  0.00000000000E+00 0. -1.
          2   -1    0    0  501    0  0.00000000000E+00 -0.00000000000E+00 -0.57629813904E+03  0.57629813904E+03  0.00000000000E+00 0. -1.
         36    2    1    2    0    0 -0.10658141036E-13  0.56843418861E-13 -0.14224077718E+03  0.10103555009E+04  0.10002928569E+04 0.  0.
         25    2    3    3    0    0 -0.13604725978E+02 -0.34522818716E+02  0.10985913211E+03  0.16969628746E+03  0.12389869849E+03 0.  0.
         35    2    3    3    0    0  0.13604725978E+02  0.34522818716E+02 -0.25209990929E+03  0.84065921345E+03  0.80110962752E+03 0.  0.
         22    1    5    5    0    0  0.14000143339E+03 -0.30149059522E+03  0.90402788494E+02  0.34448460710E+03  0.00000000000E+00 0. -1.
         22    1    5    5    0    0 -0.12639670742E+03  0.33601341394E+03 -0.34250269779E+03  0.49617460635E+03  0.00000000000E+00 0. -1.
          5    1    4    4  502    0  0.83749377610E+01  0.36053775208E+02  0.13414828250E+00  0.37311154968E+02  0.47000000000E+01 0. -1.
         -5    1    4    4    0  502 -0.21979663739E+02 -0.70576593925E+02  0.10972498383E+03  0.13238513249E+03  0.47000000000E+01 0. -1.
<mgrwt>
<rscale>  0 0.10002929E+04</rscale>
<asrwt>0</asrwt>
<pdfrwt beam="1">  1        2 0.88661252E-01 0.10002929E+04</pdfrwt>
<pdfrwt beam="2">  1       -2 0.66778056E-01 0.10002929E+04</pdfrwt>
<totfact> 0.12973965E+02</totfact>
</mgrwt>
</event>
<event>
 9    1  0.4497870E-036  0.1000090E+04  0.7818608E-02  0.8680952E-01
         -2   -1    0    0    0  501 -0.00000000000E+00  0.00000000000E+00  0.32684792562E+03  0.32684792562E+03  0.00000000000E+00 0. -1.
          2   -1    0    0  501    0  0.00000000000E+00 -0.00000000000E+00 -0.76501914806E+03  0.76501914806E+03  0.00000000000E+00 0. -1.
         36    2    1    2    0    0  0.00000000000E+00  0.00000000000E+00 -0.43817122244E+03  0.10918670737E+04  0.10000898392E+04 0.  0.
         25    2    3    3    0    0 -0.42567749926E+02 -0.99116451800E+02  0.16368487302E+02  0.16577900439E+03  0.12481452868E+03 0.  0.
         35    2    3    3    0    0  0.42567749926E+02  0.99116451800E+02 -0.45453970974E+03  0.92608806929E+03  0.79962283609E+03 0.  0.
         22    1    5    5    0    0 -0.24561944985E+03  0.34126336573E+03 -0.16699614181E+03  0.45241276542E+03  0.00000000000E+00 0. -1.
         22    1    5    5    0    0  0.28818719978E+03 -0.24214691393E+03 -0.28754356794E+03  0.47367530387E+03  0.00000000000E+00 0. -1.
          5    1    4    4  502    0 -0.11013546337E+02  0.16321478114E+02  0.38956907374E+02  0.43902385845E+02  0.47000000000E+01 0. -1.
         -5    1    4    4    0  502 -0.31554203589E+02 -0.11543792991E+03 -0.22588420072E+02  0.12187661855E+03  0.47000000000E+01 0. -1.
<mgrwt>
<rscale>  0 0.10000898E+04</rscale>
<asrwt>0</asrwt>
<pdfrwt beam="1">  1        2 0.11769525E+00 0.10000898E+04</pdfrwt>
<pdfrwt beam="2">  1       -2 0.50284296E-01 0.10000898E+04</pdfrwt>
<totfact> 0.16545271E+02</totfact>
</mgrwt>
</event>
<event>
 9    1  0.4497870E-036  0.9997761E+03  0.7818608E-02  0.8681251E-01
          1   -1    0    0  501    0  0.00000000000E+00  0.00000000000E+00  0.27888687808E+03  0.27888687808E+03  0.00000000000E+00 0. -1.
         -1   -1    0    0    0  501 -0.00000000000E+00 -0.00000000000E+00 -0.89601946896E+03  0.89601946896E+03  0.00000000000E+00 0. -1.
         36    2    1    2    0    0  0.00000000000E+00 -0.14210854715E-13 -0.61713259089E+03  0.11749063470E+04  0.99977611973E+03 0.  0.
         25    2    3    3    0    0 -0.10252589898E+03 -0.94770436264E+02 -0.12970773396E+03  0.22751230721E+03  0.12427694127E+03 0.  0.
         35    2    3    3    0    0  0.10252589898E+03  0.94770436264E+02 -0.48742485693E+03  0.94739403983E+03  0.80029961890E+03 0.  0.
         22    1    5    5    0    0  0.12023239141E+03 -0.28835054349E+03 -0.46886561954E+03  0.56341532910E+03  0.00000000000E+00 0.  1.
         22    1    5    5    0    0 -0.17706492423E+02  0.38312097976E+03 -0.18559237389E+02  0.38397871073E+03  0.00000000000E+00 0.  1.
          5    1    4    4  502    0 -0.12132868114E+03 -0.40359096327E+02 -0.77099700748E+02  0.14938527163E+03  0.47000000000E+01 0.  1.
         -5    1    4    4    0  502  0.18802782156E+02 -0.54411339937E+02 -0.52608033213E+02  0.78127035584E+02  0.47000000000E+01 0.  1.
<mgrwt>
<rscale>  0 0.99977612E+03</rscale>
<asrwt>0</asrwt>
<pdfrwt beam="1">  1        1 0.42905673E-01 0.99977612E+03</pdfrwt>
<pdfrwt beam="2">  1       -1 0.13784915E+00 0.99977612E+03</pdfrwt>
<totfact> 0.50109828E+01</totfact>
</mgrwt>
</event>
<event>
 9    1  0.4497870E-036  0.9922254E+03  0.7818608E-02  0.8688477E-01
          2   -1    0    0  501    0  0.00000000000E+00  0.00000000000E+00  0.54071325526E+03  0.54071325526E+03  0.00000000000E+00 0. -1.
         -2   -1    0    0    0  501 -0.00000000000E+00 -0.00000000000E+00 -0.45519101346E+03  0.45519101346E+03  0.00000000000E+00 0. -1.
         36    2    1    2    0    0 -0.71054273576E-14  0.00000000000E+00  0.85522241798E+02  0.99590426872E+03  0.99222540716E+03 0.  0.
         25    2    3    3    0    0  0.58717829901E+02  0.78337868190E+02 -0.75131942039E+02  0.17452804984E+03  0.12341242370E+03 0.  0.
         35    2    3    3    0    0 -0.58717829901E+02 -0.78337868190E+02  0.16065418384E+03  0.82137621889E+03  0.79954019350E+03 0.  0.
         22    1    5    5    0    0  0.25253233863E+02 -0.32385964857E+03  0.36680623337E+03  0.48996898946E+03  0.00000000000E+00 0. -1.
         22    1    5    5    0    0 -0.83971063764E+02  0.24552178038E+03 -0.20615204953E+03  0.33140722943E+03  0.00000000000E+00 0. -1.
          5    1    4    4  502    0  0.50719306683E+02  0.80766634152E+02 -0.10572775087E+03  0.14246453793E+03  0.47000000000E+01 0.  1.
         -5    1    4    4    0  502  0.79985232182E+01 -0.24287659611E+01  0.30595808834E+02  0.32063511909E+02  0.47000000000E+01 0.  1.
<mgrwt>
<rscale>  0 0.99222541E+03</rscale>
<asrwt>0</asrwt>
<pdfrwt beam="1">  1        2 0.83186655E-01 0.99222541E+03</pdfrwt>
<pdfrwt beam="2">  1       -2 0.70029387E-01 0.99222541E+03</pdfrwt>
<totfact> 0.12617240E+02</totfact>
</mgrwt>
</event>
<event>
 9    1  0.4497870E-036  0.9962617E+03  0.7818608E-02  0.8684606E-01
          4   -1    0    0  501    0  0.00000000000E+00  0.00000000000E+00  0.20388954441E+03  0.20388954441E+03  0.00000000000E+00 0. -1.
         -4   -1    0    0    0  501 -0.00000000000E+00 -0.00000000000E+00 -0.12170037469E+04  0.12170037469E+04  0.00000000000E+00 0. -1.
         36    2    1    2    0    0 -0.17763568394E-14  0.00000000000E+00 -0.10131142025E+04  0.14208932913E+04  0.99626169152E+03 0.  0.
         25    2    3    3    0    0  0.24872122948E+01 -0.11473111341E+03 -0.84665096325E+02  0.19005319457E+03  0.12562891236E+03 0.  0.
         35    2    3    3    0    0 -0.24872122948E+01  0.11473111341E+03 -0.92844910616E+03  0.12308400967E+04  0.79986260469E+03 0.  0.
         22    1    5    5    0    0 -0.26742579161E+02 -0.74316278297E+02  0.13176878892E+03  0.15362645766E+03  0.00000000000E+00 0. -1.
         22    1    5    5    0    0  0.24255366866E+02  0.18904739170E+03 -0.10602178951E+04  0.10772136391E+04  0.00000000000E+00 0. -1.
          5    1    4    4  502    0  0.15269654420E+02 -0.63606958097E+02 -0.11253786940E+03  0.13025309790E+03  0.47000000000E+01 0. -1.
         -5    1    4    4    0  502 -0.12782442125E+02 -0.51124155310E+02  0.27872773071E+02  0.59800096668E+02  0.47000000000E+01 0. -1.
<mgrwt>
<rscale>  0 0.99626169E+03</rscale>
<asrwt>0</asrwt>
<pdfrwt beam="1">  1        4 0.31367622E-01 0.99626169E+03</pdfrwt>
<pdfrwt beam="2">  1       -4 0.18723134E+00 0.99626169E+03</pdfrwt>
<totfact> 0.28968845E+00</totfact>
</mgrwt>
</event>
<event>
 9    1  0.4497870E-036  0.1000572E+04  0.7818608E-02  0.8680494E-01
         -4   -1    0    0    0  501 -0.00000000000E+00  0.00000000000E+00  0.37034044391E+03  0.37034044391E+03  0.00000000000E+00 0.  1.
          4   -1    0    0  501    0  0.00000000000E+00 -0.00000000000E+00 -0.67582668035E+03  0.67582668035E+03  0.00000000000E+00 0.  1.
         36    2    1    2    0    0  0.00000000000E+00  0.00000000000E+00 -0.30548623644E+03  0.10461671243E+04  0.10005717422E+04 0.  0.
         25    2    3    3    0    0  0.82504618593E+02 -0.97363824826E+02  0.40312969093E+01  0.17849777028E+03  0.12473362084E+03 0.  0.
         35    2    3    3    0    0 -0.82504618593E+02  0.97363824826E+02 -0.30951753334E+03  0.86766935397E+03  0.80047628191E+03 0.  0.
         22    1    5    5    0    0  0.57166280811E+02  0.41741683786E+03 -0.30202737017E+03  0.51838724186E+03  0.00000000000E+00 0. -1.
         22    1    5    5    0    0 -0.13967089940E+03 -0.32005301304E+03 -0.74901631699E+01  0.34928211211E+03  0.00000000000E+00 0. -1.
          5    1    4    4  502    0  0.54261161095E+02 -0.38906002589E+02 -0.58010897707E+02  0.88573725752E+02  0.47000000000E+01 0. -1.
         -5    1    4    4    0  502  0.28243457498E+02 -0.58457822237E+02  0.62042194616E+02  0.89924044531E+02  0.47000000000E+01 0. -1.
<mgrwt>
<rscale>  0 0.10005717E+04</rscale>
<asrwt>0</asrwt>
<pdfrwt beam="1">  1        4 0.10397333E+00 0.10005717E+04</pdfrwt>
<pdfrwt beam="2">  1       -4 0.56975453E-01 0.10005717E+04</pdfrwt>
<totfact> 0.48971513E+00</totfact>
</mgrwt>
</event>
<event>
 9    1  0.4497870E-036  0.9996609E+03  0.7818608E-02  0.8681361E-01
          2   -1    0    0  501    0  0.00000000000E+00  0.00000000000E+00  0.17072944844E+04  0.17072944844E+04  0.00000000000E+00 0. -1.
         -2   -1    0    0    0  501 -0.00000000000E+00 -0.00000000000E+00 -0.14633120546E+03  0.14633120546E+03  0.00000000000E+00 0. -1.
         36    2    1    2    0    0  0.14210854715E-13  0.14210854715E-13  0.15609632789E+04  0.18536256899E+04  0.99966086245E+03 0.  0.
         25    2    3    3    0    0 -0.22456121062E+02 -0.88498289102E+02  0.48899699242E+03  0.51293196942E+03  0.12507966305E+03 0.  0.
         35    2    3    3    0    0  0.22456121062E+02  0.88498289102E+02  0.10719662865E+04  0.13406937204E+04  0.80000731749E+03 0.  0.
         22    1    5    5    0    0 -0.32251246184E+03 -0.83074494418E+02  0.80721102704E+03  0.87321549565E+03  0.00000000000E+00 0.  1.
         22    1    5    5    0    0  0.34496858290E+03  0.17157278352E+03  0.26475525947E+03  0.46747822478E+03  0.00000000000E+00 0.  1.
          5    1    4    4  502    0  0.18793202435E+02  0.35024204149E+01  0.28150608218E+03  0.28219357844E+03  0.47000000000E+01 0. -1.
         -5    1    4    4    0  502 -0.41249323498E+02 -0.92000709517E+02  0.20749091024E+03  0.23073839098E+03  0.47000000000E+01 0. -1.
<mgrwt>
<rscale>  0 0.99966086E+03</rscale>
<asrwt>0</asrwt>
<pdfrwt beam="1">  1        2 0.26266068E+00 0.99966086E+03</pdfrwt>
<pdfrwt beam="2">  1       -2 0.22512494E-01 0.99966086E+03</pdfrwt>
<totfact> 0.19972323E+02</totfact>
</mgrwt>
</event>
<event>
 9    1  0.4497870E-036  0.1000568E+04  0.7818608E-02  0.8680497E-01
          2   -1    0    0  501    0  0.00000000000E+00  0.00000000000E+00  0.41057706490E+03  0.41057706490E+03  0.00000000000E+00 0. -1.
         -2   -1    0    0    0  501 -0.00000000000E+00 -0.00000000000E+00 -0.60959126319E+03  0.60959126319E+03  0.00000000000E+00 0. -1.
         36    2    1    2    0    0  0.00000000000E+00  0.46185277824E-13 -0.19901419830E+03  0.10201683281E+04  0.10005682218E+04 0.  0.
         25    2    3    3    0    0  0.11582757271E+03  0.61990728504E+01  0.44458201964E+02  0.17601134135E+03  0.12469565132E+03 0.  0.
         35    2    3    3    0    0 -0.11582757271E+03 -0.61990728504E+01 -0.24347240026E+03  0.84415698674E+03  0.79991734165E+03 0.  0.
         22    1    5    5    0    0  0.88410121582E+02  0.30825461457E+03 -0.32914369389E+03  0.45953544828E+03  0.00000000000E+00 0. -1.
         22    1    5    5    0    0 -0.20423769429E+03 -0.31445368742E+03  0.85671293629E+02  0.38462153846E+03  0.00000000000E+00 0. -1.
          5    1    4    4  502    0  0.87885959875E+02 -0.30386402855E+02 -0.21385037448E+02  0.95533686458E+02  0.47000000000E+01 0. -1.
         -5    1    4    4    0  502  0.27941612831E+02  0.36585475705E+02  0.65843239411E+02  0.80477654889E+02  0.47000000000E+01 0. -1.
<mgrwt>
<rscale>  0 0.10005682E+04</rscale>
<asrwt>0</asrwt>
<pdfrwt beam="1">  1        2 0.63165703E-01 0.10005682E+04</pdfrwt>
<pdfrwt beam="2">  1       -2 0.93783270E-01 0.10005682E+04</pdfrwt>
<totfact> 0.88441545E+01</totfact>
</mgrwt>
</event>
<event>
 9    1  0.4497870E-036  0.1000210E+04  0.7818608E-02  0.8680838E-01
         -2   -1    0    0    0  501 -0.00000000000E+00  0.00000000000E+00  0.67777899924E+02  0.67777899924E+02  0.00000000000E+00 0.  1.
          2   -1    0    0  501    0  0.00000000000E+00 -0.00000000000E+00 -0.36900686648E+04  0.36900686648E+04  0.00000000000E+00 0.  1.
         36    2    1    2    0    0 -0.14210854715E-13 -0.28421709430E-13 -0.36222907649E+04  0.37578465647E+04  0.10002101873E+04 0.  0.
         25    2    3    3    0    0  0.21623532764E+02  0.13148767695E+03 -0.51334429884E+03  0.54468614860E+03  0.12411303303E+03 0.  0.
         35    2    3    3    0    0 -0.21623532764E+02 -0.13148767695E+03 -0.31089464660E+04  0.32131604161E+04  0.80068417288E+03 0.  0.
         22    1    5    5    0    0  0.25130224383E+03 -0.36936305465E+03 -0.18513014020E+04  0.19044418513E+04  0.00000000000E+00 0. -1.
         22    1    5    5    0    0 -0.27292577660E+03  0.23787537770E+03 -0.12576450640E+04  0.13087185648E+04  0.00000000000E+00 0. -1.
          5    1    4    4  502    0  0.13001526402E+02  0.10902098012E+03 -0.18320080298E+03  0.21363341969E+03  0.47000000000E+01 0. -1.
         -5    1    4    4    0  502  0.86220063621E+01  0.22466696824E+02 -0.33014349586E+03  0.33105272891E+03  0.47000000000E+01 0. -1.
<mgrwt>
<rscale>  0 0.10002102E+04</rscale>
<asrwt>0</asrwt>
<pdfrwt beam="1">  1        2 0.56770293E+00 0.10002102E+04</pdfrwt>
<pdfrwt beam="2">  1       -2 0.10427368E-01 0.10002102E+04</pdfrwt>
<totfact> 0.38385841E+01</totfact>
</mgrwt>
</event>
<event>
 9    1  0.4497870E-036  0.1000029E+04  0.7818608E-02  0.8681011E-01
          2   -1    0    0  501    0  0.00000000000E+00  0.00000000000E+00  0.20673687260E+04  0.20673687260E+04  0.00000000000E+00 0. -1.
         -2   -1    0    0    0  501 -0.00000000000E+00 -0.00000000000E+00 -0.12093356350E+03  0.12093356350E+03  0.00000000000E+00 0. -1.
         36    2    1    2    0    0  0.00000000000E+00 -0.14210854715E-13  0.19464351625E+04  0.21883022895E+04  0.10000285338E+04 0.  0.
         25    2    3    3    0    0  0.15709918760E+02 -0.48078587301E+02  0.62742657562E+03  0.64204699937E+03  0.12649857509E+03 0.  0.
         35    2    3    3    0    0 -0.15709918760E+02  0.48078587301E+02  0.13190085869E+04  0.15462552901E+04  0.80533435162E+03 0.  0.
         22    1    5    5    0    0 -0.12138094285E+03 -0.32086152354E+03  0.29414241450E+03  0.45189070646E+03  0.00000000000E+00 0.  1.
         22    1    5    5    0    0  0.10567102409E+03  0.36894011084E+03  0.10248661724E+04  0.10943645837E+04  0.00000000000E+00 0.  1.
          5    1    4    4  502    0  0.64006508653E+02 -0.33603813547E+02  0.49492873848E+03  0.50020255458E+03  0.47000000000E+01 0. -1.
         -5    1    4    4    0  502 -0.48296589893E+02 -0.14474773754E+02  0.13249783714E+03  0.14184444479E+03  0.47000000000E+01 0. -1.
<mgrwt>
<rscale>  0 0.10000285E+04</rscale>
<asrwt>0</asrwt>
<pdfrwt beam="1">  1        2 0.31805670E+00 0.10000285E+04</pdfrwt>
<pdfrwt beam="2">  1       -2 0.18605165E-01 0.10000285E+04</pdfrwt>
<totfact> 0.17376799E+02</totfact>
</mgrwt>
</event>
<event>
 9    1  0.4497870E-036  0.1000383E+04  0.7818608E-02  0.8680673E-01
          1   -1    0    0  501    0  0.00000000000E+00  0.00000000000E+00  0.20257579237E+04  0.20257579237E+04  0.00000000000E+00 0.  1.
         -1   -1    0    0    0  501 -0.00000000000E+00 -0.00000000000E+00 -0.12350520295E+03  0.12350520295E+03  0.00000000000E+00 0.  1.
         36    2    1    2    0    0  0.00000000000E+00  0.00000000000E+00  0.19022527207E+04  0.21492631266E+04  0.10003832136E+04 0.  0.
         25    2    3    3    0    0 -0.69732923490E+02  0.10350222261E+03  0.21791052983E+03  0.28034483952E+03  0.12463081210E+03 0.  0.
         35    2    3    3    0    0  0.69732923490E+02 -0.10350222261E+03  0.16843421909E+04  0.18689182871E+04  0.80016970523E+03 0.  0.
         22    1    5    5    0    0 -0.10216371161E+03  0.17288906552E+03  0.56162787859E+02  0.20852412735E+03  0.00000000000E+00 0. -1.
         22    1    5    5    0    0  0.17189663510E+03 -0.27639128814E+03  0.16281794030E+04  0.16603941597E+04  0.00000000000E+00 0. -1.
          5    1    4    4  502    0 -0.54571084617E+02  0.51072425732E+01  0.14992399705E+03  0.15969778362E+03  0.47000000000E+01 0. -1.
         -5    1    4    4    0  502 -0.15161838873E+02  0.98394980042E+02  0.67986532787E+02  0.12064705589E+03  0.47000000000E+01 0. -1.
<mgrwt>
<rscale>  0 0.10003832E+04</rscale>
<asrwt>0</asrwt>
<pdfrwt beam="1">  1        1 0.31165504E+00 0.10003832E+04</pdfrwt>
<pdfrwt beam="2">  1       -1 0.19000802E-01 0.10003832E+04</pdfrwt>
<totfact> 0.66488532E+01</totfact>
</mgrwt>
</event>
<event>
 9    1  0.4497870E-036  0.1001135E+04  0.7818608E-02  0.8679958E-01
         -2   -1    0    0    0  501 -0.00000000000E+00  0.00000000000E+00  0.24576021961E+03  0.24576021961E+03  0.00000000000E+00 0. -1.
          2   -1    0    0  501    0  0.00000000000E+00 -0.00000000000E+00 -0.10195615306E+04  0.10195615306E+04  0.00000000000E+00 0. -1.
         36    2    1    2    0    0  0.00000000000E+00  0.00000000000E+00 -0.77380131103E+03  0.12653217502E+04  0.10011346876E+04 0.  0.
         25    2    3    3    0    0 -0.96779830005E+02 -0.90260369459E+02 -0.74753880537E+02  0.19630959294E+03  0.12424187633E+03 0.  0.
         35    2    3    3    0    0  0.96779830005E+02  0.90260369459E+02 -0.69904743049E+03  0.10690121573E+04  0.79787618877E+03 0.  0.
         22    1    5    5    0    0  0.29980432260E+02  0.15527404902E+03 -0.86464174164E+03  0.87898475414E+03  0.00000000000E+00 0.  1.
         22    1    5    5    0    0  0.66799397745E+02 -0.65013679563E+02  0.16559431115E+03  0.19002740317E+03  0.00000000000E+00 0.  1.
          5    1    4    4  502    0 -0.16836414882E+02 -0.79414968279E+02  0.66715485636E+01  0.81589224858E+02  0.47000000000E+01 0. -1.
         -5    1    4    4    0  502 -0.79943415123E+02 -0.10845401181E+02 -0.81425429100E+02  0.11472036808E+03  0.47000000000E+01 0. -1.
<mgrwt>
<rscale>  0 0.10011347E+04</rscale>
<asrwt>0</asrwt>
<pdfrwt beam="1">  1        2 0.15685562E+00 0.10011347E+04</pdfrwt>
<pdfrwt beam="2">  1       -2 0.37809264E-01 0.10011347E+04</pdfrwt>
<totfact> 0.19522186E+02</totfact>
</mgrwt>
</event>
<event>
 9    1  0.4497870E-036  0.1000378E+04  0.7818608E-02  0.8680678E-01
          2   -1    0    0  501    0  0.00000000000E+00  0.00000000000E+00  0.17272614695E+04  0.17272614695E+04  0.00000000000E+00 0.  1.
         -2   -1    0    0    0  501 -0.00000000000E+00 -0.00000000000E+00 -0.14484727108E+03  0.14484727108E+03  0.00000000000E+00 0.  1.
         36    2    1    2    0    0  0.71054273576E-14 -0.28421709430E-13  0.15824141984E+04  0.18721087406E+04  0.10003781491E+04 0.  0.
         25    2    3    3    0    0  0.33102501338E+02 -0.13573098820E+03  0.30335950886E+03  0.35645104488E+03  0.12454589127E+03 0.  0.
         35    2    3    3    0    0 -0.33102501338E+02  0.13573098820E+03  0.12790546895E+04  0.15156576957E+04  0.80107345161E+03 0.  0.
         22    1    5    5    0    0 -0.75258849572E+02  0.47007275288E+03  0.76154692402E+03  0.89810133332E+03  0.00000000000E+00 0. -1.
         22    1    5    5    0    0  0.42156348233E+02 -0.33434176468E+03  0.51750776551E+03  0.61755636234E+03  0.00000000000E+00 0. -1.
          5    1    4    4  502    0  0.73658402870E+02 -0.87730591060E+02  0.13751496456E+03  0.17903818699E+03  0.47000000000E+01 0.  1.
         -5    1    4    4    0  502 -0.40555901531E+02 -0.48000397139E+02  0.16584454430E+03  0.17741285790E+03  0.47000000000E+01 0.  1.
<mgrwt>
<rscale>  0 0.10003781E+04</rscale>
<asrwt>0</asrwt>
<pdfrwt beam="1">  1        2 0.26573252E+00 0.10003781E+04</pdfrwt>
<pdfrwt beam="2">  1       -2 0.22284197E-01 0.10003781E+04</pdfrwt>
<totfact> 0.19812626E+02</totfact>
</mgrwt>
</event>
<event>
 9    1  0.4497870E-036  0.9988507E+03  0.7818608E-02  0.8682133E-01
         -1   -1    0    0    0  501 -0.00000000000E+00  0.00000000000E+00  0.10693720883E+03  0.10693720883E+03  0.00000000000E+00 0.  1.
          1   -1    0    0  501    0  0.00000000000E+00 -0.00000000000E+00 -0.23324498231E+04  0.23324498231E+04  0.00000000000E+00 0.  1.
         36    2    1    2    0    0  0.00000000000E+00  0.14210854715E-13 -0.22255126143E+04  0.24393870320E+04  0.99885068720E+03 0.  0.
         25    2    3    3    0    0 -0.92063583536E+02 -0.35629449383E+02 -0.17827976829E+03  0.23922339050E+03  0.12529562525E+03 0.  0.
         35    2    3    3    0    0  0.92063583536E+02  0.35629449383E+02 -0.20472328460E+04  0.22001636414E+04  0.79988284288E+03 0.  0.
         22    1    5    5    0    0 -0.27608267623E+03  0.19128491321E+03 -0.50146399156E+03  0.60355422041E+03  0.00000000000E+00 0.  1.
         22    1    5    5    0    0  0.36814625977E+03 -0.15565546383E+03 -0.15457688544E+04  0.15966094210E+04  0.00000000000E+00 0.  1.
          5    1    4    4  502    0 -0.61564464495E+02 -0.77110986772E+02 -0.15186142035E+03  0.18116365132E+03  0.47000000000E+01 0.  1.
         -5    1    4    4    0  502 -0.30499119041E+02  0.41481537389E+02 -0.26418347935E+02  0.58059739183E+02  0.47000000000E+01 0.  1.
<mgrwt>
<rscale>  0 0.99885069E+03</rscale>
<asrwt>0</asrwt>
<pdfrwt beam="1">  1        1 0.35883842E+00 0.99885069E+03</pdfrwt>
<pdfrwt beam="2">  1       -1 0.16451879E-01 0.99885069E+03</pdfrwt>
<totfact> 0.51265222E+01</totfact>
</mgrwt>
</event>
<event>
 9    1  0.4497870E-036  0.1002297E+04  0.7818608E-02  0.8678853E-01
          1   -1    0    0  501    0  0.00000000000E+00  0.00000000000E+00  0.10321994203E+04  0.10321994203E+04  0.00000000000E+00 0.  1.
         -1   -1    0    0    0  501 -0.00000000000E+00 -0.00000000000E+00 -0.24331534036E+03  0.24331534036E+03  0.00000000000E+00 0.  1.
         36    2    1    2    0    0  0.17763568394E-13  0.00000000000E+00  0.78888407997E+03  0.12755147607E+04  0.10022972678E+04 0.  0.
         25    2    3    3    0    0 -0.17741425025E+02  0.14132774877E+03  0.15619356130E+03  0.24554374179E+03  0.12492801849E+03 0.  0.
         35    2    3    3    0    0  0.17741425025E+02 -0.14132774877E+03  0.63269051867E+03  0.10299710189E+04  0.80015918206E+03 0.  0.
         22    1    5    5    0    0  0.36296168548E+03 -0.24869835249E+03  0.43132122755E+03  0.61614126383E+03  0.00000000000E+00 0. -1.
         22    1    5    5    0    0 -0.34522026046E+03  0.10737060372E+03  0.20136929112E+03  0.41382975507E+03  0.00000000000E+00 0. -1.
          5    1    4    4  502    0 -0.43679326949E+02  0.15404195106E+03  0.13113275971E+03  0.20701376032E+03  0.47000000000E+01 0.  1.
         -5    1    4    4    0  502  0.25937901924E+02 -0.12714202290E+02  0.25060801587E+02  0.38529981473E+02  0.47000000000E+01 0.  1.
<mgrwt>
<rscale>  0 0.10022973E+04</rscale>
<asrwt>0</asrwt>
<pdfrwt beam="1">  1        1 0.15879991E+00 0.10022973E+04</pdfrwt>
<pdfrwt beam="2">  1       -1 0.37433130E-01 0.10022973E+04</pdfrwt>
<totfact> 0.10962292E+02</totfact>
</mgrwt>
</event>
<event>
 9    1  0.4497870E-036  0.1000498E+04  0.7818608E-02  0.8680564E-01
         -1   -1    0    0    0  501 -0.00000000000E+00  0.00000000000E+00  0.45564010279E+03  0.45564010279E+03  0.00000000000E+00 0.  1.
          1   -1    0    0  501    0  0.00000000000E+00 -0.00000000000E+00 -0.54922552434E+03  0.54922552434E+03  0.00000000000E+00 0.  1.
         36    2    1    2    0    0  0.71054273576E-14 -0.39079850467E-13 -0.93585421550E+02  0.10048656271E+04  0.10004982246E+04 0.  0.
         25    2    3    3    0    0 -0.33386088221E+02 -0.24618853630E+02 -0.15304574597E+03  0.20189065411E+03  0.12496446302E+03 0.  0.
         35    2    3    3    0    0  0.33386088221E+02  0.24618853630E+02  0.59460324417E+02  0.80297497303E+03  0.79969529090E+03 0.  0.
         22    1    5    5    0    0 -0.54650986722E+02 -0.31385505358E+03 -0.19223704611E+03  0.37208440831E+03  0.00000000000E+00 0.  1.
         22    1    5    5    0    0  0.88037074943E+02  0.33847390721E+03  0.25169737053E+03  0.43089056472E+03  0.00000000000E+00 0.  1.
          5    1    4    4  502    0 -0.58755475741E+02  0.20644303803E+02 -0.13137258613E+03  0.14546215863E+03  0.47000000000E+01 0.  1.
         -5    1    4    4    0  502  0.25369387520E+02 -0.45263157433E+02 -0.21673159841E+02  0.56428495474E+02  0.47000000000E+01 0.  1.
<mgrwt>
<rscale>  0 0.10004982E+04</rscale>
<asrwt>0</asrwt>
<pdfrwt beam="1">  1        1 0.84496235E-01 0.10004982E+04</pdfrwt>
<pdfrwt beam="2">  1       -1 0.70098477E-01 0.10004982E+04</pdfrwt>
<totfact> 0.93737109E+01</totfact>
</mgrwt>
</event>
<event>
 9    1  0.4497870E-036  0.1000099E+04  0.7818608E-02  0.8680944E-01
          3   -1    0    0  501    0  0.00000000000E+00  0.00000000000E+00  0.22923389715E+04  0.22923389715E+04  0.00000000000E+00 0.  1.
         -3   -1    0    0    0  501 -0.00000000000E+00 -0.00000000000E+00 -0.10908041527E+03  0.10908041527E+03  0.00000000000E+00 0.  1.
         36    2    1    2    0    0  0.71054273576E-14  0.00000000000E+00  0.21832585562E+04  0.24014193868E+04  0.10000985691E+04 0.  0.
         25    2    3    3    0    0  0.47655066301E+02 -0.13547305043E+03  0.44059553164E+03  0.47836005046E+03  0.11865901834E+03 0.  0.
         35    2    3    3    0    0 -0.47655066301E+02  0.13547305043E+03  0.17426630246E+04  0.19230593363E+04  0.80041166970E+03 0.  0.
         22    1    5    5    0    0  0.18602565528E+03 -0.27006276455E+03  0.91824187206E+03  0.97504234617E+03  0.00000000000E+00 0.  1.
         22    1    5    5    0    0 -0.23368072158E+03  0.40553581498E+03  0.82442115251E+03  0.94801699013E+03  0.00000000000E+00 0.  1.
          5    1    4    4  502    0  0.65844827140E+02 -0.14592637781E+03  0.34482199048E+03  0.38020303013E+03  0.47000000000E+01 0. -1.
         -5    1    4    4    0  502 -0.18189760839E+02  0.10453327381E+02  0.95773541162E+02  0.98157020327E+02  0.47000000000E+01 0. -1.
<mgrwt>
<rscale>  0 0.10000986E+04</rscale>
<asrwt>0</asrwt>
<pdfrwt beam="1">  1        3 0.35266750E+00 0.10000986E+04</pdfrwt>
<pdfrwt beam="2">  1       -3 0.16781604E-01 0.10000986E+04</pdfrwt>
<totfact> 0.36289352E+00</totfact>
</mgrwt>
</event>
<event>
 9    1  0.4497870E-036  0.9989516E+03  0.7818608E-02  0.8682037E-01
          2   -1    0    0  501    0  0.00000000000E+00  0.00000000000E+00  0.33037013049E+03  0.33037013049E+03  0.00000000000E+00 0. -1.
         -2   -1    0    0    0  501 -0.00000000000E+00 -0.00000000000E+00 -0.75514120777E+03  0.75514120777E+03  0.00000000000E+00 0. -1.
         36    2    1    2    0    0  0.28421709430E-13  0.00000000000E+00 -0.42477107728E+03  0.10855113383E+04  0.99895164917E+03 0.  0.
         25    2    3    3    0    0  0.80635524544E+02 -0.61706237046E+02 -0.18531455601E+03  0.24528727303E+03  0.12455767393E+03 0.  0.
         35    2    3    3    0    0 -0.80635524544E+02  0.61706237046E+02 -0.23945652127E+03  0.84022406522E+03  0.79895388271E+03 0.  0.
         22    1    5    5    0    0 -0.36953949841E+03  0.92668735732E+02 -0.36138915056E+03  0.52511813300E+03  0.00000000000E+00 0. -1.
         22    1    5    5    0    0  0.28890397386E+03 -0.30962498686E+02  0.12193262928E+03  0.31510593222E+03  0.00000000000E+00 0. -1.
          5    1    4    4  502    0  0.72550717127E+02  0.64009996326E+01 -0.15259755501E+03  0.16915283960E+03  0.47000000000E+01 0. -1.
         -5    1    4    4    0  502  0.80848074167E+01 -0.68107236679E+02 -0.32717001003E+02  0.76134433429E+02  0.47000000000E+01 0. -1.
<mgrwt>
<rscale>  0 0.99895165E+03</rscale>
<asrwt>0</asrwt>
<pdfrwt beam="1">  1        2 0.50826174E-01 0.99895165E+03</pdfrwt>
<pdfrwt beam="2">  1       -2 0.11617557E+00 0.99895165E+03</pdfrwt>
<totfact> 0.66396863E+01</totfact>
</mgrwt>
</event>
<event>
 9    1  0.4497870E-036  0.9995637E+03  0.7818608E-02  0.8681454E-01
          1   -1    0    0  501    0  0.00000000000E+00  0.00000000000E+00  0.84850424649E+03  0.84850424649E+03  0.00000000000E+00 0.  1.
         -1   -1    0    0    0  501 -0.00000000000E+00 -0.00000000000E+00 -0.29437909926E+03  0.29437909926E+03  0.00000000000E+00 0.  1.
         36    2    1    2    0    0 -0.28421709430E-13  0.00000000000E+00  0.55412514723E+03  0.11428833458E+04  0.99956373644E+03 0.  0.
         25    2    3    3    0    0 -0.98155099063E+02  0.22369683004E+02 -0.87874885290E+01  0.16062766586E+03  0.12485672147E+03 0.  0.
         35    2    3    3    0    0  0.98155099063E+02 -0.22369683004E+02  0.56291263576E+03  0.98225567989E+03  0.79863681295E+03 0.  0.
         22    1    5    5    0    0  0.43984709425E+03 -0.22829657845E+02  0.19975495681E+03  0.48362041145E+03  0.00000000000E+00 0. -1.
         22    1    5    5    0    0 -0.34169199519E+03  0.45997484082E+00  0.36315767895E+03  0.49863526844E+03  0.00000000000E+00 0. -1.
          5    1    4    4  502    0  0.20326293589E+02  0.26758047074E+02 -0.23194902446E+02  0.41100423280E+02  0.47000000000E+01 0. -1.
         -5    1    4    4    0  502 -0.11848139265E+03 -0.43883640694E+01  0.14407413917E+02  0.11952724258E+03  0.47000000000E+01 0. -1.
<mgrwt>
<rscale>  0 0.99956374E+03</rscale>
<asrwt>0</asrwt>
<pdfrwt beam="1">  1        1 0.13053911E+00 0.99956374E+03</pdfrwt>
<pdfrwt beam="2">  1       -1 0.45289093E-01 0.99956374E+03</pdfrwt>
<totfact> 0.11019227E+02</totfact>
</mgrwt>
</event>
<event>
 9    1  0.4497870E-036  0.9997001E+03  0.7818608E-02  0.8681324E-01
          2   -1    0    0  501    0  0.00000000000E+00  0.00000000000E+00  0.11306108688E+04  0.11306108688E+04  0.00000000000E+00 0.  1.
         -2   -1    0    0    0  501 -0.00000000000E+00 -0.00000000000E+00 -0.22098677666E+03  0.22098677666E+03  0.00000000000E+00 0.  1.
         36    2    1    2    0    0  0.00000000000E+00  0.14210854715E-13  0.90962409212E+03  0.13515976454E+04  0.99970005811E+03 0.  0.
         25    2    3    3    0    0  0.20165164979E+02  0.10547255783E+03  0.50122193862E+02  0.17270505084E+03  0.12563321987E+03 0.  0.
         35    2    3    3    0    0 -0.20165164979E+02 -0.10547255783E+03  0.85950189826E+03  0.11788925946E+04  0.79969565596E+03 0.  0.
         22    1    5    5    0    0 -0.53776728341E+02 -0.24366452924E+03 -0.53233474818E+02  0.25514337570E+03  0.00000000000E+00 0.  1.
         22    1    5    5    0    0  0.33611563361E+02  0.13819197141E+03  0.91273537307E+03  0.92374921890E+03  0.00000000000E+00 0.  1.
          5    1    4    4  502    0  0.63241863189E+02  0.96980473345E+02  0.16154294155E+02  0.11699485753E+03  0.47000000000E+01 0.  1.
         -5    1    4    4    0  502 -0.43076698210E+02  0.84920844841E+01  0.33967899708E+02  0.55710193305E+02  0.47000000000E+01 0.  1.
<mgrwt>
<rscale>  0 0.99970006E+03</rscale>
<asrwt>0</asrwt>
<pdfrwt beam="1">  1        2 0.17394013E+00 0.99970006E+03</pdfrwt>
<pdfrwt beam="2">  1       -2 0.33997966E-01 0.99970006E+03</pdfrwt>
<totfact> 0.20375495E+02</totfact>
</mgrwt>
</event>
<event>
 9    1  0.4497870E-036  0.1000508E+04  0.7818608E-02  0.8680555E-01
         -1   -1    0    0    0  501 -0.00000000000E+00  0.00000000000E+00  0.21328513645E+03  0.21328513645E+03  0.00000000000E+00 0.  1.
          1   -1    0    0  501    0  0.00000000000E+00 -0.00000000000E+00 -0.11733304873E+04  0.11733304873E+04  0.00000000000E+00 0.  1.
         36    2    1    2    0    0 -0.14210854715E-13 -0.71054273576E-14 -0.96004535081E+03  0.13866156237E+04  0.10005077772E+04 0.  0.
         25    2    3    3    0    0 -0.11985794084E+03  0.47943371215E+02 -0.99381507473E+02  0.20455559015E+03  0.12370049559E+03 0.  0.
         35    2    3    3    0    0  0.11985794084E+03 -0.47943371215E+02 -0.86066384333E+03  0.11820600336E+04  0.79991198196E+03 0.  0.
         22    1    5    5    0    0 -0.11360085619E+03 -0.31461284863E+03 -0.73235354839E+03  0.80512615091E+03  0.00000000000E+00 0.  1.
         22    1    5    5    0    0  0.23345879702E+03  0.26666947741E+03 -0.12831029495E+03  0.37693388264E+03  0.00000000000E+00 0.  1.
          5    1    4    4  502    0 -0.75126207577E+02 -0.35920089109E+02 -0.41327296491E+02  0.93081874184E+02  0.47000000000E+01 0.  1.
         -5    1    4    4    0  502 -0.44731733260E+02  0.83863460324E+02 -0.58054210983E+02  0.11147371596E+03  0.47000000000E+01 0.  1.
<mgrwt>
<rscale>  0 0.10005078E+04</rscale>
<asrwt>0</asrwt>
<pdfrwt beam="1">  1        1 0.18051238E+00 0.10005078E+04</pdfrwt>
<pdfrwt beam="2">  1       -1 0.32813098E-01 0.10005078E+04</pdfrwt>
<totfact> 0.10753078E+02</totfact>
</mgrwt>
</event>
<event>
 9    1  0.4497870E-036  0.1002097E+04  0.7818608E-02  0.8679043E-01
         -2   -1    0    0    0  501 -0.00000000000E+00  0.00000000000E+00  0.17433788253E+03  0.17433788253E+03  0.00000000000E+00 0. -1.
          2   -1    0    0  501    0  0.00000000000E+00 -0.00000000000E+00 -0.14400176725E+04  0.14400176725E+04  0.00000000000E+00 0. -1.
         36    2    1    2    0    0  0.00000000000E+00  0.71054273576E-14 -0.12656797900E+04  0.16143555550E+04  0.10020970648E+04 0.  0.
         25    2    3    3    0    0  0.12751028641E+03 -0.41786061063E+02 -0.15859955042E+03  0.24235349336E+03  0.12480565015E+03 0.  0.
         35    2    3    3    0    0 -0.12751028641E+03  0.41786061063E+02 -0.11070802395E+04  0.13720020617E+04  0.79922340581E+03 0.  0.
         22    1    5    5    0    0 -0.26127195318E+03  0.20508267730E+03 -0.11123172552E+04  0.11608495227E+04  0.00000000000E+00 0.  1.
         22    1    5    5    0    0  0.13376166677E+03 -0.16329661624E+03  0.52370157079E+01  0.21115253896E+03  0.00000000000E+00 0.  1.
          5    1    4    4  502    0  0.74968343336E+02  0.40029932353E+02 -0.62826037258E+02  0.10579153531E+03  0.47000000000E+01 0. -1.
         -5    1    4    4    0  502  0.52541943070E+02 -0.81815993416E+02 -0.95773513163E+02  0.13656195804E+03  0.47000000000E+01 0. -1.
<mgrwt>
<rscale>  0 0.10020971E+04</rscale>
<asrwt>0</asrwt>
<pdfrwt beam="1">  1        2 0.22154117E+00 0.10020971E+04</pdfrwt>
<pdfrwt beam="2">  1       -2 0.26821214E-01 0.10020971E+04</pdfrwt>
<totfact> 0.20736130E+02</totfact>
</mgrwt>
</event>
<event>
 9    1  0.4497870E-036  0.1000130E+04  0.7818608E-02  0.8680915E-01
         -1   -1    0    0    0  501 -0.00000000000E+00  0.00000000000E+00  0.21702088171E+03  0.21702088171E+03  0.00000000000E+00 0.  1.
          1   -1    0    0  501    0  0.00000000000E+00 -0.00000000000E+00 -0.11522614337E+04  0.11522614337E+04  0.00000000000E+00 0.  1.
         36    2    1    2    0    0  0.35527136788E-13  0.00000000000E+00 -0.93524055196E+03  0.13692823154E+04  0.10001295762E+04 0.  0.
         25    2    3    3    0    0  0.46356352594E+02  0.13174692574E+03 -0.15250276827E+03  0.24175251941E+03  0.12522388926E+03 0.  0.
         35    2    3    3    0    0 -0.46356352594E+02 -0.13174692574E+03 -0.78273778370E+03  0.11275297960E+04  0.79946159315E+03 0.  0.
         22    1    5    5    0    0 -0.29123893615E+03 -0.52195862574E+01 -0.79997155189E+03  0.85135295022E+03  0.00000000000E+00 0.  1.
         22    1    5    5    0    0  0.24488258356E+03 -0.12652733948E+03  0.17233768195E+02  0.27617684576E+03  0.00000000000E+00 0.  1.
          5    1    4    4  502    0  0.30085830697E+02  0.59243160676E+02 -0.15345767287E+03  0.16729093418E+03  0.47000000000E+01 0.  1.
         -5    1    4    4    0  502  0.16270521897E+02  0.72503765066E+02  0.95490460321E+00  0.74461585226E+02  0.47000000000E+01 0.  1.
<mgrwt>
<rscale>  0 0.10001296E+04</rscale>
<asrwt>0</asrwt>
<pdfrwt beam="1">  1        1 0.17727098E+00 0.10001296E+04</pdfrwt>
<pdfrwt beam="2">  1       -1 0.33387829E-01 0.10001296E+04</pdfrwt>
<totfact> 0.10823702E+02</totfact>
</mgrwt>
</event>
<event>
 9    1  0.4497870E-036  0.9994909E+03  0.7818608E-02  0.8681523E-01
          1   -1    0    0  501    0  0.00000000000E+00  0.00000000000E+00  0.21562941211E+04  0.21562941211E+04  0.00000000000E+00 0.  1.
         -1   -1    0    0    0  501 -0.00000000000E+00 -0.00000000000E+00 -0.11582163442E+03  0.11582163442E+03  0.00000000000E+00 0.  1.
         36    2    1    2    0    0 -0.14210854715E-13 -0.35527136788E-14  0.20404724867E+04  0.22721157555E+04  0.99949088921E+03 0.  0.
         25    2    3    3    0    0 -0.94230154854E+02 -0.20392073697E+02  0.60968353547E+03  0.62988619241E+03  0.12548881704E+03 0.  0.
         35    2    3    3    0    0  0.94230154854E+02  0.20392073697E+02  0.14307889512E+04  0.16422295631E+04  0.80029104477E+03 0.  0.
         22    1    5    5    0    0 -0.32849143295E+03 -0.12075254305E+03  0.76232227338E+03  0.83882241664E+03  0.00000000000E+00 0. -1.
         22    1    5    5    0    0  0.42272158781E+03  0.14114461675E+03  0.66846667780E+03  0.80340714645E+03  0.00000000000E+00 0. -1.
          5    1    4    4  502    0 -0.40366979178E+02 -0.39160097129E+02  0.84625354559E+02  0.10171797702E+03  0.47000000000E+01 0.  1.
         -5    1    4    4    0  502 -0.53863175676E+02  0.18768023432E+02  0.52505818091E+03  0.52816821538E+03  0.47000000000E+01 0.  1.
<mgrwt>
<rscale>  0 0.99949089E+03</rscale>
<asrwt>0</asrwt>
<pdfrwt beam="1">  1        1 0.33173753E+00 0.99949089E+03</pdfrwt>
<pdfrwt beam="2">  1       -1 0.17818715E-01 0.99949089E+03</pdfrwt>
<totfact> 0.59841364E+01</totfact>
</mgrwt>
</event>
<event>
 9    1  0.4497870E-036  0.1001132E+04  0.7818608E-02  0.8679960E-01
         -2   -1    0    0    0  501 -0.00000000000E+00  0.00000000000E+00  0.17029601223E+03  0.17029601223E+03  0.00000000000E+00 0.  1.
          2   -1    0    0  501    0  0.00000000000E+00 -0.00000000000E+00 -0.14713583650E+04  0.14713583650E+04  0.00000000000E+00 0.  1.
         36    2    1    2    0    0 -0.14210854715E-13  0.14210854715E-13 -0.13010623527E+04  0.16416543772E+04  0.10011322832E+04 0.  0.
         25    2    3    3    0    0  0.11021661445E+03 -0.85305660303E+02 -0.22420294639E+03  0.29304675329E+03  0.12721902635E+03 0.  0.
         35    2    3    3    0    0 -0.11021661445E+03  0.85305660303E+02 -0.10768594064E+04  0.13486076239E+04  0.79980721706E+03 0.  0.
         22    1    5    5    0    0 -0.32920479724E+03 -0.12710170675E+03 -0.95845969679E+03  0.10213596980E+04  0.00000000000E+00 0. -1.
         22    1    5    5    0    0  0.21898818279E+03  0.21240736706E+03 -0.11839970958E+03  0.32724792591E+03  0.00000000000E+00 0. -1.
          5    1    4    4  502    0  0.18178414503E+02  0.24859615570E+02 -0.58628893984E+01  0.31700452871E+02  0.47000000000E+01 0. -1.
         -5    1    4    4    0  502  0.92038199943E+02 -0.11016527587E+03 -0.21834005699E+03  0.26134630042E+03  0.47000000000E+01 0. -1.
<mgrwt>
<rscale>  0 0.10011323E+04</rscale>
<asrwt>0</asrwt>
<pdfrwt beam="1">  1        2 0.22636282E+00 0.10011323E+04</pdfrwt>
<pdfrwt beam="2">  1       -2 0.26199387E-01 0.10011323E+04</pdfrwt>
<totfact> 0.20755996E+02</totfact>
</mgrwt>
</event>
<event>
 9    1  0.4497870E-036  0.1000198E+04  0.7818608E-02  0.8680849E-01
         -2   -1    0    0    0  501 -0.00000000000E+00  0.00000000000E+00  0.10304936600E+03  0.10304936600E+03  0.00000000000E+00 0. -1.
          2   -1    0    0  501    0  0.00000000000E+00 -0.00000000000E+00 -0.24269848645E+04  0.24269848645E+04  0.00000000000E+00 0. -1.
         36    2    1    2    0    0  0.14210854715E-13  0.71054273576E-14 -0.23239354985E+04  0.25300342305E+04  0.10001984835E+04 0.  0.
         25    2    3    3    0    0  0.87749406458E+02 -0.38144903814E+02 -0.17093912651E+03  0.23100402762E+03  0.12242419608E+03 0.  0.
         35    2    3    3    0    0 -0.87749406458E+02  0.38144903814E+02 -0.21529963720E+04  0.22990302028E+04  0.80061945013E+03 0.  0.
         22    1    5    5    0    0  0.26530303508E+03  0.26844526298E+03 -0.86335435609E+03  0.94224694418E+03  0.00000000000E+00 0.  1.
         22    1    5    5    0    0 -0.35305244154E+03 -0.23030035917E+03 -0.12896420159E+04  0.13567832587E+04  0.00000000000E+00 0.  1.
          5    1    4    4  502    0  0.23134492916E+02  0.44103543073E+02 -0.65441401537E+02  0.82371076898E+02  0.47000000000E+01 0. -1.
         -5    1    4    4    0  502  0.64614913542E+02 -0.82248446887E+02 -0.10549772497E+03  0.14863295072E+03  0.47000000000E+01 0. -1.
<mgrwt>
<rscale>  0 0.10001985E+04</rscale>
<asrwt>0</asrwt>
<pdfrwt beam="1">  1        2 0.37338225E+00 0.10001985E+04</pdfrwt>
<pdfrwt beam="2">  1       -2 0.15853750E-01 0.10001985E+04</pdfrwt>
<totfact> 0.14045558E+02</totfact>
</mgrwt>
</event>
<event>
 9    1  0.4497870E-036  0.1001067E+04  0.7818608E-02  0.8680023E-01
         -2   -1    0    0    0  501 -0.00000000000E+00  0.00000000000E+00  0.10691776898E+03  0.10691776898E+03  0.00000000000E+00 0. -1.
          2   -1    0    0  501    0  0.00000000000E+00 -0.00000000000E+00 -0.23432378053E+04  0.23432378053E+04  0.00000000000E+00 0. -1.
         36    2    1    2    0    0 -0.21316282073E-13  0.00000000000E+00 -0.22363200363E+04  0.24501555743E+04  0.10010669475E+04 0.  0.
         25    2    3    3    0    0  0.20062937446E+02 -0.12972862745E+03 -0.28696598282E+03  0.33938874596E+03  0.12491279898E+03 0.  0.
         35    2    3    3    0    0 -0.20062937446E+02  0.12972862745E+03 -0.19493540535E+04  0.21107668283E+04  0.79882622605E+03 0.  0.
         22    1    5    5    0    0 -0.25001361765E+03 -0.21933552851E+03 -0.48616729822E+03  0.58904458655E+03  0.00000000000E+00 0.  1.
         22    1    5    5    0    0  0.22995068021E+03  0.34906415597E+03 -0.14631867553E+04  0.15217222418E+04  0.00000000000E+00 0.  1.
          5    1    4    4  502    0  0.68240201472E+02 -0.40155500179E+02 -0.12094664731E+03  0.14463530270E+03  0.47000000000E+01 0.  1.
         -5    1    4    4    0  502 -0.48177264026E+02 -0.89573127276E+02 -0.16601933552E+03  0.19475344327E+03  0.47000000000E+01 0.  1.
<mgrwt>
<rscale>  0 0.10010669E+04</rscale>
<asrwt>0</asrwt>
<pdfrwt beam="1">  1        2 0.36049808E+00 0.10010669E+04</pdfrwt>
<pdfrwt beam="2">  1       -2 0.16448889E-01 0.10010669E+04</pdfrwt>
<totfact> 0.14808539E+02</totfact>
</mgrwt>
</event>
<event>
 9    1  0.4497870E-036  0.9986444E+03  0.7818608E-02  0.8682330E-01
         -2   -1    0    0    0  501 -0.00000000000E+00  0.00000000000E+00  0.75178904737E+03  0.75178904737E+03  0.00000000000E+00 0.  1.
          2   -1    0    0  501    0  0.00000000000E+00 -0.00000000000E+00 -0.33163912028E+03  0.33163912028E+03  0.00000000000E+00 0.  1.
         36    2    1    2    0    0  0.00000000000E+00 -0.28421709430E-13  0.42014992709E+03  0.10834281676E+04  0.99864439778E+03 0.  0.
         25    2    3    3    0    0 -0.88466290275E+02  0.10958485470E+03  0.91294987928E+02  0.20752068086E+03  0.12204480026E+03 0.  0.
         35    2    3    3    0    0  0.88466290275E+02 -0.10958485470E+03  0.32885493916E+03  0.87590748678E+03  0.79952062481E+03 0.  0.
         22    1    5    5    0    0 -0.14060670728E+03  0.22427895696E+03 -0.10289608269E+03  0.28400510647E+03  0.00000000000E+00 0.  1.
         22    1    5    5    0    0  0.22907299756E+03 -0.33386381167E+03  0.43175102184E+03  0.59190238031E+03  0.00000000000E+00 0.  1.
          5    1    4    4  502    0 -0.96400527720E+02  0.52101957924E+02  0.13727612920E+02  0.11053602635E+03  0.47000000000E+01 0. -1.
         -5    1    4    4    0  502  0.79342374451E+01  0.57482896781E+02  0.77567375008E+02  0.96984654517E+02  0.47000000000E+01 0. -1.
<mgrwt>
<rscale>  0 0.99864440E+03</rscale>
<asrwt>0</asrwt>
<pdfrwt beam="1">  1        2 0.51021403E-01 0.99864440E+03</pdfrwt>
<pdfrwt beam="2">  1       -2 0.11565985E+00 0.99864440E+03</pdfrwt>
<totfact> 0.66876975E+01</totfact>
</mgrwt>
</event>
<event>
 9    1  0.4497870E-036  0.9999293E+03  0.7818608E-02  0.8681105E-01
         -1   -1    0    0    0  501 -0.00000000000E+00  0.00000000000E+00  0.10138815195E+03  0.10138815195E+03  0.00000000000E+00 0.  1.
          1   -1    0    0  501    0  0.00000000000E+00 -0.00000000000E+00 -0.24654225500E+04  0.24654225500E+04  0.00000000000E+00 0.  1.
         36    2    1    2    0    0 -0.28421709430E-13  0.14210854715E-13 -0.23640343981E+04  0.25668107020E+04  0.99992926975E+03 0.  0.
         25    2    3    3    0    0 -0.83358338250E+02 -0.11140823052E+03 -0.50706374165E+03  0.54005507035E+03  0.12322919514E+03 0.  0.
         35    2    3    3    0    0  0.83358338250E+02  0.11140823052E+03 -0.18569706564E+04  0.20267556316E+04  0.80002372785E+03 0.  0.
         22    1    5    5    0    0 -0.13464000809E+03 -0.10387340869E+03 -0.16460062986E+04  0.16547671594E+04  0.00000000000E+00 0.  1.
         22    1    5    5    0    0  0.21799834634E+03  0.21528163920E+03 -0.21096435781E+03  0.37198847220E+03  0.00000000000E+00 0.  1.
          5    1    4    4  502    0 -0.79766497119E+02 -0.11445470629E+03 -0.27972673449E+03  0.31262071243E+03  0.47000000000E+01 0.  1.
         -5    1    4    4    0  502 -0.35918411305E+01  0.30464757714E+01 -0.22733700716E+03  0.22743435792E+03  0.47000000000E+01 0.  1.
<mgrwt>
<rscale>  0 0.99992927E+03</rscale>
<asrwt>0</asrwt>
<pdfrwt beam="1">  1        1 0.37929580E+00 0.99992927E+03</pdfrwt>
<pdfrwt beam="2">  1       -1 0.15598176E-01 0.99992927E+03</pdfrwt>
<totfact> 0.45071541E+01</totfact>
</mgrwt>
</event>
<event>
 9    1  0.4497870E-036  0.1001386E+04  0.7818608E-02  0.8679719E-01
          1   -1    0    0  501    0  0.00000000000E+00  0.00000000000E+00  0.22748636008E+04  0.22748636008E+04  0.00000000000E+00 0.  1.
         -1   -1    0    0    0  501 -0.00000000000E+00 -0.00000000000E+00 -0.11020165174E+03  0.11020165174E+03  0.00000000000E+00 0.  1.
         36    2    1    2    0    0 -0.10658141036E-13 -0.14210854715E-13  0.21646619491E+04  0.23850652525E+04  0.10013864914E+04 0.  0.
         25    2    3    3    0    0 -0.26154392481E+02  0.11053274100E+03  0.61977683882E+03  0.64236111721E+03  0.12491171237E+03 0.  0.
         35    2    3    3    0    0  0.26154392481E+02 -0.11053274100E+03  0.15448851102E+04  0.17427041353E+04  0.79840225473E+03 0.  0.
         22    1    5    5    0    0 -0.22233017188E+03 -0.17706281643E+03  0.14441706825E+03  0.31880752170E+03  0.00000000000E+00 0. -1.
         22    1    5    5    0    0  0.24848456436E+03  0.66530075429E+02  0.14004680420E+04  0.14238966136E+04  0.00000000000E+00 0. -1.
          5    1    4    4  502    0 -0.14994159083E+02  0.98955092616E+01  0.39894753099E+03  0.39937947919E+03  0.47000000000E+01 0. -1.
         -5    1    4    4    0  502 -0.11160233398E+02  0.10063723174E+03  0.22082930783E+03  0.24298163802E+03  0.47000000000E+01 0. -1.
<mgrwt>
<rscale>  0 0.10013865E+04</rscale>
<asrwt>0</asrwt>
<pdfrwt beam="1">  1        1 0.34997898E+00 0.10013865E+04</pdfrwt>
<pdfrwt beam="2">  1       -1 0.16954102E-01 0.10013865E+04</pdfrwt>
<totfact> 0.53575095E+01</totfact>
</mgrwt>
</event>
<event>
 9    1  0.4497870E-036  0.9999237E+03  0.7818608E-02  0.8681111E-01
         -2   -1    0    0    0  501 -0.00000000000E+00  0.00000000000E+00  0.29308984911E+03  0.29308984911E+03  0.00000000000E+00 0. -1.
          2   -1    0    0  501    0  0.00000000000E+00 -0.00000000000E+00 -0.85285059161E+03  0.85285059161E+03  0.00000000000E+00 0. -1.
         36    2    1    2    0    0  0.44408920985E-13  0.00000000000E+00 -0.55976074250E+03  0.11459404407E+04  0.99992369950E+03 0.  0.
         25    2    3    3    0    0  0.12572433531E+02 -0.13354559617E+03 -0.15029253529E+03  0.23720796472E+03  0.12524887234E+03 0.  0.
         35    2    3    3    0    0 -0.12572433531E+02  0.13354559617E+03 -0.40946820721E+03  0.90873247599E+03  0.80008625027E+03 0.  0.
         22    1    5    5    0    0 -0.29682566898E+03 -0.56763703673E+02  0.79032643636E+02  0.31236797944E+03  0.00000000000E+00 0. -1.
         22    1    5    5    0    0  0.28425323545E+03  0.19030929985E+03 -0.48850085085E+03  0.59636449656E+03  0.00000000000E+00 0. -1.
          5    1    4    4  502    0  0.18214692534E+02 -0.10921930428E+03 -0.30777715716E+02  0.11502169028E+03  0.47000000000E+01 0.  1.
         -5    1    4    4    0  502 -0.56422590029E+01 -0.24326291896E+02 -0.11951481957E+03  0.12218627444E+03  0.47000000000E+01 0.  1.
<mgrwt>
<rscale>  0 0.99992370E+03</rscale>
<asrwt>0</asrwt>
<pdfrwt beam="1">  1        2 0.13120778E+00 0.99992370E+03</pdfrwt>
<pdfrwt beam="2">  1       -2 0.45090747E-01 0.99992370E+03</pdfrwt>
<totfact> 0.17832176E+02</totfact>
</mgrwt>
</event>
<event>
 9    1  0.4497870E-036  0.1000414E+04  0.7818608E-02  0.8680643E-01
          2   -1    0    0  501    0  0.00000000000E+00  0.00000000000E+00  0.11704738902E+04  0.11704738902E+04  0.00000000000E+00 0.  1.
         -2   -1    0    0    0  501 -0.00000000000E+00 -0.00000000000E+00 -0.21376576003E+03  0.21376576003E+03  0.00000000000E+00 0.  1.
         36    2    1    2    0    0  0.42632564146E-13 -0.14210854715E-13  0.95670813020E+03  0.13842396503E+04  0.10004143956E+04 0.  0.
         25    2    3    3    0    0 -0.11208688211E+03  0.77472428969E+02  0.13479710659E+03  0.22906079587E+03  0.12543182159E+03 0.  0.
         35    2    3    3    0    0  0.11208688211E+03 -0.77472428969E+02  0.82191102361E+03  0.11551788544E+04  0.80020935293E+03 0.  0.
         22    1    5    5    0    0  0.42276714794E+03 -0.12502609306E+03  0.67980853183E+03  0.81024886626E+03  0.00000000000E+00 0.  1.
         22    1    5    5    0    0 -0.31068026583E+03  0.47553664092E+02  0.14210249177E+03  0.34492998813E+03  0.00000000000E+00 0.  1.
          5    1    4    4  502    0 -0.79381364203E+02  0.12774555156E+02  0.54686867055E+01  0.80725378763E+02  0.47000000000E+01 0.  1.
         -5    1    4    4    0  502 -0.32705517907E+02  0.64697873813E+02  0.12932841989E+03  0.14833541711E+03  0.47000000000E+01 0.  1.
<mgrwt>
<rscale>  0 0.10004144E+04</rscale>
<asrwt>0</asrwt>
<pdfrwt beam="1">  1        2 0.18007290E+00 0.10004144E+04</pdfrwt>
<pdfrwt beam="2">  1       -2 0.32887041E-01 0.10004144E+04</pdfrwt>
<totfact> 0.20511185E+02</totfact>
</mgrwt>
</event>
<event>
 9    1  0.4497870E-036  0.9997666E+03  0.7818608E-02  0.8681260E-01
         -2   -1    0    0    0  501 -0.00000000000E+00  0.00000000000E+00  0.28260612153E+03  0.28260612153E+03  0.00000000000E+00 0.  1.
          2   -1    0    0  501    0  0.00000000000E+00 -0.00000000000E+00 -0.88421047549E+03  0.88421047549E+03  0.00000000000E+00 0.  1.
         36    2    1    2    0    0 -0.14210854715E-13  0.42632564146E-13 -0.60160435396E+03  0.11668165970E+04  0.99976655895E+03 0.  0.
         25    2    3    3    0    0 -0.88093994221E+02 -0.87753207295E+02 -0.35990254474E+02  0.17990475134E+03  0.12493695983E+03 0.  0.
         35    2    3    3    0    0  0.88093994221E+02  0.87753207295E+02 -0.56561409948E+03  0.98691184568E+03  0.79913359609E+03 0.  0.
         22    1    5    5    0    0  0.22615013939E+03  0.35628806747E+03 -0.10285098216E+03  0.43435399974E+03  0.00000000000E+00 0. -1.
         22    1    5    5    0    0 -0.13805614517E+03 -0.26853486017E+03 -0.46276311733E+03  0.55255784594E+03  0.00000000000E+00 0. -1.
          5    1    4    4  502    0 -0.73585716141E+02 -0.71472671125E+00 -0.51829572352E+02  0.90131920119E+02  0.47000000000E+01 0. -1.
         -5    1    4    4    0  502 -0.14508278080E+02 -0.87038480584E+02  0.15839317877E+02  0.89772831224E+02  0.47000000000E+01 0. -1.
<mgrwt>
<rscale>  0 0.99976656E+03</rscale>
<asrwt>0</asrwt>
<pdfrwt beam="1">  1        2 0.13603238E+00 0.99976656E+03</pdfrwt>
<pdfrwt beam="2">  1       -2 0.43477865E-01 0.99976656E+03</pdfrwt>
<totfact> 0.18241273E+02</totfact>
</mgrwt>
</event>
<event>
 9    1  0.4497870E-036  0.9945885E+03  0.7818608E-02  0.8686208E-01
         -2   -1    0    0    0  501 -0.00000000000E+00  0.00000000000E+00  0.48204980205E+03  0.48204980205E+03  0.00000000000E+00 0. -1.
          2   -1    0    0  501    0  0.00000000000E+00 -0.00000000000E+00 -0.51302078901E+03  0.51302078901E+03  0.00000000000E+00 0. -1.
         36    2    1    2    0    0  0.00000000000E+00  0.71054273576E-14 -0.30970986962E+02  0.99507059106E+03  0.99458849740E+03 0.  0.
         25    2    3    3    0    0 -0.96160020004E+02 -0.13058703151E+02 -0.95355356617E+02  0.18527199135E+03  0.12576083479E+03 0.  0.
         35    2    3    3    0    0  0.96160020004E+02  0.13058703151E+02  0.64384369655E+02  0.80979859971E+03  0.80138077457E+03 0.  0.
         22    1    5    5    0    0  0.23558941587E+03  0.90305727661E+02 -0.31188413174E+03  0.40115982968E+03  0.00000000000E+00 0.  1.
         22    1    5    5    0    0 -0.13942939586E+03 -0.77247024511E+02  0.37626850139E+03  0.40863877003E+03  0.00000000000E+00 0.  1.
          5    1    4    4  502    0 -0.19944171925E+02 -0.55925931557E+02 -0.74262823916E+02  0.95197357266E+02  0.47000000000E+01 0. -1.
         -5    1    4    4    0  502 -0.76215848079E+02  0.42867228407E+02 -0.21092532700E+02  0.90074634084E+02  0.47000000000E+01 0. -1.
<mgrwt>
<rscale>  0 0.99458850E+03</rscale>
<asrwt>0</asrwt>
<pdfrwt beam="1">  1        2 0.78926275E-01 0.99458850E+03</pdfrwt>
<pdfrwt beam="2">  1       -2 0.74161509E-01 0.99458850E+03</pdfrwt>
<totfact> 0.11821950E+02</totfact>
</mgrwt>
</event>
<event>
 9    1  0.4497870E-036  0.1000739E+04  0.7818608E-02  0.8680334E-01
         -2   -1    0    0    0  501 -0.00000000000E+00  0.00000000000E+00  0.17215987170E+03  0.17215987170E+03  0.00000000000E+00 0.  1.
          2   -1    0    0  501    0  0.00000000000E+00 -0.00000000000E+00 -0.14542868788E+04  0.14542868788E+04  0.00000000000E+00 0.  1.
         36    2    1    2    0    0 -0.17763568394E-14  0.00000000000E+00 -0.12821270071E+04  0.16264467505E+04  0.10007394116E+04 0.  0.
         25    2    3    3    0    0 -0.31916857609E+01  0.13373483264E+03 -0.29046714937E+03  0.34366951097E+03  0.12586649907E+03 0.  0.
         35    2    3    3    0    0  0.31916857609E+01 -0.13373483264E+03 -0.99165985774E+03  0.12827772395E+04  0.80264125267E+03 0.  0.
         22    1    5    5    0    0  0.17864366031E+03  0.26979935514E+03 -0.64855242399E+03  0.72479341613E+03  0.00000000000E+00 0.  1.
         22    1    5    5    0    0 -0.17545197455E+03 -0.40353418779E+03 -0.34310743376E+03  0.55798382341E+03  0.00000000000E+00 0.  1.
          5    1    4    4  502    0  0.90485451524E+01  0.11237190602E+02 -0.17228398416E+03  0.17295089424E+03  0.47000000000E+01 0.  1.
         -5    1    4    4    0  502 -0.12240230913E+02  0.12249764204E+03 -0.11818316521E+03  0.17071861673E+03  0.47000000000E+01 0.  1.
<mgrwt>
<rscale>  0 0.10007394E+04</rscale>
<asrwt>0</asrwt>
<pdfrwt beam="1">  1        2 0.22373643E+00 0.10007394E+04</pdfrwt>
<pdfrwt beam="2">  1       -2 0.26486136E-01 0.10007394E+04</pdfrwt>
<totfact> 0.20815621E+02</totfact>
</mgrwt>
</event>
<event>
 9    1  0.4497870E-036  0.1000225E+04  0.7818608E-02  0.8680824E-01
         -2   -1    0    0    0  501 -0.00000000000E+00  0.00000000000E+00  0.26875031012E+03  0.26875031012E+03  0.00000000000E+00 0.  1.
          2   -1    0    0  501    0  0.00000000000E+00 -0.00000000000E+00 -0.93064933160E+03  0.93064933160E+03  0.00000000000E+00 0.  1.
         36    2    1    2    0    0  0.00000000000E+00  0.42632564146E-13 -0.66189902148E+03  0.11993996417E+04  0.10002245677E+04 0.  0.
         25    2    3    3    0    0  0.31662628696E+02 -0.83121609721E+02 -0.25417414171E+03  0.29769035144E+03  0.12689888483E+03 0.  0.
         35    2    3    3    0    0 -0.31662628696E+02  0.83121609721E+02 -0.40772487977E+03  0.90170929028E+03  0.79932993346E+03 0.  0.
         22    1    5    5    0    0  0.12978795981E+03  0.41205759679E+03 -0.27436216130E+03  0.51177238411E+03  0.00000000000E+00 0. -1.
         22    1    5    5    0    0 -0.16145058851E+03 -0.32893598707E+03 -0.13336271847E+03  0.38993690617E+03  0.00000000000E+00 0. -1.
          5    1    4    4  502    0 -0.28784053130E+02  0.59349557618E+01 -0.12968211463E+03  0.13305369694E+03  0.47000000000E+01 0. -1.
         -5    1    4    4    0  502  0.60446681827E+02 -0.89056565483E+02 -0.12449202708E+03  0.16463665450E+03  0.47000000000E+01 0. -1.
<mgrwt>
<rscale>  0 0.10002246E+04</rscale>
<asrwt>0</asrwt>
<pdfrwt beam="1">  1        2 0.14317683E+00 0.10002246E+04</pdfrwt>
<pdfrwt beam="2">  1       -2 0.41346200E-01 0.10002246E+04</pdfrwt>
<totfact> 0.18742847E+02</totfact>
</mgrwt>
</event>
<event>
 9    1  0.4497870E-036  0.9955226E+03  0.7818608E-02  0.8685313E-01
         -1   -1    0    0    0  501 -0.00000000000E+00  0.00000000000E+00  0.97399412475E+03  0.97399412475E+03  0.00000000000E+00 0. -1.
          1   -1    0    0  501    0  0.00000000000E+00 -0.00000000000E+00 -0.25438175224E+03  0.25438175224E+03  0.00000000000E+00 0. -1.
         36    2    1    2    0    0  0.00000000000E+00 -0.28421709430E-13  0.71961237251E+03  0.12283758770E+04  0.99552264088E+03 0.  0.
         25    2    3    3    0    0 -0.93913569105E+02 -0.77165780044E+02  0.20402015987E+03  0.26884634769E+03  0.12601514576E+03 0.  0.
         35    2    3    3    0    0  0.93913569105E+02  0.77165780044E+02  0.51559221264E+03  0.95952952930E+03  0.80005454301E+03 0.  0.
         22    1    5    5    0    0  0.35121486114E+02 -0.35467585084E+03  0.13568045235E+03  0.38136290211E+03  0.00000000000E+00 0.  1.
         22    1    5    5    0    0  0.58792082991E+02  0.43184163089E+03  0.37991176029E+03  0.57816662719E+03  0.00000000000E+00 0.  1.
          5    1    4    4  502    0 -0.12225059264E+03 -0.51546357377E+02  0.17931549578E+03  0.22311067072E+03  0.47000000000E+01 0.  1.
         -5    1    4    4    0  502  0.28337023535E+02 -0.25619422667E+02  0.24704664089E+02  0.45735676975E+02  0.47000000000E+01 0.  1.
<mgrwt>
<rscale>  0 0.99552264E+03</rscale>
<asrwt>0</asrwt>
<pdfrwt beam="1">  1        1 0.39135655E-01 0.99552264E+03</pdfrwt>
<pdfrwt beam="2">  1       -1 0.14984525E+00 0.99552264E+03</pdfrwt>
<totfact> 0.44718509E+01</totfact>
</mgrwt>
</event>
<event>
 9    1  0.4497870E-036  0.9998169E+03  0.7818608E-02  0.8681212E-01
          1   -1    0    0  501    0  0.00000000000E+00  0.00000000000E+00  0.41683047719E+03  0.41683047719E+03  0.00000000000E+00 0. -1.
         -1   -1    0    0    0  501 -0.00000000000E+00 -0.00000000000E+00 -0.59954459871E+03  0.59954459871E+03  0.00000000000E+00 0. -1.
         36    2    1    2    0    0  0.71054273576E-14  0.00000000000E+00 -0.18271412152E+03  0.10163750759E+04  0.99981690560E+03 0.  0.
         25    2    3    3    0    0  0.16704204618E+02  0.12579150090E+03 -0.95856395893E+02  0.20230995564E+03  0.12505333809E+03 0.  0.
         35    2    3    3    0    0 -0.16704204618E+02 -0.12579150090E+03 -0.86857725628E+02  0.81406512027E+03  0.79940929653E+03 0.  0.
         22    1    5    5    0    0  0.36793061654E+03  0.52432182614E+02  0.34149008589E+02  0.37321338018E+03  0.00000000000E+00 0.  1.
         22    1    5    5    0    0 -0.38463482115E+03 -0.17822368351E+03 -0.12100673422E+03  0.44085174008E+03  0.00000000000E+00 0.  1.
          5    1    4    4  502    0  0.37171754172E+02 -0.17840121598E+01 -0.55270654580E+02  0.66797135158E+02  0.47000000000E+01 0.  1.
         -5    1    4    4    0  502 -0.20467549555E+02  0.12757551306E+03 -0.40585741314E+02  0.13551282048E+03  0.47000000000E+01 0.  1.
<mgrwt>
<rscale>  0 0.99981691E+03</rscale>
<asrwt>0</asrwt>
<pdfrwt beam="1">  1        1 0.64127766E-01 0.99981691E+03</pdfrwt>
<pdfrwt beam="2">  1       -1 0.92237630E-01 0.99981691E+03</pdfrwt>
<totfact> 0.77426753E+01</totfact>
</mgrwt>
</event>
<event>
 9    1  0.4497870E-036  0.9997097E+03  0.7818608E-02  0.8681314E-01
          2   -1    0    0  501    0  0.00000000000E+00  0.00000000000E+00  0.43118739435E+03  0.43118739435E+03  0.00000000000E+00 0.  1.
         -2   -1    0    0    0  501 -0.00000000000E+00 -0.00000000000E+00 -0.57945776224E+03  0.57945776224E+03  0.00000000000E+00 0.  1.
         36    2    1    2    0    0 -0.35527136788E-13  0.00000000000E+00 -0.14827036789E+03  0.10106451566E+04  0.99970972315E+03 0.  0.
         25    2    3    3    0    0  0.59943998567E+02  0.52032835423E+02 -0.13389404995E+03  0.20106210241E+03  0.12727000230E+03 0.  0.
         35    2    3    3    0    0 -0.59943998567E+02 -0.52032835423E+02 -0.14376317940E+02  0.80958305419E+03  0.80555406037E+03 0.  0.
         22    1    5    5    0    0  0.13132807014E+03  0.33249851726E+03  0.87804010163E+02  0.36811936948E+03  0.00000000000E+00 0. -1.
         22    1    5    5    0    0 -0.19127206871E+03 -0.38453135268E+03 -0.10218032810E+03  0.44146368471E+03  0.00000000000E+00 0. -1.
          5    1    4    4  502    0 -0.26001996239E+02  0.40244295321E+01  0.83572628814E+01  0.28004172623E+02  0.47000000000E+01 0. -1.
         -5    1    4    4    0  502  0.85945994806E+02  0.48008405891E+02 -0.14225131283E+03  0.17305792978E+03  0.47000000000E+01 0. -1.
<mgrwt>
<rscale>  0 0.99970972E+03</rscale>
<asrwt>0</asrwt>
<pdfrwt beam="1">  1        2 0.66336523E-01 0.99970972E+03</pdfrwt>
<pdfrwt beam="2">  1       -2 0.89147348E-01 0.99970972E+03</pdfrwt>
<totfact> 0.94333514E+01</totfact>
</mgrwt>
</event>
<event>
 9    1  0.4497870E-036  0.1000494E+04  0.7818608E-02  0.8680568E-01
         -2   -1    0    0    0  501 -0.00000000000E+00  0.00000000000E+00  0.29847574418E+03  0.29847574418E+03  0.00000000000E+00 0.  1.
          2   -1    0    0  501    0  0.00000000000E+00 -0.00000000000E+00 -0.83841640138E+03  0.83841640138E+03  0.00000000000E+00 0.  1.
         36    2    1    2    0    0  0.21316282073E-13  0.00000000000E+00 -0.53994065720E+03  0.11368921456E+04  0.10004937967E+04 0.  0.
         25    2    3    3    0    0 -0.54502599843E+02 -0.35652052721E+02  0.39111432114E+02  0.14760249253E+03  0.12655113364E+03 0.  0.
         35    2    3    3    0    0  0.54502599843E+02  0.35652052721E+02 -0.57905208931E+03  0.98928965303E+03  0.79946925720E+03 0.  0.
         22    1    5    5    0    0 -0.21913633772E+03  0.12559848816E+03 -0.64595414754E+03  0.69357946586E+03  0.00000000000E+00 0.  1.
         22    1    5    5    0    0  0.27363893756E+03 -0.89946435440E+02  0.66902058232E+02  0.29571018717E+03  0.00000000000E+00 0.  1.
          5    1    4    4  502    0 -0.44388835478E+02  0.28807961471E+02  0.58839841862E+02  0.79274739668E+02  0.47000000000E+01 0. -1.
         -5    1    4    4    0  502 -0.10113764365E+02 -0.64460014193E+02 -0.19728409748E+02  0.68327752857E+02  0.47000000000E+01 0. -1.
<mgrwt>
<rscale>  0 0.10004938E+04</rscale>
<asrwt>0</asrwt>
<pdfrwt beam="1">  1        2 0.12898714E+00 0.10004938E+04</pdfrwt>
<pdfrwt beam="2">  1       -2 0.45919345E-01 0.10004938E+04</pdfrwt>
<totfact> 0.17599233E+02</totfact>
</mgrwt>
</event>
<event>
 9    1  0.4497870E-036  0.9968262E+03  0.7818608E-02  0.8684066E-01
          2   -1    0    0  501    0  0.00000000000E+00  0.00000000000E+00  0.92389748171E+03  0.92389748171E+03  0.00000000000E+00 0.  1.
         -2   -1    0    0    0  501 -0.00000000000E+00 -0.00000000000E+00 -0.26887792961E+03  0.26887792961E+03  0.00000000000E+00 0.  1.
         36    2    1    2    0    0  0.14210854715E-13  0.21316282073E-13  0.65501955210E+03  0.11927754113E+04  0.99682624776E+03 0.  0.
         25    2    3    3    0    0 -0.10500228128E+03 -0.63181758959E+02  0.19657502249E+03  0.26312131966E+03  0.12479453375E+03 0.  0.
         35    2    3    3    0    0  0.10500228128E+03  0.63181758959E+02  0.45844452962E+03  0.92965409167E+03  0.79941724380E+03 0.  0.
         22    1    5    5    0    0  0.41958608024E+02 -0.34805514740E+03  0.35923235249E+03  0.50194700267E+03  0.00000000000E+00 0. -1.
         22    1    5    5    0    0  0.63043673256E+02  0.41123690636E+03  0.99212177131E+02  0.42770708900E+03  0.00000000000E+00 0. -1.
          5    1    4    4  502    0 -0.24861333310E+02 -0.37651254028E+01  0.15132853555E+03  0.15347533266E+03  0.47000000000E+01 0. -1.
         -5    1    4    4    0  502 -0.80140947970E+02 -0.59416633556E+02  0.45246486936E+02  0.10964598700E+03  0.47000000000E+01 0. -1.
<mgrwt>
<rscale>  0 0.99682625E+03</rscale>
<asrwt>0</asrwt>
<pdfrwt beam="1">  1        2 0.14213807E+00 0.99682625E+03</pdfrwt>
<pdfrwt beam="2">  1       -2 0.41365836E-01 0.99682625E+03</pdfrwt>
<totfact> 0.18916495E+02</totfact>
</mgrwt>
</event>
<event>
 9    1  0.4497870E-036  0.1000933E+04  0.7818608E-02  0.8680150E-01
         -2   -1    0    0    0  501 -0.00000000000E+00  0.00000000000E+00  0.18571135919E+03  0.18571135919E+03  0.00000000000E+00 0.  1.
          2   -1    0    0  501    0  0.00000000000E+00 -0.00000000000E+00 -0.13486871159E+04  0.13486871159E+04  0.00000000000E+00 0.  1.
         36    2    1    2    0    0  0.28421709430E-13  0.00000000000E+00 -0.11629757567E+04  0.15343984751E+04  0.10009325999E+04 0.  0.
         25    2    3    3    0    0  0.10898196286E+03 -0.78222328040E+02 -0.16132941398E+03  0.24491414491E+03  0.12633272628E+03 0.  0.
         35    2    3    3    0    0 -0.10898196286E+03  0.78222328040E+02 -0.10016463427E+04  0.12894843301E+04  0.80092361747E+03 0.  0.
         22    1    5    5    0    0  0.24884816402E+03  0.24292194522E+03 -0.73699672073E+03  0.81492370598E+03  0.00000000000E+00 0.  1.
         22    1    5    5    0    0 -0.35783012687E+03 -0.16469961718E+03 -0.26464962197E+03  0.47456062416E+03  0.00000000000E+00 0.  1.
          5    1    4    4  502    0  0.91390807043E+02 -0.63282307510E+01 -0.14065333413E+03  0.16792193579E+03  0.47000000000E+01 0. -1.
         -5    1    4    4    0  502  0.17591155815E+02 -0.71894097289E+02 -0.20676079850E+02  0.76992209124E+02  0.47000000000E+01 0. -1.
<mgrwt>
<rscale>  0 0.10009326E+04</rscale>
<asrwt>0</asrwt>
<pdfrwt beam="1">  1        2 0.20749034E+00 0.10009326E+04</pdfrwt>
<pdfrwt beam="2">  1       -2 0.28570977E-01 0.10009326E+04</pdfrwt>
<totfact> 0.20870810E+02</totfact>
</mgrwt>
</event>
<event>
 9    1  0.4497870E-036  0.1000282E+04  0.7818608E-02  0.8680769E-01
         -2   -1    0    0    0  501 -0.00000000000E+00  0.00000000000E+00  0.25676008342E+03  0.25676008342E+03  0.00000000000E+00 0.  1.
          2   -1    0    0  501    0  0.00000000000E+00 -0.00000000000E+00 -0.97422099299E+03  0.97422099299E+03  0.00000000000E+00 0.  1.
         36    2    1    2    0    0 -0.71054273576E-14  0.00000000000E+00 -0.71746090957E+03  0.12309810764E+04  0.10002820871E+04 0.  0.
         25    2    3    3    0    0  0.57307391972E+02  0.11777215280E+03 -0.19744524041E+03  0.26808649661E+03  0.12542459709E+03 0.  0.
         35    2    3    3    0    0 -0.57307391972E+02 -0.11777215280E+03 -0.52001566916E+03  0.96289457980E+03  0.79974699654E+03 0.  0.
         22    1    5    5    0    0  0.14908399760E+03 -0.30807776684E+03  0.31843204442E+02  0.34373236454E+03  0.00000000000E+00 0. -1.
         22    1    5    5    0    0 -0.20639138957E+03  0.19030561404E+03 -0.55185887361E+03  0.61916221526E+03  0.00000000000E+00 0. -1.
          5    1    4    4  502    0  0.30499689814E+02  0.56470043137E+01  0.80736204749E+01  0.32394337222E+02  0.47000000000E+01 0.  1.
         -5    1    4    4    0  502  0.26807702158E+02  0.11212514849E+03 -0.20551886088E+03  0.23569215939E+03  0.47000000000E+01 0.  1.
<mgrwt>
<rscale>  0 0.10002821E+04</rscale>
<asrwt>0</asrwt>
<pdfrwt beam="1">  1        2 0.14988015E+00 0.10002821E+04</pdfrwt>
<pdfrwt beam="2">  1       -2 0.39501551E-01 0.10002821E+04</pdfrwt>
<totfact> 0.19182093E+02</totfact>
</mgrwt>
</event>
<event>
 9    1  0.4497870E-036  0.9998653E+03  0.7818608E-02  0.8681166E-01
         -2   -1    0    0    0  501 -0.00000000000E+00  0.00000000000E+00  0.33594074170E+03  0.33594074170E+03  0.00000000000E+00 0. -1.
          2   -1    0    0  501    0  0.00000000000E+00 -0.00000000000E+00 -0.74397844766E+03  0.74397844766E+03  0.00000000000E+00 0. -1.
         36    2    1    2    0    0  0.00000000000E+00  0.28421709430E-13 -0.40803770596E+03  0.10799191894E+04  0.99986533396E+03 0.  0.
         25    2    3    3    0    0 -0.42561400845E+02  0.99111744215E+02  0.18696117610E+02  0.16634167276E+03  0.12524135339E+03 0.  0.
         35    2    3    3    0    0  0.42561400845E+02 -0.99111744215E+02 -0.42673382357E+03  0.91357751660E+03  0.80055450282E+03 0.  0.
         22    1    5    5    0    0 -0.20493993991E+02  0.39345731090E+02  0.23266417327E+03  0.23685587995E+03  0.00000000000E+00 0.  1.
         22    1    5    5    0    0  0.63055394836E+02 -0.13845747531E+03 -0.65939799683E+03  0.67672163665E+03  0.00000000000E+00 0.  1.
          5    1    4    4  502    0 -0.15647720857E+02  0.12425920535E+03  0.12984569046E+01  0.12533545896E+03  0.47000000000E+01 0. -1.
         -5    1    4    4    0  502 -0.26913679989E+02 -0.25147461134E+02  0.17397660705E+02  0.41006213798E+02  0.47000000000E+01 0. -1.
<mgrwt>
<rscale>  0 0.99986533E+03</rscale>
<asrwt>0</asrwt>
<pdfrwt beam="1">  1        2 0.11445822E+00 0.99986533E+03</pdfrwt>
<pdfrwt beam="2">  1       -2 0.51683191E-01 0.99986533E+03</pdfrwt>
<totfact> 0.16218374E+02</totfact>
</mgrwt>
</event>
<event>
 9    1  0.4497870E-036  0.1000492E+04  0.7818608E-02  0.8680570E-01
          2   -1    0    0  501    0  0.00000000000E+00  0.00000000000E+00  0.18060865832E+04  0.18060865832E+04  0.00000000000E+00 0.  1.
         -2   -1    0    0    0  501 -0.00000000000E+00 -0.00000000000E+00 -0.13855707916E+03  0.13855707916E+03  0.00000000000E+00 0.  1.
         36    2    1    2    0    0  0.14210854715E-13  0.00000000000E+00  0.16675295040E+04  0.19446436623E+04  0.10004920423E+04 0.  0.
         25    2    3    3    0    0  0.99451168527E+02  0.95171531727E+02  0.36724189412E+03  0.41158120852E+03  0.12483720215E+03 0.  0.
         35    2    3    3    0    0 -0.99451168527E+02 -0.95171531727E+02  0.13002876099E+04  0.15330624538E+04  0.80036520629E+03 0.  0.
         22    1    5    5    0    0 -0.21363893666E+02  0.33776295572E+03  0.78927130645E+03  0.85877204507E+03  0.00000000000E+00 0. -1.
         22    1    5    5    0    0 -0.78087274862E+02 -0.43293448745E+03  0.51101630343E+03  0.67429040872E+03  0.00000000000E+00 0. -1.
          5    1    4    4  502    0  0.10314800832E+03  0.15792030721E+02  0.23601705816E+03  0.25809889887E+03  0.47000000000E+01 0. -1.
         -5    1    4    4    0  502 -0.36968397918E+01  0.79379501005E+02  0.13122483596E+03  0.15348230965E+03  0.47000000000E+01 0. -1.
<mgrwt>
<rscale>  0 0.10004920E+04</rscale>
<asrwt>0</asrwt>
<pdfrwt beam="1">  1        2 0.27785946E+00 0.10004920E+04</pdfrwt>
<pdfrwt beam="2">  1       -2 0.21316475E-01 0.10004920E+04</pdfrwt>
<totfact> 0.19327079E+02</totfact>
</mgrwt>
</event>
<event>
 9    1  0.4497870E-036  0.9999739E+03  0.7818608E-02  0.8681063E-01
         -2   -1    0    0    0  501 -0.00000000000E+00  0.00000000000E+00  0.97969969780E+02  0.97969969780E+02  0.00000000000E+00 0. -1.
          2   -1    0    0  501    0  0.00000000000E+00 -0.00000000000E+00 -0.25516693740E+04  0.25516693740E+04  0.00000000000E+00 0. -1.
         36    2    1    2    0    0 -0.28421709430E-13 -0.14210854715E-13 -0.24536994042E+04  0.26496393438E+04  0.99997394258E+03 0.  0.
         25    2    3    3    0    0  0.81225903384E+02  0.11115587857E+03 -0.46626486939E+03  0.50275188487E+03  0.12807518335E+03 0.  0.
         35    2    3    3    0    0 -0.81225903384E+02 -0.11115587857E+03 -0.19874345348E+04  0.21468874589E+04  0.80017276527E+03 0.  0.
         22    1    5    5    0    0 -0.21252091064E+03  0.28213038909E+03 -0.12705614185E+04  0.13187452416E+04  0.00000000000E+00 0.  1.
         22    1    5    5    0    0  0.13129500726E+03 -0.39328626766E+03 -0.71687311628E+03  0.82814221732E+03  0.00000000000E+00 0.  1.
          5    1    4    4  502    0 -0.12922138528E+02  0.80500319024E+01  0.77547720243E-01  0.15933633968E+02  0.47000000000E+01 0. -1.
         -5    1    4    4    0  502  0.94148041912E+02  0.10310584667E+03 -0.46634241711E+03  0.48681825090E+03  0.47000000000E+01 0. -1.
<mgrwt>
<rscale>  0 0.99997394E+03</rscale>
<asrwt>0</asrwt>
<pdfrwt beam="1">  1        2 0.39256451E+00 0.99997394E+03</pdfrwt>
<pdfrwt beam="2">  1       -2 0.15072303E-01 0.99997394E+03</pdfrwt>
<totfact> 0.12844916E+02</totfact>
</mgrwt>
</event>
<event>
 9    1  0.4497870E-036  0.9997397E+03  0.7818608E-02  0.8681286E-01
         -1   -1    0    0    0  501 -0.00000000000E+00  0.00000000000E+00  0.49069569129E+03  0.49069569129E+03  0.00000000000E+00 0. -1.
          1   -1    0    0  501    0  0.00000000000E+00 -0.00000000000E+00 -0.50921556904E+03  0.50921556904E+03  0.00000000000E+00 0. -1.
         36    2    1    2    0    0  0.14210854715E-13  0.00000000000E+00 -0.18519877752E+02  0.99991126033E+03  0.99973973746E+03 0.  0.
         25    2    3    3    0    0  0.10626579747E+03  0.61269031178E+02 -0.65713761714E+02  0.18901895776E+03  0.12792010796E+03 0.  0.
         35    2    3    3    0    0 -0.10626579747E+03 -0.61269031178E+02  0.47193883963E+02  0.81089230256E+03  0.80017045045E+03 0.  0.
         22    1    5    5    0    0 -0.16580143163E+03 -0.26092203429E+02  0.40922944388E+03  0.44231171763E+03  0.00000000000E+00 0. -1.
         22    1    5    5    0    0  0.59535634154E+02 -0.35176827750E+02 -0.36203555992E+03  0.36858058494E+03  0.00000000000E+00 0. -1.
          5    1    4    4  502    0  0.91902052004E+02  0.10862098705E+02  0.13785261764E+02  0.93680818702E+02  0.47000000000E+01 0. -1.
         -5    1    4    4    0  502  0.14363745469E+02  0.50406932473E+02 -0.79499023479E+02  0.95338139059E+02  0.47000000000E+01 0. -1.
<mgrwt>
<rscale>  0 0.99973974E+03</rscale>
<asrwt>0</asrwt>
<pdfrwt beam="1">  1        1 0.78340857E-01 0.99973974E+03</pdfrwt>
<pdfrwt beam="2">  1       -1 0.75491644E-01 0.99973974E+03</pdfrwt>
<totfact> 0.89842617E+01</totfact>
</mgrwt>
</event>
<event>
 9    1  0.4497870E-036  0.1000069E+04  0.7818608E-02  0.8680972E-01
          2   -1    0    0  501    0  0.00000000000E+00  0.00000000000E+00  0.27579917653E+04  0.27579917653E+04  0.00000000000E+00 0. -1.
         -2   -1    0    0    0  501 -0.00000000000E+00 -0.00000000000E+00 -0.90658193409E+02  0.90658193409E+02  0.00000000000E+00 0. -1.
         36    2    1    2    0    0  0.00000000000E+00 -0.17763568394E-13  0.26673335719E+04  0.28486499587E+04  0.10000690994E+04 0.  0.
         25    2    3    3    0    0 -0.10923702153E+03 -0.29423603318E+02  0.73545477039E+03  0.75451715411E+03  0.12491573659E+03 0.  0.
         35    2    3    3    0    0  0.10923702153E+03  0.29423603318E+02  0.19318788015E+04  0.20941328046E+04  0.80027371838E+03 0.  0.
         22    1    5    5    0    0 -0.13525487353E+03  0.36084850810E+03  0.76250810351E+03  0.85435597647E+03  0.00000000000E+00 0. -1.
         22    1    5    5    0    0  0.24449189506E+03 -0.33142490478E+03  0.11693706980E+04  0.12397768281E+04  0.00000000000E+00 0. -1.
          5    1    4    4  502    0 -0.10116069852E+03  0.27240918184E+02  0.36989002600E+03  0.38446882303E+03  0.47000000000E+01 0. -1.
         -5    1    4    4    0  502 -0.80763230048E+01 -0.56664521502E+02  0.36556474440E+03  0.37004833108E+03  0.47000000000E+01 0. -1.
<mgrwt>
<rscale>  0 0.10000691E+04</rscale>
<asrwt>0</asrwt>
<pdfrwt beam="1">  1        2 0.42430636E+00 0.10000691E+04</pdfrwt>
<pdfrwt beam="2">  1       -2 0.13947416E-01 0.10000691E+04</pdfrwt>
<totfact> 0.10865723E+02</totfact>
</mgrwt>
</event>
<event>
 9    1  0.4497870E-036  0.9999665E+03  0.7818608E-02  0.8681070E-01
          2   -1    0    0  501    0  0.00000000000E+00  0.00000000000E+00  0.29362739854E+04  0.29362739854E+04  0.00000000000E+00 0. -1.
         -2   -1    0    0    0  501 -0.00000000000E+00 -0.00000000000E+00 -0.85136209374E+02  0.85136209374E+02  0.00000000000E+00 0. -1.
         36    2    1    2    0    0  0.00000000000E+00  0.14210854715E-13  0.28511377761E+04  0.30214101948E+04  0.99996647304E+03 0.  0.
         25    2    3    3    0    0  0.82652872979E+02 -0.85343594307E+02  0.76137740492E+03  0.78067944023E+03  0.12509919731E+03 0.  0.
         35    2    3    3    0    0 -0.82652872979E+02  0.85343594307E+02  0.20897603712E+04  0.22407307546E+04  0.79978802144E+03 0.  0.
         22    1    5    5    0    0 -0.70333441726E+01  0.43701871216E+03  0.95375997719E+03  0.10491391313E+04  0.00000000000E+00 0.  1.
         22    1    5    5    0    0 -0.75619528806E+02 -0.35167511785E+03  0.11360003940E+04  0.11915916233E+04  0.00000000000E+00 0.  1.
          5    1    4    4  502    0  0.37211941682E+02  0.29707962676E+02  0.17846576883E+03  0.18476853708E+03  0.47000000000E+01 0. -1.
         -5    1    4    4    0  502  0.45440931297E+02 -0.11505155698E+03  0.58291163609E+03  0.59591090315E+03  0.47000000000E+01 0. -1.
<mgrwt>
<rscale>  0 0.99996647E+03</rscale>
<asrwt>0</asrwt>
<pdfrwt beam="1">  1        2 0.45173438E+00 0.99996647E+03</pdfrwt>
<pdfrwt beam="2">  1       -2 0.13097881E-01 0.99996647E+03</pdfrwt>
<totfact> 0.92464381E+01</totfact>
</mgrwt>
</event>
<event>
 9    1  0.4497870E-036  0.9988527E+03  0.7818608E-02  0.8682131E-01
         -2   -1    0    0    0  501 -0.00000000000E+00  0.00000000000E+00  0.63561438340E+03  0.63561438340E+03  0.00000000000E+00 0.  1.
          2   -1    0    0  501    0  0.00000000000E+00 -0.00000000000E+00 -0.39241820873E+03  0.39241820873E+03  0.00000000000E+00 0.  1.
         36    2    1    2    0    0  0.00000000000E+00  0.00000000000E+00  0.24319617467E+03  0.10280325921E+04  0.99885265736E+03 0.  0.
         25    2    3    3    0    0  0.81793663139E+02  0.10922266841E+03  0.66783633318E+02  0.19700520773E+03  0.12542409484E+03 0.  0.
         35    2    3    3    0    0 -0.81793663139E+02 -0.10922266841E+03  0.17641254136E+03  0.83102738440E+03  0.80054065122E+03 0.  0.
         22    1    5    5    0    0 -0.12413688158E+03 -0.35909503286E+03 -0.15795110659E+03  0.41147024202E+03  0.00000000000E+00 0. -1.
         22    1    5    5    0    0  0.42343218445E+02  0.24987236444E+03  0.33436364795E+03  0.41955714239E+03  0.00000000000E+00 0. -1.
          5    1    4    4  502    0  0.60167547010E+02 -0.73123076971E+01  0.46791055400E+02  0.76714382110E+02  0.47000000000E+01 0.  1.
         -5    1    4    4    0  502  0.21626116130E+02  0.11653497611E+03  0.19992577918E+02  0.12029082562E+03  0.47000000000E+01 0.  1.
<mgrwt>
<rscale>  0 0.99885266E+03</rscale>
<asrwt>0</asrwt>
<pdfrwt beam="1">  1        2 0.60372032E-01 0.99885266E+03</pdfrwt>
<pdfrwt beam="2">  1       -2 0.97786829E-01 0.99885266E+03</pdfrwt>
<totfact> 0.84201524E+01</totfact>
</mgrwt>
</event>
<event>
 9    1  0.4497870E-036  0.1000733E+04  0.7818608E-02  0.8680340E-01
         -1   -1    0    0    0  501 -0.00000000000E+00  0.00000000000E+00  0.45615659234E+03  0.45615659234E+03  0.00000000000E+00 0.  1.
          1   -1    0    0  501    0  0.00000000000E+00 -0.00000000000E+00 -0.54886142608E+03  0.54886142608E+03  0.00000000000E+00 0.  1.
         36    2    1    2    0    0 -0.14210854715E-13 -0.14210854715E-13 -0.92704833743E+02  0.10050180184E+04  0.10007332467E+04 0.  0.
         25    2    3    3    0    0  0.12320014137E+03 -0.66838624324E+02 -0.31236625720E+02  0.19001343967E+03  0.12443353219E+03 0.  0.
         35    2    3    3    0    0 -0.12320014137E+03  0.66838624324E+02 -0.61468208023E+02  0.81500457874E+03  0.80050511943E+03 0.  0.
         22    1    5    5    0    0 -0.18839660007E+03 -0.11996879052E+03  0.31709169316E+03  0.38785684406E+03  0.00000000000E+00 0. -1.
         22    1    5    5    0    0  0.65196458695E+02  0.18680741484E+03 -0.37855990118E+03  0.42714773468E+03  0.00000000000E+00 0. -1.
          5    1    4    4  502    0 -0.22394727599E+02 -0.20838086477E+02  0.86417075817E+01  0.32132830286E+02  0.47000000000E+01 0. -1.
         -5    1    4    4    0  502  0.14559486897E+03 -0.46000537847E+02 -0.39878333302E+02  0.15788060939E+03  0.47000000000E+01 0. -1.
<mgrwt>
<rscale>  0 0.10007332E+04</rscale>
<asrwt>0</asrwt>
<pdfrwt beam="1">  1        1 0.84440219E-01 0.10007332E+04</pdfrwt>
<pdfrwt beam="2">  1       -1 0.70177937E-01 0.10007332E+04</pdfrwt>
<totfact> 0.93612532E+01</totfact>
</mgrwt>
</event>
<event>
 9    1  0.4497870E-036  0.9972327E+03  0.7818608E-02  0.8683678E-01
          2   -1    0    0  501    0  0.00000000000E+00  0.00000000000E+00  0.17798875325E+04  0.17798875325E+04  0.00000000000E+00 0.  1.
         -2   -1    0    0    0  501 -0.00000000000E+00 -0.00000000000E+00 -0.13968202128E+03  0.13968202128E+03  0.00000000000E+00 0.  1.
         36    2    1    2    0    0  0.00000000000E+00  0.28421709430E-13  0.16402055112E+04  0.19195695537E+04  0.99723274753E+03 0.  0.
         25    2    3    3    0    0  0.20795508089E+02  0.12577871721E+03  0.20588109731E+03  0.27264829561E+03  0.12528897803E+03 0.  0.
         35    2    3    3    0    0 -0.20795508089E+02 -0.12577871721E+03  0.14343244139E+04  0.16469212581E+04  0.79925613377E+03 0.  0.
         22    1    5    5    0    0  0.31278697440E+01  0.31778116958E+03  0.88585006679E+03  0.94112963832E+03  0.00000000000E+00 0.  1.
         22    1    5    5    0    0 -0.23923377833E+02 -0.44355988678E+03  0.54847434709E+03  0.70579161981E+03  0.00000000000E+00 0.  1.
          5    1    4    4  502    0  0.38605137843E+01  0.14168622851E+03  0.20455374521E+03  0.24890603769E+03  0.47000000000E+01 0. -1.
         -5    1    4    4    0  502  0.16934994305E+02 -0.15907511304E+02  0.13273520946E+01  0.23742257929E+02  0.47000000000E+01 0. -1.
<mgrwt>
<rscale>  0 0.99723275E+03</rscale>
<asrwt>0</asrwt>
<pdfrwt beam="1">  1        2 0.27382883E+00 0.99723275E+03</pdfrwt>
<pdfrwt beam="2">  1       -2 0.21489543E-01 0.99723275E+03</pdfrwt>
<totfact> 0.19716562E+02</totfact>
</mgrwt>
</event>
<event>
 9    1  0.4497870E-036  0.1004518E+04  0.7818608E-02  0.8676747E-01
          1   -1    0    0  501    0  0.00000000000E+00  0.00000000000E+00  0.34974291068E+04  0.34974291068E+04  0.00000000000E+00 0.  1.
         -1   -1    0    0    0  501 -0.00000000000E+00 -0.00000000000E+00 -0.72128488626E+02  0.72128488626E+02  0.00000000000E+00 0.  1.
         36    2    1    2    0    0 -0.14210854715E-13  0.14210854715E-13  0.34253006182E+04  0.35695575955E+04  0.10045183434E+04 0.  0.
         25    2    3    3    0    0  0.12010735159E+03 -0.56566358960E+02  0.44615466644E+03  0.48212704714E+03  0.12556661310E+03 0.  0.
         35    2    3    3    0    0 -0.12010735159E+03  0.56566358960E+02  0.29791459518E+04  0.30874305483E+04  0.79955691473E+03 0.  0.
         22    1    5    5    0    0  0.23630895564E+03  0.26574406305E+03  0.90195116260E+03  0.96952448617E+03  0.00000000000E+00 0.  1.
         22    1    5    5    0    0 -0.35641630724E+03 -0.20917770409E+03  0.20771947892E+04  0.21179060621E+04  0.00000000000E+00 0.  1.
          5    1    4    4  502    0  0.30791179878E+02 -0.66362062054E+02  0.31267799877E+03  0.32115672335E+03  0.47000000000E+01 0. -1.
         -5    1    4    4    0  502  0.89316171713E+02  0.97957030938E+01  0.13347666767E+03  0.16097032379E+03  0.47000000000E+01 0. -1.
<mgrwt>
<rscale>  0 0.10045183E+04</rscale>
<asrwt>0</asrwt>
<pdfrwt beam="1">  1        1 0.53806588E+00 0.10045183E+04</pdfrwt>
<pdfrwt beam="2">  1       -1 0.11096693E-01 0.10045183E+04</pdfrwt>
<totfact> 0.13982314E+01</totfact>
</mgrwt>
</event>
<event>
 9    1  0.4497870E-036  0.1000940E+04  0.7818608E-02  0.8680143E-01
         -2   -1    0    0    0  501 -0.00000000000E+00  0.00000000000E+00  0.61844258421E+03  0.61844258421E+03  0.00000000000E+00 0.  1.
          2   -1    0    0  501    0  0.00000000000E+00 -0.00000000000E+00 -0.40500192086E+03  0.40500192086E+03  0.00000000000E+00 0.  1.
         36    2    1    2    0    0  0.00000000000E+00  0.21316282073E-13  0.21344066335E+03  0.10234445051E+04  0.10009404269E+04 0.  0.
         25    2    3    3    0    0 -0.47136231796E+02 -0.39130929457E+02 -0.89513702658E+02  0.16573710464E+03  0.12531173490E+03 0.  0.
         35    2    3    3    0    0  0.47136231796E+02  0.39130929457E+02  0.30295436601E+03  0.85770740043E+03  0.80007973532E+03 0.  0.
         22    1    5    5    0    0 -0.18448697243E+03 -0.23123720902E+03  0.39164676782E+03  0.49080880247E+03  0.00000000000E+00 0. -1.
         22    1    5    5    0    0  0.23162320423E+03  0.27036813848E+03 -0.88692401817E+02  0.36689859796E+03  0.00000000000E+00 0. -1.
          5    1    4    4  502    0  0.38168038208E+02 -0.13160049373E+02 -0.58452063446E+02  0.71194941964E+02  0.47000000000E+01 0.  1.
         -5    1    4    4    0  502 -0.85304270004E+02 -0.25970880084E+02 -0.31061639212E+02  0.94542162678E+02  0.47000000000E+01 0.  1.
<mgrwt>
<rscale>  0 0.10009404E+04</rscale>
<asrwt>0</asrwt>
<pdfrwt beam="1">  1        2 0.62307988E-01 0.10009404E+04</pdfrwt>
<pdfrwt beam="2">  1       -2 0.95145013E-01 0.10009404E+04</pdfrwt>
<totfact> 0.86779449E+01</totfact>
</mgrwt>
</event>
<event>
 9    1  0.4497870E-036  0.9998992E+03  0.7818608E-02  0.8681134E-01
          2   -1    0    0  501    0  0.00000000000E+00  0.00000000000E+00  0.16804920837E+04  0.16804920837E+04  0.00000000000E+00 0.  1.
         -2   -1    0    0    0  501 -0.00000000000E+00 -0.00000000000E+00 -0.14873596525E+03  0.14873596525E+03  0.00000000000E+00 0.  1.
         36    2    1    2    0    0  0.10658141036E-13  0.00000000000E+00  0.15317561185E+04  0.18292280490E+04  0.99989921927E+03 0.  0.
         25    2    3    3    0    0  0.29983084853E+02 -0.75945251518E+02  0.49728225329E+03  0.51909473188E+03  0.12451118272E+03 0.  0.
         35    2    3    3    0    0 -0.29983084853E+02  0.75945251518E+02  0.10344738652E+04  0.13101333171E+04  0.79977900962E+03 0.  0.
         22    1    5    5    0    0 -0.40492360139E+03  0.82894028348E+02  0.66972482438E+03  0.78699801988E+03  0.00000000000E+00 0. -1.
         22    1    5    5    0    0  0.37494051653E+03 -0.69487768300E+01  0.36474904079E+03  0.52313529722E+03  0.00000000000E+00 0. -1.
          5    1    4    4  502    0  0.61331649882E+02 -0.90652997909E+02  0.31535846728E+03  0.33384515901E+03  0.47000000000E+01 0. -1.
         -5    1    4    4    0  502 -0.31348565029E+02  0.14707746391E+02  0.18192378600E+03  0.18524957287E+03  0.47000000000E+01 0. -1.
<mgrwt>
<rscale>  0 0.99989922E+03</rscale>
<asrwt>0</asrwt>
<pdfrwt beam="1">  1        2 0.25853723E+00 0.99989922E+03</pdfrwt>
<pdfrwt beam="2">  1       -2 0.22882457E-01 0.99989922E+03</pdfrwt>
<totfact> 0.20096074E+02</totfact>
</mgrwt>
</event>
<event>
 9    1  0.4497870E-036  0.9997790E+03  0.7818608E-02  0.8681248E-01
         -4   -1    0    0    0  501 -0.00000000000E+00  0.00000000000E+00  0.11226785638E+04  0.11226785638E+04  0.00000000000E+00 0. -1.
          4   -1    0    0  501    0  0.00000000000E+00 -0.00000000000E+00 -0.22258329063E+03  0.22258329063E+03  0.00000000000E+00 0. -1.
         36    2    1    2    0    0  0.71054273576E-14  0.00000000000E+00  0.90009527320E+03  0.13452618545E+04  0.99977895368E+03 0.  0.
         25    2    3    3    0    0 -0.41282821391E+02 -0.12607931491E+03  0.10682767103E+03  0.21042055032E+03  0.12354914694E+03 0.  0.
         35    2    3    3    0    0  0.41282821391E+02  0.12607931491E+03  0.79326760216E+03  0.11348413041E+04  0.80061915536E+03 0.  0.
         22    1    5    5    0    0 -0.28603011319E+03  0.27463275422E+03  0.61964088836E+03  0.73565698928E+03  0.00000000000E+00 0. -1.
         22    1    5    5    0    0  0.32731293459E+03 -0.14855343931E+03  0.17362671380E+03  0.39918431485E+03  0.00000000000E+00 0. -1.
          5    1    4    4  502    0  0.31823775845E+02 -0.46683023851E+02 -0.24660006520E+01  0.56747057934E+02  0.47000000000E+01 0. -1.
         -5    1    4    4    0  502 -0.73106597236E+02 -0.79396291055E+02  0.10929367169E+03  0.15367349239E+03  0.47000000000E+01 0. -1.
<mgrwt>
<rscale>  0 0.99977895E+03</rscale>
<asrwt>0</asrwt>
<pdfrwt beam="1">  1        4 0.34243584E-01 0.99977895E+03</pdfrwt>
<pdfrwt beam="2">  1       -4 0.17271978E+00 0.99977895E+03</pdfrwt>
<totfact> 0.31862977E+00</totfact>
</mgrwt>
</event>
<event>
 9    1  0.4497870E-036  0.9993696E+03  0.7818608E-02  0.8681639E-01
         -2   -1    0    0    0  501 -0.00000000000E+00  0.00000000000E+00  0.11448610337E+03  0.11448610337E+03  0.00000000000E+00 0. -1.
          2   -1    0    0  501    0  0.00000000000E+00 -0.00000000000E+00 -0.21809187222E+04  0.21809187222E+04  0.00000000000E+00 0. -1.
         36    2    1    2    0    0  0.00000000000E+00 -0.71054273576E-14 -0.20664326188E+04  0.22954048256E+04  0.99936957380E+03 0.  0.
         25    2    3    3    0    0 -0.49216834370E+02 -0.31253913757E+02 -0.97627725838E+02  0.16928759365E+03  0.12541137349E+03 0.  0.
         35    2    3    3    0    0  0.49216834370E+02  0.31253913757E+02 -0.19688048930E+04  0.21261172319E+04  0.80048902131E+03 0.  0.
         22    1    5    5    0    0 -0.80448964239E+02 -0.34791040863E+03 -0.12835379816E+04  0.13322850440E+04  0.00000000000E+00 0.  1.
         22    1    5    5    0    0  0.12966579861E+03  0.37916432239E+03 -0.68526691140E+03  0.79383218791E+03  0.00000000000E+00 0.  1.
          5    1    4    4  502    0  0.86017245705E+01 -0.31943110150E+02 -0.10557144823E+03  0.11073288867E+03  0.47000000000E+01 0.  1.
         -5    1    4    4    0  502 -0.57818558940E+02  0.68919639345E+00  0.79437223969E+01  0.58554704979E+02  0.47000000000E+01 0.  1.
<mgrwt>
<rscale>  0 0.99936957E+03</rscale>
<asrwt>0</asrwt>
<pdfrwt beam="1">  1        2 0.33552595E+00 0.99936957E+03</pdfrwt>
<pdfrwt beam="2">  1       -2 0.17613247E-01 0.99936957E+03</pdfrwt>
<totfact> 0.16414642E+02</totfact>
</mgrwt>
</event>
<event>
 9    1  0.4497870E-036  0.1000033E+04  0.7818608E-02  0.8681006E-01
         -4   -1    0    0    0  501 -0.00000000000E+00  0.00000000000E+00  0.57855388596E+03  0.57855388596E+03  0.00000000000E+00 0.  1.
          4   -1    0    0  501    0  0.00000000000E+00 -0.00000000000E+00 -0.43214050746E+03  0.43214050746E+03  0.00000000000E+00 0.  1.
         36    2    1    2    0    0  0.00000000000E+00 -0.14210854715E-13  0.14641337850E+03  0.10106943934E+04  0.10000331392E+04 0.  0.
         25    2    3    3    0    0 -0.74163217332E+02 -0.64573172183E+02  0.12927213664E+03  0.20391928148E+03  0.12329602864E+03 0.  0.
         35    2    3    3    0    0  0.74163217332E+02  0.64573172183E+02  0.17141241863E+02  0.80677511194E+03  0.80057628101E+03 0.  0.
         22    1    5    5    0    0 -0.13350102978E+03  0.38765773868E+03  0.79614210283E+02  0.41765951419E+03  0.00000000000E+00 0.  1.
         22    1    5    5    0    0  0.20766424711E+03 -0.32308456650E+03 -0.62472968420E+02  0.38911559776E+03  0.00000000000E+00 0.  1.
          5    1    4    4  502    0 -0.36526804989E+02 -0.83315208598E+02  0.29829939672E+02  0.95851691520E+02  0.47000000000E+01 0. -1.
         -5    1    4    4    0  502 -0.37636412343E+02  0.18742036416E+02  0.99442196965E+02  0.10806758996E+03  0.47000000000E+01 0. -1.
<mgrwt>
<rscale>  0 0.10000331E+04</rscale>
<asrwt>0</asrwt>
<pdfrwt beam="1">  1        4 0.66483155E-01 0.10000331E+04</pdfrwt>
<pdfrwt beam="2">  1       -4 0.89008290E-01 0.10000331E+04</pdfrwt>
<totfact> 0.51876595E+00</totfact>
</mgrwt>
</event>
<event>
 9    1  0.4497870E-036  0.9997812E+03  0.7818608E-02  0.8681246E-01
          1   -1    0    0  501    0  0.00000000000E+00  0.00000000000E+00  0.16923251484E+04  0.16923251484E+04  0.00000000000E+00 0.  1.
         -1   -1    0    0    0  501 -0.00000000000E+00 -0.00000000000E+00 -0.14766110427E+03  0.14766110427E+03  0.00000000000E+00 0.  1.
         36    2    1    2    0    0  0.00000000000E+00 -0.42632564146E-13  0.15446640441E+04  0.18399862527E+04  0.99978117646E+03 0.  0.
         25    2    3    3    0    0  0.43546946314E+02 -0.73362024498E+02  0.85377838652E+02  0.17369958050E+03  0.12491535439E+03 0.  0.
         35    2    3    3    0    0 -0.43546946314E+02  0.73362024498E+02  0.14592862055E+04  0.16662866722E+04  0.79982293115E+03 0.  0.
         22    1    5    5    0    0 -0.10932780195E+03  0.37965304838E+03  0.11876693213E+04  0.12516578694E+04  0.00000000000E+00 0. -1.
         22    1    5    5    0    0  0.65780855636E+02 -0.30629102388E+03  0.27161688421E+03  0.41462880275E+03  0.00000000000E+00 0. -1.
          5    1    4    4  502    0 -0.32055460171E+02  0.71237396065E+01 -0.13649091606E+01  0.33200198339E+02  0.47000000000E+01 0.  1.
         -5    1    4    4    0  502  0.75602406485E+02 -0.80485764105E+02  0.86742747813E+02  0.14049938216E+03  0.47000000000E+01 0.  1.
<mgrwt>
<rscale>  0 0.99978118E+03</rscale>
<asrwt>0</asrwt>
<pdfrwt beam="1">  1        1 0.26035770E+00 0.99978118E+03</pdfrwt>
<pdfrwt beam="2">  1       -1 0.22717094E-01 0.99978118E+03</pdfrwt>
<totfact> 0.84776415E+01</totfact>
</mgrwt>
</event>
<event>
 9    1  0.4497870E-036  0.9994388E+03  0.7818608E-02  0.8681573E-01
          2   -1    0    0  501    0  0.00000000000E+00  0.00000000000E+00  0.63699554085E+03  0.63699554085E+03  0.00000000000E+00 0.  1.
         -2   -1    0    0    0  501 -0.00000000000E+00 -0.00000000000E+00 -0.39202704060E+03  0.39202704060E+03  0.00000000000E+00 0.  1.
         36    2    1    2    0    0  0.14210854715E-13  0.21316282073E-13  0.24496850025E+03  0.10290225814E+04  0.99943879603E+03 0.  0.
         25    2    3    3    0    0 -0.10704593441E+03 -0.53820860943E+02  0.12373240491E+03  0.21110427442E+03  0.12206469395E+03 0.  0.
         35    2    3    3    0    0  0.10704593441E+03  0.53820860943E+02  0.12123609534E+03  0.81791830703E+03  0.79996040465E+03 0.  0.
         22    1    5    5    0    0  0.33116978422E+03  0.14598847870E+03  0.33620000592E+03  0.49398026871E+03  0.00000000000E+00 0. -1.
         22    1    5    5    0    0 -0.22412384981E+03 -0.92167617761E+02 -0.21496391058E+03  0.32393803832E+03  0.00000000000E+00 0. -1.
          5    1    4    4  502    0 -0.53031509409E+02  0.31040120073E+02  0.16074811400E+02  0.63689242466E+02  0.47000000000E+01 0. -1.
         -5    1    4    4    0  502 -0.54014424997E+02 -0.84860981016E+02  0.10765759351E+03  0.14741503196E+03  0.47000000000E+01 0. -1.
<mgrwt>
<rscale>  0 0.99943880E+03</rscale>
<asrwt>0</asrwt>
<pdfrwt beam="1">  1        2 0.97999314E-01 0.99943880E+03</pdfrwt>
<pdfrwt beam="2">  1       -2 0.60311852E-01 0.99943880E+03</pdfrwt>
<totfact> 0.14288067E+02</totfact>
</mgrwt>
</event>
<event>
 9    1  0.4497870E-036  0.9996820E+03  0.7818608E-02  0.8681341E-01
          1   -1    0    0  501    0  0.00000000000E+00  0.00000000000E+00  0.34084592638E+04  0.34084592638E+04  0.00000000000E+00 0. -1.
         -1   -1    0    0    0  501 -0.00000000000E+00 -0.00000000000E+00 -0.73300279778E+02  0.73300279778E+02  0.00000000000E+00 0. -1.
         36    2    1    2    0    0  0.00000000000E+00  0.00000000000E+00  0.33351589840E+04  0.34817595435E+04  0.99968198473E+03 0.  0.
         25    2    3    3    0    0 -0.65941876523E+02 -0.85383181605E+02  0.31664992575E+03  0.35711596645E+03  0.12500407686E+03 0.  0.
         35    2    3    3    0    0  0.65941876523E+02  0.85383181605E+02  0.30185090582E+04  0.31246435771E+04  0.80022617457E+03 0.  0.
         22    1    5    5    0    0  0.28193032358E+03  0.51632966213E+02  0.28031763664E+04  0.28177914067E+04  0.00000000000E+00 0.  1.
         22    1    5    5    0    0 -0.21598844705E+03  0.33750215392E+02  0.21533269182E+03  0.30685217038E+03  0.00000000000E+00 0.  1.
          5    1    4    4  502    0 -0.24327172232E+02 -0.10303072091E+03  0.27781030663E+03  0.29733448712E+03  0.47000000000E+01 0. -1.
         -5    1    4    4    0  502 -0.41614704291E+02  0.17647539309E+02  0.38839619122E+02  0.59781479326E+02  0.47000000000E+01 0. -1.
<mgrwt>
<rscale>  0 0.99968198E+03</rscale>
<asrwt>0</asrwt>
<pdfrwt beam="1">  1        1 0.52437822E+00 0.99968198E+03</pdfrwt>
<pdfrwt beam="2">  1       -1 0.11276969E-01 0.99968198E+03</pdfrwt>
<totfact> 0.15853220E+01</totfact>
</mgrwt>
</event>
<event>
 9    1  0.4497870E-036  0.1000475E+04  0.7818608E-02  0.8680586E-01
         -2   -1    0    0    0  501 -0.00000000000E+00  0.00000000000E+00  0.16828571823E+03  0.16828571823E+03  0.00000000000E+00 0.  1.
          2   -1    0    0  501    0  0.00000000000E+00 -0.00000000000E+00 -0.14869808714E+04  0.14869808714E+04  0.00000000000E+00 0.  1.
         36    2    1    2    0    0  0.00000000000E+00 -0.14210854715E-13 -0.13186951532E+04  0.16552665896E+04  0.10004751750E+04 0.  0.
         25    2    3    3    0    0  0.72998746105E+02 -0.10700204444E+03 -0.15979852550E+03  0.24547493439E+03  0.13395566510E+03 0.  0.
         35    2    3    3    0    0 -0.72998746105E+02  0.10700204444E+03 -0.11588966277E+04  0.14097916553E+04  0.79227070065E+03 0.  0.
         22    1    5    5    0    0 -0.10769439079E+03  0.44649983701E+03 -0.61260123993E+03  0.76566341523E+03  0.00000000000E+00 0.  1.
         22    1    5    5    0    0  0.34695644683E+02 -0.33949779256E+03 -0.54629538776E+03  0.64412824002E+03  0.00000000000E+00 0.  1.
          5    1    4    4  502    0  0.22356839170E+02 -0.17801296441E+02  0.22211420315E+02  0.36498652100E+02  0.47000000000E+01 0. -1.
         -5    1    4    4    0  502  0.50641906934E+02 -0.89200748003E+02 -0.18200994582E+03  0.20897628229E+03  0.47000000000E+01 0. -1.
<mgrwt>
<rscale>  0 0.10004752E+04</rscale>
<asrwt>0</asrwt>
<pdfrwt beam="1">  1        2 0.22876629E+00 0.10004752E+04</pdfrwt>
<pdfrwt beam="2">  1       -2 0.25890110E-01 0.10004752E+04</pdfrwt>
<totfact> 0.20772712E+02</totfact>
</mgrwt>
</event>
<event>
 9    1  0.4497870E-036  0.9997419E+03  0.7818608E-02  0.8681284E-01
          1   -1    0    0  501    0  0.00000000000E+00  0.00000000000E+00  0.18491353175E+04  0.18491353175E+04  0.00000000000E+00 0. -1.
         -1   -1    0    0    0  501 -0.00000000000E+00 -0.00000000000E+00 -0.13512855117E+03  0.13512855117E+03  0.00000000000E+00 0. -1.
         36    2    1    2    0    0  0.00000000000E+00  0.14210854715E-13  0.17140067663E+04  0.19842638687E+04  0.99974191946E+03 0.  0.
         25    2    3    3    0    0  0.12589825086E+03 -0.50899546105E+01  0.43431604977E+03  0.46913820046E+03  0.12483566332E+03 0.  0.
         35    2    3    3    0    0 -0.12589825086E+03  0.50899546105E+01  0.12796907166E+04  0.15151256682E+04  0.80132464285E+03 0.  0.
         22    1    5    5    0    0 -0.29169166110E+03 -0.27112794605E+03  0.34645347217E+03  0.52784883884E+03  0.00000000000E+00 0.  1.
         22    1    5    5    0    0  0.16579341024E+03  0.27621790066E+03  0.93323724440E+03  0.98727682939E+03  0.00000000000E+00 0.  1.
          5    1    4    4  502    0  0.52557788067E+02 -0.59942651669E+02  0.26252401329E+03  0.27440187705E+03  0.47000000000E+01 0.  1.
         -5    1    4    4    0  502  0.73340462790E+02  0.54852697059E+02  0.17179203649E+03  0.19473632342E+03  0.47000000000E+01 0.  1.
<mgrwt>
<rscale>  0 0.99974192E+03</rscale>
<asrwt>0</asrwt>
<pdfrwt beam="1">  1        1 0.28448234E+00 0.99974192E+03</pdfrwt>
<pdfrwt beam="2">  1       -1 0.20789009E-01 0.99974192E+03</pdfrwt>
<totfact> 0.76221621E+01</totfact>
</mgrwt>
</event>
<event>
 9    1  0.4497870E-036  0.1000368E+04  0.7818608E-02  0.8680687E-01
          1   -1    0    0  501    0  0.00000000000E+00  0.00000000000E+00  0.37349409414E+03  0.37349409414E+03  0.00000000000E+00 0.  1.
         -1   -1    0    0    0  501 -0.00000000000E+00 -0.00000000000E+00 -0.66984767988E+03  0.66984767988E+03  0.00000000000E+00 0.  1.
         36    2    1    2    0    0 -0.14210854715E-13  0.28421709430E-13 -0.29635358574E+03  0.10433417740E+04  0.10003682370E+04 0.  0.
         25    2    3    3    0    0 -0.39857935807E+02 -0.12527303012E+03 -0.45531539309E+00  0.18073568036E+03  0.12402899548E+03 0.  0.
         35    2    3    3    0    0  0.39857935807E+02  0.12527303012E+03 -0.29589827035E+03  0.86260609366E+03  0.79953205020E+03 0.  0.
         22    1    5    5    0    0 -0.19833561899E+03 -0.24932102355E+03 -0.27056086910E+03  0.41797269580E+03  0.00000000000E+00 0. -1.
         22    1    5    5    0    0  0.23819355480E+03  0.37459405367E+03 -0.25337401250E+02  0.44463339786E+03  0.00000000000E+00 0. -1.
          5    1    4    4  502    0 -0.35809651575E+02 -0.42859742570E+02  0.57109202470E+02  0.80017746068E+02  0.47000000000E+01 0. -1.
         -5    1    4    4    0  502 -0.40482842317E+01 -0.82413287551E+02 -0.57564517863E+02  0.10071793429E+03  0.47000000000E+01 0. -1.
<mgrwt>
<rscale>  0 0.10003682E+04</rscale>
<asrwt>0</asrwt>
<pdfrwt beam="1">  1        1 0.57460630E-01 0.10003682E+04</pdfrwt>
<pdfrwt beam="2">  1       -1 0.10305349E+00 0.10003682E+04</pdfrwt>
<totfact> 0.70120318E+01</totfact>
</mgrwt>
</event>
<event>
 9    1  0.4497870E-036  0.9995320E+03  0.7818608E-02  0.8681484E-01
          2   -1    0    0  501    0  0.00000000000E+00  0.00000000000E+00  0.99575922076E+02  0.99575922076E+02  0.00000000000E+00 0.  1.
         -2   -1    0    0    0  501 -0.00000000000E+00 -0.00000000000E+00 -0.25082978617E+04  0.25082978617E+04  0.00000000000E+00 0.  1.
         36    2    1    2    0    0 -0.14210854715E-13  0.00000000000E+00 -0.24087219396E+04  0.26078737838E+04  0.99953203535E+03 0.  0.
         25    2    3    3    0    0  0.95778380644E+02 -0.52128613989E+02 -0.67678973958E+03  0.69663789416E+03  0.12397222832E+03 0.  0.
         35    2    3    3    0    0 -0.95778380644E+02  0.52128613989E+02 -0.17319322000E+04  0.19112358896E+04  0.80083867888E+03 0.  0.
         22    1    5    5    0    0 -0.59199937466E+02 -0.29376586675E+03 -0.13955492648E+04  0.14273614706E+04  0.00000000000E+00 0. -1.
         22    1    5    5    0    0 -0.36578443179E+02  0.34589448074E+03 -0.33638293522E+03  0.48387441906E+03  0.00000000000E+00 0. -1.
          5    1    4    4  502    0  0.76764083533E+02 -0.50018975447E+02 -0.66930609305E+03  0.67556447406E+03  0.47000000000E+01 0.  1.
         -5    1    4    4    0  502  0.19014297111E+02 -0.21096385426E+01 -0.74836465301E+01  0.21073420102E+02  0.47000000000E+01 0.  1.
<mgrwt>
<rscale>  0 0.99953204E+03</rscale>
<asrwt>0</asrwt>
<pdfrwt beam="1">  1        2 0.15319373E-01 0.99953204E+03</pdfrwt>
<pdfrwt beam="2">  1       -2 0.38589198E+00 0.99953204E+03</pdfrwt>
<totfact> 0.49984546E+00</totfact>
</mgrwt>
</event>
<event>
 9    1  0.4497870E-036  0.1001730E+04  0.7818608E-02  0.8679392E-01
         -2   -1    0    0    0  501 -0.00000000000E+00  0.00000000000E+00  0.10794207660E+03  0.10794207660E+03  0.00000000000E+00 0. -1.
          2   -1    0    0  501    0  0.00000000000E+00 -0.00000000000E+00 -0.23240774643E+04  0.23240774643E+04  0.00000000000E+00 0. -1.
         36    2    1    2    0    0  0.00000000000E+00 -0.28421709430E-13 -0.22161353877E+04  0.24320195409E+04  0.10017299989E+04 0.  0.
         25    2    3    3    0    0 -0.77068559467E+02  0.99436134142E+02 -0.26310742215E+03  0.31743826880E+03  0.12535721471E+03 0.  0.
         35    2    3    3    0    0  0.77068559467E+02 -0.99436134142E+02 -0.19530279656E+04  0.21145812721E+04  0.80081746638E+03 0.  0.
         22    1    5    5    0    0  0.31488579524E+03 -0.32977622579E+03 -0.13727784796E+04  0.14465220970E+04  0.00000000000E+00 0. -1.
         22    1    5    5    0    0 -0.23781723577E+03  0.23034009165E+03 -0.58024948599E+03  0.66805917510E+03  0.00000000000E+00 0. -1.
          5    1    4    4  502    0 -0.71079978049E+02  0.93714726891E+02 -0.10115780756E+03  0.15520890872E+03  0.47000000000E+01 0.  1.
         -5    1    4    4    0  502 -0.59885814188E+01  0.57214072507E+01 -0.16194961458E+03  0.16222936008E+03  0.47000000000E+01 0.  1.
<mgrwt>
<rscale>  0 0.10017300E+04</rscale>
<asrwt>0</asrwt>
<pdfrwt beam="1">  1        2 0.35755034E+00 0.10017300E+04</pdfrwt>
<pdfrwt beam="2">  1       -2 0.16606475E-01 0.10017300E+04</pdfrwt>
<totfact> 0.14956862E+02</totfact>
</mgrwt>
</event>
<event>
 9    1  0.4497870E-036  0.9998254E+03  0.7818608E-02  0.8681204E-01
         -2   -1    0    0    0  501 -0.00000000000E+00  0.00000000000E+00  0.27697011833E+03  0.27697011833E+03  0.00000000000E+00 0. -1.
          2   -1    0    0  501    0  0.00000000000E+00 -0.00000000000E+00 -0.90230929159E+03  0.90230929159E+03  0.00000000000E+00 0. -1.
         36    2    1    2    0    0  0.39079850467E-13  0.00000000000E+00 -0.62533917327E+03  0.11792794099E+04  0.99982540728E+03 0.  0.
         25    2    3    3    0    0 -0.10576415482E+02  0.83183709948E+02  0.14635720663E+02  0.15137498160E+03  0.12517503972E+03 0.  0.
         35    2    3    3    0    0  0.10576415482E+02 -0.83183709948E+02 -0.63997489393E+03  0.10279044283E+04  0.79999266168E+03 0.  0.
         22    1    5    5    0    0  0.34751008333E+03 -0.23483499485E+03 -0.23935191647E+03  0.48290793402E+03  0.00000000000E+00 0.  1.
         22    1    5    5    0    0 -0.33693366785E+03  0.15165128490E+03 -0.40062297746E+03  0.54499649431E+03  0.00000000000E+00 0.  1.
          5    1    4    4  502    0 -0.15581014126E+02  0.10927869423E+03 -0.14768322748E+02  0.11146656167E+03  0.47000000000E+01 0. -1.
         -5    1    4    4    0  502  0.50045986440E+01 -0.26094984282E+02  0.29404043411E+02  0.39908419928E+02  0.47000000000E+01 0. -1.
<mgrwt>
<rscale>  0 0.99982541E+03</rscale>
<asrwt>0</asrwt>
<pdfrwt beam="1">  1        2 0.13881681E+00 0.99982541E+03</pdfrwt>
<pdfrwt beam="2">  1       -2 0.42610789E-01 0.99982541E+03</pdfrwt>
<totfact> 0.18453152E+02</totfact>
</mgrwt>
</event>
<event>
 9    1  0.4497870E-036  0.1001181E+04  0.7818608E-02  0.8679914E-01
         -3   -1    0    0    0  501 -0.00000000000E+00  0.00000000000E+00  0.16291390230E+03  0.16291390230E+03  0.00000000000E+00 0. -1.
          3   -1    0    0  501    0  0.00000000000E+00 -0.00000000000E+00 -0.15381790887E+04  0.15381790887E+04  0.00000000000E+00 0. -1.
         36    2    1    2    0    0  0.00000000000E+00  0.00000000000E+00 -0.13752651864E+04  0.17010929910E+04  0.10011808184E+04 0.  0.
         25    2    3    3    0    0  0.87845217184E+02  0.42713953312E+02 -0.84350307923E+02  0.17963267216E+03  0.12494662249E+03 0.  0.
         35    2    3    3    0    0 -0.87845217184E+02 -0.42713953312E+02 -0.12909148785E+04  0.15214603189E+04  0.79927405461E+03 0.  0.
         22    1    5    5    0    0 -0.33938676448E+03 -0.65496774818E+02 -0.19508903160E+03  0.39690418701E+03  0.00000000000E+00 0. -1.
         22    1    5    5    0    0  0.25154154730E+03  0.22782821506E+02 -0.10958258469E+04  0.11245561319E+04  0.00000000000E+00 0. -1.
          5    1    4    4  502    0  0.90449951048E+02  0.52645275883E+02 -0.10981905806E+03  0.15177296936E+03  0.47000000000E+01 0.  1.
         -5    1    4    4    0  502 -0.26047338635E+01 -0.99313225703E+01  0.25468750133E+02  0.27859702795E+02  0.47000000000E+01 0.  1.
<mgrwt>
<rscale>  0 0.10011808E+04</rscale>
<asrwt>0</asrwt>
<pdfrwt beam="1">  1        3 0.23664293E+00 0.10011808E+04</pdfrwt>
<pdfrwt beam="2">  1       -3 0.25063678E-01 0.10011808E+04</pdfrwt>
<totfact> 0.53129220E+00</totfact>
</mgrwt>
</event>
<event>
 9    1  0.4497870E-036  0.1002478E+04  0.7818608E-02  0.8678682E-01
         -2   -1    0    0    0  501 -0.00000000000E+00  0.00000000000E+00  0.88705382881E+02  0.88705382881E+02  0.00000000000E+00 0.  1.
          2   -1    0    0  501    0  0.00000000000E+00 -0.00000000000E+00 -0.28323021376E+04  0.28323021376E+04  0.00000000000E+00 0.  1.
         36    2    1    2    0    0  0.17763568394E-13  0.71054273576E-14 -0.27435967547E+04  0.29210075205E+04  0.10024778213E+04 0.  0.
         25    2    3    3    0    0 -0.25448532565E+02  0.54046566812E+02 -0.88982112349E+03  0.90096732936E+03  0.12803061185E+03 0.  0.
         35    2    3    3    0    0  0.25448532565E+02 -0.54046566812E+02 -0.18537756312E+04  0.20200401911E+04  0.80031845138E+03 0.  0.
         22    1    5    5    0    0 -0.25300731034E+03  0.39101353648E+02 -0.16197378219E+03  0.30294738992E+03  0.00000000000E+00 0.  1.
         22    1    5    5    0    0  0.27845584290E+03 -0.93147920460E+02 -0.16918018490E+04  0.17170928012E+04  0.00000000000E+00 0.  1.
          5    1    4    4  502    0  0.26267740002E+02  0.47380919681E+02 -0.15460495434E+03  0.16388937617E+03  0.47000000000E+01 0. -1.
         -5    1    4    4    0  502 -0.51716272567E+02  0.66656471307E+01 -0.73521616915E+03  0.73707795319E+03  0.47000000000E+01 0. -1.
<mgrwt>
<rscale>  0 0.10024778E+04</rscale>
<asrwt>0</asrwt>
<pdfrwt beam="1">  1        2 0.43573888E+00 0.10024778E+04</pdfrwt>
<pdfrwt beam="2">  1       -2 0.13646979E-01 0.10024778E+04</pdfrwt>
<totfact> 0.10095604E+02</totfact>
</mgrwt>
</event>
<event>
 9    1  0.4497870E-036  0.9997815E+03  0.7818608E-02  0.8681246E-01
         -1   -1    0    0    0  501 -0.00000000000E+00  0.00000000000E+00  0.30675874112E+03  0.30675874112E+03  0.00000000000E+00 0. -1.
          1   -1    0    0  501    0  0.00000000000E+00 -0.00000000000E+00 -0.81461656492E+03  0.81461656492E+03  0.00000000000E+00 0. -1.
         36    2    1    2    0    0  0.14210854715E-13 -0.71054273576E-14 -0.50785782380E+03  0.11213753060E+04  0.99978148003E+03 0.  0.
         25    2    3    3    0    0  0.44432900059E+02  0.40994150467E+02 -0.23530078842E+03  0.27066918374E+03  0.11933374634E+03 0.  0.
         35    2    3    3    0    0 -0.44432900059E+02 -0.40994150467E+02 -0.27255703537E+03  0.85070612230E+03  0.80359116844E+03 0.  0.
         22    1    5    5    0    0  0.13832656979E+03 -0.14555352571E+03 -0.50117309478E+03  0.53990234274E+03  0.00000000000E+00 0.  1.
         22    1    5    5    0    0 -0.18275946985E+03  0.10455937525E+03  0.22861605941E+03  0.31080377956E+03  0.00000000000E+00 0.  1.
          5    1    4    4  502    0  0.56940481074E+02  0.74460350056E+02 -0.19621952098E+03  0.21751035040E+03  0.47000000000E+01 0.  1.
         -5    1    4    4    0  502 -0.12507581016E+02 -0.33466199589E+02 -0.39081267438E+02  0.53158833343E+02  0.47000000000E+01 0.  1.
<mgrwt>
<rscale>  0 0.99978148E+03</rscale>
<asrwt>0</asrwt>
<pdfrwt beam="1">  1        1 0.12532562E+00 0.99978148E+03</pdfrwt>
<pdfrwt beam="2">  1       -1 0.47193654E-01 0.99978148E+03</pdfrwt>
<totfact> 0.10936463E+02</totfact>
</mgrwt>
</event>
<event>
 9    1  0.4497870E-036  0.1000819E+04  0.7818608E-02  0.8680259E-01
          2   -1    0    0  501    0  0.00000000000E+00  0.00000000000E+00  0.21812380389E+04  0.21812380389E+04  0.00000000000E+00 0. -1.
         -2   -1    0    0    0  501 -0.00000000000E+00 -0.00000000000E+00 -0.11480154428E+03  0.11480154428E+03  0.00000000000E+00 0. -1.
         36    2    1    2    0    0 -0.28421709430E-13  0.00000000000E+00  0.20664364946E+04  0.22960395831E+04  0.10008186555E+04 0.  0.
         25    2    3    3    0    0 -0.14987627430E+03 -0.53738752095E+01  0.46581010924E+03  0.50506529658E+03  0.12498047771E+03 0.  0.
         35    2    3    3    0    0  0.14987627430E+03  0.53738752095E+01  0.16006263853E+04  0.17909742866E+04  0.78936195345E+03 0.  0.
         22    1    5    5    0    0 -0.12996704186E+03 -0.24375541173E+03  0.12419375356E+04  0.12722880865E+04  0.00000000000E+00 0. -1.
         22    1    5    5    0    0  0.27984331616E+03  0.24912928694E+03  0.35868884974E+03  0.51868620007E+03  0.00000000000E+00 0. -1.
          5    1    4    4  502    0 -0.13174871478E+03  0.22306493558E+02  0.44731138125E+03  0.46686707455E+03  0.47000000000E+01 0. -1.
         -5    1    4    4    0  502 -0.18127559522E+02 -0.27680368768E+02  0.18498727988E+02  0.38198222034E+02  0.47000000000E+01 0. -1.
<mgrwt>
<rscale>  0 0.10008187E+04</rscale>
<asrwt>0</asrwt>
<pdfrwt beam="1">  1        2 0.33557505E+00 0.10008187E+04</pdfrwt>
<pdfrwt beam="2">  1       -2 0.17661778E-01 0.10008187E+04</pdfrwt>
<totfact> 0.16330582E+02</totfact>
</mgrwt>
</event>
<event>
 9    1  0.4497870E-036  0.9985334E+03  0.7818608E-02  0.8682436E-01
         -3   -1    0    0    0  501 -0.00000000000E+00  0.00000000000E+00  0.11502824393E+03  0.11502824393E+03  0.00000000000E+00 0.  1.
          3   -1    0    0  501    0  0.00000000000E+00 -0.00000000000E+00 -0.21670088823E+04  0.21670088823E+04  0.00000000000E+00 0.  1.
         36    2    1    2    0    0  0.00000000000E+00  0.00000000000E+00 -0.20519806383E+04  0.22820371262E+04  0.99853337711E+03 0.  0.
         25    2    3    3    0    0 -0.10427352528E+02 -0.13798056294E+03 -0.41462489673E+03  0.45462175115E+03  0.12497906306E+03 0.  0.
         35    2    3    3    0    0  0.10427352528E+02  0.13798056294E+03 -0.16373557416E+04  0.18274153750E+04  0.79960350358E+03 0.  0.
         22    1    5    5    0    0 -0.17856805581E+02  0.28159945182E+02  0.90187349157E+02  0.96154074101E+02  0.00000000000E+00 0. -1.
         22    1    5    5    0    0  0.28284158109E+02  0.10982061776E+03 -0.17275430908E+04  0.17312613009E+04  0.00000000000E+00 0. -1.
          5    1    4    4  502    0 -0.15412450565E+02 -0.70840782372E+02 -0.36151285692E+03  0.36874055350E+03  0.47000000000E+01 0.  1.
         -5    1    4    4    0  502  0.49850980368E+01 -0.67139780566E+02 -0.53112039812E+02  0.85881197651E+02  0.47000000000E+01 0.  1.
<mgrwt>
<rscale>  0 0.99853338E+03</rscale>
<asrwt>0</asrwt>
<pdfrwt beam="1">  1        3 0.33338595E+00 0.99853338E+03</pdfrwt>
<pdfrwt beam="2">  1       -3 0.17696654E-01 0.99853338E+03</pdfrwt>
<totfact> 0.37590325E+00</totfact>
</mgrwt>
</event>
<event>
 9    1  0.4497870E-036  0.1000753E+04  0.7818608E-02  0.8680321E-01
          2   -1    0    0  501    0  0.00000000000E+00  0.00000000000E+00  0.36032473481E+04  0.36032473481E+04  0.00000000000E+00 0. -1.
         -2   -1    0    0    0  501 -0.00000000000E+00 -0.00000000000E+00 -0.69486420614E+02  0.69486420614E+02  0.00000000000E+00 0. -1.
         36    2    1    2    0    0 -0.14210854715E-13 -0.56843418861E-13  0.35337609275E+04  0.36727337688E+04  0.10007532379E+04 0.  0.
         25    2    3    3    0    0 -0.10311950672E+03 -0.94479518388E+02  0.71490123013E+03  0.73909390088E+03  0.12496404850E+03 0.  0.
         35    2    3    3    0    0  0.10311950672E+03  0.94479518388E+02  0.28188596974E+04  0.29336398679E+04  0.80044541894E+03 0.  0.
         22    1    5    5    0    0 -0.82508858204E+02  0.42486689421E+03  0.14376558659E+04  0.15013906814E+04  0.00000000000E+00 0.  1.
         22    1    5    5    0    0  0.18562836493E+03 -0.33038737583E+03  0.13812038315E+04  0.14322491865E+04  0.00000000000E+00 0.  1.
          5    1    4    4  502    0 -0.38992641885E+02  0.18748846306E+02  0.32787016315E+03  0.33074594365E+03  0.47000000000E+01 0.  1.
         -5    1    4    4    0  502 -0.64126864839E+02 -0.11322836469E+03  0.38703106698E+03  0.40834795723E+03  0.47000000000E+01 0.  1.
<mgrwt>
<rscale>  0 0.10007532E+04</rscale>
<asrwt>0</asrwt>
<pdfrwt beam="1">  1        2 0.55434560E+00 0.10007532E+04</pdfrwt>
<pdfrwt beam="2">  1       -2 0.10690221E-01 0.10007532E+04</pdfrwt>
<totfact> 0.43138785E+01</totfact>
</mgrwt>
</event>
<event>
 9    1  0.4497870E-036  0.9996704E+03  0.7818608E-02  0.8681352E-01
         -2   -1    0    0    0  501 -0.00000000000E+00  0.00000000000E+00  0.17183413799E+03  0.17183413799E+03  0.00000000000E+00 0.  1.
          2   -1    0    0  501    0  0.00000000000E+00 -0.00000000000E+00 -0.14539324890E+04  0.14539324890E+04  0.00000000000E+00 0.  1.
         36    2    1    2    0    0  0.28421709430E-13 -0.14210854715E-13 -0.12820983510E+04  0.16257666270E+04  0.99967041759E+03 0.  0.
         25    2    3    3    0    0 -0.13568311209E+03  0.87097876020E+01 -0.20381465558E+03  0.27521072201E+03  0.12535852733E+03 0.  0.
         35    2    3    3    0    0  0.13568311209E+03 -0.87097876020E+01 -0.10782836955E+04  0.13505559050E+04  0.80176041144E+03 0.  0.
         22    1    5    5    0    0 -0.12570349817E+03 -0.35453683561E+03 -0.56415399218E+03  0.67806154894E+03  0.00000000000E+00 0.  1.
         22    1    5    5    0    0  0.26138661026E+03  0.34582704800E+03 -0.51412970327E+03  0.67249435607E+03  0.00000000000E+00 0.  1.
          5    1    4    4  502    0 -0.22113567201E+02 -0.43601701069E+02 -0.20405016721E+02  0.53184329439E+02  0.47000000000E+01 0.  1.
         -5    1    4    4    0  502 -0.11356954489E+03  0.52311488671E+02 -0.18340963886E+03  0.22202639257E+03  0.47000000000E+01 0.  1.
<mgrwt>
<rscale>  0 0.99967042E+03</rscale>
<asrwt>0</asrwt>
<pdfrwt beam="1">  1        2 0.22368192E+00 0.99967042E+03</pdfrwt>
<pdfrwt beam="2">  1       -2 0.26436022E-01 0.99967042E+03</pdfrwt>
<totfact> 0.20896053E+02</totfact>
</mgrwt>
</event>
<event>
 9    1  0.4497870E-036  0.1000122E+04  0.7818608E-02  0.8680922E-01
          1   -1    0    0  501    0  0.00000000000E+00  0.00000000000E+00  0.80281223755E+03  0.80281223755E+03  0.00000000000E+00 0. -1.
         -1   -1    0    0    0  501 -0.00000000000E+00 -0.00000000000E+00 -0.31148146781E+03  0.31148146781E+03  0.00000000000E+00 0. -1.
         36    2    1    2    0    0  0.00000000000E+00  0.14210854715E-13  0.49133076974E+03  0.11142937054E+04  0.10001222608E+04 0.  0.
         25    2    3    3    0    0 -0.70634103079E+02 -0.68090717416E+02  0.20329497712E+03  0.25869917073E+03  0.12637599020E+03 0.  0.
         35    2    3    3    0    0  0.70634103079E+02  0.68090717416E+02  0.28803579262E+03  0.85559453464E+03  0.79965734384E+03 0.  0.
         22    1    5    5    0    0  0.44831985519E+02  0.41757927993E+03  0.28056844173E+03  0.50507525424E+03  0.00000000000E+00 0.  1.
         22    1    5    5    0    0  0.25802117560E+02 -0.34948856251E+03  0.74673508898E+01  0.35051928039E+03  0.00000000000E+00 0.  1.
          5    1    4    4  502    0 -0.90862172698E+02 -0.45421072414E+01  0.13718606012E+03  0.16467747344E+03  0.47000000000E+01 0. -1.
         -5    1    4    4    0  502  0.20228069619E+02 -0.63548610175E+02  0.66108916994E+02  0.94021697293E+02  0.47000000000E+01 0. -1.
<mgrwt>
<rscale>  0 0.10001223E+04</rscale>
<asrwt>0</asrwt>
<pdfrwt beam="1">  1        1 0.12350957E+00 0.10001223E+04</pdfrwt>
<pdfrwt beam="2">  1       -1 0.47920226E-01 0.10001223E+04</pdfrwt>
<totfact> 0.10891306E+02</totfact>
</mgrwt>
</event>
<event>
 9    1  0.4497870E-036  0.1000111E+04  0.7818608E-02  0.8680933E-01
          2   -1    0    0  501    0  0.00000000000E+00  0.00000000000E+00  0.14446683409E+04  0.14446683409E+04  0.00000000000E+00 0.  1.
         -2   -1    0    0    0  501 -0.00000000000E+00 -0.00000000000E+00 -0.17308835225E+03  0.17308835225E+03  0.00000000000E+00 0.  1.
         36    2    1    2    0    0  0.00000000000E+00 -0.14210854715E-13  0.12715799886E+04  0.16177566931E+04  0.10001105192E+04 0.  0.
         25    2    3    3    0    0  0.46258341988E+01 -0.53347325701E+02  0.44770931105E+03  0.46776462417E+03  0.12447000012E+03 0.  0.
         35    2    3    3    0    0 -0.46258341988E+01  0.53347325701E+02  0.82387067756E+03  0.11499920689E+04  0.80053202919E+03 0.  0.
         22    1    5    5    0    0 -0.15975641280E+02 -0.23146959941E+03  0.83309392543E+03  0.86479991047E+03  0.00000000000E+00 0. -1.
         22    1    5    5    0    0  0.11349807081E+02  0.28481692511E+03 -0.92232478653E+01  0.28519215846E+03  0.00000000000E+00 0. -1.
          5    1    4    4  502    0  0.14378063092E+02  0.38710538351E+02  0.16946697613E+03  0.17448891218E+03  0.47000000000E+01 0.  1.
         -5    1    4    4    0  502 -0.97522288936E+01 -0.92057864052E+02  0.27824233492E+03  0.29327571199E+03  0.47000000000E+01 0.  1.
<mgrwt>
<rscale>  0 0.10001105E+04</rscale>
<asrwt>0</asrwt>
<pdfrwt beam="1">  1        2 0.22225666E+00 0.10001105E+04</pdfrwt>
<pdfrwt beam="2">  1       -2 0.26628978E-01 0.10001105E+04</pdfrwt>
<totfact> 0.20877629E+02</totfact>
</mgrwt>
</event>
<event>
 9    1  0.4497870E-036  0.9995185E+03  0.7818608E-02  0.8681497E-01
          3   -1    0    0  501    0  0.00000000000E+00  0.00000000000E+00  0.66277799275E+03  0.66277799275E+03  0.00000000000E+00 0. -1.
         -3   -1    0    0    0  501 -0.00000000000E+00 -0.00000000000E+00 -0.37683706776E+03  0.37683706776E+03  0.00000000000E+00 0. -1.
         36    2    1    2    0    0  0.71054273576E-14 -0.14210854715E-13  0.28594092498E+03  0.10396150605E+04  0.99951851482E+03 0.  0.
         25    2    3    3    0    0  0.60268870843E+01 -0.64610224528E+02 -0.77139592222E+02  0.15951696945E+03  0.12362986036E+03 0.  0.
         35    2    3    3    0    0 -0.60268870843E+01  0.64610224528E+02  0.36308051721E+03  0.88009809106E+03  0.79908346462E+03 0.  0.
         22    1    5    5    0    0  0.86790561063E+02 -0.20773439851E+03  0.50967097803E+03  0.55718101876E+03  0.00000000000E+00 0.  1.
         22    1    5    5    0    0 -0.92817448147E+02  0.27234462304E+03 -0.14659046083E+03  0.32291707230E+03  0.00000000000E+00 0.  1.
          5    1    4    4  502    0  0.47911262911E+02 -0.65140532064E+02 -0.11933540794E+02  0.81873545344E+02  0.47000000000E+01 0.  1.
         -5    1    4    4    0  502 -0.41884375827E+02  0.53030753567E+00 -0.65206051428E+02  0.77643424109E+02  0.47000000000E+01 0.  1.
<mgrwt>
<rscale>  0 0.99951851E+03</rscale>
<asrwt>0</asrwt>
<pdfrwt beam="1">  1        3 0.10196584E+00 0.99951851E+03</pdfrwt>
<pdfrwt beam="2">  1       -3 0.57974934E-01 0.99951851E+03</pdfrwt>
<totfact> 0.10109192E+01</totfact>
</mgrwt>
</event>
<event>
 9    1  0.4497870E-036  0.9996974E+03  0.7818608E-02  0.8681326E-01
         -2   -1    0    0    0  501 -0.00000000000E+00  0.00000000000E+00  0.12289516571E+03  0.12289516571E+03  0.00000000000E+00 0. -1.
          2   -1    0    0  501    0  0.00000000000E+00 -0.00000000000E+00 -0.20330232341E+04  0.20330232341E+04  0.00000000000E+00 0. -1.
         36    2    1    2    0    0  0.00000000000E+00  0.00000000000E+00 -0.19101280684E+04  0.21559183998E+04  0.99969740871E+03 0.  0.
         25    2    3    3    0    0  0.98572622854E+02 -0.42146644865E+02 -0.16771190763E+03  0.23610412584E+03  0.12698414322E+03 0.  0.
         35    2    3    3    0    0 -0.98572622854E+02  0.42146644865E+02 -0.17424161608E+04  0.19198142740E+04  0.79886160728E+03 0.  0.
         22    1    5    5    0    0  0.27210614157E+03  0.13878602514E+03 -0.30280742265E+03  0.43011120454E+03  0.00000000000E+00 0.  1.
         22    1    5    5    0    0 -0.37067876443E+03 -0.96639380273E+02 -0.14396087382E+04  0.14897030695E+04  0.00000000000E+00 0.  1.
          5    1    4    4  502    0  0.12818654808E+03 -0.27179218530E+02 -0.14567937640E+03  0.19599763197E+03  0.47000000000E+01 0.  1.
         -5    1    4    4    0  502 -0.29613925227E+02 -0.14967426335E+02 -0.22032531227E+02  0.40106493872E+02  0.47000000000E+01 0.  1.
<mgrwt>
<rscale>  0 0.99969741E+03</rscale>
<asrwt>0</asrwt>
<pdfrwt beam="1">  1        2 0.31277280E+00 0.99969741E+03</pdfrwt>
<pdfrwt beam="2">  1       -2 0.18906949E-01 0.99969741E+03</pdfrwt>
<totfact> 0.17685350E+02</totfact>
</mgrwt>
</event>
<event>
 9    1  0.4497870E-036  0.1000906E+04  0.7818608E-02  0.8680176E-01
          2   -1    0    0  501    0  0.00000000000E+00  0.00000000000E+00  0.92329771006E+03  0.92329771006E+03  0.00000000000E+00 0. -1.
         -2   -1    0    0    0  501 -0.00000000000E+00 -0.00000000000E+00 -0.27125922715E+03  0.27125922715E+03  0.00000000000E+00 0. -1.
         36    2    1    2    0    0  0.56843418861E-13  0.00000000000E+00  0.65203848290E+03  0.11945569372E+04  0.10009056364E+04 0.  0.
         25    2    3    3    0    0 -0.13749844133E+03 -0.32352865646E+02  0.13234598048E+03  0.23051779340E+03  0.12518172886E+03 0.  0.
         35    2    3    3    0    0  0.13749844133E+03  0.32352865646E+02  0.51969250242E+03  0.96403914381E+03  0.79958654593E+03 0.  0.
         22    1    5    5    0    0 -0.30729622136E+03  0.44018582087E+02  0.45448029452E+02  0.31374213394E+03  0.00000000000E+00 0.  1.
         22    1    5    5    0    0  0.44479466269E+03 -0.11665716442E+02  0.47424447297E+03  0.65029700987E+03  0.00000000000E+00 0.  1.
          5    1    4    4  502    0  0.13374907854E+02 -0.31911274124E+02  0.41918642259E+02  0.54557127354E+02  0.47000000000E+01 0. -1.
         -5    1    4    4    0  502 -0.15087334919E+03 -0.44159152197E+00  0.90427338218E+02  0.17596066605E+03  0.47000000000E+01 0. -1.
<mgrwt>
<rscale>  0 0.10009056E+04</rscale>
<asrwt>0</asrwt>
<pdfrwt beam="1">  1        2 0.14204580E+00 0.10009056E+04</pdfrwt>
<pdfrwt beam="2">  1       -2 0.41732189E-01 0.10009056E+04</pdfrwt>
<totfact> 0.18613451E+02</totfact>
</mgrwt>
</event>
<event>
 9    1  0.4497870E-036  0.9996705E+03  0.7818608E-02  0.8681352E-01
         -1   -1    0    0    0  501 -0.00000000000E+00  0.00000000000E+00  0.13227833318E+03  0.13227833318E+03  0.00000000000E+00 0. -1.
          1   -1    0    0  501    0  0.00000000000E+00 -0.00000000000E+00 -0.18887091207E+04  0.18887091207E+04  0.00000000000E+00 0. -1.
         36    2    1    2    0    0  0.42632564146E-13  0.00000000000E+00 -0.17564307875E+04  0.20209874538E+04  0.99967053441E+03 0.  0.
         25    2    3    3    0    0  0.23745373682E+02 -0.13484224825E+03 -0.29155278593E+03  0.34647743048E+03  0.12766091089E+03 0.  0.
         35    2    3    3    0    0 -0.23745373682E+02  0.13484224825E+03 -0.14648780016E+04  0.16745100234E+04  0.79960614317E+03 0.  0.
         22    1    5    5    0    0  0.30656089967E+03 -0.17625122108E+03 -0.72370252883E+03  0.80547466030E+03  0.00000000000E+00 0. -1.
         22    1    5    5    0    0 -0.33030627336E+03  0.31109346933E+03 -0.74117547272E+03  0.86903536305E+03  0.00000000000E+00 0. -1.
          5    1    4    4  502    0 -0.24067344803E+02 -0.39895591765E+02 -0.13465853895E+02  0.48726938641E+02  0.47000000000E+01 0.  1.
         -5    1    4    4    0  502  0.47812718485E+02 -0.94946656482E+02 -0.27808693203E+03  0.29775049184E+03  0.47000000000E+01 0.  1.
<mgrwt>
<rscale>  0 0.99967053E+03</rscale>
<asrwt>0</asrwt>
<pdfrwt beam="1">  1        1 0.29057063E+00 0.99967053E+03</pdfrwt>
<pdfrwt beam="2">  1       -1 0.20350513E-01 0.99967053E+03</pdfrwt>
<totfact> 0.74072099E+01</totfact>
</mgrwt>
</event>
<event>
 9    1  0.4497870E-036  0.1002857E+04  0.7818608E-02  0.8678322E-01
          2   -1    0    0  501    0  0.00000000000E+00  0.00000000000E+00  0.69736433925E+03  0.69736433925E+03  0.00000000000E+00 0. -1.
         -2   -1    0    0    0  501 -0.00000000000E+00 -0.00000000000E+00 -0.36054406722E+03  0.36054406722E+03  0.00000000000E+00 0. -1.
         36    2    1    2    0    0 -0.14210854715E-13  0.14210854715E-13  0.33682027203E+03  0.10579084065E+04  0.10028570690E+04 0.  0.
         25    2    3    3    0    0  0.10952062986E+03  0.88645241259E+02  0.86881121127E+02  0.20812612247E+03  0.12615627801E+03 0.  0.
         35    2    3    3    0    0 -0.10952062986E+03 -0.88645241259E+02  0.24993915091E+03  0.84978228400E+03  0.79987974339E+03 0.  0.
         22    1    5    5    0    0 -0.23993537175E+03  0.29409221278E+03  0.23241320446E+03  0.44505629963E+03  0.00000000000E+00 0. -1.
         22    1    5    5    0    0  0.13041474189E+03 -0.38273745404E+03  0.17525946444E+02  0.40472598437E+03  0.00000000000E+00 0. -1.
          5    1    4    4  502    0  0.10542103213E+03  0.11847097046E+03  0.72875840669E+02  0.17459078730E+03  0.47000000000E+01 0. -1.
         -5    1    4    4    0  502  0.40995977321E+01 -0.29825729200E+02  0.14005280458E+02  0.33535335164E+02  0.47000000000E+01 0. -1.
<mgrwt>
<rscale>  0 0.10028571E+04</rscale>
<asrwt>0</asrwt>
<pdfrwt beam="1">  1        2 0.10728682E+00 0.10028571E+04</pdfrwt>
<pdfrwt beam="2">  1       -2 0.55468318E-01 0.10028571E+04</pdfrwt>
<totfact> 0.15220823E+02</totfact>
</mgrwt>
</event>
<event>
 9    1  0.4497870E-036  0.9989725E+03  0.7818608E-02  0.8682017E-01
         -2   -1    0    0    0  501 -0.00000000000E+00  0.00000000000E+00  0.43919800004E+03  0.43919800004E+03  0.00000000000E+00 0. -1.
          2   -1    0    0  501    0  0.00000000000E+00 -0.00000000000E+00 -0.56805022445E+03  0.56805022445E+03  0.00000000000E+00 0. -1.
         36    2    1    2    0    0  0.42632564146E-13 -0.14210854715E-13 -0.12885222441E+03  0.10072482245E+04  0.99897251714E+03 0.  0.
         25    2    3    3    0    0  0.10440363408E+03 -0.99217979886E+02 -0.46588205326E+02  0.19623613553E+03  0.12487527246E+03 0.  0.
         35    2    3    3    0    0 -0.10440363408E+03  0.99217979886E+02 -0.82264019083E+02  0.81101208896E+03  0.79386958203E+03 0.  0.
         22    1    5    5    0    0 -0.34400216831E+03  0.12691889171E+03 -0.30935373510E+03  0.47973495838E+03  0.00000000000E+00 0. -1.
         22    1    5    5    0    0  0.23959853424E+03 -0.27700911819E+02  0.22708971602E+03  0.33127713058E+03  0.00000000000E+00 0. -1.
          5    1    4    4  502    0  0.12595367029E+03 -0.10345012400E+03 -0.24780630383E+02  0.16493157629E+03  0.47000000000E+01 0.  1.
         -5    1    4    4    0  502 -0.21550036209E+02  0.42321441158E+01 -0.21807574943E+02  0.31304559242E+02  0.47000000000E+01 0.  1.
<mgrwt>
<rscale>  0 0.99897252E+03</rscale>
<asrwt>0</asrwt>
<pdfrwt beam="1">  1        2 0.87392342E-01 0.99897252E+03</pdfrwt>
<pdfrwt beam="2">  1       -2 0.67568923E-01 0.99897252E+03</pdfrwt>
<totfact> 0.12866441E+02</totfact>
</mgrwt>
</event>
<event>
 9    1  0.4497870E-036  0.1003999E+04  0.7818608E-02  0.8677239E-01
         -2   -1    0    0    0  501 -0.00000000000E+00  0.00000000000E+00  0.29536389276E+03  0.29536389276E+03  0.00000000000E+00 0. -1.
          2   -1    0    0  501    0  0.00000000000E+00 -0.00000000000E+00 -0.85319650941E+03  0.85319650941E+03  0.00000000000E+00 0. -1.
         36    2    1    2    0    0  0.71054273576E-14 -0.14210854715E-13 -0.55783261666E+03  0.11485604022E+04  0.10039988891E+04 0.  0.
         25    2    3    3    0    0 -0.34620960464E+01  0.12214316051E+03 -0.19482779938E+03  0.26176579770E+03  0.12503009103E+03 0.  0.
         35    2    3    3    0    0  0.34620960464E+01 -0.12214316051E+03 -0.36300481727E+03  0.88679460448E+03  0.79981325033E+03 0.  0.
         22    1    5    5    0    0 -0.11625008737E+03  0.22858565581E+03 -0.43906660488E+03  0.50847317370E+03  0.00000000000E+00 0. -1.
         22    1    5    5    0    0  0.11971218341E+03 -0.35072881631E+03  0.76061787607E+02  0.37832143077E+03  0.00000000000E+00 0. -1.
          5    1    4    4  502    0 -0.54618539372E+02  0.84766815768E+02 -0.73703138474E+02  0.12499136178E+03  0.47000000000E+01 0.  1.
         -5    1    4    4    0  502  0.51156443326E+02  0.37376344738E+02 -0.12112466091E+03  0.13677443592E+03  0.47000000000E+01 0.  1.
<mgrwt>
<rscale>  0 0.10039989E+04</rscale>
<asrwt>0</asrwt>
<pdfrwt beam="1">  1        2 0.13126100E+00 0.10039989E+04</pdfrwt>
<pdfrwt beam="2">  1       -2 0.45440600E-01 0.10039989E+04</pdfrwt>
<totfact> 0.17553325E+02</totfact>
</mgrwt>
</event>
<event>
 9    1  0.4497870E-036  0.1000379E+04  0.7818608E-02  0.8680677E-01
         -1   -1    0    0    0  501 -0.00000000000E+00  0.00000000000E+00  0.28361226968E+03  0.28361226968E+03  0.00000000000E+00 0.  1.
          1   -1    0    0  501    0  0.00000000000E+00 -0.00000000000E+00 -0.88215367593E+03  0.88215367593E+03  0.00000000000E+00 0.  1.
         36    2    1    2    0    0  0.35527136788E-14 -0.28421709430E-13 -0.59854140625E+03  0.11657659456E+04  0.10003791406E+04 0.  0.
         25    2    3    3    0    0 -0.20506647162E+02 -0.42148574729E+02  0.41381830936E+02  0.14008826500E+03  0.12536044483E+03 0.  0.
         35    2    3    3    0    0  0.20506647162E+02  0.42148574729E+02 -0.63992323719E+03  0.10256776806E+04  0.80019743194E+03 0.  0.
         22    1    5    5    0    0 -0.30909389971E+02  0.21745847561E+03  0.11571961946E+03  0.24826318562E+03  0.00000000000E+00 0. -1.
         22    1    5    5    0    0  0.51416037133E+02 -0.17530990088E+03 -0.75564285665E+03  0.77741449500E+03  0.00000000000E+00 0. -1.
          5    1    4    4  502    0  0.18781361984E+02  0.82265003581E+01  0.67657112035E+02  0.70851885473E+02  0.47000000000E+01 0.  1.
         -5    1    4    4    0  502 -0.39288009146E+02 -0.50375075087E+02 -0.26275281099E+02  0.69236379523E+02  0.47000000000E+01 0.  1.
<mgrwt>
<rscale>  0 0.10003791E+04</rscale>
<asrwt>0</asrwt>
<pdfrwt beam="1">  1        1 0.13571595E+00 0.10003791E+04</pdfrwt>
<pdfrwt beam="2">  1       -1 0.43632657E-01 0.10003791E+04</pdfrwt>
<totfact> 0.11037726E+02</totfact>
</mgrwt>
</event>
<event>
 9    1  0.4497870E-036  0.9962018E+03  0.7818608E-02  0.8684663E-01
         -2   -1    0    0    0  501 -0.00000000000E+00  0.00000000000E+00  0.11292026585E+03  0.11292026585E+03  0.00000000000E+00 0.  1.
          2   -1    0    0  501    0  0.00000000000E+00 -0.00000000000E+00 -0.21971655089E+04  0.21971655089E+04  0.00000000000E+00 0.  1.
         36    2    1    2    0    0  0.28421709430E-13  0.28421709430E-13 -0.20842452430E+04  0.23100857747E+04  0.99620181364E+03 0.  0.
         25    2    3    3    0    0  0.70071118534E+02 -0.10173619777E+03 -0.24757182704E+03  0.30302722350E+03  0.12358589342E+03 0.  0.
         35    2    3    3    0    0 -0.70071118534E+02  0.10173619777E+03 -0.18366734160E+04  0.20070585512E+04  0.79978408051E+03 0.  0.
         22    1    5    5    0    0 -0.31156690701E+03 -0.20551751232E+03 -0.12302194120E+04  0.12855937100E+04  0.00000000000E+00 0. -1.
         22    1    5    5    0    0  0.24149578848E+03  0.30725371009E+03 -0.60645400393E+03  0.72146484121E+03  0.00000000000E+00 0. -1.
          5    1    4    4  502    0  0.86493045028E+02 -0.16978127337E+02 -0.12362393964E+03  0.15190217937E+03  0.47000000000E+01 0.  1.
         -5    1    4    4    0  502 -0.16421926494E+02 -0.84758070433E+02 -0.12394788740E+03  0.15112504413E+03  0.47000000000E+01 0.  1.
<mgrwt>
<rscale>  0 0.99620181E+03</rscale>
<asrwt>0</asrwt>
<pdfrwt beam="1">  1        2 0.33802545E+00 0.99620181E+03</pdfrwt>
<pdfrwt beam="2">  1       -2 0.17372349E-01 0.99620181E+03</pdfrwt>
<totfact> 0.16443953E+02</totfact>
</mgrwt>
</event>
<event>
 9    1  0.4497870E-036  0.9980353E+03  0.7818608E-02  0.8682911E-01
          2   -1    0    0  501    0  0.00000000000E+00  0.00000000000E+00  0.13611882261E+04  0.13611882261E+04  0.00000000000E+00 0. -1.
         -2   -1    0    0    0  501 -0.00000000000E+00 -0.00000000000E+00 -0.18294210132E+03  0.18294210132E+03  0.00000000000E+00 0. -1.
         36    2    1    2    0    0  0.00000000000E+00  0.00000000000E+00  0.11782461248E+04  0.15441303275E+04  0.99803533881E+03 0.  0.
         25    2    3    3    0    0  0.13215914460E+03 -0.18581282056E+02  0.16700507428E+03  0.24754669095E+03  0.12480931784E+03 0.  0.
         35    2    3    3    0    0 -0.13215914460E+03  0.18581282056E+02  0.10112410506E+04  0.12965836365E+04  0.80044322760E+03 0.  0.
         22    1    5    5    0    0 -0.32637024863E+03 -0.71790942432E+02  0.83517473403E+02  0.34445122583E+03  0.00000000000E+00 0. -1.
         22    1    5    5    0    0  0.19421110403E+03  0.90372224488E+02  0.92772357715E+03  0.95213241069E+03  0.00000000000E+00 0. -1.
          5    1    4    4  502    0  0.14572397019E+03  0.12228561918E+02  0.11830238415E+03  0.18815567307E+03  0.47000000000E+01 0.  1.
         -5    1    4    4    0  502 -0.13564825582E+02 -0.30809843974E+02  0.48702690130E+02  0.59391017879E+02  0.47000000000E+01 0.  1.
<mgrwt>
<rscale>  0 0.99803534E+03</rscale>
<asrwt>0</asrwt>
<pdfrwt beam="1">  1        2 0.20941357E+00 0.99803534E+03</pdfrwt>
<pdfrwt beam="2">  1       -2 0.28144940E-01 0.99803534E+03</pdfrwt>
<totfact> 0.21093777E+02</totfact>
</mgrwt>
</event>
<event>
 9    1  0.4497870E-036  0.1000024E+04  0.7818608E-02  0.8681015E-01
         -1   -1    0    0    0  501 -0.00000000000E+00  0.00000000000E+00  0.14432376269E+03  0.14432376269E+03  0.00000000000E+00 0. -1.
          1   -1    0    0  501    0  0.00000000000E+00 -0.00000000000E+00 -0.17322987427E+04  0.17322987427E+04  0.00000000000E+00 0. -1.
         36    2    1    2    0    0  0.00000000000E+00  0.00000000000E+00 -0.15879749800E+04  0.18766225054E+04  0.10000237450E+04 0.  0.
         25    2    3    3    0    0  0.27292167416E+02 -0.19911716821E+02 -0.54624286754E+03  0.56122707703E+03  0.12431099218E+03 0.  0.
         35    2    3    3    0    0 -0.27292167416E+02  0.19911716821E+02 -0.10417321125E+04  0.13153954284E+04  0.80244501368E+03 0.  0.
         22    1    5    5    0    0 -0.35737673943E+01 -0.36116612185E+03 -0.25882644525E+03  0.44434768836E+03  0.00000000000E+00 0. -1.
         22    1    5    5    0    0 -0.23718400021E+02  0.38107783867E+03 -0.78290566722E+03  0.87104774002E+03  0.00000000000E+00 0. -1.
          5    1    4    4  502    0 -0.41882861535E+02  0.20302207377E+02 -0.15718868419E+03  0.16400221386E+03  0.47000000000E+01 0.  1.
         -5    1    4    4    0  502  0.69175028950E+02 -0.40213924198E+02 -0.38905418335E+03  0.39722486316E+03  0.47000000000E+01 0.  1.
<mgrwt>
<rscale>  0 0.10000237E+04</rscale>
<asrwt>0</asrwt>
<pdfrwt beam="1">  1        1 0.26650749E+00 0.10000237E+04</pdfrwt>
<pdfrwt beam="2">  1       -1 0.22203656E-01 0.10000237E+04</pdfrwt>
<totfact> 0.82539928E+01</totfact>
</mgrwt>
</event>
<event>
 9    1  0.4497870E-036  0.9995837E+03  0.7818608E-02  0.8681434E-01
         -1   -1    0    0    0  501 -0.00000000000E+00  0.00000000000E+00  0.12936248332E+04  0.12936248332E+04  0.00000000000E+00 0. -1.
          1   -1    0    0  501    0  0.00000000000E+00 -0.00000000000E+00 -0.19309455496E+03  0.19309455496E+03  0.00000000000E+00 0. -1.
         36    2    1    2    0    0  0.00000000000E+00  0.28421709430E-13  0.11005302782E+04  0.14867193881E+04  0.99958373625E+03 0.  0.
         25    2    3    3    0    0 -0.60718660695E+02  0.19464076324E+02  0.20475225391E+02  0.14163990065E+03  0.12480793476E+03 0.  0.
         35    2    3    3    0    0  0.60718660695E+02 -0.19464076324E+02  0.10800550528E+04  0.13450794875E+04  0.79915849772E+03 0.  0.
         22    1    5    5    0    0 -0.38047779834E+02  0.27733116147E+03  0.97612134305E+03  0.10154669286E+04  0.00000000000E+00 0. -1.
         22    1    5    5    0    0  0.98766440529E+02 -0.29679523780E+03  0.10393370976E+03  0.32961255889E+03  0.00000000000E+00 0. -1.
          5    1    4    4  502    0 -0.18242719030E+02 -0.50263973267E+02 -0.95485118364E+01  0.54520894018E+02  0.47000000000E+01 0.  1.
         -5    1    4    4    0  502 -0.42475941665E+02  0.69728049592E+02  0.30023737228E+02  0.87119006636E+02  0.47000000000E+01 0.  1.
<mgrwt>
<rscale>  0 0.99958374E+03</rscale>
<asrwt>0</asrwt>
<pdfrwt beam="1">  1        1 0.29706855E-01 0.99958374E+03</pdfrwt>
<pdfrwt beam="2">  1       -1 0.19901920E+00 0.99958374E+03</pdfrwt>
<totfact> 0.24722541E+01</totfact>
</mgrwt>
</event>
<event>
 9    1  0.4497870E-036  0.9997536E+03  0.7818608E-02  0.8681273E-01
          2   -1    0    0  501    0  0.00000000000E+00  0.00000000000E+00  0.32754239172E+03  0.32754239172E+03  0.00000000000E+00 0. -1.
         -2   -1    0    0    0  501 -0.00000000000E+00 -0.00000000000E+00 -0.76288383064E+03  0.76288383064E+03  0.00000000000E+00 0. -1.
         36    2    1    2    0    0 -0.28421709430E-13  0.00000000000E+00 -0.43534143893E+03  0.10904262224E+04  0.99975355861E+03 0.  0.
         25    2    3    3    0    0 -0.11121987489E+03  0.67081809484E+02 -0.13209609538E+03  0.22520871892E+03  0.12806154352E+03 0.  0.
         35    2    3    3    0    0  0.11121987489E+03 -0.67081809484E+02 -0.30324534355E+03  0.86521750344E+03  0.79985858759E+03 0.  0.
         22    1    5    5    0    0 -0.20597069608E+03  0.10666631117E+03  0.15684118512E+03  0.28000140523E+03  0.00000000000E+00 0. -1.
         22    1    5    5    0    0  0.31719057096E+03 -0.17374812065E+03 -0.46008652867E+03  0.58521609821E+03  0.00000000000E+00 0. -1.
          5    1    4    4  502    0  0.12219525886E+02  0.45158282528E+02 -0.61161049637E+01  0.47413964543E+02  0.47000000000E+01 0.  1.
         -5    1    4    4    0  502 -0.12343940078E+03  0.21923526956E+02 -0.12597999042E+03  0.17779475438E+03  0.47000000000E+01 0.  1.
<mgrwt>
<rscale>  0 0.99975356E+03</rscale>
<asrwt>0</asrwt>
<pdfrwt beam="1">  1        2 0.50391138E-01 0.99975356E+03</pdfrwt>
<pdfrwt beam="2">  1       -2 0.11736674E+00 0.99975356E+03</pdfrwt>
<totfact> 0.65288997E+01</totfact>
</mgrwt>
</event>
<event>
 9    1  0.4497870E-036  0.1001528E+04  0.7818608E-02  0.8679584E-01
          2   -1    0    0  501    0  0.00000000000E+00  0.00000000000E+00  0.16662641019E+04  0.16662641019E+04  0.00000000000E+00 0.  1.
         -2   -1    0    0    0  501 -0.00000000000E+00 -0.00000000000E+00 -0.15049513436E+03  0.15049513436E+03  0.00000000000E+00 0.  1.
         36    2    1    2    0    0 -0.28421709430E-13 -0.14210854715E-13  0.15157689675E+04  0.18167592362E+04  0.10015281122E+04 0.  0.
         25    2    3    3    0    0 -0.12087461721E+03 -0.59695657784E+02  0.36778457828E+03  0.41110610115E+03  0.12477373816E+03 0.  0.
         35    2    3    3    0    0  0.12087461721E+03  0.59695657784E+02  0.11479843892E+04  0.14056531351E+04  0.79988645046E+03 0.  0.
         22    1    5    5    0    0  0.28494560647E+03  0.11844241933E+03  0.11875161264E+04  0.12269544229E+04  0.00000000000E+00 0.  1.
         22    1    5    5    0    0 -0.16407098926E+03 -0.58746761544E+02 -0.39531737160E+02  0.17869871223E+03  0.00000000000E+00 0.  1.
          5    1    4    4  502    0 -0.13615174365E+03 -0.79831615883E+02  0.32045918131E+03  0.35724859843E+03  0.47000000000E+01 0.  1.
         -5    1    4    4    0  502  0.15277126435E+02  0.20135958099E+02  0.47325396975E+02  0.53857502723E+02  0.47000000000E+01 0.  1.
<mgrwt>
<rscale>  0 0.10015281E+04</rscale>
<asrwt>0</asrwt>
<pdfrwt beam="1">  1        2 0.25634831E+00 0.10015281E+04</pdfrwt>
<pdfrwt beam="2">  1       -2 0.23153099E-01 0.10015281E+04</pdfrwt>
<totfact> 0.20052059E+02</totfact>
</mgrwt>
</event>
<event>
 9    1  0.4497870E-036  0.1000272E+04  0.7818608E-02  0.8680779E-01
          1   -1    0    0  501    0  0.00000000000E+00  0.00000000000E+00  0.16012646687E+04  0.16012646687E+04  0.00000000000E+00 0. -1.
         -1   -1    0    0    0  501 -0.00000000000E+00 -0.00000000000E+00 -0.15621151065E+03  0.15621151065E+03  0.00000000000E+00 0. -1.
         36    2    1    2    0    0 -0.71054273576E-14  0.00000000000E+00  0.14450531581E+04  0.17574761794E+04  0.10002719087E+04 0.  0.
         25    2    3    3    0    0 -0.62890658411E+02  0.12268985078E+03  0.26378913626E+03  0.32308127237E+03  0.12565335548E+03 0.  0.
         35    2    3    3    0    0  0.62890658411E+02 -0.12268985078E+03  0.11812640218E+04  0.14343949070E+04  0.80193268149E+03 0.  0.
         22    1    5    5    0    0  0.90887741045E+02  0.32207284007E+03  0.31189275504E+03  0.45745883577E+03  0.00000000000E+00 0.  1.
         22    1    5    5    0    0 -0.27997082633E+02 -0.44476269084E+03  0.86937126676E+03  0.97693607123E+03  0.00000000000E+00 0.  1.
          5    1    4    4  502    0  0.42941441631E+01 -0.19012946936E+02  0.53592879387E+01  0.20754368034E+02  0.47000000000E+01 0.  1.
         -5    1    4    4    0  502 -0.67184802574E+02  0.14170279771E+03  0.25842984833E+03  0.30232690433E+03  0.47000000000E+01 0.  1.
<mgrwt>
<rscale>  0 0.10002719E+04</rscale>
<asrwt>0</asrwt>
<pdfrwt beam="1">  1        1 0.24634840E+00 0.10002719E+04</pdfrwt>
<pdfrwt beam="2">  1       -1 0.24032541E-01 0.10002719E+04</pdfrwt>
<totfact> 0.89482402E+01</totfact>
</mgrwt>
</event>
<event>
 9    1  0.4497870E-036  0.9995083E+03  0.7818608E-02  0.8681506E-01
         -1   -1    0    0    0  501 -0.00000000000E+00  0.00000000000E+00  0.46911093753E+03  0.46911093753E+03  0.00000000000E+00 0.  1.
          1   -1    0    0  501    0  0.00000000000E+00 -0.00000000000E+00 -0.53239901670E+03  0.53239901670E+03  0.00000000000E+00 0.  1.
         36    2    1    2    0    0  0.28421709430E-13  0.00000000000E+00 -0.63288079173E+02  0.10015099542E+04  0.99950828284E+03 0.  0.
         25    2    3    3    0    0  0.11019388252E+01  0.83786994519E+02 -0.12479509161E+03  0.19478224849E+03  0.12387426979E+03 0.  0.
         35    2    3    3    0    0 -0.11019388252E+01 -0.83786994519E+02  0.61507012441E+02  0.80672770574E+03  0.80000312744E+03 0.  0.
         22    1    5    5    0    0 -0.27499556470E+03  0.14194778772E+03 -0.19769703774E+03  0.36722725086E+03  0.00000000000E+00 0.  1.
         22    1    5    5    0    0  0.27389362588E+03 -0.22573478224E+03  0.25920405018E+03  0.43950045488E+03  0.00000000000E+00 0.  1.
          5    1    4    4  502    0  0.35884553926E+02  0.39212593412E+02 -0.12725960648E+03  0.13799429747E+03  0.47000000000E+01 0. -1.
         -5    1    4    4    0  502 -0.34782615101E+02  0.44574401107E+02  0.24645148655E+01  0.56787951018E+02  0.47000000000E+01 0. -1.
<mgrwt>
<rscale>  0 0.99950828E+03</rscale>
<asrwt>0</asrwt>
<pdfrwt beam="1">  1        1 0.81907541E-01 0.99950828E+03</pdfrwt>
<pdfrwt beam="2">  1       -1 0.72170913E-01 0.99950828E+03</pdfrwt>
<totfact> 0.92435803E+01</totfact>
</mgrwt>
</event>
<event>
 9    1  0.4497870E-036  0.9998937E+03  0.7818608E-02  0.8681139E-01
          1   -1    0    0  501    0  0.00000000000E+00  0.00000000000E+00  0.10418619433E+04  0.10418619433E+04  0.00000000000E+00 0. -1.
         -1   -1    0    0    0  501 -0.00000000000E+00 -0.00000000000E+00 -0.23990401192E+03  0.23990401192E+03  0.00000000000E+00 0. -1.
         36    2    1    2    0    0  0.00000000000E+00  0.00000000000E+00  0.80195793141E+03  0.12817659552E+04  0.99989371449E+03 0.  0.
         25    2    3    3    0    0 -0.79686336155E+02  0.84546020019E+02  0.25481553877E+03  0.30657496735E+03  0.12473696379E+03 0.  0.
         35    2    3    3    0    0  0.79686336155E+02 -0.84546020019E+02  0.54714239264E+03  0.97519098790E+03  0.79883335144E+03 0.  0.
         22    1    5    5    0    0  0.56445962877E+01 -0.23085758928E+03  0.70847057940E+03  0.74515612449E+03  0.00000000000E+00 0. -1.
         22    1    5    5    0    0  0.74041739867E+02  0.14631156926E+03 -0.16132818676E+03  0.23003486341E+03  0.00000000000E+00 0. -1.
          5    1    4    4  502    0 -0.99510447877E+02  0.49460047139E+02  0.11096091731E+03  0.15710837238E+03  0.47000000000E+01 0. -1.
         -5    1    4    4    0  502  0.19824111722E+02  0.35085972881E+02  0.14385462146E+03  0.14946659497E+03  0.47000000000E+01 0. -1.
<mgrwt>
<rscale>  0 0.99989371E+03</rscale>
<asrwt>0</asrwt>
<pdfrwt beam="1">  1        1 0.16028645E+00 0.99989371E+03</pdfrwt>
<pdfrwt beam="2">  1       -1 0.36908310E-01 0.99989371E+03</pdfrwt>
<totfact> 0.11046264E+02</totfact>
</mgrwt>
</event>
<event>
 9    1  0.4497870E-036  0.9998347E+03  0.7818608E-02  0.8681195E-01
         -2   -1    0    0    0  501 -0.00000000000E+00  0.00000000000E+00  0.96325581286E+03  0.96325581286E+03  0.00000000000E+00 0. -1.
          2   -1    0    0  501    0  0.00000000000E+00 -0.00000000000E+00 -0.25945065416E+03  0.25945065416E+03  0.00000000000E+00 0. -1.
         36    2    1    2    0    0 -0.21316282073E-13  0.00000000000E+00  0.70380515869E+03  0.12227064670E+04  0.99983468788E+03 0.  0.
         25    2    3    3    0    0 -0.53496368940E+02 -0.12167870855E+03  0.18273446277E+03  0.25811542838E+03  0.12475624586E+03 0.  0.
         35    2    3    3    0    0  0.53496368940E+02  0.12167870855E+03  0.52107069592E+03  0.96459103864E+03  0.80078313673E+03 0.  0.
         22    1    5    5    0    0 -0.32503104456E+03  0.18840627313E+03  0.88588292519E+02  0.38599221398E+03  0.00000000000E+00 0. -1.
         22    1    5    5    0    0  0.37852741350E+03 -0.66727564577E+02  0.43248240340E+03  0.57859882466E+03  0.00000000000E+00 0. -1.
          5    1    4    4  502    0 -0.60033963318E+02 -0.13895946739E+03  0.18481206517E+03  0.23893806679E+03  0.47000000000E+01 0. -1.
         -5    1    4    4    0  502  0.65375943781E+01  0.17280758834E+02 -0.20776023968E+01  0.19177361598E+02  0.47000000000E+01 0. -1.
<mgrwt>
<rscale>  0 0.99983469E+03</rscale>
<asrwt>0</asrwt>
<pdfrwt beam="1">  1        2 0.39915486E-01 0.99983469E+03</pdfrwt>
<pdfrwt beam="2">  1       -2 0.14819320E+00 0.99983469E+03</pdfrwt>
<totfact> 0.45311717E+01</totfact>
</mgrwt>
</event>
<event>
 9    1  0.4497870E-036  0.9980709E+03  0.7818608E-02  0.8682877E-01
         -1   -1    0    0    0  501 -0.00000000000E+00  0.00000000000E+00  0.26135098565E+03  0.26135098565E+03  0.00000000000E+00 0.  1.
          1   -1    0    0  501    0  0.00000000000E+00 -0.00000000000E+00 -0.95288097601E+03  0.95288097601E+03  0.00000000000E+00 0.  1.
         36    2    1    2    0    0 -0.71054273576E-14 -0.28421709430E-13 -0.69152999036E+03  0.12142319617E+04  0.99807090387E+03 0.  0.
         25    2    3    3    0    0  0.43356675312E+02  0.10270339577E+03 -0.29992936469E+02  0.17011057202E+03  0.12494095276E+03 0.  0.
         35    2    3    3    0    0 -0.43356675312E+02 -0.10270339577E+03 -0.66153705389E+03  0.10441213896E+04  0.80008150450E+03 0.  0.
         22    1    5    5    0    0  0.39503676848E+02 -0.42873231609E+03 -0.20453787276E+03  0.47666306836E+03  0.00000000000E+00 0. -1.
         22    1    5    5    0    0 -0.82860352160E+02  0.32602892032E+03 -0.45699918113E+03  0.56745832129E+03  0.00000000000E+00 0. -1.
          5    1    4    4  502    0  0.55581256085E+02  0.11741978400E+03 -0.52502806438E+02  0.14019741933E+03  0.47000000000E+01 0.  1.
         -5    1    4    4    0  502 -0.12224580773E+02 -0.14716388231E+02  0.22509869969E+02  0.29913152687E+02  0.47000000000E+01 0.  1.
<mgrwt>
<rscale>  0 0.99807090E+03</rscale>
<asrwt>0</asrwt>
<pdfrwt beam="1">  1        1 0.14659708E+00 0.99807090E+03</pdfrwt>
<pdfrwt beam="2">  1       -1 0.40207843E-01 0.99807090E+03</pdfrwt>
<totfact> 0.11175608E+02</totfact>
</mgrwt>
</event>
<event>
 9    1  0.4497870E-036  0.1000410E+04  0.7818608E-02  0.8680648E-01
          1   -1    0    0  501    0  0.00000000000E+00  0.00000000000E+00  0.18077160767E+04  0.18077160767E+04  0.00000000000E+00 0.  1.
         -1   -1    0    0    0  501 -0.00000000000E+00 -0.00000000000E+00 -0.13840936360E+03  0.13840936360E+03  0.00000000000E+00 0.  1.
         36    2    1    2    0    0 -0.14210854715E-13  0.28421709430E-13  0.16693067131E+04  0.19461254403E+04  0.10004095796E+04 0.  0.
         25    2    3    3    0    0  0.64181349924E+02 -0.11004714820E+03  0.41657655550E+03  0.45372010133E+03  0.12687112850E+03 0.  0.
         35    2    3    3    0    0 -0.64181349924E+02  0.11004714820E+03  0.12527301576E+04  0.14924053390E+04  0.80106880326E+03 0.  0.
         22    1    5    5    0    0 -0.21093669507E+03 -0.29097906533E+03  0.39358770883E+03  0.53298629469E+03  0.00000000000E+00 0. -1.
         22    1    5    5    0    0  0.14675534515E+03  0.40102621353E+03  0.85914244879E+03  0.95941904431E+03  0.00000000000E+00 0. -1.
          5    1    4    4  502    0  0.59476314572E+02  0.25457610867E+01  0.21038691009E+03  0.21869763335E+03  0.47000000000E+01 0.  1.
         -5    1    4    4    0  502  0.47050353519E+01 -0.11259290929E+03  0.20618964541E+03  0.23502246798E+03  0.47000000000E+01 0.  1.
<mgrwt>
<rscale>  0 0.10004096E+04</rscale>
<asrwt>0</asrwt>
<pdfrwt beam="1">  1        1 0.27811015E+00 0.10004096E+04</pdfrwt>
<pdfrwt beam="2">  1       -1 0.21293749E-01 0.10004096E+04</pdfrwt>
<totfact> 0.78315010E+01</totfact>
</mgrwt>
</event>
<event>
 9    1  0.4497870E-036  0.1000463E+04  0.7818608E-02  0.8680597E-01
         -2   -1    0    0    0  501 -0.00000000000E+00  0.00000000000E+00  0.48699173490E+03  0.48699173490E+03  0.00000000000E+00 0. -1.
          2   -1    0    0  501    0  0.00000000000E+00 -0.00000000000E+00 -0.51383111748E+03  0.51383111748E+03  0.00000000000E+00 0. -1.
         36    2    1    2    0    0 -0.14210854715E-13 -0.44408920985E-13 -0.26839382577E+02  0.10008228524E+04  0.10004629075E+04 0.  0.
         25    2    3    3    0    0 -0.10451785187E+03 -0.34449955493E+01 -0.98542300513E+02  0.19086208156E+03  0.12562603167E+03 0.  0.
         35    2    3    3    0    0  0.10451785187E+03  0.34449955493E+01  0.71702917936E+02  0.80996077082E+03  0.79997455739E+03 0.  0.
         22    1    5    5    0    0  0.17294898113E+03 -0.37468712064E+03  0.10008558766E+03  0.42463974532E+03  0.00000000000E+00 0.  1.
         22    1    5    5    0    0 -0.68431129268E+02  0.37813211619E+03 -0.28382669720E+02  0.38532102550E+03  0.00000000000E+00 0.  1.
          5    1    4    4  502    0 -0.89555481900E+02  0.90862301165E+01  0.16102050816E+00  0.90138004436E+02  0.47000000000E+01 0. -1.
         -5    1    4    4    0  502 -0.14962369966E+02 -0.12531225666E+02 -0.98703321021E+02  0.10072407712E+03  0.47000000000E+01 0. -1.
<mgrwt>
<rscale>  0 0.10004629E+04</rscale>
<asrwt>0</asrwt>
<pdfrwt beam="1">  1        2 0.79050941E-01 0.10004629E+04</pdfrwt>
<pdfrwt beam="2">  1       -2 0.74921805E-01 0.10004629E+04</pdfrwt>
<totfact> 0.11533450E+02</totfact>
</mgrwt>
</event>
<event>
 9    1  0.4497870E-036  0.1000949E+04  0.7818608E-02  0.8680135E-01
          2   -1    0    0  501    0  0.00000000000E+00  0.00000000000E+00  0.20837365293E+03  0.20837365293E+03  0.00000000000E+00 0. -1.
         -2   -1    0    0    0  501 -0.00000000000E+00 -0.00000000000E+00 -0.12020464799E+04  0.12020464799E+04  0.00000000000E+00 0. -1.
         36    2    1    2    0    0  0.71054273576E-14  0.14210854715E-13 -0.99367282696E+03  0.14104201328E+04  0.10009491815E+04 0.  0.
         25    2    3    3    0    0  0.13419288396E+02 -0.17493352993E+01 -0.38572734911E+03  0.40553168469E+03  0.12444766757E+03 0.  0.
         35    2    3    3    0    0 -0.13419288396E+02  0.17493352993E+01 -0.60794547785E+03  0.10048884481E+04  0.80001246970E+03 0.  0.
         22    1    5    5    0    0  0.36291997065E+03  0.13749443862E+03 -0.38603613952E+03  0.54739339306E+03  0.00000000000E+00 0.  1.
         22    1    5    5    0    0 -0.37633925905E+03 -0.13574510333E+03 -0.22190933834E+03  0.45749505507E+03  0.00000000000E+00 0.  1.
          5    1    4    4  502    0  0.41608510733E+02  0.83497554406E+01 -0.36789586434E+03  0.37036528398E+03  0.47000000000E+01 0.  1.
         -5    1    4    4    0  502 -0.28189222336E+02 -0.10099090740E+02 -0.17831484769E+02  0.35166400708E+02  0.47000000000E+01 0.  1.
<mgrwt>
<rscale>  0 0.10009492E+04</rscale>
<asrwt>0</asrwt>
<pdfrwt beam="1">  1        2 0.32057486E-01 0.10009492E+04</pdfrwt>
<pdfrwt beam="2">  1       -2 0.18493022E+00 0.10009492E+04</pdfrwt>
<totfact> 0.30472892E+01</totfact>
</mgrwt>
</event>
<event>
 9    1  0.4497870E-036  0.9998729E+03  0.7818608E-02  0.8681159E-01
          1   -1    0    0  501    0  0.00000000000E+00  0.00000000000E+00  0.34837427820E+04  0.34837427820E+04  0.00000000000E+00 0.  1.
         -1   -1    0    0    0  501 -0.00000000000E+00 -0.00000000000E+00 -0.71743656123E+02  0.71743656123E+02  0.00000000000E+00 0.  1.
         36    2    1    2    0    0 -0.28421709430E-13  0.00000000000E+00  0.34119991258E+04  0.35554864381E+04  0.99987288026E+03 0.  0.
         25    2    3    3    0    0 -0.75812916514E+02 -0.48340753789E+02  0.10275751895E+04  0.10389845437E+04  0.12447363285E+03 0.  0.
         35    2    3    3    0    0  0.75812916514E+02  0.48340753789E+02  0.23844239363E+04  0.25165018943E+04  0.79951225710E+03 0.  0.
         22    1    5    5    0    0 -0.31154373636E+03 -0.50311507343E+02  0.16541965917E+04  0.16840300209E+04  0.00000000000E+00 0.  1.
         22    1    5    5    0    0  0.38735665288E+03  0.98652261132E+02  0.73022734469E+03  0.83247187345E+03  0.00000000000E+00 0.  1.
          5    1    4    4  502    0 -0.85900976669E+01  0.11365178729E+02  0.67268548979E+03  0.67285274409E+03  0.47000000000E+01 0.  1.
         -5    1    4    4    0  502 -0.67222818847E+02 -0.59705932518E+02  0.35488969971E+03  0.36613179965E+03  0.47000000000E+01 0.  1.
<mgrwt>
<rscale>  0 0.99987288E+03</rscale>
<asrwt>0</asrwt>
<pdfrwt beam="1">  1        1 0.53596030E+00 0.99987288E+03</pdfrwt>
<pdfrwt beam="2">  1       -1 0.11037488E-01 0.99987288E+03</pdfrwt>
<totfact> 0.14437264E+01</totfact>
</mgrwt>
</event>
<event>
 9    1  0.4497870E-036  0.9997835E+03  0.7818608E-02  0.8681244E-01
          1   -1    0    0  501    0  0.00000000000E+00  0.00000000000E+00  0.32364238595E+03  0.32364238595E+03  0.00000000000E+00 0.  1.
         -1   -1    0    0    0  501 -0.00000000000E+00 -0.00000000000E+00 -0.77212308939E+03  0.77212308939E+03  0.00000000000E+00 0.  1.
         36    2    1    2    0    0  0.14210854715E-13  0.56843418861E-13 -0.44848070343E+03  0.10957654753E+04  0.99978349436E+03 0.  0.
         25    2    3    3    0    0  0.68043335419E+02  0.10520825069E+03 -0.18059337088E+02  0.17789124560E+03  0.12498193509E+03 0.  0.
         35    2    3    3    0    0 -0.68043335419E+02 -0.10520825069E+03 -0.43042136635E+03  0.91787422974E+03  0.80095685121E+03 0.  0.
         22    1    5    5    0    0  0.24065039262E+03 -0.34210383650E+03 -0.18148982497E+03  0.45594539474E+03  0.00000000000E+00 0. -1.
         22    1    5    5    0    0 -0.30869372804E+03  0.23689558581E+03 -0.24893154138E+03  0.46192883500E+03  0.00000000000E+00 0. -1.
          5    1    4    4  502    0  0.55160493773E+02  0.13343652866E+03 -0.22463056132E+02  0.14620077341E+03  0.47000000000E+01 0.  1.
         -5    1    4    4    0  502  0.12882841647E+02 -0.28228277977E+02  0.44037190442E+01  0.31690472194E+02  0.47000000000E+01 0.  1.
<mgrwt>
<rscale>  0 0.99978349E+03</rscale>
<asrwt>0</asrwt>
<pdfrwt beam="1">  1        1 0.49791137E-01 0.99978349E+03</pdfrwt>
<pdfrwt beam="2">  1       -1 0.11878817E+00 0.99978349E+03</pdfrwt>
<totfact> 0.60574154E+01</totfact>
</mgrwt>
</event>
<event>
 9    1  0.4497870E-036  0.1000276E+04  0.7818608E-02  0.8680775E-01
         -1   -1    0    0    0  501 -0.00000000000E+00  0.00000000000E+00  0.70894302998E+03  0.70894302998E+03  0.00000000000E+00 0. -1.
          1   -1    0    0  501    0  0.00000000000E+00 -0.00000000000E+00 -0.35283256476E+03  0.35283256476E+03  0.00000000000E+00 0. -1.
         36    2    1    2    0    0 -0.14210854715E-13  0.00000000000E+00  0.35611046523E+03  0.10617755947E+04  0.10002763369E+04 0.  0.
         25    2    3    3    0    0 -0.10515945348E+03  0.59974329739E+02 -0.45193185378E+01  0.17565848467E+03  0.12720081805E+03 0.  0.
         35    2    3    3    0    0  0.10515945348E+03 -0.59974329739E+02  0.36062978377E+03  0.88611711007E+03  0.80030885347E+03 0.  0.
         22    1    5    5    0    0  0.13731083395E+03 -0.18993602475E+03  0.58199615381E+03  0.62741491986E+03  0.00000000000E+00 0.  1.
         22    1    5    5    0    0 -0.32151380478E+02  0.12996169501E+03 -0.22136637004E+03  0.25870219021E+03  0.00000000000E+00 0.  1.
          5    1    4    4  502    0 -0.46539756330E+01  0.23891728199E+02 -0.52830820637E+02  0.58358030935E+02  0.47000000000E+01 0.  1.
         -5    1    4    4    0  502 -0.10050547784E+03  0.36082601540E+02  0.48311502099E+02  0.11730045373E+03  0.47000000000E+01 0.  1.
<mgrwt>
<rscale>  0 0.10002763E+04</rscale>
<asrwt>0</asrwt>
<pdfrwt beam="1">  1        1 0.54281933E-01 0.10002763E+04</pdfrwt>
<pdfrwt beam="2">  1       -1 0.10906816E+00 0.10002763E+04</pdfrwt>
<totfact> 0.66346003E+01</totfact>
</mgrwt>
</event>
<event>
 9    1  0.4497870E-036  0.9989185E+03  0.7818608E-02  0.8682069E-01
         -2   -1    0    0    0  501 -0.00000000000E+00  0.00000000000E+00  0.15095275954E+03  0.15095275954E+03  0.00000000000E+00 0. -1.
          2   -1    0    0  501    0  0.00000000000E+00 -0.00000000000E+00 -0.16525669080E+04  0.16525669080E+04  0.00000000000E+00 0. -1.
         36    2    1    2    0    0 -0.14210854715E-13 -0.28421709430E-13 -0.15016141484E+04  0.18035196675E+04  0.99891848534E+03 0.  0.
         25    2    3    3    0    0  0.88699840103E+02 -0.84214801005E+02 -0.44692634917E+03  0.48003373813E+03  0.12541703955E+03 0.  0.
         35    2    3    3    0    0 -0.88699840103E+02  0.84214801005E+02 -0.10546877993E+04  0.13234859294E+04  0.79011952074E+03 0.  0.
         22    1    5    5    0    0  0.20077256230E+03  0.31238269980E+03 -0.27830905080E+03  0.46405657054E+03  0.00000000000E+00 0.  1.
         22    1    5    5    0    0 -0.28947240240E+03 -0.22816789879E+03 -0.77637874846E+03  0.85942935885E+03  0.00000000000E+00 0.  1.
          5    1    4    4  502    0  0.11129699880E+03 -0.32887384959E+02 -0.33848567756E+03  0.35785925437E+03  0.47000000000E+01 0. -1.
         -5    1    4    4    0  502 -0.22597158695E+02 -0.51327416045E+02 -0.10844067162E+03  0.12217448375E+03  0.47000000000E+01 0. -1.
<mgrwt>
<rscale>  0 0.99891849E+03</rscale>
<asrwt>0</asrwt>
<pdfrwt beam="1">  1        2 0.25424107E+00 0.99891849E+03</pdfrwt>
<pdfrwt beam="2">  1       -2 0.23223501E-01 0.99891849E+03</pdfrwt>
<totfact> 0.20303071E+02</totfact>
</mgrwt>
</event>
<event>
 9    1  0.4497870E-036  0.1000196E+04  0.7818608E-02  0.8680851E-01
          2   -1    0    0  501    0  0.00000000000E+00  0.00000000000E+00  0.13945050233E+04  0.13945050233E+04  0.00000000000E+00 0.  1.
         -2   -1    0    0    0  501 -0.00000000000E+00 -0.00000000000E+00 -0.17934533702E+03  0.17934533702E+03  0.00000000000E+00 0.  1.
         36    2    1    2    0    0  0.14210854715E-13  0.71054273576E-14  0.12151596863E+04  0.15738503603E+04  0.10001959276E+04 0.  0.
         25    2    3    3    0    0  0.12336049329E+03 -0.21346363675E+02  0.32448757455E+03  0.36948644760E+03  0.12471796334E+03 0.  0.
         35    2    3    3    0    0 -0.12336049329E+03  0.21346363675E+02  0.89067211177E+03  0.12043639127E+04  0.80095077570E+03 0.  0.
         22    1    5    5    0    0 -0.76589836359E+02  0.37516979536E+03  0.21227305677E+03  0.43781072282E+03  0.00000000000E+00 0. -1.
         22    1    5    5    0    0 -0.46770656928E+02 -0.35382343169E+03  0.67839905499E+03  0.76655318992E+03  0.00000000000E+00 0. -1.
          5    1    4    4  502    0  0.89199538944E+02 -0.66082751503E+02  0.15409503961E+03  0.18997594328E+03  0.47000000000E+01 0.  1.
         -5    1    4    4    0  502  0.34160954343E+02  0.44736387828E+02  0.17039253494E+03  0.17951050432E+03  0.47000000000E+01 0.  1.
<mgrwt>
<rscale>  0 0.10001959E+04</rscale>
<asrwt>0</asrwt>
<pdfrwt beam="1">  1        2 0.21453923E+00 0.10001959E+04</pdfrwt>
<pdfrwt beam="2">  1       -2 0.27591591E-01 0.10001959E+04</pdfrwt>
<totfact> 0.20922485E+02</totfact>
</mgrwt>
</event>
<event>
 9    1  0.4497870E-036  0.9999604E+03  0.7818608E-02  0.8681076E-01
         -2   -1    0    0    0  501 -0.00000000000E+00  0.00000000000E+00  0.32693108680E+03  0.32693108680E+03  0.00000000000E+00 0. -1.
          2   -1    0    0  501    0  0.00000000000E+00 -0.00000000000E+00 -0.76462664540E+03  0.76462664540E+03  0.00000000000E+00 0. -1.
         36    2    1    2    0    0  0.14210854715E-13  0.00000000000E+00 -0.43769555860E+03  0.10915577322E+04  0.99996043956E+03 0.  0.
         25    2    3    3    0    0 -0.10920970316E+03  0.47136310485E+02 -0.32878677586E+01  0.17294358934E+03  0.12549933859E+03 0.  0.
         35    2    3    3    0    0  0.10920970316E+03 -0.47136310485E+02 -0.43440769084E+03  0.91861414286E+03  0.80062057840E+03 0.  0.
         22    1    5    5    0    0  0.38156732195E+03 -0.25510371196E+03 -0.18541021638E+03  0.49502370992E+03  0.00000000000E+00 0. -1.
         22    1    5    5    0    0 -0.27235761879E+03  0.20796740148E+03 -0.24899747446E+03  0.42359043294E+03  0.00000000000E+00 0. -1.
          5    1    4    4  502    0 -0.70202903973E+01  0.67793504386E+02 -0.56827964579E+01  0.68553832057E+02  0.47000000000E+01 0. -1.
         -5    1    4    4    0  502 -0.10218941277E+03 -0.20657193901E+02  0.23949286993E+01  0.10438975728E+03  0.47000000000E+01 0. -1.
<mgrwt>
<rscale>  0 0.99996044E+03</rscale>
<asrwt>0</asrwt>
<pdfrwt beam="1">  1        2 0.11763487E+00 0.99996044E+03</pdfrwt>
<pdfrwt beam="2">  1       -2 0.50297090E-01 0.99996044E+03</pdfrwt>
<totfact> 0.16547662E+02</totfact>
</mgrwt>
</event>
<event>
 9    1  0.4497870E-036  0.1000685E+04  0.7818608E-02  0.8680386E-01
          2   -1    0    0  501    0  0.00000000000E+00  0.00000000000E+00  0.58205488206E+03  0.58205488206E+03  0.00000000000E+00 0. -1.
         -2   -1    0    0    0  501 -0.00000000000E+00 -0.00000000000E+00 -0.43010165874E+03  0.43010165874E+03  0.00000000000E+00 0. -1.
         36    2    1    2    0    0  0.14210854715E-13  0.00000000000E+00  0.15195322332E+03  0.10121565408E+04  0.10006853057E+04 0.  0.
         25    2    3    3    0    0 -0.74258223306E+02  0.11499839752E+03  0.60750310685E+02  0.19547785247E+03  0.12562673043E+03 0.  0.
         35    2    3    3    0    0  0.74258223306E+02 -0.11499839752E+03  0.91202912636E+02  0.81667868832E+03  0.79994199385E+03 0.  0.
         22    1    5    5    0    0 -0.25206435337E+03 -0.13555592591E+03  0.31103822917E+03  0.42267792383E+03  0.00000000000E+00 0. -1.
         22    1    5    5    0    0  0.32632257668E+03  0.20557528391E+02 -0.21983531654E+03  0.39400076449E+03  0.00000000000E+00 0. -1.
          5    1    4    4  502    0 -0.45383448173E+02  0.13921876077E+03  0.38574309667E+02  0.15149781545E+03  0.47000000000E+01 0. -1.
         -5    1    4    4    0  502 -0.28874775133E+02 -0.24220363257E+02  0.22176001019E+02  0.43980037023E+02  0.47000000000E+01 0. -1.
<mgrwt>
<rscale>  0 0.10006853E+04</rscale>
<asrwt>0</asrwt>
<pdfrwt beam="1">  1        2 0.89546906E-01 0.10006853E+04</pdfrwt>
<pdfrwt beam="2">  1       -2 0.66169486E-01 0.10006853E+04</pdfrwt>
<totfact> 0.13076790E+02</totfact>
</mgrwt>
</event>
<event>
 9    1  0.4497870E-036  0.1001455E+04  0.7818608E-02  0.8679654E-01
          2   -1    0    0  501    0  0.00000000000E+00  0.00000000000E+00  0.27497066684E+04  0.27497066684E+04  0.00000000000E+00 0. -1.
         -2   -1    0    0    0  501 -0.00000000000E+00 -0.00000000000E+00 -0.91183519636E+02  0.91183519636E+02  0.00000000000E+00 0. -1.
         36    2    1    2    0    0  0.21316282073E-13  0.56843418861E-13  0.26585231488E+04  0.28408901880E+04  0.10014548058E+04 0.  0.
         25    2    3    3    0    0  0.34115893889E+02 -0.13586370202E+03  0.54734682324E+03  0.57879653195E+03  0.12567434402E+03 0.  0.
         35    2    3    3    0    0 -0.34115893889E+02  0.13586370202E+03  0.21111763255E+04  0.22620936561E+04  0.80023708469E+03 0.  0.
         22    1    5    5    0    0 -0.28296781530E+03  0.35211912366E+03  0.15140110818E+04  0.15799646254E+04  0.00000000000E+00 0.  1.
         22    1    5    5    0    0  0.24885192141E+03 -0.21625542164E+03  0.59716524376E+03  0.68212903070E+03  0.00000000000E+00 0.  1.
          5    1    4    4  502    0 -0.13636358975E+02 -0.77163867817E+02  0.44250463589E+03  0.44941367978E+03  0.47000000000E+01 0. -1.
         -5    1    4    4    0  502  0.47752252864E+02 -0.58699834205E+02  0.10484218735E+03  0.12938285218E+03  0.47000000000E+01 0. -1.
<mgrwt>
<rscale>  0 0.10014548E+04</rscale>
<asrwt>0</asrwt>
<pdfrwt beam="1">  1        2 0.42303173E+00 0.10014548E+04</pdfrwt>
<pdfrwt beam="2">  1       -2 0.14028236E-01 0.10014548E+04</pdfrwt>
<totfact> 0.10892589E+02</totfact>
</mgrwt>
</event>
<event>
 9    1  0.4497870E-036  0.9990686E+03  0.7818608E-02  0.8681925E-01
         -2   -1    0    0    0  501 -0.00000000000E+00  0.00000000000E+00  0.26252137022E+03  0.26252137022E+03  0.00000000000E+00 0.  1.
          2   -1    0    0  501    0  0.00000000000E+00 -0.00000000000E+00 -0.95053034636E+03  0.95053034636E+03  0.00000000000E+00 0.  1.
         36    2    1    2    0    0  0.00000000000E+00  0.53290705182E-14 -0.68800897615E+03  0.12130517166E+04  0.99906862419E+03 0.  0.
         25    2    3    3    0    0  0.11383385070E+03  0.95600294468E+01 -0.22507822969E+03  0.28164733360E+03  0.12496187945E+03 0.  0.
         35    2    3    3    0    0 -0.11383385070E+03 -0.95600294468E+01 -0.46293074646E+03  0.93140438298E+03  0.80009981183E+03 0.  0.
         22    1    5    5    0    0 -0.15844260256E+02 -0.29599626801E+03 -0.54266662606E+03  0.61834609912E+03  0.00000000000E+00 0. -1.
         22    1    5    5    0    0 -0.97989590449E+02  0.28643623856E+03  0.79735879601E+02  0.31305828386E+03  0.00000000000E+00 0. -1.
          5    1    4    4  502    0 -0.15509879809E+02 -0.12699249485E+02 -0.93513022841E+02  0.95752821107E+02  0.47000000000E+01 0.  1.
         -5    1    4    4    0  502  0.12934373051E+03  0.22259278931E+02 -0.13156520685E+03  0.18589451249E+03  0.47000000000E+01 0.  1.
<mgrwt>
<rscale>  0 0.99906862E+03</rscale>
<asrwt>0</asrwt>
<pdfrwt beam="1">  1        2 0.14623544E+00 0.99906862E+03</pdfrwt>
<pdfrwt beam="2">  1       -2 0.40387902E-01 0.99906862E+03</pdfrwt>
<totfact> 0.19036516E+02</totfact>
</mgrwt>
</event>
<event>
 9    1  0.4497870E-036  0.9998549E+03  0.7818608E-02  0.8681176E-01
         -1   -1    0    0    0  501 -0.00000000000E+00  0.00000000000E+00  0.19968145255E+03  0.19968145255E+03  0.00000000000E+00 0. -1.
          1   -1    0    0  501    0  0.00000000000E+00 -0.00000000000E+00 -0.12516306977E+04  0.12516306977E+04  0.00000000000E+00 0. -1.
         36    2    1    2    0    0  0.00000000000E+00  0.00000000000E+00 -0.10519492451E+04  0.14513121502E+04  0.99985486101E+03 0.  0.
         25    2    3    3    0    0 -0.87985101071E+02  0.22879867511E+02 -0.34193596816E+03  0.37773309617E+03  0.13227705496E+03 0.  0.
         35    2    3    3    0    0  0.87985101071E+02 -0.22879867511E+02 -0.71001327698E+03  0.10735790541E+04  0.80011765729E+03 0.  0.
         22    1    5    5    0    0  0.23906495202E+03 -0.18983740996E+03  0.23606474848E+02  0.30618223194E+03  0.00000000000E+00 0. -1.
         22    1    5    5    0    0 -0.15107985095E+03  0.16695754244E+03 -0.73361975183E+03  0.76739682213E+03  0.00000000000E+00 0. -1.
          5    1    4    4  502    0 -0.10145746383E+03  0.14752023271E+01 -0.13367568004E+03  0.16789005516E+03  0.47000000000E+01 0.  1.
         -5    1    4    4    0  502  0.13472362757E+02  0.21404665184E+02 -0.20826028812E+03  0.20984304100E+03  0.47000000000E+01 0.  1.
<mgrwt>
<rscale>  0 0.99985486E+03</rscale>
<asrwt>0</asrwt>
<pdfrwt beam="1">  1        1 0.19255857E+00 0.99985486E+03</pdfrwt>
<pdfrwt beam="2">  1       -1 0.30720224E-01 0.99985486E+03</pdfrwt>
<totfact> 0.10533219E+02</totfact>
</mgrwt>
</event>
<event>
 9    1  0.4497870E-036  0.9999651E+03  0.7818608E-02  0.8681071E-01
         -2   -1    0    0    0  501 -0.00000000000E+00  0.00000000000E+00  0.11049067317E+03  0.11049067317E+03  0.00000000000E+00 0.  1.
          2   -1    0    0  501    0  0.00000000000E+00 -0.00000000000E+00 -0.22624765183E+04  0.22624765183E+04  0.00000000000E+00 0.  1.
         36    2    1    2    0    0 -0.17763568394E-14  0.14210854715E-13 -0.21519858451E+04  0.23729671915E+04  0.99996510648E+03 0.  0.
         25    2    3    3    0    0 -0.54735745632E+01  0.12139250886E+03 -0.25091319982E+03  0.30525154193E+03  0.12431801470E+03 0.  0.
         35    2    3    3    0    0  0.54735745632E+01 -0.12139250886E+03 -0.19010726453E+04  0.20677156495E+04  0.80411734430E+03 0.  0.
         22    1    5    5    0    0  0.39555050679E+03  0.15218212865E+02 -0.10338505701E+04  0.11070405588E+04  0.00000000000E+00 0. -1.
         22    1    5    5    0    0 -0.39007693222E+03 -0.13661072173E+03 -0.86722207517E+03  0.96067509076E+03  0.00000000000E+00 0. -1.
          5    1    4    4  502    0 -0.16430846171E+01  0.28698179360E+02 -0.19429160435E+03  0.19646272610E+03  0.47000000000E+01 0. -1.
         -5    1    4    4    0  502 -0.38304899460E+01  0.92694329503E+02 -0.56621595462E+02  0.10878881582E+03  0.47000000000E+01 0. -1.
<mgrwt>
<rscale>  0 0.99996511E+03</rscale>
<asrwt>0</asrwt>
<pdfrwt beam="1">  1        2 0.34807331E+00 0.99996511E+03</pdfrwt>
<pdfrwt beam="2">  1       -2 0.16998565E-01 0.99996511E+03</pdfrwt>
<totfact> 0.15628970E+02</totfact>
</mgrwt>
</event>
<event>
 9    1  0.4497870E-036  0.1000341E+04  0.7818608E-02  0.8680713E-01
         -2   -1    0    0    0  501 -0.00000000000E+00  0.00000000000E+00  0.31576249891E+03  0.31576249891E+03  0.00000000000E+00 0. -1.
          2   -1    0    0  501    0  0.00000000000E+00 -0.00000000000E+00 -0.79227438868E+03  0.79227438868E+03  0.00000000000E+00 0. -1.
         36    2    1    2    0    0 -0.14210854715E-13  0.00000000000E+00 -0.47651188977E+03  0.11080368876E+04  0.10003410234E+04 0.  0.
         25    2    3    3    0    0 -0.11952131523E+03  0.40135875041E+02 -0.15958045434E+03  0.23872189682E+03  0.12500395737E+03 0.  0.
         35    2    3    3    0    0  0.11952131523E+03 -0.40135875041E+02 -0.31693143543E+03  0.86931499077E+03  0.79960414278E+03 0.  0.
         22    1    5    5    0    0  0.32467330887E+03  0.44597443669E+02  0.14381674319E+03  0.35788957109E+03  0.00000000000E+00 0. -1.
         22    1    5    5    0    0 -0.20515199365E+03 -0.84733318710E+02 -0.46074817861E+03  0.51142541968E+03  0.00000000000E+00 0. -1.
          5    1    4    4  502    0 -0.41101282574E+02 -0.25703561670E+02  0.41798581943E+00  0.48705782243E+02  0.47000000000E+01 0. -1.
         -5    1    4    4    0  502 -0.78420032651E+02  0.65839436711E+02 -0.15999844016E+03  0.19001611458E+03  0.47000000000E+01 0. -1.
<mgrwt>
<rscale>  0 0.10003410E+04</rscale>
<asrwt>0</asrwt>
<pdfrwt beam="1">  1        2 0.12188837E+00 0.10003410E+04</pdfrwt>
<pdfrwt beam="2">  1       -2 0.48578847E-01 0.10003410E+04</pdfrwt>
<totfact> 0.16949572E+02</totfact>
</mgrwt>
</event>
<event>
 9    1  0.4497870E-036  0.9996700E+03  0.7818608E-02  0.8681352E-01
         -3   -1    0    0    0  501 -0.00000000000E+00  0.00000000000E+00  0.26493363961E+03  0.26493363961E+03  0.00000000000E+00 0. -1.
          3   -1    0    0  501    0  0.00000000000E+00 -0.00000000000E+00 -0.94300982850E+03  0.94300982850E+03  0.00000000000E+00 0. -1.
         36    2    1    2    0    0  0.00000000000E+00  0.14210854715E-13 -0.67807618889E+03  0.12079434681E+04  0.99966999765E+03 0.  0.
         25    2    3    3    0    0 -0.11691582664E+03  0.17277153053E+02 -0.37493344939E+02  0.17605690571E+03  0.12498988997E+03 0.  0.
         35    2    3    3    0    0  0.11691582664E+03 -0.17277153053E+02 -0.64058284395E+03  0.10318865624E+04  0.80029724926E+03 0.  0.
         22    1    5    5    0    0  0.13276502840E+03 -0.22677987362E+03 -0.75021079465E+03  0.79490370502E+03  0.00000000000E+00 0. -1.
         22    1    5    5    0    0 -0.15849201761E+02  0.20950272057E+03  0.10962795069E+03  0.23698285739E+03  0.00000000000E+00 0. -1.
          5    1    4    4  502    0 -0.73575227076E+02  0.46816427350E+02  0.28281646257E+02  0.91798874852E+02  0.47000000000E+01 0. -1.
         -5    1    4    4    0  502 -0.43340599563E+02 -0.29539274298E+02 -0.65774991196E+02  0.84258030854E+02  0.47000000000E+01 0. -1.
<mgrwt>
<rscale>  0 0.99967000E+03</rscale>
<asrwt>0</asrwt>
<pdfrwt beam="1">  1        3 0.14507843E+00 0.99967000E+03</pdfrwt>
<pdfrwt beam="2">  1       -3 0.40759022E-01 0.99967000E+03</pdfrwt>
<totfact> 0.88090859E+00</totfact>
</mgrwt>
</event>
<event>
 9    1  0.4497870E-036  0.1000336E+04  0.7818608E-02  0.8680718E-01
          1   -1    0    0  501    0  0.00000000000E+00  0.00000000000E+00  0.11783387390E+04  0.11783387390E+04  0.00000000000E+00 0.  1.
         -1   -1    0    0    0  501 -0.00000000000E+00 -0.00000000000E+00 -0.21230582480E+03  0.21230582480E+03  0.00000000000E+00 0.  1.
         36    2    1    2    0    0  0.00000000000E+00  0.00000000000E+00  0.96603291421E+03  0.13906445638E+04  0.10003362992E+04 0.  0.
         25    2    3    3    0    0 -0.54941644027E+02  0.85904535148E+02  0.45833457197E+02  0.16660415683E+03  0.12352354378E+03 0.  0.
         35    2    3    3    0    0  0.54941644027E+02 -0.85904535148E+02  0.92019945701E+03  0.12240404070E+04  0.80069326452E+03 0.  0.
         22    1    5    5    0    0  0.11525597754E+02 -0.73773362988E+02  0.10674427476E+04  0.10700511053E+04  0.00000000000E+00 0. -1.
         22    1    5    5    0    0  0.43416046273E+02 -0.12131172160E+02 -0.14724329060E+03  0.15398930170E+03  0.00000000000E+00 0. -1.
          5    1    4    4  502    0 -0.65612603247E+02  0.98699050261E+02  0.10763296822E+01  0.11861603902E+03  0.47000000000E+01 0. -1.
         -5    1    4    4    0  502  0.10670959220E+02 -0.12794515113E+02  0.44757127515E+02  0.47988117811E+02  0.47000000000E+01 0. -1.
<mgrwt>
<rscale>  0 0.10003363E+04</rscale>
<asrwt>0</asrwt>
<pdfrwt beam="1">  1        1 0.18128288E+00 0.10003363E+04</pdfrwt>
<pdfrwt beam="2">  1       -1 0.32662435E-01 0.10003363E+04</pdfrwt>
<totfact> 0.10745605E+02</totfact>
</mgrwt>
</event>
<event>
 9    1  0.4497870E-036  0.9994559E+03  0.7818608E-02  0.8681556E-01
         -2   -1    0    0    0  501 -0.00000000000E+00  0.00000000000E+00  0.18323225437E+03  0.18323225437E+03  0.00000000000E+00 0.  1.
          2   -1    0    0  501    0  0.00000000000E+00 -0.00000000000E+00 -0.13629042957E+04  0.13629042957E+04  0.00000000000E+00 0.  1.
         36    2    1    2    0    0 -0.14210854715E-13  0.14210854715E-13 -0.11796720413E+04  0.15461365500E+04  0.99945590515E+03 0.  0.
         25    2    3    3    0    0 -0.96206530331E+02 -0.99873274407E+02 -0.19568501770E+03  0.27058674044E+03  0.12527645642E+03 0.  0.
         35    2    3    3    0    0  0.96206530331E+02  0.99873274407E+02 -0.98398702360E+03  0.12755498096E+04  0.79972900830E+03 0.  0.
         22    1    5    5    0    0 -0.16354500696E+03  0.24176969577E+03 -0.50453190789E+02  0.29621795954E+03  0.00000000000E+00 0.  1.
         22    1    5    5    0    0  0.25975153729E+03 -0.14189642137E+03 -0.93353383281E+03  0.97933185005E+03  0.00000000000E+00 0.  1.
          5    1    4    4  502    0 -0.30893440558E+02 -0.21791221104E+02 -0.15704807044E+03  0.16160274878E+03  0.47000000000E+01 0. -1.
         -5    1    4    4    0  502 -0.65313089773E+02 -0.78082053302E+02 -0.38636947259E+02  0.10898399166E+03  0.47000000000E+01 0. -1.
<mgrwt>
<rscale>  0 0.99945591E+03</rscale>
<asrwt>0</asrwt>
<pdfrwt beam="1">  1        2 0.20967758E+00 0.99945591E+03</pdfrwt>
<pdfrwt beam="2">  1       -2 0.28189578E-01 0.99945591E+03</pdfrwt>
<totfact> 0.20985763E+02</totfact>
</mgrwt>
</event>
<event>
 9    1  0.4497870E-036  0.9995033E+03  0.7818608E-02  0.8681511E-01
          2   -1    0    0  501    0  0.00000000000E+00  0.00000000000E+00  0.20905474068E+04  0.20905474068E+04  0.00000000000E+00 0.  1.
         -2   -1    0    0    0  501 -0.00000000000E+00 -0.00000000000E+00 -0.11946714335E+03  0.11946714335E+03  0.00000000000E+00 0.  1.
         36    2    1    2    0    0  0.14210854715E-13  0.00000000000E+00  0.19710802635E+04  0.22100145501E+04  0.99950333010E+03 0.  0.
         25    2    3    3    0    0 -0.67687122930E+02  0.19165144483E+02  0.64041089078E+03  0.65621480251E+03  0.12467120212E+03 0.  0.
         35    2    3    3    0    0  0.67687122930E+02 -0.19165144483E+02  0.13306693727E+04  0.15537997476E+04  0.79916445553E+03 0.  0.
         22    1    5    5    0    0 -0.12659761533E+03  0.19325955169E+03  0.12258597216E+04  0.12474406870E+04  0.00000000000E+00 0. -1.
         22    1    5    5    0    0  0.19428473826E+03 -0.21242469618E+03  0.10480965105E+03  0.30635906061E+03  0.00000000000E+00 0. -1.
          5    1    4    4  502    0  0.62249564104E+01 -0.42944346884E+02  0.14352354714E+03  0.15001355137E+03  0.47000000000E+01 0.  1.
         -5    1    4    4    0  502 -0.73912079340E+02  0.62109491367E+02  0.49688734364E+03  0.50620125115E+03  0.47000000000E+01 0.  1.
<mgrwt>
<rscale>  0 0.99950333E+03</rscale>
<asrwt>0</asrwt>
<pdfrwt beam="1">  1        2 0.32162265E+00 0.99950333E+03</pdfrwt>
<pdfrwt beam="2">  1       -2 0.18379562E-01 0.99950333E+03</pdfrwt>
<totfact> 0.17209743E+02</totfact>
</mgrwt>
</event>
<event>
 9    1  0.4497870E-036  0.1000349E+04  0.7818608E-02  0.8680706E-01
          1   -1    0    0  501    0  0.00000000000E+00  0.00000000000E+00  0.11611504415E+04  0.11611504415E+04  0.00000000000E+00 0.  1.
         -1   -1    0    0    0  501 -0.00000000000E+00 -0.00000000000E+00 -0.21545383632E+03  0.21545383632E+03  0.00000000000E+00 0.  1.
         36    2    1    2    0    0  0.71054273576E-14  0.00000000000E+00  0.94569660522E+03  0.13766042779E+04  0.10003485736E+04 0.  0.
         25    2    3    3    0    0 -0.22978668679E+02 -0.18469905563E+02  0.36586808952E+03  0.38808082508E+03  0.12600837767E+03 0.  0.
         35    2    3    3    0    0  0.22978668679E+02  0.18469905563E+02  0.57982851570E+03  0.98852345278E+03  0.80006771742E+03 0.  0.
         22    1    5    5    0    0 -0.18231899146E+03 -0.15339966486E+02  0.71656290067E+03  0.73955251324E+03  0.00000000000E+00 0. -1.
         22    1    5    5    0    0  0.20529766014E+03  0.33809872049E+02 -0.13673438497E+03  0.24897093955E+03  0.00000000000E+00 0. -1.
          5    1    4    4  502    0  0.78571871564E+01  0.32899681705E+02  0.28649171024E+03  0.28851986843E+03  0.47000000000E+01 0. -1.
         -5    1    4    4    0  502 -0.30835855835E+02 -0.51369587268E+02  0.79376379278E+02  0.99560956647E+02  0.47000000000E+01 0. -1.
<mgrwt>
<rscale>  0 0.10003486E+04</rscale>
<asrwt>0</asrwt>
<pdfrwt beam="1">  1        1 0.17863853E+00 0.10003486E+04</pdfrwt>
<pdfrwt beam="2">  1       -1 0.33146745E-01 0.10003486E+04</pdfrwt>
<totfact> 0.10792169E+02</totfact>
</mgrwt>
</event>
<event>
 9    1  0.4497870E-036  0.9995872E+03  0.7818608E-02  0.8681431E-01
         -2   -1    0    0    0  501 -0.00000000000E+00  0.00000000000E+00  0.26683132194E+03  0.26683132194E+03  0.00000000000E+00 0. -1.
          2   -1    0    0  501    0  0.00000000000E+00 -0.00000000000E+00 -0.93614813002E+03  0.93614813002E+03  0.00000000000E+00 0. -1.
         36    2    1    2    0    0  0.21316282073E-13 -0.14210854715E-13 -0.66931680807E+03  0.12029794520E+04  0.99958720093E+03 0.  0.
         25    2    3    3    0    0  0.35311651117E+01 -0.10347070309E+03 -0.13155047623E+02  0.16309597799E+03  0.12533390297E+03 0.  0.
         35    2    3    3    0    0 -0.35311651117E+01  0.10347070309E+03 -0.65616176045E+03  0.10398834740E+04  0.80005670301E+03 0.  0.
         22    1    5    5    0    0  0.33369149179E+03  0.19602322992E+03 -0.55359861297E+03  0.67546024505E+03  0.00000000000E+00 0. -1.
         22    1    5    5    0    0 -0.33722265691E+03 -0.92552526830E+02 -0.10256314748E+03  0.36442322892E+03  0.00000000000E+00 0. -1.
          5    1    4    4  502    0  0.36172914117E+02 -0.10756826876E+03 -0.39951665551E+02  0.12040613664E+03  0.47000000000E+01 0.  1.
         -5    1    4    4    0  502 -0.32641749006E+02  0.40975656637E+01  0.26796617928E+02  0.42689841355E+02  0.47000000000E+01 0.  1.
<mgrwt>
<rscale>  0 0.99958720E+03</rscale>
<asrwt>0</asrwt>
<pdfrwt beam="1">  1        2 0.14402279E+00 0.99958720E+03</pdfrwt>
<pdfrwt beam="2">  1       -2 0.41050972E-01 0.99958720E+03</pdfrwt>
<totfact> 0.18848165E+02</totfact>
</mgrwt>
</event>
<event>
 9    1  0.4497870E-036  0.1000318E+04  0.7818608E-02  0.8680735E-01
          1   -1    0    0  501    0  0.00000000000E+00  0.00000000000E+00  0.75535604812E+03  0.75535604812E+03  0.00000000000E+00 0. -1.
         -1   -1    0    0    0  501 -0.00000000000E+00 -0.00000000000E+00 -0.33118028076E+03  0.33118028076E+03  0.00000000000E+00 0. -1.
         36    2    1    2    0    0  0.14210854715E-13  0.71054273576E-14  0.42417576736E+03  0.10865363289E+04  0.10003180056E+04 0.  0.
         25    2    3    3    0    0  0.19776078105E+02  0.48734097454E+02 -0.65839405145E+02  0.14861339926E+03  0.12241327399E+03 0.  0.
         35    2    3    3    0    0 -0.19776078105E+02 -0.48734097454E+02  0.49001517250E+03  0.93792292962E+03  0.79800905202E+03 0.  0.
         22    1    5    5    0    0  0.13725724084E+03 -0.38932711199E+03  0.33683277639E+03  0.53279589857E+03  0.00000000000E+00 0.  1.
         22    1    5    5    0    0 -0.15703331895E+03  0.34059301453E+03  0.15318239612E+03  0.40512703105E+03  0.00000000000E+00 0.  1.
          5    1    4    4  502    0  0.67679452536E+02  0.47293692396E+02 -0.27803370140E+02  0.87248604729E+02  0.47000000000E+01 0. -1.
         -5    1    4    4    0  502 -0.47903374431E+02  0.14404050583E+01 -0.38036035005E+02  0.61364794528E+02  0.47000000000E+01 0. -1.
<mgrwt>
<rscale>  0 0.10003180E+04</rscale>
<asrwt>0</asrwt>
<pdfrwt beam="1">  1        1 0.11620862E+00 0.10003180E+04</pdfrwt>
<pdfrwt beam="2">  1       -1 0.50950812E-01 0.10003180E+04</pdfrwt>
<totfact> 0.10726782E+02</totfact>
</mgrwt>
</event>
<event>
 9    1  0.4497870E-036  0.1000144E+04  0.7818608E-02  0.8680901E-01
          1   -1    0    0  501    0  0.00000000000E+00  0.00000000000E+00  0.20671936628E+04  0.20671936628E+04  0.00000000000E+00 0. -1.
         -1   -1    0    0    0  501 -0.00000000000E+00 -0.00000000000E+00 -0.12097166137E+03  0.12097166137E+03  0.00000000000E+00 0. -1.
         36    2    1    2    0    0 -0.28421709430E-13 -0.14210854715E-13  0.19462220014E+04  0.21881653241E+04  0.10001436932E+04 0.  0.
         25    2    3    3    0    0 -0.79357711298E+02 -0.87630032522E+02  0.20439873136E+03  0.26788813136E+03  0.12652486159E+03 0.  0.
         35    2    3    3    0    0  0.79357711298E+02  0.87630032522E+02  0.17418232700E+04  0.19202771928E+04  0.79971215076E+03 0.  0.
         22    1    5    5    0    0  0.38748100141E+03  0.17855982792E+03  0.13372792396E+04  0.14036883212E+04  0.00000000000E+00 0. -1.
         22    1    5    5    0    0 -0.30812329011E+03 -0.90929795396E+02  0.40454403045E+03  0.51658887151E+03  0.00000000000E+00 0. -1.
          5    1    4    4  502    0  0.19536941615E+02 -0.69704222524E+02  0.86479949590E+02  0.11287711197E+03  0.47000000000E+01 0.  1.
         -5    1    4    4    0  502 -0.98894652913E+02 -0.17925809998E+02  0.11791878177E+03  0.15501101940E+03  0.47000000000E+01 0.  1.
<mgrwt>
<rscale>  0 0.10001437E+04</rscale>
<asrwt>0</asrwt>
<pdfrwt beam="1">  1        1 0.31802977E+00 0.10001437E+04</pdfrwt>
<pdfrwt beam="2">  1       -1 0.18611026E-01 0.10001437E+04</pdfrwt>
<totfact> 0.64343740E+01</totfact>
</mgrwt>
</event>
<event>
 9    1  0.4497870E-036  0.9987113E+03  0.7818608E-02  0.8682266E-01
         -1   -1    0    0    0  501 -0.00000000000E+00  0.00000000000E+00  0.33917325507E+03  0.33917325507E+03  0.00000000000E+00 0.  1.
          1   -1    0    0  501    0  0.00000000000E+00 -0.00000000000E+00 -0.73518792376E+03  0.73518792376E+03  0.00000000000E+00 0.  1.
         36    2    1    2    0    0  0.14210854715E-13 -0.28421709430E-13 -0.39601466869E+03  0.10743611788E+04  0.99871133204E+03 0.  0.
         25    2    3    3    0    0  0.47531335321E+02  0.12908984186E+03 -0.94187499172E+02  0.20898731571E+03  0.12601983184E+03 0.  0.
         35    2    3    3    0    0 -0.47531335321E+02 -0.12908984186E+03 -0.30182716952E+03  0.86537386311E+03  0.79928021844E+03 0.  0.
         22    1    5    5    0    0 -0.27793373284E+03  0.24547753987E+03 -0.15255352276E+03  0.40097251744E+03  0.00000000000E+00 0. -1.
         22    1    5    5    0    0  0.23040239752E+03 -0.37456738174E+03 -0.14927364676E+03  0.46440134567E+03  0.00000000000E+00 0. -1.
          5    1    4    4  502    0  0.41686161759E+02  0.11776292449E+03 -0.11889783733E+02  0.12557587119E+03  0.47000000000E+01 0.  1.
         -5    1    4    4    0  502  0.58451735629E+01  0.11326917372E+02 -0.82297715439E+02  0.83411444524E+02  0.47000000000E+01 0.  1.
<mgrwt>
<rscale>  0 0.99871133E+03</rscale>
<asrwt>0</asrwt>
<pdfrwt beam="1">  1        1 0.11310583E+00 0.99871133E+03</pdfrwt>
<pdfrwt beam="2">  1       -1 0.52180501E-01 0.99871133E+03</pdfrwt>
<totfact> 0.10710138E+02</totfact>
</mgrwt>
</event>
<event>
 9    1  0.4497870E-036  0.1000015E+04  0.7818608E-02  0.8681024E-01
          2   -1    0    0  501    0  0.00000000000E+00  0.00000000000E+00  0.13885280858E+04  0.13885280858E+04  0.00000000000E+00 0. -1.
         -2   -1    0    0    0  501 -0.00000000000E+00 -0.00000000000E+00 -0.18005215617E+03  0.18005215617E+03  0.00000000000E+00 0. -1.
         36    2    1    2    0    0  0.28421709430E-13 -0.14210854715E-13  0.12084759296E+04  0.15685802419E+04  0.10000149514E+04 0.  0.
         25    2    3    3    0    0  0.10394630817E+03 -0.94227426306E+02  0.24109331127E+03  0.30557367697E+03  0.12476235197E+03 0.  0.
         35    2    3    3    0    0 -0.10394630817E+03  0.94227426306E+02  0.96738261833E+03  0.12630065650E+04  0.79979548015E+03 0.  0.
         22    1    5    5    0    0  0.12410452682E+03  0.16384374591E+03 -0.55337458922E+02  0.21285896977E+03  0.00000000000E+00 0. -1.
         22    1    5    5    0    0 -0.22805083499E+03 -0.69616319608E+02  0.10227200773E+04  0.10501475952E+04  0.00000000000E+00 0. -1.
          5    1    4    4  502    0  0.12246887402E+03 -0.82117247169E+02  0.14500675155E+03  0.20685965141E+03  0.47000000000E+01 0. -1.
         -5    1    4    4    0  502 -0.18522565843E+02 -0.12110179136E+02  0.96086559722E+02  0.98714025566E+02  0.47000000000E+01 0. -1.
<mgrwt>
<rscale>  0 0.10000150E+04</rscale>
<asrwt>0</asrwt>
<pdfrwt beam="1">  1        2 0.21361970E+00 0.10000150E+04</pdfrwt>
<pdfrwt beam="2">  1       -2 0.27700333E-01 0.10000150E+04</pdfrwt>
<totfact> 0.20939060E+02</totfact>
</mgrwt>
</event>
<event>
 9    1  0.4497870E-036  0.9990053E+03  0.7818608E-02  0.8681986E-01
          2   -1    0    0  501    0  0.00000000000E+00  0.00000000000E+00  0.10561713399E+04  0.10561713399E+04  0.00000000000E+00 0.  1.
         -2   -1    0    0    0  501 -0.00000000000E+00 -0.00000000000E+00 -0.23623337035E+03  0.23623337035E+03  0.00000000000E+00 0.  1.
         36    2    1    2    0    0 -0.28421709430E-13 -0.14210854715E-13  0.81993796953E+03  0.12924047102E+04  0.99900533590E+03 0.  0.
         25    2    3    3    0    0  0.72141917947E+02 -0.80467061986E+02  0.43280094801E+02  0.17066700839E+03  0.12479846456E+03 0.  0.
         35    2    3    3    0    0 -0.72141917947E+02  0.80467061986E+02  0.77665787473E+03  0.11217377018E+04  0.80213378745E+03 0.  0.
         22    1    5    5    0    0  0.24051259932E+03  0.16603341207E+03  0.73987548810E+03  0.79550558908E+03  0.00000000000E+00 0. -1.
         22    1    5    5    0    0 -0.31265451727E+03 -0.85566350085E+02  0.36782386625E+02  0.32623211277E+03  0.00000000000E+00 0. -1.
          5    1    4    4  502    0  0.75636610075E+02 -0.57339993087E+02 -0.25062389920E+02  0.98280135223E+02  0.47000000000E+01 0. -1.
         -5    1    4    4    0  502 -0.34946921274E+01 -0.23127068899E+02  0.68342484721E+02  0.72386873166E+02  0.47000000000E+01 0. -1.
<mgrwt>
<rscale>  0 0.99900534E+03</rscale>
<asrwt>0</asrwt>
<pdfrwt beam="1">  1        2 0.16248790E+00 0.99900534E+03</pdfrwt>
<pdfrwt beam="2">  1       -2 0.36343596E-01 0.99900534E+03</pdfrwt>
<totfact> 0.19963725E+02</totfact>
</mgrwt>
</event>
<event>
 9    1  0.4497870E-036  0.9858795E+03  0.7818608E-02  0.8694603E-01
         -1   -1    0    0    0  501 -0.00000000000E+00  0.00000000000E+00  0.57904415128E+03  0.57904415128E+03  0.00000000000E+00 0.  1.
          1   -1    0    0  501    0  0.00000000000E+00 -0.00000000000E+00 -0.41963916566E+03  0.41963916566E+03  0.00000000000E+00 0.  1.
         36    2    1    2    0    0  0.00000000000E+00  0.71054273576E-14  0.15940498562E+03  0.99868331694E+03  0.98587951500E+03 0.  0.
         25    2    3    3    0    0 -0.93918711413E+02 -0.31369514303E+02 -0.47216312018E+02  0.16647814116E+03  0.12522308327E+03 0.  0.
         35    2    3    3    0    0  0.93918711413E+02  0.31369514303E+02  0.20662129764E+03  0.83220517578E+03  0.80004270085E+03 0.  0.
         22    1    5    5    0    0 -0.59453985132E+02 -0.14319203507E+02  0.49694611794E+03  0.50069477736E+03  0.00000000000E+00 0. -1.
         22    1    5    5    0    0  0.15337269655E+03  0.45688717810E+02 -0.29032482030E+03  0.33151039842E+03  0.00000000000E+00 0. -1.
          5    1    4    4  502    0 -0.56333894865E+02  0.37343007446E+02  0.11185824332E+02  0.68667463778E+02  0.47000000000E+01 0.  1.
         -5    1    4    4    0  502 -0.37584816548E+02 -0.68712521749E+02 -0.58402136349E+02  0.97810677383E+02  0.47000000000E+01 0.  1.
<mgrwt>
<rscale>  0 0.98587952E+03</rscale>
<asrwt>0</asrwt>
<pdfrwt beam="1">  1        1 0.64559871E-01 0.98587952E+03</pdfrwt>
<pdfrwt beam="2">  1       -1 0.89083716E-01 0.98587952E+03</pdfrwt>
<totfact> 0.82818601E+01</totfact>
</mgrwt>
</event>
<event>
 9    1  0.4497870E-036  0.9994824E+03  0.7818608E-02  0.8681531E-01
         -1   -1    0    0    0  501 -0.00000000000E+00  0.00000000000E+00  0.77307835580E+03  0.77307835580E+03  0.00000000000E+00 0. -1.
          1   -1    0    0  501    0  0.00000000000E+00 -0.00000000000E+00 -0.32304781201E+03  0.32304781201E+03  0.00000000000E+00 0. -1.
         36    2    1    2    0    0  0.28421709430E-13  0.14210854715E-13  0.45003054379E+03  0.10961261678E+04  0.99948240876E+03 0.  0.
         25    2    3    3    0    0 -0.10782324864E+03  0.52931244236E+02  0.15913500065E+03  0.23582339289E+03  0.12594107606E+03 0.  0.
         35    2    3    3    0    0  0.10782324864E+03 -0.52931244236E+02  0.29089554314E+03  0.86030277492E+03  0.80067039283E+03 0.  0.
         22    1    5    5    0    0 -0.26564747023E+03  0.84543853812E+02  0.36109816522E+03  0.45618869625E+03  0.00000000000E+00 0.  1.
         22    1    5    5    0    0  0.37347071887E+03 -0.13747509805E+03 -0.70202622083E+02  0.40411407868E+03  0.00000000000E+00 0.  1.
          5    1    4    4  502    0 -0.13693979170E+02 -0.15942415346E+02 -0.14956275152E+02  0.26219569771E+02  0.47000000000E+01 0. -1.
         -5    1    4    4    0  502 -0.94129269475E+02  0.68873659582E+02  0.17409127580E+03  0.20960382312E+03  0.47000000000E+01 0. -1.
<mgrwt>
<rscale>  0 0.99948241E+03</rscale>
<asrwt>0</asrwt>
<pdfrwt beam="1">  1        1 0.49699664E-01 0.99948241E+03</pdfrwt>
<pdfrwt beam="2">  1       -1 0.11893513E+00 0.99948241E+03</pdfrwt>
<totfact> 0.60537789E+01</totfact>
</mgrwt>
</event>
<event>
 9    1  0.4497870E-036  0.9998576E+03  0.7818608E-02  0.8681174E-01
          1   -1    0    0  501    0  0.00000000000E+00  0.00000000000E+00  0.86856082095E+03  0.86856082095E+03  0.00000000000E+00 0. -1.
         -1   -1    0    0    0  501 -0.00000000000E+00 -0.00000000000E+00 -0.28775050006E+03  0.28775050006E+03  0.00000000000E+00 0. -1.
         36    2    1    2    0    0 -0.42632564146E-13  0.00000000000E+00  0.58081032090E+03  0.11563113210E+04  0.99985761098E+03 0.  0.
         25    2    3    3    0    0  0.81034605693E+02 -0.11307013080E+03  0.12348841336E+03  0.22448874163E+03  0.12567555484E+03 0.  0.
         35    2    3    3    0    0 -0.81034605693E+02  0.11307013080E+03  0.45732190754E+03  0.93182257938E+03  0.79987407168E+03 0.  0.
         22    1    5    5    0    0 -0.37702411225E+03  0.18696515877E+02  0.49099493299E+03  0.61933251582E+03  0.00000000000E+00 0.  1.
         22    1    5    5    0    0  0.29598950656E+03  0.94373614921E+02 -0.33673025458E+02  0.31249006357E+03  0.00000000000E+00 0.  1.
          5    1    4    4  502    0  0.20717698207E+02  0.17789776764E+02  0.61701981992E+02  0.67638182694E+02  0.47000000000E+01 0.  1.
         -5    1    4    4    0  502  0.60316907486E+02 -0.13085990756E+03  0.61786431371E+02  0.15685055893E+03  0.47000000000E+01 0.  1.
<mgrwt>
<rscale>  0 0.99985761E+03</rscale>
<asrwt>0</asrwt>
<pdfrwt beam="1">  1        1 0.13362474E+00 0.99985761E+03</pdfrwt>
<pdfrwt beam="2">  1       -1 0.44269308E-01 0.99985761E+03</pdfrwt>
<totfact> 0.11040536E+02</totfact>
</mgrwt>
</event>
<event>
 9    1  0.4497870E-036  0.9995115E+03  0.7818608E-02  0.8681503E-01
         -1   -1    0    0    0  501 -0.00000000000E+00  0.00000000000E+00  0.21462584632E+03  0.21462584632E+03  0.00000000000E+00 0. -1.
          1   -1    0    0  501    0  0.00000000000E+00 -0.00000000000E+00 -0.11636800120E+04  0.11636800120E+04  0.00000000000E+00 0. -1.
         36    2    1    2    0    0 -0.14210854715E-13  0.14210854715E-13 -0.94905416573E+03  0.13783058584E+04  0.99951149553E+03 0.  0.
         25    2    3    3    0    0 -0.10076667648E+03  0.93909993563E+02 -0.12356130164E+03  0.22309915194E+03  0.12463076006E+03 0.  0.
         35    2    3    3    0    0  0.10076667648E+03 -0.93909993563E+02 -0.82549286409E+03  0.11552067064E+04  0.79629834605E+03 0.  0.
         22    1    5    5    0    0 -0.32969211223E+03  0.40720557486E+02 -0.49467284363E+03  0.59586598736E+03  0.00000000000E+00 0. -1.
         22    1    5    5    0    0  0.43045878872E+03 -0.13463055105E+03 -0.33082002046E+03  0.55934071906E+03  0.00000000000E+00 0. -1.
          5    1    4    4  502    0 -0.81673526433E+02  0.87044925233E+02 -0.14851611536E+03  0.19059514803E+03  0.47000000000E+01 0.  1.
         -5    1    4    4    0  502 -0.19093150052E+02  0.68650683299E+01  0.24954813727E+02  0.32504003910E+02  0.47000000000E+01 0.  1.
<mgrwt>
<rscale>  0 0.99951150E+03</rscale>
<asrwt>0</asrwt>
<pdfrwt beam="1">  1        1 0.17902769E+00 0.99951150E+03</pdfrwt>
<pdfrwt beam="2">  1       -1 0.33019361E-01 0.99951150E+03</pdfrwt>
<totfact> 0.10817544E+02</totfact>
</mgrwt>
</event>
<event>
 9    1  0.4497870E-036  0.1000189E+04  0.7818608E-02  0.8680858E-01
         -2   -1    0    0    0  501 -0.00000000000E+00  0.00000000000E+00  0.12388420306E+03  0.12388420306E+03  0.00000000000E+00 0.  1.
          2   -1    0    0  501    0  0.00000000000E+00 -0.00000000000E+00 -0.20187771588E+04  0.20187771588E+04  0.00000000000E+00 0.  1.
         36    2    1    2    0    0  0.28421709430E-13 -0.28421709430E-13 -0.18948929557E+04  0.21426613619E+04  0.10001891810E+04 0.  0.
         25    2    3    3    0    0  0.12588338860E+03 -0.55476893850E+02 -0.40389872206E+03  0.44459903156E+03  0.12493921686E+03 0.  0.
         35    2    3    3    0    0 -0.12588338860E+03  0.55476893850E+02 -0.14909942337E+04  0.16980623303E+04  0.80089172766E+03 0.  0.
         22    1    5    5    0    0 -0.16055486695E+03  0.28539415187E+03 -0.14165698604E+04  0.14539249831E+04  0.00000000000E+00 0. -1.
         22    1    5    5    0    0  0.34671478353E+02 -0.22991725802E+03 -0.74424373321E+02  0.24413734719E+03  0.00000000000E+00 0. -1.
          5    1    4    4  502    0  0.98294752377E+02 -0.17529658391E+02 -0.37760803292E+03  0.39061370149E+03  0.47000000000E+01 0. -1.
         -5    1    4    4    0  502  0.27588636220E+02 -0.37947235459E+02 -0.26290689143E+02  0.53985330073E+02  0.47000000000E+01 0. -1.
<mgrwt>
<rscale>  0 0.10001892E+04</rscale>
<asrwt>0</asrwt>
<pdfrwt beam="1">  1        2 0.31058109E+00 0.10001892E+04</pdfrwt>
<pdfrwt beam="2">  1       -2 0.19059109E-01 0.10001892E+04</pdfrwt>
<totfact> 0.17772953E+02</totfact>
</mgrwt>
</event>
<event>
 9    1  0.4497870E-036  0.1000047E+04  0.7818608E-02  0.8680993E-01
         -2   -1    0    0    0  501 -0.00000000000E+00  0.00000000000E+00  0.46915330273E+03  0.46915330273E+03  0.00000000000E+00 0. -1.
          2   -1    0    0  501    0  0.00000000000E+00 -0.00000000000E+00 -0.53292472330E+03  0.53292472330E+03  0.00000000000E+00 0. -1.
         36    2    1    2    0    0 -0.14210854715E-13  0.00000000000E+00 -0.63771420578E+02  0.10020780260E+04  0.10000467870E+04 0.  0.
         25    2    3    3    0    0 -0.77402744903E+02 -0.11742529104E+03 -0.42599739947E+01  0.18773179760E+03  0.12427870516E+03 0.  0.
         35    2    3    3    0    0  0.77402744903E+02  0.11742529104E+03 -0.59511446583E+02  0.81434622843E+03  0.79989892086E+03 0.  0.
         22    1    5    5    0    0  0.19224485982E+03  0.43219099223E+03 -0.74994538634E+02  0.47892726036E+03  0.00000000000E+00 0.  1.
         22    1    5    5    0    0 -0.11484211491E+03 -0.31476570119E+03  0.15483092051E+02  0.33541896807E+03  0.00000000000E+00 0.  1.
          5    1    4    4  502    0  0.34800720909E+00 -0.32582465730E+02  0.50434630198E+02  0.60228565526E+02  0.47000000000E+01 0.  1.
         -5    1    4    4    0  502 -0.77750752112E+02 -0.84842825313E+02 -0.54694604193E+02  0.12750323207E+03  0.47000000000E+01 0.  1.
<mgrwt>
<rscale>  0 0.10000468E+04</rscale>
<asrwt>0</asrwt>
<pdfrwt beam="1">  1        2 0.81988419E-01 0.10000468E+04</pdfrwt>
<pdfrwt beam="2">  1       -2 0.72177431E-01 0.10000468E+04</pdfrwt>
<totfact> 0.12008868E+02</totfact>
</mgrwt>
</event>
<event>
 9    1  0.4497870E-036  0.1005457E+04  0.7818608E-02  0.8675859E-01
          2   -1    0    0  501    0  0.00000000000E+00  0.00000000000E+00  0.10204047783E+04  0.10204047783E+04  0.00000000000E+00 0. -1.
         -2   -1    0    0    0  501 -0.00000000000E+00 -0.00000000000E+00 -0.24768193651E+03  0.24768193651E+03  0.00000000000E+00 0. -1.
         36    2    1    2    0    0  0.00000000000E+00  0.00000000000E+00  0.77272284182E+03  0.12680867148E+04  0.10054567748E+04 0.  0.
         25    2    3    3    0    0 -0.77187256864E+02  0.60959861183E+02  0.13891532603E+02  0.15820508280E+03  0.12313365197E+03 0.  0.
         35    2    3    3    0    0  0.77187256864E+02 -0.60959861183E+02  0.75883130922E+03  0.11098816320E+04  0.80395168013E+03 0.  0.
         22    1    5    5    0    0 -0.82134952132E+02 -0.11972807892E+03  0.88594335569E+03  0.89776199114E+03  0.00000000000E+00 0. -1.
         22    1    5    5    0    0  0.15932220900E+03  0.58768217738E+02 -0.12711204647E+03  0.21211964090E+03  0.00000000000E+00 0. -1.
          5    1    4    4  502    0 -0.31932972983E+02 -0.34752258389E+02 -0.12386697722E+02  0.49019939893E+02  0.47000000000E+01 0.  1.
         -5    1    4    4    0  502 -0.45254283881E+02  0.95712119573E+02  0.26278230324E+02  0.10918514291E+03  0.47000000000E+01 0.  1.
<mgrwt>
<rscale>  0 0.10054568E+04</rscale>
<asrwt>0</asrwt>
<pdfrwt beam="1">  1        2 0.15698535E+00 0.10054568E+04</pdfrwt>
<pdfrwt beam="2">  1       -2 0.38104914E-01 0.10054568E+04</pdfrwt>
<totfact> 0.19212164E+02</totfact>
</mgrwt>
</event>
<event>
 9    1  0.4497870E-036  0.1002456E+04  0.7818608E-02  0.8678703E-01
          2   -1    0    0  501    0  0.00000000000E+00  0.00000000000E+00  0.13405651859E+04  0.13405651859E+04  0.00000000000E+00 0.  1.
         -2   -1    0    0    0  501 -0.00000000000E+00 -0.00000000000E+00 -0.18740560813E+03  0.18740560813E+03  0.00000000000E+00 0.  1.
         36    2    1    2    0    0 -0.14210854715E-13 -0.71054273576E-14  0.11531595777E+04  0.15279707940E+04  0.10024558522E+04 0.  0.
         25    2    3    3    0    0  0.12109739585E+03  0.38091819308E+02  0.32123033346E+03  0.36733852991E+03  0.12503240556E+03 0.  0.
         35    2    3    3    0    0 -0.12109739585E+03 -0.38091819308E+02  0.83192924429E+03  0.11606322641E+04  0.79927806112E+03 0.  0.
         22    1    5    5    0    0 -0.22647892435E+03 -0.19196242351E+03 -0.11223773679E+02  0.29709972789E+03  0.00000000000E+00 0.  1.
         22    1    5    5    0    0  0.10538152850E+03  0.15387060420E+03  0.84315301797E+03  0.86353253621E+03  0.00000000000E+00 0.  1.
          5    1    4    4  502    0  0.19035392584E+01  0.51535374796E+02  0.56372927654E+02  0.76547470823E+02  0.47000000000E+01 0. -1.
         -5    1    4    4    0  502  0.11919385659E+03 -0.13443555488E+02  0.26485740581E+03  0.29079105909E+03  0.47000000000E+01 0. -1.
<mgrwt>
<rscale>  0 0.10024559E+04</rscale>
<asrwt>0</asrwt>
<pdfrwt beam="1">  1        2 0.20624079E+00 0.10024559E+04</pdfrwt>
<pdfrwt beam="2">  1       -2 0.28831633E-01 0.10024559E+04</pdfrwt>
<totfact> 0.20752536E+02</totfact>
</mgrwt>
</event>
<event>
 9    1  0.4497870E-036  0.9995214E+03  0.7818608E-02  0.8681494E-01
         -2   -1    0    0    0  501 -0.00000000000E+00  0.00000000000E+00  0.12734754846E+04  0.12734754846E+04  0.00000000000E+00 0. -1.
          2   -1    0    0  501    0  0.00000000000E+00 -0.00000000000E+00 -0.19612530063E+03  0.19612530063E+03  0.00000000000E+00 0. -1.
         36    2    1    2    0    0  0.28421709430E-13  0.12434497876E-13  0.10773501840E+04  0.14696007852E+04  0.99952141000E+03 0.  0.
         25    2    3    3    0    0 -0.12357531800E+03  0.10988941469E+02  0.30423885611E+03  0.35166957676E+03  0.12537381544E+03 0.  0.
         35    2    3    3    0    0  0.12357531800E+03 -0.10988941469E+02  0.77311132789E+03  0.11179312085E+04  0.79792070129E+03 0.  0.
         22    1    5    5    0    0 -0.13839316103E+03 -0.33710750177E+03  0.49868234386E+03  0.61763922709E+03  0.00000000000E+00 0. -1.
         22    1    5    5    0    0  0.26196847903E+03  0.32611856030E+03  0.27442898403E+03  0.50029198140E+03  0.00000000000E+00 0. -1.
          5    1    4    4  502    0  0.20940401184E+02  0.56961826728E+01  0.11228065672E+02  0.24881847953E+02  0.47000000000E+01 0.  1.
         -5    1    4    4    0  502 -0.14451571918E+03  0.52927587965E+01  0.29301079044E+03  0.32678772881E+03  0.47000000000E+01 0.  1.
<mgrwt>
<rscale>  0 0.99952141E+03</rscale>
<asrwt>0</asrwt>
<pdfrwt beam="1">  1        2 0.30173124E-01 0.99952141E+03</pdfrwt>
<pdfrwt beam="2">  1       -2 0.19591930E+00 0.99952141E+03</pdfrwt>
<totfact> 0.27333567E+01</totfact>
</mgrwt>
</event>
<event>
 9    1  0.4497870E-036  0.9995920E+03  0.7818608E-02  0.8681427E-01
          1   -1    0    0  501    0  0.00000000000E+00  0.00000000000E+00  0.94134610674E+03  0.94134610674E+03  0.00000000000E+00 0. -1.
         -1   -1    0    0    0  501 -0.00000000000E+00 -0.00000000000E+00 -0.26536048441E+03  0.26536048441E+03  0.00000000000E+00 0. -1.
         36    2    1    2    0    0 -0.14210854715E-13  0.14210854715E-13  0.67598562233E+03  0.12067065911E+04  0.99959203454E+03 0.  0.
         25    2    3    3    0    0  0.10558742212E+03 -0.94784967753E+02  0.12470811826E+03  0.22637725693E+03  0.12474635815E+03 0.  0.
         35    2    3    3    0    0 -0.10558742212E+03  0.94784967753E+02  0.55127750406E+03  0.98032933422E+03  0.79812644563E+03 0.  0.
         22    1    5    5    0    0  0.24927409092E+03 -0.19692928165E+03  0.91966220964E+02  0.33072118193E+03  0.00000000000E+00 0. -1.
         22    1    5    5    0    0 -0.35486151304E+03  0.29171424940E+03  0.45931128310E+03  0.64960815229E+03  0.00000000000E+00 0. -1.
          5    1    4    4  502    0  0.61619124489E+02 -0.10374298312E+03  0.13392738074E+03  0.18032791343E+03  0.47000000000E+01 0. -1.
         -5    1    4    4    0  502  0.43968297629E+02  0.89580153689E+01 -0.92192624790E+01  0.46049343496E+02  0.47000000000E+01 0. -1.
<mgrwt>
<rscale>  0 0.99959203E+03</rscale>
<asrwt>0</asrwt>
<pdfrwt beam="1">  1        1 0.14482248E+00 0.99959203E+03</pdfrwt>
<pdfrwt beam="2">  1       -1 0.40824690E-01 0.99959203E+03</pdfrwt>
<totfact> 0.11112204E+02</totfact>
</mgrwt>
</event>
<event>
 9    1  0.4497870E-036  0.9981705E+03  0.7818608E-02  0.8682782E-01
          2   -1    0    0  501    0  0.00000000000E+00  0.00000000000E+00  0.82045692037E+03  0.82045692037E+03  0.00000000000E+00 0. -1.
         -2   -1    0    0    0  501 -0.00000000000E+00 -0.00000000000E+00 -0.30359433214E+03  0.30359433214E+03  0.00000000000E+00 0. -1.
         36    2    1    2    0    0  0.00000000000E+00  0.10658141036E-13  0.51686258823E+03  0.11240512525E+04  0.99817046798E+03 0.  0.
         25    2    3    3    0    0  0.12326492433E+03  0.24454259363E+02  0.16015086029E+03  0.23878835819E+03  0.12481718465E+03 0.  0.
         35    2    3    3    0    0 -0.12326492433E+03 -0.24454259363E+02  0.35671172794E+03  0.88526289431E+03  0.80040919712E+03 0.  0.
         22    1    5    5    0    0  0.22084167168E+03 -0.15822968996E+03 -0.10747082285E+03  0.29216032670E+03  0.00000000000E+00 0. -1.
         22    1    5    5    0    0 -0.34410659601E+03  0.13377543060E+03  0.46418255079E+03  0.59310256761E+03  0.00000000000E+00 0. -1.
          5    1    4    4  502    0 -0.12090079448E+02 -0.26506850780E+02  0.12497148792E+02  0.32047650261E+02  0.47000000000E+01 0.  1.
         -5    1    4    4    0  502  0.13535500378E+03  0.50961110143E+02  0.14765371150E+03  0.20674070793E+03  0.47000000000E+01 0.  1.
<mgrwt>
<rscale>  0 0.99817047E+03</rscale>
<asrwt>0</asrwt>
<pdfrwt beam="1">  1        2 0.12622414E+00 0.99817047E+03</pdfrwt>
<pdfrwt beam="2">  1       -2 0.46706821E-01 0.99817047E+03</pdfrwt>
<totfact> 0.17510903E+02</totfact>
</mgrwt>
</event>
<event>
 9    1  0.4497870E-036  0.1000471E+04  0.7818608E-02  0.8680589E-01
          1   -1    0    0  501    0  0.00000000000E+00  0.00000000000E+00  0.50432692040E+03  0.50432692040E+03  0.00000000000E+00 0. -1.
         -1   -1    0    0    0  501 -0.00000000000E+00 -0.00000000000E+00 -0.49617768637E+03  0.49617768637E+03  0.00000000000E+00 0. -1.
         36    2    1    2    0    0  0.71054273576E-14  0.71054273576E-14  0.81492340341E+01  0.10005046068E+04  0.10004714180E+04 0.  0.
         25    2    3    3    0    0  0.17948355827E+02 -0.44475987263E+02  0.13469663171E+03  0.18864853176E+03  0.12306432880E+03 0.  0.
         35    2    3    3    0    0 -0.17948355827E+02  0.44475987263E+02 -0.12654739767E+03  0.81185607501E+03  0.80049721158E+03 0.  0.
         22    1    5    5    0    0 -0.24397253761E+03  0.19072056521E+03 -0.34613857060E+03  0.46444466103E+03  0.00000000000E+00 0. -1.
         22    1    5    5    0    0  0.22602418178E+03 -0.14624457795E+03  0.21959117293E+03  0.34741141398E+03  0.00000000000E+00 0. -1.
          5    1    4    4  502    0  0.20758719391E+02 -0.73214552937E+02  0.13952340447E+03  0.15899737604E+03  0.47000000000E+01 0.  1.
         -5    1    4    4    0  502 -0.28103635649E+01  0.28738565674E+02 -0.48267727618E+01  0.29651155722E+02  0.47000000000E+01 0.  1.
<mgrwt>
<rscale>  0 0.10004714E+04</rscale>
<asrwt>0</asrwt>
<pdfrwt beam="1">  1        1 0.77588756E-01 0.10004714E+04</pdfrwt>
<pdfrwt beam="2">  1       -1 0.76335029E-01 0.10004714E+04</pdfrwt>
<totfact> 0.89010805E+01</totfact>
</mgrwt>
</event>
<event>
 9    1  0.4497870E-036  0.1001172E+04  0.7818608E-02  0.8679923E-01
         -1   -1    0    0    0  501 -0.00000000000E+00  0.00000000000E+00  0.37795072790E+03  0.37795072790E+03  0.00000000000E+00 0.  1.
          1   -1    0    0  501    0  0.00000000000E+00 -0.00000000000E+00 -0.66301296807E+03  0.66301296807E+03  0.00000000000E+00 0.  1.
         36    2    1    2    0    0  0.00000000000E+00 -0.42632564146E-13 -0.28506224017E+03  0.10409636960E+04  0.10011717812E+04 0.  0.
         25    2    3    3    0    0  0.12739577984E+03  0.61530233198E+02 -0.44646894151E+02  0.19359031900E+03  0.12437126732E+03 0.  0.
         35    2    3    3    0    0 -0.12739577984E+03 -0.61530233198E+02 -0.24041534602E+03  0.84737337697E+03  0.80014151691E+03 0.  0.
         22    1    5    5    0    0 -0.17740520257E+02  0.36836050602E+03 -0.10219993931E+03  0.38268657678E+03  0.00000000000E+00 0.  1.
         22    1    5    5    0    0 -0.10965525959E+03 -0.42989073922E+03 -0.13821540671E+03  0.46468680019E+03  0.00000000000E+00 0.  1.
          5    1    4    4  502    0  0.87548004975E+00  0.55410743945E+02  0.82785831738E+01  0.56229369099E+02  0.47000000000E+01 0.  1.
         -5    1    4    4    0  502  0.12652029979E+03  0.61194892528E+01 -0.52925477325E+02  0.13736094990E+03  0.47000000000E+01 0.  1.
<mgrwt>
<rscale>  0 0.10011718E+04</rscale>
<asrwt>0</asrwt>
<pdfrwt beam="1">  1        1 0.10200199E+00 0.10011718E+04</pdfrwt>
<pdfrwt beam="2">  1       -1 0.58146266E-01 0.10011718E+04</pdfrwt>
<totfact> 0.10232417E+02</totfact>
</mgrwt>
</event>
<event>
 9    1  0.4497870E-036  0.9998470E+03  0.7818608E-02  0.8681184E-01
          2   -1    0    0  501    0  0.00000000000E+00  0.00000000000E+00  0.72719376238E+03  0.72719376238E+03  0.00000000000E+00 0.  1.
         -2   -1    0    0    0  501 -0.00000000000E+00 -0.00000000000E+00 -0.34368214075E+03  0.34368214075E+03  0.00000000000E+00 0.  1.
         36    2    1    2    0    0  0.14210854715E-13  0.28421709430E-13  0.38351162163E+03  0.10708759031E+04  0.99984700628E+03 0.  0.
         25    2    3    3    0    0 -0.45838434324E+02  0.10717620406E+03 -0.98144324305E+01  0.17135417683E+03  0.12521194054E+03 0.  0.
         35    2    3    3    0    0  0.45838434324E+02 -0.10717620406E+03  0.39332605406E+03  0.89952172630E+03  0.80052860692E+03 0.  0.
         22    1    5    5    0    0  0.19318127865E+03  0.15203032590E+03  0.52030149171E+03  0.57545275105E+03  0.00000000000E+00 0. -1.
         22    1    5    5    0    0 -0.14734284433E+03 -0.25920652996E+03 -0.12697543765E+03  0.32406897525E+03  0.00000000000E+00 0. -1.
          5    1    4    4  502    0  0.12665435859E+02  0.10798224954E+03 -0.22918904709E+02  0.11121126595E+03  0.47000000000E+01 0.  1.
         -5    1    4    4    0  502 -0.58503870183E+02 -0.80604547600E+00  0.13104472278E+02  0.60142910882E+02  0.47000000000E+01 0.  1.
<mgrwt>
<rscale>  0 0.99984701E+03</rscale>
<asrwt>0</asrwt>
<pdfrwt beam="1">  1        2 0.11187596E+00 0.99984701E+03</pdfrwt>
<pdfrwt beam="2">  1       -2 0.52874176E-01 0.99984701E+03</pdfrwt>
<totfact> 0.15936430E+02</totfact>
</mgrwt>
</event>
<event>
 9    1  0.4497870E-036  0.9989427E+03  0.7818608E-02  0.8682045E-01
          1   -1    0    0  501    0  0.00000000000E+00  0.00000000000E+00  0.34651324076E+04  0.34651324076E+04  0.00000000000E+00 0.  1.
         -1   -1    0    0    0  501 -0.00000000000E+00 -0.00000000000E+00 -0.71994839097E+02  0.71994839097E+02  0.00000000000E+00 0.  1.
         36    2    1    2    0    0  0.00000000000E+00  0.14210854715E-13  0.33931375685E+04  0.35371272467E+04  0.99894274137E+03 0.  0.
         25    2    3    3    0    0  0.69376744919E+02  0.11873905340E+03  0.54870263807E+03  0.57926506405E+03  0.12474507555E+03 0.  0.
         35    2    3    3    0    0 -0.69376744919E+02 -0.11873905340E+03  0.28444349304E+04  0.29578621826E+04  0.79951643041E+03 0.  0.
         22    1    5    5    0    0 -0.10732407106E+03 -0.44033557630E+02  0.28683738546E+04  0.28707187219E+04  0.00000000000E+00 0.  1.
         22    1    5    5    0    0  0.37947326143E+02 -0.74705495767E+02 -0.23938924181E+02  0.87143460742E+02  0.00000000000E+00 0.  1.
          5    1    4    4  502    0  0.22011254856E+00  0.10827536689E+03  0.25060708672E+03  0.27303773629E+03  0.47000000000E+01 0. -1.
         -5    1    4    4    0  502  0.69156632370E+02  0.10463686509E+02  0.29809555135E+03  0.30622732776E+03  0.47000000000E+01 0. -1.
<mgrwt>
<rscale>  0 0.99894274E+03</rscale>
<asrwt>0</asrwt>
<pdfrwt beam="1">  1        1 0.53309716E+00 0.99894274E+03</pdfrwt>
<pdfrwt beam="2">  1       -1 0.11076132E-01 0.99894274E+03</pdfrwt>
<totfact> 0.14818343E+01</totfact>
</mgrwt>
</event>
<event>
 9    1  0.4497870E-036  0.9975427E+03  0.7818608E-02  0.8683382E-01
          2   -1    0    0  501    0  0.00000000000E+00  0.00000000000E+00  0.16071874749E+04  0.16071874749E+04  0.00000000000E+00 0.  1.
         -2   -1    0    0    0  501 -0.00000000000E+00 -0.00000000000E+00 -0.15478770165E+03  0.15478770165E+03  0.00000000000E+00 0.  1.
         36    2    1    2    0    0  0.14210854715E-13  0.00000000000E+00  0.14523997732E+04  0.17619751765E+04  0.99754269152E+03 0.  0.
         25    2    3    3    0    0 -0.12228570408E+03  0.40758152025E+02  0.34661370838E+03  0.39034973397E+03  0.12496732213E+03 0.  0.
         35    2    3    3    0    0  0.12228570408E+03 -0.40758152025E+02  0.11057860649E+04  0.13716254426E+04  0.80123561644E+03 0.  0.
         22    1    5    5    0    0  0.14306447756E+03 -0.19688173713E+03  0.11747454010E+04  0.11996902185E+04  0.00000000000E+00 0.  1.
         22    1    5    5    0    0 -0.20778773479E+02  0.15612358510E+03 -0.68959336106E+02  0.17193522411E+03  0.00000000000E+00 0.  1.
          5    1    4    4  502    0  0.12236466681E+02 -0.10314496635E+02  0.12480615361E+03  0.12591578907E+03  0.47000000000E+01 0. -1.
         -5    1    4    4    0  502 -0.13452217076E+03  0.51072648660E+02  0.22180755477E+03  0.26443394491E+03  0.47000000000E+01 0. -1.
<mgrwt>
<rscale>  0 0.99754269E+03</rscale>
<asrwt>0</asrwt>
<pdfrwt beam="1">  1        2 0.24725960E+00 0.99754269E+03</pdfrwt>
<pdfrwt beam="2">  1       -2 0.23813494E-01 0.99754269E+03</pdfrwt>
<totfact> 0.20603777E+02</totfact>
</mgrwt>
</event>
<event>
 9    1  0.4497870E-036  0.1000097E+04  0.7818608E-02  0.8680946E-01
         -1   -1    0    0    0  501 -0.00000000000E+00  0.00000000000E+00  0.46648652937E+03  0.46648652937E+03  0.00000000000E+00 0.  1.
          1   -1    0    0  501    0  0.00000000000E+00 -0.00000000000E+00 -0.53602484029E+03  0.53602484029E+03  0.00000000000E+00 0.  1.
         36    2    1    2    0    0  0.35527136788E-14  0.00000000000E+00 -0.69538310920E+02  0.10025113697E+04  0.10000967301E+04 0.  0.
         25    2    3    3    0    0  0.27265776882E+02 -0.80453492772E+02 -0.12597414581E+03  0.19664456311E+03  0.12483353596E+03 0.  0.
         35    2    3    3    0    0 -0.27265776882E+02  0.80453492772E+02  0.56435834892E+02  0.80586680654E+03  0.79938733999E+03 0.  0.
         22    1    5    5    0    0 -0.21118978974E+02  0.33347028492E+03  0.30406800958E+03  0.45178069530E+03  0.00000000000E+00 0.  1.
         22    1    5    5    0    0 -0.61467979083E+01 -0.25301679215E+03 -0.24763217468E+03  0.35408611124E+03  0.00000000000E+00 0.  1.
          5    1    4    4  502    0  0.54487331515E+02 -0.42246872363E+02 -0.79631960701E+01  0.69564143146E+02  0.47000000000E+01 0. -1.
         -5    1    4    4    0  502 -0.27221554633E+02 -0.38206620409E+02 -0.11801094974E+03  0.12708041997E+03  0.47000000000E+01 0. -1.
<mgrwt>
<rscale>  0 0.10000967E+04</rscale>
<asrwt>0</asrwt>
<pdfrwt beam="1">  1        1 0.82465360E-01 0.10000967E+04</pdfrwt>
<pdfrwt beam="2">  1       -1 0.71767158E-01 0.10000967E+04</pdfrwt>
<totfact> 0.92583786E+01</totfact>
</mgrwt>
</event>
<event>
 9    1  0.4497870E-036  0.9999508E+03  0.7818608E-02  0.8681085E-01
         -1   -1    0    0    0  501 -0.00000000000E+00  0.00000000000E+00  0.24676289950E+03  0.24676289950E+03  0.00000000000E+00 0. -1.
          1   -1    0    0  501    0  0.00000000000E+00 -0.00000000000E+00 -0.10130184852E+04  0.10130184852E+04  0.00000000000E+00 0. -1.
         36    2    1    2    0    0  0.00000000000E+00 -0.28421709430E-13 -0.76625558575E+03  0.12597813847E+04  0.99995075611E+03 0.  0.
         25    2    3    3    0    0  0.10112899191E+03  0.63742986493E+02 -0.52286664450E+02  0.18081507447E+03  0.12517968903E+03 0.  0.
         35    2    3    3    0    0 -0.10112899191E+03 -0.63742986493E+02 -0.71396892130E+03  0.10789663103E+04  0.80007901908E+03 0.  0.
         22    1    5    5    0    0 -0.20468650524E+03  0.29846226840E+03 -0.13103201128E+03  0.38489697201E+03  0.00000000000E+00 0.  1.
         22    1    5    5    0    0  0.10355751332E+03 -0.36220525489E+03 -0.58293691002E+03  0.69406933825E+03  0.00000000000E+00 0.  1.
          5    1    4    4  502    0  0.99520759538E+02  0.19845943996E+02  0.12547146172E+02  0.10236094934E+03  0.47000000000E+01 0.  1.
         -5    1    4    4    0  502  0.16082323754E+01  0.43897042498E+02 -0.64833810622E+02  0.78454125138E+02  0.47000000000E+01 0.  1.
<mgrwt>
<rscale>  0 0.99995076E+03</rscale>
<asrwt>0</asrwt>
<pdfrwt beam="1">  1        1 0.15584900E+00 0.99995076E+03</pdfrwt>
<pdfrwt beam="2">  1       -1 0.37963522E-01 0.99995076E+03</pdfrwt>
<totfact> 0.11074398E+02</totfact>
</mgrwt>
</event>
<event>
 9    1  0.4497870E-036  0.1000863E+04  0.7818608E-02  0.8680217E-01
          2   -1    0    0  501    0  0.00000000000E+00  0.00000000000E+00  0.33038890692E+03  0.33038890692E+03  0.00000000000E+00 0.  1.
         -2   -1    0    0    0  501 -0.00000000000E+00 -0.00000000000E+00 -0.75799032907E+03  0.75799032907E+03  0.00000000000E+00 0.  1.
         36    2    1    2    0    0  0.14210854715E-13  0.00000000000E+00 -0.42760142214E+03  0.10883792360E+04  0.10008628203E+04 0.  0.
         25    2    3    3    0    0  0.36213805124E+02 -0.11896118811E+03 -0.55899874929E+01  0.17583905321E+03  0.12419710430E+03 0.  0.
         35    2    3    3    0    0 -0.36213805124E+02  0.11896118811E+03 -0.42201143465E+03  0.91254018278E+03  0.79948278922E+03 0.  0.
         22    1    5    5    0    0  0.15753002458E+03  0.22418707719E+03 -0.57989203797E+03  0.64136598750E+03  0.00000000000E+00 0. -1.
         22    1    5    5    0    0 -0.19374382971E+03 -0.10522588908E+03  0.15788060332E+03  0.27117419528E+03  0.00000000000E+00 0. -1.
          5    1    4    4  502    0 -0.26449181304E+02 -0.34956546533E+01  0.29225338542E+02  0.39849582257E+02  0.47000000000E+01 0.  1.
         -5    1    4    4    0  502  0.62662986428E+02 -0.11546553345E+03 -0.34815326035E+02  0.13598947095E+03  0.47000000000E+01 0.  1.
<mgrwt>
<rscale>  0 0.10008628E+04</rscale>
<asrwt>0</asrwt>
<pdfrwt beam="1">  1        2 0.50829062E-01 0.10008628E+04</pdfrwt>
<pdfrwt beam="2">  1       -2 0.11661390E+00 0.10008628E+04</pdfrwt>
<totfact> 0.65741680E+01</totfact>
</mgrwt>
</event>
<event>
 9    1  0.4497870E-036  0.9994669E+03  0.7818608E-02  0.8681546E-01
          2   -1    0    0  501    0  0.00000000000E+00  0.00000000000E+00  0.62811258654E+03  0.62811258654E+03  0.00000000000E+00 0. -1.
         -2   -1    0    0    0  501 -0.00000000000E+00 -0.00000000000E+00 -0.39759357103E+03  0.39759357103E+03  0.00000000000E+00 0. -1.
         36    2    1    2    0    0  0.71054273576E-14 -0.28421709430E-13  0.23051901551E+03  0.10257061576E+04  0.99946691049E+03 0.  0.
         25    2    3    3    0    0 -0.56281123296E+02  0.10480033109E+03  0.11489980492E+03  0.20752341460E+03  0.12535281490E+03 0.  0.
         35    2    3    3    0    0  0.56281123296E+02 -0.10480033109E+03  0.11561921060E+03  0.81818274297E+03  0.80118944376E+03 0.  0.
         22    1    5    5    0    0  0.25333218114E+02  0.28031118005E+03 -0.17791425562E+03  0.33297088755E+03  0.00000000000E+00 0. -1.
         22    1    5    5    0    0  0.30947905182E+02 -0.38511151114E+03  0.29353346622E+03  0.48521185542E+03  0.00000000000E+00 0. -1.
          5    1    4    4  502    0  0.38657260133E+02  0.14259890801E+02  0.25138818895E+02  0.48495138541E+02  0.47000000000E+01 0.  1.
         -5    1    4    4    0  502 -0.94938383429E+02  0.90540440288E+02  0.89760986020E+02  0.15902827606E+03  0.47000000000E+01 0.  1.
<mgrwt>
<rscale>  0 0.99946691E+03</rscale>
<asrwt>0</asrwt>
<pdfrwt beam="1">  1        2 0.96632706E-01 0.99946691E+03</pdfrwt>
<pdfrwt beam="2">  1       -2 0.61168241E-01 0.99946691E+03</pdfrwt>
<totfact> 0.14108405E+02</totfact>
</mgrwt>
</event>
<event>
 9    1  0.4497870E-036  0.9974791E+03  0.7818608E-02  0.8683442E-01
          2   -1    0    0  501    0  0.00000000000E+00  0.00000000000E+00  0.11921214410E+03  0.11921214410E+03  0.00000000000E+00 0. -1.
         -2   -1    0    0    0  501 -0.00000000000E+00 -0.00000000000E+00 -0.20865417920E+04  0.20865417920E+04  0.00000000000E+00 0. -1.
         36    2    1    2    0    0  0.14210854715E-13 -0.28421709430E-13 -0.19673296478E+04  0.22057539361E+04  0.99747906400E+03 0.  0.
         25    2    3    3    0    0 -0.10458902249E+03 -0.70525359340E+02 -0.48191237493E+03  0.51382866911E+03  0.12596695656E+03 0.  0.
         35    2    3    3    0    0  0.10458902249E+03  0.70525359340E+02 -0.14854172729E+04  0.16919252669E+04  0.80014620185E+03 0.  0.
         22    1    5    5    0    0  0.50683978563E+02  0.38850278446E+03 -0.40126136102E+03  0.56081544118E+03  0.00000000000E+00 0.  1.
         22    1    5    5    0    0  0.53905043928E+02 -0.31797742513E+03 -0.10841559119E+04  0.11311098258E+04  0.00000000000E+00 0.  1.
          5    1    4    4  502    0 -0.13303117136E+03 -0.66905136048E+02 -0.39310455260E+03  0.42038894974E+03  0.47000000000E+01 0.  1.
         -5    1    4    4    0  502  0.28442148867E+02 -0.36202232911E+01 -0.88807822333E+02  0.93439719372E+02  0.47000000000E+01 0.  1.
<mgrwt>
<rscale>  0 0.99747906E+03</rscale>
<asrwt>0</asrwt>
<pdfrwt beam="1">  1        2 0.18340330E-01 0.99747906E+03</pdfrwt>
<pdfrwt beam="2">  1       -2 0.32100642E+00 0.99747906E+03</pdfrwt>
<totfact> 0.84517025E+00</totfact>
</mgrwt>
</event>
<event>
 9    1  0.4497870E-036  0.9999849E+03  0.7818608E-02  0.8681052E-01
          2   -1    0    0  501    0  0.00000000000E+00  0.00000000000E+00  0.54308887181E+03  0.54308887181E+03  0.00000000000E+00 0. -1.
         -2   -1    0    0    0  501 -0.00000000000E+00 -0.00000000000E+00 -0.46031592190E+03  0.46031592190E+03  0.00000000000E+00 0. -1.
         36    2    1    2    0    0 -0.14210854715E-13 -0.14210854715E-13  0.82772949905E+02  0.10034047937E+04  0.99998490929E+03 0.  0.
         25    2    3    3    0    0 -0.77051955385E+01 -0.11140829920E+03 -0.69562780784E+02  0.18093200575E+03  0.12420237946E+03 0.  0.
         35    2    3    3    0    0  0.77051955385E+01  0.11140829920E+03  0.15233573069E+03  0.82247278796E+03  0.80048993306E+03 0.  0.
         22    1    5    5    0    0 -0.37519006756E+03 -0.36784962677E+02  0.16543522738E+03  0.41169106711E+03  0.00000000000E+00 0. -1.
         22    1    5    5    0    0  0.38289526310E+03  0.14819326188E+03 -0.13099496690E+02  0.41078172085E+03  0.00000000000E+00 0. -1.
          5    1    4    4  502    0 -0.45725629066E+02 -0.11418057834E+03 -0.31932506438E+02  0.12716057798E+03  0.47000000000E+01 0. -1.
         -5    1    4    4    0  502  0.38020433528E+02  0.27722791385E+01 -0.37630274346E+02  0.53771427772E+02  0.47000000000E+01 0. -1.
<mgrwt>
<rscale>  0 0.99998491E+03</rscale>
<asrwt>0</asrwt>
<pdfrwt beam="1">  1        2 0.83552134E-01 0.99998491E+03</pdfrwt>
<pdfrwt beam="2">  1       -2 0.70817834E-01 0.99998491E+03</pdfrwt>
<totfact> 0.12247686E+02</totfact>
</mgrwt>
</event>
<event>
 9    1  0.4497870E-036  0.9999786E+03  0.7818608E-02  0.8681058E-01
         -3   -1    0    0    0  501 -0.00000000000E+00  0.00000000000E+00  0.20285916920E+03  0.20285916920E+03  0.00000000000E+00 0. -1.
          3   -1    0    0  501    0  0.00000000000E+00 -0.00000000000E+00 -0.12323292090E+04  0.12323292090E+04  0.00000000000E+00 0. -1.
         36    2    1    2    0    0  0.00000000000E+00  0.00000000000E+00 -0.10294700398E+04  0.14351883782E+04  0.99997855883E+03 0.  0.
         25    2    3    3    0    0 -0.16258934618E+02 -0.11792940017E+03 -0.30236049429E+03  0.34798057218E+03  0.12448660060E+03 0.  0.
         35    2    3    3    0    0  0.16258934618E+02  0.11792940017E+03 -0.72710954555E+03  0.10872078061E+04  0.79947534418E+03 0.  0.
         22    1    5    5    0    0  0.80635851391E+02 -0.33235228311E+03 -0.22328506194E+03  0.40843163382E+03  0.00000000000E+00 0. -1.
         22    1    5    5    0    0 -0.64376916773E+02  0.45028168328E+03 -0.50382448361E+03  0.67877617224E+03  0.00000000000E+00 0. -1.
          5    1    4    4  502    0  0.27566021281E+02 -0.12379865647E+03 -0.20791498937E+03  0.24359130871E+03  0.47000000000E+01 0.  1.
         -5    1    4    4    0  502 -0.43824955898E+02  0.58692563042E+01 -0.94445504913E+02  0.10438926347E+03  0.47000000000E+01 0.  1.
<mgrwt>
<rscale>  0 0.99997856E+03</rscale>
<asrwt>0</asrwt>
<pdfrwt beam="1">  1        3 0.18958911E+00 0.99997856E+03</pdfrwt>
<pdfrwt beam="2">  1       -3 0.31209104E-01 0.99997856E+03</pdfrwt>
<totfact> 0.69734640E+00</totfact>
</mgrwt>
</event>
<event>
 9    1  0.4497870E-036  0.9995982E+03  0.7818608E-02  0.8681421E-01
          2   -1    0    0  501    0  0.00000000000E+00  0.00000000000E+00  0.16306703692E+04  0.16306703692E+04  0.00000000000E+00 0.  1.
         -2   -1    0    0    0  501 -0.00000000000E+00 -0.00000000000E+00 -0.15318801779E+03  0.15318801779E+03  0.00000000000E+00 0.  1.
         36    2    1    2    0    0 -0.28421709430E-13  0.00000000000E+00  0.14774823514E+04  0.17838583870E+04  0.99959824235E+03 0.  0.
         25    2    3    3    0    0  0.38366803674E+02 -0.13022688241E+03  0.34212782880E+03  0.38846312989E+03  0.12418171972E+03 0.  0.
         35    2    3    3    0    0 -0.38366803674E+02  0.13022688241E+03  0.11353545226E+04  0.13953952571E+04  0.79979183481E+03 0.  0.
         22    1    5    5    0    0 -0.29236008117E+03 -0.19682871499E+03  0.29919241563E+03  0.46231164995E+03  0.00000000000E+00 0. -1.
         22    1    5    5    0    0  0.25399327750E+03  0.32705559740E+03  0.83616210696E+03  0.93308360714E+03  0.00000000000E+00 0. -1.
          5    1    4    4  502    0  0.24699747425E+02  0.11484366419E+02  0.14512207460E+02  0.31219582961E+02  0.47000000000E+01 0. -1.
         -5    1    4    4    0  502  0.13667056249E+02 -0.14171124883E+03  0.32761562134E+03  0.35724354693E+03  0.47000000000E+01 0. -1.
<mgrwt>
<rscale>  0 0.99959824E+03</rscale>
<asrwt>0</asrwt>
<pdfrwt beam="1">  1        2 0.25087235E+00 0.99959824E+03</pdfrwt>
<pdfrwt beam="2">  1       -2 0.23567389E-01 0.99959824E+03</pdfrwt>
<totfact> 0.20354845E+02</totfact>
</mgrwt>
</event>
<event>
 9    1  0.4497870E-036  0.9999042E+03  0.7818608E-02  0.8681129E-01
          2   -1    0    0  501    0  0.00000000000E+00  0.00000000000E+00  0.12363198294E+04  0.12363198294E+04  0.00000000000E+00 0.  1.
         -2   -1    0    0    0  501 -0.00000000000E+00 -0.00000000000E+00 -0.20217430338E+03  0.20217430338E+03  0.00000000000E+00 0.  1.
         36    2    1    2    0    0  0.00000000000E+00  0.00000000000E+00  0.10341455260E+04  0.14384941328E+04  0.99990419596E+03 0.  0.
         25    2    3    3    0    0  0.92775093817E+02 -0.89536081255E+02  0.10790419658E+03  0.20780361124E+03  0.12212738156E+03 0.  0.
         35    2    3    3    0    0 -0.92775093817E+02  0.89536081255E+02  0.92624132947E+03  0.12306905216E+04  0.80003264408E+03 0.  0.
         22    1    5    5    0    0  0.30795072426E+03  0.21096166758E+03  0.56776685645E+03  0.67948338982E+03  0.00000000000E+00 0. -1.
         22    1    5    5    0    0 -0.40072581808E+03 -0.12142558632E+03  0.35847447301E+03  0.55120713175E+03  0.00000000000E+00 0. -1.
          5    1    4    4  502    0  0.37807714576E+02 -0.49161615238E+02  0.12296573270E+03  0.13780039591E+03  0.47000000000E+01 0. -1.
         -5    1    4    4    0  502  0.54967379241E+02 -0.40374466018E+02 -0.15061536118E+02  0.70003215334E+02  0.47000000000E+01 0. -1.
<mgrwt>
<rscale>  0 0.99990420E+03</rscale>
<asrwt>0</asrwt>
<pdfrwt beam="1">  1        2 0.19020305E+00 0.99990420E+03</pdfrwt>
<pdfrwt beam="2">  1       -2 0.31103740E-01 0.99990420E+03</pdfrwt>
<totfact> 0.20779348E+02</totfact>
</mgrwt>
</event>
<event>
 9    1  0.4497870E-036  0.9997737E+03  0.7818608E-02  0.8681253E-01
          2   -1    0    0  501    0  0.00000000000E+00  0.00000000000E+00  0.47114748386E+03  0.47114748386E+03  0.00000000000E+00 0. -1.
         -2   -1    0    0    0  501 -0.00000000000E+00 -0.00000000000E+00 -0.53037926759E+03  0.53037926759E+03  0.00000000000E+00 0. -1.
         36    2    1    2    0    0  0.42632564146E-13 -0.28421709430E-13 -0.59231783721E+02  0.10015267514E+04  0.99977368923E+03 0.  0.
         25    2    3    3    0    0 -0.77681742273E+02  0.10587449113E+03  0.33463101243E+02  0.18469093991E+03  0.12548746226E+03 0.  0.
         35    2    3    3    0    0  0.77681742273E+02 -0.10587449113E+03 -0.92694884964E+02  0.81683581154E+03  0.80086487022E+03 0.  0.
         22    1    5    5    0    0 -0.26028326714E+03  0.21788661707E+03 -0.79510011305E+02  0.34863132239E+03  0.00000000000E+00 0. -1.
         22    1    5    5    0    0  0.33796500941E+03 -0.32376110820E+03 -0.13184873658E+02  0.46820448915E+03  0.00000000000E+00 0. -1.
          5    1    4    4  502    0 -0.20666079137E+02  0.86786787368E+02  0.70598740309E+02  0.11386529507E+03  0.47000000000E+01 0. -1.
         -5    1    4    4    0  502 -0.57015663135E+02  0.19087703766E+02 -0.37135639067E+02  0.70825644838E+02  0.47000000000E+01 0. -1.
<mgrwt>
<rscale>  0 0.99977369E+03</rscale>
<asrwt>0</asrwt>
<pdfrwt beam="1">  1        2 0.72484228E-01 0.99977369E+03</pdfrwt>
<pdfrwt beam="2">  1       -2 0.81596810E-01 0.99977369E+03</pdfrwt>
<totfact> 0.10493785E+02</totfact>
</mgrwt>
</event>
<event>
 9    1  0.4497870E-036  0.9998891E+03  0.7818608E-02  0.8681144E-01
          2   -1    0    0  501    0  0.00000000000E+00  0.00000000000E+00  0.15342404936E+04  0.15342404936E+04  0.00000000000E+00 0. -1.
         -2   -1    0    0    0  501 -0.00000000000E+00 -0.00000000000E+00 -0.16291094476E+03  0.16291094476E+03  0.00000000000E+00 0. -1.
         36    2    1    2    0    0  0.00000000000E+00  0.14210854715E-13  0.13713295489E+04  0.16971514384E+04  0.99988913046E+03 0.  0.
         25    2    3    3    0    0  0.82746415597E+02 -0.99097499855E+02  0.16134759313E+03  0.24134133780E+03  0.12468083954E+03 0.  0.
         35    2    3    3    0    0 -0.82746415597E+02  0.99097499855E+02  0.12099819558E+04  0.14558101006E+04  0.79916170578E+03 0.  0.
         22    1    5    5    0    0  0.33805108926E+03  0.15969978213E+03  0.68384627554E+03  0.77937685873E+03  0.00000000000E+00 0. -1.
         22    1    5    5    0    0 -0.42079750485E+03 -0.60602282280E+02  0.52613568022E+03  0.67643324187E+03  0.00000000000E+00 0. -1.
          5    1    4    4  502    0  0.76535948106E+02 -0.12556099518E+03  0.11236513941E+03  0.18512517229E+03  0.47000000000E+01 0.  1.
         -5    1    4    4    0  502  0.62104674913E+01  0.26463495321E+02  0.48982453726E+02  0.56216165505E+02  0.47000000000E+01 0.  1.
<mgrwt>
<rscale>  0 0.99988913E+03</rscale>
<asrwt>0</asrwt>
<pdfrwt beam="1">  1        2 0.23603699E+00 0.99988913E+03</pdfrwt>
<pdfrwt beam="2">  1       -2 0.25063223E-01 0.99988913E+03</pdfrwt>
<totfact> 0.20692910E+02</totfact>
</mgrwt>
</event>
<event>
 9    1  0.4497870E-036  0.9994377E+03  0.7818608E-02  0.8681574E-01
          2   -1    0    0  501    0  0.00000000000E+00  0.00000000000E+00  0.15310826985E+04  0.15310826985E+04  0.00000000000E+00 0. -1.
         -2   -1    0    0    0  501 -0.00000000000E+00 -0.00000000000E+00 -0.16309956505E+03  0.16309956505E+03  0.00000000000E+00 0. -1.
         36    2    1    2    0    0  0.00000000000E+00  0.14210854715E-13  0.13679831335E+04  0.16941822636E+04  0.99943768629E+03 0.  0.
         25    2    3    3    0    0 -0.82629206657E+02 -0.10979093709E+03  0.29734818734E+03  0.35047097315E+03  0.12462874003E+03 0.  0.
         35    2    3    3    0    0  0.82629206657E+02  0.10979093709E+03  0.10706349461E+04  0.13437112904E+04  0.80026196243E+03 0.  0.
         22    1    5    5    0    0  0.45955422932E+02  0.99123076684E+02 -0.11432407066E+03  0.15813689753E+03  0.00000000000E+00 0. -1.
         22    1    5    5    0    0  0.36673783726E+02  0.10667860402E+02  0.11849590168E+04  0.11855743929E+04  0.00000000000E+00 0. -1.
          5    1    4    4  502    0 -0.53016366314E+02 -0.80587994548E+02  0.29286323082E+03  0.30837659108E+03  0.47000000000E+01 0.  1.
         -5    1    4    4    0  502 -0.29612840343E+02 -0.29202942538E+02  0.44849565236E+01  0.42094382061E+02  0.47000000000E+01 0.  1.
<mgrwt>
<rscale>  0 0.99943769E+03</rscale>
<asrwt>0</asrwt>
<pdfrwt beam="1">  1        2 0.23555118E+00 0.99943769E+03</pdfrwt>
<pdfrwt beam="2">  1       -2 0.25092242E-01 0.99943769E+03</pdfrwt>
<totfact> 0.20735583E+02</totfact>
</mgrwt>
</event>
<event>
 9    1  0.4497870E-036  0.9939696E+03  0.7818608E-02  0.8686802E-01
         -2   -1    0    0    0  501 -0.00000000000E+00  0.00000000000E+00  0.11281046324E+03  0.11281046324E+03  0.00000000000E+00 0.  1.
          2   -1    0    0  501    0  0.00000000000E+00 -0.00000000000E+00 -0.21894590386E+04  0.21894590386E+04  0.00000000000E+00 0.  1.
         36    2    1    2    0    0  0.35527136788E-14  0.28421709430E-13 -0.20766485753E+04  0.23022695018E+04  0.99396959388E+03 0.  0.
         25    2    3    3    0    0  0.27603486232E+02  0.24580616666E+02 -0.86506961427E+02  0.15685065153E+03  0.12550901697E+03 0.  0.
         35    2    3    3    0    0 -0.27603486232E+02 -0.24580616666E+02 -0.19901416139E+04  0.21454188503E+04  0.80049499724E+03 0.  0.
         22    1    5    5    0    0  0.73936614403E+02  0.37530623775E+03 -0.82440810438E+03  0.90882898149E+03  0.00000000000E+00 0.  1.
         22    1    5    5    0    0 -0.10154010064E+03 -0.39988685441E+03 -0.11657335095E+04  0.12365898688E+04  0.00000000000E+00 0.  1.
          5    1    4    4  502    0  0.19424657924E+02  0.25273036720E+02  0.27555790708E+02  0.42396406948E+02  0.47000000000E+01 0.  1.
         -5    1    4    4    0  502  0.81788283083E+01 -0.69242005408E+00 -0.11406275213E+03  0.11445424458E+03  0.47000000000E+01 0.  1.
<mgrwt>
<rscale>  0 0.99396959E+03</rscale>
<asrwt>0</asrwt>
<pdfrwt beam="1">  1        2 0.33683985E+00 0.99396959E+03</pdfrwt>
<pdfrwt beam="2">  1       -2 0.17355456E-01 0.99396959E+03</pdfrwt>
<totfact> 0.16642155E+02</totfact>
</mgrwt>
</event>
<event>
 9    1  0.4497870E-036  0.1002807E+04  0.7818608E-02  0.8678369E-01
          1   -1    0    0  501    0  0.00000000000E+00  0.00000000000E+00  0.77468921200E+03  0.77468921200E+03  0.00000000000E+00 0.  1.
         -1   -1    0    0    0  501 -0.00000000000E+00 -0.00000000000E+00 -0.32452434625E+03  0.32452434625E+03  0.00000000000E+00 0.  1.
         36    2    1    2    0    0 -0.71054273576E-14 -0.14210854715E-13  0.45016486575E+03  0.10992135582E+04  0.10028070803E+04 0.  0.
         25    2    3    3    0    0 -0.41071881346E+02 -0.69470070430E+02 -0.42185511796E+02  0.15641905138E+03  0.12717826900E+03 0.  0.
         35    2    3    3    0    0  0.41071881346E+02  0.69470070430E+02  0.49235037755E+03  0.94279450687E+03  0.79996224773E+03 0.  0.
         22    1    5    5    0    0 -0.46143861537E+02 -0.22975590138E+03 -0.11432258724E+03  0.26074256294E+03  0.00000000000E+00 0.  1.
         22    1    5    5    0    0  0.87215742882E+02  0.29922597181E+03  0.60667296478E+03  0.68205194393E+03  0.00000000000E+00 0.  1.
          5    1    4    4  502    0 -0.24477200767E+02 -0.10396771689E+03 -0.48389435917E+02  0.11735436516E+03  0.47000000000E+01 0.  1.
         -5    1    4    4    0  502 -0.16594680579E+02  0.34497646463E+02  0.62039241210E+01  0.39064686220E+02  0.47000000000E+01 0.  1.
<mgrwt>
<rscale>  0 0.10028071E+04</rscale>
<asrwt>0</asrwt>
<pdfrwt beam="1">  1        1 0.11918295E+00 0.10028071E+04</pdfrwt>
<pdfrwt beam="2">  1       -1 0.49926823E-01 0.10028071E+04</pdfrwt>
<totfact> 0.10695690E+02</totfact>
</mgrwt>
</event>
<event>
 9    1  0.4497870E-036  0.9997390E+03  0.7818608E-02  0.8681287E-01
          2   -1    0    0  501    0  0.00000000000E+00  0.00000000000E+00  0.13966071406E+04  0.13966071406E+04  0.00000000000E+00 0.  1.
         -2   -1    0    0    0  501 -0.00000000000E+00 -0.00000000000E+00 -0.17891180507E+03  0.17891180507E+03  0.00000000000E+00 0.  1.
         36    2    1    2    0    0 -0.28421709430E-13  0.28421709430E-13  0.12176953355E+04  0.15755189456E+04  0.99973897492E+03 0.  0.
         25    2    3    3    0    0 -0.51627755095E+02  0.12997245748E+03  0.23454096363E+03  0.29988577288E+03  0.12395058838E+03 0.  0.
         35    2    3    3    0    0  0.51627755095E+02 -0.12997245748E+03  0.98315437189E+03  0.12756331728E+04  0.80068046541E+03 0.  0.
         22    1    5    5    0    0  0.30639726964E+03 -0.29846608563E+03  0.28612354444E+03  0.51461439331E+03  0.00000000000E+00 0. -1.
         22    1    5    5    0    0 -0.25476951455E+03  0.16849362816E+03  0.69703082745E+03  0.76101877946E+03  0.00000000000E+00 0. -1.
          5    1    4    4  502    0  0.26636261271E+02  0.98780782784E+02  0.12433497305E+03  0.16108509858E+03  0.47000000000E+01 0.  1.
         -5    1    4    4    0  502 -0.78264016366E+02  0.31191674695E+02  0.11020599058E+03  0.13880067431E+03  0.47000000000E+01 0.  1.
<mgrwt>
<rscale>  0 0.99973897E+03</rscale>
<asrwt>0</asrwt>
<pdfrwt beam="1">  1        2 0.21486263E+00 0.99973897E+03</pdfrwt>
<pdfrwt beam="2">  1       -2 0.27524894E-01 0.99973897E+03</pdfrwt>
<totfact> 0.20955779E+02</totfact>
</mgrwt>
</event>
<event>
 9    1  0.4497870E-036  0.1000969E+04  0.7818608E-02  0.8680115E-01
          2   -1    0    0  501    0  0.00000000000E+00  0.00000000000E+00  0.19579809953E+04  0.19579809953E+04  0.00000000000E+00 0. -1.
         -2   -1    0    0    0  501 -0.00000000000E+00 -0.00000000000E+00 -0.12793018234E+03  0.12793018234E+03  0.00000000000E+00 0. -1.
         36    2    1    2    0    0  0.00000000000E+00  0.14210854715E-13  0.18300508130E+04  0.20859111776E+04  0.10009692618E+04 0.  0.
         25    2    3    3    0    0  0.10102667733E+02  0.10199527632E+03  0.14113950108E+03  0.21408099588E+03  0.12411774146E+03 0.  0.
         35    2    3    3    0    0 -0.10102667733E+02 -0.10199527632E+03  0.16889113119E+04  0.18718301818E+04  0.80051340379E+03 0.  0.
         22    1    5    5    0    0  0.12574687591E+03  0.30290001688E+03  0.10754641600E+04  0.11243593094E+04  0.00000000000E+00 0. -1.
         22    1    5    5    0    0 -0.13584954365E+03 -0.40489529320E+03  0.61344715185E+03  0.74747087239E+03  0.00000000000E+00 0. -1.
          5    1    4    4  502    0  0.76268804093E+00  0.98698907545E+02  0.31237621015E+02  0.10363365771E+03  0.47000000000E+01 0.  1.
         -5    1    4    4    0  502  0.93399796918E+01  0.32963687788E+01  0.10990188006E+03  0.11044733817E+03  0.47000000000E+01 0.  1.
<mgrwt>
<rscale>  0 0.10009693E+04</rscale>
<asrwt>0</asrwt>
<pdfrwt beam="1">  1        2 0.30122782E+00 0.10009693E+04</pdfrwt>
<pdfrwt beam="2">  1       -2 0.19681568E-01 0.10009693E+04</pdfrwt>
<totfact> 0.18209709E+02</totfact>
</mgrwt>
</event>
<event>
 9    1  0.4497870E-036  0.1000386E+04  0.7818608E-02  0.8680671E-01
          2   -1    0    0  501    0  0.00000000000E+00  0.00000000000E+00  0.21424854180E+04  0.21424854180E+04  0.00000000000E+00 0.  1.
         -2   -1    0    0    0  501 -0.00000000000E+00 -0.00000000000E+00 -0.11677693220E+03  0.11677693220E+03  0.00000000000E+00 0.  1.
         36    2    1    2    0    0  0.35527136788E-14  0.30198066270E-13  0.20257084858E+04  0.22592623502E+04  0.10003856744E+04 0.  0.
         25    2    3    3    0    0 -0.30446033302E+02  0.11565307699E+02  0.68162709095E+03  0.69369441268E+03  0.12464240759E+03 0.  0.
         35    2    3    3    0    0  0.30446033302E+02 -0.11565307699E+02  0.13440813948E+04  0.15655679375E+04  0.80211436451E+03 0.  0.
         22    1    5    5    0    0  0.41870101178E+02  0.39419754412E+03  0.68989947800E+03  0.79567964591E+03  0.00000000000E+00 0.  1.
         22    1    5    5    0    0 -0.11424067876E+02 -0.40576285182E+03  0.65418191682E+03  0.76988829160E+03  0.00000000000E+00 0.  1.
          5    1    4    4  502    0 -0.23991346147E+01  0.12531843164E+01  0.64966344053E+03  0.64968607979E+03  0.47000000000E+01 0. -1.
         -5    1    4    4    0  502 -0.28046898687E+02  0.10312123382E+02  0.31963650428E+02  0.44008332885E+02  0.47000000000E+01 0. -1.
<mgrwt>
<rscale>  0 0.10003857E+04</rscale>
<asrwt>0</asrwt>
<pdfrwt beam="1">  1        2 0.32961311E+00 0.10003857E+04</pdfrwt>
<pdfrwt beam="2">  1       -2 0.17965683E-01 0.10003857E+04</pdfrwt>
<totfact> 0.16702771E+02</totfact>
</mgrwt>
</event>
<event>
 9    1  0.4497870E-036  0.9984394E+03  0.7818608E-02  0.8682526E-01
         -2   -1    0    0    0  501 -0.00000000000E+00  0.00000000000E+00  0.25291972410E+03  0.25291972410E+03  0.00000000000E+00 0.  1.
          2   -1    0    0  501    0  0.00000000000E+00 -0.00000000000E+00 -0.98537318861E+03  0.98537318861E+03  0.00000000000E+00 0.  1.
         36    2    1    2    0    0  0.35527136788E-14  0.00000000000E+00 -0.73245346451E+03  0.12382929127E+04  0.99843941228E+03 0.  0.
         25    2    3    3    0    0 -0.50261788923E+01  0.12812428158E+03 -0.97164938185E+02  0.20872998952E+03  0.13298905709E+03 0.  0.
         35    2    3    3    0    0  0.50261788923E+01 -0.12812428158E+03 -0.63528852632E+03  0.10295629232E+04  0.79997950419E+03 0.  0.
         22    1    5    5    0    0 -0.25653612973E+02 -0.35510612356E+03 -0.70529026582E+03  0.79005874839E+03  0.00000000000E+00 0.  1.
         22    1    5    5    0    0  0.30679791865E+02  0.22698184197E+03  0.70001739500E+02  0.23950417480E+03  0.00000000000E+00 0.  1.
          5    1    4    4  502    0  0.21314323604E+02  0.14901407007E+03 -0.75601445058E+02  0.16851457493E+03  0.47000000000E+01 0.  1.
         -5    1    4    4    0  502 -0.26340502496E+02 -0.20889788485E+02 -0.21563493126E+02  0.40215414588E+02  0.47000000000E+01 0.  1.
<mgrwt>
<rscale>  0 0.99843941E+03</rscale>
<asrwt>0</asrwt>
<pdfrwt beam="1">  1        2 0.15159588E+00 0.99843941E+03</pdfrwt>
<pdfrwt beam="2">  1       -2 0.38910726E-01 0.99843941E+03</pdfrwt>
<totfact> 0.19423063E+02</totfact>
</mgrwt>
</event>
<event>
 9    1  0.4497870E-036  0.9948981E+03  0.7818608E-02  0.8685912E-01
          1   -1    0    0  501    0  0.00000000000E+00  0.00000000000E+00  0.74724932133E+03  0.74724932133E+03  0.00000000000E+00 0. -1.
         -1   -1    0    0    0  501 -0.00000000000E+00 -0.00000000000E+00 -0.33115528893E+03  0.33115528893E+03  0.00000000000E+00 0. -1.
         36    2    1    2    0    0  0.14210854715E-13 -0.71054273576E-14  0.41609403241E+03  0.10784046103E+04  0.99489811520E+03 0.  0.
         25    2    3    3    0    0 -0.65094155199E+02  0.23835699432E+02  0.19486316900E+03  0.24171452659E+03  0.12509543606E+03 0.  0.
         35    2    3    3    0    0  0.65094155199E+02 -0.23835699432E+02  0.22123086340E+03  0.83669008367E+03  0.80392898416E+03 0.  0.
         22    1    5    5    0    0  0.33626738235E+03 -0.14510174698E+03  0.35576978900E+03  0.51059025860E+03  0.00000000000E+00 0. -1.
         22    1    5    5    0    0 -0.27117322715E+03  0.12126604755E+03 -0.13453892560E+03  0.32609982507E+03  0.00000000000E+00 0. -1.
          5    1    4    4  502    0 -0.75035593986E+02  0.54292667917E+02  0.18647877382E+03  0.20826535295E+03  0.47000000000E+01 0. -1.
         -5    1    4    4    0  502  0.99414387870E+01 -0.30456968485E+02  0.83843951817E+01  0.33449173637E+02  0.47000000000E+01 0. -1.
<mgrwt>
<rscale>  0 0.99489812E+03</rscale>
<asrwt>0</asrwt>
<pdfrwt beam="1">  1        1 0.11496143E+00 0.99489812E+03</pdfrwt>
<pdfrwt beam="2">  1       -1 0.50946968E-01 0.99489812E+03</pdfrwt>
<totfact> 0.10918211E+02</totfact>
</mgrwt>
</event>
<event>
 9    1  0.4497870E-036  0.9993089E+03  0.7818608E-02  0.8681696E-01
          2   -1    0    0  501    0  0.00000000000E+00  0.00000000000E+00  0.11255289548E+03  0.11255289548E+03  0.00000000000E+00 0.  1.
         -2   -1    0    0    0  501 -0.00000000000E+00 -0.00000000000E+00 -0.22181086906E+04  0.22181086906E+04  0.00000000000E+00 0.  1.
         36    2    1    2    0    0  0.00000000000E+00  0.00000000000E+00 -0.21055557952E+04  0.23306615861E+04  0.99930887241E+03 0.  0.
         25    2    3    3    0    0  0.98709031670E+02 -0.74050580227E+02 -0.53360478900E+03  0.56452477969E+03  0.13684734077E+03 0.  0.
         35    2    3    3    0    0 -0.98709031670E+02  0.74050580227E+02 -0.15719510062E+04  0.17661368064E+04  0.79560184256E+03 0.  0.
         22    1    5    5    0    0 -0.16864177234E+03  0.19807548641E+03 -0.16000065129E+04  0.16210165906E+04  0.00000000000E+00 0. -1.
         22    1    5    5    0    0  0.69932740670E+02 -0.12402490618E+03  0.28055506769E+02  0.14512021579E+03  0.00000000000E+00 0. -1.
          5    1    4    4  502    0  0.10656043335E+02  0.34886850887E+02 -0.57817290195E+02  0.68524248773E+02  0.47000000000E+01 0. -1.
         -5    1    4    4    0  502  0.88052988335E+02 -0.10893743111E+03 -0.47578749881E+03  0.49600053092E+03  0.47000000000E+01 0. -1.
<mgrwt>
<rscale>  0 0.99930887E+03</rscale>
<asrwt>0</asrwt>
<pdfrwt beam="1">  1        2 0.17315831E-01 0.99930887E+03</pdfrwt>
<pdfrwt beam="2">  1       -2 0.34124748E+00 0.99930887E+03</pdfrwt>
<totfact> 0.71316546E+00</totfact>
</mgrwt>
</event>
<event>
 9    1  0.4497870E-036  0.1001345E+04  0.7818608E-02  0.8679758E-01
         -1   -1    0    0    0  501 -0.00000000000E+00  0.00000000000E+00  0.35293802173E+03  0.35293802173E+03  0.00000000000E+00 0.  1.
          1   -1    0    0  501    0  0.00000000000E+00 -0.00000000000E+00 -0.71024686719E+03  0.71024686719E+03  0.00000000000E+00 0.  1.
         36    2    1    2    0    0  0.35527136788E-14  0.00000000000E+00 -0.35730884546E+03  0.10631848889E+04  0.10013453435E+04 0.  0.
         25    2    3    3    0    0  0.29842192415E+02  0.13279208572E+03 -0.86356945746E+02  0.20345592128E+03  0.12414707144E+03 0.  0.
         35    2    3    3    0    0 -0.29842192415E+02 -0.13279208572E+03 -0.27095189972E+03  0.85972896764E+03  0.80448410261E+03 0.  0.
         22    1    5    5    0    0  0.23763960640E+03 -0.33646521355E+03 -0.31781985280E+03  0.52027961836E+03  0.00000000000E+00 0.  1.
         22    1    5    5    0    0 -0.26748179881E+03  0.20367312783E+03  0.46867953079E+02  0.33944934927E+03  0.00000000000E+00 0.  1.
          5    1    4    4  502    0  0.37565614747E+02  0.15499261762E+03 -0.80830405012E+02  0.17885617490E+03  0.47000000000E+01 0.  1.
         -5    1    4    4    0  502 -0.77234223317E+01 -0.22200531901E+02 -0.55265407348E+01  0.24599746375E+02  0.47000000000E+01 0.  1.
<mgrwt>
<rscale>  0 0.10013453E+04</rscale>
<asrwt>0</asrwt>
<pdfrwt beam="1">  1        1 0.10926875E+00 0.10013453E+04</pdfrwt>
<pdfrwt beam="2">  1       -1 0.54298158E-01 0.10013453E+04</pdfrwt>
<totfact> 0.10487758E+02</totfact>
</mgrwt>
</event>
<event>
 9    1  0.4497870E-036  0.9993999E+03  0.7818608E-02  0.8681610E-01
          1   -1    0    0  501    0  0.00000000000E+00  0.00000000000E+00  0.15037787907E+04  0.15037787907E+04  0.00000000000E+00 0. -1.
         -1   -1    0    0    0  501 -0.00000000000E+00 -0.00000000000E+00 -0.16604837895E+03  0.16604837895E+03  0.00000000000E+00 0. -1.
         36    2    1    2    0    0  0.56843418861E-13  0.71054273576E-14  0.13377304117E+04  0.16698271696E+04  0.99939988092E+03 0.  0.
         25    2    3    3    0    0  0.12704105358E+03  0.35380962504E+02  0.17218729600E+03  0.24942082586E+03  0.12317078252E+03 0.  0.
         35    2    3    3    0    0 -0.12704105358E+03 -0.35380962504E+02  0.11655431157E+04  0.14204063438E+04  0.80104443385E+03 0.  0.
         22    1    5    5    0    0  0.27265295159E+03  0.46218394308E+02  0.88008582827E+03  0.92251115826E+03  0.00000000000E+00 0.  1.
         22    1    5    5    0    0 -0.39969400517E+03 -0.81599356812E+02  0.28545728747E+03  0.49789518552E+03  0.00000000000E+00 0.  1.
          5    1    4    4  502    0 -0.59213538009E+01  0.46339916662E+02  0.44334292076E+02  0.64576077312E+02  0.47000000000E+01 0. -1.
         -5    1    4    4    0  502  0.13296240738E+03 -0.10958954158E+02  0.12785300393E+03  0.18484474855E+03  0.47000000000E+01 0. -1.
<mgrwt>
<rscale>  0 0.99939988E+03</rscale>
<asrwt>0</asrwt>
<pdfrwt beam="1">  1        1 0.23135057E+00 0.99939988E+03</pdfrwt>
<pdfrwt beam="2">  1       -1 0.25545906E-01 0.99939988E+03</pdfrwt>
<totfact> 0.94722923E+01</totfact>
</mgrwt>
</event>
<event>
 9    1  0.4497870E-036  0.1002291E+04  0.7818608E-02  0.8678859E-01
         -1   -1    0    0    0  501 -0.00000000000E+00  0.00000000000E+00  0.65166835236E+03  0.65166835236E+03  0.00000000000E+00 0. -1.
          1   -1    0    0  501    0  0.00000000000E+00 -0.00000000000E+00 -0.38539069388E+03  0.38539069388E+03  0.00000000000E+00 0. -1.
         36    2    1    2    0    0 -0.28421709430E-13 -0.21316282073E-13  0.26627765848E+03  0.10370590462E+04  0.10022912122E+04 0.  0.
         25    2    3    3    0    0 -0.11761221626E+03  0.48513303302E+01  0.13440449204E+03  0.21767294101E+03  0.12434135654E+03 0.  0.
         35    2    3    3    0    0  0.11761221626E+03 -0.48513303302E+01  0.13187316643E+03  0.81938610523E+03  0.80009180010E+03 0.  0.
         22    1    5    5    0    0  0.34989189877E+03  0.26046034641E+03 -0.17232534040E+02  0.43653280874E+03  0.00000000000E+00 0.  1.
         22    1    5    5    0    0 -0.23227968251E+03 -0.26531167674E+03  0.14910570047E+03  0.38285329649E+03  0.00000000000E+00 0.  1.
          5    1    4    4  502    0 -0.63301687973E+02 -0.23525516524E+02  0.14045632393E+03  0.15591864084E+03  0.47000000000E+01 0. -1.
         -5    1    4    4    0  502 -0.54310528288E+02  0.28376846854E+02 -0.60518318898E+01  0.61754300170E+02  0.47000000000E+01 0. -1.
<mgrwt>
<rscale>  0 0.10022912E+04</rscale>
<asrwt>0</asrwt>
<pdfrwt beam="1">  1        1 0.59290876E-01 0.10022912E+04</pdfrwt>
<pdfrwt beam="2">  1       -1 0.10025667E+00 0.10022912E+04</pdfrwt>
<totfact> 0.71555727E+01</totfact>
</mgrwt>
</event>
<event>
 9    1  0.4497870E-036  0.9996887E+03  0.7818608E-02  0.8681334E-01
          1   -1    0    0  501    0  0.00000000000E+00  0.00000000000E+00  0.44022439631E+03  0.44022439631E+03  0.00000000000E+00 0.  1.
         -1   -1    0    0    0  501 -0.00000000000E+00 -0.00000000000E+00 -0.56753864260E+03  0.56753864260E+03  0.00000000000E+00 0.  1.
         36    2    1    2    0    0 -0.14210854715E-13 -0.35527136788E-14 -0.12731424628E+03  0.10077630389E+04  0.99968866418E+03 0.  0.
         25    2    3    3    0    0 -0.47437804259E+02  0.31557256416E+02  0.10456267487E+03  0.17265074312E+03  0.12501488078E+03 0.  0.
         35    2    3    3    0    0  0.47437804259E+02 -0.31557256416E+02 -0.23187692116E+03  0.83511229579E+03  0.80024960751E+03 0.  0.
         22    1    5    5    0    0 -0.32865232481E+03  0.88028055726E+02 -0.27586799174E+03  0.43802333050E+03  0.00000000000E+00 0.  1.
         22    1    5    5    0    0  0.37609012907E+03 -0.11958531214E+03  0.43991070580E+02  0.39708896529E+03  0.00000000000E+00 0.  1.
          5    1    4    4  502    0 -0.36614495913E+02 -0.31388238673E+02  0.96657051501E+02  0.10812270087E+03  0.47000000000E+01 0.  1.
         -5    1    4    4    0  502 -0.10823308346E+02  0.62945495088E+02  0.79056233741E+01  0.64528042248E+02  0.47000000000E+01 0.  1.
<mgrwt>
<rscale>  0 0.99968866E+03</rscale>
<asrwt>0</asrwt>
<pdfrwt beam="1">  1        1 0.67726830E-01 0.99968866E+03</pdfrwt>
<pdfrwt beam="2">  1       -1 0.87313638E-01 0.99968866E+03</pdfrwt>
<totfact> 0.80913003E+01</totfact>
</mgrwt>
</event>
<event>
 9    1  0.4497870E-036  0.9948241E+03  0.7818608E-02  0.8685983E-01
          1   -1    0    0  501    0  0.00000000000E+00  0.00000000000E+00  0.31127459697E+03  0.31127459697E+03  0.00000000000E+00 0. -1.
         -1   -1    0    0    0  501 -0.00000000000E+00 -0.00000000000E+00 -0.79485686753E+03  0.79485686753E+03  0.00000000000E+00 0. -1.
         36    2    1    2    0    0  0.00000000000E+00 -0.14210854715E-13 -0.48358227056E+03  0.11061314645E+04  0.99482410725E+03 0.  0.
         25    2    3    3    0    0 -0.10726302488E+03 -0.38261344223E+02 -0.10017068373E+02  0.16973579573E+03  0.12546159462E+03 0.  0.
         35    2    3    3    0    0  0.10726302488E+03  0.38261344223E+02 -0.47356520219E+03  0.93639566877E+03  0.79975218712E+03 0.  0.
         22    1    5    5    0    0  0.28623820467E+03 -0.23037299294E+03 -0.50710190519E+01  0.36746393146E+03  0.00000000000E+00 0.  1.
         22    1    5    5    0    0 -0.17897517979E+03  0.26863433717E+03 -0.46849418314E+03  0.56893173731E+03  0.00000000000E+00 0.  1.
          5    1    4    4  502    0 -0.67619915474E+02  0.40417523086E+02 -0.18635051362E+02  0.81088743241E+02  0.47000000000E+01 0. -1.
         -5    1    4    4    0  502 -0.39643109407E+02 -0.78678867309E+02  0.86179829889E+01  0.88647052491E+02  0.47000000000E+01 0. -1.
<mgrwt>
<rscale>  0 0.99482411E+03</rscale>
<asrwt>0</asrwt>
<pdfrwt beam="1">  1        1 0.47888400E-01 0.99482411E+03</pdfrwt>
<pdfrwt beam="2">  1       -1 0.12228567E+00 0.99482411E+03</pdfrwt>
<totfact> 0.59347896E+01</totfact>
</mgrwt>
</event>
<event>
 9    1  0.4497870E-036  0.9996405E+03  0.7818608E-02  0.8681380E-01
          2   -1    0    0  501    0  0.00000000000E+00  0.00000000000E+00  0.10763166673E+04  0.10763166673E+04  0.00000000000E+00 0. -1.
         -2   -1    0    0    0  501 -0.00000000000E+00 -0.00000000000E+00 -0.23210665674E+03  0.23210665674E+03  0.00000000000E+00 0. -1.
         36    2    1    2    0    0 -0.35527136788E-13  0.00000000000E+00  0.84421001056E+03  0.13084233240E+04  0.99964046185E+03 0.  0.
         25    2    3    3    0    0  0.23597698702E+02  0.51901338170E+02 -0.79729745605E+01  0.13841151972E+03  0.12587128418E+03 0.  0.
         35    2    3    3    0    0 -0.23597698702E+02 -0.51901338170E+02  0.85218298512E+03  0.11700118043E+04  0.79966316773E+03 0.  0.
         22    1    5    5    0    0  0.36247970847E+03 -0.14102203241E+03  0.30416581987E+03  0.49375661884E+03  0.00000000000E+00 0. -1.
         22    1    5    5    0    0 -0.38607740717E+03  0.89120694240E+02  0.54801716525E+03  0.67625518547E+03  0.00000000000E+00 0. -1.
          5    1    4    4  502    0  0.24111307721E+01 -0.40239672265E+02  0.10595931630E+02  0.41945304179E+02  0.47000000000E+01 0. -1.
         -5    1    4    4    0  502  0.21186567930E+02  0.92141010435E+02 -0.18568906191E+02  0.96466215546E+02  0.47000000000E+01 0. -1.
<mgrwt>
<rscale>  0 0.99964046E+03</rscale>
<asrwt>0</asrwt>
<pdfrwt beam="1">  1        2 0.16558718E+00 0.99964046E+03</pdfrwt>
<pdfrwt beam="2">  1       -2 0.35708717E-01 0.99964046E+03</pdfrwt>
<totfact> 0.20055813E+02</totfact>
</mgrwt>
</event>
<event>
 9    1  0.4497870E-036  0.9990415E+03  0.7818608E-02  0.8681951E-01
          2   -1    0    0  501    0  0.00000000000E+00  0.00000000000E+00  0.39334296654E+04  0.39334296654E+04  0.00000000000E+00 0.  1.
         -2   -1    0    0    0  501 -0.00000000000E+00 -0.00000000000E+00 -0.63435984939E+02  0.63435984939E+02  0.00000000000E+00 0.  1.
         36    2    1    2    0    0 -0.71054273576E-14 -0.21316282073E-13  0.38699936804E+04  0.39968656503E+04  0.99904151067E+03 0.  0.
         25    2    3    3    0    0  0.35324843936E+02  0.54897464525E+01  0.19510256368E+03  0.23430107520E+03  0.12471568294E+03 0.  0.
         35    2    3    3    0    0 -0.35324843936E+02 -0.54897464525E+01  0.36748911168E+04  0.37625645751E+04  0.80671524094E+03 0.  0.
         22    1    5    5    0    0 -0.36105347231E+02 -0.22672679310E+03  0.34087632876E+04  0.34164858825E+04  0.00000000000E+00 0.  1.
         22    1    5    5    0    0  0.78050329512E+00  0.22123704665E+03  0.26612782918E+03  0.34607869258E+03  0.00000000000E+00 0.  1.
          5    1    4    4  502    0  0.44215446805E+02 -0.53555269889E+02  0.11186796419E+03  0.13175622976E+03  0.47000000000E+01 0.  1.
         -5    1    4    4    0  502 -0.88906028690E+01  0.59045016341E+02  0.83234599492E+02  0.10254484544E+03  0.47000000000E+01 0.  1.
<mgrwt>
<rscale>  0 0.99904151E+03</rscale>
<asrwt>0</asrwt>
<pdfrwt beam="1">  1        2 0.60514283E+00 0.99904151E+03</pdfrwt>
<pdfrwt beam="2">  1       -2 0.97593854E-02 0.99904151E+03</pdfrwt>
<totfact> 0.26953065E+01</totfact>
</mgrwt>
</event>
<event>
 9    1  0.4497870E-036  0.1000621E+04  0.7818608E-02  0.8680446E-01
         -1   -1    0    0    0  501 -0.00000000000E+00  0.00000000000E+00  0.14687322591E+03  0.14687322591E+03  0.00000000000E+00 0.  1.
          1   -1    0    0  501    0  0.00000000000E+00 -0.00000000000E+00 -0.17042641149E+04  0.17042641149E+04  0.00000000000E+00 0.  1.
         36    2    1    2    0    0  0.00000000000E+00  0.00000000000E+00 -0.15573908889E+04  0.18511373408E+04  0.10006213437E+04 0.  0.
         25    2    3    3    0    0 -0.73523422799E+02  0.74302402181E+02 -0.46865570181E+03  0.49679504579E+03  0.12743865196E+03 0.  0.
         35    2    3    3    0    0  0.73523422799E+02 -0.74302402181E+02 -0.10887351871E+04  0.13543422950E+04  0.79873162176E+03 0.  0.
         22    1    5    5    0    0 -0.11299399107E+03 -0.50930578784E+02  0.94757337884E+02  0.15601448316E+03  0.00000000000E+00 0.  1.
         22    1    5    5    0    0  0.18651741386E+03 -0.23371823396E+02 -0.11834925250E+04  0.11983278118E+04  0.00000000000E+00 0.  1.
          5    1    4    4  502    0  0.32299383258E+02 -0.30913928246E+01 -0.11537319396E+03  0.11994111369E+03  0.47000000000E+01 0. -1.
         -5    1    4    4    0  502 -0.10582280606E+03  0.77393795005E+02 -0.35328250784E+03  0.37685393210E+03  0.47000000000E+01 0. -1.
<mgrwt>
<rscale>  0 0.10006213E+04</rscale>
<asrwt>0</asrwt>
<pdfrwt beam="1">  1        1 0.26219450E+00 0.10006213E+04</pdfrwt>
<pdfrwt beam="2">  1       -1 0.22595879E-01 0.10006213E+04</pdfrwt>
<totfact> 0.83889632E+01</totfact>
</mgrwt>
</event>
<event>
 9    1  0.4497870E-036  0.1000369E+04  0.7818608E-02  0.8680686E-01
         -2   -1    0    0    0  501 -0.00000000000E+00  0.00000000000E+00  0.22986089435E+03  0.22986089435E+03  0.00000000000E+00 0. -1.
          2   -1    0    0  501    0  0.00000000000E+00 -0.00000000000E+00 -0.10884175118E+04  0.10884175118E+04  0.00000000000E+00 0. -1.
         36    2    1    2    0    0  0.00000000000E+00 -0.10658141036E-13 -0.85855661743E+03  0.13182784061E+04  0.10003691772E+04 0.  0.
         25    2    3    3    0    0 -0.78586258795E+02 -0.14165941038E+02 -0.31439629751E+03  0.34730065439E+03  0.12408158080E+03 0.  0.
         35    2    3    3    0    0  0.78586258795E+02  0.14165941038E+02 -0.54416031992E+03  0.97097775174E+03  0.80019426807E+03 0.  0.
         22    1    5    5    0    0  0.31902894534E+02 -0.33947030261E+03 -0.26063410099E+02  0.34196079070E+03  0.00000000000E+00 0.  1.
         22    1    5    5    0    0  0.46683364262E+02  0.35363624364E+03 -0.51809690982E+03  0.62901696104E+03  0.00000000000E+00 0.  1.
          5    1    4    4  502    0  0.46314094611E+00  0.18298897754E+02 -0.21627161319E+03  0.21709575037E+03  0.47000000000E+01 0.  1.
         -5    1    4    4    0  502 -0.79049399741E+02 -0.32464838791E+02 -0.98124684324E+02  0.13020490402E+03  0.47000000000E+01 0.  1.
<mgrwt>
<rscale>  0 0.10003692E+04</rscale>
<asrwt>0</asrwt>
<pdfrwt beam="1">  1        2 0.16744885E+00 0.10003692E+04</pdfrwt>
<pdfrwt beam="2">  1       -2 0.35363215E-01 0.10003692E+04</pdfrwt>
<totfact> 0.20079706E+02</totfact>
</mgrwt>
</event>
<event>
 9    1  0.4497870E-036  0.1002624E+04  0.7818608E-02  0.8678543E-01
         -2   -1    0    0    0  501 -0.00000000000E+00  0.00000000000E+00  0.54248007274E+03  0.54248007274E+03  0.00000000000E+00 0. -1.
          2   -1    0    0  501    0  0.00000000000E+00 -0.00000000000E+00 -0.46326838433E+03  0.46326838433E+03  0.00000000000E+00 0. -1.
         36    2    1    2    0    0  0.14210854715E-13  0.00000000000E+00  0.79211688412E+02  0.10057484571E+04  0.10026242902E+04 0.  0.
         25    2    3    3    0    0 -0.49930002334E+02 -0.12768534442E+03  0.28477766791E+02  0.19398606069E+03  0.13424997663E+03 0.  0.
         35    2    3    3    0    0  0.49930002334E+02  0.12768534442E+03  0.50733921621E+02  0.81176239639E+03  0.79849089229E+03 0.  0.
         22    1    5    5    0    0 -0.10846479384E+03  0.37234927966E+03 -0.19173368866E+03  0.43263195089E+03  0.00000000000E+00 0.  1.
         22    1    5    5    0    0  0.15839479618E+03 -0.24466393524E+03  0.24246761028E+03  0.37913044549E+03  0.00000000000E+00 0.  1.
          5    1    4    4  502    0 -0.37783409201E+02  0.20163870672E+02  0.13495196981E+01  0.43105439271E+02  0.47000000000E+01 0. -1.
         -5    1    4    4    0  502 -0.12146593134E+02 -0.14784921509E+03  0.27128247093E+02  0.15088062141E+03  0.47000000000E+01 0. -1.
<mgrwt>
<rscale>  0 0.10026243E+04</rscale>
<asrwt>0</asrwt>
<pdfrwt beam="1">  1        2 0.71272059E-01 0.10026243E+04</pdfrwt>
<pdfrwt beam="2">  1       -2 0.83458473E-01 0.10026243E+04</pdfrwt>
<totfact> 0.10147760E+02</totfact>
</mgrwt>
</event>
<event>
 9    1  0.4497870E-036  0.9998186E+03  0.7818608E-02  0.8681211E-01
          2   -1    0    0  501    0  0.00000000000E+00  0.00000000000E+00  0.79135445289E+03  0.79135445289E+03  0.00000000000E+00 0. -1.
         -2   -1    0    0    0  501 -0.00000000000E+00 -0.00000000000E+00 -0.31579945367E+03  0.31579945367E+03  0.00000000000E+00 0. -1.
         36    2    1    2    0    0  0.00000000000E+00 -0.14210854715E-13  0.47555499922E+03  0.11071539066E+04  0.99981859131E+03 0.  0.
         25    2    3    3    0    0  0.12753321483E+03 -0.41371676236E+02  0.13552278837E+03  0.22785643136E+03  0.12480300743E+03 0.  0.
         35    2    3    3    0    0 -0.12753321483E+03  0.41371676236E+02  0.34003221084E+03  0.87929747520E+03  0.79972858458E+03 0.  0.
         22    1    5    5    0    0 -0.13379879156E+03  0.25244556929E+03  0.52556385575E+03  0.59820418634E+03  0.00000000000E+00 0. -1.
         22    1    5    5    0    0  0.62655767334E+01 -0.21107389306E+03 -0.18553164490E+03  0.28109328886E+03  0.00000000000E+00 0. -1.
          5    1    4    4  502    0  0.40331068979E+02  0.29979920189E+02 -0.13751088253E+01  0.50491302853E+02  0.47000000000E+01 0.  1.
         -5    1    4    4    0  502  0.87202145853E+02 -0.71351596425E+02  0.13689789720E+03  0.17736512851E+03  0.47000000000E+01 0.  1.
<mgrwt>
<rscale>  0 0.99981859E+03</rscale>
<asrwt>0</asrwt>
<pdfrwt beam="1">  1        2 0.12174684E+00 0.99981859E+03</pdfrwt>
<pdfrwt beam="2">  1       -2 0.48584532E-01 0.99981859E+03</pdfrwt>
<totfact> 0.16971165E+02</totfact>
</mgrwt>
</event>
<event>
 9    1  0.4497870E-036  0.1000866E+04  0.7818608E-02  0.8680214E-01
         -3   -1    0    0    0  501 -0.00000000000E+00  0.00000000000E+00  0.19232310614E+04  0.19232310614E+04  0.00000000000E+00 0.  1.
          3   -1    0    0  501    0  0.00000000000E+00 -0.00000000000E+00 -0.13021482965E+03  0.13021482965E+03  0.00000000000E+00 0.  1.
         36    2    1    2    0    0 -0.17763568394E-14  0.00000000000E+00  0.17930162318E+04  0.20534458911E+04  0.10008660351E+04 0.  0.
         25    2    3    3    0    0 -0.66542296005E+01 -0.14055526719E+03  0.35368876369E+03  0.40066167616E+03  0.12503589595E+03 0.  0.
         35    2    3    3    0    0  0.66542296005E+01  0.14055526719E+03  0.14393274681E+04  0.16527842149E+04  0.80014501112E+03 0.  0.
         22    1    5    5    0    0 -0.32386246952E+03 -0.57586666188E+02  0.28297283359E+03  0.43390868605E+03  0.00000000000E+00 0.  1.
         22    1    5    5    0    0  0.33051669912E+03  0.19814193338E+03  0.11563546345E+04  0.12188755289E+04  0.00000000000E+00 0.  1.
          5    1    4    4  502    0  0.49164851571E+01 -0.14708252400E+03  0.35701258473E+03  0.38618326783E+03  0.47000000000E+01 0. -1.
         -5    1    4    4    0  502 -0.11570714758E+02  0.65272568075E+01 -0.33238210463E+01  0.14478408330E+02  0.47000000000E+01 0. -1.
<mgrwt>
<rscale>  0 0.10008660E+04</rscale>
<asrwt>0</asrwt>
<pdfrwt beam="1">  1        3 0.20033052E-01 0.10008660E+04</pdfrwt>
<pdfrwt beam="2">  1       -3 0.29588168E+00 0.10008660E+04</pdfrwt>
<totfact> 0.16901972E+00</totfact>
</mgrwt>
</event>
<event>
 9    1  0.4497870E-036  0.9998513E+03  0.7818608E-02  0.8681180E-01
          1   -1    0    0  501    0  0.00000000000E+00  0.00000000000E+00  0.13176167190E+04  0.13176167190E+04  0.00000000000E+00 0. -1.
         -1   -1    0    0    0  501 -0.00000000000E+00 -0.00000000000E+00 -0.18968009417E+03  0.18968009417E+03  0.00000000000E+00 0. -1.
         36    2    1    2    0    0  0.14210854715E-13  0.00000000000E+00  0.11279366249E+04  0.15072968132E+04  0.99985131564E+03 0.  0.
         25    2    3    3    0    0  0.70782533826E+02 -0.90923673557E+02  0.33997888034E+03  0.37867040732E+03  0.12053363346E+03 0.  0.
         35    2    3    3    0    0 -0.70782533826E+02  0.90923673557E+02  0.78795774454E+03  0.11286264059E+04  0.79977676598E+03 0.  0.
         22    1    5    5    0    0 -0.13937982123E+03 -0.31283729793E+03  0.56926670397E+03  0.66434816910E+03  0.00000000000E+00 0.  1.
         22    1    5    5    0    0  0.68597287403E+02  0.40376097149E+03  0.21869104057E+03  0.46427823680E+03  0.00000000000E+00 0.  1.
          5    1    4    4  502    0  0.64135114635E+02 -0.40013059985E+02  0.67804269541E+02  0.10165562880E+03  0.47000000000E+01 0.  1.
         -5    1    4    4    0  502  0.66474191907E+01 -0.50910613572E+02  0.27217461079E+03  0.27701477852E+03  0.47000000000E+01 0.  1.
<mgrwt>
<rscale>  0 0.99985132E+03</rscale>
<asrwt>0</asrwt>
<pdfrwt beam="1">  1        1 0.20271026E+00 0.99985132E+03</pdfrwt>
<pdfrwt beam="2">  1       -1 0.29181554E-01 0.99985132E+03</pdfrwt>
<totfact> 0.10289020E+02</totfact>
</mgrwt>
</event>
<event>
 9    1  0.4497870E-036  0.1000511E+04  0.7818608E-02  0.8680551E-01
         -1   -1    0    0    0  501 -0.00000000000E+00  0.00000000000E+00  0.31586298740E+03  0.31586298740E+03  0.00000000000E+00 0. -1.
          1   -1    0    0  501    0  0.00000000000E+00 -0.00000000000E+00 -0.79229229423E+03  0.79229229423E+03  0.00000000000E+00 0. -1.
         36    2    1    2    0    0 -0.28421709430E-13  0.28421709430E-13 -0.47642930684E+03  0.11081552816E+04  0.10005114911E+04 0.  0.
         25    2    3    3    0    0  0.10489940719E+03 -0.92829080025E+02 -0.10666399873E+03  0.21607093207E+03  0.12525300528E+03 0.  0.
         35    2    3    3    0    0 -0.10489940719E+03  0.92829080025E+02 -0.36976530810E+03  0.89208434957E+03  0.79966679307E+03 0.  0.
         22    1    5    5    0    0 -0.39526100082E+03 -0.13951156641E+03 -0.29553959896E+03  0.51287268448E+03  0.00000000000E+00 0.  1.
         22    1    5    5    0    0  0.29036159363E+03  0.23234064643E+03 -0.74225709142E+02  0.37921166509E+03  0.00000000000E+00 0.  1.
          5    1    4    4  502    0  0.86533634880E+02  0.58290223127E+01 -0.40964329210E+02  0.96032357746E+02  0.47000000000E+01 0.  1.
         -5    1    4    4    0  502  0.18365772311E+02 -0.98658102337E+02 -0.65699669524E+02  0.12003857432E+03  0.47000000000E+01 0.  1.
<mgrwt>
<rscale>  0 0.10005115E+04</rscale>
<asrwt>0</asrwt>
<pdfrwt beam="1">  1        1 0.12189112E+00 0.10005115E+04</pdfrwt>
<pdfrwt beam="2">  1       -1 0.48594306E-01 0.10005115E+04</pdfrwt>
<totfact> 0.10845079E+02</totfact>
</mgrwt>
</event>
<event>
 9    1  0.4497870E-036  0.1000032E+04  0.7818608E-02  0.8681007E-01
         -2   -1    0    0    0  501 -0.00000000000E+00  0.00000000000E+00  0.23600126962E+03  0.23600126962E+03  0.00000000000E+00 0. -1.
          2   -1    0    0  501    0  0.00000000000E+00 -0.00000000000E+00 -0.10593846426E+04  0.10593846426E+04  0.00000000000E+00 0. -1.
         36    2    1    2    0    0  0.00000000000E+00 -0.14210854715E-13 -0.82338337296E+03  0.12953859122E+04  0.10000322408E+04 0.  0.
         25    2    3    3    0    0  0.13501679846E+03 -0.39843191717E+02 -0.99719893034E+02  0.21293054025E+03  0.12481322891E+03 0.  0.
         35    2    3    3    0    0 -0.13501679846E+03  0.39843191717E+02 -0.72366347992E+03  0.10824553719E+04  0.79259307611E+03 0.  0.
         22    1    5    5    0    0 -0.18373170447E+02  0.39787801463E+03 -0.22458383917E+03  0.45725527743E+03  0.00000000000E+00 0.  1.
         22    1    5    5    0    0 -0.11664362801E+03 -0.35803482291E+03 -0.49907964075E+03  0.62520009452E+03  0.00000000000E+00 0.  1.
          5    1    4    4  502    0  0.77528426258E+02 -0.35393150856E+02 -0.12371306789E+03  0.15030084887E+03  0.47000000000E+01 0. -1.
         -5    1    4    4    0  502  0.57488372202E+02 -0.44500408604E+01  0.23993174853E+02  0.62629691374E+02  0.47000000000E+01 0. -1.
<mgrwt>
<rscale>  0 0.10000322E+04</rscale>
<asrwt>0</asrwt>
<pdfrwt beam="1">  1        2 0.16298225E+00 0.10000322E+04</pdfrwt>
<pdfrwt beam="2">  1       -2 0.36307888E-01 0.10000322E+04</pdfrwt>
<totfact> 0.19909638E+02</totfact>
</mgrwt>
</event>
<event>
 9    1  0.4497870E-036  0.1000071E+04  0.7818608E-02  0.8680970E-01
         -2   -1    0    0    0  501 -0.00000000000E+00  0.00000000000E+00  0.14396404402E+03  0.14396404402E+03  0.00000000000E+00 0.  1.
          2   -1    0    0  501    0  0.00000000000E+00 -0.00000000000E+00 -0.17367916578E+04  0.17367916578E+04  0.00000000000E+00 0.  1.
         36    2    1    2    0    0  0.00000000000E+00 -0.14210854715E-13 -0.15928276138E+04  0.18807557018E+04  0.10000710988E+04 0.  0.
         25    2    3    3    0    0 -0.12514227641E+03 -0.52121686425E+02 -0.35511889600E+03  0.40017919407E+03  0.12512672588E+03 0.  0.
         35    2    3    3    0    0  0.12514227641E+03  0.52121686425E+02 -0.12377087178E+04  0.14805765077E+04  0.80112837029E+03 0.  0.
         22    1    5    5    0    0 -0.27101899256E+03  0.15857388359E+03 -0.22027670821E+03  0.38356068499E+03  0.00000000000E+00 0.  1.
         22    1    5    5    0    0  0.39616126897E+03 -0.10645219716E+03 -0.10174320095E+04  0.10970158227E+04  0.00000000000E+00 0.  1.
          5    1    4    4  502    0 -0.14642330346E+03 -0.57293856392E+02 -0.27316984014E+03  0.31522408115E+03  0.47000000000E+01 0. -1.
         -5    1    4    4    0  502  0.21281027053E+02  0.51721699667E+01 -0.81949055858E+02  0.84955112916E+02  0.47000000000E+01 0. -1.
<mgrwt>
<rscale>  0 0.10000711E+04</rscale>
<asrwt>0</asrwt>
<pdfrwt beam="1">  1        2 0.26719870E+00 0.10000711E+04</pdfrwt>
<pdfrwt beam="2">  1       -2 0.22148316E-01 0.10000711E+04</pdfrwt>
<totfact> 0.19779931E+02</totfact>
</mgrwt>
</event>
<event>
 9    1  0.4497870E-036  0.1000676E+04  0.7818608E-02  0.8680394E-01
         -1   -1    0    0    0  501 -0.00000000000E+00  0.00000000000E+00  0.58063234947E+02  0.58063234947E+02  0.00000000000E+00 0.  1.
          1   -1    0    0  501    0  0.00000000000E+00 -0.00000000000E+00 -0.43114766603E+04  0.43114766603E+04  0.00000000000E+00 0.  1.
         36    2    1    2    0    0  0.00000000000E+00  0.28421709430E-13 -0.42534134253E+04  0.43695398952E+04  0.10006763359E+04 0.  0.
         25    2    3    3    0    0 -0.75206559911E+02 -0.95835451941E+02 -0.11022050435E+04  0.11160042041E+04  0.12557454073E+03 0.  0.
         35    2    3    3    0    0  0.75206559911E+02  0.95835451941E+02 -0.31512083818E+04  0.32535356911E+04  0.80033728316E+03 0.  0.
         22    1    5    5    0    0  0.93233907305E+02 -0.27267689174E+03 -0.50261424978E+03  0.57936718309E+03  0.00000000000E+00 0.  1.
         22    1    5    5    0    0 -0.18027347394E+02  0.36851234368E+03 -0.26485941321E+04  0.26741685080E+04  0.00000000000E+00 0.  1.
          5    1    4    4  502    0 -0.22294269351E+02 -0.97524131112E+02 -0.42180022194E+03  0.43352682480E+03  0.47000000000E+01 0. -1.
         -5    1    4    4    0  502 -0.52912290560E+02  0.16886791706E+01 -0.68040482153E+03  0.68247737933E+03  0.47000000000E+01 0. -1.
<mgrwt>
<rscale>  0 0.10006763E+04</rscale>
<asrwt>0</asrwt>
<pdfrwt beam="1">  1        1 0.66330452E+00 0.10006763E+04</pdfrwt>
<pdfrwt beam="2">  1       -1 0.89327997E-02 0.10006763E+04</pdfrwt>
<totfact> 0.47400651E+00</totfact>
</mgrwt>
</event>
<event>
 9    1  0.4497870E-036  0.9992367E+03  0.7818608E-02  0.8681765E-01
         -1   -1    0    0    0  501 -0.00000000000E+00  0.00000000000E+00  0.36882618577E+03  0.36882618577E+03  0.00000000000E+00 0. -1.
          1   -1    0    0  501    0  0.00000000000E+00 -0.00000000000E+00 -0.67679171221E+03  0.67679171221E+03  0.00000000000E+00 0. -1.
         36    2    1    2    0    0 -0.28421709430E-13 -0.14210854715E-13 -0.30796552645E+03  0.10456178980E+04  0.99923672025E+03 0.  0.
         25    2    3    3    0    0 -0.62118461365E+02 -0.12435767834E+03 -0.70238071053E+02  0.19998112283E+03  0.12544133074E+03 0.  0.
         35    2    3    3    0    0  0.62118461365E+02  0.12435767834E+03 -0.23772745539E+03  0.84563677515E+03  0.79953966570E+03 0.  0.
         22    1    5    5    0    0  0.34658187848E+03 -0.16250728968E+03 -0.12260843432E+02  0.38298556888E+03  0.00000000000E+00 0.  1.
         22    1    5    5    0    0 -0.28446341711E+03  0.28686496802E+03 -0.22546661196E+03  0.46265120627E+03  0.00000000000E+00 0.  1.
          5    1    4    4  502    0 -0.39116545379E+02 -0.40505695028E+02 -0.94039470873E+02  0.10971019795E+03  0.47000000000E+01 0.  1.
         -5    1    4    4    0  502 -0.23001915986E+02 -0.83851983317E+02  0.23801399820E+02  0.90270924880E+02  0.47000000000E+01 0.  1.
<mgrwt>
<rscale>  0 0.99923672E+03</rscale>
<asrwt>0</asrwt>
<pdfrwt beam="1">  1        1 0.10412180E+00 0.99923672E+03</pdfrwt>
<pdfrwt beam="2">  1       -1 0.56742490E-01 0.99923672E+03</pdfrwt>
<totfact> 0.10393014E+02</totfact>
</mgrwt>
</event>
<event>
 9    1  0.4497870E-036  0.1000092E+04  0.7818608E-02  0.8680951E-01
         -2   -1    0    0    0  501 -0.00000000000E+00  0.00000000000E+00  0.92797399885E+02  0.92797399885E+02  0.00000000000E+00 0. -1.
          2   -1    0    0  501    0  0.00000000000E+00 -0.00000000000E+00 -0.26945346617E+04  0.26945346617E+04  0.00000000000E+00 0. -1.
         36    2    1    2    0    0 -0.28421709430E-13  0.00000000000E+00 -0.26017372618E+04  0.27873320616E+04  0.10000916168E+04 0.  0.
         25    2    3    3    0    0  0.84459892144E+02  0.93278265239E+02 -0.32013454495E+03  0.36603916349E+03  0.12515683838E+03 0.  0.
         35    2    3    3    0    0 -0.84459892144E+02 -0.93278265239E+02 -0.22816027168E+04  0.24212928981E+04  0.80069596764E+03 0.  0.
         22    1    5    5    0    0  0.25129203245E+03 -0.11182815751E+03 -0.18684832933E+04  0.18886193475E+04  0.00000000000E+00 0. -1.
         22    1    5    5    0    0 -0.33575192460E+03  0.18549892275E+02 -0.41311942353E+03  0.53267355056E+03  0.00000000000E+00 0. -1.
          5    1    4    4  502    0  0.72086639705E+02  0.28791055873E+02 -0.27608848154E+03  0.28683156758E+03  0.47000000000E+01 0. -1.
         -5    1    4    4    0  502  0.12373252439E+02  0.64487209367E+02 -0.44046063408E+02  0.79207595909E+02  0.47000000000E+01 0. -1.
<mgrwt>
<rscale>  0 0.10000916E+04</rscale>
<asrwt>0</asrwt>
<pdfrwt beam="1">  1        2 0.41454385E+00 0.10000916E+04</pdfrwt>
<pdfrwt beam="2">  1       -2 0.14276521E-01 0.10000916E+04</pdfrwt>
<totfact> 0.11464188E+02</totfact>
</mgrwt>
</event>
<event>
 9    1  0.4497870E-036  0.9988597E+03  0.7818608E-02  0.8682125E-01
         -2   -1    0    0    0  501 -0.00000000000E+00  0.00000000000E+00  0.15834319687E+03  0.15834319687E+03  0.00000000000E+00 0.  1.
          2   -1    0    0  501    0  0.00000000000E+00 -0.00000000000E+00 -0.15752503650E+04  0.15752503650E+04  0.00000000000E+00 0.  1.
         36    2    1    2    0    0  0.00000000000E+00  0.14210854715E-13 -0.14169071682E+04  0.17335935619E+04  0.99885970722E+03 0.  0.
         25    2    3    3    0    0 -0.57624552213E+02  0.12791671005E+03 -0.24121202709E+03  0.30615434262E+03  0.12595223604E+03 0.  0.
         35    2    3    3    0    0  0.57624552213E+02 -0.12791671005E+03 -0.11756951411E+04  0.14274392193E+04  0.79727058538E+03 0.  0.
         22    1    5    5    0    0  0.12838307384E+03 -0.29865264743E+03 -0.10604136477E+03  0.34193623457E+03  0.00000000000E+00 0. -1.
         22    1    5    5    0    0 -0.70758521628E+02  0.17073593738E+03 -0.10696537763E+04  0.10855029847E+04  0.00000000000E+00 0. -1.
          5    1    4    4  502    0  0.30647509060E+02  0.83999413438E+02 -0.10620054035E+03  0.13890938067E+03  0.47000000000E+01 0. -1.
         -5    1    4    4    0  502 -0.88272061273E+02  0.43917296613E+02 -0.13501148675E+03  0.16724496195E+03  0.47000000000E+01 0. -1.
<mgrwt>
<rscale>  0 0.99885971E+03</rscale>
<asrwt>0</asrwt>
<pdfrwt beam="1">  1        2 0.24234621E+00 0.99885971E+03</pdfrwt>
<pdfrwt beam="2">  1       -2 0.24360491E-01 0.99885971E+03</pdfrwt>
<totfact> 0.20631585E+02</totfact>
</mgrwt>
</event>
<event>
 9    1  0.4497870E-036  0.1000627E+04  0.7818608E-02  0.8680441E-01
         -1   -1    0    0    0  501 -0.00000000000E+00  0.00000000000E+00  0.29290360991E+03  0.29290360991E+03  0.00000000000E+00 0.  1.
          1   -1    0    0  501    0  0.00000000000E+00 -0.00000000000E+00 -0.85459407882E+03  0.85459407882E+03  0.00000000000E+00 0.  1.
         36    2    1    2    0    0 -0.28421709430E-13 -0.10658141036E-13 -0.56169046892E+03  0.11474976887E+04  0.10006271847E+04 0.  0.
         25    2    3    3    0    0  0.85785224777E+02 -0.12479639674E+02  0.23246385213E+02  0.15321421746E+03  0.12417469875E+03 0.  0.
         35    2    3    3    0    0 -0.85785224777E+02  0.12479639674E+02 -0.58493685413E+03  0.99428347127E+03  0.79933325448E+03 0.  0.
         22    1    5    5    0    0 -0.12501913495E+03  0.37496924728E+03 -0.46536563809E+03  0.61057096035E+03  0.00000000000E+00 0.  1.
         22    1    5    5    0    0  0.39233910176E+02 -0.36248960760E+03 -0.11957121604E+03  0.38371251092E+03  0.00000000000E+00 0.  1.
          5    1    4    4  502    0  0.73726277527E+02  0.65423482064E+01 -0.41160541042E+02  0.84821261821E+02  0.47000000000E+01 0.  1.
         -5    1    4    4    0  502  0.12058947250E+02 -0.19021987880E+02  0.64406926255E+02  0.68392955641E+02  0.47000000000E+01 0.  1.
<mgrwt>
<rscale>  0 0.10006272E+04</rscale>
<asrwt>0</asrwt>
<pdfrwt beam="1">  1        1 0.13147601E+00 0.10006272E+04</pdfrwt>
<pdfrwt beam="2">  1       -1 0.45062094E-01 0.10006272E+04</pdfrwt>
<totfact> 0.10986624E+02</totfact>
</mgrwt>
</event>
<event>
 9    1  0.4497870E-036  0.9989230E+03  0.7818608E-02  0.8682064E-01
          1   -1    0    0  501    0  0.00000000000E+00  0.00000000000E+00  0.41939998397E+03  0.41939998397E+03  0.00000000000E+00 0.  1.
         -1   -1    0    0    0  501 -0.00000000000E+00 -0.00000000000E+00 -0.59480644223E+03  0.59480644223E+03  0.00000000000E+00 0.  1.
         36    2    1    2    0    0  0.00000000000E+00  0.14210854715E-13 -0.17540645826E+03  0.10142064262E+04  0.99892304475E+03 0.  0.
         25    2    3    3    0    0  0.82090003025E+02  0.59323383663E+02 -0.13311332494E+03  0.20856512145E+03  0.12458820234E+03 0.  0.
         35    2    3    3    0    0 -0.82090003025E+02 -0.59323383663E+02 -0.42293133315E+02  0.80564130475E+03  0.79812979543E+03 0.  0.
         22    1    5    5    0    0 -0.23570835403E+03  0.36793522616E+02 -0.36470173743E+03  0.43579760067E+03  0.00000000000E+00 0.  1.
         22    1    5    5    0    0  0.15361835101E+03 -0.96116906280E+02  0.32240860412E+03  0.36984370408E+03  0.00000000000E+00 0.  1.
          5    1    4    4  502    0 -0.15136486917E+02  0.46406589514E+02 -0.87477757844E+02  0.10028525766E+03  0.47000000000E+01 0.  1.
         -5    1    4    4    0  502  0.97226489942E+02  0.12916794149E+02 -0.45635567101E+02  0.10827986379E+03  0.47000000000E+01 0.  1.
<mgrwt>
<rscale>  0 0.99892304E+03</rscale>
<asrwt>0</asrwt>
<pdfrwt beam="1">  1        1 0.64523075E-01 0.99892304E+03</pdfrwt>
<pdfrwt beam="2">  1       -1 0.91508683E-01 0.99892304E+03</pdfrwt>
<totfact> 0.78123974E+01</totfact>
</mgrwt>
</event>
<event>
 9    1  0.4497870E-036  0.1000025E+04  0.7818608E-02  0.8681014E-01
          2   -1    0    0  501    0  0.00000000000E+00  0.00000000000E+00  0.17234836327E+04  0.17234836327E+04  0.00000000000E+00 0.  1.
         -2   -1    0    0    0  501 -0.00000000000E+00 -0.00000000000E+00 -0.14506223582E+03  0.14506223582E+03  0.00000000000E+00 0.  1.
         36    2    1    2    0    0 -0.71054273576E-14  0.14210854715E-13  0.15784213969E+04  0.18685458686E+04  0.10000247780E+04 0.  0.
         25    2    3    3    0    0 -0.17730502392E+02  0.44075710458E+02  0.50663837618E+02  0.14335255987E+03  0.12540372009E+03 0.  0.
         35    2    3    3    0    0  0.17730502392E+02 -0.44075710458E+02  0.15277575593E+04  0.17251933087E+04  0.79999484584E+03 0.  0.
         22    1    5    5    0    0 -0.44109709750E+02 -0.38922694944E+03  0.11246645597E+04  0.11909297446E+04  0.00000000000E+00 0.  1.
         22    1    5    5    0    0  0.61840212142E+02  0.34515123898E+03  0.40309299960E+03  0.53426356411E+03  0.00000000000E+00 0.  1.
          5    1    4    4  502    0 -0.37649289070E+02  0.35973840438E+01 -0.31536967913E+02  0.49467974333E+02  0.47000000000E+01 0.  1.
         -5    1    4    4    0  502  0.19918786678E+02  0.40478326414E+02  0.82200805531E+02  0.93884585539E+02  0.47000000000E+01 0.  1.
<mgrwt>
<rscale>  0 0.10000248E+04</rscale>
<asrwt>0</asrwt>
<pdfrwt beam="1">  1        2 0.26515131E+00 0.10000248E+04</pdfrwt>
<pdfrwt beam="2">  1       -2 0.22317268E-01 0.10000248E+04</pdfrwt>
<totfact> 0.19858231E+02</totfact>
</mgrwt>
</event>
<event>
 9    1  0.4497870E-036  0.9998783E+03  0.7818608E-02  0.8681154E-01
         -2   -1    0    0    0  501 -0.00000000000E+00  0.00000000000E+00  0.22239265934E+03  0.22239265934E+03  0.00000000000E+00 0.  1.
          2   -1    0    0  501    0  0.00000000000E+00 -0.00000000000E+00 -0.11238642113E+04  0.11238642113E+04  0.00000000000E+00 0.  1.
         36    2    1    2    0    0  0.28421709430E-13  0.14210854715E-13 -0.90147155198E+03  0.13462568707E+04  0.99987829398E+03 0.  0.
         25    2    3    3    0    0  0.70099422812E+02 -0.34545653867E+02 -0.11951678128E+02  0.14744083277E+03  0.12445330562E+03 0.  0.
         35    2    3    3    0    0 -0.70099422812E+02  0.34545653867E+02 -0.88951987385E+03  0.11988160379E+04  0.79987933805E+03 0.  0.
         22    1    5    5    0    0  0.21544426094E+03 -0.88406805715E+02 -0.85484583848E+03  0.88599853298E+03  0.00000000000E+00 0.  1.
         22    1    5    5    0    0 -0.28554368375E+03  0.12295245958E+03 -0.34674035364E+02  0.31281750491E+03  0.00000000000E+00 0.  1.
          5    1    4    4  502    0  0.53549322214E+02 -0.73457648048E+02 -0.36785724008E+02  0.98177571049E+02  0.47000000000E+01 0. -1.
         -5    1    4    4    0  502  0.16550100598E+02  0.38911994181E+02  0.24834045881E+02  0.49263261724E+02  0.47000000000E+01 0. -1.
<mgrwt>
<rscale>  0 0.99987829E+03</rscale>
<asrwt>0</asrwt>
<pdfrwt beam="1">  1        2 0.17290219E+00 0.99987829E+03</pdfrwt>
<pdfrwt beam="2">  1       -2 0.34214255E-01 0.99987829E+03</pdfrwt>
<totfact> 0.20325744E+02</totfact>
</mgrwt>
</event>
<event>
 9    1  0.4497870E-036  0.1010954E+04  0.7818608E-02  0.8670676E-01
          2   -1    0    0  501    0  0.00000000000E+00  0.00000000000E+00  0.10292985071E+04  0.10292985071E+04  0.00000000000E+00 0.  1.
         -2   -1    0    0    0  501 -0.00000000000E+00 -0.00000000000E+00 -0.24823389210E+03  0.24823389210E+03  0.00000000000E+00 0.  1.
         36    2    1    2    0    0  0.00000000000E+00  0.00000000000E+00  0.78106461501E+03  0.12775323992E+04  0.10109535589E+04 0.  0.
         25    2    3    3    0    0  0.13570992007E+03  0.51445426434E+02  0.21303127065E+03  0.28554141379E+03  0.12283225311E+03 0.  0.
         35    2    3    3    0    0 -0.13570992007E+03 -0.51445426434E+02  0.56803334436E+03  0.99199098544E+03  0.80020023780E+03 0.  0.
         22    1    5    5    0    0  0.29717201308E+03  0.13779460429E+03  0.14649794494E+03  0.35883172407E+03  0.00000000000E+00 0. -1.
         22    1    5    5    0    0 -0.43288193315E+03 -0.18924003073E+03  0.42153539943E+03  0.63315926136E+03  0.00000000000E+00 0. -1.
          5    1    4    4  502    0 -0.68965106114E+01 -0.19033855302E+02  0.15082594033E+01  0.20837810650E+02  0.47000000000E+01 0.  1.
         -5    1    4    4    0  502  0.14260643068E+03  0.70479281736E+02  0.21152301125E+03  0.26470360314E+03  0.47000000000E+01 0.  1.
<mgrwt>
<rscale>  0 0.10109536E+04</rscale>
<asrwt>0</asrwt>
<pdfrwt beam="1">  1        2 0.15835361E+00 0.10109536E+04</pdfrwt>
<pdfrwt beam="2">  1       -2 0.38189830E-01 0.10109536E+04</pdfrwt>
<totfact> 0.18887941E+02</totfact>
</mgrwt>
</event>
<event>
 9    1  0.4497870E-036  0.9994760E+03  0.7818608E-02  0.8681537E-01
         -1   -1    0    0    0  501 -0.00000000000E+00  0.00000000000E+00  0.44603035369E+03  0.44603035369E+03  0.00000000000E+00 0. -1.
          1   -1    0    0  501    0  0.00000000000E+00 -0.00000000000E+00 -0.55991272215E+03  0.55991272215E+03  0.00000000000E+00 0. -1.
         36    2    1    2    0    0  0.00000000000E+00  0.00000000000E+00 -0.11388236846E+03  0.10059430758E+04  0.99947600171E+03 0.  0.
         25    2    3    3    0    0 -0.83819284217E+02 -0.67757796974E+02  0.68234621792E+02  0.17843685787E+03  0.12476761270E+03 0.  0.
         35    2    3    3    0    0  0.83819284217E+02  0.67757796974E+02 -0.18211699025E+03  0.82750621798E+03  0.79998946943E+03 0.  0.
         22    1    5    5    0    0 -0.21753228418E+03  0.33827765870E+03 -0.96265504501E+02  0.41354457607E+03  0.00000000000E+00 0. -1.
         22    1    5    5    0    0  0.30135156840E+03 -0.27051986173E+03 -0.85851485753E+02  0.41396164191E+03  0.00000000000E+00 0. -1.
          5    1    4    4  502    0 -0.11290543650E+02 -0.77398845363E+02  0.11646385264E+00  0.78359180721E+02  0.47000000000E+01 0.  1.
         -5    1    4    4    0  502 -0.72528740567E+02  0.96410483894E+01  0.68118157940E+02  0.10007767715E+03  0.47000000000E+01 0.  1.
<mgrwt>
<rscale>  0 0.99947600E+03</rscale>
<asrwt>0</asrwt>
<pdfrwt beam="1">  1        1 0.86140419E-01 0.99947600E+03</pdfrwt>
<pdfrwt beam="2">  1       -1 0.68620055E-01 0.99947600E+03</pdfrwt>
<totfact> 0.95137764E+01</totfact>
</mgrwt>
</event>
<event>
 9    1  0.4497870E-036  0.9996242E+03  0.7818608E-02  0.8681396E-01
         -2   -1    0    0    0  501 -0.00000000000E+00  0.00000000000E+00  0.16147812437E+03  0.16147812437E+03  0.00000000000E+00 0.  1.
          2   -1    0    0  501    0  0.00000000000E+00 -0.00000000000E+00 -0.15470338538E+04  0.15470338538E+04  0.00000000000E+00 0.  1.
         36    2    1    2    0    0  0.00000000000E+00 -0.14210854715E-13 -0.13855557295E+04  0.17085119782E+04  0.99962417948E+03 0.  0.
         25    2    3    3    0    0 -0.12349284813E+03  0.58716205206E+02 -0.22931146708E+03  0.29479819715E+03  0.12499660721E+03 0.  0.
         35    2    3    3    0    0  0.12349284813E+03 -0.58716205206E+02 -0.11562442624E+04  0.14137137811E+04  0.80186519076E+03 0.  0.
         22    1    5    5    0    0  0.16529951039E+02  0.20828777358E+03 -0.11012188439E+04  0.11208657271E+04  0.00000000000E+00 0. -1.
         22    1    5    5    0    0  0.10696289709E+03 -0.26700397879E+03 -0.55025418458E+02  0.29284805398E+03  0.00000000000E+00 0. -1.
          5    1    4    4  502    0 -0.86411522066E+02 -0.27379480250E+02 -0.10054656484E+03  0.13545585548E+03  0.47000000000E+01 0.  1.
         -5    1    4    4    0  502 -0.37081326067E+02  0.86095685456E+02 -0.12876490224E+03  0.15934234166E+03  0.47000000000E+01 0.  1.
<mgrwt>
<rscale>  0 0.99962418E+03</rscale>
<asrwt>0</asrwt>
<pdfrwt beam="1">  1        2 0.23800521E+00 0.99962418E+03</pdfrwt>
<pdfrwt beam="2">  1       -2 0.24842789E-01 0.99962418E+03</pdfrwt>
<totfact> 0.20672539E+02</totfact>
</mgrwt>
</event>
<event>
 9    1  0.4497870E-036  0.9997230E+03  0.7818608E-02  0.8681302E-01
         -2   -1    0    0    0  501 -0.00000000000E+00  0.00000000000E+00  0.97136639786E+02  0.97136639786E+02  0.00000000000E+00 0. -1.
          2   -1    0    0  501    0  0.00000000000E+00 -0.00000000000E+00 -0.25722685942E+04  0.25722685942E+04  0.00000000000E+00 0. -1.
         36    2    1    2    0    0 -0.14210854715E-13 -0.28421709430E-13 -0.24751319544E+04  0.26694052340E+04  0.99972301737E+03 0.  0.
         25    2    3    3    0    0  0.20939495982E+02  0.13701225139E+03 -0.36302131047E+03  0.40672091589E+03  0.12011083233E+03 0.  0.
         35    2    3    3    0    0 -0.20939495982E+02 -0.13701225139E+03 -0.21121106439E+04  0.22626843181E+04  0.79969877552E+03 0.  0.
         22    1    5    5    0    0 -0.35081468665E+03  0.80905044203E+02 -0.14266943868E+04  0.14714188540E+04  0.00000000000E+00 0. -1.
         22    1    5    5    0    0  0.32987519066E+03 -0.21791729559E+03 -0.68541625715E+03  0.79126546411E+03  0.00000000000E+00 0. -1.
          5    1    4    4  502    0  0.94639852277E+01 -0.13657196365E+02 -0.48263170669E+01  0.17929566792E+02  0.47000000000E+01 0.  1.
         -5    1    4    4    0  502  0.11475510754E+02  0.15066944775E+03 -0.35819499341E+03  0.38879134910E+03  0.47000000000E+01 0.  1.
<mgrwt>
<rscale>  0 0.99972302E+03</rscale>
<asrwt>0</asrwt>
<pdfrwt beam="1">  1        2 0.39573355E+00 0.99972302E+03</pdfrwt>
<pdfrwt beam="2">  1       -2 0.14944102E-01 0.99972302E+03</pdfrwt>
<totfact> 0.12656011E+02</totfact>
</mgrwt>
</event>
<event>
 9    1  0.4497870E-036  0.9997615E+03  0.7818608E-02  0.8681265E-01
          3   -1    0    0  501    0  0.00000000000E+00  0.00000000000E+00  0.19585144542E+03  0.19585144542E+03  0.00000000000E+00 0.  1.
         -3   -1    0    0    0  501 -0.00000000000E+00 -0.00000000000E+00 -0.12758688500E+04  0.12758688500E+04  0.00000000000E+00 0.  1.
         36    2    1    2    0    0 -0.28421709430E-13  0.14210854715E-13 -0.10800174046E+04  0.14717202954E+04  0.99976148845E+03 0.  0.
         25    2    3    3    0    0  0.11071435694E+03 -0.74961199527E+02 -0.26655599219E+03  0.32301145868E+03  0.12412677070E+03 0.  0.
         35    2    3    3    0    0 -0.11071435694E+03  0.74961199527E+02 -0.81346141240E+03  0.11487088368E+04  0.79995979393E+03 0.  0.
         22    1    5    5    0    0  0.96527424543E+02  0.38975101069E+03 -0.57982895451E+03  0.70528363834E+03  0.00000000000E+00 0.  1.
         22    1    5    5    0    0 -0.20724178148E+03 -0.31478981116E+03 -0.23363245789E+03  0.44342519841E+03  0.00000000000E+00 0.  1.
          5    1    4    4  502    0  0.13895938230E+02 -0.81900911054E+02 -0.99080843524E+02  0.12938299689E+03  0.47000000000E+01 0. -1.
         -5    1    4    4    0  502  0.96818418706E+02  0.69397115267E+01 -0.16747514866E+03  0.19362846179E+03  0.47000000000E+01 0. -1.
<mgrwt>
<rscale>  0 0.99976149E+03</rscale>
<asrwt>0</asrwt>
<pdfrwt beam="1">  1        3 0.30130991E-01 0.99976149E+03</pdfrwt>
<pdfrwt beam="2">  1       -3 0.19628752E+00 0.99976149E+03</pdfrwt>
<totfact> 0.46447683E+00</totfact>
</mgrwt>
</event>
<event>
 9    1  0.4497870E-036  0.1000071E+04  0.7818608E-02  0.8680971E-01
         -2   -1    0    0    0  501 -0.00000000000E+00  0.00000000000E+00  0.85568573038E+02  0.85568573038E+02  0.00000000000E+00 0. -1.
          2   -1    0    0  501    0  0.00000000000E+00 -0.00000000000E+00 -0.29220467479E+04  0.29220467479E+04  0.00000000000E+00 0. -1.
         36    2    1    2    0    0  0.28421709430E-13  0.71054273576E-14 -0.28364781749E+04  0.30076153210E+04  0.10000707386E+04 0.  0.
         25    2    3    3    0    0  0.13831015477E+03  0.25683869692E+01 -0.59066775368E+03  0.61940328870E+03  0.12504296578E+03 0.  0.
         35    2    3    3    0    0 -0.13831015477E+03 -0.25683869692E+01 -0.22458104212E+04  0.23882120322E+04  0.80047234026E+03 0.  0.
         22    1    5    5    0    0 -0.36020540212E+03 -0.23185856411E+03 -0.17252988118E+04  0.17776845377E+04  0.00000000000E+00 0. -1.
         22    1    5    5    0    0  0.22189524735E+03  0.22929017714E+03 -0.52051160938E+03  0.61052749457E+03  0.00000000000E+00 0. -1.
          5    1    4    4  502    0  0.15140502589E+03  0.28991702090E+02 -0.52655901372E+03  0.54868067724E+03  0.47000000000E+01 0.  1.
         -5    1    4    4    0  502 -0.13094871117E+02 -0.26423315121E+02 -0.64108739968E+02  0.70722611460E+02  0.47000000000E+01 0.  1.
<mgrwt>
<rscale>  0 0.10000707E+04</rscale>
<asrwt>0</asrwt>
<pdfrwt beam="1">  1        2 0.44954570E+00 0.10000707E+04</pdfrwt>
<pdfrwt beam="2">  1       -2 0.13164394E-01 0.10000707E+04</pdfrwt>
<totfact> 0.93687956E+01</totfact>
</mgrwt>
</event>
<event>
 9    1  0.4497870E-036  0.9995246E+03  0.7818608E-02  0.8681491E-01
          1   -1    0    0  501    0  0.00000000000E+00  0.00000000000E+00  0.29234297174E+03  0.29234297174E+03  0.00000000000E+00 0. -1.
         -1   -1    0    0    0  501 -0.00000000000E+00 -0.00000000000E+00 -0.85434707068E+03  0.85434707068E+03  0.00000000000E+00 0. -1.
         36    2    1    2    0    0  0.28421709430E-13  0.56843418861E-13 -0.56200409894E+03  0.11466900424E+04  0.99952461007E+03 0.  0.
         25    2    3    3    0    0  0.86349522032E+02  0.66739606240E+02 -0.78382684860E+01  0.16730783029E+03  0.12657036235E+03 0.  0.
         35    2    3    3    0    0 -0.86349522032E+02 -0.66739606240E+02 -0.55416583045E+03  0.97938221212E+03  0.80011207639E+03 0.  0.
         22    1    5    5    0    0  0.55268611943E+01 -0.42218179579E+03 -0.19248364043E+03  0.46402367044E+03  0.00000000000E+00 0.  1.
         22    1    5    5    0    0 -0.91876383226E+02  0.35544218955E+03 -0.36168219002E+03  0.51535854169E+03  0.00000000000E+00 0.  1.
          5    1    4    4  502    0 -0.15472237001E+02 -0.14242128328E+02  0.25041392651E+02  0.33036187477E+02  0.47000000000E+01 0. -1.
         -5    1    4    4    0  502  0.10182175903E+03  0.80981734568E+02 -0.32879661137E+02  0.13427164281E+03  0.47000000000E+01 0. -1.
<mgrwt>
<rscale>  0 0.99952461E+03</rscale>
<asrwt>0</asrwt>
<pdfrwt beam="1">  1        1 0.44975842E-01 0.99952461E+03</pdfrwt>
<pdfrwt beam="2">  1       -1 0.13143801E+00 0.99952461E+03</pdfrwt>
<totfact> 0.53516693E+01</totfact>
</mgrwt>
</event>
<event>
 9    1  0.4497870E-036  0.1000229E+04  0.7818608E-02  0.8680820E-01
          2   -1    0    0  501    0  0.00000000000E+00  0.00000000000E+00  0.10387816337E+04  0.10387816337E+04  0.00000000000E+00 0.  1.
         -2   -1    0    0    0  501 -0.00000000000E+00 -0.00000000000E+00 -0.24077685456E+03  0.24077685456E+03  0.00000000000E+00 0.  1.
         36    2    1    2    0    0 -0.28421709430E-13 -0.10658141036E-13  0.79800477916E+03  0.12795584883E+04  0.10002291224E+04 0.  0.
         25    2    3    3    0    0  0.10697689425E+03  0.29956553284E+02  0.39014870165E+02  0.17129060499E+03  0.12440602990E+03 0.  0.
         35    2    3    3    0    0 -0.10697689425E+03 -0.29956553284E+02  0.75898990899E+03  0.11082678833E+04  0.79990659966E+03 0.  0.
         22    1    5    5    0    0 -0.24357858058E+03 -0.74243549372E+02 -0.72267172221E+02  0.26469826921E+03  0.00000000000E+00 0.  1.
         22    1    5    5    0    0  0.13660168633E+03  0.44286996087E+02  0.83125708121E+03  0.84356961408E+03  0.00000000000E+00 0.  1.
          5    1    4    4  502    0  0.12888803130E+03  0.25190239348E+02  0.65737757244E+01  0.13157498736E+03  0.47000000000E+01 0.  1.
         -5    1    4    4    0  502 -0.21911137051E+02  0.47663139363E+01  0.32441094440E+02  0.39715617632E+02  0.47000000000E+01 0.  1.
<mgrwt>
<rscale>  0 0.10002291E+04</rscale>
<asrwt>0</asrwt>
<pdfrwt beam="1">  1        2 0.15981256E+00 0.10002291E+04</pdfrwt>
<pdfrwt beam="2">  1       -2 0.37042593E-01 0.10002291E+04</pdfrwt>
<totfact> 0.19742386E+02</totfact>
</mgrwt>
</event>
<event>
 9    1  0.4497870E-036  0.1000040E+04  0.7818608E-02  0.8680999E-01
         -2   -1    0    0    0  501 -0.00000000000E+00  0.00000000000E+00  0.31208340065E+03  0.31208340065E+03  0.00000000000E+00 0. -1.
          2   -1    0    0  501    0  0.00000000000E+00 -0.00000000000E+00 -0.80113260928E+03  0.80113260928E+03  0.00000000000E+00 0. -1.
         36    2    1    2    0    0 -0.28421709430E-13  0.35527136788E-13 -0.48904920862E+03  0.11132160099E+04  0.10000403773E+04 0.  0.
         25    2    3    3    0    0  0.10966005211E+03 -0.11668852365E+02  0.45986497849E+01  0.16689275510E+03  0.12518208730E+03 0.  0.
         35    2    3    3    0    0 -0.10966005211E+03  0.11668852365E+02 -0.49364785841E+03  0.94632325483E+03  0.79979872804E+03 0.  0.
         22    1    5    5    0    0  0.51888566780E+02 -0.36962300736E+03 -0.13007394724E+03  0.39526297914E+03  0.00000000000E+00 0.  1.
         22    1    5    5    0    0 -0.16154861889E+03  0.38129185972E+03 -0.36357391117E+03  0.55106027569E+03  0.00000000000E+00 0.  1.
          5    1    4    4  502    0  0.37385461763E+02 -0.65216984832E+02 -0.87889301170E+01  0.75830489610E+02  0.47000000000E+01 0.  1.
         -5    1    4    4    0  502  0.72274590345E+02  0.53548132467E+02  0.13387579902E+02  0.91062265488E+02  0.47000000000E+01 0.  1.
<mgrwt>
<rscale>  0 0.10000404E+04</rscale>
<asrwt>0</asrwt>
<pdfrwt beam="1">  1        2 0.12325117E+00 0.10000404E+04</pdfrwt>
<pdfrwt beam="2">  1       -2 0.48012831E-01 0.10000404E+04</pdfrwt>
<totfact> 0.17101936E+02</totfact>
</mgrwt>
</event>
<event>
 9    1  0.4497870E-036  0.1001124E+04  0.7818608E-02  0.8679969E-01
         -2   -1    0    0    0  501 -0.00000000000E+00  0.00000000000E+00  0.95323250204E+03  0.95323250204E+03  0.00000000000E+00 0.  1.
          2   -1    0    0  501    0  0.00000000000E+00 -0.00000000000E+00 -0.26285519457E+03  0.26285519457E+03  0.00000000000E+00 0.  1.
         36    2    1    2    0    0  0.28421709430E-13 -0.53290705182E-14  0.69037730747E+03  0.12160876966E+04  0.10011235984E+04 0.  0.
         25    2    3    3    0    0  0.11903683039E+03 -0.76328792924E+00  0.22788321519E+03  0.28549878143E+03  0.12413075700E+03 0.  0.
         35    2    3    3    0    0 -0.11903683039E+03  0.76328792924E+00  0.46249409229E+03  0.93058891519E+03  0.79870181800E+03 0.  0.
         22    1    5    5    0    0 -0.16542138076E+03  0.98287981678E+02 -0.18929071933E+03  0.26991801900E+03  0.00000000000E+00 0.  1.
         22    1    5    5    0    0  0.46384550372E+02 -0.97524693749E+02  0.65178481162E+03  0.66067089618E+03  0.00000000000E+00 0.  1.
          5    1    4    4  502    0 -0.22012579622E+02 -0.15887565289E+02  0.21158443397E+02  0.34738136384E+02  0.47000000000E+01 0.  1.
         -5    1    4    4    0  502  0.14104941001E+03  0.15124277359E+02  0.20672477179E+03  0.25076064504E+03  0.47000000000E+01 0.  1.
<mgrwt>
<rscale>  0 0.10011236E+04</rscale>
<asrwt>0</asrwt>
<pdfrwt beam="1">  1        2 0.40439261E-01 0.10011236E+04</pdfrwt>
<pdfrwt beam="2">  1       -2 0.14665115E+00 0.10011236E+04</pdfrwt>
<totfact> 0.45964142E+01</totfact>
</mgrwt>
</event>
<event>
 9    1  0.4497870E-036  0.9995427E+03  0.7818608E-02  0.8681474E-01
         -1   -1    0    0    0  501 -0.00000000000E+00  0.00000000000E+00  0.10321138248E+04  0.10321138248E+04  0.00000000000E+00 0.  1.
          1   -1    0    0  501    0  0.00000000000E+00 -0.00000000000E+00 -0.24199987305E+03  0.24199987305E+03  0.00000000000E+00 0.  1.
         36    2    1    2    0    0 -0.28421709430E-13  0.14210854715E-13  0.79011395171E+03  0.12741136978E+04  0.99954272459E+03 0.  0.
         25    2    3    3    0    0 -0.13388306434E+03 -0.69966127607E+01  0.69117222840E+02  0.18919677817E+03  0.11421297155E+03 0.  0.
         35    2    3    3    0    0  0.13388306434E+03  0.69966127607E+01  0.72099672887E+03  0.10849169196E+04  0.79952161445E+03 0.  0.
         22    1    5    5    0    0  0.84434786431E+02  0.40291382023E+03  0.36188400583E+03  0.54811386897E+03  0.00000000000E+00 0. -1.
         22    1    5    5    0    0  0.49448277911E+02 -0.39591720747E+03  0.35911272304E+03  0.53680305067E+03  0.00000000000E+00 0. -1.
          5    1    4    4  502    0 -0.26714295482E+02  0.44174311624E+02  0.43371896092E+02  0.67588717707E+02  0.47000000000E+01 0.  1.
         -5    1    4    4    0  502 -0.10716876886E+03 -0.51170924385E+02  0.25745326747E+02  0.12160806047E+03  0.47000000000E+01 0.  1.
<mgrwt>
<rscale>  0 0.99954272E+03</rscale>
<asrwt>0</asrwt>
<pdfrwt beam="1">  1        1 0.37230751E-01 0.99954272E+03</pdfrwt>
<pdfrwt beam="2">  1       -1 0.15878674E+00 0.99954272E+03</pdfrwt>
<totfact> 0.40128273E+01</totfact>
</mgrwt>
</event>
<event>
 9    1  0.4497870E-036  0.1000597E+04  0.7818608E-02  0.8680470E-01
          1   -1    0    0  501    0  0.00000000000E+00  0.00000000000E+00  0.30785127606E+03  0.30785127606E+03  0.00000000000E+00 0.  1.
         -1   -1    0    0    0  501 -0.00000000000E+00 -0.00000000000E+00 -0.81304966059E+03  0.81304966059E+03  0.00000000000E+00 0.  1.
         36    2    1    2    0    0  0.71054273576E-14  0.00000000000E+00 -0.50519838453E+03  0.11209009367E+04  0.10005965731E+04 0.  0.
         25    2    3    3    0    0 -0.35946349662E+02 -0.13273219562E+03 -0.60074038687E+02  0.19538756954E+03  0.12512967833E+03 0.  0.
         35    2    3    3    0    0  0.35946349662E+02  0.13273219562E+03 -0.44512434585E+03  0.92551336711E+03  0.79970577941E+03 0.  0.
         22    1    5    5    0    0  0.42353991913E+02 -0.90016139705E+01 -0.66360026665E+03  0.66501143117E+03  0.00000000000E+00 0. -1.
         22    1    5    5    0    0 -0.64076422508E+01  0.14173380959E+03  0.21847592080E+03  0.26050193594E+03  0.00000000000E+00 0. -1.
          5    1    4    4  502    0 -0.32654103346E+02 -0.11693914855E+03 -0.96572050502E+02  0.15520729966E+03  0.47000000000E+01 0. -1.
         -5    1    4    4    0  502 -0.32922463167E+01 -0.15793047070E+02  0.36498011814E+02  0.40180269884E+02  0.47000000000E+01 0. -1.
<mgrwt>
<rscale>  0 0.10005966E+04</rscale>
<asrwt>0</asrwt>
<pdfrwt beam="1">  1        1 0.47361735E-01 0.10005966E+04</pdfrwt>
<pdfrwt beam="2">  1       -1 0.12508456E+00 0.10005966E+04</pdfrwt>
<totfact> 0.56836856E+01</totfact>
</mgrwt>
</event>
<event>
 9    1  0.4497870E-036  0.1002515E+04  0.7818608E-02  0.8678646E-01
          1   -1    0    0  501    0  0.00000000000E+00  0.00000000000E+00  0.70350907388E+03  0.70350907388E+03  0.00000000000E+00 0.  1.
         -1   -1    0    0    0  501 -0.00000000000E+00 -0.00000000000E+00 -0.35715130520E+03  0.35715130520E+03  0.00000000000E+00 0.  1.
         36    2    1    2    0    0  0.00000000000E+00  0.71054273576E-14  0.34635776868E+03  0.10606603791E+04  0.10025152048E+04 0.  0.
         25    2    3    3    0    0 -0.10359283932E+03 -0.15237786139E+02 -0.24088951878E+02  0.16491109329E+03  0.12510685274E+03 0.  0.
         35    2    3    3    0    0  0.10359283932E+03  0.15237786139E+02  0.37044672056E+03  0.89574928579E+03  0.80880921343E+03 0.  0.
         22    1    5    5    0    0 -0.22644319184E+03  0.26912397707E+03  0.32145655727E+03  0.47648562661E+03  0.00000000000E+00 0.  1.
         22    1    5    5    0    0  0.33003603116E+03 -0.25388619093E+03  0.48990163295E+02  0.41926365917E+03  0.00000000000E+00 0.  1.
          5    1    4    4  502    0 -0.98928769506E+02  0.17911014327E+02  0.26491254539E+02  0.10407488860E+03  0.47000000000E+01 0. -1.
         -5    1    4    4    0  502 -0.46640698157E+01 -0.33148800466E+02 -0.50580206417E+02  0.60836204688E+02  0.47000000000E+01 0. -1.
<mgrwt>
<rscale>  0 0.10025152E+04</rscale>
<asrwt>0</asrwt>
<pdfrwt beam="1">  1        1 0.10823216E+00 0.10025152E+04</pdfrwt>
<pdfrwt beam="2">  1       -1 0.54946355E-01 0.10025152E+04</pdfrwt>
<totfact> 0.10406955E+02</totfact>
</mgrwt>
</event>
<event>
 9    1  0.4497870E-036  0.9999094E+03  0.7818608E-02  0.8681124E-01
         -2   -1    0    0    0  501 -0.00000000000E+00  0.00000000000E+00  0.25367133113E+03  0.25367133113E+03  0.00000000000E+00 0.  1.
          2   -1    0    0  501    0  0.00000000000E+00 -0.00000000000E+00 -0.98534867753E+03  0.98534867753E+03  0.00000000000E+00 0.  1.
         36    2    1    2    0    0 -0.71054273576E-14  0.00000000000E+00 -0.73167734640E+03  0.12390200087E+04  0.99990941721E+03 0.  0.
         25    2    3    3    0    0 -0.35852892682E+02 -0.13662675410E+03 -0.15482308456E+03  0.24272486799E+03  0.12244539263E+03 0.  0.
         35    2    3    3    0    0  0.35852892682E+02  0.13662675410E+03 -0.57685426184E+03  0.99629514067E+03  0.79993178964E+03 0.  0.
         22    1    5    5    0    0 -0.77331495260E+01  0.31665763368E+03  0.69189934348E+02  0.32422076674E+03  0.00000000000E+00 0. -1.
         22    1    5    5    0    0  0.43586042208E+02 -0.18003087958E+03 -0.64604419619E+03  0.67207437394E+03  0.00000000000E+00 0. -1.
          5    1    4    4  502    0 -0.13049011150E+02 -0.77587990076E+02 -0.16070118995E+03  0.17898920455E+03  0.47000000000E+01 0.  1.
         -5    1    4    4    0  502 -0.22803881532E+02 -0.59038764027E+02  0.58781053828E+01  0.63735663437E+02  0.47000000000E+01 0.  1.
<mgrwt>
<rscale>  0 0.99990942E+03</rscale>
<asrwt>0</asrwt>
<pdfrwt beam="1">  1        2 0.15159211E+00 0.99990942E+03</pdfrwt>
<pdfrwt beam="2">  1       -2 0.39026358E-01 0.99990942E+03</pdfrwt>
<totfact> 0.19314029E+02</totfact>
</mgrwt>
</event>
<event>
 9    1  0.4497870E-036  0.9990049E+03  0.7818608E-02  0.8681986E-01
         -1   -1    0    0    0  501 -0.00000000000E+00  0.00000000000E+00  0.45965201693E+03  0.45965201693E+03  0.00000000000E+00 0. -1.
          1   -1    0    0  501    0  0.00000000000E+00 -0.00000000000E+00 -0.54280775366E+03  0.54280775366E+03  0.00000000000E+00 0. -1.
         36    2    1    2    0    0  0.28421709430E-13 -0.28421709430E-13 -0.83155736727E+02  0.10024597706E+04  0.99900486240E+03 0.  0.
         25    2    3    3    0    0  0.11760017537E+03 -0.48188454450E+02 -0.77026711327E+02  0.19331568852E+03  0.12363621144E+03 0.  0.
         35    2    3    3    0    0 -0.11760017537E+03  0.48188454450E+02 -0.61290253996E+01  0.80914408207E+03  0.79907737561E+03 0.  0.
         22    1    5    5    0    0 -0.15449851823E+03  0.39414769763E+03  0.11842741309E+03  0.43959896708E+03  0.00000000000E+00 0. -1.
         22    1    5    5    0    0  0.36898342863E+02 -0.34595924318E+03 -0.12455643849E+03  0.36954511500E+03  0.00000000000E+00 0. -1.
          5    1    4    4  502    0  0.75166981564E+02  0.22928109795E+02 -0.77351200752E+02  0.11036789204E+03  0.47000000000E+01 0.  1.
         -5    1    4    4    0  502  0.42433193806E+02 -0.71116564246E+02  0.32448942415E+00  0.82947796475E+02  0.47000000000E+01 0.  1.
<mgrwt>
<rscale>  0 0.99900486E+03</rscale>
<asrwt>0</asrwt>
<pdfrwt beam="1">  1        1 0.83508886E-01 0.99900486E+03</pdfrwt>
<pdfrwt beam="2">  1       -1 0.70715695E-01 0.99900486E+03</pdfrwt>
<totfact> 0.93679989E+01</totfact>
</mgrwt>
</event>
<event>
 9    1  0.4497870E-036  0.1000758E+04  0.7818608E-02  0.8680316E-01
          2   -1    0    0  501    0  0.00000000000E+00  0.00000000000E+00  0.34854376077E+03  0.34854376077E+03  0.00000000000E+00 0. -1.
         -2   -1    0    0    0  501 -0.00000000000E+00 -0.00000000000E+00 -0.71835797319E+03  0.71835797319E+03  0.00000000000E+00 0. -1.
         36    2    1    2    0    0  0.00000000000E+00  0.00000000000E+00 -0.36981421242E+03  0.10669017340E+04  0.10007580918E+04 0.  0.
         25    2    3    3    0    0 -0.93158239771E+02 -0.97762576935E+02 -0.92279534825E+02  0.20989490758E+03  0.13154611585E+03 0.  0.
         35    2    3    3    0    0  0.93158239771E+02  0.97762576935E+02 -0.27753467759E+03  0.85700682638E+03  0.79949935842E+03 0.  0.
         22    1    5    5    0    0  0.80124619146E+02  0.44885150871E+03 -0.19629040882E+03  0.49640462937E+03  0.00000000000E+00 0.  1.
         22    1    5    5    0    0  0.13033620625E+02 -0.35108893178E+03 -0.81244268775E+02  0.36060219701E+03  0.00000000000E+00 0.  1.
          5    1    4    4  502    0 -0.19815032165E+02 -0.24509901881E+01 -0.87040511896E+02  0.89424736867E+02  0.47000000000E+01 0. -1.
         -5    1    4    4    0  502 -0.73343207607E+02 -0.95311586747E+02 -0.52390229287E+01  0.12047017071E+03  0.47000000000E+01 0. -1.
<mgrwt>
<rscale>  0 0.10007581E+04</rscale>
<asrwt>0</asrwt>
<pdfrwt beam="1">  1        2 0.53622117E-01 0.10007581E+04</pdfrwt>
<pdfrwt beam="2">  1       -2 0.11051661E+00 0.10007581E+04</pdfrwt>
<totfact> 0.71036684E+01</totfact>
</mgrwt>
</event>
<event>
 9    1  0.4497870E-036  0.1000508E+04  0.7818608E-02  0.8680554E-01
         -1   -1    0    0    0  501 -0.00000000000E+00  0.00000000000E+00  0.17397299795E+03  0.17397299795E+03  0.00000000000E+00 0. -1.
          1   -1    0    0  501    0  0.00000000000E+00 -0.00000000000E+00 -0.14384655673E+04  0.14384655673E+04  0.00000000000E+00 0. -1.
         36    2    1    2    0    0 -0.28421709430E-13  0.00000000000E+00 -0.12644925694E+04  0.16124385653E+04  0.10005082053E+04 0.  0.
         25    2    3    3    0    0  0.53506507755E+02 -0.54128612361E+02 -0.46325523842E+02  0.15305954623E+03  0.12445206903E+03 0.  0.
         35    2    3    3    0    0 -0.53506507755E+02  0.54128612361E+02 -0.12181670455E+04  0.14593790191E+04  0.80003957238E+03 0.  0.
         22    1    5    5    0    0  0.37024195716E+03 -0.25478573640E+02 -0.60616874670E+03  0.71075228739E+03  0.00000000000E+00 0. -1.
         22    1    5    5    0    0 -0.42374846492E+03  0.79607186001E+02 -0.61199829884E+03  0.74862673166E+03  0.00000000000E+00 0. -1.
          5    1    4    4  502    0  0.11037708804E+02 -0.89460582414E+02 -0.32326571671E+02  0.95875565487E+02  0.47000000000E+01 0. -1.
         -5    1    4    4    0  502  0.42468798951E+02  0.35331970052E+02 -0.13998952170E+02  0.57183980746E+02  0.47000000000E+01 0. -1.
<mgrwt>
<rscale>  0 0.10005082E+04</rscale>
<asrwt>0</asrwt>
<pdfrwt beam="1">  1        1 0.22130239E+00 0.10005082E+04</pdfrwt>
<pdfrwt beam="2">  1       -1 0.26765077E-01 0.10005082E+04</pdfrwt>
<totfact> 0.97472926E+01</totfact>
</mgrwt>
</event>
<event>
 9    1  0.4497870E-036  0.1000139E+04  0.7818608E-02  0.8680906E-01
         -2   -1    0    0    0  501 -0.00000000000E+00  0.00000000000E+00  0.32955525552E+03  0.32955525552E+03  0.00000000000E+00 0.  1.
          2   -1    0    0  501    0  0.00000000000E+00 -0.00000000000E+00 -0.75880879178E+03  0.75880879178E+03  0.00000000000E+00 0.  1.
         36    2    1    2    0    0  0.14210854715E-13  0.00000000000E+00 -0.42925353626E+03  0.10883640473E+04  0.10001388409E+04 0.  0.
         25    2    3    3    0    0  0.59869384854E+02 -0.12283582918E+03 -0.31397517248E+02  0.18515337638E+03  0.12092553297E+03 0.  0.
         35    2    3    3    0    0 -0.59869384854E+02  0.12283582918E+03 -0.39785601901E+03  0.90321067092E+03  0.79926661386E+03 0.  0.
         22    1    5    5    0    0  0.12864640085E+03  0.31781209048E+02 -0.59864287558E+03  0.61313394473E+03  0.00000000000E+00 0.  1.
         22    1    5    5    0    0 -0.18851578571E+03  0.91054620127E+02  0.20078685657E+03  0.29007672619E+03  0.00000000000E+00 0.  1.
          5    1    4    4  502    0  0.35305729697E+02 -0.27368879727E+02  0.42520588309E+02  0.61851762765E+02  0.47000000000E+01 0. -1.
         -5    1    4    4    0  502  0.24563655157E+02 -0.95466949449E+02 -0.73918105557E+02  0.12330161362E+03  0.47000000000E+01 0. -1.
<mgrwt>
<rscale>  0 0.10001388E+04</rscale>
<asrwt>0</asrwt>
<pdfrwt beam="1">  1        2 0.11673981E+00 0.10001388E+04</pdfrwt>
<pdfrwt beam="2">  1       -2 0.50700810E-01 0.10001388E+04</pdfrwt>
<totfact> 0.16442689E+02</totfact>
</mgrwt>
</event>
<event>
 9    1  0.4497870E-036  0.9973683E+03  0.7818608E-02  0.8683548E-01
          1   -1    0    0  501    0  0.00000000000E+00  0.00000000000E+00  0.31997680010E+03  0.31997680010E+03  0.00000000000E+00 0. -1.
         -1   -1    0    0    0  501 -0.00000000000E+00 -0.00000000000E+00 -0.77719979422E+03  0.77719979422E+03  0.00000000000E+00 0. -1.
         36    2    1    2    0    0 -0.14210854715E-13  0.00000000000E+00 -0.45722299412E+03  0.10971765943E+04  0.99736834357E+03 0.  0.
         25    2    3    3    0    0 -0.94756924833E+02  0.97578445168E+02 -0.96091724260E+02  0.20878048608E+03  0.12591760851E+03 0.  0.
         35    2    3    3    0    0  0.94756924833E+02 -0.97578445168E+02 -0.36113126986E+03  0.88839610823E+03  0.80020711275E+03 0.  0.
         22    1    5    5    0    0  0.22156493437E+03  0.49656257976E+02  0.19499542445E+03  0.29929914744E+03  0.00000000000E+00 0. -1.
         22    1    5    5    0    0 -0.12680800954E+03 -0.14723470314E+03 -0.55612669431E+03  0.58909696080E+03  0.00000000000E+00 0. -1.
          5    1    4    4  502    0  0.21168155577E+02  0.56847827809E+02 -0.19394424837E+02  0.63859220571E+02  0.47000000000E+01 0. -1.
         -5    1    4    4    0  502 -0.11592508041E+03  0.40730617359E+02 -0.76697299423E+02  0.14492126551E+03  0.47000000000E+01 0. -1.
<mgrwt>
<rscale>  0 0.99736834E+03</rscale>
<asrwt>0</asrwt>
<pdfrwt beam="1">  1        1 0.49227201E-01 0.99736834E+03</pdfrwt>
<pdfrwt beam="2">  1       -1 0.11956920E+00 0.99736834E+03</pdfrwt>
<totfact> 0.60515821E+01</totfact>
</mgrwt>
</event>
<event>
 9    1  0.4497870E-036  0.1000037E+04  0.7818608E-02  0.8681002E-01
         -1   -1    0    0    0  501 -0.00000000000E+00  0.00000000000E+00  0.99112610347E+03  0.99112610347E+03  0.00000000000E+00 0. -1.
          1   -1    0    0  501    0  0.00000000000E+00 -0.00000000000E+00 -0.25225719143E+03  0.25225719143E+03  0.00000000000E+00 0. -1.
         36    2    1    2    0    0  0.71054273576E-14 -0.71054273576E-14  0.73886891204E+03  0.12433832949E+04  0.10000373737E+04 0.  0.
         25    2    3    3    0    0 -0.83101970011E+01  0.12706715254E+02 -0.32590073191E+02  0.13043886742E+03  0.12538606492E+03 0.  0.
         35    2    3    3    0    0  0.83101970011E+01 -0.12706715254E+02  0.77145898523E+03  0.11129444275E+04  0.80203853572E+03 0.  0.
         22    1    5    5    0    0 -0.34993954842E+03  0.80352745138E+02  0.61279154547E+03  0.71023075785E+03  0.00000000000E+00 0. -1.
         22    1    5    5    0    0  0.35824974542E+03 -0.93059460391E+02  0.15866743976E+03  0.40271366963E+03  0.00000000000E+00 0. -1.
          5    1    4    4  502    0 -0.21284877720E+02 -0.21982188694E+02 -0.70644329779E+02  0.77129592046E+02  0.47000000000E+01 0.  1.
         -5    1    4    4    0  502  0.12974680719E+02  0.34688903948E+02  0.38054256587E+02  0.53309275377E+02  0.47000000000E+01 0.  1.
<mgrwt>
<rscale>  0 0.10000374E+04</rscale>
<asrwt>0</asrwt>
<pdfrwt beam="1">  1        1 0.38808799E-01 0.10000374E+04</pdfrwt>
<pdfrwt beam="2">  1       -1 0.15248094E+00 0.10000374E+04</pdfrwt>
<totfact> 0.42936609E+01</totfact>
</mgrwt>
</event>
<event>
 9    1  0.4497870E-036  0.1000070E+04  0.7818608E-02  0.8680971E-01
         -2   -1    0    0    0  501 -0.00000000000E+00  0.00000000000E+00  0.74125717944E+03  0.74125717944E+03  0.00000000000E+00 0.  1.
          2   -1    0    0  501    0  0.00000000000E+00 -0.00000000000E+00 -0.33731204443E+03  0.33731204443E+03  0.00000000000E+00 0.  1.
         36    2    1    2    0    0  0.00000000000E+00 -0.42632564146E-13  0.40394513500E+03  0.10785692239E+04  0.10000699468E+04 0.  0.
         25    2    3    3    0    0  0.87176860942E+02 -0.50291919388E+02  0.17769479416E+03  0.23922738305E+03  0.12460023552E+03 0.  0.
         35    2    3    3    0    0 -0.87176860942E+02  0.50291919388E+02  0.22625034085E+03  0.83934184082E+03  0.80198280953E+03 0.  0.
         22    1    5    5    0    0 -0.87346486711E+02  0.38695864184E+03 -0.55213020819E+02  0.40051826039E+03  0.00000000000E+00 0.  1.
         22    1    5    5    0    0  0.16962576898E+00 -0.33666672245E+03  0.28146336167E+03  0.43882358043E+03  0.00000000000E+00 0.  1.
          5    1    4    4  502    0  0.33080105038E+02 -0.79936686876E+02  0.57315200275E+02  0.10388113130E+03  0.47000000000E+01 0. -1.
         -5    1    4    4    0  502  0.54096755905E+02  0.29644767488E+02  0.12037959388E+03  0.13534625175E+03  0.47000000000E+01 0. -1.
<mgrwt>
<rscale>  0 0.10000699E+04</rscale>
<asrwt>0</asrwt>
<pdfrwt beam="1">  1        2 0.51894161E-01 0.10000699E+04</pdfrwt>
<pdfrwt beam="2">  1       -2 0.11403957E+00 0.10000699E+04</pdfrwt>
<totfact> 0.68035461E+01</totfact>
</mgrwt>
</event>
<event>
 9    1  0.4497870E-036  0.9994303E+03  0.7818608E-02  0.8681581E-01
          2   -1    0    0  501    0  0.00000000000E+00  0.00000000000E+00  0.86321056035E+03  0.86321056035E+03  0.00000000000E+00 0.  1.
         -2   -1    0    0    0  501 -0.00000000000E+00 -0.00000000000E+00 -0.28928657671E+03  0.28928657671E+03  0.00000000000E+00 0.  1.
         36    2    1    2    0    0  0.28421709430E-13  0.71054273576E-14  0.57392398365E+03  0.11524971371E+04  0.99943029368E+03 0.  0.
         25    2    3    3    0    0  0.12346702150E+03 -0.26027741943E+02  0.15223205975E+03  0.23410923095E+03  0.12534346113E+03 0.  0.
         35    2    3    3    0    0 -0.12346702150E+03  0.26027741943E+02  0.42169192389E+03  0.91838790612E+03  0.80603394387E+03 0.  0.
         22    1    5    5    0    0 -0.34680505503E+03 -0.21286856398E+03  0.42897168672E+03  0.59127276255E+03  0.00000000000E+00 0.  1.
         22    1    5    5    0    0  0.22333803353E+03  0.23889630592E+03 -0.72797628298E+01  0.32711514357E+03  0.00000000000E+00 0.  1.
          5    1    4    4  502    0  0.39988305598E+02  0.16022097626E+02  0.13121975370E+03  0.13819003567E+03  0.47000000000E+01 0.  1.
         -5    1    4    4    0  502  0.83478715906E+02 -0.42049839569E+02  0.21012306056E+02  0.95919195279E+02  0.47000000000E+01 0.  1.
<mgrwt>
<rscale>  0 0.99943029E+03</rscale>
<asrwt>0</asrwt>
<pdfrwt beam="1">  1        2 0.13280162E+00 0.99943029E+03</pdfrwt>
<pdfrwt beam="2">  1       -2 0.44505628E-01 0.99943029E+03</pdfrwt>
<totfact> 0.18001786E+02</totfact>
</mgrwt>
</event>
<event>
 9    1  0.4497870E-036  0.1000549E+04  0.7818608E-02  0.8680516E-01
         -2   -1    0    0    0  501 -0.00000000000E+00  0.00000000000E+00  0.42151916643E+03  0.42151916643E+03  0.00000000000E+00 0. -1.
          2   -1    0    0  501    0  0.00000000000E+00 -0.00000000000E+00 -0.59374386952E+03  0.59374386952E+03  0.00000000000E+00 0. -1.
         36    2    1    2    0    0  0.00000000000E+00  0.14210854715E-13 -0.17222470310E+03  0.10152630359E+04  0.10005486914E+04 0.  0.
         25    2    3    3    0    0  0.27576225524E+02 -0.12548226505E+03 -0.88831837267E+02  0.20017432203E+03  0.12518952366E+03 0.  0.
         35    2    3    3    0    0 -0.27576225524E+02  0.12548226505E+03 -0.83392865829E+02  0.81508871391E+03  0.80056791993E+03 0.  0.
         22    1    5    5    0    0  0.68822690218E+02  0.26319943866E+03 -0.38404081254E+03  0.47063558397E+03  0.00000000000E+00 0. -1.
         22    1    5    5    0    0 -0.96398915742E+02 -0.13771717362E+03  0.30064794671E+03  0.34445312994E+03  0.00000000000E+00 0. -1.
          5    1    4    4  502    0  0.14458635620E+02 -0.31375733092E+02  0.31356947645E+02  0.46891757663E+02  0.47000000000E+01 0. -1.
         -5    1    4    4    0  502  0.13117589903E+02 -0.94106531956E+02 -0.12018878491E+03  0.15328256437E+03  0.47000000000E+01 0. -1.
<mgrwt>
<rscale>  0 0.10005487E+04</rscale>
<asrwt>0</asrwt>
<pdfrwt beam="1">  1        2 0.91345210E-01 0.10005487E+04</pdfrwt>
<pdfrwt beam="2">  1       -2 0.64849103E-01 0.10005487E+04</pdfrwt>
<totfact> 0.13334522E+02</totfact>
</mgrwt>
</event>
<event>
 9    1  0.4497870E-036  0.9994763E+03  0.7818608E-02  0.8681537E-01
         -1   -1    0    0    0  501 -0.00000000000E+00  0.00000000000E+00  0.11930701689E+03  0.11930701689E+03  0.00000000000E+00 0. -1.
          1   -1    0    0  501    0  0.00000000000E+00 -0.00000000000E+00 -0.20932401202E+04  0.20932401202E+04  0.00000000000E+00 0. -1.
         36    2    1    2    0    0  0.00000000000E+00  0.00000000000E+00 -0.19739331033E+04  0.22125471371E+04  0.99947633162E+03 0.  0.
         25    2    3    3    0    0 -0.12232639061E+02 -0.13489786554E+03 -0.29401807965E+03  0.34707479418E+03  0.12516872615E+03 0.  0.
         35    2    3    3    0    0  0.12232639061E+02  0.13489786554E+03 -0.16799150237E+04  0.18654723429E+04  0.79970338491E+03 0.  0.
         22    1    5    5    0    0 -0.15990994203E+03  0.25561037976E+01 -0.16361791776E+04  0.16439768930E+04  0.00000000000E+00 0.  1.
         22    1    5    5    0    0  0.17214258109E+03  0.13234176174E+03 -0.43735846034E+02  0.22149544996E+03  0.00000000000E+00 0.  1.
          5    1    4    4  502    0 -0.30472481505E+02 -0.87820669812E+02 -0.67563394924E+02  0.11501280150E+03  0.47000000000E+01 0.  1.
         -5    1    4    4    0  502  0.18239842444E+02 -0.47077195729E+02 -0.22645468473E+03  0.23206199268E+03  0.47000000000E+01 0.  1.
<mgrwt>
<rscale>  0 0.99947633E+03</rscale>
<asrwt>0</asrwt>
<pdfrwt beam="1">  1        1 0.32203693E+00 0.99947633E+03</pdfrwt>
<pdfrwt beam="2">  1       -1 0.18354926E-01 0.99947633E+03</pdfrwt>
<totfact> 0.63117256E+01</totfact>
</mgrwt>
</event>
<event>
 9    1  0.4497870E-036  0.9998287E+03  0.7818608E-02  0.8681201E-01
         -2   -1    0    0    0  501 -0.00000000000E+00  0.00000000000E+00  0.48956884478E+03  0.48956884478E+03  0.00000000000E+00 0. -1.
          2   -1    0    0  501    0  0.00000000000E+00 -0.00000000000E+00 -0.51047843920E+03  0.51047843920E+03  0.00000000000E+00 0. -1.
         36    2    1    2    0    0  0.28421709430E-13  0.28421709430E-13 -0.20909594422E+02  0.10000472840E+04  0.99982866486E+03 0.  0.
         25    2    3    3    0    0  0.11463982030E+03 -0.52814385015E+02 -0.62536706264E+02  0.18806024071E+03  0.12459601456E+03 0.  0.
         35    2    3    3    0    0 -0.11463982030E+03  0.52814385015E+02  0.41627111842E+02  0.81198704327E+03  0.80103588830E+03 0.  0.
         22    1    5    5    0    0  0.17629564653E+03 -0.22787857333E+03  0.22743561597E+03  0.36706369826E+03  0.00000000000E+00 0. -1.
         22    1    5    5    0    0 -0.29093546683E+03  0.28069295835E+03 -0.18580850413E+03  0.44492334501E+03  0.00000000000E+00 0. -1.
          5    1    4    4  502    0  0.96584378182E+02 -0.89720803025E+02 -0.29596392502E+02  0.13519024023E+03  0.47000000000E+01 0. -1.
         -5    1    4    4    0  502  0.18055442122E+02  0.36906418010E+02 -0.32940313762E+02  0.52870000485E+02  0.47000000000E+01 0. -1.
<mgrwt>
<rscale>  0 0.99982866E+03</rscale>
<asrwt>0</asrwt>
<pdfrwt beam="1">  1        2 0.78535145E-01 0.99982866E+03</pdfrwt>
<pdfrwt beam="2">  1       -2 0.75318284E-01 0.99982866E+03</pdfrwt>
<totfact> 0.11484987E+02</totfact>
</mgrwt>
</event>
<event>
 9    1  0.4497870E-036  0.1000109E+04  0.7818608E-02  0.8680935E-01
          1   -1    0    0  501    0  0.00000000000E+00  0.00000000000E+00  0.20154318169E+04  0.20154318169E+04  0.00000000000E+00 0.  1.
         -1   -1    0    0    0  501 -0.00000000000E+00 -0.00000000000E+00 -0.12406982890E+03  0.12406982890E+03  0.00000000000E+00 0.  1.
         36    2    1    2    0    0  0.28421709430E-13  0.00000000000E+00  0.18913619880E+04  0.21395016458E+04  0.10001085555E+04 0.  0.
         25    2    3    3    0    0 -0.78779261806E+02 -0.80733486318E+02  0.53947857414E+03  0.56520524321E+03  0.12528274860E+03 0.  0.
         35    2    3    3    0    0  0.78779261806E+02  0.80733486318E+02  0.13518834138E+04  0.15742964025E+04  0.79880932056E+03 0.  0.
         22    1    5    5    0    0  0.20062634168E+03  0.10806742599E+02 -0.13814668206E+02  0.20139155821E+03  0.00000000000E+00 0.  1.
         22    1    5    5    0    0 -0.12184707987E+03  0.69926743719E+02  0.13656980820E+04  0.13729048443E+04  0.00000000000E+00 0.  1.
          5    1    4    4  502    0  0.82285028902E+01 -0.72434963441E+01 -0.17928333025E+01  0.12061540132E+02  0.47000000000E+01 0.  1.
         -5    1    4    4    0  502 -0.87007764696E+02 -0.73489989974E+02  0.54127140744E+03  0.55314370308E+03  0.47000000000E+01 0.  1.
<mgrwt>
<rscale>  0 0.10001086E+04</rscale>
<asrwt>0</asrwt>
<pdfrwt beam="1">  1        1 0.31006641E+00 0.10001086E+04</pdfrwt>
<pdfrwt beam="2">  1       -1 0.19087667E-01 0.10001086E+04</pdfrwt>
<totfact> 0.67101670E+01</totfact>
</mgrwt>
</event>
<event>
 9    1  0.4497870E-036  0.9996343E+03  0.7818608E-02  0.8681386E-01
         -1   -1    0    0    0  501 -0.00000000000E+00  0.00000000000E+00  0.26353788440E+03  0.26353788440E+03  0.00000000000E+00 0. -1.
          1   -1    0    0  501    0  0.00000000000E+00 -0.00000000000E+00 -0.94793646084E+03  0.94793646084E+03  0.00000000000E+00 0. -1.
         36    2    1    2    0    0  0.71054273576E-14  0.00000000000E+00 -0.68439857644E+03  0.12114743452E+04  0.99963427199E+03 0.  0.
         25    2    3    3    0    0 -0.17939714884E+02 -0.13784211430E+03 -0.14668851799E+03  0.23820376673E+03  0.12610008458E+03 0.  0.
         35    2    3    3    0    0  0.17939714884E+02  0.13784211430E+03 -0.53771005845E+03  0.97327057851E+03  0.79925041770E+03 0.  0.
         22    1    5    5    0    0 -0.19673026136E+02 -0.87863211454E+02  0.19009664134E+03  0.21034187632E+03  0.00000000000E+00 0.  1.
         22    1    5    5    0    0  0.37612741020E+02  0.22570532575E+03 -0.72780669979E+03  0.76292870219E+03  0.00000000000E+00 0.  1.
          5    1    4    4  502    0  0.48561029993E+02 -0.49985470859E+02 -0.25533390532E+02  0.74369112964E+02  0.47000000000E+01 0. -1.
         -5    1    4    4    0  502 -0.66500744877E+02 -0.87856643439E+02 -0.12115512745E+03  0.16383465376E+03  0.47000000000E+01 0. -1.
<mgrwt>
<rscale>  0 0.99963427E+03</rscale>
<asrwt>0</asrwt>
<pdfrwt beam="1">  1        1 0.14583638E+00 0.99963427E+03</pdfrwt>
<pdfrwt beam="2">  1       -1 0.40544290E-01 0.99963427E+03</pdfrwt>
<totfact> 0.11111520E+02</totfact>
</mgrwt>
</event>
<event>
 9    1  0.4497870E-036  0.1005748E+04  0.7818608E-02  0.8675583E-01
          1   -1    0    0  501    0  0.00000000000E+00  0.00000000000E+00  0.51303553740E+03  0.51303553740E+03  0.00000000000E+00 0. -1.
         -1   -1    0    0    0  501 -0.00000000000E+00 -0.00000000000E+00 -0.49291405775E+03  0.49291405775E+03  0.00000000000E+00 0. -1.
         36    2    1    2    0    0  0.35527136788E-13 -0.14210854715E-13  0.20121479645E+02  0.10059495951E+04  0.10057483353E+04 0.  0.
         25    2    3    3    0    0  0.54672059633E+02 -0.65438639780E+02 -0.11269972150E+03  0.18796814728E+03  0.12393364145E+03 0.  0.
         35    2    3    3    0    0 -0.54672059633E+02  0.65438639780E+02  0.13282120115E+03  0.81798144787E+03  0.80260882621E+03 0.  0.
         22    1    5    5    0    0 -0.38039060975E+03 -0.10665047490E+03 -0.64166597423E+02  0.40023579551E+03  0.00000000000E+00 0.  1.
         22    1    5    5    0    0  0.32571855012E+03  0.17208911468E+03  0.19698779857E+03  0.41774565236E+03  0.00000000000E+00 0.  1.
          5    1    4    4  502    0  0.78666882348E+02 -0.40354159374E+01 -0.85915723505E+02  0.11665489491E+03  0.47000000000E+01 0. -1.
         -5    1    4    4    0  502 -0.23994822715E+02 -0.61403223843E+02 -0.26783997998E+02  0.71313252374E+02  0.47000000000E+01 0. -1.
<mgrwt>
<rscale>  0 0.10057483E+04</rscale>
<asrwt>0</asrwt>
<pdfrwt beam="1">  1        1 0.78928544E-01 0.10057483E+04</pdfrwt>
<pdfrwt beam="2">  1       -1 0.75832932E-01 0.10057483E+04</pdfrwt>
<totfact> 0.88045752E+01</totfact>
</mgrwt>
</event>
<event>
 9    1  0.4497870E-036  0.1000584E+04  0.7818608E-02  0.8680482E-01
         -2   -1    0    0    0  501 -0.00000000000E+00  0.00000000000E+00  0.93928026358E+02  0.93928026358E+02  0.00000000000E+00 0.  1.
          2   -1    0    0  501    0  0.00000000000E+00 -0.00000000000E+00 -0.26647217315E+04  0.26647217315E+04  0.00000000000E+00 0.  1.
         36    2    1    2    0    0 -0.21316282073E-13 -0.28421709430E-13 -0.25707937051E+04  0.27586497578E+04  0.10005839356E+04 0.  0.
         25    2    3    3    0    0 -0.72849194280E+01 -0.14054049377E+03 -0.52745948407E+03  0.55974762299E+03  0.12368990933E+03 0.  0.
         35    2    3    3    0    0  0.72849194280E+01  0.14054049377E+03 -0.20433342211E+04  0.21989021349E+04  0.80009446897E+03 0.  0.
         22    1    5    5    0    0 -0.34588257648E+03  0.17519913733E+03 -0.61397338790E+03  0.72614930661E+03  0.00000000000E+00 0.  1.
         22    1    5    5    0    0  0.35316749591E+03 -0.34658643565E+02 -0.14293608332E+04  0.14727528282E+04  0.00000000000E+00 0.  1.
          5    1    4    4  502    0  0.49642137220E+02 -0.31733649823E+02 -0.11399036410E+03  0.12840272360E+03  0.47000000000E+01 0.  1.
         -5    1    4    4    0  502 -0.56927056648E+02 -0.10880684395E+03 -0.41346911996E+03  0.43134489939E+03  0.47000000000E+01 0.  1.
<mgrwt>
<rscale>  0 0.10005839E+04</rscale>
<asrwt>0</asrwt>
<pdfrwt beam="1">  1        2 0.40995713E+00 0.10005839E+04</pdfrwt>
<pdfrwt beam="2">  1       -2 0.14450468E-01 0.10005839E+04</pdfrwt>
<totfact> 0.11728965E+02</totfact>
</mgrwt>
</event>
<event>
 9    1  0.4497870E-036  0.9992769E+03  0.7818608E-02  0.8681727E-01
         -3   -1    0    0    0  501 -0.00000000000E+00  0.00000000000E+00  0.37137505349E+03  0.37137505349E+03  0.00000000000E+00 0. -1.
          3   -1    0    0  501    0  0.00000000000E+00 -0.00000000000E+00 -0.67220066448E+03  0.67220066448E+03  0.00000000000E+00 0. -1.
         36    2    1    2    0    0 -0.14210854715E-13  0.00000000000E+00 -0.30082561099E+03  0.10435757180E+04  0.99927685398E+03 0.  0.
         25    2    3    3    0    0 -0.10350013689E+03  0.63018485770E+02 -0.12952525857E+03  0.21548687678E+03  0.12236908747E+03 0.  0.
         35    2    3    3    0    0  0.10350013689E+03 -0.63018485770E+02 -0.17130035241E+03  0.82808884119E+03  0.80106411122E+03 0.  0.
         22    1    5    5    0    0 -0.19680657478E+02  0.33439431125E+03 -0.23221021724E+03  0.40758860223E+03  0.00000000000E+00 0.  1.
         22    1    5    5    0    0  0.12318079437E+03 -0.39741279701E+03  0.60909864833E+02  0.42050023896E+03  0.00000000000E+00 0.  1.
          5    1    4    4  502    0 -0.83088653097E+01 -0.30031816512E+02 -0.28009507494E+01  0.31636728194E+02  0.47000000000E+01 0. -1.
         -5    1    4    4    0  502 -0.95191271584E+02  0.93050302282E+02 -0.12672430782E+03  0.18385014858E+03  0.47000000000E+01 0. -1.
<mgrwt>
<rscale>  0 0.99927685E+03</rscale>
<asrwt>0</asrwt>
<pdfrwt beam="1">  1        3 0.10341549E+00 0.99927685E+03</pdfrwt>
<pdfrwt beam="2">  1       -3 0.57134624E-01 0.99927685E+03</pdfrwt>
<totfact> 0.10099652E+01</totfact>
</mgrwt>
</event>
<event>
 9    1  0.4497870E-036  0.9996516E+03  0.7818608E-02  0.8681370E-01
         -2   -1    0    0    0  501 -0.00000000000E+00  0.00000000000E+00  0.17434933767E+03  0.17434933767E+03  0.00000000000E+00 0.  1.
          2   -1    0    0  501    0  0.00000000000E+00 -0.00000000000E+00 -0.14329037299E+04  0.14329037299E+04  0.00000000000E+00 0.  1.
         36    2    1    2    0    0 -0.28421709430E-13  0.14210854715E-13 -0.12585543923E+04  0.16072530676E+04  0.99965157182E+03 0.  0.
         25    2    3    3    0    0 -0.11802648084E+03 -0.72780156598E+02 -0.22820586226E+03  0.29534239238E+03  0.12618245439E+03 0.  0.
         35    2    3    3    0    0  0.11802648084E+03  0.72780156598E+02 -0.10303485300E+04  0.13119106752E+04  0.80016518613E+03 0.  0.
         22    1    5    5    0    0  0.10245659500E+03 -0.35705513376E+03 -0.58336061640E+03  0.69158899006E+03  0.00000000000E+00 0.  1.
         22    1    5    5    0    0  0.15569885849E+02  0.42983529035E+03 -0.44698791362E+03  0.62032168518E+03  0.00000000000E+00 0.  1.
          5    1    4    4  502    0  0.19511409676E+02  0.11695655117E+02 -0.48307646193E+02  0.53602258692E+02  0.47000000000E+01 0.  1.
         -5    1    4    4    0  502 -0.13753789052E+03 -0.84475811715E+02 -0.17989821607E+03  0.24174013369E+03  0.47000000000E+01 0.  1.
<mgrwt>
<rscale>  0 0.99965157E+03</rscale>
<asrwt>0</asrwt>
<pdfrwt beam="1">  1        2 0.22044672E+00 0.99965157E+03</pdfrwt>
<pdfrwt beam="2">  1       -2 0.26822975E-01 0.99965157E+03</pdfrwt>
<totfact> 0.20928315E+02</totfact>
</mgrwt>
</event>
<event>
 9    1  0.4497870E-036  0.1000067E+04  0.7818608E-02  0.8680974E-01
          2   -1    0    0  501    0  0.00000000000E+00  0.00000000000E+00  0.82388242644E+03  0.82388242644E+03  0.00000000000E+00 0.  1.
         -2   -1    0    0    0  501 -0.00000000000E+00 -0.00000000000E+00 -0.30348224381E+03  0.30348224381E+03  0.00000000000E+00 0.  1.
         36    2    1    2    0    0 -0.28421709430E-13 -0.28421709430E-13  0.52040018262E+03  0.11273646703E+04  0.10000673726E+04 0.  0.
         25    2    3    3    0    0 -0.13106368622E+03 -0.45265434035E+02  0.10617548532E+03  0.21578088618E+03  0.12673400409E+03 0.  0.
         35    2    3    3    0    0  0.13106368622E+03  0.45265434035E+02  0.41422469730E+03  0.91158378407E+03  0.80011014627E+03 0.  0.
         22    1    5    5    0    0 -0.23126800520E+03 -0.21748055233E+03  0.25004111847E+02  0.31844604956E+03  0.00000000000E+00 0. -1.
         22    1    5    5    0    0  0.36233169142E+03  0.26274598636E+03  0.38922058545E+03  0.59313773451E+03  0.00000000000E+00 0. -1.
          5    1    4    4  502    0 -0.71858756535E+02 -0.86208709732E+02  0.44320162799E+02  0.12075590816E+03  0.47000000000E+01 0.  1.
         -5    1    4    4    0  502 -0.59204929689E+02  0.40943275697E+02  0.61855322524E+02  0.95024978026E+02  0.47000000000E+01 0.  1.
<mgrwt>
<rscale>  0 0.10000674E+04</rscale>
<asrwt>0</asrwt>
<pdfrwt beam="1">  1        2 0.12675114E+00 0.10000674E+04</pdfrwt>
<pdfrwt beam="2">  1       -2 0.46689576E-01 0.10000674E+04</pdfrwt>
<totfact> 0.17427866E+02</totfact>
</mgrwt>
</event>
<event>
 9    1  0.4497870E-036  0.9998557E+03  0.7818608E-02  0.8681175E-01
          2   -1    0    0  501    0  0.00000000000E+00  0.00000000000E+00  0.35499556302E+03  0.35499556302E+03  0.00000000000E+00 0. -1.
         -2   -1    0    0    0  501 -0.00000000000E+00 -0.00000000000E+00 -0.70403096017E+03  0.70403096017E+03  0.00000000000E+00 0. -1.
         36    2    1    2    0    0  0.00000000000E+00  0.00000000000E+00 -0.34903539715E+03  0.10590265232E+04  0.99985572377E+03 0.  0.
         25    2    3    3    0    0  0.75374085680E+02 -0.10585679411E+03 -0.12140496813E+03  0.21742895543E+03  0.12509704521E+03 0.  0.
         35    2    3    3    0    0 -0.75374085680E+02  0.10585679411E+03 -0.22763042902E+03  0.84159756776E+03  0.79973992035E+03 0.  0.
         22    1    5    5    0    0 -0.36009797242E+03  0.82358513414E+02  0.12297874419E+03  0.38932922572E+03  0.00000000000E+00 0. -1.
         22    1    5    5    0    0  0.28472388674E+03  0.23498280692E+02 -0.35060917321E+03  0.45226834205E+03  0.00000000000E+00 0. -1.
          5    1    4    4  502    0 -0.76757742787E+01  0.71976906166E+01  0.16849532887E+02  0.20413745846E+02  0.47000000000E+01 0.  1.
         -5    1    4    4    0  502  0.83049859959E+02 -0.11305448472E+03 -0.13825450102E+03  0.19701520958E+03  0.47000000000E+01 0.  1.
<mgrwt>
<rscale>  0 0.99985572E+03</rscale>
<asrwt>0</asrwt>
<pdfrwt beam="1">  1        2 0.54614702E-01 0.99985572E+03</pdfrwt>
<pdfrwt beam="2">  1       -2 0.10831246E+00 0.99985572E+03</pdfrwt>
<totfact> 0.73221187E+01</totfact>
</mgrwt>
</event>
<event>
 9    1  0.4497870E-036  0.9941325E+03  0.7818608E-02  0.8686646E-01
          3   -1    0    0  501    0  0.00000000000E+00  0.00000000000E+00  0.87617453760E+03  0.87617453760E+03  0.00000000000E+00 0.  1.
         -3   -1    0    0    0  501 -0.00000000000E+00 -0.00000000000E+00 -0.28199276499E+03  0.28199276499E+03  0.00000000000E+00 0.  1.
         36    2    1    2    0    0 -0.14210854715E-13 -0.14210854715E-13  0.59418177261E+03  0.11581673026E+04  0.99413254745E+03 0.  0.
         25    2    3    3    0    0 -0.91748737051E+02 -0.75775735867E+02  0.18187214921E+03  0.25053657167E+03  0.12462464519E+03 0.  0.
         35    2    3    3    0    0  0.91748737051E+02  0.75775735867E+02  0.41230962340E+03  0.90763073093E+03  0.79977154568E+03 0.  0.
         22    1    5    5    0    0  0.68414347275E+02  0.10765502746E+03  0.65217600843E+03  0.66453267325E+03  0.00000000000E+00 0. -1.
         22    1    5    5    0    0  0.23334389777E+02 -0.31879291598E+02 -0.23986638503E+03  0.24309805768E+03  0.00000000000E+00 0. -1.
          5    1    4    4  502    0 -0.61112790744E+02 -0.82429975064E+02  0.48768234498E+02  0.11370973871E+03  0.47000000000E+01 0.  1.
         -5    1    4    4    0  502 -0.30635946307E+02  0.66542391969E+01  0.13310391472E+03  0.13682683296E+03  0.47000000000E+01 0.  1.
<mgrwt>
<rscale>  0 0.99413255E+03</rscale>
<asrwt>0</asrwt>
<pdfrwt beam="1">  1        3 0.13479608E+00 0.99413255E+03</pdfrwt>
<pdfrwt beam="2">  1       -3 0.43383503E-01 0.99413255E+03</pdfrwt>
<totfact> 0.94247306E+00</totfact>
</mgrwt>
</event>
<event>
 9    1  0.4497870E-036  0.9998488E+03  0.7818608E-02  0.8681182E-01
         -2   -1    0    0    0  501 -0.00000000000E+00  0.00000000000E+00  0.71670868904E+03  0.71670868904E+03  0.00000000000E+00 0.  1.
          2   -1    0    0  501    0  0.00000000000E+00 -0.00000000000E+00 -0.34871128386E+03  0.34871128386E+03  0.00000000000E+00 0.  1.
         36    2    1    2    0    0 -0.42632564146E-13  0.00000000000E+00  0.36799740517E+03  0.10654199729E+04  0.99984880279E+03 0.  0.
         25    2    3    3    0    0  0.92775750556E+02  0.85399369848E+02  0.13543304918E+03  0.22355391111E+03  0.12543463677E+03 0.  0.
         35    2    3    3    0    0 -0.92775750556E+02 -0.85399369848E+02  0.23256435599E+03  0.84186606179E+03  0.79921955310E+03 0.  0.
         22    1    5    5    0    0  0.31226925273E+03 -0.68718157734E+02  0.29093956037E+03  0.43229630948E+03  0.00000000000E+00 0. -1.
         22    1    5    5    0    0 -0.40504500328E+03 -0.16681212114E+02 -0.58375204376E+02  0.40956975231E+03  0.00000000000E+00 0. -1.
          5    1    4    4  502    0  0.67574531014E+01 -0.24489014897E+02 -0.40962521041E+01  0.26158063849E+02  0.47000000000E+01 0. -1.
         -5    1    4    4    0  502  0.86018297455E+02  0.10988838475E+03  0.13952930128E+03  0.19739584726E+03  0.47000000000E+01 0. -1.
<mgrwt>
<rscale>  0 0.99984880E+03</rscale>
<asrwt>0</asrwt>
<pdfrwt beam="1">  1        2 0.53647890E-01 0.99984880E+03</pdfrwt>
<pdfrwt beam="2">  1       -2 0.11026288E+00 0.99984880E+03</pdfrwt>
<totfact> 0.71416663E+01</totfact>
</mgrwt>
</event>
<event>
 9    1  0.4497870E-036  0.9999876E+03  0.7818608E-02  0.8681050E-01
          2   -1    0    0  501    0  0.00000000000E+00  0.00000000000E+00  0.83767745308E+03  0.83767745308E+03  0.00000000000E+00 0. -1.
         -2   -1    0    0    0  501 -0.00000000000E+00 -0.00000000000E+00 -0.29843680414E+03  0.29843680414E+03  0.00000000000E+00 0. -1.
         36    2    1    2    0    0 -0.42632564146E-13  0.14210854715E-13  0.53924064894E+03  0.11361142572E+04  0.99998756392E+03 0.  0.
         25    2    3    3    0    0  0.30549752591E+02 -0.12313132858E+03  0.34356974792E+02  0.18120092391E+03  0.12473476519E+03 0.  0.
         35    2    3    3    0    0 -0.30549752591E+02  0.12313132858E+03  0.50488367415E+03  0.95491333332E+03  0.80053565709E+03 0.  0.
         22    1    5    5    0    0 -0.35264983319E+03  0.26616056164E+03  0.18509309068E+03  0.47902275692E+03  0.00000000000E+00 0.  1.
         22    1    5    5    0    0  0.32210008060E+03 -0.14302923306E+03  0.31979058347E+03  0.47589057640E+03  0.00000000000E+00 0.  1.
          5    1    4    4  502    0 -0.38117719272E+02 -0.95133073943E+02  0.29439634715E+02  0.10673352038E+03  0.47000000000E+01 0. -1.
         -5    1    4    4    0  502  0.68667471863E+02 -0.27998254638E+02  0.49173400776E+01  0.74467403529E+02  0.47000000000E+01 0. -1.
<mgrwt>
<rscale>  0 0.99998756E+03</rscale>
<asrwt>0</asrwt>
<pdfrwt beam="1">  1        2 0.12887345E+00 0.99998756E+03</pdfrwt>
<pdfrwt beam="2">  1       -2 0.45913355E-01 0.99998756E+03</pdfrwt>
<totfact> 0.17624383E+02</totfact>
</mgrwt>
</event>
<event>
 9    1  0.4497870E-036  0.1000153E+04  0.7818608E-02  0.8680892E-01
         -2   -1    0    0    0  501 -0.00000000000E+00  0.00000000000E+00  0.22796278949E+03  0.22796278949E+03  0.00000000000E+00 0. -1.
          2   -1    0    0  501    0  0.00000000000E+00 -0.00000000000E+00 -0.10970054626E+04  0.10970054626E+04  0.00000000000E+00 0. -1.
         36    2    1    2    0    0  0.28421709430E-13  0.00000000000E+00 -0.86904267311E+03  0.13249682521E+04  0.10001528390E+04 0.  0.
         25    2    3    3    0    0 -0.45564450999E+02 -0.10452817457E+03 -0.26806006829E+03  0.31734798984E+03  0.12590189820E+03 0.  0.
         35    2    3    3    0    0  0.45564450999E+02  0.10452817457E+03 -0.60098260482E+03  0.10076202623E+04  0.80069734803E+03 0.  0.
         22    1    5    5    0    0 -0.24731818783E+03  0.48814237317E+02  0.79799771231E+02  0.26441845489E+03  0.00000000000E+00 0.  1.
         22    1    5    5    0    0  0.29288263883E+03  0.55713937255E+02 -0.68078237605E+03  0.74320180737E+03  0.00000000000E+00 0.  1.
          5    1    4    4  502    0  0.32580930619E+02 -0.22048489173E+02 -0.14268284271E+03  0.14808151984E+03  0.47000000000E+01 0.  1.
         -5    1    4    4    0  502 -0.78145381618E+02 -0.82479685399E+02 -0.12537722558E+03  0.16926647000E+03  0.47000000000E+01 0.  1.
<mgrwt>
<rscale>  0 0.10001528E+04</rscale>
<asrwt>0</asrwt>
<pdfrwt beam="1">  1        2 0.16877008E+00 0.10001528E+04</pdfrwt>
<pdfrwt beam="2">  1       -2 0.35071198E-01 0.10001528E+04</pdfrwt>
<totfact> 0.20149539E+02</totfact>
</mgrwt>
</event>
<event>
 9    1  0.4497870E-036  0.1000537E+04  0.7818608E-02  0.8680527E-01
         -2   -1    0    0    0  501 -0.00000000000E+00  0.00000000000E+00  0.27076239774E+03  0.27076239774E+03  0.00000000000E+00 0. -1.
          2   -1    0    0  501    0  0.00000000000E+00 -0.00000000000E+00 -0.92431048198E+03  0.92431048198E+03  0.00000000000E+00 0. -1.
         36    2    1    2    0    0  0.14210854715E-13  0.00000000000E+00 -0.65354808424E+03  0.11950728797E+04  0.10005369006E+04 0.  0.
         25    2    3    3    0    0 -0.11603309056E+03 -0.79317068567E+02 -0.12770681789E+03  0.22706370454E+03  0.12447497385E+03 0.  0.
         35    2    3    3    0    0  0.11603309056E+03  0.79317068567E+02 -0.52584126635E+03  0.96800917517E+03  0.80048600884E+03 0.  0.
         22    1    5    5    0    0 -0.11578699585E+03 -0.27044868538E+03  0.13667040690E+01  0.29419549234E+03  0.00000000000E+00 0.  1.
         22    1    5    5    0    0  0.23182008641E+03  0.34976575395E+03 -0.52720797042E+03  0.67381368283E+03  0.00000000000E+00 0.  1.
          5    1    4    4  502    0 -0.20057919777E+02 -0.37969273524E+02  0.18743857197E+02  0.47089362496E+02  0.47000000000E+01 0. -1.
         -5    1    4    4    0  502 -0.95975170786E+02 -0.41347795043E+02 -0.14645067508E+03  0.17997434204E+03  0.47000000000E+01 0. -1.
<mgrwt>
<rscale>  0 0.10005369E+04</rscale>
<asrwt>0</asrwt>
<pdfrwt beam="1">  1        2 0.14220162E+00 0.10005369E+04</pdfrwt>
<pdfrwt beam="2">  1       -2 0.41655753E-01 0.10005369E+04</pdfrwt>
<totfact> 0.18651168E+02</totfact>
</mgrwt>
</event>
<event>
 9    1  0.4497870E-036  0.1000736E+04  0.7818608E-02  0.8680337E-01
          1   -1    0    0  501    0  0.00000000000E+00  0.00000000000E+00  0.60795351620E+03  0.60795351620E+03  0.00000000000E+00 0. -1.
         -1   -1    0    0    0  501 -0.00000000000E+00 -0.00000000000E+00 -0.41182110752E+03  0.41182110752E+03  0.00000000000E+00 0. -1.
         36    2    1    2    0    0  0.00000000000E+00  0.28421709430E-13  0.19613240868E+03  0.10197746237E+04  0.10007359099E+04 0.  0.
         25    2    3    3    0    0  0.11254991676E+03 -0.80436242040E+02  0.64609989161E+02  0.19743139094E+03  0.12516880855E+03 0.  0.
         35    2    3    3    0    0 -0.11254991676E+03  0.80436242040E+02  0.13152241952E+03  0.82234323278E+03  0.79988297448E+03 0.  0.
         22    1    5    5    0    0  0.86912368312E+02  0.41355875875E+03  0.49286206888E+02  0.42545709171E+03  0.00000000000E+00 0. -1.
         22    1    5    5    0    0 -0.19946228508E+03 -0.33312251671E+03  0.82236212629E+02  0.39688614107E+03  0.00000000000E+00 0. -1.
          5    1    4    4  502    0  0.13117469317E+03 -0.59908407925E+02  0.21373590818E+02  0.14585862283E+03  0.47000000000E+01 0. -1.
         -5    1    4    4    0  502 -0.18624776405E+02 -0.20527834115E+02  0.43236398343E+02  0.51572768117E+02  0.47000000000E+01 0. -1.
<mgrwt>
<rscale>  0 0.10007359E+04</rscale>
<asrwt>0</asrwt>
<pdfrwt beam="1">  1        1 0.93531310E-01 0.10007359E+04</pdfrwt>
<pdfrwt beam="2">  1       -1 0.63357093E-01 0.10007359E+04</pdfrwt>
<totfact> 0.98701279E+01</totfact>
</mgrwt>
</event>
<event>
 9    1  0.4497870E-036  0.9987606E+03  0.7818608E-02  0.8682219E-01
         -1   -1    0    0    0  501 -0.00000000000E+00  0.00000000000E+00  0.53801028034E+03  0.53801028034E+03  0.00000000000E+00 0.  1.
          1   -1    0    0  501    0  0.00000000000E+00 -0.00000000000E+00 -0.46352399858E+03  0.46352399858E+03  0.00000000000E+00 0.  1.
         36    2    1    2    0    0  0.00000000000E+00  0.14210854715E-13  0.74486281757E+02  0.10015342789E+04  0.99876058476E+03 0.  0.
         25    2    3    3    0    0 -0.89532653914E+02 -0.98896056329E+02  0.52570523682E+02  0.19039220710E+03  0.12525576430E+03 0.  0.
         35    2    3    3    0    0  0.89532653914E+02  0.98896056329E+02  0.21915758075E+02  0.81114207182E+03  0.79979662049E+03 0.  0.
         22    1    5    5    0    0 -0.79685794696E+02  0.35911852529E+03 -0.21008553226E+03  0.42361760108E+03  0.00000000000E+00 0. -1.
         22    1    5    5    0    0  0.16921844861E+03 -0.26022246896E+03  0.23200129033E+03  0.38752447073E+03  0.00000000000E+00 0. -1.
          5    1    4    4  502    0 -0.24632124656E+02  0.29298326916E+02  0.46072631188E+01  0.38838774422E+02  0.47000000000E+01 0. -1.
         -5    1    4    4    0  502 -0.64900529258E+02 -0.12819438325E+03  0.47963260563E+02  0.15155343268E+03  0.47000000000E+01 0. -1.
<mgrwt>
<rscale>  0 0.99876058E+03</rscale>
<asrwt>0</asrwt>
<pdfrwt beam="1">  1        1 0.71311384E-01 0.99876058E+03</pdfrwt>
<pdfrwt beam="2">  1       -1 0.82770813E-01 0.99876058E+03</pdfrwt>
<totfact> 0.84511259E+01</totfact>
</mgrwt>
</event>
<event>
 9    1  0.4497870E-036  0.9997540E+03  0.7818608E-02  0.8681272E-01
          2   -1    0    0  501    0  0.00000000000E+00  0.00000000000E+00  0.52375997637E+03  0.52375997637E+03  0.00000000000E+00 0. -1.
         -2   -1    0    0    0  501 -0.00000000000E+00 -0.00000000000E+00 -0.47708303068E+03  0.47708303068E+03  0.00000000000E+00 0. -1.
         36    2    1    2    0    0  0.00000000000E+00 -0.14210854715E-13  0.46676945691E+02  0.10008430071E+04  0.99975396349E+03 0.  0.
         25    2    3    3    0    0 -0.10825144764E+03 -0.38128005428E+02  0.89175892050E+02  0.19194728100E+03  0.12537662560E+03 0.  0.
         35    2    3    3    0    0  0.10825144764E+03  0.38128005428E+02 -0.42498946359E+02  0.80889572606E+03  0.79958365071E+03 0.  0.
         22    1    5    5    0    0  0.29531122636E+03  0.33700298824E+03 -0.76896458129E+02  0.45463479824E+03  0.00000000000E+00 0.  1.
         22    1    5    5    0    0 -0.18705977873E+03 -0.29887498281E+03  0.34397511771E+02  0.35426092782E+03  0.00000000000E+00 0.  1.
          5    1    4    4  502    0 -0.57763523259E+01  0.39897488561E+02  0.27803190600E+02  0.49196374330E+02  0.47000000000E+01 0. -1.
         -5    1    4    4    0  502 -0.10247509531E+03 -0.78025493989E+02  0.61372701449E+02  0.14275090667E+03  0.47000000000E+01 0. -1.
<mgrwt>
<rscale>  0 0.99975396E+03</rscale>
<asrwt>0</asrwt>
<pdfrwt beam="1">  1        2 0.80578458E-01 0.99975396E+03</pdfrwt>
<pdfrwt beam="2">  1       -2 0.73397389E-01 0.99975396E+03</pdfrwt>
<totfact> 0.11808344E+02</totfact>
</mgrwt>
</event>
<event>
 9    1  0.4497870E-036  0.1000741E+04  0.7818608E-02  0.8680332E-01
          2   -1    0    0  501    0  0.00000000000E+00  0.00000000000E+00  0.13501437306E+04  0.13501437306E+04  0.00000000000E+00 0.  1.
         -2   -1    0    0    0  501 -0.00000000000E+00 -0.00000000000E+00 -0.18544007866E+03  0.18544007866E+03  0.00000000000E+00 0.  1.
         36    2    1    2    0    0 -0.42632564146E-13 -0.71054273576E-14  0.11647036519E+04  0.15355838092E+04  0.10007412445E+04 0.  0.
         25    2    3    3    0    0  0.12506310925E+03 -0.51229171417E+02  0.16824195488E+03  0.24951784430E+03  0.12525410150E+03 0.  0.
         35    2    3    3    0    0 -0.12506310925E+03  0.51229171417E+02  0.99646169703E+03  0.12860659649E+04  0.80172597764E+03 0.  0.
         22    1    5    5    0    0 -0.31505460715E+03  0.96491102572E+02  0.66918697818E+02  0.33622618946E+03  0.00000000000E+00 0.  1.
         22    1    5    5    0    0  0.18999149790E+03 -0.45261931155E+02  0.92954299921E+03  0.94983977547E+03  0.00000000000E+00 0.  1.
          5    1    4    4  502    0 -0.91808370854E+01 -0.26996044707E+02  0.84681306466E+02  0.89476744823E+02  0.47000000000E+01 0.  1.
         -5    1    4    4    0  502  0.13424394634E+03 -0.24233126710E+02  0.83560648418E+02  0.16004109948E+03  0.47000000000E+01 0.  1.
<mgrwt>
<rscale>  0 0.10007412E+04</rscale>
<asrwt>0</asrwt>
<pdfrwt beam="1">  1        2 0.20771441E+00 0.10007412E+04</pdfrwt>
<pdfrwt beam="2">  1       -2 0.28529244E-01 0.10007412E+04</pdfrwt>
<totfact> 0.20885767E+02</totfact>
</mgrwt>
</event>
<event>
 9    1  0.4497870E-036  0.9997338E+03  0.7818608E-02  0.8681292E-01
          1   -1    0    0  501    0  0.00000000000E+00  0.00000000000E+00  0.53952975324E+03  0.53952975324E+03  0.00000000000E+00 0. -1.
         -1   -1    0    0    0  501 -0.00000000000E+00 -0.00000000000E+00 -0.46311978300E+03  0.46311978300E+03  0.00000000000E+00 0. -1.
         36    2    1    2    0    0  0.00000000000E+00 -0.14210854715E-13  0.76409970237E+02  0.10026495362E+04  0.99973376905E+03 0.  0.
         25    2    3    3    0    0  0.61234488902E+02  0.12549670073E+03  0.53992246619E+02  0.18946786400E+03  0.11611987025E+03 0.  0.
         35    2    3    3    0    0 -0.61234488902E+02 -0.12549670073E+03  0.22417723617E+02  0.81318167224E+03  0.80078885682E+03 0.  0.
         22    1    5    5    0    0  0.18768006943E+03 -0.18798924212E+03  0.32283123831E+03  0.41807149155E+03  0.00000000000E+00 0. -1.
         22    1    5    5    0    0 -0.24891455833E+03  0.62492541386E+02 -0.30041351470E+03  0.39511018070E+03  0.00000000000E+00 0. -1.
          5    1    4    4  502    0 -0.21919451241E+02  0.82569372560E+02  0.40992828983E+02  0.94871838054E+02  0.47000000000E+01 0.  1.
         -5    1    4    4    0  502  0.83153940143E+02  0.42927328171E+02  0.12999417636E+02  0.94596025943E+02  0.47000000000E+01 0.  1.
<mgrwt>
<rscale>  0 0.99973377E+03</rscale>
<asrwt>0</asrwt>
<pdfrwt beam="1">  1        1 0.83004578E-01 0.99973377E+03</pdfrwt>
<pdfrwt beam="2">  1       -1 0.71249197E-01 0.99973377E+03</pdfrwt>
<totfact> 0.93075315E+01</totfact>
</mgrwt>
</event>
<event>
 9    1  0.4497870E-036  0.9995705E+03  0.7818608E-02  0.8681447E-01
          2   -1    0    0  501    0  0.00000000000E+00  0.00000000000E+00  0.14854861731E+04  0.14854861731E+04  0.00000000000E+00 0. -1.
         -2   -1    0    0    0  501 -0.00000000000E+00 -0.00000000000E+00 -0.16815055090E+03  0.16815055090E+03  0.00000000000E+00 0. -1.
         36    2    1    2    0    0  0.00000000000E+00  0.14210854715E-13  0.13173356222E+04  0.16536367240E+04  0.99957054451E+03 0.  0.
         25    2    3    3    0    0 -0.10447774640E+03  0.70391066909E+02  0.34836529551E+03  0.39086547242E+03  0.12468735549E+03 0.  0.
         35    2    3    3    0    0  0.10447774640E+03 -0.70391066909E+02  0.96897032673E+03  0.12627712516E+04  0.79988576562E+03 0.  0.
         22    1    5    5    0    0 -0.25224630191E+03  0.22013336041E+00  0.83980134840E+03  0.87686632394E+03  0.00000000000E+00 0. -1.
         22    1    5    5    0    0  0.35672404831E+03 -0.70611200269E+02  0.12916897832E+03  0.38590492768E+03  0.00000000000E+00 0. -1.
          5    1    4    4  502    0 -0.19686617200E+02 -0.35884688902E+02  0.78975861399E+02  0.89076093752E+02  0.47000000000E+01 0.  1.
         -5    1    4    4    0  502 -0.84791129199E+02  0.10627575581E+03  0.26938943411E+03  0.30178937867E+03  0.47000000000E+01 0.  1.
<mgrwt>
<rscale>  0 0.99957054E+03</rscale>
<asrwt>0</asrwt>
<pdfrwt beam="1">  1        2 0.22853633E+00 0.99957054E+03</pdfrwt>
<pdfrwt beam="2">  1       -2 0.25869317E-01 0.99957054E+03</pdfrwt>
<totfact> 0.20843154E+02</totfact>
</mgrwt>
</event>
<event>
 9    1  0.4497870E-036  0.1000038E+04  0.7818608E-02  0.8681002E-01
         -1   -1    0    0    0  501 -0.00000000000E+00  0.00000000000E+00  0.30925956180E+03  0.30925956180E+03  0.00000000000E+00 0. -1.
          1   -1    0    0  501    0  0.00000000000E+00 -0.00000000000E+00 -0.80844391752E+03  0.80844391752E+03  0.00000000000E+00 0. -1.
         36    2    1    2    0    0 -0.42632564146E-13  0.00000000000E+00 -0.49918435572E+03  0.11177034793E+04  0.10000380226E+04 0.  0.
         25    2    3    3    0    0 -0.37661796332E+02  0.13186498251E+03 -0.59913546694E+02  0.19479004356E+03  0.12468658099E+03 0.  0.
         35    2    3    3    0    0  0.37661796332E+02 -0.13186498251E+03 -0.43927080903E+03  0.92291343576E+03  0.80000223858E+03 0.  0.
         22    1    5    5    0    0 -0.37462944416E+03 -0.33499867134E+02 -0.12902204648E+03  0.39763821498E+03  0.00000000000E+00 0. -1.
         22    1    5    5    0    0  0.41229124049E+03 -0.98365115374E+02 -0.31024876254E+03  0.52527522078E+03  0.00000000000E+00 0. -1.
          5    1    4    4  502    0 -0.76627401893E+02  0.96096095426E+02 -0.12552500392E+02  0.12363605276E+03  0.47000000000E+01 0. -1.
         -5    1    4    4    0  502  0.38965605561E+02  0.35768887081E+02 -0.47361046302E+02  0.71153990799E+02  0.47000000000E+01 0. -1.
<mgrwt>
<rscale>  0 0.10000380E+04</rscale>
<asrwt>0</asrwt>
<pdfrwt beam="1">  1        1 0.12437599E+00 0.10000380E+04</pdfrwt>
<pdfrwt beam="2">  1       -1 0.47578395E-01 0.10000380E+04</pdfrwt>
<totfact> 0.10910006E+02</totfact>
</mgrwt>
</event>
<event>
 9    1  0.4497870E-036  0.9976578E+03  0.7818608E-02  0.8683272E-01
          1   -1    0    0  501    0  0.00000000000E+00  0.00000000000E+00  0.34294649145E+03  0.34294649145E+03  0.00000000000E+00 0.  1.
         -1   -1    0    0    0  501 -0.00000000000E+00 -0.00000000000E+00 -0.72556594419E+03  0.72556594419E+03  0.00000000000E+00 0.  1.
         36    2    1    2    0    0  0.00000000000E+00  0.00000000000E+00 -0.38261945275E+03  0.10685124356E+04  0.99765784691E+03 0.  0.
         25    2    3    3    0    0 -0.26677671182E+01  0.11945988931E+03 -0.11710790372E+03  0.20877294311E+03  0.12487633293E+03 0.  0.
         35    2    3    3    0    0  0.26677671182E+01 -0.11945988931E+03 -0.26551154903E+03  0.85973949253E+03  0.80893623371E+03 0.  0.
         22    1    5    5    0    0  0.67367318224E+02  0.25568013950E+03  0.14362238638E+03  0.30089546220E+03  0.00000000000E+00 0. -1.
         22    1    5    5    0    0 -0.64699551106E+02 -0.37514002881E+03 -0.40913393541E+03  0.55884403033E+03  0.00000000000E+00 0. -1.
          5    1    4    4  502    0  0.55566652679E+02  0.91737681551E+02 -0.82733108724E+02  0.13553712549E+03  0.47000000000E+01 0. -1.
         -5    1    4    4    0  502 -0.58234419797E+02  0.27722207759E+02 -0.34374794992E+02  0.73235817623E+02  0.47000000000E+01 0. -1.
<mgrwt>
<rscale>  0 0.99765785E+03</rscale>
<asrwt>0</asrwt>
<pdfrwt beam="1">  1        1 0.52761000E-01 0.99765785E+03</pdfrwt>
<pdfrwt beam="2">  1       -1 0.11162553E+00 0.99765785E+03</pdfrwt>
<totfact> 0.65243501E+01</totfact>
</mgrwt>
</event>
<event>
 9    1  0.4497870E-036  0.1000333E+04  0.7818608E-02  0.8680721E-01
          3   -1    0    0  501    0  0.00000000000E+00  0.00000000000E+00  0.26037722962E+03  0.26037722962E+03  0.00000000000E+00 0.  1.
         -3   -1    0    0    0  501 -0.00000000000E+00 -0.00000000000E+00 -0.96078444260E+03  0.96078444260E+03  0.00000000000E+00 0.  1.
         36    2    1    2    0    0 -0.71054273576E-14  0.28421709430E-13 -0.70040721298E+03  0.12211616722E+04  0.10003327275E+04 0.  0.
         25    2    3    3    0    0  0.41112363349E+01  0.13781606459E+03 -0.97434032273E+02  0.21018675896E+03  0.12519949310E+03 0.  0.
         35    2    3    3    0    0 -0.41112363349E+01 -0.13781606459E+03 -0.60297318071E+03  0.10109749133E+04  0.79967709024E+03 0.  0.
         22    1    5    5    0    0  0.23943469836E+03  0.14279316916E+03 -0.57420640139E+03  0.63830388948E+03  0.00000000000E+00 0. -1.
         22    1    5    5    0    0 -0.24354593469E+03 -0.28060923375E+03 -0.28766779325E+02  0.37267102378E+03  0.00000000000E+00 0. -1.
          5    1    4    4  502    0  0.50221903957E+02  0.29500449957E+02 -0.66200379119E+02  0.88301168623E+02  0.47000000000E+01 0. -1.
         -5    1    4    4    0  502 -0.46110667622E+02  0.10831561463E+03 -0.31233653155E+02  0.12188559033E+03  0.47000000000E+01 0. -1.
<mgrwt>
<rscale>  0 0.10003327E+04</rscale>
<asrwt>0</asrwt>
<pdfrwt beam="1">  1        3 0.40058036E-01 0.10003327E+04</pdfrwt>
<pdfrwt beam="2">  1       -3 0.14781299E+00 0.10003327E+04</pdfrwt>
<totfact> 0.67044074E+00</totfact>
</mgrwt>
</event>
<event>
 9    1  0.4497870E-036  0.9985690E+03  0.7818608E-02  0.8682402E-01
          2   -1    0    0  501    0  0.00000000000E+00  0.00000000000E+00  0.35207871173E+04  0.35207871173E+04  0.00000000000E+00 0.  1.
         -2   -1    0    0    0  501 -0.00000000000E+00 -0.00000000000E+00 -0.70803766460E+02  0.70803766460E+02  0.00000000000E+00 0.  1.
         36    2    1    2    0    0  0.56843418861E-13  0.14210854715E-13  0.34499833508E+04  0.35915908837E+04  0.99856895366E+03 0.  0.
         25    2    3    3    0    0  0.13114740840E+03 -0.37926491019E+02  0.53652958586E+03  0.56730666682E+03  0.12383374443E+03 0.  0.
         35    2    3    3    0    0 -0.13114740840E+03  0.37926491019E+02  0.29134537649E+04  0.30242842169E+04  0.79965250123E+03 0.  0.
         22    1    5    5    0    0 -0.26749327774E+03  0.28349841755E+03  0.24614228780E+04  0.24920928134E+04  0.00000000000E+00 0. -1.
         22    1    5    5    0    0  0.13634586934E+03 -0.24557192653E+03  0.45203088694E+03  0.53219140348E+03  0.00000000000E+00 0. -1.
          5    1    4    4  502    0 -0.75454295421E+01 -0.33782867202E+02  0.20382555827E+03  0.20679739802E+03  0.47000000000E+01 0. -1.
         -5    1    4    4    0  502  0.13869283794E+03 -0.41436238175E+01  0.33270402759E+03  0.36050926880E+03  0.47000000000E+01 0. -1.
<mgrwt>
<rscale>  0 0.99856895E+03</rscale>
<asrwt>0</asrwt>
<pdfrwt beam="1">  1        2 0.54165942E+00 0.99856895E+03</pdfrwt>
<pdfrwt beam="2">  1       -2 0.10892890E-01 0.99856895E+03</pdfrwt>
<totfact> 0.48421276E+01</totfact>
</mgrwt>
</event>
<event>
 9    1  0.4497870E-036  0.1000921E+04  0.7818608E-02  0.8680162E-01
          1   -1    0    0  501    0  0.00000000000E+00  0.00000000000E+00  0.17450119043E+04  0.17450119043E+04  0.00000000000E+00 0. -1.
         -1   -1    0    0    0  501 -0.00000000000E+00 -0.00000000000E+00 -0.14352942468E+03  0.14352942468E+03  0.00000000000E+00 0. -1.
         36    2    1    2    0    0 -0.35527136788E-14 -0.14210854715E-13  0.16014824796E+04  0.18885413290E+04  0.10009206856E+04 0.  0.
         25    2    3    3    0    0  0.28366954156E+02  0.11234698024E+03  0.45269865689E+03  0.48363606121E+03  0.12466450052E+03 0.  0.
         35    2    3    3    0    0 -0.28366954156E+02 -0.11234698024E+03  0.11487838227E+04  0.14049052678E+04  0.80039241128E+03 0.  0.
         22    1    5    5    0    0  0.34999895482E+03 -0.20580485538E+03  0.46047088629E+03  0.61391232598E+03  0.00000000000E+00 0. -1.
         22    1    5    5    0    0 -0.37836590898E+03  0.93457875139E+02  0.68831293646E+03  0.79099294182E+03  0.00000000000E+00 0. -1.
          5    1    4    4  502    0  0.17707865604E+02 -0.10048415388E+02  0.82001313629E+01  0.22447077993E+02  0.47000000000E+01 0. -1.
         -5    1    4    4    0  502  0.10659088553E+02  0.12239539563E+03  0.44449852553E+03  0.46118898322E+03  0.47000000000E+01 0. -1.
<mgrwt>
<rscale>  0 0.10009207E+04</rscale>
<asrwt>0</asrwt>
<pdfrwt beam="1">  1        1 0.26846335E+00 0.10009207E+04</pdfrwt>
<pdfrwt beam="2">  1       -1 0.22081451E-01 0.10009207E+04</pdfrwt>
<totfact> 0.81599315E+01</totfact>
</mgrwt>
</event>
<event>
 9    1  0.4497870E-036  0.9988758E+03  0.7818608E-02  0.8682109E-01
         -2   -1    0    0    0  501 -0.00000000000E+00  0.00000000000E+00  0.11117730307E+03  0.11117730307E+03  0.00000000000E+00 0.  1.
          2   -1    0    0  501    0  0.00000000000E+00 -0.00000000000E+00 -0.22436071736E+04  0.22436071736E+04  0.00000000000E+00 0.  1.
         36    2    1    2    0    0 -0.35527136788E-14 -0.14210854715E-13 -0.21324298706E+04  0.23547844767E+04  0.99887575748E+03 0.  0.
         25    2    3    3    0    0  0.26819601537E+02 -0.10741859092E+03 -0.59661483113E+03  0.61963323024E+03  0.12545133957E+03 0.  0.
         35    2    3    3    0    0 -0.26819601537E+02  0.10741859092E+03 -0.15358150394E+04  0.17351512465E+04  0.79985246643E+03 0.  0.
         22    1    5    5    0    0  0.75232830425E+02  0.23136630168E+03 -0.15545815170E+04  0.15735037456E+04  0.00000000000E+00 0.  1.
         22    1    5    5    0    0 -0.10205243196E+03 -0.12394771077E+03  0.18766477539E+02  0.16164750092E+03  0.00000000000E+00 0.  1.
          5    1    4    4  502    0  0.41851562234E+02  0.11093675512E+02 -0.10465809377E+03  0.11335797056E+03  0.47000000000E+01 0. -1.
         -5    1    4    4    0  502 -0.15031960697E+02 -0.11851226643E+03 -0.49195673736E+03  0.50627525969E+03  0.47000000000E+01 0. -1.
<mgrwt>
<rscale>  0 0.99887576E+03</rscale>
<asrwt>0</asrwt>
<pdfrwt beam="1">  1        2 0.34517027E+00 0.99887576E+03</pdfrwt>
<pdfrwt beam="2">  1       -2 0.17104204E-01 0.99887576E+03</pdfrwt>
<totfact> 0.15864202E+02</totfact>
</mgrwt>
</event>
<event>
 9    1  0.4497870E-036  0.1000298E+04  0.7818608E-02  0.8680754E-01
          2   -1    0    0  501    0  0.00000000000E+00  0.00000000000E+00  0.16180148423E+04  0.16180148423E+04  0.00000000000E+00 0.  1.
         -2   -1    0    0    0  501 -0.00000000000E+00 -0.00000000000E+00 -0.15460235625E+03  0.15460235625E+03  0.00000000000E+00 0.  1.
         36    2    1    2    0    0  0.71054273576E-14  0.00000000000E+00  0.14634124861E+04  0.17726171986E+04  0.10002977698E+04 0.  0.
         25    2    3    3    0    0 -0.26765898038E+02  0.71964185431E+02  0.47497143622E+03  0.49715927317E+03  0.12519672674E+03 0.  0.
         35    2    3    3    0    0  0.26765898038E+02 -0.71964185431E+02  0.98844104984E+03  0.12754579254E+04  0.80242255274E+03 0.  0.
         22    1    5    5    0    0 -0.94900570897E+02  0.11816778796E+03 -0.88236825234E+02  0.17537240888E+03  0.00000000000E+00 0.  1.
         22    1    5    5    0    0  0.12166646893E+03 -0.19013197339E+03  0.10766778751E+04  0.11000855165E+04  0.00000000000E+00 0.  1.
          5    1    4    4  502    0 -0.58371540151E+02  0.76264227451E+02  0.21917778437E+03  0.23934172275E+03  0.47000000000E+01 0. -1.
         -5    1    4    4    0  502  0.31605642113E+02 -0.43000420201E+01  0.25579365186E+03  0.25781755042E+03  0.47000000000E+01 0. -1.
<mgrwt>
<rscale>  0 0.10002978E+04</rscale>
<asrwt>0</asrwt>
<pdfrwt beam="1">  1        2 0.24892535E+00 0.10002978E+04</pdfrwt>
<pdfrwt beam="2">  1       -2 0.23784979E-01 0.10002978E+04</pdfrwt>
<totfact> 0.20359361E+02</totfact>
</mgrwt>
</event>
<event>
 9    1  0.4497870E-036  0.9992544E+03  0.7818608E-02  0.8681748E-01
         -3   -1    0    0    0  501 -0.00000000000E+00  0.00000000000E+00  0.30592523092E+03  0.30592523092E+03  0.00000000000E+00 0. -1.
          3   -1    0    0  501    0  0.00000000000E+00 -0.00000000000E+00 -0.81597494489E+03  0.81597494489E+03  0.00000000000E+00 0. -1.
         36    2    1    2    0    0  0.00000000000E+00 -0.35527136788E-13 -0.51004971397E+03  0.11219001758E+04  0.99925436890E+03 0.  0.
         25    2    3    3    0    0 -0.12242135088E+03 -0.32170217374E+02 -0.16028618368E+03  0.23964714591E+03  0.12536819305E+03 0.  0.
         35    2    3    3    0    0  0.12242135088E+03  0.32170217374E+02 -0.34976353029E+03  0.88225302990E+03  0.80000873221E+03 0.  0.
         22    1    5    5    0    0  0.25773403459E+03  0.35441361427E+03 -0.29555923317E+03  0.52857459538E+03  0.00000000000E+00 0.  1.
         22    1    5    5    0    0 -0.13531268372E+03 -0.32224339690E+03 -0.54204297121E+02  0.35367843452E+03  0.00000000000E+00 0.  1.
          5    1    4    4  502    0 -0.13407987139E+03 -0.51311020122E+02 -0.16221062523E+03  0.21666704788E+03  0.47000000000E+01 0.  1.
         -5    1    4    4    0  502  0.11658520512E+02  0.19140802748E+02  0.19244415563E+01  0.22980098034E+02  0.47000000000E+01 0.  1.
<mgrwt>
<rscale>  0 0.99925437E+03</rscale>
<asrwt>0</asrwt>
<pdfrwt beam="1">  1        3 0.12553460E+00 0.99925437E+03</pdfrwt>
<pdfrwt beam="2">  1       -3 0.47065422E-01 0.99925437E+03</pdfrwt>
<totfact> 0.95440664E+00</totfact>
</mgrwt>
</event>
<event>
 9    1  0.4497870E-036  0.1000066E+04  0.7818608E-02  0.8680975E-01
         -1   -1    0    0    0  501 -0.00000000000E+00  0.00000000000E+00  0.10403424340E+03  0.10403424340E+03  0.00000000000E+00 0.  1.
          1   -1    0    0  501    0  0.00000000000E+00 -0.00000000000E+00 -0.24033701288E+04  0.24033701288E+04  0.00000000000E+00 0.  1.
         36    2    1    2    0    0  0.28421709430E-13  0.12434497876E-13 -0.22993358855E+04  0.25074043722E+04  0.10000655838E+04 0.  0.
         25    2    3    3    0    0 -0.11027801272E+03 -0.13106795345E+02 -0.21127912718E+03  0.26866633779E+03  0.12332762589E+03 0.  0.
         35    2    3    3    0    0  0.11027801272E+03  0.13106795345E+02 -0.20880567583E+04  0.22387380345E+04  0.79977117539E+03 0.  0.
         22    1    5    5    0    0  0.32183060698E+03  0.16800544586E+03 -0.44225041085E+03  0.57217671687E+03  0.00000000000E+00 0.  1.
         22    1    5    5    0    0 -0.21155259426E+03 -0.15489865052E+03 -0.16458063474E+04  0.16665613176E+04  0.00000000000E+00 0.  1.
          5    1    4    4  502    0 -0.13524188410E+03  0.38624653324E+01 -0.17441221885E+03  0.22078722322E+03  0.47000000000E+01 0.  1.
         -5    1    4    4    0  502  0.24963871381E+02 -0.16969260677E+02 -0.36866908329E+02  0.47879114570E+02  0.47000000000E+01 0.  1.
<mgrwt>
<rscale>  0 0.10000656E+04</rscale>
<asrwt>0</asrwt>
<pdfrwt beam="1">  1        1 0.36974922E+00 0.10000656E+04</pdfrwt>
<pdfrwt beam="2">  1       -1 0.16005270E-01 0.10000656E+04</pdfrwt>
<totfact> 0.47792245E+01</totfact>
</mgrwt>
</event>
<event>
 9    1  0.4497870E-036  0.9966608E+03  0.7818608E-02  0.8684224E-01
         -2   -1    0    0    0  501 -0.00000000000E+00  0.00000000000E+00  0.38994544194E+03  0.38994544194E+03  0.00000000000E+00 0.  1.
          2   -1    0    0  501    0  0.00000000000E+00 -0.00000000000E+00 -0.63684082640E+03  0.63684082640E+03  0.00000000000E+00 0.  1.
         36    2    1    2    0    0 -0.71054273576E-14  0.00000000000E+00 -0.24689538446E+03  0.10267862683E+04  0.99666077979E+03 0.  0.
         25    2    3    3    0    0 -0.62156552190E+02 -0.11549241958E+03 -0.52849544147E+01  0.18091360824E+03  0.12449846161E+03 0.  0.
         35    2    3    3    0    0  0.62156552190E+02  0.11549241958E+03 -0.24161043004E+03  0.84587266009E+03  0.79995188681E+03 0.  0.
         22    1    5    5    0    0 -0.25053119727E+03 -0.15302098827E+03  0.10043528491E+03  0.31027173592E+03  0.00000000000E+00 0. -1.
         22    1    5    5    0    0  0.31268774946E+03  0.26851340785E+03 -0.34204571495E+03  0.53560092417E+03  0.00000000000E+00 0. -1.
          5    1    4    4  502    0  0.28115223485E+02  0.62532969768E+01 -0.18034623957E+01  0.29238878079E+02  0.47000000000E+01 0. -1.
         -5    1    4    4    0  502 -0.90271775674E+02 -0.12174571656E+03 -0.34814920190E+01  0.15167473017E+03  0.47000000000E+01 0. -1.
<mgrwt>
<rscale>  0 0.99666078E+03</rscale>
<asrwt>0</asrwt>
<pdfrwt beam="1">  1        2 0.97975510E-01 0.99666078E+03</pdfrwt>
<pdfrwt beam="2">  1       -2 0.59991607E-01 0.99666078E+03</pdfrwt>
<totfact> 0.14453039E+02</totfact>
</mgrwt>
</event>
<event>
 9    1  0.4497870E-036  0.9999249E+03  0.7818608E-02  0.8681109E-01
         -1   -1    0    0    0  501 -0.00000000000E+00  0.00000000000E+00  0.19387622608E+03  0.19387622608E+03  0.00000000000E+00 0. -1.
          1   -1    0    0  501    0  0.00000000000E+00 -0.00000000000E+00 -0.12892888104E+04  0.12892888104E+04  0.00000000000E+00 0. -1.
         36    2    1    2    0    0 -0.14210854715E-13 -0.71054273576E-14 -0.10954125843E+04  0.14831650364E+04  0.99992489495E+03 0.  0.
         25    2    3    3    0    0  0.12469717089E+03 -0.63783162418E+02 -0.20846380106E+03  0.28044087141E+03  0.12478882069E+03 0.  0.
         35    2    3    3    0    0 -0.12469717089E+03  0.63783162418E+02 -0.88694878322E+03  0.12027241650E+04  0.80015598283E+03 0.  0.
         22    1    5    5    0    0  0.31335484157E+03 -0.11749639208E+03 -0.31211192286E+03  0.45761393256E+03  0.00000000000E+00 0. -1.
         22    1    5    5    0    0 -0.43805201246E+03  0.18127955450E+03 -0.57483686036E+03  0.74511023247E+03  0.00000000000E+00 0. -1.
          5    1    4    4  502    0  0.63295285459E+02 -0.45905465738E+02 -0.19256744286E+02  0.80662984984E+02  0.47000000000E+01 0. -1.
         -5    1    4    4    0  502  0.61401885431E+02 -0.17877696680E+02 -0.18920705677E+03  0.19977788643E+03  0.47000000000E+01 0. -1.
<mgrwt>
<rscale>  0 0.99992489E+03</rscale>
<asrwt>0</asrwt>
<pdfrwt beam="1">  1        1 0.19835213E+00 0.99992489E+03</pdfrwt>
<pdfrwt beam="2">  1       -1 0.29827111E-01 0.99992489E+03</pdfrwt>
<totfact> 0.10395266E+02</totfact>
</mgrwt>
</event>
<event>
 9    1  0.4497870E-036  0.9994718E+03  0.7818608E-02  0.8681541E-01
         -1   -1    0    0    0  501 -0.00000000000E+00  0.00000000000E+00  0.34281902131E+03  0.34281902131E+03  0.00000000000E+00 0.  1.
          1   -1    0    0  501    0  0.00000000000E+00 -0.00000000000E+00 -0.72847760269E+03  0.72847760269E+03  0.00000000000E+00 0.  1.
         36    2    1    2    0    0  0.00000000000E+00  0.14210854715E-13 -0.38565858138E+03  0.10712966240E+04  0.99947181811E+03 0.  0.
         25    2    3    3    0    0  0.68087886814E+02 -0.11233299549E+03 -0.19019199908E+02  0.18176546938E+03  0.12418652780E+03 0.  0.
         35    2    3    3    0    0 -0.68087886814E+02  0.11233299549E+03 -0.36663938148E+03  0.88953115462E+03  0.79974156875E+03 0.  0.
         22    1    5    5    0    0 -0.37070993673E+03 -0.15959068107E+03 -0.18035836650E+03  0.44206807512E+03  0.00000000000E+00 0. -1.
         22    1    5    5    0    0  0.30262204992E+03  0.27192367657E+03 -0.18628101498E+03  0.44746307950E+03  0.00000000000E+00 0. -1.
          5    1    4    4  502    0  0.72308789232E+02 -0.22460965284E+02  0.27094560314E+02  0.80555950496E+02  0.47000000000E+01 0.  1.
         -5    1    4    4    0  502 -0.42209024174E+01 -0.89872030210E+02 -0.46113760222E+02  0.10120951889E+03  0.47000000000E+01 0.  1.
<mgrwt>
<rscale>  0 0.99947182E+03</rscale>
<asrwt>0</asrwt>
<pdfrwt beam="1">  1        1 0.11207348E+00 0.99947182E+03</pdfrwt>
<pdfrwt beam="2">  1       -1 0.52741388E-01 0.99947182E+03</pdfrwt>
<totfact> 0.10649515E+02</totfact>
</mgrwt>
</event>
<event>
 9    1  0.4497870E-036  0.1003619E+04  0.7818608E-02  0.8677599E-01
         -2   -1    0    0    0  501 -0.00000000000E+00  0.00000000000E+00  0.48592503171E+03  0.48592503171E+03  0.00000000000E+00 0.  1.
          2   -1    0    0  501    0  0.00000000000E+00 -0.00000000000E+00 -0.51821369104E+03  0.51821369104E+03  0.00000000000E+00 0.  1.
         36    2    1    2    0    0 -0.14210854715E-13  0.21316282073E-13 -0.32288659333E+02  0.10041387228E+04  0.10036194583E+04 0.  0.
         25    2    3    3    0    0  0.12549673882E+03  0.49685670963E+02  0.47593817645E+02  0.19029064448E+03  0.12540837510E+03 0.  0.
         35    2    3    3    0    0 -0.12549673882E+03 -0.49685670963E+02 -0.79882476978E+02  0.81384807827E+03  0.79859212808E+03 0.  0.
         22    1    5    5    0    0  0.82024756995E+02  0.30892320905E+03  0.13517301645E+03  0.34703509077E+03  0.00000000000E+00 0.  1.
         22    1    5    5    0    0 -0.20752149582E+03 -0.35860888001E+03 -0.21505549342E+03  0.46681298751E+03  0.00000000000E+00 0.  1.
          5    1    4    4  502    0  0.91255023375E+02  0.46790990332E+02 -0.28604418138E+02  0.10657006524E+03  0.47000000000E+01 0. -1.
         -5    1    4    4    0  502  0.34241715449E+02  0.28946806310E+01  0.76198235783E+02  0.83720579246E+02  0.47000000000E+01 0. -1.
<mgrwt>
<rscale>  0 0.10036195E+04</rscale>
<asrwt>0</asrwt>
<pdfrwt beam="1">  1        2 0.79725183E-01 0.10036195E+04</pdfrwt>
<pdfrwt beam="2">  1       -2 0.74757697E-01 0.10036195E+04</pdfrwt>
<totfact> 0.11475676E+02</totfact>
</mgrwt>
</event>
<event>
 9    1  0.4497870E-036  0.1000184E+04  0.7818608E-02  0.8680863E-01
          1   -1    0    0  501    0  0.00000000000E+00  0.00000000000E+00  0.26613485793E+04  0.26613485793E+04  0.00000000000E+00 0.  1.
         -1   -1    0    0    0  501 -0.00000000000E+00 -0.00000000000E+00 -0.93971935839E+02  0.93971935839E+02  0.00000000000E+00 0.  1.
         36    2    1    2    0    0  0.35527136788E-14  0.00000000000E+00  0.25673766434E+04  0.27553205151E+04  0.10001841389E+04 0.  0.
         25    2    3    3    0    0 -0.99677427964E+01  0.56153904353E+01  0.86048119205E+03  0.86949771050E+03  0.12436839708E+03 0.  0.
         35    2    3    3    0    0  0.99677427964E+01 -0.56153904353E+01  0.17068954514E+04  0.18858228046E+04  0.80168864276E+03 0.  0.
         22    1    5    5    0    0  0.10976505895E+03  0.96181988126E+02  0.17344912822E+04  0.17406203925E+04  0.00000000000E+00 0. -1.
         22    1    5    5    0    0 -0.99797316152E+02 -0.10179737856E+03 -0.27595830788E+02  0.14520241207E+03  0.00000000000E+00 0. -1.
          5    1    4    4  502    0 -0.98300268868E+00 -0.33803559661E+02  0.76425565606E+03  0.76501793754E+03  0.47000000000E+01 0. -1.
         -5    1    4    4    0  502 -0.89847401077E+01  0.39418950097E+02  0.96225535990E+02  0.10447977296E+03  0.47000000000E+01 0. -1.
<mgrwt>
<rscale>  0 0.10001841E+04</rscale>
<asrwt>0</asrwt>
<pdfrwt beam="1">  1        1 0.40943818E+00 0.10001841E+04</pdfrwt>
<pdfrwt beam="2">  1       -1 0.14457223E-01 0.10001841E+04</pdfrwt>
<totfact> 0.37114759E+01</totfact>
</mgrwt>
</event>
<event>
 9    1  0.4497870E-036  0.9990465E+03  0.7818608E-02  0.8681946E-01
          2   -1    0    0  501    0  0.00000000000E+00  0.00000000000E+00  0.12793795390E+04  0.12793795390E+04  0.00000000000E+00 0.  1.
         -2   -1    0    0    0  501 -0.00000000000E+00 -0.00000000000E+00 -0.19503475948E+03  0.19503475948E+03  0.00000000000E+00 0.  1.
         36    2    1    2    0    0  0.56843418861E-13 -0.35527136788E-13  0.10843447796E+04  0.14744142985E+04  0.99904650679E+03 0.  0.
         25    2    3    3    0    0  0.13275811069E+03 -0.35514898418E+02  0.17223634194E+03  0.25332206593E+03  0.12498274937E+03 0.  0.
         35    2    3    3    0    0 -0.13275811069E+03  0.35514898418E+02  0.91210843761E+03  0.12210922326E+04  0.80014899523E+03 0.  0.
         22    1    5    5    0    0  0.15690321314E+03  0.30942604890E+03  0.18825800914E+03  0.39472037702E+03  0.00000000000E+00 0.  1.
         22    1    5    5    0    0 -0.28966132382E+03 -0.27391115048E+03  0.72385042847E+03  0.82637185557E+03  0.00000000000E+00 0.  1.
          5    1    4    4  502    0  0.69064980227E+02  0.12706821358E+02  0.82657891817E+01  0.70864998932E+02  0.47000000000E+01 0.  1.
         -5    1    4    4    0  502  0.63693130459E+02 -0.48221719776E+02  0.16397055276E+03  0.18245706700E+03  0.47000000000E+01 0.  1.
<mgrwt>
<rscale>  0 0.99904651E+03</rscale>
<asrwt>0</asrwt>
<pdfrwt beam="1">  1        2 0.19682762E+00 0.99904651E+03</pdfrwt>
<pdfrwt beam="2">  1       -2 0.30005348E-01 0.99904651E+03</pdfrwt>
<totfact> 0.20942106E+02</totfact>
</mgrwt>
</event>
<event>
 9    1  0.4497870E-036  0.9989980E+03  0.7818608E-02  0.8681993E-01
         -2   -1    0    0    0  501 -0.00000000000E+00  0.00000000000E+00  0.23393203688E+03  0.23393203688E+03  0.00000000000E+00 0. -1.
          2   -1    0    0  501    0  0.00000000000E+00 -0.00000000000E+00 -0.10665459288E+04  0.10665459288E+04  0.00000000000E+00 0. -1.
         36    2    1    2    0    0  0.00000000000E+00  0.00000000000E+00 -0.83261389188E+03  0.13004779656E+04  0.99899802111E+03 0.  0.
         25    2    3    3    0    0  0.41604633261E+02 -0.10157257924E+03 -0.45602706885E+02  0.17253646809E+03  0.12506514935E+03 0.  0.
         35    2    3    3    0    0 -0.41604633261E+02  0.10157257924E+03 -0.78701118500E+03  0.11279414976E+04  0.80051076336E+03 0.  0.
         22    1    5    5    0    0 -0.12446521838E+03 -0.30552599961E+03 -0.57159330910E+03  0.65996714920E+03  0.00000000000E+00 0.  1.
         22    1    5    5    0    0  0.82860585122E+02  0.40709857884E+03 -0.21541787590E+03  0.46797434836E+03  0.00000000000E+00 0.  1.
          5    1    4    4  502    0 -0.14880880510E+01 -0.11742294627E+03 -0.46451973063E+02  0.12637340906E+03  0.47000000000E+01 0.  1.
         -5    1    4    4    0  502  0.43092721312E+02  0.15850367033E+02  0.84926617755E+00  0.46163059021E+02  0.47000000000E+01 0.  1.
<mgrwt>
<rscale>  0 0.99899802E+03</rscale>
<asrwt>0</asrwt>
<pdfrwt beam="1">  1        2 0.16408399E+00 0.99899802E+03</pdfrwt>
<pdfrwt beam="2">  1       -2 0.35989544E-01 0.99899802E+03</pdfrwt>
<totfact> 0.20037736E+02</totfact>
</mgrwt>
</event>
<event>
 9    1  0.4497870E-036  0.1000308E+04  0.7818608E-02  0.8680745E-01
          2   -1    0    0  501    0  0.00000000000E+00  0.00000000000E+00  0.18080022835E+04  0.18080022835E+04  0.00000000000E+00 0.  1.
         -2   -1    0    0    0  501 -0.00000000000E+00 -0.00000000000E+00 -0.13835926388E+03  0.13835926388E+03  0.00000000000E+00 0.  1.
         36    2    1    2    0    0 -0.14210854715E-13 -0.28421709430E-13  0.16696430197E+04  0.19463615474E+04  0.10003076828E+04 0.  0.
         25    2    3    3    0    0  0.10180287090E+03  0.51046438239E+02  0.47669185440E+03  0.50544332608E+03  0.12356483501E+03 0.  0.
         35    2    3    3    0    0 -0.10180287090E+03 -0.51046438239E+02  0.11929511653E+04  0.14409182213E+04  0.80008954157E+03 0.  0.
         22    1    5    5    0    0  0.19839258928E+03  0.28909548237E+03  0.59058584335E+03  0.68682418112E+03  0.00000000000E+00 0.  1.
         22    1    5    5    0    0 -0.30019546017E+03 -0.34014192061E+03  0.60236532192E+03  0.75409404023E+03  0.00000000000E+00 0.  1.
          5    1    4    4  502    0  0.74871316887E+02 -0.24655827872E+02  0.15654789449E+03  0.17533669670E+03  0.47000000000E+01 0. -1.
         -5    1    4    4    0  502  0.26931554010E+02  0.75702266111E+02  0.32014395991E+03  0.33010662938E+03  0.47000000000E+01 0. -1.
<mgrwt>
<rscale>  0 0.10003077E+04</rscale>
<asrwt>0</asrwt>
<pdfrwt beam="1">  1        2 0.27815418E+00 0.10003077E+04</pdfrwt>
<pdfrwt beam="2">  1       -2 0.21286042E-01 0.10003077E+04</pdfrwt>
<totfact> 0.19327057E+02</totfact>
</mgrwt>
</event>
<event>
 9    1  0.4497870E-036  0.9999779E+03  0.7818608E-02  0.8681059E-01
         -2   -1    0    0    0  501 -0.00000000000E+00  0.00000000000E+00  0.14068597631E+04  0.14068597631E+04  0.00000000000E+00 0.  1.
          2   -1    0    0  501    0  0.00000000000E+00 -0.00000000000E+00 -0.17769286212E+03  0.17769286212E+03  0.00000000000E+00 0.  1.
         36    2    1    2    0    0 -0.28421709430E-13  0.14210854715E-13  0.12291669010E+04  0.15845526252E+04  0.99997787558E+03 0.  0.
         25    2    3    3    0    0 -0.10258496508E+03  0.59438605512E+02  0.17191208222E+03  0.24881020361E+03  0.13526318982E+03 0.  0.
         35    2    3    3    0    0  0.10258496508E+03 -0.59438605512E+02  0.10572548188E+04  0.13357424216E+04  0.80769018952E+03 0.  0.
         22    1    5    5    0    0  0.31955429781E+03 -0.24604867682E+03  0.23880788846E+03  0.46870471323E+03  0.00000000000E+00 0. -1.
         22    1    5    5    0    0 -0.21696933273E+03  0.18661007131E+03  0.81844693030E+03  0.86703770839E+03  0.00000000000E+00 0. -1.
          5    1    4    4  502    0 -0.27125823433E+02 -0.10067423360E+02  0.13736136017E+03  0.14045425083E+03  0.47000000000E+01 0. -1.
         -5    1    4    4    0  502 -0.75459141644E+02  0.69506028873E+02  0.34550722055E+02  0.10835595278E+03  0.47000000000E+01 0. -1.
<mgrwt>
<rscale>  0 0.99997788E+03</rscale>
<asrwt>0</asrwt>
<pdfrwt beam="1">  1        2 0.27337364E-01 0.99997788E+03</pdfrwt>
<pdfrwt beam="2">  1       -2 0.21643996E+00 0.99997788E+03</pdfrwt>
<totfact> 0.22264630E+01</totfact>
</mgrwt>
</event>
<event>
 9    1  0.4497870E-036  0.1000759E+04  0.7818608E-02  0.8680315E-01
          2   -1    0    0  501    0  0.00000000000E+00  0.00000000000E+00  0.14623437514E+04  0.14623437514E+04  0.00000000000E+00 0. -1.
         -2   -1    0    0    0  501 -0.00000000000E+00 -0.00000000000E+00 -0.17121806487E+03  0.17121806487E+03  0.00000000000E+00 0. -1.
         36    2    1    2    0    0 -0.28421709430E-13 -0.14210854715E-13  0.12911256865E+04  0.16335618163E+04  0.10007590465E+04 0.  0.
         25    2    3    3    0    0  0.13040874320E+03 -0.48883592586E+02  0.28255671755E+03  0.33886966195E+03  0.12489316729E+03 0.  0.
         35    2    3    3    0    0 -0.13040874320E+03  0.48883592586E+02  0.10085689690E+04  0.12946921543E+04  0.79976269189E+03 0.  0.
         22    1    5    5    0    0  0.28012150511E+03  0.20448265926E+03  0.61016129567E+03  0.70183902877E+03  0.00000000000E+00 0.  1.
         22    1    5    5    0    0 -0.41053024831E+03 -0.15559906667E+03  0.39840767332E+03  0.59285312557E+03  0.00000000000E+00 0.  1.
          5    1    4    4  502    0  0.13013089244E+03 -0.48304954087E+01  0.25589615457E+03  0.28716252327E+03  0.47000000000E+01 0. -1.
         -5    1    4    4    0  502  0.27785076412E+00 -0.44053097177E+02  0.26660562983E+02  0.51707138680E+02  0.47000000000E+01 0. -1.
<mgrwt>
<rscale>  0 0.10007590E+04</rscale>
<asrwt>0</asrwt>
<pdfrwt beam="1">  1        2 0.22497595E+00 0.10007590E+04</pdfrwt>
<pdfrwt beam="2">  1       -2 0.26341242E-01 0.10007590E+04</pdfrwt>
<totfact> 0.20800385E+02</totfact>
</mgrwt>
</event>
<event>
 9    1  0.4497870E-036  0.1006125E+04  0.7818608E-02  0.8675227E-01
         -2   -1    0    0    0  501 -0.00000000000E+00  0.00000000000E+00  0.24652614970E+03  0.24652614970E+03  0.00000000000E+00 0.  1.
          2   -1    0    0  501    0  0.00000000000E+00 -0.00000000000E+00 -0.10265513968E+04  0.10265513968E+04  0.00000000000E+00 0.  1.
         36    2    1    2    0    0 -0.14210854715E-13  0.00000000000E+00 -0.78002524706E+03  0.12730775465E+04  0.10061247702E+04 0.  0.
         25    2    3    3    0    0  0.97402411118E+02 -0.30692817757E+02 -0.15048241259E+02  0.16149923605E+03  0.12420255604E+03 0.  0.
         35    2    3    3    0    0 -0.97402411118E+02  0.30692817757E+02 -0.76497700580E+03  0.11115783104E+04  0.79999202621E+03 0.  0.
         22    1    5    5    0    0  0.14691336061E+03  0.18172490347E+03 -0.78944834875E+03  0.82330806592E+03  0.00000000000E+00 0. -1.
         22    1    5    5    0    0 -0.24431577173E+03 -0.15103208571E+03  0.24471342943E+02  0.28827024449E+03  0.00000000000E+00 0. -1.
          5    1    4    4  502    0  0.49686552428E+02  0.40261523720E+02  0.22550779176E+02  0.67973314072E+02  0.47000000000E+01 0. -1.
         -5    1    4    4    0  502  0.47715858690E+02 -0.70954341477E+02 -0.37599020435E+02  0.93525921982E+02  0.47000000000E+01 0. -1.
<mgrwt>
<rscale>  0 0.10061248E+04</rscale>
<asrwt>0</asrwt>
<pdfrwt beam="1">  1        2 0.15793098E+00 0.10061248E+04</pdfrwt>
<pdfrwt beam="2">  1       -2 0.37927100E-01 0.10061248E+04</pdfrwt>
<totfact> 0.19213066E+02</totfact>
</mgrwt>
</event>
<event>
 9    1  0.4497870E-036  0.1002146E+04  0.7818608E-02  0.8678997E-01
         -2   -1    0    0    0  501 -0.00000000000E+00  0.00000000000E+00  0.10630769028E+03  0.10630769028E+03  0.00000000000E+00 0.  1.
          2   -1    0    0  501    0  0.00000000000E+00 -0.00000000000E+00 -0.23617666083E+04  0.23617666083E+04  0.00000000000E+00 0.  1.
         36    2    1    2    0    0  0.00000000000E+00  0.00000000000E+00 -0.22554589181E+04  0.24680742986E+04  0.10021456044E+04 0.  0.
         25    2    3    3    0    0  0.53350991457E+02  0.33893411350E+02 -0.11275312203E+03  0.18011371056E+03  0.12542962403E+03 0.  0.
         35    2    3    3    0    0 -0.53350991457E+02 -0.33893411350E+02 -0.21427057960E+04  0.22879605881E+04  0.79973772733E+03 0.  0.
         22    1    5    5    0    0 -0.14815584316E+03 -0.15980922007E+03 -0.21170907960E+04  0.21282769038E+04  0.00000000000E+00 0.  1.
         22    1    5    5    0    0  0.94804851706E+02  0.12591580872E+03 -0.25615000026E+02  0.15968368426E+03  0.00000000000E+00 0.  1.
          5    1    4    4  502    0 -0.53198279867E+01  0.21468408923E+02 -0.11760822886E+03  0.11976217536E+03  0.47000000000E+01 0. -1.
         -5    1    4    4    0  502  0.58670819444E+02  0.12425002427E+02  0.48551068281E+01  0.60351535207E+02  0.47000000000E+01 0. -1.
<mgrwt>
<rscale>  0 0.10021456E+04</rscale>
<asrwt>0</asrwt>
<pdfrwt beam="1">  1        2 0.36334866E+00 0.10021456E+04</pdfrwt>
<pdfrwt beam="2">  1       -2 0.16355031E-01 0.10021456E+04</pdfrwt>
<totfact> 0.14578137E+02</totfact>
</mgrwt>
</event>
<event>
 9    1  0.4497870E-036  0.9994810E+03  0.7818608E-02  0.8681532E-01
          2   -1    0    0  501    0  0.00000000000E+00  0.00000000000E+00  0.25028801103E+04  0.25028801103E+04  0.00000000000E+00 0. -1.
         -2   -1    0    0    0  501 -0.00000000000E+00 -0.00000000000E+00 -0.99781276964E+02  0.99781276964E+02  0.00000000000E+00 0. -1.
         36    2    1    2    0    0  0.21316282073E-13  0.71054273576E-14  0.24030988333E+04  0.26026613872E+04  0.99948101231E+03 0.  0.
         25    2    3    3    0    0  0.41684645864E+02  0.37427508477E+02  0.11732892161E+03  0.17998335341E+03  0.12445683415E+03 0.  0.
         35    2    3    3    0    0 -0.41684645864E+02 -0.37427508477E+02  0.22857699117E+04  0.24226780338E+04  0.80092842270E+03 0.  0.
         22    1    5    5    0    0 -0.29601402258E+03  0.11135728572E+03  0.38058777414E+03  0.49484522881E+03  0.00000000000E+00 0.  1.
         22    1    5    5    0    0  0.25432937672E+03 -0.14878479420E+03  0.19051821376E+04  0.19278328050E+04  0.00000000000E+00 0.  1.
          5    1    4    4  502    0  0.23117742455E+02  0.34827733493E+02 -0.16189524919E+02  0.45073182199E+02  0.47000000000E+01 0.  1.
         -5    1    4    4    0  502  0.18566903409E+02  0.25997749841E+01  0.13351844653E+03  0.13491017121E+03  0.47000000000E+01 0.  1.
<mgrwt>
<rscale>  0 0.99948101E+03</rscale>
<asrwt>0</asrwt>
<pdfrwt beam="1">  1        2 0.38505843E+00 0.99948101E+03</pdfrwt>
<pdfrwt beam="2">  1       -2 0.15350967E-01 0.99948101E+03</pdfrwt>
<totfact> 0.13341499E+02</totfact>
</mgrwt>
</event>
<event>
 9    1  0.4497870E-036  0.9993076E+03  0.7818608E-02  0.8681698E-01
          2   -1    0    0  501    0  0.00000000000E+00  0.00000000000E+00  0.21294364263E+04  0.21294364263E+04  0.00000000000E+00 0. -1.
         -2   -1    0    0    0  501 -0.00000000000E+00 -0.00000000000E+00 -0.11723942560E+03  0.11723942560E+03  0.00000000000E+00 0. -1.
         36    2    1    2    0    0 -0.71054273576E-14 -0.71054273576E-14  0.20121970008E+04  0.22466758519E+04  0.99930756721E+03 0.  0.
         25    2    3    3    0    0 -0.13991232871E+02 -0.57269765373E+02  0.66251731814E+03  0.67686105255E+03  0.12544364072E+03 0.  0.
         35    2    3    3    0    0  0.13991232871E+02  0.57269765373E+02  0.13496796826E+04  0.15698147994E+04  0.79950464547E+03 0.  0.
         22    1    5    5    0    0 -0.86848705245E+02 -0.13558152769E+03 -0.37784935014E+02  0.16538666684E+03  0.00000000000E+00 0.  1.
         22    1    5    5    0    0  0.10083993812E+03  0.19285129307E+03  0.13874646176E+04  0.14044281326E+04  0.00000000000E+00 0.  1.
          5    1    4    4  502    0 -0.59916770845E+02 -0.51998506836E+02  0.54021572799E+03  0.54603020695E+03  0.47000000000E+01 0.  1.
         -5    1    4    4    0  502  0.45925537974E+02 -0.52712585370E+01  0.12230159015E+03  0.13083084559E+03  0.47000000000E+01 0.  1.
<mgrwt>
<rscale>  0 0.99930757E+03</rscale>
<asrwt>0</asrwt>
<pdfrwt beam="1">  1        2 0.32760557E+00 0.99930757E+03</pdfrwt>
<pdfrwt beam="2">  1       -2 0.18036836E-01 0.99930757E+03</pdfrwt>
<totfact> 0.16880763E+02</totfact>
</mgrwt>
</event>
<event>
 9    1  0.4497870E-036  0.9995650E+03  0.7818608E-02  0.8681452E-01
         -2   -1    0    0    0  501 -0.00000000000E+00  0.00000000000E+00  0.34450218248E+03  0.34450218248E+03  0.00000000000E+00 0. -1.
          2   -1    0    0  501    0  0.00000000000E+00 -0.00000000000E+00 -0.72505357689E+03  0.72505357689E+03  0.00000000000E+00 0. -1.
         36    2    1    2    0    0  0.71054273576E-14  0.14210854715E-13 -0.38055139441E+03  0.10695557594E+04  0.99956498469E+03 0.  0.
         25    2    3    3    0    0  0.30458647148E+02  0.39231867912E+02 -0.21160598833E+03  0.25068942045E+03  0.12490485412E+03 0.  0.
         35    2    3    3    0    0 -0.30458647148E+02 -0.39231867912E+02 -0.16894540608E+03  0.81886633893E+03  0.79970786050E+03 0.  0.
         22    1    5    5    0    0 -0.21855280735E+03 -0.34020879096E+03  0.41113421767E+02  0.40644515559E+03  0.00000000000E+00 0.  1.
         22    1    5    5    0    0  0.18809416021E+03  0.30097692305E+03 -0.21005882785E+03  0.41242118334E+03  0.00000000000E+00 0.  1.
          5    1    4    4  502    0  0.51479498789E+02  0.70735207512E+02 -0.10110068058E+03  0.13377984150E+03  0.47000000000E+01 0.  1.
         -5    1    4    4    0  502 -0.21020851641E+02 -0.31503339600E+02 -0.11050530775E+03  0.11690957895E+03  0.47000000000E+01 0.  1.
<mgrwt>
<rscale>  0 0.99956498E+03</rscale>
<asrwt>0</asrwt>
<pdfrwt beam="1">  1        2 0.11154670E+00 0.99956498E+03</pdfrwt>
<pdfrwt beam="2">  1       -2 0.53000336E-01 0.99956498E+03</pdfrwt>
<totfact> 0.15917988E+02</totfact>
</mgrwt>
</event>
<event>
 9    1  0.4497870E-036  0.9976416E+03  0.7818608E-02  0.8683287E-01
          1   -1    0    0  501    0  0.00000000000E+00  0.00000000000E+00  0.53507701179E+03  0.53507701179E+03  0.00000000000E+00 0.  1.
         -1   -1    0    0    0  501 -0.00000000000E+00 -0.00000000000E+00 -0.46502128575E+03  0.46502128575E+03  0.00000000000E+00 0.  1.
         36    2    1    2    0    0 -0.56843418861E-13 -0.71054273576E-14  0.70055726047E+02  0.10000982975E+04  0.99764161901E+03 0.  0.
         25    2    3    3    0    0 -0.12943085045E+03  0.10269302607E+02 -0.33052176492E+02  0.18176092994E+03  0.12282827711E+03 0.  0.
         35    2    3    3    0    0  0.12943085045E+03 -0.10269302607E+02  0.10310790254E+03  0.81833736760E+03  0.80136571178E+03 0.  0.
         22    1    5    5    0    0  0.41211907843E+03 -0.13060705921E+03 -0.10794795006E+03  0.44559297419E+03  0.00000000000E+00 0.  1.
         22    1    5    5    0    0 -0.28268822798E+03  0.12033775660E+03  0.21105585260E+03  0.37274439341E+03  0.00000000000E+00 0.  1.
          5    1    4    4  502    0 -0.14842190659E+03  0.29368845718E+02 -0.27101415648E+02  0.15377960913E+03  0.47000000000E+01 0.  1.
         -5    1    4    4    0  502  0.18991056131E+02 -0.19099543111E+02 -0.59507608441E+01  0.27981320817E+02  0.47000000000E+01 0.  1.
<mgrwt>
<rscale>  0 0.99764162E+03</rscale>
<asrwt>0</asrwt>
<pdfrwt beam="1">  1        1 0.82319540E-01 0.99764162E+03</pdfrwt>
<pdfrwt beam="2">  1       -1 0.71541737E-01 0.99764162E+03</pdfrwt>
<totfact> 0.93422852E+01</totfact>
</mgrwt>
</event>
<event>
 9    1  0.4497870E-036  0.1000245E+04  0.7818608E-02  0.8680805E-01
         -1   -1    0    0    0  501 -0.00000000000E+00  0.00000000000E+00  0.11110591950E+03  0.11110591950E+03  0.00000000000E+00 0. -1.
          1   -1    0    0  501    0  0.00000000000E+00 -0.00000000000E+00 -0.22512078652E+04  0.22512078652E+04  0.00000000000E+00 0. -1.
         36    2    1    2    0    0  0.00000000000E+00  0.14210854715E-13 -0.21401019457E+04  0.23623137847E+04  0.10002450097E+04 0.  0.
         25    2    3    3    0    0 -0.13694472879E+03  0.67159350253E+01 -0.33087130488E+03  0.37923985190E+03  0.12469194979E+03 0.  0.
         35    2    3    3    0    0  0.13694472879E+03 -0.67159350253E+01 -0.18092306408E+04  0.19830739328E+04  0.80029228959E+03 0.  0.
         22    1    5    5    0    0  0.37114666588E+03 -0.24515573882E+03 -0.74592730125E+03  0.86848069790E+03  0.00000000000E+00 0. -1.
         22    1    5    5    0    0 -0.23420193709E+03  0.23843980380E+03 -0.10633033395E+04  0.11145932349E+04  0.00000000000E+00 0. -1.
          5    1    4    4  502    0 -0.21930236046E+02  0.47950608203E+02 -0.49607947376E+02  0.72548153133E+02  0.47000000000E+01 0. -1.
         -5    1    4    4    0  502 -0.11501449275E+03 -0.41234673178E+02 -0.28126335751E+03  0.30669169876E+03  0.47000000000E+01 0. -1.
<mgrwt>
<rscale>  0 0.10002450E+04</rscale>
<asrwt>0</asrwt>
<pdfrwt beam="1">  1        1 0.34633967E+00 0.10002450E+04</pdfrwt>
<pdfrwt beam="2">  1       -1 0.17093218E-01 0.10002450E+04</pdfrwt>
<totfact> 0.54932333E+01</totfact>
</mgrwt>
</event>
<event>
 9    1  0.4497870E-036  0.9996812E+03  0.7818608E-02  0.8681342E-01
          1   -1    0    0  501    0  0.00000000000E+00  0.00000000000E+00  0.93683173698E+03  0.93683173698E+03  0.00000000000E+00 0. -1.
         -1   -1    0    0    0  501 -0.00000000000E+00 -0.00000000000E+00 -0.26668674669E+03  0.26668674669E+03  0.00000000000E+00 0. -1.
         36    2    1    2    0    0  0.28421709430E-13 -0.14210854715E-13  0.67014499029E+03  0.12035184837E+04  0.99968116543E+03 0.  0.
         25    2    3    3    0    0 -0.10204107826E+03 -0.86328776426E+01  0.23955486042E+03  0.28962468846E+03  0.12652675916E+03 0.  0.
         35    2    3    3    0    0  0.10204107826E+03  0.86328776426E+01  0.43059012987E+03  0.91389379521E+03  0.79956682069E+03 0.  0.
         22    1    5    5    0    0 -0.16687237360E+02 -0.38515409903E+03  0.27761338208E+03  0.47506981992E+03  0.00000000000E+00 0.  1.
         22    1    5    5    0    0  0.11872831562E+03  0.39378697667E+03  0.15297674779E+03  0.43882397529E+03  0.00000000000E+00 0.  1.
          5    1    4    4  502    0 -0.24662178203E+02 -0.50371646865E+02  0.33375163267E+02  0.65433304706E+02  0.47000000000E+01 0. -1.
         -5    1    4    4    0  502 -0.77378900055E+02  0.41738769223E+02  0.20617969715E+03  0.22419138375E+03  0.47000000000E+01 0. -1.
<mgrwt>
<rscale>  0 0.99968117E+03</rscale>
<asrwt>0</asrwt>
<pdfrwt beam="1">  1        1 0.14412796E+00 0.99968117E+03</pdfrwt>
<pdfrwt beam="2">  1       -1 0.41028731E-01 0.99968117E+03</pdfrwt>
<totfact> 0.11107466E+02</totfact>
</mgrwt>
</event>
<event>
 9    1  0.4497870E-036  0.9975533E+03  0.7818608E-02  0.8683371E-01
          1   -1    0    0  501    0  0.00000000000E+00  0.00000000000E+00  0.31285031063E+04  0.31285031063E+04  0.00000000000E+00 0. -1.
         -1   -1    0    0    0  501 -0.00000000000E+00 -0.00000000000E+00 -0.79519866673E+02  0.79519866673E+02  0.00000000000E+00 0. -1.
         36    2    1    2    0    0 -0.28421709430E-13  0.00000000000E+00  0.30489832396E+04  0.32080229729E+04  0.99755330664E+03 0.  0.
         25    2    3    3    0    0  0.19517958105E+02  0.94852526669E+02  0.25458243534E+03  0.29965912900E+03  0.12492167429E+03 0.  0.
         35    2    3    3    0    0 -0.19517958105E+02 -0.94852526669E+02  0.27944008042E+04  0.29083638439E+04  0.80032895825E+03 0.  0.
         22    1    5    5    0    0 -0.27152092761E+03  0.24793611064E+03  0.10390387806E+04  0.11021785321E+04  0.00000000000E+00 0.  1.
         22    1    5    5    0    0  0.25200296951E+03 -0.34278863731E+03  0.17553620236E+04  0.18061853118E+04  0.00000000000E+00 0.  1.
          5    1    4    4  502    0  0.65163730838E+02  0.83582014939E+02  0.20700066466E+03  0.23260187060E+03  0.47000000000E+01 0. -1.
         -5    1    4    4    0  502 -0.45645772733E+02  0.11270511730E+02  0.47581770683E+02  0.67057258402E+02  0.47000000000E+01 0. -1.
<mgrwt>
<rscale>  0 0.99755331E+03</rscale>
<asrwt>0</asrwt>
<pdfrwt beam="1">  1        1 0.48130808E+00 0.99755331E+03</pdfrwt>
<pdfrwt beam="2">  1       -1 0.12233828E-01 0.99755331E+03</pdfrwt>
<totfact> 0.22387717E+01</totfact>
</mgrwt>
</event>
<event>
 9    1  0.4497870E-036  0.9997838E+03  0.7818608E-02  0.8681244E-01
         -1   -1    0    0    0  501 -0.00000000000E+00  0.00000000000E+00  0.10916607670E+03  0.10916607670E+03  0.00000000000E+00 0. -1.
          1   -1    0    0  501    0  0.00000000000E+00 -0.00000000000E+00 -0.22890985073E+04  0.22890985073E+04  0.00000000000E+00 0. -1.
         36    2    1    2    0    0 -0.35527136788E-14  0.00000000000E+00 -0.21799324306E+04  0.23982645840E+04  0.99978378306E+03 0.  0.
         25    2    3    3    0    0  0.22873878621E+01 -0.98722214889E+02 -0.17236911570E+03  0.23456496342E+03  0.12473292332E+03 0.  0.
         35    2    3    3    0    0 -0.22873878621E+01  0.98722214889E+02 -0.20075633149E+04  0.21636996206E+04  0.80095834904E+03 0.  0.
         22    1    5    5    0    0  0.19018120072E+03 -0.56809095331E+02 -0.70103405187E+02  0.21050094973E+03  0.00000000000E+00 0. -1.
         22    1    5    5    0    0 -0.19246858858E+03  0.15553131022E+03 -0.19374599097E+04  0.19531986709E+04  0.00000000000E+00 0. -1.
          5    1    4    4  502    0 -0.16307899692E+02  0.27009110148E+02 -0.35336283778E+02  0.47604438602E+02  0.47000000000E+01 0.  1.
         -5    1    4    4    0  502  0.18595287554E+02 -0.12573132504E+03 -0.13703283192E+03  0.18696052482E+03  0.47000000000E+01 0.  1.
<mgrwt>
<rscale>  0 0.99978378E+03</rscale>
<asrwt>0</asrwt>
<pdfrwt beam="1">  1        1 0.35216899E+00 0.99978378E+03</pdfrwt>
<pdfrwt beam="2">  1       -1 0.16794782E-01 0.99978378E+03</pdfrwt>
<totfact> 0.53171907E+01</totfact>
</mgrwt>
</event>
<event>
 9    1  0.4497870E-036  0.1000083E+04  0.7818608E-02  0.8680958E-01
         -1   -1    0    0    0  501 -0.00000000000E+00  0.00000000000E+00  0.21552548925E+03  0.21552548925E+03  0.00000000000E+00 0. -1.
          1   -1    0    0  501    0  0.00000000000E+00 -0.00000000000E+00 -0.11601493100E+04  0.11601493100E+04  0.00000000000E+00 0. -1.
         36    2    1    2    0    0  0.00000000000E+00 -0.31974423109E-13 -0.94462382074E+03  0.13756747992E+04  0.10000834918E+04 0.  0.
         25    2    3    3    0    0  0.10857371186E+03 -0.21506164149E+02 -0.29614575962E+03  0.34018398774E+03  0.12558689648E+03 0.  0.
         35    2    3    3    0    0 -0.10857371186E+03  0.21506164149E+02 -0.64847806112E+03  0.10354908115E+04  0.79966659236E+03 0.  0.
         22    1    5    5    0    0  0.13294377594E+03 -0.24509895484E+03  0.16633209172E+02  0.27932813835E+03  0.00000000000E+00 0. -1.
         22    1    5    5    0    0 -0.24151748781E+03  0.26660511899E+03 -0.66511127029E+03  0.75616267314E+03  0.00000000000E+00 0. -1.
          5    1    4    4  502    0  0.44679094686E+02 -0.41101217564E+02 -0.25362739667E+03  0.26083419624E+03  0.47000000000E+01 0. -1.
         -5    1    4    4    0  502  0.63894617177E+02  0.19595053415E+02 -0.42518362951E+02  0.79349791496E+02  0.47000000000E+01 0. -1.
<mgrwt>
<rscale>  0 0.10000835E+04</rscale>
<asrwt>0</asrwt>
<pdfrwt beam="1">  1        1 0.17848451E+00 0.10000835E+04</pdfrwt>
<pdfrwt beam="2">  1       -1 0.33157768E-01 0.10000835E+04</pdfrwt>
<totfact> 0.10804982E+02</totfact>
</mgrwt>
</event>
<event>
 9    1  0.4497870E-036  0.1000116E+04  0.7818608E-02  0.8680927E-01
          1   -1    0    0  501    0  0.00000000000E+00  0.00000000000E+00  0.19476762776E+04  0.19476762776E+04  0.00000000000E+00 0. -1.
         -1   -1    0    0    0  501 -0.00000000000E+00 -0.00000000000E+00 -0.12838790182E+03  0.12838790182E+03  0.00000000000E+00 0. -1.
         36    2    1    2    0    0 -0.71054273576E-14 -0.24868995752E-13  0.18192883758E+04  0.20760641794E+04  0.10001161346E+04 0.  0.
         25    2    3    3    0    0  0.33917355131E+02 -0.33784485757E+01  0.61959392649E+03  0.63311332744E+03  0.12559478788E+03 0.  0.
         35    2    3    3    0    0 -0.33917355131E+02  0.33784485757E+01  0.11996944493E+04  0.14429508520E+04  0.80104843091E+03 0.  0.
         22    1    5    5    0    0 -0.86074516128E+02 -0.14078811920E+03  0.12654279118E+04  0.12761418091E+04  0.00000000000E+00 0.  1.
         22    1    5    5    0    0  0.52157160997E+02  0.14416656777E+03 -0.65733462512E+02  0.16680904292E+03  0.00000000000E+00 0.  1.
          5    1    4    4  502    0  0.38176455959E+02 -0.25455944808E+02  0.75090477103E+02  0.88125573287E+02  0.47000000000E+01 0. -1.
         -5    1    4    4    0  502 -0.42591008283E+01  0.22077496232E+02  0.54450344939E+03  0.54498775415E+03  0.47000000000E+01 0. -1.
<mgrwt>
<rscale>  0 0.10001161E+04</rscale>
<asrwt>0</asrwt>
<pdfrwt beam="1">  1        1 0.29964248E+00 0.10001161E+04</pdfrwt>
<pdfrwt beam="2">  1       -1 0.19751986E-01 0.10001161E+04</pdfrwt>
<totfact> 0.70749015E+01</totfact>
</mgrwt>
</event>
<event>
 9    1  0.4497870E-036  0.9998817E+03  0.7818608E-02  0.8681151E-01
          2   -1    0    0  501    0  0.00000000000E+00  0.00000000000E+00  0.17246011164E+04  0.17246011164E+04  0.00000000000E+00 0.  1.
         -2   -1    0    0    0  501 -0.00000000000E+00 -0.00000000000E+00 -0.14492676542E+03  0.14492676542E+03  0.00000000000E+00 0.  1.
         36    2    1    2    0    0  0.21316282073E-13  0.14210854715E-13  0.15796743509E+04  0.18695278818E+04  0.99988171588E+03 0.  0.
         25    2    3    3    0    0  0.64942835903E+01  0.10670869614E+03  0.11736405700E+03  0.19864881924E+03  0.11940732791E+03 0.  0.
         35    2    3    3    0    0 -0.64942835903E+01 -0.10670869614E+03  0.14623102940E+04  0.16708790625E+04  0.80128429682E+03 0.  0.
         22    1    5    5    0    0  0.29555994042E+03  0.11379524923E+01  0.17342033158E+03  0.34268292155E+03  0.00000000000E+00 0.  1.
         22    1    5    5    0    0 -0.30205422401E+03 -0.10784664863E+03  0.12888899624E+04  0.13281961410E+04  0.00000000000E+00 0.  1.
          5    1    4    4  502    0 -0.43094957842E+02  0.57946315590E+02  0.10550835599E+03  0.12794160413E+03  0.47000000000E+01 0. -1.
         -5    1    4    4    0  502  0.49589241432E+02  0.48762380551E+02  0.11855701005E+02  0.70707215114E+02  0.47000000000E+01 0. -1.
<mgrwt>
<rscale>  0 0.99988172E+03</rscale>
<asrwt>0</asrwt>
<pdfrwt beam="1">  1        2 0.26532323E+00 0.99988172E+03</pdfrwt>
<pdfrwt beam="2">  1       -2 0.22296427E-01 0.99988172E+03</pdfrwt>
<totfact> 0.19861959E+02</totfact>
</mgrwt>
</event>
<event>
 9    1  0.4497870E-036  0.9993853E+03  0.7818608E-02  0.8681624E-01
         -1   -1    0    0    0  501 -0.00000000000E+00  0.00000000000E+00  0.11849553424E+03  0.11849553424E+03  0.00000000000E+00 0. -1.
          1   -1    0    0  501    0  0.00000000000E+00 -0.00000000000E+00 -0.21071912230E+04  0.21071912230E+04  0.00000000000E+00 0. -1.
         36    2    1    2    0    0  0.14210854715E-13 -0.28421709430E-13 -0.19886956888E+04  0.22256867573E+04  0.99938531054E+03 0.  0.
         25    2    3    3    0    0  0.86765306057E+02  0.10336002862E+03 -0.28640019221E+03  0.34018259664E+03  0.12444924711E+03 0.  0.
         35    2    3    3    0    0 -0.86765306057E+02 -0.10336002862E+03 -0.17022954966E+04  0.18855041606E+04  0.79944009673E+03 0.  0.
         22    1    5    5    0    0  0.66713280820E+01  0.19533308521E+03 -0.15003784675E+04  0.15130548789E+04  0.00000000000E+00 0. -1.
         22    1    5    5    0    0 -0.93436634139E+02 -0.29869311383E+03 -0.20191702911E+03  0.37244928177E+03  0.00000000000E+00 0. -1.
          5    1    4    4  502    0  0.42555015523E+02 -0.22511026548E+02 -0.56897119735E+02  0.74679635086E+02  0.47000000000E+01 0.  1.
         -5    1    4    4    0  502  0.44210290534E+02  0.12587105517E+03 -0.22950307247E+03  0.26550296155E+03  0.47000000000E+01 0.  1.
<mgrwt>
<rscale>  0 0.99938531E+03</rscale>
<asrwt>0</asrwt>
<pdfrwt beam="1">  1        1 0.32418329E+00 0.99938531E+03</pdfrwt>
<pdfrwt beam="2">  1       -1 0.18230081E-01 0.99938531E+03</pdfrwt>
<totfact> 0.62406338E+01</totfact>
</mgrwt>
</event>
<event>
 9    1  0.4497870E-036  0.9996652E+03  0.7818608E-02  0.8681357E-01
          2   -1    0    0  501    0  0.00000000000E+00  0.00000000000E+00  0.22690399306E+04  0.22690399306E+04  0.00000000000E+00 0.  1.
         -2   -1    0    0    0  501 -0.00000000000E+00 -0.00000000000E+00 -0.11010499026E+03  0.11010499026E+03  0.00000000000E+00 0.  1.
         36    2    1    2    0    0  0.21316282073E-13  0.00000000000E+00  0.21589349404E+04  0.23791449209E+04  0.99966518288E+03 0.  0.
         25    2    3    3    0    0 -0.55656340430E+02 -0.12758568979E+03  0.45620100143E+03  0.49307787328E+03  0.12502279367E+03 0.  0.
         35    2    3    3    0    0  0.55656340430E+02  0.12758568979E+03  0.17027339389E+04  0.18860670476E+04  0.79910594093E+03 0.  0.
         22    1    5    5    0    0 -0.35524916275E+03  0.10463131561E+03  0.55901480282E+03  0.67055740218E+03  0.00000000000E+00 0.  1.
         22    1    5    5    0    0  0.41090550318E+03  0.22954374179E+02  0.11437191361E+04  0.12155096454E+04  0.00000000000E+00 0.  1.
          5    1    4    4  502    0 -0.26098053443E+02 -0.12879258534E+03  0.43957054320E+03  0.45881694702E+03  0.47000000000E+01 0.  1.
         -5    1    4    4    0  502 -0.29558286987E+02  0.12068955477E+01  0.16630458238E+02  0.34260926253E+02  0.47000000000E+01 0.  1.
<mgrwt>
<rscale>  0 0.99966518E+03</rscale>
<asrwt>0</asrwt>
<pdfrwt beam="1">  1        2 0.34908303E+00 0.99966518E+03</pdfrwt>
<pdfrwt beam="2">  1       -2 0.16939231E-01 0.99966518E+03</pdfrwt>
<totfact> 0.15583289E+02</totfact>
</mgrwt>
</event>
<event>
 9    1  0.4497870E-036  0.1000247E+04  0.7818608E-02  0.8680803E-01
         -2   -1    0    0    0  501 -0.00000000000E+00  0.00000000000E+00  0.24030841898E+03  0.24030841898E+03  0.00000000000E+00 0. -1.
          2   -1    0    0  501    0  0.00000000000E+00 -0.00000000000E+00 -0.10408440609E+04  0.10408440609E+04  0.00000000000E+00 0. -1.
         36    2    1    2    0    0  0.00000000000E+00 -0.35527136788E-14 -0.80053564188E+03  0.12811524798E+04  0.10002471508E+04 0.  0.
         25    2    3    3    0    0  0.33127854783E+01  0.19854232086E+02 -0.33131757478E+03  0.35487388772E+03  0.12553475913E+03 0.  0.
         35    2    3    3    0    0 -0.33127854783E+01 -0.19854232086E+02 -0.46921806710E+03  0.92627859212E+03  0.79838666738E+03 0.  0.
         22    1    5    5    0    0  0.44153476134E+02 -0.39705130334E+03 -0.34046520532E+03  0.52489601158E+03  0.00000000000E+00 0. -1.
         22    1    5    5    0    0 -0.47466261613E+02  0.37719707125E+03 -0.12875286178E+03  0.40138258055E+03  0.00000000000E+00 0. -1.
          5    1    4    4  502    0  0.64830656539E+01 -0.17397839302E+02 -0.31189364840E+03  0.31248112401E+03  0.47000000000E+01 0.  1.
         -5    1    4    4    0  502 -0.31702801755E+01  0.37252071389E+02 -0.19423926384E+02  0.42392763714E+02  0.47000000000E+01 0.  1.
<mgrwt>
<rscale>  0 0.10002472E+04</rscale>
<asrwt>0</asrwt>
<pdfrwt beam="1">  1        2 0.16012985E+00 0.10002472E+04</pdfrwt>
<pdfrwt beam="2">  1       -2 0.36970527E-01 0.10002472E+04</pdfrwt>
<totfact> 0.19756838E+02</totfact>
</mgrwt>
</event>
<event>
 9    1  0.4497870E-036  0.1001142E+04  0.7818608E-02  0.8679951E-01
         -2   -1    0    0    0  501 -0.00000000000E+00  0.00000000000E+00  0.79819726597E+02  0.79819726597E+02  0.00000000000E+00 0.  1.
          2   -1    0    0  501    0  0.00000000000E+00 -0.00000000000E+00 -0.31392165300E+04  0.31392165300E+04  0.00000000000E+00 0.  1.
         36    2    1    2    0    0  0.28421709430E-13  0.21316282073E-13 -0.30593968034E+04  0.32190362566E+04  0.10011421580E+04 0.  0.
         25    2    3    3    0    0 -0.12943844844E+03 -0.54015708131E+02 -0.53291437081E+03  0.56515227291E+03  0.12540875685E+03 0.  0.
         35    2    3    3    0    0  0.12943844844E+03  0.54015708131E+02 -0.25264824326E+04  0.26538839837E+04  0.80019666835E+03 0.  0.
         22    1    5    5    0    0  0.43702446252E+03 -0.11442021195E+03 -0.12129773848E+04  0.12943710835E+04  0.00000000000E+00 0. -1.
         22    1    5    5    0    0 -0.30758601408E+03  0.16843592008E+03 -0.13135050478E+04  0.13595129002E+04  0.00000000000E+00 0. -1.
          5    1    4    4  502    0 -0.14200872132E+03 -0.71441733068E+02 -0.40045081095E+03  0.43087508648E+03  0.47000000000E+01 0. -1.
         -5    1    4    4    0  502  0.12570272874E+02  0.17426024937E+02 -0.13246355986E+03  0.13427718643E+03  0.47000000000E+01 0. -1.
<mgrwt>
<rscale>  0 0.10011422E+04</rscale>
<asrwt>0</asrwt>
<pdfrwt beam="1">  1        2 0.48295635E+00 0.10011422E+04</pdfrwt>
<pdfrwt beam="2">  1       -2 0.12279959E-01 0.10011422E+04</pdfrwt>
<totfact> 0.75083585E+01</totfact>
</mgrwt>
</event>
<event>
 9    1  0.4497870E-036  0.9995676E+03  0.7818608E-02  0.8681450E-01
          2   -1    0    0  501    0  0.00000000000E+00  0.00000000000E+00  0.14593729880E+04  0.14593729880E+04  0.00000000000E+00 0. -1.
         -2   -1    0    0    0  501 -0.00000000000E+00 -0.00000000000E+00 -0.17115833088E+03  0.17115833088E+03  0.00000000000E+00 0. -1.
         36    2    1    2    0    0 -0.28421709430E-13 -0.35527136788E-14  0.12882146572E+04  0.16305313189E+04  0.99956759602E+03 0.  0.
         25    2    3    3    0    0  0.78231389705E+02  0.11611928380E+01  0.43091746960E+03  0.45523712128E+03  0.12421542692E+03 0.  0.
         35    2    3    3    0    0 -0.78231389705E+02 -0.11611928380E+01  0.85729718756E+03  0.11752941976E+04  0.80014778914E+03 0.  0.
         22    1    5    5    0    0 -0.34088372813E+03  0.27240360617E+02  0.84414634742E+03  0.91078362371E+03  0.00000000000E+00 0. -1.
         22    1    5    5    0    0  0.26265233842E+03 -0.28401553455E+02  0.13150840137E+02  0.26451057392E+03  0.00000000000E+00 0. -1.
          5    1    4    4  502    0  0.61512334621E+02  0.49486189863E+02  0.14907208696E+03  0.16875197008E+03  0.47000000000E+01 0.  1.
         -5    1    4    4    0  502  0.16719055084E+02 -0.48324997025E+02  0.28184538264E+03  0.28648515120E+03  0.47000000000E+01 0.  1.
<mgrwt>
<rscale>  0 0.99956760E+03</rscale>
<asrwt>0</asrwt>
<pdfrwt beam="1">  1        2 0.22451891E+00 0.99956760E+03</pdfrwt>
<pdfrwt beam="2">  1       -2 0.26332052E-01 0.99956760E+03</pdfrwt>
<totfact> 0.20894512E+02</totfact>
</mgrwt>
</event>
<event>
 9    1  0.4497870E-036  0.9996122E+03  0.7818608E-02  0.8681407E-01
          2   -1    0    0  501    0  0.00000000000E+00  0.00000000000E+00  0.42516067843E+03  0.42516067843E+03  0.00000000000E+00 0. -1.
         -2   -1    0    0    0  501 -0.00000000000E+00 -0.00000000000E+00 -0.58755699645E+03  0.58755699645E+03  0.00000000000E+00 0. -1.
         36    2    1    2    0    0 -0.14210854715E-13  0.28421709430E-13 -0.16239631802E+03  0.10127176749E+04  0.99961218726E+03 0.  0.
         25    2    3    3    0    0 -0.53480835241E+02  0.12934416378E+03 -0.42300596814E+02  0.19185038905E+03  0.12420595334E+03 0.  0.
         35    2    3    3    0    0  0.53480835241E+02 -0.12934416378E+03 -0.12009572121E+03  0.82086728583E+03  0.79988124509E+03 0.  0.
         22    1    5    5    0    0 -0.13934680825E+03  0.25486629717E+03  0.13573070999E+03  0.32062000568E+03  0.00000000000E+00 0.  1.
         22    1    5    5    0    0  0.19282764350E+03 -0.38421046095E+03 -0.25582643120E+03  0.50024728016E+03  0.00000000000E+00 0.  1.
          5    1    4    4  502    0 -0.82844093015E+02  0.60865224403E+02  0.57492266629E+01  0.10306727364E+03  0.47000000000E+01 0.  1.
         -5    1    4    4    0  502  0.29363257773E+02  0.68478939380E+02 -0.48049823477E+02  0.88783115410E+02  0.47000000000E+01 0.  1.
<mgrwt>
<rscale>  0 0.99961219E+03</rscale>
<asrwt>0</asrwt>
<pdfrwt beam="1">  1        2 0.65409335E-01 0.99961219E+03</pdfrwt>
<pdfrwt beam="2">  1       -2 0.90393384E-01 0.99961219E+03</pdfrwt>
<totfact> 0.92767349E+01</totfact>
</mgrwt>
</event>
<event>
 9    1  0.4497870E-036  0.1000474E+04  0.7818608E-02  0.8680587E-01
         -2   -1    0    0    0  501 -0.00000000000E+00  0.00000000000E+00  0.23587768240E+03  0.23587768240E+03  0.00000000000E+00 0.  1.
          2   -1    0    0  501    0  0.00000000000E+00 -0.00000000000E+00 -0.10608767477E+04  0.10608767477E+04  0.00000000000E+00 0.  1.
         36    2    1    2    0    0 -0.14210854715E-13 -0.71054273576E-14 -0.82499906529E+03  0.12967544301E+04  0.10004741847E+04 0.  0.
         25    2    3    3    0    0 -0.12088347809E+03  0.62334451067E+02 -0.20238947168E+03  0.27334544326E+03  0.12352260539E+03 0.  0.
         35    2    3    3    0    0  0.12088347809E+03 -0.62334451067E+02 -0.62260959362E+03  0.10234089868E+04  0.80076516483E+03 0.  0.
         22    1    5    5    0    0 -0.97728506803E+02 -0.11976524090E+03  0.15182170112E+03  0.21666657080E+03  0.00000000000E+00 0. -1.
         22    1    5    5    0    0  0.21861198489E+03  0.57430789837E+02 -0.77443129474E+03  0.80674241604E+03  0.00000000000E+00 0. -1.
          5    1    4    4  502    0 -0.28647477696E+02  0.64144191125E+02 -0.27553635719E+02  0.75607195919E+02  0.47000000000E+01 0. -1.
         -5    1    4    4    0  502 -0.92236000390E+02 -0.18097400578E+01 -0.17483583596E+03  0.19773824734E+03  0.47000000000E+01 0. -1.
<mgrwt>
<rscale>  0 0.10004742E+04</rscale>
<asrwt>0</asrwt>
<pdfrwt beam="1">  1        2 0.16321181E+00 0.10004742E+04</pdfrwt>
<pdfrwt beam="2">  1       -2 0.36288874E-01 0.10004742E+04</pdfrwt>
<totfact> 0.19887125E+02</totfact>
</mgrwt>
</event>
<event>
 9    1  0.4497870E-036  0.1000207E+04  0.7818608E-02  0.8680841E-01
          2   -1    0    0  501    0  0.00000000000E+00  0.00000000000E+00  0.22695758773E+04  0.22695758773E+04  0.00000000000E+00 0. -1.
         -2   -1    0    0    0  501 -0.00000000000E+00 -0.00000000000E+00 -0.11019826079E+03  0.11019826079E+03  0.00000000000E+00 0. -1.
         36    2    1    2    0    0  0.14210854715E-13  0.00000000000E+00  0.21593776165E+04  0.23797741381E+04  0.10002066075E+04 0.  0.
         25    2    3    3    0    0  0.12065054922E+03 -0.15073478351E+02  0.24029849608E+03  0.29685789553E+03  0.12488986405E+03 0.  0.
         35    2    3    3    0    0 -0.12065054922E+03  0.15073478351E+02  0.19190791204E+04  0.20829162426E+04  0.80055707998E+03 0.  0.
         22    1    5    5    0    0 -0.13237099631E+03 -0.38947927325E+02 -0.23141547126E+02  0.13990908802E+03  0.00000000000E+00 0. -1.
         22    1    5    5    0    0  0.11720447090E+02  0.54021405676E+02  0.19422206675E+04  0.19430071545E+04  0.00000000000E+00 0. -1.
          5    1    4    4  502    0  0.10374835082E+03  0.31048310346E+02  0.97575206499E+02  0.14584487923E+03  0.47000000000E+01 0.  1.
         -5    1    4    4    0  502  0.16902198397E+02 -0.46121788696E+02  0.14272328958E+03  0.15101301630E+03  0.47000000000E+01 0.  1.
<mgrwt>
<rscale>  0 0.10002066E+04</rscale>
<asrwt>0</asrwt>
<pdfrwt beam="1">  1        2 0.34916548E+00 0.10002066E+04</pdfrwt>
<pdfrwt beam="2">  1       -2 0.16953580E-01 0.10002066E+04</pdfrwt>
<totfact> 0.15549529E+02</totfact>
</mgrwt>
</event>
<event>
 9    1  0.4497870E-036  0.1000283E+04  0.7818608E-02  0.8680768E-01
          2   -1    0    0  501    0  0.00000000000E+00  0.00000000000E+00  0.33013488395E+04  0.33013488395E+04  0.00000000000E+00 0. -1.
         -2   -1    0    0    0  501 -0.00000000000E+00 -0.00000000000E+00 -0.75769499094E+02  0.75769499094E+02  0.00000000000E+00 0. -1.
         36    2    1    2    0    0 -0.42632564146E-13 -0.14210854715E-13  0.32255793404E+04  0.33771183386E+04  0.10002830557E+04 0.  0.
         25    2    3    3    0    0 -0.47584178317E+02 -0.11420434060E+03  0.83093626048E+03  0.84935946692E+03  0.12509815999E+03 0.  0.
         35    2    3    3    0    0  0.47584178317E+02  0.11420434060E+03  0.23946430799E+04  0.25277588716E+04  0.79996409147E+03 0.  0.
         22    1    5    5    0    0 -0.28151592254E+03 -0.16517879967E+03  0.14908065583E+04  0.15261190795E+04  0.00000000000E+00 0.  1.
         22    1    5    5    0    0  0.32910010086E+03  0.27938314027E+03  0.90383652156E+03  0.10016397921E+04  0.00000000000E+00 0.  1.
          5    1    4    4  502    0 -0.80342261837E+02 -0.39706277362E+02  0.53161395475E+03  0.53913537667E+03  0.47000000000E+01 0. -1.
         -5    1    4    4    0  502  0.32758083520E+02 -0.74498063235E+02  0.29932230573E+03  0.31022409025E+03  0.47000000000E+01 0. -1.
<mgrwt>
<rscale>  0 0.10002831E+04</rscale>
<asrwt>0</asrwt>
<pdfrwt beam="1">  1        2 0.50789971E+00 0.10002831E+04</pdfrwt>
<pdfrwt beam="2">  1       -2 0.11656849E-01 0.10002831E+04</pdfrwt>
<totfact> 0.62923881E+01</totfact>
</mgrwt>
</event>
<event>
 9    1  0.4497870E-036  0.1000982E+04  0.7818608E-02  0.8680104E-01
         -2   -1    0    0    0  501 -0.00000000000E+00  0.00000000000E+00  0.86968507129E+02  0.86968507129E+02  0.00000000000E+00 0. -1.
          2   -1    0    0  501    0  0.00000000000E+00 -0.00000000000E+00 -0.28802507256E+04  0.28802507256E+04  0.00000000000E+00 0. -1.
         36    2    1    2    0    0 -0.14210854715E-13 -0.35527136788E-13 -0.27932822185E+04  0.29672192327E+04  0.10009817296E+04 0.  0.
         25    2    3    3    0    0  0.12780022646E+03 -0.11838363653E+02 -0.34886629719E+03  0.39192912523E+03  0.12420829741E+03 0.  0.
         35    2    3    3    0    0 -0.12780022646E+03  0.11838363653E+02 -0.24444159213E+04  0.25752901075E+04  0.80029800504E+03 0.  0.
         22    1    5    5    0    0 -0.39016718337E+02  0.33408246960E+03 -0.19480420363E+04  0.19768665043E+04  0.00000000000E+00 0. -1.
         22    1    5    5    0    0 -0.88783508123E+02 -0.32224410595E+03 -0.49637388500E+03  0.59842360318E+03  0.00000000000E+00 0. -1.
          5    1    4    4  502    0  0.81925683399E+01 -0.51019449174E+02 -0.11897692527E+03  0.12979869459E+03  0.47000000000E+01 0. -1.
         -5    1    4    4    0  502  0.11960765812E+03  0.39181085520E+02 -0.22988937192E+03  0.26213043064E+03  0.47000000000E+01 0. -1.
<mgrwt>
<rscale>  0 0.10009817E+04</rscale>
<asrwt>0</asrwt>
<pdfrwt beam="1">  1        2 0.44311549E+00 0.10009817E+04</pdfrwt>
<pdfrwt beam="2">  1       -2 0.13379770E-01 0.10009817E+04</pdfrwt>
<totfact> 0.97122448E+01</totfact>
</mgrwt>
</event>
<event>
 9    1  0.4497870E-036  0.1000810E+04  0.7818608E-02  0.8680267E-01
         -2   -1    0    0    0  501 -0.00000000000E+00  0.00000000000E+00  0.44165289923E+03  0.44165289923E+03  0.00000000000E+00 0. -1.
          2   -1    0    0  501    0  0.00000000000E+00 -0.00000000000E+00 -0.56697300851E+03  0.56697300851E+03  0.00000000000E+00 0. -1.
         36    2    1    2    0    0  0.14210854715E-13 -0.14210854715E-13 -0.12532010928E+03  0.10086259077E+04  0.10008102178E+04 0.  0.
         25    2    3    3    0    0  0.32484152678E+02 -0.89939715936E+02 -0.12885559950E+03  0.20335290909E+03  0.12491704221E+03 0.  0.
         35    2    3    3    0    0 -0.32484152678E+02  0.89939715936E+02  0.35354902192E+01  0.80527299865E+03  0.79956721418E+03 0.  0.
         22    1    5    5    0    0 -0.20044875988E+03 -0.25307899290E+03 -0.19259068483E+03  0.37592533018E+03  0.00000000000E+00 0. -1.
         22    1    5    5    0    0  0.16796460720E+03  0.34301870884E+03  0.19612617505E+03  0.42934766848E+03  0.00000000000E+00 0. -1.
          5    1    4    4  502    0  0.32967852033E+02  0.65213927187E+00 -0.10413198812E+03  0.10932916127E+03  0.47000000000E+01 0. -1.
         -5    1    4    4    0  502 -0.48369935534E+00 -0.90591855208E+02 -0.24723611379E+02  0.94023747823E+02  0.47000000000E+01 0. -1.
<mgrwt>
<rscale>  0 0.10008102E+04</rscale>
<asrwt>0</asrwt>
<pdfrwt beam="1">  1        2 0.87226617E-01 0.10008102E+04</pdfrwt>
<pdfrwt beam="2">  1       -2 0.67946600E-01 0.10008102E+04</pdfrwt>
<totfact> 0.12740652E+02</totfact>
</mgrwt>
</event>
<event>
 9    1  0.4497870E-036  0.9990240E+03  0.7818608E-02  0.8681968E-01
         -2   -1    0    0    0  501 -0.00000000000E+00  0.00000000000E+00  0.36833907743E+03  0.36833907743E+03  0.00000000000E+00 0. -1.
          2   -1    0    0  501    0  0.00000000000E+00 -0.00000000000E+00 -0.67739817479E+03  0.67739817479E+03  0.00000000000E+00 0. -1.
         36    2    1    2    0    0 -0.14210854715E-13  0.00000000000E+00 -0.30905909736E+03  0.10457372522E+04  0.99902396119E+03 0.  0.
         25    2    3    3    0    0 -0.64258339890E+02  0.66348679726E+02 -0.16931690226E+03  0.23008598946E+03  0.12545942614E+03 0.  0.
         35    2    3    3    0    0  0.64258339890E+02 -0.66348679726E+02 -0.13974219510E+03  0.81565126276E+03  0.79826550709E+03 0.  0.
         22    1    5    5    0    0 -0.20971296996E+03  0.22401892875E+03 -0.25624611772E+03  0.39978254471E+03  0.00000000000E+00 0.  1.
         22    1    5    5    0    0  0.27397130985E+03 -0.29036760847E+03  0.11650392263E+03  0.41586871806E+03  0.00000000000E+00 0.  1.
          5    1    4    4  502    0  0.98356071653E+01  0.56301149239E+02 -0.16149483661E+02  0.59577297660E+02  0.47000000000E+01 0. -1.
         -5    1    4    4    0  502 -0.74093947056E+02  0.10047530487E+02 -0.15316741860E+03  0.17050869180E+03  0.47000000000E+01 0. -1.
<mgrwt>
<rscale>  0 0.99902396E+03</rscale>
<asrwt>0</asrwt>
<pdfrwt beam="1">  1        2 0.10421510E+00 0.99902396E+03</pdfrwt>
<pdfrwt beam="2">  1       -2 0.56667551E-01 0.99902396E+03</pdfrwt>
<totfact> 0.15094543E+02</totfact>
</mgrwt>
</event>
<event>
 9    1  0.4497870E-036  0.1000187E+04  0.7818608E-02  0.8680860E-01
         -2   -1    0    0    0  501 -0.00000000000E+00  0.00000000000E+00  0.42265267654E+03  0.42265267654E+03  0.00000000000E+00 0. -1.
          2   -1    0    0  501    0  0.00000000000E+00 -0.00000000000E+00 -0.59172386331E+03  0.59172386331E+03  0.00000000000E+00 0. -1.
         36    2    1    2    0    0  0.00000000000E+00  0.00000000000E+00 -0.16907118677E+03  0.10143765398E+04  0.10001873316E+04 0.  0.
         25    2    3    3    0    0 -0.73879812030E+02 -0.84116114064E+02  0.64859093107E+02  0.17964654366E+03  0.12462917563E+03 0.  0.
         35    2    3    3    0    0  0.73879812030E+02  0.84116114064E+02 -0.23393027988E+03  0.83472999619E+03  0.79342110094E+03 0.  0.
         22    1    5    5    0    0  0.17307646168E+03  0.63650319854E+01 -0.50603519429E+03  0.53485287050E+03  0.00000000000E+00 0.  1.
         22    1    5    5    0    0 -0.99196649647E+02  0.77751082079E+02  0.27210491441E+03  0.29987712569E+03  0.00000000000E+00 0.  1.
          5    1    4    4  502    0 -0.68829334052E+02 -0.11165403210E+03  0.72907255630E+02  0.15013879590E+03  0.47000000000E+01 0. -1.
         -5    1    4    4    0  502 -0.50504779785E+01  0.27537918037E+02 -0.80481625236E+01  0.29507747756E+02  0.47000000000E+01 0. -1.
<mgrwt>
<rscale>  0 0.10001873E+04</rscale>
<asrwt>0</asrwt>
<pdfrwt beam="1">  1        2 0.91034440E-01 0.10001873E+04</pdfrwt>
<pdfrwt beam="2">  1       -2 0.65023489E-01 0.10001873E+04</pdfrwt>
<totfact> 0.13312208E+02</totfact>
</mgrwt>
</event>
<event>
 9    1  0.4497870E-036  0.9997653E+03  0.7818608E-02  0.8681262E-01
          2   -1    0    0  501    0  0.00000000000E+00  0.00000000000E+00  0.94132620326E+03  0.94132620326E+03  0.00000000000E+00 0. -1.
         -2   -1    0    0    0  501 -0.00000000000E+00 -0.00000000000E+00 -0.26545807461E+03  0.26545807461E+03  0.00000000000E+00 0. -1.
         36    2    1    2    0    0  0.71054273576E-14  0.14210854715E-13  0.67586812865E+03  0.12067842779E+04  0.99976525544E+03 0.  0.
         25    2    3    3    0    0  0.44314632267E+02  0.12655602277E+03  0.79393021766E+02  0.19989923177E+03  0.12520478196E+03 0.  0.
         35    2    3    3    0    0 -0.44314632267E+02 -0.12655602277E+03  0.59647510688E+03  0.10068850461E+04  0.80003420514E+03 0.  0.
         22    1    5    5    0    0  0.27717410258E+02 -0.60665752375E+02  0.78858155603E+03  0.79139715621E+03  0.00000000000E+00 0.  1.
         22    1    5    5    0    0 -0.72032042525E+02 -0.65890270391E+02 -0.19210644915E+03  0.21548788989E+03  0.00000000000E+00 0.  1.
          5    1    4    4  502    0  0.13925840489E+02 -0.17483919556E+02 -0.12756840547E+02  0.26161870290E+02  0.47000000000E+01 0. -1.
         -5    1    4    4    0  502  0.30388791778E+02  0.14403994232E+03  0.92149862312E+02  0.17373736148E+03  0.47000000000E+01 0. -1.
<mgrwt>
<rscale>  0 0.99976526E+03</rscale>
<asrwt>0</asrwt>
<pdfrwt beam="1">  1        2 0.14481941E+00 0.99976526E+03</pdfrwt>
<pdfrwt beam="2">  1       -2 0.40839704E-01 0.99976526E+03</pdfrwt>
<totfact> 0.18890035E+02</totfact>
</mgrwt>
</event>
<event>
 9    1  0.4497870E-036  0.9994981E+03  0.7818608E-02  0.8681516E-01
          1   -1    0    0  501    0  0.00000000000E+00  0.00000000000E+00  0.26288342661E+03  0.26288342661E+03  0.00000000000E+00 0. -1.
         -1   -1    0    0    0  501 -0.00000000000E+00 -0.00000000000E+00 -0.95003757280E+03  0.95003757280E+03  0.00000000000E+00 0. -1.
         36    2    1    2    0    0  0.00000000000E+00  0.71054273576E-14 -0.68715414619E+03  0.12129209994E+04  0.99949813917E+03 0.  0.
         25    2    3    3    0    0 -0.12881158909E+03 -0.13901376271E+02 -0.19717367372E+03  0.26669485884E+03  0.12435037749E+03 0.  0.
         35    2    3    3    0    0  0.12881158909E+03  0.13901376271E+02 -0.48998047247E+03  0.94622614057E+03  0.79904779078E+03 0.  0.
         22    1    5    5    0    0 -0.14760367741E+03 -0.76536366626E+02 -0.60951486972E+03  0.63178559449E+03  0.00000000000E+00 0.  1.
         22    1    5    5    0    0  0.27641526649E+03  0.90437742897E+02  0.11953439725E+03  0.31444054608E+03  0.00000000000E+00 0.  1.
          5    1    4    4  502    0 -0.52472108822E+01  0.42817816875E+02 -0.43188083422E+02  0.61222538445E+02  0.47000000000E+01 0. -1.
         -5    1    4    4    0  502 -0.12356437820E+03 -0.56719193146E+02 -0.15398559029E+03  0.20547232040E+03  0.47000000000E+01 0. -1.
<mgrwt>
<rscale>  0 0.99949814E+03</rscale>
<asrwt>0</asrwt>
<pdfrwt beam="1">  1        1 0.40443604E-01 0.99949814E+03</pdfrwt>
<pdfrwt beam="2">  1       -1 0.14615963E+00 0.99949814E+03</pdfrwt>
<totfact> 0.45996162E+01</totfact>
</mgrwt>
</event>
<event>
 9    1  0.4497870E-036  0.1000146E+04  0.7818608E-02  0.8680899E-01
          1   -1    0    0  501    0  0.00000000000E+00  0.00000000000E+00  0.10312784446E+04  0.10312784446E+04  0.00000000000E+00 0.  1.
         -1   -1    0    0    0  501 -0.00000000000E+00 -0.00000000000E+00 -0.24248829557E+03  0.24248829557E+03  0.00000000000E+00 0.  1.
         36    2    1    2    0    0  0.28421709430E-13  0.71054273576E-14  0.78879014902E+03  0.12737667402E+04  0.10001458939E+04 0.  0.
         25    2    3    3    0    0 -0.10907099936E+03 -0.60346289748E+02  0.23101724141E+03  0.29084613696E+03  0.12523718285E+03 0.  0.
         35    2    3    3    0    0  0.10907099936E+03  0.60346289748E+02  0.55777290761E+03  0.98292060320E+03  0.79967752134E+03 0.  0.
         22    1    5    5    0    0 -0.23335240382E+03 -0.60812490800E+02 -0.75658685183E+02  0.25273650319E+03  0.00000000000E+00 0.  1.
         22    1    5    5    0    0  0.34242340317E+03  0.12115878055E+03  0.63343159280E+03  0.73018410000E+03  0.00000000000E+00 0.  1.
          5    1    4    4  502    0 -0.64366103051E+02  0.17892598169E+02  0.16780208695E+03  0.18067310446E+03  0.47000000000E+01 0. -1.
         -5    1    4    4    0  502 -0.44704896306E+02 -0.78238887916E+02  0.63215154457E+02  0.11017303250E+03  0.47000000000E+01 0. -1.
<mgrwt>
<rscale>  0 0.10001459E+04</rscale>
<asrwt>0</asrwt>
<pdfrwt beam="1">  1        1 0.15865822E+00 0.10001459E+04</pdfrwt>
<pdfrwt beam="2">  1       -1 0.37305892E-01 0.10001459E+04</pdfrwt>
<totfact> 0.11048766E+02</totfact>
</mgrwt>
</event>
<event>
 9    1  0.4497870E-036  0.9995090E+03  0.7818608E-02  0.8681506E-01
         -3   -1    0    0    0  501 -0.00000000000E+00  0.00000000000E+00  0.79933304840E+03  0.79933304840E+03  0.00000000000E+00 0.  1.
          3   -1    0    0  501    0  0.00000000000E+00 -0.00000000000E+00 -0.31245370916E+03  0.31245370916E+03  0.00000000000E+00 0.  1.
         36    2    1    2    0    0  0.00000000000E+00  0.14210854715E-13  0.48687933924E+03  0.11117867576E+04  0.99950903114E+03 0.  0.
         25    2    3    3    0    0  0.14598784815E+02  0.62868473230E+02  0.22078254666E+03  0.26401294793E+03  0.12958523959E+03 0.  0.
         35    2    3    3    0    0 -0.14598784815E+02 -0.62868473230E+02  0.26609679258E+03  0.84777380964E+03  0.80233868151E+03 0.  0.
         22    1    5    5    0    0 -0.23733868696E+03 -0.25992141097E+03 -0.10957206355E+03  0.36863915869E+03  0.00000000000E+00 0. -1.
         22    1    5    5    0    0  0.22273990214E+03  0.19705293774E+03  0.37566885613E+03  0.47913465096E+03  0.00000000000E+00 0. -1.
          5    1    4    4  502    0  0.51857938821E+02  0.12344316798E+02  0.18283960011E+03  0.19050994028E+03  0.47000000000E+01 0. -1.
         -5    1    4    4    0  502 -0.37259154006E+02  0.50524156432E+02  0.37942946544E+02  0.73503007645E+02  0.47000000000E+01 0. -1.
<mgrwt>
<rscale>  0 0.99950903E+03</rscale>
<asrwt>0</asrwt>
<pdfrwt beam="1">  1        3 0.48069802E-01 0.99950903E+03</pdfrwt>
<pdfrwt beam="2">  1       -3 0.12297431E+00 0.99950903E+03</pdfrwt>
<totfact> 0.79547257E+00</totfact>
</mgrwt>
</event>
<event>
 9    1  0.4497870E-036  0.9996893E+03  0.7818608E-02  0.8681334E-01
          1   -1    0    0  501    0  0.00000000000E+00  0.00000000000E+00  0.96071751385E+03  0.96071751385E+03  0.00000000000E+00 0. -1.
         -1   -1    0    0    0  501 -0.00000000000E+00 -0.00000000000E+00 -0.26006048358E+03  0.26006048358E+03  0.00000000000E+00 0. -1.
         36    2    1    2    0    0  0.00000000000E+00 -0.28421709430E-13  0.70065703026E+03  0.12207779974E+04  0.99968927420E+03 0.  0.
         25    2    3    3    0    0 -0.57658865937E+02 -0.72198655751E+02  0.26034854880E+03  0.30327642796E+03  0.12513206696E+03 0.  0.
         35    2    3    3    0    0  0.57658865937E+02  0.72198655751E+02  0.44030848146E+03  0.91750156947E+03  0.79962514994E+03 0.  0.
         22    1    5    5    0    0 -0.44936826107E+01  0.42469601764E+03  0.34475735098E+03  0.54703247768E+03  0.00000000000E+00 0. -1.
         22    1    5    5    0    0  0.62152548548E+02 -0.35249736189E+03  0.95551130489E+02  0.37046909179E+03  0.00000000000E+00 0. -1.
          5    1    4    4  502    0 -0.29329258544E+02 -0.23860752170E+02  0.12215521759E+01  0.38119851660E+02  0.47000000000E+01 0.  1.
         -5    1    4    4    0  502 -0.28329607393E+02 -0.48337903582E+02  0.25912699662E+03  0.26515657630E+03  0.47000000000E+01 0.  1.
<mgrwt>
<rscale>  0 0.99968927E+03</rscale>
<asrwt>0</asrwt>
<pdfrwt beam="1">  1        1 0.14780269E+00 0.99968927E+03</pdfrwt>
<pdfrwt beam="2">  1       -1 0.40009306E-01 0.99968927E+03</pdfrwt>
<totfact> 0.11109375E+02</totfact>
</mgrwt>
</event>
<event>
 9    1  0.4497870E-036  0.1000192E+04  0.7818608E-02  0.8680855E-01
         -2   -1    0    0    0  501 -0.00000000000E+00  0.00000000000E+00  0.34461763256E+03  0.34461763256E+03  0.00000000000E+00 0.  1.
          2   -1    0    0  501    0  0.00000000000E+00 -0.00000000000E+00 -0.72572048856E+03  0.72572048856E+03  0.00000000000E+00 0.  1.
         36    2    1    2    0    0  0.71054273576E-14 -0.10658141036E-13 -0.38110285600E+03  0.10703381211E+04  0.10001921349E+04 0.  0.
         25    2    3    3    0    0 -0.42296049279E+02  0.22394786686E+02 -0.21171357339E+03  0.25070758572E+03  0.12546383593E+03 0.  0.
         35    2    3    3    0    0  0.42296049279E+02 -0.22394786686E+02 -0.16938928262E+03  0.81963053540E+03  0.80050671654E+03 0.  0.
         22    1    5    5    0    0  0.41604132274E+03 -0.79930464839E+02 -0.97094898879E+02  0.43463396189E+03  0.00000000000E+00 0.  1.
         22    1    5    5    0    0 -0.37374527346E+03  0.57535678153E+02 -0.72294383738E+02  0.38499657351E+03  0.00000000000E+00 0.  1.
          5    1    4    4  502    0 -0.10606873866E+02  0.64439934854E+01  0.15664532555E+02  0.20530426333E+02  0.47000000000E+01 0. -1.
         -5    1    4    4    0  502 -0.31689175412E+02  0.15950793201E+02 -0.22737810594E+03  0.23017715939E+03  0.47000000000E+01 0. -1.
<mgrwt>
<rscale>  0 0.10001921E+04</rscale>
<asrwt>0</asrwt>
<pdfrwt beam="1">  1        2 0.11164930E+00 0.10001921E+04</pdfrwt>
<pdfrwt beam="2">  1       -2 0.53018098E-01 0.10001921E+04</pdfrwt>
<totfact> 0.15888739E+02</totfact>
</mgrwt>
</event>
<event>
 9    1  0.4497870E-036  0.1000253E+04  0.7818608E-02  0.8680798E-01
          2   -1    0    0  501    0  0.00000000000E+00  0.00000000000E+00  0.15061318841E+04  0.15061318841E+04  0.00000000000E+00 0.  1.
         -2   -1    0    0    0  501 -0.00000000000E+00 -0.00000000000E+00 -0.16607195497E+03  0.16607195497E+03  0.00000000000E+00 0.  1.
         36    2    1    2    0    0  0.00000000000E+00 -0.42632564146E-13  0.13400599291E+04  0.16722038390E+04  0.10002525010E+04 0.  0.
         25    2    3    3    0    0  0.59734071780E+02  0.13118346658E+02  0.39431184755E+02  0.14447045068E+03  0.12480641985E+03 0.  0.
         35    2    3    3    0    0 -0.59734071780E+02 -0.13118346658E+02  0.13006287444E+04  0.15277333884E+04  0.79912071988E+03 0.  0.
         22    1    5    5    0    0  0.27858688466E+02 -0.38133915774E+03  0.89334335092E+03  0.97172938742E+03  0.00000000000E+00 0. -1.
         22    1    5    5    0    0 -0.87592760246E+02  0.36822081108E+03  0.40728539345E+03  0.55600400095E+03  0.00000000000E+00 0. -1.
          5    1    4    4  502    0  0.79766795177E+02 -0.33658881947E+01 -0.17377120290E+02  0.81842074300E+02  0.47000000000E+01 0.  1.
         -5    1    4    4    0  502 -0.20032723398E+02  0.16484234852E+02  0.56808305044E+02  0.62628376375E+02  0.47000000000E+01 0.  1.
<mgrwt>
<rscale>  0 0.10002525E+04</rscale>
<asrwt>0</asrwt>
<pdfrwt beam="1">  1        2 0.23171259E+00 0.10002525E+04</pdfrwt>
<pdfrwt beam="2">  1       -2 0.25549532E-01 0.10002525E+04</pdfrwt>
<totfact> 0.20744068E+02</totfact>
</mgrwt>
</event>
<event>
 9    1  0.4497870E-036  0.9983162E+03  0.7818608E-02  0.8682643E-01
         -2   -1    0    0    0  501 -0.00000000000E+00  0.00000000000E+00  0.17037660840E+03  0.17037660840E+03  0.00000000000E+00 0.  1.
          2   -1    0    0  501    0  0.00000000000E+00 -0.00000000000E+00 -0.14624004514E+04  0.14624004514E+04  0.00000000000E+00 0.  1.
         36    2    1    2    0    0  0.14210854715E-13  0.14210854715E-13 -0.12920238430E+04  0.16327770598E+04  0.99831624052E+03 0.  0.
         25    2    3    3    0    0 -0.73212692946E+02 -0.11810292964E+03 -0.18124356859E+03  0.25721366894E+03  0.11832683523E+03 0.  0.
         35    2    3    3    0    0  0.73212692946E+02  0.11810292964E+03 -0.11107802744E+04  0.13755633908E+04  0.79939566162E+03 0.  0.
         22    1    5    5    0    0 -0.23537743768E+03  0.27726015516E+03 -0.23383707464E+03  0.43238352106E+03  0.00000000000E+00 0.  1.
         22    1    5    5    0    0  0.30859013062E+03 -0.15915722551E+03 -0.87694319976E+03  0.94317986978E+03  0.00000000000E+00 0.  1.
          5    1    4    4  502    0 -0.91739235338E+02 -0.39855286066E+02 -0.11830085247E+03  0.15498939584E+03  0.47000000000E+01 0.  1.
         -5    1    4    4    0  502  0.18526542393E+02 -0.78247643578E+02 -0.62942716120E+02  0.10222427310E+03  0.47000000000E+01 0.  1.
<mgrwt>
<rscale>  0 0.99831624E+03</rscale>
<asrwt>0</asrwt>
<pdfrwt beam="1">  1        2 0.22498469E+00 0.99831624E+03</pdfrwt>
<pdfrwt beam="2">  1       -2 0.26211786E-01 0.99831624E+03</pdfrwt>
<totfact> 0.20982973E+02</totfact>
</mgrwt>
</event>
<event>
 9    1  0.4497870E-036  0.1002816E+04  0.7818608E-02  0.8678361E-01
          2   -1    0    0  501    0  0.00000000000E+00  0.00000000000E+00  0.16902644143E+04  0.16902644143E+04  0.00000000000E+00 0. -1.
         -2   -1    0    0    0  501 -0.00000000000E+00 -0.00000000000E+00 -0.14873990468E+03  0.14873990468E+03  0.00000000000E+00 0. -1.
         36    2    1    2    0    0 -0.14210854715E-13  0.00000000000E+00  0.15415245097E+04  0.18390043190E+04  0.10028155720E+04 0.  0.
         25    2    3    3    0    0  0.64367980612E+02  0.10578630506E+03  0.35961867804E+03  0.40497189453E+03  0.13907790080E+03 0.  0.
         35    2    3    3    0    0 -0.64367980612E+02 -0.10578630506E+03  0.11819058316E+04  0.14340324245E+04  0.80262919235E+03 0.  0.
         22    1    5    5    0    0  0.35822780756E+03  0.21753427960E+02  0.41053731470E+03  0.54529007005E+03  0.00000000000E+00 0. -1.
         22    1    5    5    0    0 -0.42259578817E+03 -0.12753973302E+03  0.77136851692E+03  0.88874235444E+03  0.00000000000E+00 0. -1.
          5    1    4    4  502    0  0.10428488038E+03  0.46532353843E+02  0.23260228757E+03  0.25916502544E+03  0.47000000000E+01 0. -1.
         -5    1    4    4    0  502 -0.39916899771E+02  0.59253951221E+02  0.12701639047E+03  0.14580686908E+03  0.47000000000E+01 0. -1.
<mgrwt>
<rscale>  0 0.10028156E+04</rscale>
<asrwt>0</asrwt>
<pdfrwt beam="1">  1        2 0.26004067E+00 0.10028156E+04</pdfrwt>
<pdfrwt beam="2">  1       -2 0.22883063E-01 0.10028156E+04</pdfrwt>
<totfact> 0.19841934E+02</totfact>
</mgrwt>
</event>
<event>
 9    1  0.4497870E-036  0.9994069E+03  0.7818608E-02  0.8681603E-01
          2   -1    0    0  501    0  0.00000000000E+00  0.00000000000E+00  0.55122521301E+03  0.55122521301E+03  0.00000000000E+00 0.  1.
         -2   -1    0    0    0  501 -0.00000000000E+00 -0.00000000000E+00 -0.45299733356E+03  0.45299733356E+03  0.00000000000E+00 0.  1.
         36    2    1    2    0    0 -0.28421709430E-13  0.71054273576E-14  0.98227879450E+02  0.10042225466E+04  0.99940692750E+03 0.  0.
         25    2    3    3    0    0  0.10611283211E+03  0.34359641796E+02 -0.66739643960E+02  0.18022854524E+03  0.12485043181E+03 0.  0.
         35    2    3    3    0    0 -0.10611283211E+03 -0.34359641796E+02  0.16496752341E+03  0.82399400133E+03  0.79956945435E+03 0.  0.
         22    1    5    5    0    0  0.34825747193E+03 -0.54269565652E+02  0.76323531039E+02  0.36062963537E+03  0.00000000000E+00 0. -1.
         22    1    5    5    0    0 -0.45437030404E+03  0.19909923856E+02  0.88643992371E+02  0.46336436596E+03  0.00000000000E+00 0. -1.
          5    1    4    4  502    0  0.69901465129E+02  0.77068134678E+02 -0.67355807951E+02  0.12403470109E+03  0.47000000000E+01 0. -1.
         -5    1    4    4    0  502  0.36211366977E+02 -0.42708492882E+02  0.61616399157E+00  0.56193844152E+02  0.47000000000E+01 0. -1.
<mgrwt>
<rscale>  0 0.99940693E+03</rscale>
<asrwt>0</asrwt>
<pdfrwt beam="1">  1        2 0.84803879E-01 0.99940693E+03</pdfrwt>
<pdfrwt beam="2">  1       -2 0.69691898E-01 0.99940693E+03</pdfrwt>
<totfact> 0.12464921E+02</totfact>
</mgrwt>
</event>
<event>
 9    1  0.4497870E-036  0.1000242E+04  0.7818608E-02  0.8680807E-01
         -1   -1    0    0    0  501 -0.00000000000E+00  0.00000000000E+00  0.37171721343E+03  0.37171721343E+03  0.00000000000E+00 0. -1.
          1   -1    0    0  501    0  0.00000000000E+00 -0.00000000000E+00 -0.67288021003E+03  0.67288021003E+03  0.00000000000E+00 0. -1.
         36    2    1    2    0    0  0.42632564146E-13  0.00000000000E+00 -0.30116299660E+03  0.10445974235E+04  0.10002422839E+04 0.  0.
         25    2    3    3    0    0 -0.33709772016E+02 -0.69584125571E+02 -0.18011896580E+03  0.23252699839E+03  0.12509062267E+03 0.  0.
         35    2    3    3    0    0  0.33709772016E+02  0.69584125571E+02 -0.12104403080E+03  0.81207042507E+03  0.79926742623E+03 0.  0.
         22    1    5    5    0    0 -0.30791219300E+03 -0.11919448828E+03  0.12231659490E+03  0.35210594148E+03  0.00000000000E+00 0. -1.
         22    1    5    5    0    0  0.34162196502E+03  0.18877861385E+03 -0.24336062570E+03  0.45996448360E+03  0.00000000000E+00 0. -1.
          5    1    4    4  502    0 -0.44289017318E+02  0.16526784457E+02 -0.22538606875E+02  0.52580704249E+02  0.47000000000E+01 0. -1.
         -5    1    4    4    0  502  0.10579245303E+02 -0.86110910028E+02 -0.15758035892E+03  0.17994629414E+03  0.47000000000E+01 0. -1.
<mgrwt>
<rscale>  0 0.10002423E+04</rscale>
<asrwt>0</asrwt>
<pdfrwt beam="1">  1        1 0.10352003E+00 0.10002423E+04</pdfrwt>
<pdfrwt beam="2">  1       -1 0.57187265E-01 0.10002423E+04</pdfrwt>
<totfact> 0.10329411E+02</totfact>
</mgrwt>
</event>
<event>
 9    1  0.4497870E-036  0.1000530E+04  0.7818608E-02  0.8680533E-01
          2   -1    0    0  501    0  0.00000000000E+00  0.00000000000E+00  0.38498540186E+04  0.38498540186E+04  0.00000000000E+00 0.  1.
         -2   -1    0    0    0  501 -0.00000000000E+00 -0.00000000000E+00 -0.65006417256E+02  0.65006417256E+02  0.00000000000E+00 0.  1.
         36    2    1    2    0    0  0.21316282073E-13  0.00000000000E+00  0.37848476013E+04  0.39148604358E+04  0.10005302928E+04 0.  0.
         25    2    3    3    0    0 -0.53157097070E+02 -0.11838571277E+03  0.50755258251E+03  0.53871064695E+03  0.12553359379E+03 0.  0.
         35    2    3    3    0    0  0.53157097070E+02  0.11838571277E+03  0.32772950188E+04  0.33761497889E+04  0.80055224857E+03 0.  0.
         22    1    5    5    0    0  0.32240921500E+03  0.33399522274E+03  0.17666600882E+04  0.18266330715E+04  0.00000000000E+00 0. -1.
         22    1    5    5    0    0 -0.26925211793E+03 -0.21560950997E+03  0.15106349306E+04  0.15495167174E+04  0.00000000000E+00 0. -1.
          5    1    4    4  502    0 -0.42320231931E+02 -0.23615992555E+01  0.46319229485E+02  0.62961418359E+02  0.47000000000E+01 0.  1.
         -5    1    4    4    0  502 -0.10836865139E+02 -0.11602411351E+03  0.46123335302E+03  0.47574922859E+03  0.47000000000E+01 0.  1.
<mgrwt>
<rscale>  0 0.10005303E+04</rscale>
<asrwt>0</asrwt>
<pdfrwt beam="1">  1        2 0.59228506E+00 0.10005303E+04</pdfrwt>
<pdfrwt beam="2">  1       -2 0.10000990E-01 0.10005303E+04</pdfrwt>
<totfact> 0.30454453E+01</totfact>
</mgrwt>
</event>
<event>
 9    1  0.4497870E-036  0.9999633E+03  0.7818608E-02  0.8681073E-01
         -1   -1    0    0    0  501 -0.00000000000E+00  0.00000000000E+00  0.30251959724E+03  0.30251959724E+03  0.00000000000E+00 0. -1.
          1   -1    0    0  501    0  0.00000000000E+00 -0.00000000000E+00 -0.82633201705E+03  0.82633201705E+03  0.00000000000E+00 0. -1.
         36    2    1    2    0    0  0.00000000000E+00 -0.42632564146E-13 -0.52381241980E+03  0.11288516143E+04  0.99996325730E+03 0.  0.
         25    2    3    3    0    0  0.93447960694E+02  0.85674809232E+02 -0.28469379663E+02  0.18013350723E+03  0.12475929046E+03 0.  0.
         35    2    3    3    0    0 -0.93447960694E+02 -0.85674809232E+02 -0.49534304014E+03  0.94871810706E+03  0.79914243095E+03 0.  0.
         22    1    5    5    0    0 -0.65399869785E+02 -0.43633279450E+03 -0.18077069481E+03  0.47680341298E+03  0.00000000000E+00 0. -1.
         22    1    5    5    0    0 -0.28048090909E+02  0.35065798527E+03 -0.31457234533E+03  0.47191469408E+03  0.00000000000E+00 0. -1.
          5    1    4    4  502    0  0.82110583858E+02  0.79631148269E+02  0.31411420958E+02  0.11870987795E+03  0.47000000000E+01 0.  1.
         -5    1    4    4    0  502  0.11337376836E+02  0.60436609630E+01 -0.59880800621E+02  0.61423629284E+02  0.47000000000E+01 0.  1.
<mgrwt>
<rscale>  0 0.99996326E+03</rscale>
<asrwt>0</asrwt>
<pdfrwt beam="1">  1        1 0.12712800E+00 0.99996326E+03</pdfrwt>
<pdfrwt beam="2">  1       -1 0.46541477E-01 0.99996326E+03</pdfrwt>
<totfact> 0.10957125E+02</totfact>
</mgrwt>
</event>
<event>
 9    1  0.4497870E-036  0.9979907E+03  0.7818608E-02  0.8682954E-01
         -2   -1    0    0    0  501 -0.00000000000E+00  0.00000000000E+00  0.12406983433E+04  0.12406983433E+04  0.00000000000E+00 0.  1.
          2   -1    0    0  501    0  0.00000000000E+00 -0.00000000000E+00 -0.20069050473E+03  0.20069050473E+03  0.00000000000E+00 0.  1.
         36    2    1    2    0    0  0.00000000000E+00 -0.14210854715E-13  0.10400078385E+04  0.14413888480E+04  0.99799073489E+03 0.  0.
         25    2    3    3    0    0  0.10821107788E+03 -0.17266120390E+02  0.32161120114E+03  0.36160881492E+03  0.12377162048E+03 0.  0.
         35    2    3    3    0    0 -0.10821107788E+03  0.17266120390E+02  0.71839663740E+03  0.10797800331E+04  0.79863848827E+03 0.  0.
         22    1    5    5    0    0  0.89644179814E+02 -0.14252093449E+03 -0.11798087202E+03  0.20559129823E+03  0.00000000000E+00 0. -1.
         22    1    5    5    0    0 -0.19785525769E+03  0.15978705488E+03  0.83637750941E+03  0.87418873486E+03  0.00000000000E+00 0. -1.
          5    1    4    4  502    0  0.56010271611E+02 -0.45860073748E+02  0.27895193455E+03  0.28823006206E+03  0.47000000000E+01 0. -1.
         -5    1    4    4    0  502  0.52200806269E+02  0.28593953358E+02  0.42659266597E+02  0.73378752854E+02  0.47000000000E+01 0. -1.
<mgrwt>
<rscale>  0 0.99799073E+03</rscale>
<asrwt>0</asrwt>
<pdfrwt beam="1">  1        2 0.30875463E-01 0.99799073E+03</pdfrwt>
<pdfrwt beam="2">  1       -2 0.19087666E+00 0.99799073E+03</pdfrwt>
<totfact> 0.28876556E+01</totfact>
</mgrwt>
</event>
<event>
 9    1  0.4497870E-036  0.1001148E+04  0.7818608E-02  0.8679945E-01
          1   -1    0    0  501    0  0.00000000000E+00  0.00000000000E+00  0.45375685467E+03  0.45375685467E+03  0.00000000000E+00 0.  1.
         -1   -1    0    0    0  501 -0.00000000000E+00 -0.00000000000E+00 -0.55222160429E+03  0.55222160429E+03  0.00000000000E+00 0.  1.
         36    2    1    2    0    0  0.00000000000E+00  0.00000000000E+00 -0.98464749629E+02  0.10059784590E+04  0.10011480175E+04 0.  0.
         25    2    3    3    0    0  0.58603898219E+02  0.89203320991E+02  0.73734021800E+02  0.18077140749E+03  0.12589657037E+03 0.  0.
         35    2    3    3    0    0 -0.58603898219E+02 -0.89203320991E+02 -0.17219877143E+03  0.82520705147E+03  0.79995163076E+03 0.  0.
         22    1    5    5    0    0  0.30324243627E+03 -0.22389289382E+03 -0.21954226157E+03  0.43621417638E+03  0.00000000000E+00 0.  1.
         22    1    5    5    0    0 -0.36184633449E+03  0.13468957282E+03  0.47343490146E+02  0.38899287509E+03  0.00000000000E+00 0.  1.
          5    1    4    4  502    0  0.52956112038E+02 -0.19103800078E+02  0.24839269978E+02  0.61712108315E+02  0.47000000000E+01 0. -1.
         -5    1    4    4    0  502  0.56477861805E+01  0.10830712107E+03  0.48894751821E+02  0.11905929917E+03  0.47000000000E+01 0. -1.
<mgrwt>
<rscale>  0 0.10011480E+04</rscale>
<asrwt>0</asrwt>
<pdfrwt beam="1">  1        1 0.69808747E-01 0.10011480E+04</pdfrwt>
<pdfrwt beam="2">  1       -1 0.84957170E-01 0.10011480E+04</pdfrwt>
<totfact> 0.82297391E+01</totfact>
</mgrwt>
</event>
<event>
 9    1  0.4497870E-036  0.1000376E+04  0.7818608E-02  0.8680680E-01
         -3   -1    0    0    0  501 -0.00000000000E+00  0.00000000000E+00  0.22892465302E+03  0.22892465302E+03  0.00000000000E+00 0.  1.
          3   -1    0    0  501    0  0.00000000000E+00 -0.00000000000E+00 -0.10928831480E+04  0.10928831480E+04  0.00000000000E+00 0.  1.
         36    2    1    2    0    0 -0.14210854715E-13  0.00000000000E+00 -0.86395849501E+03  0.13218078010E+04  0.10003757203E+04 0.  0.
         25    2    3    3    0    0 -0.83091166876E+02 -0.11105151037E+03 -0.11411339373E+03  0.21725846758E+03  0.12224072619E+03 0.  0.
         35    2    3    3    0    0  0.83091166876E+02  0.11105151037E+03 -0.74984510128E+03  0.11045493335E+04  0.79907757708E+03 0.  0.
         22    1    5    5    0    0  0.11907830801E+03 -0.88072134169E+02 -0.86102307959E+03  0.87366875178E+03  0.00000000000E+00 0.  1.
         22    1    5    5    0    0 -0.35987141132E+02  0.19912364454E+03  0.11117797831E+03  0.23088058169E+03  0.00000000000E+00 0.  1.
          5    1    4    4  502    0 -0.28073793941E+02 -0.11559889713E+03 -0.10934878809E+03  0.16164928203E+03  0.47000000000E+01 0.  1.
         -5    1    4    4    0  502 -0.55017372936E+02  0.45473867599E+01 -0.47646056377E+01  0.55609185554E+02  0.47000000000E+01 0.  1.
<mgrwt>
<rscale>  0 0.10003757E+04</rscale>
<asrwt>0</asrwt>
<pdfrwt beam="1">  1        3 0.16813587E+00 0.10003757E+04</pdfrwt>
<pdfrwt beam="2">  1       -3 0.35219177E-01 0.10003757E+04</pdfrwt>
<totfact> 0.78406575E+00</totfact>
</mgrwt>
</event>
<event>
 9    1  0.4497870E-036  0.1000400E+04  0.7818608E-02  0.8680657E-01
          2   -1    0    0  501    0  0.00000000000E+00  0.00000000000E+00  0.29056550672E+03  0.29056550672E+03  0.00000000000E+00 0. -1.
         -2   -1    0    0    0  501 -0.00000000000E+00 -0.00000000000E+00 -0.86107980082E+03  0.86107980082E+03  0.00000000000E+00 0. -1.
         36    2    1    2    0    0  0.00000000000E+00  0.35527136788E-13 -0.57051429410E+03  0.11516453075E+04  0.10004000973E+04 0.  0.
         25    2    3    3    0    0 -0.13682973837E+03 -0.47066687136E+02 -0.92742837033E+02  0.20894288385E+03  0.11882021945E+03 0.  0.
         35    2    3    3    0    0  0.13682973837E+03  0.47066687136E+02 -0.47777145707E+03  0.94270242368E+03  0.79967783769E+03 0.  0.
         22    1    5    5    0    0 -0.16744553980E+03 -0.30376562969E+03 -0.23180540480E+03  0.41718738269E+03  0.00000000000E+00 0.  1.
         22    1    5    5    0    0  0.30427527818E+03  0.35083231683E+03 -0.24596605226E+03  0.52551504099E+03  0.00000000000E+00 0.  1.
          5    1    4    4  502    0 -0.13481577430E+03 -0.15440253538E+01 -0.43639099461E+02  0.14178906169E+03  0.47000000000E+01 0.  1.
         -5    1    4    4    0  502 -0.20139640759E+01 -0.45522661782E+02 -0.49103737572E+02  0.67153822159E+02  0.47000000000E+01 0.  1.
<mgrwt>
<rscale>  0 0.10004001E+04</rscale>
<asrwt>0</asrwt>
<pdfrwt beam="1">  1        2 0.44702386E-01 0.10004001E+04</pdfrwt>
<pdfrwt beam="2">  1       -2 0.13247381E+00 0.10004001E+04</pdfrwt>
<totfact> 0.54251951E+01</totfact>
</mgrwt>
</event>
<event>
 9    1  0.4497870E-036  0.1000209E+04  0.7818608E-02  0.8680839E-01
          1   -1    0    0  501    0  0.00000000000E+00  0.00000000000E+00  0.74102344755E+03  0.74102344755E+03  0.00000000000E+00 0. -1.
         -1   -1    0    0    0  501 -0.00000000000E+00 -0.00000000000E+00 -0.33751235788E+03  0.33751235788E+03  0.00000000000E+00 0. -1.
         36    2    1    2    0    0  0.00000000000E+00  0.00000000000E+00  0.40351108968E+03  0.10785358054E+04  0.10002091202E+04 0.  0.
         25    2    3    3    0    0  0.56220667792E+02  0.92510474464E+02  0.17241911344E+03  0.23868767104E+03  0.12459736055E+03 0.  0.
         35    2    3    3    0    0 -0.56220667792E+02 -0.92510474464E+02  0.23109197624E+03  0.83984813439E+03  0.80013901041E+03 0.  0.
         22    1    5    5    0    0 -0.21188067911E+03 -0.25370970534E+03 -0.17649897378E+03  0.37471846033E+03  0.00000000000E+00 0. -1.
         22    1    5    5    0    0  0.15566001132E+03  0.16119923088E+03  0.40759095002E+03  0.46512967407E+03  0.00000000000E+00 0. -1.
          5    1    4    4  502    0  0.89601833448E+02  0.68103855616E+02  0.15919824712E+03  0.19501998768E+03  0.47000000000E+01 0. -1.
         -5    1    4    4    0  502 -0.33381165656E+02  0.24406618848E+02  0.13220866316E+02  0.43667683363E+02  0.47000000000E+01 0. -1.
<mgrwt>
<rscale>  0 0.10002091E+04</rscale>
<asrwt>0</asrwt>
<pdfrwt beam="1">  1        1 0.11400361E+00 0.10002091E+04</pdfrwt>
<pdfrwt beam="2">  1       -1 0.51924978E-01 0.10002091E+04</pdfrwt>
<totfact> 0.10673789E+02</totfact>
</mgrwt>
</event>
