<event>
 9    1  0.8093459E-001  0.2743107E+03  0.7818608E-02  0.1098837E+00
          1   -1    0    0  501    0  0.00000000000E+00  0.00000000000E+00  0.53973197105E+03  0.53973197105E+03  0.00000000000E+00 0.  1.
         -1   -1    0    0    0  501 -0.00000000000E+00 -0.00000000000E+00 -0.34853588249E+02  0.34853588249E+02  0.00000000000E+00 0.  1.
         35    2    1    2    0    0  0.00000000000E+00  0.00000000000E+00  0.50487838280E+03  0.57458555929E+03  0.27431074265E+03 0.  0.
         25    2    3    3    0    0  0.97934028063E+01 -0.54608346292E+01  0.13500759363E+03  0.18381903577E+03  0.12424434039E+03 0.  0.
         25    2    3    3    0    0 -0.97934028063E+01  0.54608346292E+01  0.36987078917E+03  0.39076652353E+03  0.12557206607E+03 0.  0.
          5    1    4    4  502    0 -0.23280842463E+02  0.26430330069E+02  0.13291924694E+03  0.13758697678E+03  0.47000000000E+01 0. -1.
         -5    1    4    4    0  502  0.33074245269E+02 -0.31891164698E+02  0.20883466880E+01  0.46232058983E+02  0.47000000000E+01 0. -1.
          5    1    5    5  503    0 -0.47304273949E+02 -0.29331545346E+02  0.29319812846E+03  0.29847155044E+03  0.47000000000E+01 0. -1.
         -5    1    5    5    0  503  0.37510871142E+02  0.34792379975E+02  0.76672660704E+02  0.92294973090E+02  0.47000000000E+01 0. -1.
<mgrwt>
<rscale>  0 0.27431074E+03</rscale>
<asrwt>0</asrwt>
<pdfrwt beam="1">  1        1 0.83035682E-01 0.27431074E+03</pdfrwt>
<pdfrwt beam="2">  1       -1 0.53620909E-02 0.27431074E+03</pdfrwt>
<totfact> 0.64204736E+03</totfact>
</mgrwt>
</event>
<event>
 9    1  0.8093459E-001  0.2767790E+03  0.7818608E-02  0.1097461E+00
         -1   -1    0    0    0  501 -0.00000000000E+00  0.00000000000E+00  0.17128819925E+02  0.17128819925E+02  0.00000000000E+00 0. -1.
          1   -1    0    0  501    0  0.00000000000E+00 -0.00000000000E+00 -0.11180951189E+04  0.11180951189E+04  0.00000000000E+00 0. -1.
         35    2    1    2    0    0  0.00000000000E+00  0.35527136788E-14 -0.11009662990E+04  0.11352239388E+04  0.27677897283E+03 0.  0.
         25    2    3    3    0    0 -0.55265914698E+02 -0.14158807267E+02 -0.59356658305E+03  0.60928063121E+03  0.12508719320E+03 0.  0.
         25    2    3    3    0    0  0.55265914698E+02  0.14158807267E+02 -0.50739971591E+03  0.52594330760E+03  0.12612334420E+03 0.  0.
          5    1    4    4  502    0 -0.64538992295E+02 -0.24458493572E+01 -0.12797553122E+03  0.14342625386E+03  0.47000000000E+01 0. -1.
         -5    1    4    4    0  502  0.92730775973E+01 -0.11712957909E+02 -0.46559105183E+03  0.46585437735E+03  0.47000000000E+01 0. -1.
          5    1    5    5  503    0  0.17327392330E+02 -0.54388707904E+02 -0.16483287834E+03  0.17450025173E+03  0.47000000000E+01 0. -1.
         -5    1    5    5    0  503  0.37938522367E+02  0.68547515171E+02 -0.34256683757E+03  0.35144305587E+03  0.47000000000E+01 0. -1.
<mgrwt>
<rscale>  0 0.27677897E+03</rscale>
<asrwt>0</asrwt>
<pdfrwt beam="1">  1        1 0.17201465E+00 0.27677897E+03</pdfrwt>
<pdfrwt beam="2">  1       -1 0.26352029E-02 0.27677897E+03</pdfrwt>
<totfact> 0.59814712E+03</totfact>
</mgrwt>
</event>
<event>
 9    1  0.8093459E-001  0.2755572E+03  0.7818608E-02  0.1098141E+00
         -1   -1    0    0    0  501 -0.00000000000E+00  0.00000000000E+00  0.60525782538E+02  0.60525782538E+02  0.00000000000E+00 0. -1.
          1   -1    0    0  501    0  0.00000000000E+00 -0.00000000000E+00 -0.31363396444E+03  0.31363396444E+03  0.00000000000E+00 0. -1.
         35    2    1    2    0    0  0.71054273576E-14  0.71054273576E-14 -0.25310818190E+03  0.37415974698E+03  0.27555718919E+03 0.  0.
         25    2    3    3    0    0 -0.39201937765E+02  0.28787975253E+02 -0.85178793044E+02  0.15905028373E+03  0.12520393974E+03 0.  0.
         25    2    3    3    0    0  0.39201937765E+02 -0.28787975253E+02 -0.16792938886E+03  0.21510946325E+03  0.12532462684E+03 0.  0.
          5    1    4    4  502    0 -0.36444103023E+02  0.63967830951E+00  0.25491267893E+02  0.44726687472E+02  0.47000000000E+01 0. -1.
         -5    1    4    4    0  502 -0.27578347426E+01  0.28148296944E+02 -0.11067006094E+03  0.11432359626E+03  0.47000000000E+01 0. -1.
          5    1    5    5  503    0  0.19197886848E+02 -0.70426394120E+02 -0.50646793452E+02  0.88969790014E+02  0.47000000000E+01 0.  1.
         -5    1    5    5    0  503  0.20004050917E+02  0.41638418866E+02 -0.11728259541E+03  0.12613967324E+03  0.47000000000E+01 0.  1.
<mgrwt>
<rscale>  0 0.27555719E+03</rscale>
<asrwt>0</asrwt>
<pdfrwt beam="1">  1        1 0.48251378E-01 0.27555719E+03</pdfrwt>
<pdfrwt beam="2">  1       -1 0.93116590E-02 0.27555719E+03</pdfrwt>
<totfact> 0.56026397E+03</totfact>
</mgrwt>
</event>
<event>
 9    1  0.8093459E-001  0.2770702E+03  0.7818608E-02  0.1097300E+00
         -2   -1    0    0    0  501 -0.00000000000E+00  0.00000000000E+00  0.32263142576E+02  0.32263142576E+02  0.00000000000E+00 0.  1.
          2   -1    0    0  501    0  0.00000000000E+00 -0.00000000000E+00 -0.59485738999E+03  0.59485738999E+03  0.00000000000E+00 0.  1.
         35    2    1    2    0    0  0.71054273576E-14  0.00000000000E+00 -0.56259424741E+03  0.62712053257E+03  0.27707016285E+03 0.  0.
         25    2    3    3    0    0 -0.45651758295E+02  0.34407101087E+02 -0.32370725843E+03  0.35159358218E+03  0.12475466414E+03 0.  0.
         25    2    3    3    0    0  0.45651758295E+02 -0.34407101087E+02 -0.23888698898E+03  0.27552695039E+03  0.12482057221E+03 0.  0.
          5    1    4    4  502    0 -0.45322809539E+02  0.76482151696E+02 -0.16676109648E+03  0.18903711247E+03  0.47000000000E+01 0. -1.
         -5    1    4    4    0  502 -0.32894875694E+00 -0.42075050609E+02 -0.15694616195E+03  0.16255646971E+03  0.47000000000E+01 0. -1.
          5    1    5    5  503    0  0.56778225667E+02  0.13022862902E+02 -0.21153366520E+03  0.21945829532E+03  0.47000000000E+01 0.  1.
         -5    1    5    5    0  503 -0.11126467372E+02 -0.47429963989E+02 -0.27353323778E+02  0.56068655075E+02  0.47000000000E+01 0.  1.
<mgrwt>
<rscale>  0 0.27707016E+03</rscale>
<asrwt>0</asrwt>
<pdfrwt beam="1">  1        2 0.91516517E-01 0.27707016E+03</pdfrwt>
<pdfrwt beam="2">  1       -2 0.49635606E-02 0.27707016E+03</pdfrwt>
<totfact> 0.10047430E+04</totfact>
</mgrwt>
</event>
<event>
 9    1  0.8093459E-001  0.2762391E+03  0.7818608E-02  0.1097761E+00
         -2   -1    0    0    0  501 -0.00000000000E+00  0.00000000000E+00  0.51690671473E+03  0.51690671473E+03  0.00000000000E+00 0. -1.
          2   -1    0    0  501    0  0.00000000000E+00 -0.00000000000E+00 -0.36906091259E+02  0.36906091259E+02  0.00000000000E+00 0. -1.
         35    2    1    2    0    0 -0.17763568394E-14  0.00000000000E+00  0.48000062347E+03  0.55381280599E+03  0.27623907317E+03 0.  0.
         25    2    3    3    0    0 -0.89599959945E+01 -0.53903426881E+02  0.17817670938E+03  0.22411558634E+03  0.12447889507E+03 0.  0.
         25    2    3    3    0    0  0.89599959945E+01  0.53903426881E+02  0.30182391409E+03  0.32969721965E+03  0.12089963015E+03 0.  0.
          5    1    4    4  502    0  0.39703243675E+01 -0.92770106575E+02  0.13909231650E+03  0.16730456855E+03  0.47000000000E+01 0.  1.
         -5    1    4    4    0  502 -0.12930320362E+02  0.38866679694E+02  0.39084392885E+02  0.56811017789E+02  0.47000000000E+01 0.  1.
          5    1    5    5  503    0 -0.33081995588E+01  0.23746002329E+02 -0.16107624010E+01  0.24484716998E+02  0.47000000000E+01 0.  1.
         -5    1    5    5    0  503  0.12268195553E+02  0.30157424551E+02  0.30343467649E+03  0.30521250265E+03  0.47000000000E+01 0.  1.
<mgrwt>
<rscale>  0 0.27623907E+03</rscale>
<asrwt>0</asrwt>
<pdfrwt beam="1">  1        2 0.56778606E-02 0.27623907E+03</pdfrwt>
<pdfrwt beam="2">  1       -2 0.79524105E-01 0.27623907E+03</pdfrwt>
<totfact> 0.19142993E+03</totfact>
</mgrwt>
</event>
<event>
 9    1  0.8093459E-001  0.2749134E+03  0.7818608E-02  0.1098500E+00
         -2   -1    0    0    0  501 -0.00000000000E+00  0.00000000000E+00  0.11213069505E+02  0.11213069505E+02  0.00000000000E+00 0.  1.
          2   -1    0    0  501    0  0.00000000000E+00 -0.00000000000E+00 -0.16850292884E+04  0.16850292884E+04  0.00000000000E+00 0.  1.
         35    2    1    2    0    0  0.00000000000E+00 -0.35527136788E-14 -0.16738162189E+04  0.16962423579E+04  0.27491344477E+03 0.  0.
         25    2    3    3    0    0 -0.47384285097E+02 -0.42202052881E+01 -0.10504219778E+04  0.10589116705E+04  0.12507803100E+03 0.  0.
         25    2    3    3    0    0  0.47384285097E+02  0.42202052881E+01 -0.62339424110E+03  0.63733068743E+03  0.12372123783E+03 0.  0.
          5    1    4    4  502    0 -0.57957707444E+02 -0.29543091299E+02 -0.99255308072E+03  0.99469372077E+03  0.47000000000E+01 0.  1.
         -5    1    4    4    0  502  0.10573422347E+02  0.25322886011E+02 -0.57868897063E+02  0.64217949697E+02  0.47000000000E+01 0.  1.
          5    1    5    5  503    0  0.14880940164E+02 -0.52996772566E+02 -0.41713619252E+03  0.42077879390E+03  0.47000000000E+01 0. -1.
         -5    1    5    5    0  503  0.32503344933E+02  0.57216977855E+02 -0.20625804858E+03  0.21655189353E+03  0.47000000000E+01 0. -1.
<mgrwt>
<rscale>  0 0.27491344E+03</rscale>
<asrwt>0</asrwt>
<pdfrwt beam="1">  1        2 0.25923533E+00 0.27491344E+03</pdfrwt>
<pdfrwt beam="2">  1       -2 0.17250873E-02 0.27491344E+03</pdfrwt>
<totfact> 0.10455329E+04</totfact>
</mgrwt>
</event>
<event>
 9    1  0.8093459E-001  0.2711995E+03  0.7818608E-02  0.1100595E+00
         -1   -1    0    0    0  501 -0.00000000000E+00  0.00000000000E+00  0.93319194682E+02  0.93319194682E+02  0.00000000000E+00 0.  1.
          1   -1    0    0  501    0  0.00000000000E+00 -0.00000000000E+00 -0.19703656785E+03  0.19703656785E+03  0.00000000000E+00 0.  1.
         35    2    1    2    0    0 -0.71054273576E-14  0.71054273576E-14 -0.10371737317E+03  0.29035576254E+03  0.27119951206E+03 0.  0.
         25    2    3    3    0    0  0.11023258325E+02 -0.28824953389E+02 -0.98810146405E+02  0.16230658970E+03  0.12501037503E+03 0.  0.
         25    2    3    3    0    0 -0.11023258325E+02  0.28824953389E+02 -0.49072267663E+01  0.12804917284E+03  0.12417777429E+03 0.  0.
          5    1    4    4  502    0  0.39487863915E+02  0.15659364248E+02 -0.10055145404E+03  0.10925745738E+03  0.47000000000E+01 0. -1.
         -5    1    4    4    0  502 -0.28464605590E+02 -0.44484317637E+02  0.17413076298E+01  0.53049132314E+02  0.47000000000E+01 0. -1.
          5    1    5    5  503    0 -0.34509879445E+02  0.49015311145E+02  0.40779974479E+02  0.72653484599E+02  0.47000000000E+01 0.  1.
         -5    1    5    5    0  503  0.23486621119E+02 -0.20190357756E+02 -0.45687201245E+02  0.55395688239E+02  0.47000000000E+01 0.  1.
<mgrwt>
<rscale>  0 0.27119951E+03</rscale>
<asrwt>0</asrwt>
<pdfrwt beam="1">  1        1 0.30313318E-01 0.27119951E+03</pdfrwt>
<pdfrwt beam="2">  1       -1 0.14356799E-01 0.27119951E+03</pdfrwt>
<totfact> 0.51134438E+03</totfact>
</mgrwt>
</event>
<event>
 9    1  0.8093459E-001  0.2702804E+03  0.7818608E-02  0.1101119E+00
          2   -1    0    0  501    0  0.00000000000E+00  0.00000000000E+00  0.87170230030E+03  0.87170230030E+03  0.00000000000E+00 0.  1.
         -2   -1    0    0    0  501 -0.00000000000E+00 -0.00000000000E+00 -0.20950822073E+02  0.20950822073E+02  0.00000000000E+00 0.  1.
         35    2    1    2    0    0 -0.17763568394E-14  0.71054273576E-14  0.85075147823E+03  0.89265312237E+03  0.27028044542E+03 0.  0.
         25    2    3    3    0    0 -0.58140239769E+01 -0.14179404071E+02  0.58556133050E+03  0.59898074796E+03  0.12514394222E+03 0.  0.
         25    2    3    3    0    0  0.58140239769E+01  0.14179404071E+02  0.26519014772E+03  0.29367237441E+03  0.12523094932E+03 0.  0.
          5    1    4    4  502    0  0.28079224770E+02 -0.53938688311E+02  0.18025361862E+03  0.19029262200E+03  0.47000000000E+01 0.  1.
         -5    1    4    4    0  502 -0.33893248747E+02  0.39759284240E+02  0.40530771188E+03  0.40868812596E+03  0.47000000000E+01 0.  1.
          5    1    5    5  503    0  0.15092646275E+02  0.62422080524E+02  0.83766121144E+02  0.10565584300E+03  0.47000000000E+01 0.  1.
         -5    1    5    5    0  503 -0.92786222982E+01 -0.48242676453E+02  0.18142402658E+03  0.18801653141E+03  0.47000000000E+01 0.  1.
<mgrwt>
<rscale>  0 0.27028045E+03</rscale>
<asrwt>0</asrwt>
<pdfrwt beam="1">  1        2 0.13410802E+00 0.27028045E+03</pdfrwt>
<pdfrwt beam="2">  1       -2 0.32232041E-02 0.27028045E+03</pdfrwt>
<totfact> 0.12015296E+04</totfact>
</mgrwt>
</event>
<event>
 9    1  0.8093459E-001  0.2787440E+03  0.7818608E-02  0.1096377E+00
          3   -1    0    0  501    0  0.00000000000E+00  0.00000000000E+00  0.12044386709E+02  0.12044386709E+02  0.00000000000E+00 0.  1.
         -3   -1    0    0    0  501 -0.00000000000E+00 -0.00000000000E+00 -0.16127474402E+04  0.16127474402E+04  0.00000000000E+00 0.  1.
         35    2    1    2    0    0  0.00000000000E+00  0.00000000000E+00 -0.16007030535E+04  0.16247918269E+04  0.27874399605E+03 0.  0.
         25    2    3    3    0    0  0.11212862652E+02 -0.17240977892E+02 -0.11665848794E+04  0.11734139530E+04  0.12472788312E+03 0.  0.
         25    2    3    3    0    0 -0.11212862652E+02  0.17240977892E+02 -0.43411817413E+03  0.45137787387E+03  0.12190330718E+03 0.  0.
          5    1    4    4  502    0  0.46684910315E+02 -0.13114484095E+02 -0.10557427892E+04  0.10568663101E+04  0.47000000000E+01 0. -1.
         -5    1    4    4    0  502 -0.35472047663E+02 -0.41264937964E+01 -0.11084209020E+03  0.11654764295E+03  0.47000000000E+01 0. -1.
          5    1    5    5  503    0  0.26468705729E+01  0.65886526172E+02 -0.16964522372E+03  0.18207040447E+03  0.47000000000E+01 0.  1.
         -5    1    5    5    0  503 -0.13859733225E+02 -0.48645548280E+02 -0.26447295042E+03  0.26930746940E+03  0.47000000000E+01 0.  1.
<mgrwt>
<rscale>  0 0.27874400E+03</rscale>
<asrwt>0</asrwt>
<pdfrwt beam="1">  1        3 0.18529817E-02 0.27874400E+03</pdfrwt>
<pdfrwt beam="2">  1       -3 0.24811510E+00 0.27874400E+03</pdfrwt>
<totfact> 0.22775932E+02</totfact>
</mgrwt>
</event>
<event>
 9    1  0.8093459E-001  0.2799586E+03  0.7818608E-02  0.1095712E+00
          1   -1    0    0  501    0  0.00000000000E+00  0.00000000000E+00  0.29348844440E+03  0.29348844440E+03  0.00000000000E+00 0. -1.
         -1   -1    0    0    0  501 -0.00000000000E+00 -0.00000000000E+00 -0.66763133886E+02  0.66763133886E+02  0.00000000000E+00 0. -1.
         35    2    1    2    0    0  0.71054273576E-14  0.71054273576E-14  0.22672531052E+03  0.36025157829E+03  0.27995862771E+03 0.  0.
         25    2    3    3    0    0  0.49711766435E+02  0.43701738563E+01  0.15549426128E+03  0.20620235924E+03  0.12589912439E+03 0.  0.
         25    2    3    3    0    0 -0.49711766435E+02 -0.43701738563E+01  0.71231049239E+02  0.15404921905E+03  0.12714928774E+03 0.  0.
          5    1    4    4  502    0  0.24166226286E+02  0.25808755970E+02  0.16688130239E+03  0.17065039544E+03  0.47000000000E+01 0. -1.
         -5    1    4    4    0  502  0.25545540149E+02 -0.21438582114E+02 -0.11387041108E+02  0.35551963796E+02  0.47000000000E+01 0. -1.
          5    1    5    5  503    0 -0.12440283447E+02 -0.64139971147E+02  0.27762861138E+02  0.71144662551E+02  0.47000000000E+01 0. -1.
         -5    1    5    5    0  503 -0.37271482988E+02  0.59769797290E+02  0.43468188101E+02  0.82904556503E+02  0.47000000000E+01 0. -1.
<mgrwt>
<rscale>  0 0.27995863E+03</rscale>
<asrwt>0</asrwt>
<pdfrwt beam="1">  1        1 0.45152067E-01 0.27995863E+03</pdfrwt>
<pdfrwt beam="2">  1       -1 0.10271252E-01 0.27995863E+03</pdfrwt>
<totfact> 0.52376328E+03</totfact>
</mgrwt>
</event>
<event>
 9    1  0.8093459E-001  0.2940661E+03  0.7818608E-02  0.1088245E+00
         -1   -1    0    0    0  501 -0.00000000000E+00  0.00000000000E+00  0.80193564175E+01  0.80193564175E+01  0.00000000000E+00 0. -1.
          1   -1    0    0  501    0  0.00000000000E+00 -0.00000000000E+00 -0.26958166159E+04  0.26958166159E+04  0.00000000000E+00 0. -1.
         35    2    1    2    0    0  0.35527136788E-14  0.00000000000E+00 -0.26877972595E+04  0.27038359723E+04  0.29406607611E+03 0.  0.
         25    2    3    3    0    0  0.31919482985E+02 -0.52058887867E+02 -0.17673032513E+04  0.17727584873E+04  0.12483144937E+03 0.  0.
         25    2    3    3    0    0 -0.31919482985E+02  0.52058887867E+02 -0.92049400812E+03  0.93107748504E+03  0.12596460994E+03 0.  0.
          5    1    4    4  502    0 -0.26677944335E+02  0.15519062352E+02 -0.95896075616E+03  0.95946879879E+03  0.47000000000E+01 0.  1.
         -5    1    4    4    0  502  0.58597427320E+02 -0.67577950218E+02 -0.80834249519E+03  0.81328968847E+03  0.47000000000E+01 0.  1.
          5    1    5    5  503    0 -0.49786438781E+02  0.18287003793E+02 -0.84170297862E+03  0.84338549798E+03  0.47000000000E+01 0. -1.
         -5    1    5    5    0  503  0.17866955796E+02  0.33771884074E+02 -0.78791029502E+02  0.87691987053E+02  0.47000000000E+01 0. -1.
<mgrwt>
<rscale>  0 0.29406608E+03</rscale>
<asrwt>0</asrwt>
<pdfrwt beam="1">  1        1 0.41474069E+00 0.29406608E+03</pdfrwt>
<pdfrwt beam="2">  1       -1 0.12337481E-02 0.29406608E+03</pdfrwt>
<totfact> 0.16227411E+03</totfact>
</mgrwt>
</event>
<event>
 9    1  0.8093459E-001  0.2821004E+03  0.7818608E-02  0.1094547E+00
          3   -1    0    0  501    0  0.00000000000E+00  0.00000000000E+00  0.65507439178E+03  0.65507439178E+03  0.00000000000E+00 0. -1.
         -3   -1    0    0    0  501 -0.00000000000E+00 -0.00000000000E+00 -0.30370840839E+02  0.30370840839E+02  0.00000000000E+00 0. -1.
         35    2    1    2    0    0  0.00000000000E+00  0.14210854715E-13  0.62470355094E+03  0.68544523262E+03  0.28210040830E+03 0.  0.
         25    2    3    3    0    0 -0.45515184904E+02  0.47508988581E+02  0.32319395423E+03  0.35275807287E+03  0.12512070121E+03 0.  0.
         25    2    3    3    0    0  0.45515184904E+02 -0.47508988581E+02  0.30150959672E+03  0.33268715975E+03  0.12427378364E+03 0.  0.
          5    1    4    4  502    0  0.14385797538E+02 -0.35556926483E+02  0.97086439816E+02  0.10449455961E+03  0.47000000000E+01 0. -1.
         -5    1    4    4    0  502 -0.59900982442E+02  0.83065915064E+02  0.22610751441E+03  0.24826351326E+03  0.47000000000E+01 0. -1.
          5    1    5    5  503    0  0.66738327061E+02 -0.49934696709E+02  0.10121693962E+03  0.13120379987E+03  0.47000000000E+01 0. -1.
         -5    1    5    5    0  503 -0.21223142157E+02  0.24257081278E+01  0.20029265710E+03  0.20148335988E+03  0.47000000000E+01 0. -1.
<mgrwt>
<rscale>  0 0.28210041E+03</rscale>
<asrwt>0</asrwt>
<pdfrwt beam="1">  1        3 0.10078067E+00 0.28210041E+03</pdfrwt>
<pdfrwt beam="2">  1       -3 0.46724375E-02 0.28210041E+03</pdfrwt>
<totfact> 0.57532306E+02</totfact>
</mgrwt>
</event>
<event>
 9    1  0.8093459E-001  0.2726233E+03  0.7818608E-02  0.1099788E+00
         -2   -1    0    0    0  501 -0.00000000000E+00  0.00000000000E+00  0.90266970375E+01  0.90266970375E+01  0.00000000000E+00 0. -1.
          2   -1    0    0  501    0  0.00000000000E+00 -0.00000000000E+00 -0.20584349121E+04  0.20584349121E+04  0.00000000000E+00 0. -1.
         35    2    1    2    0    0  0.00000000000E+00  0.35527136788E-14 -0.20494082151E+04  0.20674616092E+04  0.27262331759E+03 0.  0.
         25    2    3    3    0    0  0.43768786102E+02 -0.27183896142E+02 -0.11656752105E+04  0.11735215134E+04  0.12529714694E+03 0.  0.
         25    2    3    3    0    0 -0.43768786102E+02  0.27183896142E+02 -0.88373300456E+03  0.89394009581E+03  0.12445963479E+03 0.  0.
          5    1    4    4  502    0 -0.25396657152E+02  0.86722249470E+01 -0.75524137021E+03  0.75573263457E+03  0.47000000000E+01 0.  1.
         -5    1    4    4    0  502  0.69165443254E+02 -0.35856121089E+02 -0.41043384032E+03  0.41778887879E+03  0.47000000000E+01 0.  1.
          5    1    5    5  503    0 -0.74580320781E+02  0.85388048508E+01 -0.78746424827E+03  0.79104814502E+03  0.47000000000E+01 0. -1.
         -5    1    5    5    0  503  0.30811534679E+02  0.18645091292E+02 -0.96268756289E+02  0.10289195078E+03  0.47000000000E+01 0. -1.
<mgrwt>
<rscale>  0 0.27262332E+03</rscale>
<asrwt>0</asrwt>
<pdfrwt beam="1">  1        2 0.31668277E+00 0.27262332E+03</pdfrwt>
<pdfrwt beam="2">  1       -2 0.13887205E-02 0.27262332E+03</pdfrwt>
<totfact> 0.91392366E+03</totfact>
</mgrwt>
</event>
<event>
 9    1  0.8093459E-001  0.2756157E+03  0.7818608E-02  0.1098108E+00
          1   -1    0    0  501    0  0.00000000000E+00  0.00000000000E+00  0.25206045699E+03  0.25206045699E+03  0.00000000000E+00 0.  1.
         -1   -1    0    0    0  501 -0.00000000000E+00 -0.00000000000E+00 -0.75343069341E+02  0.75343069341E+02  0.00000000000E+00 0.  1.
         35    2    1    2    0    0  0.00000000000E+00 -0.71054273576E-14  0.17671738765E+03  0.32740352633E+03  0.27561573605E+03 0.  0.
         25    2    3    3    0    0 -0.46620619199E+02 -0.19335175375E+02  0.52569936429E+02  0.14451317881E+03  0.12479234549E+03 0.  0.
         25    2    3    3    0    0  0.46620619199E+02  0.19335175375E+02  0.12414745122E+03  0.18289034752E+03  0.12445464407E+03 0.  0.
          5    1    4    4  502    0 -0.31498842686E+02  0.52281343317E+02  0.25843899122E+02  0.66449327095E+02  0.47000000000E+01 0. -1.
         -5    1    4    4    0  502 -0.15121776513E+02 -0.71616518691E+02  0.26726037308E+02  0.78063851715E+02  0.47000000000E+01 0. -1.
          5    1    5    5  503    0  0.77118185879E+01  0.40304966998E+02 -0.92113640394E+01  0.42319046990E+02  0.47000000000E+01 0.  1.
         -5    1    5    5    0  503  0.38908800611E+02 -0.20969791623E+02  0.13335881526E+03  0.14057130053E+03  0.47000000000E+01 0.  1.
<mgrwt>
<rscale>  0 0.27561574E+03</rscale>
<asrwt>0</asrwt>
<pdfrwt beam="1">  1        1 0.38778531E-01 0.27561574E+03</pdfrwt>
<pdfrwt beam="2">  1       -1 0.11591242E-01 0.27561574E+03</pdfrwt>
<totfact> 0.52519090E+03</totfact>
</mgrwt>
</event>
<event>
 9    1  0.8093459E-001  0.2724975E+03  0.7818608E-02  0.1099859E+00
          2   -1    0    0  501    0  0.00000000000E+00  0.00000000000E+00  0.84694512376E+02  0.84694512376E+02  0.00000000000E+00 0.  1.
         -2   -1    0    0    0  501 -0.00000000000E+00 -0.00000000000E+00 -0.21918446742E+03  0.21918446742E+03  0.00000000000E+00 0.  1.
         35    2    1    2    0    0  0.00000000000E+00  0.00000000000E+00 -0.13448995505E+03  0.30387897980E+03  0.27249749789E+03 0.  0.
         25    2    3    3    0    0  0.13870345560E+02 -0.50714606833E+02 -0.44630624662E+02  0.14137946245E+03  0.12341759158E+03 0.  0.
         25    2    3    3    0    0 -0.13870345560E+02  0.50714606833E+02 -0.89859330385E+02  0.16249951735E+03  0.12476792877E+03 0.  0.
          5    1    4    4  502    0  0.33162386541E+01 -0.85230628346E+02 -0.21683722230E+01  0.85452029146E+02  0.47000000000E+01 0. -1.
         -5    1    4    4    0  502  0.10554106906E+02  0.34516021513E+02 -0.42462252439E+02  0.55927433303E+02  0.47000000000E+01 0. -1.
          5    1    5    5  503    0  0.12315487039E+02 -0.39282187325E+02 -0.30595640840E+02  0.51506744223E+02  0.47000000000E+01 0. -1.
         -5    1    5    5    0  503 -0.26185832600E+02  0.89996794158E+02 -0.59263689545E+02  0.11099277313E+03  0.47000000000E+01 0. -1.
<mgrwt>
<rscale>  0 0.27249750E+03</rscale>
<asrwt>0</asrwt>
<pdfrwt beam="1">  1        2 0.13029925E-01 0.27249750E+03</pdfrwt>
<pdfrwt beam="2">  1       -2 0.33720687E-01 0.27249750E+03</pdfrwt>
<totfact> 0.37837739E+03</totfact>
</mgrwt>
</event>
<event>
 9    1  0.8093459E-001  0.2751249E+03  0.7818608E-02  0.1098382E+00
          1   -1    0    0  501    0  0.00000000000E+00  0.00000000000E+00  0.28432524359E+03  0.28432524359E+03  0.00000000000E+00 0. -1.
         -1   -1    0    0    0  501 -0.00000000000E+00 -0.00000000000E+00 -0.66555572680E+02  0.66555572680E+02  0.00000000000E+00 0. -1.
         35    2    1    2    0    0  0.00000000000E+00  0.00000000000E+00  0.21776967091E+03  0.35088081626E+03  0.27512491282E+03 0.  0.
         25    2    3    3    0    0  0.51182486564E+02  0.24353817229E+02  0.13414110126E+03  0.19076062579E+03  0.12321942202E+03 0.  0.
         25    2    3    3    0    0 -0.51182486564E+02 -0.24353817229E+02  0.83628569648E+02  0.16012019047E+03  0.12422553035E+03 0.  0.
          5    1    4    4  502    0  0.75163934155E+02  0.56220715027E+02  0.10634103143E+03  0.14191860612E+03  0.47000000000E+01 0. -1.
         -5    1    4    4    0  502 -0.23981447591E+02 -0.31866897798E+02  0.27800069823E+02  0.48842019676E+02  0.47000000000E+01 0. -1.
          5    1    5    5  503    0 -0.15999301996E+02 -0.71245892776E+02  0.66474098999E+02  0.98857729791E+02  0.47000000000E+01 0.  1.
         -5    1    5    5    0  503 -0.35183184568E+02  0.46892075547E+02  0.17154470648E+02  0.61262460681E+02  0.47000000000E+01 0.  1.
<mgrwt>
<rscale>  0 0.27512491E+03</rscale>
<asrwt>0</asrwt>
<pdfrwt beam="1">  1        1 0.43742344E-01 0.27512491E+03</pdfrwt>
<pdfrwt beam="2">  1       -1 0.10239319E-01 0.27512491E+03</pdfrwt>
<totfact> 0.54738852E+03</totfact>
</mgrwt>
</event>
<event>
 9    1  0.8093459E-001  0.2756876E+03  0.7818608E-02  0.1098068E+00
          1   -1    0    0  501    0  0.00000000000E+00  0.00000000000E+00  0.22125134705E+03  0.22125134705E+03  0.00000000000E+00 0. -1.
         -1   -1    0    0    0  501 -0.00000000000E+00 -0.00000000000E+00 -0.85879298326E+02  0.85879298326E+02  0.00000000000E+00 0. -1.
         35    2    1    2    0    0  0.71054273576E-14  0.35527136788E-14  0.13537204873E+03  0.30713064538E+03  0.27568757998E+03 0.  0.
         25    2    3    3    0    0  0.34003126635E+02 -0.17838301379E+02  0.11342882525E+03  0.17473943147E+03  0.12725310565E+03 0.  0.
         25    2    3    3    0    0 -0.34003126635E+02  0.17838301379E+02  0.21943223481E+02  0.13239121391E+03  0.12478585996E+03 0.  0.
          5    1    4    4  502    0  0.27690622301E+02  0.29380937368E+02 -0.10420450916E+02  0.41960527181E+02  0.47000000000E+01 0. -1.
         -5    1    4    4    0  502  0.63125043335E+01 -0.47219238747E+02  0.12384927616E+03  0.13277890429E+03  0.47000000000E+01 0. -1.
          5    1    5    5  503    0 -0.15684466354E+02  0.48390918463E+02 -0.37195311242E+02  0.63192283175E+02  0.47000000000E+01 0. -1.
         -5    1    5    5    0  503 -0.18318660280E+02 -0.30552617084E+02  0.59138534723E+02  0.69198930731E+02  0.47000000000E+01 0. -1.
<mgrwt>
<rscale>  0 0.27568758E+03</rscale>
<asrwt>0</asrwt>
<pdfrwt beam="1">  1        1 0.34038669E-01 0.27568758E+03</pdfrwt>
<pdfrwt beam="2">  1       -1 0.13212200E-01 0.27568758E+03</pdfrwt>
<totfact> 0.50403787E+03</totfact>
</mgrwt>
</event>
<event>
 9    1  0.8093459E-001  0.2744416E+03  0.7818608E-02  0.1098764E+00
          1   -1    0    0  501    0  0.00000000000E+00  0.00000000000E+00  0.57308307003E+03  0.57308307003E+03  0.00000000000E+00 0.  1.
         -1   -1    0    0    0  501 -0.00000000000E+00 -0.00000000000E+00 -0.32856579656E+02  0.32856579656E+02  0.00000000000E+00 0.  1.
         35    2    1    2    0    0  0.14210854715E-13  0.17763568394E-14  0.54022649037E+03  0.60593964969E+03  0.27444161157E+03 0.  0.
         25    2    3    3    0    0  0.44177410690E+02  0.11982985944E+02  0.33922113668E+03  0.36453847624E+03  0.12538774072E+03 0.  0.
         25    2    3    3    0    0 -0.44177410690E+02 -0.11982985944E+02  0.20100535369E+03  0.24140117345E+03  0.12560310012E+03 0.  0.
          5    1    4    4  502    0 -0.43459100161E+02  0.99500778755E+01  0.95768826606E+02  0.10574240202E+03  0.47000000000E+01 0. -1.
         -5    1    4    4    0  502  0.87636510851E+02  0.20329080686E+01  0.24345231007E+03  0.25879607422E+03  0.47000000000E+01 0. -1.
          5    1    5    5  503    0  0.45522758911E+01  0.49559525299E+02  0.11189174256E+03  0.12255089480E+03  0.47000000000E+01 0. -1.
         -5    1    5    5    0  503 -0.48729686581E+02 -0.61542511243E+02  0.89113611137E+02  0.11885027865E+03  0.47000000000E+01 0. -1.
<mgrwt>
<rscale>  0 0.27444161E+03</rscale>
<asrwt>0</asrwt>
<pdfrwt beam="1">  1        1 0.88166619E-01 0.27444161E+03</pdfrwt>
<pdfrwt beam="2">  1       -1 0.50548588E-02 0.27444161E+03</pdfrwt>
<totfact> 0.64650277E+03</totfact>
</mgrwt>
</event>
<event>
 9    1  0.8093459E-001  0.2717337E+03  0.7818608E-02  0.1100291E+00
          1   -1    0    0  501    0  0.00000000000E+00  0.00000000000E+00  0.59745038297E+02  0.59745038297E+02  0.00000000000E+00 0. -1.
         -1   -1    0    0    0  501 -0.00000000000E+00 -0.00000000000E+00 -0.30897638757E+03  0.30897638757E+03  0.00000000000E+00 0. -1.
         35    2    1    2    0    0  0.00000000000E+00  0.71054273576E-14 -0.24923134927E+03  0.36872142586E+03  0.27173373812E+03 0.  0.
         25    2    3    3    0    0 -0.37500391798E+01 -0.24446067377E+02 -0.18823664246E+03  0.22717864484E+03  0.12476149286E+03 0.  0.
         25    2    3    3    0    0  0.37500391798E+01  0.24446067377E+02 -0.60994706805E+02  0.14154278103E+03  0.12530894461E+03 0.  0.
          5    1    4    4  502    0 -0.36119934437E+02 -0.55334311685E+02 -0.53570410230E+02  0.85196329531E+02  0.47000000000E+01 0.  1.
         -5    1    4    4    0  502  0.32369895257E+02  0.30888244308E+02 -0.13466623223E+03  0.14198231530E+03  0.47000000000E+01 0.  1.
          5    1    5    5  503    0 -0.59592509128E+02  0.23358189075E+02 -0.29365345980E+02  0.70578223877E+02  0.47000000000E+01 0.  1.
         -5    1    5    5    0  503  0.63342548308E+02  0.10878783020E+01 -0.31629360825E+02  0.70964557151E+02  0.47000000000E+01 0.  1.
<mgrwt>
<rscale>  0 0.27173374E+03</rscale>
<asrwt>0</asrwt>
<pdfrwt beam="1">  1        1 0.91915444E-02 0.27173374E+03</pdfrwt>
<pdfrwt beam="2">  1       -1 0.47534828E-01 0.27173374E+03</pdfrwt>
<totfact> 0.32313032E+03</totfact>
</mgrwt>
</event>
<event>
 9    1  0.8093459E-001  0.2800619E+03  0.7818608E-02  0.1095655E+00
          2   -1    0    0  501    0  0.00000000000E+00  0.00000000000E+00  0.70939737654E+03  0.70939737654E+03  0.00000000000E+00 0. -1.
         -2   -1    0    0    0  501 -0.00000000000E+00 -0.00000000000E+00 -0.27641295293E+02  0.27641295293E+02  0.00000000000E+00 0. -1.
         35    2    1    2    0    0  0.00000000000E+00  0.00000000000E+00  0.68175608124E+03  0.73703867183E+03  0.28006186720E+03 0.  0.
         25    2    3    3    0    0  0.30971144155E+02 -0.64997400570E+01  0.19213432646E+03  0.23156849395E+03  0.12532721011E+03 0.  0.
         25    2    3    3    0    0 -0.30971144155E+02  0.64997400570E+01  0.48962175478E+03  0.50547017788E+03  0.12152851345E+03 0.  0.
          5    1    4    4  502    0 -0.38409160427E+02  0.14771325673E+02  0.12825169565E+03  0.13477404462E+03  0.47000000000E+01 0.  1.
         -5    1    4    4    0  502  0.69380304582E+02 -0.21271065730E+02  0.63882630816E+02  0.96794449330E+02  0.47000000000E+01 0.  1.
          5    1    5    5  503    0  0.38274443605E+02  0.24812358009E+02  0.11090170204E+03  0.12000776499E+03  0.47000000000E+01 0. -1.
         -5    1    5    5    0  503 -0.69245587760E+02 -0.18312617952E+02  0.37872005274E+03  0.38546241289E+03  0.47000000000E+01 0. -1.
<mgrwt>
<rscale>  0 0.28006187E+03</rscale>
<asrwt>0</asrwt>
<pdfrwt beam="1">  1        2 0.10913804E+00 0.28006187E+03</pdfrwt>
<pdfrwt beam="2">  1       -2 0.42525075E-02 0.28006187E+03</pdfrwt>
<totfact> 0.10305089E+04</totfact>
</mgrwt>
</event>
<event>
 9    1  0.8093459E-001  0.2754272E+03  0.7818608E-02  0.1098213E+00
          2   -1    0    0  501    0  0.00000000000E+00  0.00000000000E+00  0.22155351991E+04  0.22155351991E+04  0.00000000000E+00 0. -1.
         -2   -1    0    0    0  501 -0.00000000000E+00 -0.00000000000E+00 -0.85600217840E+01  0.85600217840E+01  0.00000000000E+00 0. -1.
         35    2    1    2    0    0  0.00000000000E+00 -0.35527136788E-14  0.22069751773E+04  0.22240952209E+04  0.27542715601E+03 0.  0.
         25    2    3    3    0    0 -0.23444289598E+02 -0.24139348697E+02  0.14992984046E+04  0.15048553073E+04  0.12474552926E+03 0.  0.
         25    2    3    3    0    0  0.23444289598E+02  0.24139348697E+02  0.70767677273E+03  0.71923991358E+03  0.12396489724E+03 0.  0.
          5    1    4    4  502    0 -0.50480330207E+02  0.35001122720E+02  0.87351817103E+03  0.87568797379E+03  0.47000000000E+01 0.  1.
         -5    1    4    4    0  502  0.27036040609E+02 -0.59140471417E+02  0.62578023357E+03  0.62916733353E+03  0.47000000000E+01 0.  1.
          5    1    5    5  503    0 -0.29455653096E+02 -0.19147893890E+02  0.76010637018E+02  0.83868851665E+02  0.47000000000E+01 0.  1.
         -5    1    5    5    0  503  0.52899942694E+02  0.43287242587E+02  0.63166613571E+03  0.63537106191E+03  0.47000000000E+01 0.  1.
<mgrwt>
<rscale>  0 0.27542716E+03</rscale>
<asrwt>0</asrwt>
<pdfrwt beam="1">  1        2 0.34085111E+00 0.27542716E+03</pdfrwt>
<pdfrwt beam="2">  1       -2 0.13169282E-02 0.27542716E+03</pdfrwt>
<totfact> 0.81541079E+03</totfact>
</mgrwt>
</event>
<event>
 9    1  0.8093459E-001  0.2771745E+03  0.7818608E-02  0.1097242E+00
         -1   -1    0    0    0  501 -0.00000000000E+00  0.00000000000E+00  0.10334818758E+03  0.10334818758E+03  0.00000000000E+00 0. -1.
          1   -1    0    0  501    0  0.00000000000E+00 -0.00000000000E+00 -0.18584192297E+03  0.18584192297E+03  0.00000000000E+00 0. -1.
         35    2    1    2    0    0  0.14210854715E-13  0.35527136788E-14 -0.82493735395E+02  0.28919011055E+03  0.27717450038E+03 0.  0.
         25    2    3    3    0    0  0.51871263546E+02 -0.43911463349E+01 -0.12245299334E+02  0.13608691550E+03  0.12513908689E+03 0.  0.
         25    2    3    3    0    0 -0.51871263546E+02  0.43911463349E+01 -0.70248436061E+02  0.15310319505E+03  0.12568148399E+03 0.  0.
          5    1    4    4  502    0 -0.55833897259E+00 -0.25701788463E+02 -0.57702335834E+02  0.63344638552E+02  0.47000000000E+01 0.  1.
         -5    1    4    4    0  502  0.52429602518E+02  0.21310642128E+02  0.45457036501E+02  0.72742276948E+02  0.47000000000E+01 0.  1.
          5    1    5    5  503    0 -0.53575744025E+02  0.51978200296E+02 -0.73862068196E+02  0.10511797549E+03  0.47000000000E+01 0. -1.
         -5    1    5    5    0  503  0.17044804792E+01 -0.47587053961E+02  0.36136321345E+01  0.47985219554E+02  0.47000000000E+01 0. -1.
<mgrwt>
<rscale>  0 0.27717450E+03</rscale>
<asrwt>0</asrwt>
<pdfrwt beam="1">  1        1 0.28591065E-01 0.27717450E+03</pdfrwt>
<pdfrwt beam="2">  1       -1 0.15899721E-01 0.27717450E+03</pdfrwt>
<totfact> 0.46850620E+03</totfact>
</mgrwt>
</event>
<event>
 9    1  0.8093459E-001  0.2733333E+03  0.7818608E-02  0.1099387E+00
          2   -1    0    0  501    0  0.00000000000E+00  0.00000000000E+00  0.11466776645E+04  0.11466776645E+04  0.00000000000E+00 0. -1.
         -2   -1    0    0    0  501 -0.00000000000E+00 -0.00000000000E+00 -0.16288596770E+02  0.16288596770E+02  0.00000000000E+00 0. -1.
         35    2    1    2    0    0 -0.35527136788E-14 -0.71054273576E-14  0.11303890677E+04  0.11629662613E+04  0.27333327717E+03 0.  0.
         25    2    3    3    0    0  0.20483676227E+02  0.42606379231E+02  0.49762198568E+03  0.51629837223E+03  0.12923422147E+03 0.  0.
         25    2    3    3    0    0 -0.20483676227E+02 -0.42606379231E+02  0.63276708205E+03  0.64666788904E+03  0.12470081811E+03 0.  0.
          5    1    4    4  502    0 -0.48307131281E+02  0.67149283838E+01  0.10258072138E+03  0.11368185253E+03  0.47000000000E+01 0.  1.
         -5    1    4    4    0  502  0.68790807508E+02  0.35891450847E+02  0.39504126429E+03  0.40261651970E+03  0.47000000000E+01 0.  1.
          5    1    5    5  503    0  0.29243568250E+02  0.98209764034E+01  0.43401992454E+03  0.43514023344E+03  0.47000000000E+01 0.  1.
         -5    1    5    5    0  503 -0.49727244477E+02 -0.52427355634E+02  0.19874715752E+03  0.21152765560E+03  0.47000000000E+01 0.  1.
<mgrwt>
<rscale>  0 0.27333328E+03</rscale>
<asrwt>0</asrwt>
<pdfrwt beam="1">  1        2 0.17641189E+00 0.27333328E+03</pdfrwt>
<pdfrwt beam="2">  1       -2 0.25059389E-02 0.27333328E+03</pdfrwt>
<totfact> 0.11855575E+04</totfact>
</mgrwt>
</event>
<event>
 9    1  0.8093459E-001  0.2762306E+03  0.7818608E-02  0.1097766E+00
          3   -1    0    0  501    0  0.00000000000E+00  0.00000000000E+00  0.13305498037E+03  0.13305498037E+03  0.00000000000E+00 0. -1.
         -3   -1    0    0    0  501 -0.00000000000E+00 -0.00000000000E+00 -0.14336805404E+03  0.14336805404E+03  0.00000000000E+00 0. -1.
         35    2    1    2    0    0  0.00000000000E+00 -0.71054273576E-14 -0.10313073672E+02  0.27642303441E+03  0.27623058206E+03 0.  0.
         25    2    3    3    0    0 -0.18735040991E+02 -0.19390434069E+02  0.37684136450E+02  0.14009879913E+03  0.13221417731E+03 0.  0.
         25    2    3    3    0    0  0.18735040991E+02  0.19390434069E+02 -0.47997210122E+02  0.13632423528E+03  0.12471396975E+03 0.  0.
          5    1    4    4  502    0  0.50151211427E+02 -0.27559881583E+02 -0.63995278517E+01  0.57773134217E+02  0.47000000000E+01 0. -1.
         -5    1    4    4    0  502 -0.68886252419E+02  0.81694475139E+01  0.44083664302E+02  0.82325664912E+02  0.47000000000E+01 0. -1.
          5    1    5    5  503    0 -0.26073100748E+02 -0.42978521740E+02 -0.22443677304E+02  0.55251864806E+02  0.47000000000E+01 0.  1.
         -5    1    5    5    0  503  0.44808141739E+02  0.62368955810E+02 -0.25553532818E+02  0.81072370475E+02  0.47000000000E+01 0.  1.
<mgrwt>
<rscale>  0 0.27623058E+03</rscale>
<asrwt>0</asrwt>
<pdfrwt beam="1">  1        3 0.20469997E-01 0.27623058E+03</pdfrwt>
<pdfrwt beam="2">  1       -3 0.22056624E-01 0.27623058E+03</pdfrwt>
<totfact> 0.10324610E+03</totfact>
</mgrwt>
</event>
<event>
 9    1  0.8093459E-001  0.2735924E+03  0.7818608E-02  0.1099241E+00
         -2   -1    0    0    0  501 -0.00000000000E+00  0.00000000000E+00  0.56037682345E+03  0.56037682345E+03  0.00000000000E+00 0. -1.
          2   -1    0    0  501    0  0.00000000000E+00 -0.00000000000E+00 -0.33393954178E+02  0.33393954178E+02  0.00000000000E+00 0. -1.
         35    2    1    2    0    0 -0.71054273576E-14  0.71054273576E-14  0.52698286927E+03  0.59377077763E+03  0.27359238268E+03 0.  0.
         25    2    3    3    0    0  0.21772011114E+02  0.38011388947E+02  0.18188155997E+03  0.22339656441E+03  0.12209110114E+03 0.  0.
         25    2    3    3    0    0 -0.21772011114E+02 -0.38011388947E+02  0.34510130930E+03  0.37037421322E+03  0.12713480237E+03 0.  0.
          5    1    4    4  502    0  0.51183953145E+02  0.17791819336E+02  0.17922755438E+03  0.18729909809E+03  0.47000000000E+01 0.  1.
         -5    1    4    4    0  502 -0.29411942031E+02  0.20219569611E+02  0.26540055852E+01  0.36097466323E+02  0.47000000000E+01 0.  1.
          5    1    5    5  503    0  0.22815283445E+02  0.96347754556E+01  0.26831267468E+03  0.26949424382E+03  0.47000000000E+01 0.  1.
         -5    1    5    5    0  503 -0.44587294559E+02 -0.47646164403E+02  0.76788634624E+02  0.10087996940E+03  0.47000000000E+01 0.  1.
<mgrwt>
<rscale>  0 0.27359238E+03</rscale>
<asrwt>0</asrwt>
<pdfrwt beam="1">  1        2 0.51375318E-02 0.27359238E+03</pdfrwt>
<pdfrwt beam="2">  1       -2 0.86211812E-01 0.27359238E+03</pdfrwt>
<totfact> 0.18241835E+03</totfact>
</mgrwt>
</event>
<event>
 9    1  0.8093459E-001  0.2752561E+03  0.7818608E-02  0.1098309E+00
          1   -1    0    0  501    0  0.00000000000E+00  0.00000000000E+00  0.98221263917E+03  0.98221263917E+03  0.00000000000E+00 0.  1.
         -1   -1    0    0    0  501 -0.00000000000E+00 -0.00000000000E+00 -0.19284501721E+02  0.19284501721E+02  0.00000000000E+00 0.  1.
         35    2    1    2    0    0  0.71054273576E-14 -0.53290705182E-14  0.96292813744E+03  0.10014971409E+04  0.27525610860E+03 0.  0.
         25    2    3    3    0    0 -0.54681829497E+02 -0.89300754361E+01  0.54582398440E+03  0.56266144027E+03  0.12487684212E+03 0.  0.
         25    2    3    3    0    0  0.54681829497E+02  0.89300754361E+01  0.41710415304E+03  0.43883570061E+03  0.12462362907E+03 0.  0.
          5    1    4    4  502    0  0.20837439956E+02 -0.23528299555E+02  0.36127189235E+03  0.36266685813E+03  0.47000000000E+01 0.  1.
         -5    1    4    4    0  502 -0.75519269453E+02  0.14598224119E+02  0.18455209205E+03  0.19999458215E+03  0.47000000000E+01 0.  1.
          5    1    5    5  503    0  0.38016728175E+02 -0.56689720087E+02  0.20096221548E+03  0.21228965597E+03  0.47000000000E+01 0.  1.
         -5    1    5    5    0  503  0.16665101322E+02  0.65619795523E+02  0.21614193757E+03  0.22654604464E+03  0.47000000000E+01 0.  1.
<mgrwt>
<rscale>  0 0.27525611E+03</rscale>
<asrwt>0</asrwt>
<pdfrwt beam="1">  1        1 0.15110960E+00 0.27525611E+03</pdfrwt>
<pdfrwt beam="2">  1       -1 0.29668472E-02 0.27525611E+03</pdfrwt>
<totfact> 0.63200334E+03</totfact>
</mgrwt>
</event>
<event>
 9    1  0.8093459E-001  0.2743043E+03  0.7818608E-02  0.1098841E+00
          2   -1    0    0  501    0  0.00000000000E+00  0.00000000000E+00  0.76711007774E+03  0.76711007774E+03  0.00000000000E+00 0.  1.
         -2   -1    0    0    0  501 -0.00000000000E+00 -0.00000000000E+00 -0.24521529370E+02  0.24521529370E+02  0.00000000000E+00 0.  1.
         35    2    1    2    0    0  0.00000000000E+00  0.00000000000E+00  0.74258854837E+03  0.79163160710E+03  0.27430430037E+03 0.  0.
         25    2    3    3    0    0 -0.30142489762E+02 -0.43669299767E+02  0.42854408212E+03  0.44935966011E+03  0.12433220170E+03 0.  0.
         25    2    3    3    0    0  0.30142489762E+02  0.43669299767E+02  0.31404446624E+03  0.34227194699E+03  0.12534185850E+03 0.  0.
          5    1    4    4  502    0  0.13425922209E+02  0.26405392370E+02  0.25913634320E+03  0.26086631538E+03  0.47000000000E+01 0.  1.
         -5    1    4    4    0  502 -0.43568411971E+02 -0.70074692137E+02  0.16940773892E+03  0.18849334473E+03  0.47000000000E+01 0.  1.
          5    1    5    5  503    0 -0.53830319550E+01 -0.27987127028E+02  0.20464315270E+03  0.20667163874E+03  0.47000000000E+01 0. -1.
         -5    1    5    5    0  503  0.35525521716E+02  0.71656426795E+02  0.10940131354E+03  0.13560030825E+03  0.47000000000E+01 0. -1.
<mgrwt>
<rscale>  0 0.27430430E+03</rscale>
<asrwt>0</asrwt>
<pdfrwt beam="1">  1        2 0.11801692E+00 0.27430430E+03</pdfrwt>
<pdfrwt beam="2">  1       -2 0.37725436E-02 0.27430430E+03</pdfrwt>
<totfact> 0.11194843E+04</totfact>
</mgrwt>
</event>
<event>
 9    1  0.8093459E-001  0.2856092E+03  0.7818608E-02  0.1092664E+00
          2   -1    0    0  501    0  0.00000000000E+00  0.00000000000E+00  0.81992137010E+03  0.81992137010E+03  0.00000000000E+00 0. -1.
         -2   -1    0    0    0  501 -0.00000000000E+00 -0.00000000000E+00 -0.24872082308E+02  0.24872082308E+02  0.00000000000E+00 0. -1.
         35    2    1    2    0    0  0.00000000000E+00  0.71054273576E-14  0.79504928779E+03  0.84479345241E+03  0.28560918615E+03 0.  0.
         25    2    3    3    0    0  0.58711105701E+02  0.34933486599E+02  0.35731402197E+03  0.38464888721E+03  0.12495644728E+03 0.  0.
         25    2    3    3    0    0 -0.58711105701E+02 -0.34933486599E+02  0.43773526583E+03  0.46014456520E+03  0.12431216963E+03 0.  0.
          5    1    4    4  502    0  0.28238426748E+02 -0.46803997930E+02  0.12830389931E+03  0.13954212104E+03  0.47000000000E+01 0.  1.
         -5    1    4    4    0  502  0.30472678953E+02  0.81737484529E+02  0.22901012266E+03  0.24510676617E+03  0.47000000000E+01 0.  1.
          5    1    5    5  503    0 -0.33785916872E+02  0.45137929851E+02  0.20717805326E+03  0.21476442127E+03  0.47000000000E+01 0. -1.
         -5    1    5    5    0  503 -0.24925188829E+02 -0.80071416450E+02  0.23055721257E+03  0.24538014394E+03  0.47000000000E+01 0. -1.
<mgrwt>
<rscale>  0 0.28560919E+03</rscale>
<asrwt>0</asrwt>
<pdfrwt beam="1">  1        2 0.12614173E+00 0.28560919E+03</pdfrwt>
<pdfrwt beam="2">  1       -2 0.38264748E-02 0.28560919E+03</pdfrwt>
<totfact> 0.10083934E+04</totfact>
</mgrwt>
</event>
<event>
 9    1  0.8093459E-001  0.2745236E+03  0.7818608E-02  0.1098718E+00
         -1   -1    0    0    0  501 -0.00000000000E+00  0.00000000000E+00  0.52321787324E+03  0.52321787324E+03  0.00000000000E+00 0. -1.
          1   -1    0    0  501    0  0.00000000000E+00 -0.00000000000E+00 -0.36009487766E+02  0.36009487766E+02  0.00000000000E+00 0. -1.
         35    2    1    2    0    0  0.00000000000E+00  0.71054273576E-14  0.48720838548E+03  0.55922736101E+03  0.27452364274E+03 0.  0.
         25    2    3    3    0    0  0.11926175167E+01  0.45674660287E+02  0.16713201466E+03  0.21276813739E+03  0.12348916161E+03 0.  0.
         25    2    3    3    0    0 -0.11926175167E+01 -0.45674660287E+02  0.32007637082E+03  0.34645922362E+03  0.12448900975E+03 0.  0.
          5    1    4    4  502    0  0.39166803883E+02  0.21597253989E+01  0.14574039816E+03  0.15100018741E+03  0.47000000000E+01 0. -1.
         -5    1    4    4    0  502 -0.37974186366E+02  0.43514934888E+02  0.21391616497E+02  0.61767949981E+02  0.47000000000E+01 0. -1.
          5    1    5    5  503    0 -0.36512944927E+02 -0.71989791562E+02  0.14663062438E+03  0.16744657429E+03  0.47000000000E+01 0.  1.
         -5    1    5    5    0  503  0.35320327411E+02  0.26315131275E+02  0.17344574644E+03  0.17901264933E+03  0.47000000000E+01 0.  1.
<mgrwt>
<rscale>  0 0.27452364E+03</rscale>
<asrwt>0</asrwt>
<pdfrwt beam="1">  1        1 0.55399216E-02 0.27452364E+03</pdfrwt>
<pdfrwt beam="2">  1       -1 0.80495052E-01 0.27452364E+03</pdfrwt>
<totfact> 0.23198884E+03</totfact>
</mgrwt>
</event>
<event>
 9    1  0.8093459E-001  0.2785039E+03  0.7818608E-02  0.1096509E+00
          3   -1    0    0  501    0  0.00000000000E+00  0.00000000000E+00  0.53757228659E+02  0.53757228659E+02  0.00000000000E+00 0. -1.
         -3   -1    0    0    0  501 -0.00000000000E+00 -0.00000000000E+00 -0.36071621533E+03  0.36071621533E+03  0.00000000000E+00 0. -1.
         35    2    1    2    0    0  0.00000000000E+00 -0.71054273576E-14 -0.30695898667E+03  0.41447344399E+03  0.27850388915E+03 0.  0.
         25    2    3    3    0    0 -0.40648135726E+02 -0.40183286137E+02 -0.18698627373E+03  0.23214233493E+03  0.12513684382E+03 0.  0.
         25    2    3    3    0    0  0.40648135726E+02  0.40183286137E+02 -0.11997271294E+03  0.18233110905E+03  0.12483674962E+03 0.  0.
          5    1    4    4  502    0 -0.68241519043E+02  0.10978535482E+02 -0.57145917424E+02  0.89806341874E+02  0.47000000000E+01 0.  1.
         -5    1    4    4    0  502  0.27593383317E+02 -0.51161821619E+02 -0.12984035631E+03  0.14233599306E+03  0.47000000000E+01 0.  1.
          5    1    5    5  503    0  0.31343569398E+02  0.51286864724E+02 -0.14273386643E+03  0.15494453350E+03  0.47000000000E+01 0.  1.
         -5    1    5    5    0  503  0.93045663271E+01 -0.11103578587E+02  0.22761153494E+02  0.27386575550E+02  0.47000000000E+01 0.  1.
<mgrwt>
<rscale>  0 0.27850389E+03</rscale>
<asrwt>0</asrwt>
<pdfrwt beam="1">  1        3 0.82703428E-02 0.27850389E+03</pdfrwt>
<pdfrwt beam="2">  1       -3 0.55494803E-01 0.27850389E+03</pdfrwt>
<totfact> 0.83113594E+02</totfact>
</mgrwt>
</event>
<event>
 9    1  0.8093459E-001  0.2761165E+03  0.7818608E-02  0.1097829E+00
          2   -1    0    0  501    0  0.00000000000E+00  0.00000000000E+00  0.65144700310E+03  0.65144700310E+03  0.00000000000E+00 0.  1.
         -2   -1    0    0    0  501 -0.00000000000E+00 -0.00000000000E+00 -0.29258072673E+02  0.29258072673E+02  0.00000000000E+00 0.  1.
         35    2    1    2    0    0  0.00000000000E+00 -0.71054273576E-14  0.62218893043E+03  0.68070507577E+03  0.27611652438E+03 0.  0.
         25    2    3    3    0    0  0.57095823309E+02 -0.19375905423E+02  0.31166206129E+03  0.34092221561E+03  0.12433566625E+03 0.  0.
         25    2    3    3    0    0 -0.57095823309E+02  0.19375905423E+02  0.31052686914E+03  0.33978286016E+03  0.12405682912E+03 0.  0.
          5    1    4    4  502    0  0.62492180262E+02  0.21005271601E+02  0.71842195864E+02  0.97621130579E+02  0.47000000000E+01 0.  1.
         -5    1    4    4    0  502 -0.53963569522E+01 -0.40381177024E+02  0.23981986543E+03  0.24330108503E+03  0.47000000000E+01 0.  1.
          5    1    5    5  503    0 -0.22908603703E+02 -0.33439937251E+02  0.24664706378E+03  0.24999979519E+03  0.47000000000E+01 0.  1.
         -5    1    5    5    0  503 -0.34187219607E+02  0.52815842675E+02  0.63879805364E+02  0.89783064969E+02  0.47000000000E+01 0.  1.
<mgrwt>
<rscale>  0 0.27611652E+03</rscale>
<asrwt>0</asrwt>
<pdfrwt beam="1">  1        2 0.10022260E+00 0.27611652E+03</pdfrwt>
<pdfrwt beam="2">  1       -2 0.45012424E-02 0.27611652E+03</pdfrwt>
<totfact> 0.10472879E+04</totfact>
</mgrwt>
</event>
<event>
 9    1  0.8093459E-001  0.2773913E+03  0.7818608E-02  0.1097122E+00
         -2   -1    0    0    0  501 -0.00000000000E+00  0.00000000000E+00  0.12776098986E+02  0.12776098986E+02  0.00000000000E+00 0.  1.
          2   -1    0    0  501    0  0.00000000000E+00 -0.00000000000E+00 -0.15056615498E+04  0.15056615498E+04  0.00000000000E+00 0.  1.
         35    2    1    2    0    0 -0.71054273576E-14  0.00000000000E+00 -0.14928854508E+04  0.15184376487E+04  0.27739128320E+03 0.  0.
         25    2    3    3    0    0 -0.32191793163E+02  0.62103686918E+02 -0.84643569729E+03  0.85854856867E+03  0.12553515702E+03 0.  0.
         25    2    3    3    0    0  0.32191793163E+02 -0.62103686918E+02 -0.64644975349E+03  0.65988908007E+03  0.11253059469E+03 0.  0.
          5    1    4    4  502    0  0.43047389662E+02  0.76630119718E+01 -0.16347828198E+03  0.16928980532E+03  0.47000000000E+01 0. -1.
         -5    1    4    4    0  502 -0.75239182825E+02  0.54440674946E+02 -0.68295741531E+03  0.68925876335E+03  0.47000000000E+01 0. -1.
          5    1    5    5  503    0 -0.32505668418E+02  0.55485863041E+01 -0.98457847860E+02  0.10393961273E+03  0.47000000000E+01 0.  1.
         -5    1    5    5    0  503  0.64697461582E+02 -0.67652273222E+02 -0.54799190563E+03  0.55594946734E+03  0.47000000000E+01 0.  1.
<mgrwt>
<rscale>  0 0.27739128E+03</rscale>
<asrwt>0</asrwt>
<pdfrwt beam="1">  1        2 0.23164021E+00 0.27739128E+03</pdfrwt>
<pdfrwt beam="2">  1       -2 0.19655539E-02 0.27739128E+03</pdfrwt>
<totfact> 0.10748049E+04</totfact>
</mgrwt>
</event>
<event>
 9    1  0.8093459E-001  0.2769240E+03  0.7818608E-02  0.1097381E+00
          1   -1    0    0  501    0  0.00000000000E+00  0.00000000000E+00  0.59228381812E+03  0.59228381812E+03  0.00000000000E+00 0. -1.
         -1   -1    0    0    0  501 -0.00000000000E+00 -0.00000000000E+00 -0.32369163679E+02  0.32369163679E+02  0.00000000000E+00 0. -1.
         35    2    1    2    0    0 -0.35527136788E-14  0.17763568394E-14  0.55991465444E+03  0.62465298179E+03  0.27692404629E+03 0.  0.
         25    2    3    3    0    0 -0.81931187327E+01  0.20074642253E+01  0.40780915690E+03  0.42667378631E+03  0.12518408192E+03 0.  0.
         25    2    3    3    0    0  0.81931187327E+01 -0.20074642253E+01  0.15210549753E+03  0.19797919548E+03  0.12644572890E+03 0.  0.
          5    1    4    4  502    0 -0.54628069002E+02 -0.43229069387E+01  0.33810119214E+03  0.34254550001E+03  0.47000000000E+01 0. -1.
         -5    1    4    4    0  502  0.46434950270E+02  0.63303711639E+01  0.69707964764E+02  0.84128286308E+02  0.47000000000E+01 0. -1.
          5    1    5    5  503    0  0.26479975806E+02 -0.56358306800E+02  0.47005338589E+02  0.78160346212E+02  0.47000000000E+01 0.  1.
         -5    1    5    5    0  503 -0.18286857073E+02  0.54350842574E+02  0.10510015894E+03  0.11981884927E+03  0.47000000000E+01 0.  1.
<mgrwt>
<rscale>  0 0.27692405E+03</rscale>
<asrwt>0</asrwt>
<pdfrwt beam="1">  1        1 0.91120580E-01 0.27692405E+03</pdfrwt>
<pdfrwt beam="2">  1       -1 0.49798718E-02 0.27692405E+03</pdfrwt>
<totfact> 0.63196280E+03</totfact>
</mgrwt>
</event>
<event>
 9    1  0.8093459E-001  0.2761829E+03  0.7818608E-02  0.1097792E+00
          1   -1    0    0  501    0  0.00000000000E+00  0.00000000000E+00  0.12078394753E+03  0.12078394753E+03  0.00000000000E+00 0.  1.
         -1   -1    0    0    0  501 -0.00000000000E+00 -0.00000000000E+00 -0.15787894073E+03  0.15787894073E+03  0.00000000000E+00 0.  1.
         35    2    1    2    0    0 -0.35527136788E-14  0.00000000000E+00 -0.37094993191E+02  0.27866288826E+03  0.27618285025E+03 0.  0.
         25    2    3    3    0    0  0.80353736357E+01  0.58967308503E+02 -0.24102173558E+02  0.14030528253E+03  0.12475154040E+03 0.  0.
         25    2    3    3    0    0 -0.80353736357E+01 -0.58967308503E+02 -0.12992819634E+02  0.13835760573E+03  0.12422682078E+03 0.  0.
          5    1    4    4  502    0  0.30515943468E+02  0.12283573388E+02 -0.65744506422E+02  0.73665046702E+02  0.47000000000E+01 0.  1.
         -5    1    4    4    0  502 -0.22480569832E+02  0.46683735114E+02  0.41642332865E+02  0.66640235823E+02  0.47000000000E+01 0.  1.
          5    1    5    5  503    0  0.19404717041E+02 -0.49274853588E+02 -0.61686336527E+02  0.81436161216E+02  0.47000000000E+01 0. -1.
         -5    1    5    5    0  503 -0.27440090676E+02 -0.96924549148E+01  0.48693516893E+02  0.56921444518E+02  0.47000000000E+01 0. -1.
<mgrwt>
<rscale>  0 0.27618285E+03</rscale>
<asrwt>0</asrwt>
<pdfrwt beam="1">  1        1 0.18582146E-01 0.27618285E+03</pdfrwt>
<pdfrwt beam="2">  1       -1 0.24289068E-01 0.27618285E+03</pdfrwt>
<totfact> 0.40840486E+03</totfact>
</mgrwt>
</event>
<event>
 9    1  0.8093459E-001  0.2756135E+03  0.7818608E-02  0.1098109E+00
          2   -1    0    0  501    0  0.00000000000E+00  0.00000000000E+00  0.39633402173E+03  0.39633402173E+03  0.00000000000E+00 0. -1.
         -2   -1    0    0    0  501 -0.00000000000E+00 -0.00000000000E+00 -0.47915904245E+02  0.47915904245E+02  0.00000000000E+00 0. -1.
         35    2    1    2    0    0  0.71054273576E-14  0.14210854715E-13  0.34841811749E+03  0.44424992598E+03  0.27561351951E+03 0.  0.
         25    2    3    3    0    0  0.23084855718E+02  0.32317779006E+02  0.24455971420E+03  0.27881429623E+03  0.12786949818E+03 0.  0.
         25    2    3    3    0    0 -0.23084855718E+02 -0.32317779006E+02  0.10385840328E+03  0.16543562975E+03  0.12249502135E+03 0.  0.
          5    1    4    4  502    0 -0.63049483511E+01  0.62201974358E+02  0.22260343163E+03  0.23126438498E+03  0.47000000000E+01 0. -1.
         -5    1    4    4    0  502  0.29389804069E+02 -0.29884195352E+02  0.21956282577E+02  0.47549911248E+02  0.47000000000E+01 0. -1.
          5    1    5    5  503    0 -0.66234480602E+02 -0.18629146176E+02  0.23090943741E+02  0.72727802048E+02  0.47000000000E+01 0. -1.
         -5    1    5    5    0  503  0.43149624884E+02 -0.13688632830E+02  0.80767459541E+02  0.92707827701E+02  0.47000000000E+01 0. -1.
<mgrwt>
<rscale>  0 0.27561352E+03</rscale>
<asrwt>0</asrwt>
<pdfrwt beam="1">  1        2 0.60974463E-01 0.27561352E+03</pdfrwt>
<pdfrwt beam="2">  1       -2 0.73716778E-02 0.27561352E+03</pdfrwt>
<totfact> 0.86117547E+03</totfact>
</mgrwt>
</event>
<event>
 9    1  0.8093459E-001  0.2749527E+03  0.7818608E-02  0.1098478E+00
          1   -1    0    0  501    0  0.00000000000E+00  0.00000000000E+00  0.30874315502E+03  0.30874315502E+03  0.00000000000E+00 0.  1.
         -1   -1    0    0    0  501 -0.00000000000E+00 -0.00000000000E+00 -0.61215105412E+02  0.61215105412E+02  0.00000000000E+00 0.  1.
         35    2    1    2    0    0 -0.71054273576E-14 -0.71054273576E-14  0.24752804961E+03  0.36995826043E+03  0.27495268524E+03 0.  0.
         25    2    3    3    0    0  0.40672352949E+02 -0.29451293872E+02  0.15765928215E+03  0.20715533712E+03  0.12464054494E+03 0.  0.
         25    2    3    3    0    0 -0.40672352949E+02  0.29451293872E+02  0.89868767456E+02  0.16280292331E+03  0.12612207368E+03 0.  0.
          5    1    4    4  502    0  0.29801244041E+02 -0.78095612887E+02  0.89099788345E+02  0.12226160960E+03  0.47000000000E+01 0. -1.
         -5    1    4    4    0  502  0.10871108907E+02  0.48644319015E+02  0.68559493806E+02  0.84893727520E+02  0.47000000000E+01 0. -1.
          5    1    5    5  503    0 -0.57940199888E+02 -0.33271147971E+02  0.63984564069E+02  0.92629101742E+02  0.47000000000E+01 0. -1.
         -5    1    5    5    0  503  0.17267846940E+02  0.62722441843E+02  0.25884203387E+02  0.70173821570E+02  0.47000000000E+01 0. -1.
<mgrwt>
<rscale>  0 0.27495269E+03</rscale>
<asrwt>0</asrwt>
<pdfrwt beam="1">  1        1 0.47498946E-01 0.27495269E+03</pdfrwt>
<pdfrwt beam="2">  1       -1 0.94177087E-02 0.27495269E+03</pdfrwt>
<totfact> 0.56154539E+03</totfact>
</mgrwt>
</event>
<event>
 9    1  0.8093459E-001  0.2756073E+03  0.7818608E-02  0.1098113E+00
          2   -1    0    0  501    0  0.00000000000E+00  0.00000000000E+00  0.27204112329E+03  0.27204112329E+03  0.00000000000E+00 0. -1.
         -2   -1    0    0    0  501 -0.00000000000E+00 -0.00000000000E+00 -0.69805059764E+02  0.69805059764E+02  0.00000000000E+00 0. -1.
         35    2    1    2    0    0 -0.71054273576E-14  0.00000000000E+00  0.20223606353E+03  0.34184618306E+03  0.27560730665E+03 0.  0.
         25    2    3    3    0    0  0.39536219768E+02  0.37952272821E+02  0.78283186351E+02  0.15782160572E+03  0.12560220651E+03 0.  0.
         25    2    3    3    0    0 -0.39536219768E+02 -0.37952272821E+02  0.12395287718E+03  0.18402457734E+03  0.12448791756E+03 0.  0.
          5    1    4    4  502    0  0.32860537044E+02 -0.14425852915E+02  0.95465106955E+02  0.10209601742E+03  0.47000000000E+01 0. -1.
         -5    1    4    4    0  502  0.66756827249E+01  0.52378125736E+02 -0.17181920604E+02  0.55725588297E+02  0.47000000000E+01 0. -1.
          5    1    5    5  503    0 -0.76271061703E+01  0.43496614826E+02  0.21857992652E+02  0.49497374604E+02  0.47000000000E+01 0.  1.
         -5    1    5    5    0  503 -0.31909113598E+02 -0.81448887647E+02  0.10209488453E+03  0.13452720274E+03  0.47000000000E+01 0.  1.
<mgrwt>
<rscale>  0 0.27560731E+03</rscale>
<asrwt>0</asrwt>
<pdfrwt beam="1">  1        2 0.41852480E-01 0.27560731E+03</pdfrwt>
<pdfrwt beam="2">  1       -2 0.10739240E-01 0.27560731E+03</pdfrwt>
<totfact> 0.71436400E+03</totfact>
</mgrwt>
</event>
<event>
 9    1  0.8093459E-001  0.2819159E+03  0.7818608E-02  0.1094647E+00
         -1   -1    0    0    0  501 -0.00000000000E+00  0.00000000000E+00  0.93131838888E+02  0.93131838888E+02  0.00000000000E+00 0. -1.
          1   -1    0    0  501    0  0.00000000000E+00 -0.00000000000E+00 -0.21334419294E+03  0.21334419294E+03  0.00000000000E+00 0. -1.
         35    2    1    2    0    0  0.35527136788E-14 -0.14210854715E-13 -0.12021235405E+03  0.30647603183E+03  0.28191585273E+03 0.  0.
         25    2    3    3    0    0  0.10536872612E+02  0.62735299501E+02 -0.76111157220E+02  0.15935970436E+03  0.12472314794E+03 0.  0.
         25    2    3    3    0    0 -0.10536872612E+02 -0.62735299501E+02 -0.44101196831E+02  0.14711632747E+03  0.12510617394E+03 0.  0.
          5    1    4    4  502    0 -0.29927640588E+02  0.80380645901E+02 -0.20701348096E+02  0.88359197142E+02  0.47000000000E+01 0. -1.
         -5    1    4    4    0  502  0.40464513201E+02 -0.17645346400E+02 -0.55409809124E+02  0.71000507219E+02  0.47000000000E+01 0. -1.
          5    1    5    5  503    0  0.39644178935E+02 -0.60831739744E+01 -0.57349728541E+02  0.70140910264E+02  0.47000000000E+01 0. -1.
         -5    1    5    5    0  503 -0.50181051547E+02 -0.56652125526E+02  0.13248531710E+02  0.76975417203E+02  0.47000000000E+01 0. -1.
<mgrwt>
<rscale>  0 0.28191585E+03</rscale>
<asrwt>0</asrwt>
<pdfrwt beam="1">  1        1 0.32822184E-01 0.28191585E+03</pdfrwt>
<pdfrwt beam="2">  1       -1 0.14327975E-01 0.28191585E+03</pdfrwt>
<totfact> 0.46463713E+03</totfact>
</mgrwt>
</event>
<event>
 9    1  0.8093459E-001  0.2759552E+03  0.7818608E-02  0.1097919E+00
         -1   -1    0    0    0  501 -0.00000000000E+00  0.00000000000E+00  0.88737177801E+01  0.88737177801E+01  0.00000000000E+00 0.  1.
          1   -1    0    0  501    0  0.00000000000E+00 -0.00000000000E+00 -0.21454156723E+04  0.21454156723E+04  0.00000000000E+00 0.  1.
         35    2    1    2    0    0  0.00000000000E+00  0.14210854715E-13 -0.21365419546E+04  0.21542893901E+04  0.27595516446E+03 0.  0.
         25    2    3    3    0    0 -0.54167094734E+00  0.57197703742E+02 -0.10357107002E+04  0.10449214597E+04  0.12606479115E+03 0.  0.
         25    2    3    3    0    0  0.54167094734E+00 -0.57197703742E+02 -0.11008312543E+04  0.11093679305E+04  0.12488348130E+03 0.  0.
          5    1    4    4  502    0 -0.58414719017E+02  0.75209310941E+01 -0.34820728714E+03  0.35318443995E+03  0.47000000000E+01 0. -1.
         -5    1    4    4    0  502  0.57873048070E+02  0.49676772647E+02 -0.68750341311E+03  0.69173701973E+03  0.47000000000E+01 0. -1.
          5    1    5    5  503    0 -0.40643770990E+02  0.21259079755E+02 -0.28224773290E+03  0.28598905105E+03  0.47000000000E+01 0. -1.
         -5    1    5    5    0  503  0.41185441937E+02 -0.78456783497E+02 -0.81858352142E+03  0.82337887940E+03  0.47000000000E+01 0. -1.
<mgrwt>
<rscale>  0 0.27595516E+03</rscale>
<asrwt>0</asrwt>
<pdfrwt beam="1">  1        1 0.33006398E+00 0.27595516E+03</pdfrwt>
<pdfrwt beam="2">  1       -1 0.13651872E-02 0.27595516E+03</pdfrwt>
<totfact> 0.32480843E+03</totfact>
</mgrwt>
</event>
<event>
 9    1  0.8093459E-001  0.2735116E+03  0.7818608E-02  0.1099286E+00
         -2   -1    0    0    0  501 -0.00000000000E+00  0.00000000000E+00  0.26992211347E+02  0.26992211347E+02  0.00000000000E+00 0. -1.
          2   -1    0    0  501    0  0.00000000000E+00 -0.00000000000E+00 -0.69287218729E+03  0.69287218729E+03  0.00000000000E+00 0. -1.
         35    2    1    2    0    0  0.71054273576E-14  0.71054273576E-14 -0.66587997594E+03  0.71986439863E+03  0.27351162693E+03 0.  0.
         25    2    3    3    0    0  0.38004918689E+02 -0.40726784061E+02 -0.31126188451E+03  0.33961162806E+03  0.12389129258E+03 0.  0.
         25    2    3    3    0    0 -0.38004918689E+02  0.40726784061E+02 -0.35461809142E+03  0.38025277057E+03  0.12543976236E+03 0.  0.
          5    1    4    4  502    0 -0.30118987850E+02 -0.47327671659E+02 -0.20915061662E+03  0.21659439597E+03  0.47000000000E+01 0. -1.
         -5    1    4    4    0  502  0.68123906539E+02  0.66008875985E+01 -0.10211126790E+03  0.12301723209E+03  0.47000000000E+01 0. -1.
          5    1    5    5  503    0 -0.68138068343E+02  0.42800720398E+02 -0.33349339766E+03  0.34309566350E+03  0.47000000000E+01 0.  1.
         -5    1    5    5    0  503  0.30133149654E+02 -0.20739363376E+01 -0.21124693759E+02  0.37157107078E+02  0.47000000000E+01 0.  1.
<mgrwt>
<rscale>  0 0.27351163E+03</rscale>
<asrwt>0</asrwt>
<pdfrwt beam="1">  1        2 0.10659573E+00 0.27351163E+03</pdfrwt>
<pdfrwt beam="2">  1       -2 0.41526474E-02 0.27351163E+03</pdfrwt>
<totfact> 0.10981734E+04</totfact>
</mgrwt>
</event>
<event>
 9    1  0.8093459E-001  0.2751047E+03  0.7818608E-02  0.1098393E+00
         -2   -1    0    0    0  501 -0.00000000000E+00  0.00000000000E+00  0.20491104023E+02  0.20491104023E+02  0.00000000000E+00 0. -1.
          2   -1    0    0  501    0  0.00000000000E+00 -0.00000000000E+00 -0.92335901021E+03  0.92335901021E+03  0.00000000000E+00 0. -1.
         35    2    1    2    0    0  0.00000000000E+00 -0.35527136788E-14 -0.90286790618E+03  0.94385011423E+03  0.27510467483E+03 0.  0.
         25    2    3    3    0    0 -0.22827817120E+00  0.15715223299E+02 -0.61550847565E+03  0.62990172136E+03  0.13296042500E+03 0.  0.
         25    2    3    3    0    0  0.22827817120E+00 -0.15715223299E+02 -0.28735943053E+03  0.31394839287E+03  0.12546366293E+03 0.  0.
          5    1    4    4  502    0 -0.46790967919E+02  0.37230657916E+02 -0.14992800599E+03  0.16148069094E+03  0.47000000000E+01 0. -1.
         -5    1    4    4    0  502  0.46562689748E+02 -0.21515434617E+02 -0.46558046966E+03  0.46842103041E+03  0.47000000000E+01 0. -1.
          5    1    5    5  503    0 -0.49599352986E+02  0.28587442656E+02 -0.16201518343E+03  0.17189632735E+03  0.47000000000E+01 0. -1.
         -5    1    5    5    0  503  0.49827631157E+02 -0.44302665955E+02 -0.12534424710E+03  0.14205206552E+03  0.47000000000E+01 0. -1.
<mgrwt>
<rscale>  0 0.27510467E+03</rscale>
<asrwt>0</asrwt>
<pdfrwt beam="1">  1        2 0.14205520E+00 0.27510467E+03</pdfrwt>
<pdfrwt beam="2">  1       -2 0.31524783E-02 0.27510467E+03</pdfrwt>
<totfact> 0.11506629E+04</totfact>
</mgrwt>
</event>
<event>
 9    1  0.8093459E-001  0.2747934E+03  0.7818608E-02  0.1098567E+00
          2   -1    0    0  501    0  0.00000000000E+00  0.00000000000E+00  0.85513089612E+02  0.85513089612E+02  0.00000000000E+00 0. -1.
         -2   -1    0    0    0  501 -0.00000000000E+00 -0.00000000000E+00 -0.22075977573E+03  0.22075977573E+03  0.00000000000E+00 0. -1.
         35    2    1    2    0    0 -0.71054273576E-14  0.00000000000E+00 -0.13524668612E+03  0.30627286534E+03  0.27479338045E+03 0.  0.
         25    2    3    3    0    0 -0.36873048265E+02  0.54667706039E+02 -0.84573404627E+02  0.16289668777E+03  0.12261521253E+03 0.  0.
         25    2    3    3    0    0  0.36873048265E+02 -0.54667706039E+02 -0.50673281489E+02  0.14337617757E+03  0.11679369447E+03 0.  0.
          5    1    4    4  502    0  0.33729363869E+02  0.13593938381E+02  0.98402389299E+01  0.37965582439E+02  0.47000000000E+01 0. -1.
         -5    1    4    4    0  502 -0.70602412134E+02  0.41073767658E+02 -0.94413643557E+02  0.12493110533E+03  0.47000000000E+01 0. -1.
          5    1    5    5  503    0  0.70250691346E+02 -0.19376402285E+02 -0.58984496267E+02  0.93871536687E+02  0.47000000000E+01 0. -1.
         -5    1    5    5    0  503 -0.33377643080E+02 -0.35291303754E+02  0.83112147779E+01  0.49504640887E+02  0.47000000000E+01 0. -1.
<mgrwt>
<rscale>  0 0.27479338E+03</rscale>
<asrwt>0</asrwt>
<pdfrwt beam="1">  1        2 0.13155860E-01 0.27479338E+03</pdfrwt>
<pdfrwt beam="2">  1       -2 0.33963043E-01 0.27479338E+03</pdfrwt>
<totfact> 0.36918695E+03</totfact>
</mgrwt>
</event>
<event>
 9    1  0.8093459E-001  0.2773425E+03  0.7818608E-02  0.1097149E+00
          2   -1    0    0  501    0  0.00000000000E+00  0.00000000000E+00  0.10556099961E+04  0.10556099961E+04  0.00000000000E+00 0. -1.
         -2   -1    0    0    0  501 -0.00000000000E+00 -0.00000000000E+00 -0.18216687074E+02  0.18216687074E+02  0.00000000000E+00 0. -1.
         35    2    1    2    0    0  0.17763568394E-14 -0.71054273576E-14  0.10373933090E+04  0.10738266831E+04  0.27734251005E+03 0.  0.
         25    2    3    3    0    0  0.49123299335E+01  0.55204834373E+02  0.43615488466E+03  0.45702935030E+03  0.12479198251E+03 0.  0.
         25    2    3    3    0    0 -0.49123299335E+01 -0.55204834373E+02  0.60123842431E+03  0.61679733282E+03  0.12601429356E+03 0.  0.
          5    1    4    4  502    0  0.48736183375E+02  0.43211257247E+01  0.31154106287E+03  0.31539469170E+03  0.47000000000E+01 0. -1.
         -5    1    4    4    0  502 -0.43823853441E+02  0.50883708649E+02  0.12461382180E+03  0.14163465861E+03  0.47000000000E+01 0. -1.
          5    1    5    5  503    0 -0.16415143582E+02 -0.14035813076E+02  0.10455488362E+02  0.24451344021E+02  0.47000000000E+01 0.  1.
         -5    1    5    5    0  503  0.11502813649E+02 -0.41169021298E+02  0.59078293595E+03  0.59234598880E+03  0.47000000000E+01 0.  1.
<mgrwt>
<rscale>  0 0.27734251E+03</rscale>
<asrwt>0</asrwt>
<pdfrwt beam="1">  1        2 0.16240149E+00 0.27734251E+03</pdfrwt>
<pdfrwt beam="2">  1       -2 0.28025681E-02 0.27734251E+03</pdfrwt>
<totfact> 0.11365111E+04</totfact>
</mgrwt>
</event>
<event>
 9    1  0.8093459E-001  0.2716834E+03  0.7818608E-02  0.1100320E+00
          2   -1    0    0  501    0  0.00000000000E+00  0.00000000000E+00  0.25481178259E+03  0.25481178259E+03  0.00000000000E+00 0. -1.
         -2   -1    0    0    0  501 -0.00000000000E+00 -0.00000000000E+00 -0.72418009730E+02  0.72418009730E+02  0.00000000000E+00 0. -1.
         35    2    1    2    0    0 -0.17763568394E-14 -0.71054273576E-14  0.18239377286E+03  0.32722979232E+03  0.27168336092E+03 0.  0.
         25    2    3    3    0    0  0.99948173170E+01  0.38020612297E+02  0.11759006681E+03  0.17606771902E+03  0.12500781790E+03 0.  0.
         25    2    3    3    0    0 -0.99948173170E+01 -0.38020612297E+02  0.64803706047E+02  0.15116207330E+03  0.13078604189E+03 0.  0.
          5    1    4    4  502    0 -0.28390301401E+02  0.11775562249E+02 -0.15692479336E+02  0.34828393411E+02  0.47000000000E+01 0. -1.
         -5    1    4    4    0  502  0.38385118718E+02  0.26245050048E+02  0.13328254614E+03  0.14123932561E+03  0.47000000000E+01 0. -1.
          5    1    5    5  503    0  0.10061484689E+02 -0.71423797058E+02 -0.35222090477E+01  0.72367729112E+02  0.47000000000E+01 0. -1.
         -5    1    5    5    0  503 -0.20056302006E+02  0.33403184761E+02  0.68325915094E+02  0.78794344186E+02  0.47000000000E+01 0. -1.
<mgrwt>
<rscale>  0 0.27168336E+03</rscale>
<asrwt>0</asrwt>
<pdfrwt beam="1">  1        2 0.39201812E-01 0.27168336E+03</pdfrwt>
<pdfrwt beam="2">  1       -2 0.11141232E-01 0.27168336E+03</pdfrwt>
<totfact> 0.72233116E+03</totfact>
</mgrwt>
</event>
<event>
 9    1  0.8093459E-001  0.2908815E+03  0.7818608E-02  0.1089890E+00
         -1   -1    0    0    0  501 -0.00000000000E+00  0.00000000000E+00  0.15810892299E+03  0.15810892299E+03  0.00000000000E+00 0.  1.
          1   -1    0    0  501    0  0.00000000000E+00 -0.00000000000E+00 -0.13378756500E+03  0.13378756500E+03  0.00000000000E+00 0.  1.
         35    2    1    2    0    0  0.14210854715E-13  0.00000000000E+00  0.24321357990E+02  0.29189648799E+03  0.29088147285E+03 0.  0.
         25    2    3    3    0    0 -0.54603980786E+02  0.39038051893E+02 -0.17777171343E+02  0.14359773492E+03  0.12569294904E+03 0.  0.
         25    2    3    3    0    0  0.54603980786E+02 -0.39038051893E+02  0.42098529332E+02  0.14829875307E+03  0.12535816598E+03 0.  0.
          5    1    4    4  502    0 -0.27640639487E+01  0.48040120200E+02  0.41843741773E+02  0.63941238055E+02  0.47000000000E+01 0.  1.
         -5    1    4    4    0  502 -0.51839916837E+02 -0.90020683071E+01 -0.59620913116E+02  0.79656496862E+02  0.47000000000E+01 0.  1.
          5    1    5    5  503    0  0.80658959051E+02 -0.48239966913E+02 -0.41798599730E+01  0.94194072597E+02  0.47000000000E+01 0.  1.
         -5    1    5    5    0  503 -0.26054978266E+02  0.92019150198E+01  0.46278389305E+02  0.54104680474E+02  0.47000000000E+01 0.  1.
<mgrwt>
<rscale>  0 0.29088147E+03</rscale>
<asrwt>0</asrwt>
<pdfrwt beam="1">  1        1 0.20582702E-01 0.29088147E+03</pdfrwt>
<pdfrwt beam="2">  1       -1 0.24324450E-01 0.29088147E+03</pdfrwt>
<totfact> 0.35750797E+03</totfact>
</mgrwt>
</event>
<event>
 9    1  0.8093459E-001  0.2724045E+03  0.7818608E-02  0.1099911E+00
         -1   -1    0    0    0  501 -0.00000000000E+00  0.00000000000E+00  0.64289889982E+01  0.64289889982E+01  0.00000000000E+00 0.  1.
          1   -1    0    0  501    0  0.00000000000E+00 -0.00000000000E+00 -0.28855309738E+04  0.28855309738E+04  0.00000000000E+00 0.  1.
         35    2    1    2    0    0  0.35527136788E-14 -0.17763568394E-14 -0.28791019848E+04  0.28919599628E+04  0.27240445580E+03 0.  0.
         25    2    3    3    0    0  0.84463357985E+01 -0.52071356964E+01 -0.20029685221E+04  0.20068778568E+04  0.12480936275E+03 0.  0.
         25    2    3    3    0    0 -0.84463357985E+01  0.52071356964E+01 -0.87613346278E+03  0.88508210601E+03  0.12514805198E+03 0.  0.
          5    1    4    4  502    0  0.21897204860E+02 -0.25785948320E+02 -0.15408179625E+03  0.15782171159E+03  0.47000000000E+01 0. -1.
         -5    1    4    4    0  502 -0.13450869062E+02  0.20578812624E+02 -0.18488867258E+04  0.18490561452E+04  0.47000000000E+01 0. -1.
          5    1    5    5  503    0  0.91582513517E+01  0.18511781910E+02 -0.85117164699E+03  0.85143515448E+03  0.47000000000E+01 0. -1.
         -5    1    5    5    0  503 -0.17604587150E+02 -0.13304646213E+02 -0.24961815788E+02  0.33646951526E+02  0.47000000000E+01 0. -1.
<mgrwt>
<rscale>  0 0.27240446E+03</rscale>
<asrwt>0</asrwt>
<pdfrwt beam="1">  1        1 0.44392953E+00 0.27240446E+03</pdfrwt>
<pdfrwt beam="2">  1       -1 0.98907147E-03 0.27240446E+03</pdfrwt>
<totfact> 0.16618657E+03</totfact>
</mgrwt>
</event>
<event>
 9    1  0.8093459E-001  0.2739339E+03  0.7818608E-02  0.1099049E+00
          2   -1    0    0  501    0  0.00000000000E+00  0.00000000000E+00  0.77821420663E+03  0.77821420663E+03  0.00000000000E+00 0. -1.
         -2   -1    0    0    0  501 -0.00000000000E+00 -0.00000000000E+00 -0.24106406738E+02  0.24106406738E+02  0.00000000000E+00 0. -1.
         35    2    1    2    0    0  0.00000000000E+00  0.00000000000E+00  0.75410779989E+03  0.80232061337E+03  0.27393392046E+03 0.  0.
         25    2    3    3    0    0  0.86685534379E+01  0.36099497547E+02  0.50178204394E+03  0.51827046540E+03  0.12426076669E+03 0.  0.
         25    2    3    3    0    0 -0.86685534379E+01 -0.36099497547E+02  0.25232575595E+03  0.28405014797E+03  0.12505151700E+03 0.  0.
          5    1    4    4  502    0 -0.52618776430E+02  0.30514148660E+02  0.33333609553E+03  0.33887297249E+03  0.47000000000E+01 0.  1.
         -5    1    4    4    0  502  0.61287329868E+02  0.55853488871E+01  0.16844594842E+03  0.17939749291E+03  0.47000000000E+01 0.  1.
          5    1    5    5  503    0 -0.54797091634E+02 -0.45109079579E+02  0.88453330479E+02  0.11350608788E+03  0.47000000000E+01 0. -1.
         -5    1    5    5    0  503  0.46128538196E+02  0.90095820318E+01  0.16387242547E+03  0.17054406009E+03  0.47000000000E+01 0. -1.
<mgrwt>
<rscale>  0 0.27393392E+03</rscale>
<asrwt>0</asrwt>
<pdfrwt beam="1">  1        2 0.11972524E+00 0.27393392E+03</pdfrwt>
<pdfrwt beam="2">  1       -2 0.37086786E-02 0.27393392E+03</pdfrwt>
<totfact> 0.11279283E+04</totfact>
</mgrwt>
</event>
<event>
 9    1  0.8093459E-001  0.2769439E+03  0.7818608E-02  0.1097370E+00
          2   -1    0    0  501    0  0.00000000000E+00  0.00000000000E+00  0.84301489361E+03  0.84301489361E+03  0.00000000000E+00 0.  1.
         -2   -1    0    0    0  501 -0.00000000000E+00 -0.00000000000E+00 -0.22745130454E+02  0.22745130454E+02  0.00000000000E+00 0.  1.
         35    2    1    2    0    0 -0.35527136788E-14  0.00000000000E+00  0.82026976315E+03  0.86576002406E+03  0.27694392017E+03 0.  0.
         25    2    3    3    0    0  0.26016929892E+01 -0.52203947631E+02  0.32536078286E+03  0.35267434539E+03  0.12564845371E+03 0.  0.
         25    2    3    3    0    0 -0.26016929892E+01  0.52203947631E+02  0.49490898029E+03  0.51308567867E+03  0.12485989718E+03 0.  0.
          5    1    4    4  502    0 -0.34631745221E+02 -0.24777057599E+02  0.29281011058E+03  0.29592754386E+03  0.47000000000E+01 0. -1.
         -5    1    4    4    0  502  0.37233438211E+02 -0.27426890032E+02  0.32550672282E+02  0.56746801529E+02  0.47000000000E+01 0. -1.
          5    1    5    5  503    0 -0.38320472391E+01 -0.40047586371E+02  0.10924494174E+03  0.11651197816E+03  0.47000000000E+01 0. -1.
         -5    1    5    5    0  503  0.12303542499E+01  0.92251534002E+02  0.38566403856E+03  0.39657370051E+03  0.47000000000E+01 0. -1.
<mgrwt>
<rscale>  0 0.27694392E+03</rscale>
<asrwt>0</asrwt>
<pdfrwt beam="1">  1        2 0.12969457E+00 0.27694392E+03</pdfrwt>
<pdfrwt beam="2">  1       -2 0.34992515E-02 0.27694392E+03</pdfrwt>
<totfact> 0.11112625E+04</totfact>
</mgrwt>
</event>
<event>
 9    1  0.8093459E-001  0.2729123E+03  0.7818608E-02  0.1099624E+00
          2   -1    0    0  501    0  0.00000000000E+00  0.00000000000E+00  0.36164268142E+03  0.36164268142E+03  0.00000000000E+00 0.  1.
         -2   -1    0    0    0  501 -0.00000000000E+00 -0.00000000000E+00 -0.51488071408E+02  0.51488071408E+02  0.00000000000E+00 0.  1.
         35    2    1    2    0    0  0.71054273576E-14  0.71054273576E-14  0.31015461001E+03  0.41313075283E+03  0.27291232442E+03 0.  0.
         25    2    3    3    0    0 -0.21539727251E+02 -0.31053266910E+02  0.21767367473E+03  0.25346340324E+03  0.12423205254E+03 0.  0.
         25    2    3    3    0    0  0.21539727251E+02  0.31053266910E+02  0.92480935281E+02  0.15966734958E+03  0.12454988517E+03 0.  0.
          5    1    4    4  502    0  0.13948081932E+02 -0.69259614253E+02  0.16325108393E+03  0.17794507456E+03  0.47000000000E+01 0. -1.
         -5    1    4    4    0  502 -0.35487809182E+02  0.38206347343E+02  0.54422590797E+02  0.75518328681E+02  0.47000000000E+01 0. -1.
          5    1    5    5  503    0 -0.20490604919E+02  0.69520865018E+02  0.45846167534E+02  0.85889327860E+02  0.47000000000E+01 0.  1.
         -5    1    5    5    0  503  0.42030332170E+02 -0.38467598107E+02  0.46634767748E+02  0.73778021723E+02  0.47000000000E+01 0.  1.
<mgrwt>
<rscale>  0 0.27291232E+03</rscale>
<asrwt>0</asrwt>
<pdfrwt beam="1">  1        2 0.55637334E-01 0.27291232E+03</pdfrwt>
<pdfrwt beam="2">  1       -2 0.79212420E-02 0.27291232E+03</pdfrwt>
<totfact> 0.84991481E+03</totfact>
</mgrwt>
</event>
<event>
 9    1  0.8093459E-001  0.2658628E+03  0.7818608E-02  0.1103671E+00
         -2   -1    0    0    0  501 -0.00000000000E+00  0.00000000000E+00  0.34662137323E+02  0.34662137323E+02  0.00000000000E+00 0.  1.
          2   -1    0    0  501    0  0.00000000000E+00 -0.00000000000E+00 -0.50979981169E+03  0.50979981169E+03  0.00000000000E+00 0.  1.
         35    2    1    2    0    0 -0.71054273576E-14 -0.17763568394E-14 -0.47513767437E+03  0.54446194901E+03  0.26586275467E+03 0.  0.
         25    2    3    3    0    0 -0.36669803090E+02  0.15545614242E+02 -0.27844398124E+03  0.30782912318E+03  0.12506549409E+03 0.  0.
         25    2    3    3    0    0  0.36669803090E+02 -0.15545614242E+02 -0.19669369313E+03  0.23663282583E+03  0.12538079902E+03 0.  0.
          5    1    4    4  502    0  0.40930353815E+02  0.54268791664E-01 -0.43686521129E+02  0.60049137687E+02  0.47000000000E+01 0. -1.
         -5    1    4    4    0  502 -0.77600156905E+02  0.15491345450E+02 -0.23475746011E+03  0.24777998550E+03  0.47000000000E+01 0. -1.
          5    1    5    5  503    0  0.37021960946E+02  0.12727995169E+02 -0.16186199592E+01  0.39463114220E+02  0.47000000000E+01 0.  1.
         -5    1    5    5    0  503 -0.35215785647E+00 -0.28273609411E+02 -0.19507507317E+03  0.19716971161E+03  0.47000000000E+01 0.  1.
<mgrwt>
<rscale>  0 0.26586275E+03</rscale>
<asrwt>0</asrwt>
<pdfrwt beam="1">  1        2 0.78430735E-01 0.26586275E+03</pdfrwt>
<pdfrwt beam="2">  1       -2 0.53326369E-02 0.26586275E+03</pdfrwt>
<totfact> 0.10722650E+04</totfact>
</mgrwt>
</event>
<event>
 9    1  0.8093459E-001  0.3242306E+03  0.7818608E-02  0.1073719E+00
          1   -1    0    0  501    0  0.00000000000E+00  0.00000000000E+00  0.15950403006E+04  0.15950403006E+04  0.00000000000E+00 0.  1.
         -1   -1    0    0    0  501 -0.00000000000E+00 -0.00000000000E+00 -0.16476932305E+02  0.16476932305E+02  0.00000000000E+00 0.  1.
         35    2    1    2    0    0 -0.71054273576E-14  0.14210854715E-13  0.15785633683E+04  0.16115172329E+04  0.32423060348E+03 0.  0.
         25    2    3    3    0    0  0.50164658728E+02 -0.91260730726E+02  0.76067207870E+03  0.77754999004E+03  0.12295105419E+03 0.  0.
         25    2    3    3    0    0 -0.50164658728E+02  0.91260730726E+02  0.81789128961E+03  0.83396724289E+03  0.12534028337E+03 0.  0.
          5    1    4    4  502    0 -0.17109505913E+01 -0.10609997913E+03  0.53807377413E+03  0.54845748179E+03  0.47000000000E+01 0.  1.
         -5    1    4    4    0  502  0.51875609319E+02  0.14839248405E+02  0.22259830457E+03  0.22909250824E+03  0.47000000000E+01 0.  1.
          5    1    5    5  503    0 -0.11496781713E+02  0.11034486529E+03  0.69104243260E+03  0.69990706450E+03  0.47000000000E+01 0.  1.
         -5    1    5    5    0  503 -0.38667877015E+02 -0.19084134563E+02  0.12684885701E+03  0.13406017839E+03  0.47000000000E+01 0.  1.
<mgrwt>
<rscale>  0 0.32423060E+03</rscale>
<asrwt>0</asrwt>
<pdfrwt beam="1">  1        1 0.24539069E+00 0.32423060E+03</pdfrwt>
<pdfrwt beam="2">  1       -1 0.25349139E-02 0.32423060E+03</pdfrwt>
<totfact> 0.29977335E+03</totfact>
</mgrwt>
</event>
<event>
 9    1  0.8093459E-001  0.2722073E+03  0.7818608E-02  0.1100023E+00
         -2   -1    0    0    0  501 -0.00000000000E+00  0.00000000000E+00  0.19902494875E+02  0.19902494875E+02  0.00000000000E+00 0. -1.
          2   -1    0    0  501    0  0.00000000000E+00 -0.00000000000E+00 -0.93074748136E+03  0.93074748136E+03  0.00000000000E+00 0. -1.
         35    2    1    2    0    0  0.00000000000E+00  0.00000000000E+00 -0.91084498649E+03  0.95064997623E+03  0.27220725176E+03 0.  0.
         25    2    3    3    0    0 -0.11325539784E+02  0.41413945171E+02 -0.52319489548E+03  0.54044599055E+03  0.12847407264E+03 0.  0.
         25    2    3    3    0    0  0.11325539784E+02 -0.41413945171E+02 -0.38765009100E+03  0.41020398568E+03  0.12708789914E+03 0.  0.
          5    1    4    4  502    0 -0.26477322376E+02 -0.94713162985E+01 -0.20948259521E+02  0.35379005209E+02  0.47000000000E+01 0.  1.
         -5    1    4    4    0  502  0.15151782591E+02  0.50885261470E+02 -0.50224663596E+03  0.50506698535E+03  0.47000000000E+01 0.  1.
          5    1    5    5  503    0  0.10312361738E+02  0.25817433852E+02 -0.15852808021E+02  0.32346347822E+02  0.47000000000E+01 0. -1.
         -5    1    5    5    0  503  0.10131780468E+01 -0.67231379023E+02 -0.37179728298E+03  0.37785763786E+03  0.47000000000E+01 0. -1.
<mgrwt>
<rscale>  0 0.27220725E+03</rscale>
<asrwt>0</asrwt>
<pdfrwt beam="1">  1        2 0.14319189E+00 0.27220725E+03</pdfrwt>
<pdfrwt beam="2">  1       -2 0.30619228E-02 0.27220725E+03</pdfrwt>
<totfact> 0.11883823E+04</totfact>
</mgrwt>
</event>
<event>
 9    1  0.8093459E-001  0.2772794E+03  0.7818608E-02  0.1097184E+00
          2   -1    0    0  501    0  0.00000000000E+00  0.00000000000E+00  0.28510390983E+03  0.28510390983E+03  0.00000000000E+00 0.  1.
         -2   -1    0    0    0  501 -0.00000000000E+00 -0.00000000000E+00 -0.67417386761E+02  0.67417386761E+02  0.00000000000E+00 0.  1.
         35    2    1    2    0    0 -0.35527136788E-14  0.71054273576E-14  0.21768652307E+03  0.35252129659E+03  0.27727935773E+03 0.  0.
         25    2    3    3    0    0 -0.25930397667E+02 -0.18926016071E+02  0.16935483957E+03  0.21444058713E+03  0.12756615584E+03 0.  0.
         25    2    3    3    0    0  0.25930397667E+02  0.18926016071E+02  0.48331683497E+02  0.13808070946E+03  0.12529864759E+03 0.  0.
          5    1    4    4  502    0  0.31205307474E+02 -0.39480151927E+02  0.22242292957E+02  0.55220134070E+02  0.47000000000E+01 0. -1.
         -5    1    4    4    0  502 -0.57135705141E+02  0.20554135857E+02  0.14711254661E+03  0.15922045306E+03  0.47000000000E+01 0. -1.
          5    1    5    5  503    0 -0.22274154236E+02 -0.21099524111E+02 -0.26185838758E+02  0.40609309476E+02  0.47000000000E+01 0.  1.
         -5    1    5    5    0  503  0.48204551904E+02  0.40025540182E+02  0.74517522255E+02  0.97471399980E+02  0.47000000000E+01 0.  1.
<mgrwt>
<rscale>  0 0.27727936E+03</rscale>
<asrwt>0</asrwt>
<pdfrwt beam="1">  1        2 0.43862139E-01 0.27727936E+03</pdfrwt>
<pdfrwt beam="2">  1       -2 0.10371906E-01 0.27727936E+03</pdfrwt>
<totfact> 0.71818431E+03</totfact>
</mgrwt>
</event>
<event>
 9    1  0.8093459E-001  0.2689833E+03  0.7818608E-02  0.1101863E+00
          1   -1    0    0  501    0  0.00000000000E+00  0.00000000000E+00  0.19981505331E+04  0.19981505331E+04  0.00000000000E+00 0.  1.
         -1   -1    0    0    0  501 -0.00000000000E+00 -0.00000000000E+00 -0.90523744269E+01  0.90523744269E+01  0.00000000000E+00 0.  1.
         35    2    1    2    0    0 -0.71054273576E-14  0.35527136788E-14  0.19890981587E+04  0.20072029075E+04  0.26898332132E+03 0.  0.
         25    2    3    3    0    0 -0.25513483273E+02  0.27958142609E+02  0.77782939601E+03  0.78898314841E+03  0.12666192650E+03 0.  0.
         25    2    3    3    0    0  0.25513483273E+02 -0.27958142609E+02  0.12112687627E+04  0.12182197591E+04  0.12431721728E+03 0.  0.
          5    1    4    4  502    0  0.23435644653E+02  0.31772476633E+02  0.79246219244E+02  0.88661000312E+02  0.47000000000E+01 0. -1.
         -5    1    4    4    0  502 -0.48949127927E+02 -0.38143340242E+01  0.69858317676E+03  0.70032214810E+03  0.47000000000E+01 0. -1.
          5    1    5    5  503    0  0.68813106650E+02 -0.21613524811E+02  0.98883703556E+03  0.99147524477E+03  0.47000000000E+01 0.  1.
         -5    1    5    5    0  503 -0.43299623377E+02 -0.63446177986E+01  0.22243172712E+03  0.22674451435E+03  0.47000000000E+01 0.  1.
<mgrwt>
<rscale>  0 0.26898332E+03</rscale>
<asrwt>0</asrwt>
<pdfrwt beam="1">  1        1 0.30740742E+00 0.26898332E+03</pdfrwt>
<pdfrwt beam="2">  1       -1 0.13926746E-02 0.26898332E+03</pdfrwt>
<totfact> 0.39340997E+03</totfact>
</mgrwt>
</event>
<event>
 9    1  0.8093459E-001  0.2717133E+03  0.7818608E-02  0.1100303E+00
          2   -1    0    0  501    0  0.00000000000E+00  0.00000000000E+00  0.62327374140E+03  0.62327374140E+03  0.00000000000E+00 0. -1.
         -2   -1    0    0    0  501 -0.00000000000E+00 -0.00000000000E+00 -0.29613035219E+02  0.29613035219E+02  0.00000000000E+00 0. -1.
         35    2    1    2    0    0  0.00000000000E+00  0.00000000000E+00  0.59366070618E+03  0.65288677661E+03  0.27171328458E+03 0.  0.
         25    2    3    3    0    0  0.32132976801E+02 -0.54392725693E+01  0.39597476188E+03  0.41679305739E+03  0.12592984854E+03 0.  0.
         25    2    3    3    0    0 -0.32132976801E+02  0.54392725693E+01  0.19768594429E+03  0.23609371923E+03  0.12489354588E+03 0.  0.
          5    1    4    4  502    0  0.12353778063E+02  0.25309241804E+02  0.11867145779E+02  0.30920748730E+02  0.47000000000E+01 0. -1.
         -5    1    4    4    0  502  0.19779198738E+02 -0.30748514373E+02  0.38410761610E+03  0.38587230866E+03  0.47000000000E+01 0. -1.
          5    1    5    5  503    0 -0.47901094763E+02 -0.48077345056E+02  0.75125866989E+02  0.10135053960E+03  0.47000000000E+01 0. -1.
         -5    1    5    5    0  503  0.15768117961E+02  0.53516617626E+02  0.12256007731E+03  0.13474317962E+03  0.47000000000E+01 0. -1.
<mgrwt>
<rscale>  0 0.27171328E+03</rscale>
<asrwt>0</asrwt>
<pdfrwt beam="1">  1        2 0.95888258E-01 0.27171328E+03</pdfrwt>
<pdfrwt beam="2">  1       -2 0.45558520E-02 0.27171328E+03</pdfrwt>
<totfact> 0.10827715E+04</totfact>
</mgrwt>
</event>
<event>
 9    1  0.8093459E-001  0.2730722E+03  0.7818608E-02  0.1099534E+00
         -1   -1    0    0    0  501 -0.00000000000E+00  0.00000000000E+00  0.24291854184E+03  0.24291854184E+03  0.00000000000E+00 0.  1.
          1   -1    0    0  501    0  0.00000000000E+00 -0.00000000000E+00 -0.76742198241E+02  0.76742198241E+02  0.00000000000E+00 0.  1.
         35    2    1    2    0    0 -0.71054273576E-14  0.00000000000E+00  0.16617634360E+03  0.31966074008E+03  0.27307217283E+03 0.  0.
         25    2    3    3    0    0 -0.13287697396E+02  0.49275617770E+02  0.61767201192E+02  0.14873126801E+03  0.12530424387E+03 0.  0.
         25    2    3    3    0    0  0.13287697396E+02 -0.49275617770E+02  0.10440914241E+03  0.17092947207E+03  0.12534339231E+03 0.  0.
          5    1    4    4  502    0  0.42001263857E+02  0.32606162341E+02  0.72272862681E+02  0.89848342602E+02  0.47000000000E+01 0. -1.
         -5    1    4    4    0  502 -0.55288961253E+02  0.16669455430E+02 -0.10505661490E+02  0.58882925403E+02  0.47000000000E+01 0. -1.
          5    1    5    5  503    0  0.16618076706E+02 -0.13693848361E+02 -0.26892365809E+02  0.34770264525E+02  0.47000000000E+01 0. -1.
         -5    1    5    5    0  503 -0.33303793103E+01 -0.35581769409E+02  0.13130150821E+03  0.13615920755E+03  0.47000000000E+01 0. -1.
<mgrwt>
<rscale>  0 0.27307217E+03</rscale>
<asrwt>0</asrwt>
<pdfrwt beam="1">  1        1 0.11806492E-01 0.27307217E+03</pdfrwt>
<pdfrwt beam="2">  1       -1 0.37372083E-01 0.27307217E+03</pdfrwt>
<totfact> 0.35548229E+03</totfact>
</mgrwt>
</event>
<event>
 9    1  0.8093459E-001  0.2686283E+03  0.7818608E-02  0.1102067E+00
         -1   -1    0    0    0  501 -0.00000000000E+00  0.00000000000E+00  0.18020965846E+02  0.18020965846E+02  0.00000000000E+00 0. -1.
          1   -1    0    0  501    0  0.00000000000E+00 -0.00000000000E+00 -0.10010722177E+04  0.10010722177E+04  0.00000000000E+00 0. -1.
         35    2    1    2    0    0  0.00000000000E+00 -0.71054273576E-14 -0.98305125186E+03  0.10190931836E+04  0.26862828030E+03 0.  0.
         25    2    3    3    0    0 -0.54737581384E+01  0.27100648222E+02 -0.33811363798E+03  0.36156350257E+03  0.12507168759E+03 0.  0.
         25    2    3    3    0    0  0.54737581384E+01 -0.27100648222E+02 -0.64493761388E+03  0.65752968099E+03  0.12504538544E+03 0.  0.
          5    1    4    4  502    0 -0.92186862445E+01  0.32402064261E+01 -0.33674536881E+03  0.33691989630E+03  0.47000000000E+01 0. -1.
         -5    1    4    4    0  502  0.37449281061E+01  0.23860441796E+02 -0.13682691799E+01  0.24643606266E+02  0.47000000000E+01 0. -1.
          5    1    5    5  503    0  0.33877268068E+02 -0.43630015028E+02 -0.12753284198E+03  0.13906100563E+03  0.47000000000E+01 0. -1.
         -5    1    5    5    0  503 -0.28403509930E+02  0.16529366805E+02 -0.51740477190E+03  0.51846867535E+03  0.47000000000E+01 0. -1.
<mgrwt>
<rscale>  0 0.26862828E+03</rscale>
<asrwt>0</asrwt>
<pdfrwt beam="1">  1        1 0.15401110E+00 0.26862828E+03</pdfrwt>
<pdfrwt beam="2">  1       -1 0.27724565E-02 0.26862828E+03</pdfrwt>
<totfact> 0.67559381E+03</totfact>
</mgrwt>
</event>
<event>
 9    1  0.8093459E-001  0.2760907E+03  0.7818608E-02  0.1097843E+00
          2   -1    0    0  501    0  0.00000000000E+00  0.00000000000E+00  0.28131573593E+04  0.28131573593E+04  0.00000000000E+00 0.  1.
         -2   -1    0    0    0  501 -0.00000000000E+00 -0.00000000000E+00 -0.67740693082E+01  0.67740693082E+01  0.00000000000E+00 0.  1.
         35    2    1    2    0    0  0.00000000000E+00  0.00000000000E+00  0.28063832900E+04  0.28199314286E+04  0.27609073093E+03 0.  0.
         25    2    3    3    0    0 -0.46477044453E+02  0.35904842334E+02  0.13364444634E+04  0.13434615364E+04  0.12391861251E+03 0.  0.
         25    2    3    3    0    0  0.46477044453E+02 -0.35904842334E+02  0.14699388266E+04  0.14764698922E+04  0.12567384560E+03 0.  0.
          5    1    4    4  502    0 -0.77290685464E+02 -0.34965822104E+01  0.10313099483E+04  0.10342187271E+04  0.47000000000E+01 0.  1.
         -5    1    4    4    0  502  0.30813641011E+02  0.39401424545E+02  0.30513451515E+03  0.30924280924E+03  0.47000000000E+01 0.  1.
          5    1    5    5  503    0  0.41401212125E+01  0.15631444999E+02  0.11241536348E+04  0.11242797549E+04  0.47000000000E+01 0.  1.
         -5    1    5    5    0  503  0.42336923241E+02 -0.51536287334E+02  0.34578519176E+03  0.35219013732E+03  0.47000000000E+01 0.  1.
<mgrwt>
<rscale>  0 0.27609073E+03</rscale>
<asrwt>0</asrwt>
<pdfrwt beam="1">  1        2 0.43279251E+00 0.27609073E+03</pdfrwt>
<pdfrwt beam="2">  1       -2 0.10421668E-02 0.27609073E+03</pdfrwt>
<totfact> 0.53758928E+03</totfact>
</mgrwt>
</event>
<event>
 9    1  0.8093459E-001  0.2771996E+03  0.7818608E-02  0.1097228E+00
          2   -1    0    0  501    0  0.00000000000E+00  0.00000000000E+00  0.48127111319E+03  0.48127111319E+03  0.00000000000E+00 0. -1.
         -2   -1    0    0    0  501 -0.00000000000E+00 -0.00000000000E+00 -0.39914939371E+02  0.39914939371E+02  0.00000000000E+00 0. -1.
         35    2    1    2    0    0  0.00000000000E+00  0.71054273576E-14  0.44135617382E+03  0.52118605256E+03  0.27719961980E+03 0.  0.
         25    2    3    3    0    0  0.18867454942E+01  0.62795781036E+02  0.21051687457E+03  0.25144458097E+03  0.12231170384E+03 0.  0.
         25    2    3    3    0    0 -0.18867454942E+01 -0.62795781036E+02  0.23083929925E+03  0.26974147159E+03  0.12460661898E+03 0.  0.
          5    1    4    4  502    0 -0.19023288009E+02 -0.27889435497E+02  0.10636127736E+03  0.11168937917E+03  0.47000000000E+01 0.  1.
         -5    1    4    4    0  502  0.20910033503E+02  0.90685216533E+02  0.10415559721E+03  0.13975520179E+03  0.47000000000E+01 0.  1.
          5    1    5    5  503    0 -0.47903006337E+02 -0.57810946545E+02  0.20063313400E+03  0.21427213541E+03  0.47000000000E+01 0.  1.
         -5    1    5    5    0  503  0.46016260843E+02 -0.49848344907E+01  0.30206165256E+02  0.55469336181E+02  0.47000000000E+01 0.  1.
<mgrwt>
<rscale>  0 0.27719962E+03</rscale>
<asrwt>0</asrwt>
<pdfrwt beam="1">  1        2 0.74041706E-01 0.27719962E+03</pdfrwt>
<pdfrwt beam="2">  1       -2 0.61407602E-02 0.27719962E+03</pdfrwt>
<totfact> 0.92300107E+03</totfact>
</mgrwt>
</event>
<event>
 9    1  0.8093459E-001  0.2740083E+03  0.7818608E-02  0.1099007E+00
          1   -1    0    0  501    0  0.00000000000E+00  0.00000000000E+00  0.30068500903E+03  0.30068500903E+03  0.00000000000E+00 0.  1.
         -1   -1    0    0    0  501 -0.00000000000E+00 -0.00000000000E+00 -0.62424601225E+02  0.62424601225E+02  0.00000000000E+00 0.  1.
         35    2    1    2    0    0  0.00000000000E+00  0.00000000000E+00  0.23826040780E+03  0.36310961025E+03  0.27400833406E+03 0.  0.
         25    2    3    3    0    0  0.40745045642E+02 -0.45478635899E+00  0.16938905913E+03  0.21455432008E+03  0.12522195230E+03 0.  0.
         25    2    3    3    0    0 -0.40745045642E+02  0.45478635899E+00  0.68871348668E+02  0.14855529017E+03  0.12516008148E+03 0.  0.
          5    1    4    4  502    0  0.33437876832E+02  0.63407871317E+01  0.18897677180E+03  0.19207448417E+03  0.47000000000E+01 0.  1.
         -5    1    4    4    0  502  0.73071688093E+01 -0.67955734907E+01 -0.19587712668E+02  0.22479835912E+02  0.47000000000E+01 0.  1.
          5    1    5    5  503    0  0.35222813104E+02  0.31016825306E+02  0.11762855957E+02  0.48612187723E+02  0.47000000000E+01 0. -1.
         -5    1    5    5    0  503 -0.75967858746E+02 -0.30562038947E+02  0.57108492711E+02  0.99943102447E+02  0.47000000000E+01 0. -1.
<mgrwt>
<rscale>  0 0.27400833E+03</rscale>
<asrwt>0</asrwt>
<pdfrwt beam="1">  1        1 0.46259231E-01 0.27400833E+03</pdfrwt>
<pdfrwt beam="2">  1       -1 0.96037850E-02 0.27400833E+03</pdfrwt>
<totfact> 0.56323937E+03</totfact>
</mgrwt>
</event>
<event>
 9    1  0.8093459E-001  0.2738663E+03  0.7818608E-02  0.1099087E+00
          2   -1    0    0  501    0  0.00000000000E+00  0.00000000000E+00  0.22238332493E+03  0.22238332493E+03  0.00000000000E+00 0. -1.
         -2   -1    0    0    0  501 -0.00000000000E+00 -0.00000000000E+00 -0.84316947574E+02  0.84316947574E+02  0.00000000000E+00 0. -1.
         35    2    1    2    0    0  0.00000000000E+00  0.00000000000E+00  0.13806637735E+03  0.30670027250E+03  0.27386626772E+03 0.  0.
         25    2    3    3    0    0  0.53337972654E+02 -0.38001967708E+01  0.80752162903E+02  0.15875116020E+03  0.12578409370E+03 0.  0.
         25    2    3    3    0    0 -0.53337972654E+02  0.38001967708E+01  0.57314214448E+02  0.14794911230E+03  0.12547764674E+03 0.  0.
          5    1    4    4  502    0  0.17109045363E+02 -0.46677584117E+02  0.88771692855E+02  0.10185293194E+03  0.47000000000E+01 0.  1.
         -5    1    4    4    0  502  0.36228927291E+02  0.42877387346E+02 -0.80195299522E+01  0.56898228258E+02  0.47000000000E+01 0.  1.
          5    1    5    5  503    0 -0.54544835995E+02  0.30134148784E+02 -0.20410558521E+02  0.65741059892E+02  0.47000000000E+01 0. -1.
         -5    1    5    5    0  503  0.12068633406E+01 -0.26333952013E+02  0.77724772969E+02  0.82208052409E+02  0.47000000000E+01 0. -1.
<mgrwt>
<rscale>  0 0.27386627E+03</rscale>
<asrwt>0</asrwt>
<pdfrwt beam="1">  1        2 0.34212819E-01 0.27386627E+03</pdfrwt>
<pdfrwt beam="2">  1       -2 0.12971838E-01 0.27386627E+03</pdfrwt>
<totfact> 0.65495322E+03</totfact>
</mgrwt>
</event>
<event>
 9    1  0.8093459E-001  0.2771572E+03  0.7818608E-02  0.1097252E+00
         -2   -1    0    0    0  501 -0.00000000000E+00  0.00000000000E+00  0.78157137072E+02  0.78157137072E+02  0.00000000000E+00 0. -1.
          2   -1    0    0  501    0  0.00000000000E+00 -0.00000000000E+00 -0.24571049169E+03  0.24571049169E+03  0.00000000000E+00 0. -1.
         35    2    1    2    0    0  0.00000000000E+00  0.00000000000E+00 -0.16755335462E+03  0.32386762876E+03  0.27715720145E+03 0.  0.
         25    2    3    3    0    0  0.49648571245E+02  0.33958391452E+02 -0.94132958305E+02  0.16662650541E+03  0.12363343192E+03 0.  0.
         25    2    3    3    0    0 -0.49648571245E+02 -0.33958391452E+02 -0.73420396313E+02  0.15724112335E+03  0.12536372403E+03 0.  0.
          5    1    4    4  502    0  0.86715428722E+02  0.45752995748E+02 -0.70754329085E+02  0.12100069125E+03  0.47000000000E+01 0.  1.
         -5    1    4    4    0  502 -0.37066857477E+02 -0.11794604295E+02 -0.23378629220E+02  0.45625814161E+02  0.47000000000E+01 0.  1.
          5    1    5    5  503    0  0.28713144737E+02 -0.41254165515E+02 -0.58024915106E+02  0.76911193113E+02  0.47000000000E+01 0. -1.
         -5    1    5    5    0  503 -0.78361715982E+02  0.72957740621E+01 -0.15395481208E+02  0.80329930240E+02  0.47000000000E+01 0. -1.
<mgrwt>
<rscale>  0 0.27715720E+03</rscale>
<asrwt>0</asrwt>
<pdfrwt beam="1">  1        2 0.37801614E-01 0.27715720E+03</pdfrwt>
<pdfrwt beam="2">  1       -2 0.12024175E-01 0.27715720E+03</pdfrwt>
<totfact> 0.66501211E+03</totfact>
</mgrwt>
</event>
<event>
 9    1  0.8093459E-001  0.2917050E+03  0.7818608E-02  0.1089462E+00
         -4   -1    0    0    0  501 -0.00000000000E+00  0.00000000000E+00  0.10085378497E+03  0.10085378497E+03  0.00000000000E+00 0. -1.
          4   -1    0    0  501    0  0.00000000000E+00 -0.00000000000E+00 -0.21092864845E+03  0.21092864845E+03  0.00000000000E+00 0. -1.
         35    2    1    2    0    0  0.14210854715E-13  0.00000000000E+00 -0.11007486348E+03  0.31178243342E+03  0.29170500548E+03 0.  0.
         25    2    3    3    0    0 -0.61564205324E+02  0.40471828425E+02 -0.34796580510E+02  0.14862044466E+03  0.12429446602E+03 0.  0.
         25    2    3    3    0    0  0.61564205324E+02 -0.40471828425E+02 -0.75278282965E+02  0.16316198876E+03  0.12460695974E+03 0.  0.
          5    1    4    4  502    0 -0.38905639870E+02  0.78313706129E+02  0.67683094640E+01  0.87832712552E+02  0.47000000000E+01 0. -1.
         -5    1    4    4    0  502 -0.22658565453E+02 -0.37841877704E+02 -0.41564889974E+02  0.60787732110E+02  0.47000000000E+01 0. -1.
          5    1    5    5  503    0  0.73064232839E+02 -0.76655204276E+02 -0.49209559573E+02  0.11686775952E+03  0.47000000000E+01 0. -1.
         -5    1    5    5    0  503 -0.11500027515E+02  0.36183375851E+02 -0.26068723392E+02  0.46294229231E+02  0.47000000000E+01 0. -1.
<mgrwt>
<rscale>  0 0.29170501E+03</rscale>
<asrwt>0</asrwt>
<pdfrwt beam="1">  1        4 0.32450561E-01 0.29170501E+03</pdfrwt>
<pdfrwt beam="2">  1       -4 0.15515967E-01 0.29170501E+03</pdfrwt>
<totfact> 0.61374840E+02</totfact>
</mgrwt>
</event>
<event>
 9    1  0.8093459E-001  0.2618123E+03  0.7818608E-02  0.1106059E+00
         -1   -1    0    0    0  501 -0.00000000000E+00  0.00000000000E+00  0.41820151312E+02  0.41820151312E+02  0.00000000000E+00 0.  1.
          1   -1    0    0  501    0  0.00000000000E+00 -0.00000000000E+00 -0.40976474249E+03  0.40976474249E+03  0.00000000000E+00 0.  1.
         35    2    1    2    0    0  0.00000000000E+00 -0.71054273576E-14 -0.36794459118E+03  0.45158489380E+03  0.26181232617E+03 0.  0.
         25    2    3    3    0    0  0.29074246311E+02  0.21874533541E+02 -0.20329461199E+03  0.24168818160E+03  0.12554151046E+03 0.  0.
         25    2    3    3    0    0 -0.29074246311E+02 -0.21874533541E+02 -0.16464997919E+03  0.20989671220E+03  0.12499282831E+03 0.  0.
          5    1    4    4  502    0  0.23606229654E+02 -0.46706456093E+02 -0.13397474931E+03  0.14390993910E+03  0.47000000000E+01 0. -1.
         -5    1    4    4    0  502  0.54680166570E+01  0.68580989634E+02 -0.69319862675E+02  0.97778242501E+02  0.47000000000E+01 0. -1.
          5    1    5    5  503    0 -0.66685455493E+02  0.22513504448E+02 -0.10451300945E+03  0.12609070942E+03  0.47000000000E+01 0.  1.
         -5    1    5    5    0  503  0.37611209182E+02 -0.44388037989E+02 -0.60136969741E+02  0.83806002782E+02  0.47000000000E+01 0.  1.
<mgrwt>
<rscale>  0 0.26181233E+03</rscale>
<asrwt>0</asrwt>
<pdfrwt beam="1">  1        1 0.63040725E-01 0.26181233E+03</pdfrwt>
<pdfrwt beam="2">  1       -1 0.64338699E-02 0.26181233E+03</pdfrwt>
<totfact> 0.69972121E+03</totfact>
</mgrwt>
</event>
<event>
 9    1  0.8093459E-001  0.2733298E+03  0.7818608E-02  0.1099389E+00
          2   -1    0    0  501    0  0.00000000000E+00  0.00000000000E+00  0.63531294664E+03  0.63531294664E+03  0.00000000000E+00 0. -1.
         -2   -1    0    0    0  501 -0.00000000000E+00 -0.00000000000E+00 -0.29398564448E+02  0.29398564448E+02  0.00000000000E+00 0. -1.
         35    2    1    2    0    0  0.35527136788E-14  0.71054273576E-14  0.60591438220E+03  0.66471151109E+03  0.27332975401E+03 0.  0.
         25    2    3    3    0    0 -0.34488313871E+01  0.42289637159E+02  0.37904580529E+03  0.40134572459E+03  0.12490940832E+03 0.  0.
         25    2    3    3    0    0  0.34488313871E+01 -0.42289637159E+02  0.22686857691E+03  0.26336578651E+03  0.12685376804E+03 0.  0.
          5    1    4    4  502    0  0.39911249872E+02 -0.17258348091E+02  0.23970629459E+03  0.24366361262E+03  0.47000000000E+01 0. -1.
         -5    1    4    4    0  502 -0.43360081259E+02  0.59547985250E+02  0.13933951070E+03  0.15768211197E+03  0.47000000000E+01 0. -1.
          5    1    5    5  503    0 -0.67274635908E+01 -0.72072707837E+02  0.21883600748E+03  0.23054505449E+03  0.47000000000E+01 0. -1.
         -5    1    5    5    0  503  0.10176294978E+02  0.29783070678E+02  0.80325694286E+01  0.32820732016E+02  0.47000000000E+01 0. -1.
<mgrwt>
<rscale>  0 0.27332975E+03</rscale>
<asrwt>0</asrwt>
<pdfrwt beam="1">  1        2 0.97740443E-01 0.27332975E+03</pdfrwt>
<pdfrwt beam="2">  1       -2 0.45228566E-02 0.27332975E+03</pdfrwt>
<totfact> 0.10706351E+04</totfact>
</mgrwt>
</event>
<event>
 9    1  0.8093459E-001  0.2770207E+03  0.7818608E-02  0.1097327E+00
          2   -1    0    0  501    0  0.00000000000E+00  0.00000000000E+00  0.66288183170E+03  0.66288183170E+03  0.00000000000E+00 0. -1.
         -2   -1    0    0    0  501 -0.00000000000E+00 -0.00000000000E+00 -0.28941990557E+02  0.28941990557E+02  0.00000000000E+00 0. -1.
         35    2    1    2    0    0  0.17763568394E-14  0.00000000000E+00  0.63393984114E+03  0.69182382226E+03  0.27702071918E+03 0.  0.
         25    2    3    3    0    0  0.97492079270E+01  0.15679849327E+02  0.17737599030E+03  0.21767801820E+03  0.12482216527E+03 0.  0.
         25    2    3    3    0    0 -0.97492079270E+01 -0.15679849327E+02  0.45656385085E+03  0.47414580406E+03  0.12658115530E+03 0.  0.
          5    1    4    4  502    0 -0.12632877665E+02  0.88950197567E+01 -0.16060630971E+02  0.22775970709E+02  0.47000000000E+01 0.  1.
         -5    1    4    4    0  502  0.22382085592E+02  0.67848295702E+01  0.19343662127E+03  0.19490204749E+03  0.47000000000E+01 0.  1.
          5    1    5    5  503    0 -0.53887907333E+02 -0.48508956380E+02  0.26622000161E+03  0.27595688914E+03  0.47000000000E+01 0.  1.
         -5    1    5    5    0  503  0.44138699406E+02  0.32829107053E+02  0.19034384924E+03  0.19818891492E+03  0.47000000000E+01 0.  1.
<mgrwt>
<rscale>  0 0.27702072E+03</rscale>
<asrwt>0</asrwt>
<pdfrwt beam="1">  1        2 0.10198181E+00 0.27702072E+03</pdfrwt>
<pdfrwt beam="2">  1       -2 0.44526144E-02 0.27702072E+03</pdfrwt>
<totfact> 0.10429246E+04</totfact>
</mgrwt>
</event>
<event>
 9    1  0.8093459E-001  0.2696215E+03  0.7818608E-02  0.1101496E+00
          2   -1    0    0  501    0  0.00000000000E+00  0.00000000000E+00  0.12243041548E+04  0.12243041548E+04  0.00000000000E+00 0. -1.
         -2   -1    0    0    0  501 -0.00000000000E+00 -0.00000000000E+00 -0.14844299245E+02  0.14844299245E+02  0.00000000000E+00 0. -1.
         35    2    1    2    0    0  0.71054273576E-14  0.00000000000E+00  0.12094598556E+04  0.12391484541E+04  0.26962149203E+03 0.  0.
         25    2    3    3    0    0  0.18363121420E+02 -0.45734071505E+02  0.65415745640E+03  0.66778471010E+03  0.12484242767E+03 0.  0.
         25    2    3    3    0    0 -0.18363121420E+02  0.45734071505E+02  0.55530239916E+03  0.57136374396E+03  0.12516774293E+03 0.  0.
          5    1    4    4  502    0 -0.50855663785E+02 -0.25370580053E+02  0.37989350586E+03  0.38414988047E+03  0.47000000000E+01 0. -1.
         -5    1    4    4    0  502  0.69218785205E+02 -0.20363491452E+02  0.27426395054E+03  0.28363482963E+03  0.47000000000E+01 0. -1.
          5    1    5    5  503    0 -0.53644794127E+02  0.62172446748E+02  0.47421877263E+03  0.48129898336E+03  0.47000000000E+01 0. -1.
         -5    1    5    5    0  503  0.35281672707E+02 -0.16438375243E+02  0.81083626528E+02  0.90064760592E+02  0.47000000000E+01 0. -1.
<mgrwt>
<rscale>  0 0.26962149E+03</rscale>
<asrwt>0</asrwt>
<pdfrwt beam="1">  1        2 0.18835441E+00 0.26962149E+03</pdfrwt>
<pdfrwt beam="2">  1       -2 0.22837393E-02 0.26962149E+03</pdfrwt>
<totfact> 0.12275669E+04</totfact>
</mgrwt>
</event>
<event>
 9    1  0.8093459E-001  0.2725562E+03  0.7818608E-02  0.1099825E+00
         -2   -1    0    0    0  501 -0.00000000000E+00  0.00000000000E+00  0.46126420603E+01  0.46126420603E+01  0.00000000000E+00 0.  1.
          2   -1    0    0  501    0  0.00000000000E+00 -0.00000000000E+00 -0.40262644252E+04  0.40262644252E+04  0.00000000000E+00 0.  1.
         35    2    1    2    0    0  0.00000000000E+00 -0.35527136788E-14 -0.40216517831E+04  0.40308770672E+04  0.27255617134E+03 0.  0.
         25    2    3    3    0    0  0.16252607850E+02  0.96958715226E+01 -0.27732330470E+04  0.27760665862E+04  0.12395967313E+03 0.  0.
         25    2    3    3    0    0 -0.16252607850E+02 -0.96958715226E+01 -0.12484187361E+04  0.12548104811E+04  0.12506736417E+03 0.  0.
          5    1    4    4  502    0  0.62376580684E+02 -0.24506780879E+02 -0.16271153921E+04  0.16285017683E+04  0.47000000000E+01 0. -1.
         -5    1    4    4    0  502 -0.46123972833E+02  0.34202652401E+02 -0.11461176550E+04  0.11475648179E+04  0.47000000000E+01 0. -1.
          5    1    5    5  503    0  0.27561129386E+02 -0.31747187936E+02 -0.10314366113E+04  0.10323037697E+04  0.47000000000E+01 0. -1.
         -5    1    5    5    0  503 -0.43813737236E+02  0.22051316413E+02 -0.21698212480E+03  0.22250671138E+03  0.47000000000E+01 0. -1.
<mgrwt>
<rscale>  0 0.27255617E+03</rscale>
<asrwt>0</asrwt>
<pdfrwt beam="1">  1        2 0.61942664E+00 0.27255617E+03</pdfrwt>
<pdfrwt beam="2">  1       -2 0.70963570E-03 0.27255617E+03</pdfrwt>
<totfact> 0.14972796E+03</totfact>
</mgrwt>
</event>
<event>
 9    1  0.8093459E-001  0.2749028E+03  0.7818608E-02  0.1098506E+00
          1   -1    0    0  501    0  0.00000000000E+00  0.00000000000E+00  0.13028370494E+03  0.13028370494E+03  0.00000000000E+00 0.  1.
         -1   -1    0    0    0  501 -0.00000000000E+00 -0.00000000000E+00 -0.14501342797E+03  0.14501342797E+03  0.00000000000E+00 0.  1.
         35    2    1    2    0    0  0.00000000000E+00  0.71054273576E-14 -0.14729723022E+02  0.27529713291E+03  0.27490279491E+03 0.  0.
         25    2    3    3    0    0  0.24239932197E+02 -0.52992806888E+02 -0.16843903813E+02  0.13641872284E+03  0.12219058454E+03 0.  0.
         25    2    3    3    0    0 -0.24239932197E+02  0.52992806888E+02  0.21141807902E+01  0.13887841007E+03  0.12604337003E+03 0.  0.
          5    1    4    4  502    0  0.51855139618E+02 -0.76839210251E+02  0.61731214609E+01  0.93023745170E+02  0.47000000000E+01 0. -1.
         -5    1    4    4    0  502 -0.27615207421E+02  0.23846403363E+02 -0.23017025274E+02  0.43394977667E+02  0.47000000000E+01 0. -1.
          5    1    5    5  503    0 -0.89810501537E+01 -0.32587922826E+01 -0.55664775999E+02  0.56673947065E+02  0.47000000000E+01 0.  1.
         -5    1    5    5    0  503 -0.15258882043E+02  0.56251599171E+02  0.57778956789E+02  0.82204463006E+02  0.47000000000E+01 0.  1.
<mgrwt>
<rscale>  0 0.27490279E+03</rscale>
<asrwt>0</asrwt>
<pdfrwt beam="1">  1        1 0.20043647E-01 0.27490279E+03</pdfrwt>
<pdfrwt beam="2">  1       -1 0.22309758E-01 0.27490279E+03</pdfrwt>
<totfact> 0.42608746E+03</totfact>
</mgrwt>
</event>
<event>
 9    1  0.8093459E-001  0.2782862E+03  0.7818608E-02  0.1096629E+00
          2   -1    0    0  501    0  0.00000000000E+00  0.00000000000E+00  0.98568774237E+03  0.98568774237E+03  0.00000000000E+00 0.  1.
         -2   -1    0    0    0  501 -0.00000000000E+00 -0.00000000000E+00 -0.19641918855E+02  0.19641918855E+02  0.00000000000E+00 0.  1.
         35    2    1    2    0    0  0.35527136788E-14  0.14210854715E-13  0.96604582352E+03  0.10053296612E+04  0.27828617395E+03 0.  0.
         25    2    3    3    0    0 -0.64898672694E+01  0.60926652546E+02  0.40818562337E+03  0.43108924115E+03  0.12437144100E+03 0.  0.
         25    2    3    3    0    0  0.64898672694E+01 -0.60926652546E+02  0.55786020014E+03  0.57424042008E+03  0.12161365787E+03 0.  0.
          5    1    4    4  502    0  0.26433410963E+02 -0.30121590962E+02  0.94096215723E+02  0.10238272936E+03  0.47000000000E+01 0. -1.
         -5    1    4    4    0  502 -0.32923278232E+02  0.91048243509E+02  0.31408940765E+03  0.32870651179E+03  0.47000000000E+01 0. -1.
          5    1    5    5  503    0  0.44208170995E+02  0.63712752777E+01  0.34247769026E+03  0.34540992148E+03  0.47000000000E+01 0. -1.
         -5    1    5    5    0  503 -0.37718303726E+02 -0.67297927824E+02  0.21538250988E+03  0.22883049860E+03  0.47000000000E+01 0. -1.
<mgrwt>
<rscale>  0 0.27828617E+03</rscale>
<asrwt>0</asrwt>
<pdfrwt beam="1">  1        2 0.15164423E+00 0.27828617E+03</pdfrwt>
<pdfrwt beam="2">  1       -2 0.30218345E-02 0.27828617E+03</pdfrwt>
<totfact> 0.11205263E+04</totfact>
</mgrwt>
</event>
<event>
 9    1  0.8093459E-001  0.2742629E+03  0.7818608E-02  0.1098864E+00
         -2   -1    0    0    0  501 -0.00000000000E+00  0.00000000000E+00  0.60395105164E+03  0.60395105164E+03  0.00000000000E+00 0.  1.
          2   -1    0    0  501    0  0.00000000000E+00 -0.00000000000E+00 -0.31136676457E+02  0.31136676457E+02  0.00000000000E+00 0.  1.
         35    2    1    2    0    0  0.71054273576E-14  0.00000000000E+00  0.57281437518E+03  0.63508772810E+03  0.27426285560E+03 0.  0.
         25    2    3    3    0    0 -0.54531579938E+02  0.91680271628E+01  0.26316686928E+03  0.29629274131E+03  0.12439791612E+03 0.  0.
         25    2    3    3    0    0  0.54531579938E+02 -0.91680271628E+01  0.30964750590E+03  0.33879498678E+03  0.12586786416E+03 0.  0.
          5    1    4    4  502    0  0.22324596949E+02  0.45538979681E+02  0.94916686353E+02  0.10771932811E+03  0.47000000000E+01 0. -1.
         -5    1    4    4    0  502 -0.76856176887E+02 -0.36370952518E+02  0.16825018293E+03  0.18857341321E+03  0.47000000000E+01 0. -1.
          5    1    5    5  503    0  0.29817077888E+02  0.77034352907E+01  0.30679211300E+03  0.30836973205E+03  0.47000000000E+01 0. -1.
         -5    1    5    5    0  503  0.24714502050E+02 -0.16871462454E+02  0.28553929034E+01  0.30425254732E+02  0.47000000000E+01 0. -1.
<mgrwt>
<rscale>  0 0.27426286E+03</rscale>
<asrwt>0</asrwt>
<pdfrwt beam="1">  1        2 0.47902584E-02 0.27426286E+03</pdfrwt>
<pdfrwt beam="2">  1       -2 0.92915538E-01 0.27426286E+03</pdfrwt>
<totfact> 0.16896238E+03</totfact>
</mgrwt>
</event>
<event>
 9    1  0.8093459E-001  0.2762904E+03  0.7818608E-02  0.1097732E+00
          2   -1    0    0  501    0  0.00000000000E+00  0.00000000000E+00  0.91671190038E+02  0.91671190038E+02  0.00000000000E+00 0.  1.
         -2   -1    0    0    0  501 -0.00000000000E+00 -0.00000000000E+00 -0.20817980723E+03  0.20817980723E+03  0.00000000000E+00 0.  1.
         35    2    1    2    0    0 -0.71054273576E-14  0.00000000000E+00 -0.11650861719E+03  0.29985099726E+03  0.27629035937E+03 0.  0.
         25    2    3    3    0    0 -0.50513552592E+02  0.23572971081E+02 -0.77695115068E+02  0.15722042813E+03  0.12479754867E+03 0.  0.
         25    2    3    3    0    0  0.50513552592E+02 -0.23572971081E+02 -0.38813502121E+02  0.14263056913E+03  0.12541805031E+03 0.  0.
          5    1    4    4  502    0 -0.39328879326E+02  0.20686933387E+02 -0.11207167144E+03  0.12065181102E+03  0.47000000000E+01 0.  1.
         -5    1    4    4    0  502 -0.11184673265E+02  0.28860376944E+01  0.34376556372E+02  0.36568617114E+02  0.47000000000E+01 0.  1.
          5    1    5    5  503    0  0.47587856355E+02 -0.73061379483E+02 -0.27709595217E+02  0.91610484725E+02  0.47000000000E+01 0. -1.
         -5    1    5    5    0  503  0.29256962370E+01  0.49488408402E+02 -0.11103906903E+02  0.51020084409E+02  0.47000000000E+01 0. -1.
<mgrwt>
<rscale>  0 0.27629036E+03</rscale>
<asrwt>0</asrwt>
<pdfrwt beam="1">  1        2 0.14103260E-01 0.27629036E+03</pdfrwt>
<pdfrwt beam="2">  1       -2 0.32027662E-01 0.27629036E+03</pdfrwt>
<totfact> 0.37855253E+03</totfact>
</mgrwt>
</event>
<event>
 8    1  0.8093459E-001  0.3723410E+03  0.7818608E-02  0.1053801E+00
         -2   -1    0    0    0  501 -0.00000000000E+00  0.00000000000E+00  0.72373466385E+02  0.72373466385E+02  0.00000000000E+00 0. -1.
          2   -1    0    0  501    0  0.00000000000E+00 -0.00000000000E+00 -0.47889725343E+03  0.47889725343E+03  0.00000000000E+00 0. -1.
         25    2    1    2    0    0  0.13729592321E+03 -0.24896011876E+02 -0.15721214815E+03  0.23893103969E+03  0.11358873300E+03 0.  0.
         25    2    1    2    0    0 -0.13729592321E+03  0.24896011876E+02 -0.24931163890E+03  0.31233968013E+03  0.12621331369E+03 0.  0.
          5    1    3    3  502    0  0.24520728786E+02  0.79008888319E+01  0.15188700834E+02  0.30273368124E+02  0.47000000000E+01 0. -1.
         -5    1    3    3    0  502  0.11277519442E+03 -0.32796900708E+02 -0.17240084898E+03  0.20865767156E+03  0.47000000000E+01 0. -1.
          5    1    4    4  503    0 -0.35705848847E+02  0.20917434322E+02 -0.19006507340E+03  0.19457458423E+03  0.47000000000E+01 0. -1.
         -5    1    4    4    0  503 -0.10159007436E+03  0.39785775540E+01 -0.59246565495E+02  0.11776509590E+03  0.47000000000E+01 0. -1.
<mgrwt>
<rscale>  0 0.37234100E+03</rscale>
<asrwt>0</asrwt>
<pdfrwt beam="1">  1        2 0.73676497E-01 0.37234100E+03</pdfrwt>
<pdfrwt beam="2">  1       -2 0.11134380E-01 0.37234100E+03</pdfrwt>
<totfact> 0.36664033E+03</totfact>
</mgrwt>
</event>
<event>
 9    1  0.8093459E-001  0.2749674E+03  0.7818608E-02  0.1098470E+00
         -1   -1    0    0    0  501 -0.00000000000E+00  0.00000000000E+00  0.16140136824E+03  0.16140136824E+03  0.00000000000E+00 0. -1.
          1   -1    0    0  501    0  0.00000000000E+00 -0.00000000000E+00 -0.11711035142E+03  0.11711035142E+03  0.00000000000E+00 0. -1.
         35    2    1    2    0    0  0.71054273576E-14  0.35527136788E-14  0.44291016826E+02  0.27851171966E+03  0.27496742319E+03 0.  0.
         25    2    3    3    0    0  0.47145146046E+02 -0.24898802953E+02 -0.91597311252E+00  0.13558769860E+03  0.12466182182E+03 0.  0.
         25    2    3    3    0    0 -0.47145146046E+02  0.24898802953E+02  0.45206989939E+02  0.14292402106E+03  0.12466350177E+03 0.  0.
          5    1    4    4  502    0 -0.10364561235E+02 -0.45857340737E+02  0.39921396487E+02  0.61855700841E+02  0.47000000000E+01 0.  1.
         -5    1    4    4    0  502  0.57509707281E+02  0.20958537784E+02 -0.40837369599E+02  0.73731997758E+02  0.47000000000E+01 0.  1.
          5    1    5    5  503    0 -0.67352990461E+02  0.46530991874E+02  0.66980097345E+02  0.10587720231E+03  0.47000000000E+01 0.  1.
         -5    1    5    5    0  503  0.20207844414E+02 -0.21632188921E+02 -0.21773107407E+02  0.37046818751E+02  0.47000000000E+01 0.  1.
<mgrwt>
<rscale>  0 0.27496742E+03</rscale>
<asrwt>0</asrwt>
<pdfrwt beam="1">  1        1 0.18016977E-01 0.27496742E+03</pdfrwt>
<pdfrwt beam="2">  1       -1 0.24830980E-01 0.27496742E+03</pdfrwt>
<totfact> 0.40974227E+03</totfact>
</mgrwt>
</event>
<event>
 9    1  0.8093459E-001  0.2725665E+03  0.7818608E-02  0.1099820E+00
         -2   -1    0    0    0  501 -0.00000000000E+00  0.00000000000E+00  0.12109904945E+02  0.12109904945E+02  0.00000000000E+00 0.  1.
          2   -1    0    0  501    0  0.00000000000E+00 -0.00000000000E+00 -0.15337138613E+04  0.15337138613E+04  0.00000000000E+00 0.  1.
         35    2    1    2    0    0  0.00000000000E+00  0.35527136788E-14 -0.15216039564E+04  0.15458237663E+04  0.27256653554E+03 0.  0.
         25    2    3    3    0    0  0.32581344949E+02  0.22082936666E+02 -0.56384853310E+03  0.57909827930E+03  0.12601765225E+03 0.  0.
         25    2    3    3    0    0 -0.32581344949E+02 -0.22082936666E+02 -0.95775542330E+03  0.96672548699E+03  0.12535356479E+03 0.  0.
          5    1    4    4  502    0  0.45740225355E+02  0.12802018656E+02 -0.68629358053E+02  0.83595087678E+02  0.47000000000E+01 0.  1.
         -5    1    4    4    0  502 -0.13158880407E+02  0.92809180108E+01 -0.49521917504E+03  0.49550319162E+03  0.47000000000E+01 0.  1.
          5    1    5    5  503    0  0.40135871110E+01 -0.18928490273E+02 -0.19941147441E+02  0.28180418499E+02  0.47000000000E+01 0. -1.
         -5    1    5    5    0  503 -0.36594932060E+02 -0.31544463932E+01 -0.93781427586E+03  0.93854506849E+03  0.47000000000E+01 0. -1.
<mgrwt>
<rscale>  0 0.27256654E+03</rscale>
<asrwt>0</asrwt>
<pdfrwt beam="1">  1        2 0.23595588E+00 0.27256654E+03</pdfrwt>
<pdfrwt beam="2">  1       -2 0.18630631E-02 0.27256654E+03</pdfrwt>
<totfact> 0.11229847E+04</totfact>
</mgrwt>
</event>
<event>
 9    1  0.8093459E-001  0.2835858E+03  0.7818608E-02  0.1093746E+00
          2   -1    0    0  501    0  0.00000000000E+00  0.00000000000E+00  0.19621683696E+04  0.19621683696E+04  0.00000000000E+00 0. -1.
         -2   -1    0    0    0  501 -0.00000000000E+00 -0.00000000000E+00 -0.10246430169E+02  0.10246430169E+02  0.00000000000E+00 0. -1.
         35    2    1    2    0    0  0.00000000000E+00  0.00000000000E+00  0.19519219394E+04  0.19724147998E+04  0.28358576254E+03 0.  0.
         25    2    3    3    0    0  0.23511609762E+02 -0.58539063350E+02  0.81248228988E+03  0.82451952903E+03  0.12540081600E+03 0.  0.
         25    2    3    3    0    0 -0.23511609762E+02  0.58539063350E+02  0.11394396495E+04  0.11478952707E+04  0.12394038843E+03 0.  0.
          5    1    4    4  502    0 -0.22293347582E+02 -0.40134623922E+02  0.70086743121E+03  0.70238524153E+03  0.47000000000E+01 0.  1.
         -5    1    4    4    0  502  0.45804957344E+02 -0.18404439428E+02  0.11161485866E+03  0.12213428750E+03  0.47000000000E+01 0.  1.
          5    1    5    5  503    0  0.27237214575E+02 -0.19952183646E+02  0.14028708452E+03  0.14436935815E+03  0.47000000000E+01 0. -1.
         -5    1    5    5    0  503 -0.50748824337E+02  0.78491246996E+02  0.99915256502E+03  0.10035259126E+04  0.47000000000E+01 0. -1.
<mgrwt>
<rscale>  0 0.28358576E+03</rscale>
<asrwt>0</asrwt>
<pdfrwt beam="1">  1        2 0.30187176E+00 0.28358576E+03</pdfrwt>
<pdfrwt beam="2">  1       -2 0.15763754E-02 0.28358576E+03</pdfrwt>
<totfact> 0.85352956E+03</totfact>
</mgrwt>
</event>
<event>
 9    1  0.8093459E-001  0.2723498E+03  0.7818608E-02  0.1099942E+00
         -2   -1    0    0    0  501 -0.00000000000E+00  0.00000000000E+00  0.71060150782E+01  0.71060150782E+01  0.00000000000E+00 0.  1.
          2   -1    0    0  501    0  0.00000000000E+00 -0.00000000000E+00 -0.26095642865E+04  0.26095642865E+04  0.00000000000E+00 0.  1.
         35    2    1    2    0    0  0.71054273576E-14  0.71054273576E-14 -0.26024582715E+04  0.26166703016E+04  0.27234979837E+03 0.  0.
         25    2    3    3    0    0  0.47435093154E+02 -0.21095949576E+02 -0.14452010828E+04  0.14515369792E+04  0.12513314991E+03 0.  0.
         25    2    3    3    0    0 -0.47435093154E+02  0.21095949576E+02 -0.11572571887E+04  0.11651333224E+04  0.12488527163E+03 0.  0.
          5    1    4    4  502    0  0.11716435689E+02  0.51155246905E+02 -0.45222317259E+03  0.45528235412E+03  0.47000000000E+01 0.  1.
         -5    1    4    4    0  502  0.35718657465E+02 -0.72251196481E+02 -0.99297791019E+03  0.99625462509E+03  0.47000000000E+01 0.  1.
          5    1    5    5  503    0 -0.61597980291E+02 -0.38952853968E+02 -0.58519928819E+03  0.58973886840E+03  0.47000000000E+01 0.  1.
         -5    1    5    5    0  503  0.14162887137E+02  0.60048803544E+02 -0.57205790048E+03  0.57539445399E+03  0.47000000000E+01 0.  1.
<mgrwt>
<rscale>  0 0.27234980E+03</rscale>
<asrwt>0</asrwt>
<pdfrwt beam="1">  1        2 0.40147212E+00 0.27234980E+03</pdfrwt>
<pdfrwt beam="2">  1       -2 0.10932312E-02 0.27234980E+03</pdfrwt>
<totfact> 0.65343778E+03</totfact>
</mgrwt>
</event>
<event>
 9    1  0.8093459E-001  0.2776522E+03  0.7818608E-02  0.1096978E+00
         -2   -1    0    0    0  501 -0.00000000000E+00  0.00000000000E+00  0.27054216870E+02  0.27054216870E+02  0.00000000000E+00 0. -1.
          2   -1    0    0  501    0  0.00000000000E+00 -0.00000000000E+00 -0.71237279054E+03  0.71237279054E+03  0.00000000000E+00 0. -1.
         35    2    1    2    0    0 -0.14210854715E-13  0.26645352591E-14 -0.68531857367E+03  0.73942700741E+03  0.27765221388E+03 0.  0.
         25    2    3    3    0    0  0.58788153351E+02 -0.22870722115E+01 -0.30780685123E+03  0.33743115464E+03  0.12511374336E+03 0.  0.
         25    2    3    3    0    0 -0.58788153351E+02  0.22870722115E+01 -0.37751172243E+03  0.40199585277E+03  0.12499714956E+03 0.  0.
          5    1    4    4  502    0  0.66172250019E+02  0.32926454970E+01 -0.60308360806E+02  0.89715085521E+02  0.47000000000E+01 0. -1.
         -5    1    4    4    0  502 -0.73840966682E+01 -0.55797177085E+01 -0.24749849043E+03  0.24771606912E+03  0.47000000000E+01 0. -1.
          5    1    5    5  503    0 -0.49526863733E+02 -0.33516121781E+02 -0.69801833697E+02  0.92036007290E+02  0.47000000000E+01 0.  1.
         -5    1    5    5    0  503 -0.92612896178E+01  0.35803193993E+02 -0.30770988873E+03  0.30995984548E+03  0.47000000000E+01 0.  1.
<mgrwt>
<rscale>  0 0.27765221E+03</rscale>
<asrwt>0</asrwt>
<pdfrwt beam="1">  1        2 0.10959582E+00 0.27765221E+03</pdfrwt>
<pdfrwt beam="2">  1       -2 0.41621868E-02 0.27765221E+03</pdfrwt>
<totfact> 0.10586689E+04</totfact>
</mgrwt>
</event>
<event>
 9    1  0.8093459E-001  0.2741755E+03  0.7818608E-02  0.1098913E+00
          2   -1    0    0  501    0  0.00000000000E+00  0.00000000000E+00  0.34167562809E+04  0.34167562809E+04  0.00000000000E+00 0.  1.
         -2   -1    0    0    0  501 -0.00000000000E+00 -0.00000000000E+00 -0.55002592164E+01  0.55002592164E+01  0.00000000000E+00 0.  1.
         35    2    1    2    0    0  0.35527136788E-14  0.35527136788E-14  0.34112560217E+04  0.34222565401E+04  0.27417545641E+03 0.  0.
         25    2    3    3    0    0  0.22831869805E+02 -0.29616669798E+02  0.22127098673E+04  0.22165562745E+04  0.12505326800E+03 0.  0.
         25    2    3    3    0    0 -0.22831869805E+02  0.29616669798E+02  0.11985461544E+04  0.12057002656E+04  0.12570523010E+03 0.  0.
          5    1    4    4  502    0  0.47668512451E+02  0.86993934503E+01  0.18869829561E+04  0.18876108532E+04  0.47000000000E+01 0. -1.
         -5    1    4    4    0  502 -0.24836642646E+02 -0.38316063249E+02  0.32572691114E+03  0.32894542125E+03  0.47000000000E+01 0. -1.
          5    1    5    5  503    0 -0.45445733124E+02  0.12031096656E+02  0.16202780490E+03  0.16877547661E+03  0.47000000000E+01 0. -1.
         -5    1    5    5    0  503  0.22613863319E+02  0.17585573142E+02  0.10365183495E+04  0.10369247890E+04  0.47000000000E+01 0. -1.
<mgrwt>
<rscale>  0 0.27417546E+03</rscale>
<asrwt>0</asrwt>
<pdfrwt beam="1">  1        2 0.52565312E+00 0.27417546E+03</pdfrwt>
<pdfrwt beam="2">  1       -2 0.84619646E-03 0.27417546E+03</pdfrwt>
<totfact> 0.31248608E+03</totfact>
</mgrwt>
</event>
<event>
 9    1  0.8093459E-001  0.2815328E+03  0.7818608E-02  0.1094855E+00
          1   -1    0    0  501    0  0.00000000000E+00  0.00000000000E+00  0.47152658618E+03  0.47152658618E+03  0.00000000000E+00 0. -1.
         -1   -1    0    0    0  501 -0.00000000000E+00 -0.00000000000E+00 -0.42023458785E+02  0.42023458785E+02  0.00000000000E+00 0. -1.
         35    2    1    2    0    0 -0.71054273576E-14  0.00000000000E+00  0.42950312739E+03  0.51355004496E+03  0.28153279070E+03 0.  0.
         25    2    3    3    0    0  0.60552945555E+02  0.22817874874E+02  0.22075158246E+03  0.26165804017E+03  0.12468501995E+03 0.  0.
         25    2    3    3    0    0 -0.60552945555E+02 -0.22817874874E+02  0.20875154494E+03  0.25189200479E+03  0.12524000932E+03 0.  0.
          5    1    4    4  502    0 -0.55844442205E+01 -0.45020765647E+02  0.73025438149E+02  0.86097967302E+02  0.47000000000E+01 0.  1.
         -5    1    4    4    0  502  0.66137389776E+02  0.67838640521E+02  0.14772614431E+03  0.17556007287E+03  0.47000000000E+01 0.  1.
          5    1    5    5  503    0  0.91092441228E+00 -0.47397052940E+02  0.16659273217E+03  0.17327013252E+03  0.47000000000E+01 0.  1.
         -5    1    5    5    0  503 -0.61463869967E+02  0.24579178066E+02  0.42158812762E+02  0.78621872270E+02  0.47000000000E+01 0.  1.
<mgrwt>
<rscale>  0 0.28153279E+03</rscale>
<asrwt>0</asrwt>
<pdfrwt beam="1">  1        1 0.72542548E-01 0.28153279E+03</pdfrwt>
<pdfrwt beam="2">  1       -1 0.64651478E-02 0.28153279E+03</pdfrwt>
<totfact> 0.58018076E+03</totfact>
</mgrwt>
</event>
<event>
 9    1  0.8093459E-001  0.2750755E+03  0.7818608E-02  0.1098409E+00
         -1   -1    0    0    0  501 -0.00000000000E+00  0.00000000000E+00  0.93537717418E+01  0.93537717418E+01  0.00000000000E+00 0.  1.
          1   -1    0    0  501    0  0.00000000000E+00 -0.00000000000E+00 -0.20223528118E+04  0.20223528118E+04  0.00000000000E+00 0.  1.
         35    2    1    2    0    0  0.71054273576E-14  0.35527136788E-14 -0.20129990400E+04  0.20317065835E+04  0.27507545570E+03 0.  0.
         25    2    3    3    0    0 -0.43071389644E+02 -0.39191352129E+01 -0.12750523529E+04  0.12819724086E+04  0.12579447319E+03 0.  0.
         25    2    3    3    0    0  0.43071389644E+02  0.39191352129E+01 -0.73794668708E+03  0.74973417489E+03  0.12516195827E+03 0.  0.
          5    1    4    4  502    0 -0.34803254484E+02 -0.63561393526E+02 -0.70292915270E+03  0.70667022081E+03  0.47000000000E+01 0.  1.
         -5    1    4    4    0  502 -0.82681351596E+01  0.59642258313E+02 -0.57212320025E+03  0.57530218781E+03  0.47000000000E+01 0.  1.
          5    1    5    5  503    0  0.43217558542E+02 -0.21446731269E+02 -0.71018064769E+03  0.71183309982E+03  0.47000000000E+01 0. -1.
         -5    1    5    5    0  503 -0.14616889770E+00  0.25365866482E+02 -0.27766039385E+02  0.37901075062E+02  0.47000000000E+01 0. -1.
<mgrwt>
<rscale>  0 0.27507546E+03</rscale>
<asrwt>0</asrwt>
<pdfrwt beam="1">  1        1 0.31113179E+00 0.27507546E+03</pdfrwt>
<pdfrwt beam="2">  1       -1 0.14390391E-02 0.27507546E+03</pdfrwt>
<totfact> 0.36175778E+03</totfact>
</mgrwt>
</event>
<event>
 9    1  0.8093459E-001  0.2754605E+03  0.7818608E-02  0.1098194E+00
         -1   -1    0    0    0  501 -0.00000000000E+00  0.00000000000E+00  0.42385295121E+02  0.42385295121E+02  0.00000000000E+00 0.  1.
          1   -1    0    0  501    0  0.00000000000E+00 -0.00000000000E+00 -0.44755199079E+03  0.44755199079E+03  0.00000000000E+00 0.  1.
         35    2    1    2    0    0  0.00000000000E+00 -0.14210854715E-13 -0.40516669567E+03  0.48993728591E+03  0.27546051050E+03 0.  0.
         25    2    3    3    0    0 -0.19188569109E+02 -0.50199134809E+02 -0.24107626268E+03  0.27689087625E+03  0.12515046386E+03 0.  0.
         25    2    3    3    0    0  0.19188569109E+02  0.50199134809E+02 -0.16409043299E+03  0.21304640966E+03  0.12479963201E+03 0.  0.
          5    1    4    4  502    0  0.49342437302E+02  0.29627496963E+00 -0.70303858023E+02  0.86020267093E+02  0.47000000000E+01 0. -1.
         -5    1    4    4    0  502 -0.68531006411E+02 -0.50495409778E+02 -0.17077240466E+03  0.19087060916E+03  0.47000000000E+01 0. -1.
          5    1    5    5  503    0  0.44787716648E+01 -0.22289610063E+02 -0.12894858311E+03  0.13102180429E+03  0.47000000000E+01 0. -1.
         -5    1    5    5    0  503  0.14709797444E+02  0.72488744872E+02 -0.35141849883E+02  0.82024605376E+02  0.47000000000E+01 0. -1.
<mgrwt>
<rscale>  0 0.27546051E+03</rscale>
<asrwt>0</asrwt>
<pdfrwt beam="1">  1        1 0.68854151E-01 0.27546051E+03</pdfrwt>
<pdfrwt beam="2">  1       -1 0.65208147E-02 0.27546051E+03</pdfrwt>
<totfact> 0.61277245E+03</totfact>
</mgrwt>
</event>
<event>
 9    1  0.8093459E-001  0.2826470E+03  0.7818608E-02  0.1094252E+00
          1   -1    0    0  501    0  0.00000000000E+00  0.00000000000E+00  0.87627794664E+03  0.87627794664E+03  0.00000000000E+00 0. -1.
         -1   -1    0    0    0  501 -0.00000000000E+00 -0.00000000000E+00 -0.22792236810E+02  0.22792236810E+02  0.00000000000E+00 0. -1.
         35    2    1    2    0    0  0.00000000000E+00 -0.71054273576E-14  0.85348570983E+03  0.89907018345E+03  0.28264701995E+03 0.  0.
         25    2    3    3    0    0 -0.33187897891E+02  0.42705445082E+02  0.30060843951E+03  0.32983247865E+03  0.12449433104E+03 0.  0.
         25    2    3    3    0    0  0.33187897891E+02 -0.42705445082E+02  0.55287727032E+03  0.56923770480E+03  0.12423001620E+03 0.  0.
          5    1    4    4  502    0 -0.67049922688E+02  0.14273467761E+01  0.23850529244E+03  0.24779950358E+03  0.47000000000E+01 0.  1.
         -5    1    4    4    0  502  0.33862024797E+02  0.41278098306E+02  0.62103147068E+02  0.82032975070E+02  0.47000000000E+01 0.  1.
          5    1    5    5  503    0  0.40981395862E+02 -0.53396517627E+02  0.55094939119E+03  0.55506574796E+03  0.47000000000E+01 0.  1.
         -5    1    5    5    0  503 -0.77934979712E+01  0.10691072545E+02  0.19278791274E+01  0.14171956842E+02  0.47000000000E+01 0.  1.
<mgrwt>
<rscale>  0 0.28264702E+03</rscale>
<asrwt>0</asrwt>
<pdfrwt beam="1">  1        1 0.13481197E+00 0.28264702E+03</pdfrwt>
<pdfrwt beam="2">  1       -1 0.35064986E-02 0.28264702E+03</pdfrwt>
<totfact> 0.59660782E+03</totfact>
</mgrwt>
</event>
<event>
 9    1  0.8093459E-001  0.3249949E+03  0.7818608E-02  0.1073373E+00
          2   -1    0    0  501    0  0.00000000000E+00  0.00000000000E+00  0.56436330997E+03  0.56436330997E+03  0.00000000000E+00 0.  1.
         -2   -1    0    0    0  501 -0.00000000000E+00 -0.00000000000E+00 -0.46787973112E+02  0.46787973112E+02  0.00000000000E+00 0.  1.
         35    2    1    2    0    0 -0.35527136788E-14 -0.14210854715E-13  0.51757533685E+03  0.61115128308E+03  0.32499486379E+03 0.  0.
         25    2    3    3    0    0 -0.14974457288E+02  0.10269962822E+03  0.28147326274E+03  0.32495293499E+03  0.12488300248E+03 0.  0.
         25    2    3    3    0    0  0.14974457288E+02 -0.10269962822E+03  0.23610207411E+03  0.28619834809E+03  0.12407198331E+03 0.  0.
          5    1    4    4  502    0  0.40912458755E+02  0.12019665370E+02  0.14816318561E+03  0.15424889369E+03  0.47000000000E+01 0. -1.
         -5    1    4    4    0  502 -0.55886916043E+02  0.90679962850E+02  0.13331007714E+03  0.17070404129E+03  0.47000000000E+01 0. -1.
          5    1    5    5  503    0  0.18353617152E+02 -0.21270323007E+02  0.19064405071E+03  0.19276028112E+03  0.47000000000E+01 0. -1.
         -5    1    5    5    0  503 -0.33791598639E+01 -0.81429305213E+02  0.45458023395E+02  0.93438066974E+02  0.47000000000E+01 0. -1.
<mgrwt>
<rscale>  0 0.32499486E+03</rscale>
<asrwt>0</asrwt>
<pdfrwt beam="1">  1        2 0.86825120E-01 0.32499486E+03</pdfrwt>
<pdfrwt beam="2">  1       -2 0.71981501E-02 0.32499486E+03</pdfrwt>
<totfact> 0.60577988E+03</totfact>
</mgrwt>
</event>
<event>
 9    1  0.8093459E-001  0.2758832E+03  0.7818608E-02  0.1097959E+00
         -1   -1    0    0    0  501 -0.00000000000E+00  0.00000000000E+00  0.81674566344E+01  0.81674566344E+01  0.00000000000E+00 0. -1.
          1   -1    0    0  501    0  0.00000000000E+00 -0.00000000000E+00 -0.23297190942E+04  0.23297190942E+04  0.00000000000E+00 0. -1.
         35    2    1    2    0    0  0.00000000000E+00  0.00000000000E+00 -0.23215516376E+04  0.23378865509E+04  0.27588316130E+03 0.  0.
         25    2    3    3    0    0  0.33161728585E+02  0.40888985450E+02 -0.89657604009E+03  0.90688810505E+03  0.12580075534E+03 0.  0.
         25    2    3    3    0    0 -0.33161728585E+02 -0.40888985450E+02 -0.14249755975E+04  0.14309984458E+04  0.12012280825E+03 0.  0.
          5    1    4    4  502    0  0.51639233103E+02 -0.21858160352E+02 -0.21781411830E+03  0.22496548558E+03  0.47000000000E+01 0.  1.
         -5    1    4    4    0  502 -0.18477504518E+02  0.62747145803E+02 -0.67876192179E+03  0.68192261948E+03  0.47000000000E+01 0.  1.
          5    1    5    5  503    0  0.38210980945E+02 -0.34260029317E+02 -0.84865530822E+03  0.85021864885E+03  0.47000000000E+01 0. -1.
         -5    1    5    5    0  503 -0.71372709530E+02 -0.66289561331E+01 -0.57632028928E+03  0.58077979697E+03  0.47000000000E+01 0. -1.
<mgrwt>
<rscale>  0 0.27588316E+03</rscale>
<asrwt>0</asrwt>
<pdfrwt beam="1">  1        1 0.35841847E+00 0.27588316E+03</pdfrwt>
<pdfrwt beam="2">  1       -1 0.12565313E-02 0.27588316E+03</pdfrwt>
<totfact> 0.27755514E+03</totfact>
</mgrwt>
</event>
<event>
 9    1  0.8093459E-001  0.2763088E+03  0.7818608E-02  0.1097722E+00
          2   -1    0    0  501    0  0.00000000000E+00  0.00000000000E+00  0.62893638352E+03  0.62893638352E+03  0.00000000000E+00 0. -1.
         -2   -1    0    0    0  501 -0.00000000000E+00 -0.00000000000E+00 -0.30347487426E+02  0.30347487426E+02  0.00000000000E+00 0. -1.
         35    2    1    2    0    0 -0.35527136788E-14 -0.14210854715E-13  0.59858889610E+03  0.65928387095E+03  0.27630880544E+03 0.  0.
         25    2    3    3    0    0  0.48881785662E+01  0.62164085922E+02  0.28750745916E+03  0.31843250252E+03  0.12186242947E+03 0.  0.
         25    2    3    3    0    0 -0.48881785662E+01 -0.62164085922E+02  0.31108143693E+03  0.34085136843E+03  0.12457819668E+03 0.  0.
          5    1    4    4  502    0 -0.25739375575E+02 -0.28037647021E+02  0.54312500906E+02  0.66487313528E+02  0.47000000000E+01 0. -1.
         -5    1    4    4    0  502  0.30627554141E+02  0.90201732942E+02  0.23319495826E+03  0.25194518899E+03  0.47000000000E+01 0. -1.
          5    1    5    5  503    0  0.28624289278E+02 -0.80688199815E+02  0.27489597901E+03  0.28795802611E+03  0.47000000000E+01 0. -1.
         -5    1    5    5    0  503 -0.33512467844E+02  0.18524113894E+02  0.36185457918E+02  0.52893342315E+02  0.47000000000E+01 0. -1.
<mgrwt>
<rscale>  0 0.27630881E+03</rscale>
<asrwt>0</asrwt>
<pdfrwt beam="1">  1        2 0.96759434E-01 0.27630881E+03</pdfrwt>
<pdfrwt beam="2">  1       -2 0.46688447E-02 0.27630881E+03</pdfrwt>
<totfact> 0.10329844E+04</totfact>
</mgrwt>
</event>
<event>
 9    1  0.8093459E-001  0.2746979E+03  0.7818608E-02  0.1098621E+00
         -2   -1    0    0    0  501 -0.00000000000E+00  0.00000000000E+00  0.27529387908E+02  0.27529387908E+02  0.00000000000E+00 0.  1.
          2   -1    0    0  501    0  0.00000000000E+00 -0.00000000000E+00 -0.68525794687E+03  0.68525794687E+03  0.00000000000E+00 0.  1.
         35    2    1    2    0    0 -0.22204460493E-14  0.00000000000E+00 -0.65772855896E+03  0.71278733478E+03  0.27469788377E+03 0.  0.
         25    2    3    3    0    0 -0.13638317076E+01 -0.14602672199E+02 -0.18351120050E+03  0.22222259342E+03  0.12446454212E+03 0.  0.
         25    2    3    3    0    0  0.13638317076E+01  0.14602672199E+02 -0.47421735847E+03  0.49056474136E+03  0.12472595690E+03 0.  0.
          5    1    4    4  502    0 -0.32087182862E+02  0.91390960508E+01 -0.17980687581E+03  0.18293636317E+03  0.47000000000E+01 0.  1.
         -5    1    4    4    0  502  0.30723351154E+02 -0.23741768250E+02 -0.37043246859E+01  0.39286230248E+02  0.47000000000E+01 0.  1.
          5    1    5    5  503    0 -0.23763486248E+01  0.31906508140E+02 -0.47082780252E+03  0.47193705292E+03  0.47000000000E+01 0.  1.
         -5    1    5    5    0  503  0.37401803325E+01 -0.17303835941E+02 -0.33895559491E+01  0.18627688443E+02  0.47000000000E+01 0.  1.
<mgrwt>
<rscale>  0 0.27469788E+03</rscale>
<asrwt>0</asrwt>
<pdfrwt beam="1">  1        2 0.10542430E+00 0.27469788E+03</pdfrwt>
<pdfrwt beam="2">  1       -2 0.42352904E-02 0.27469788E+03</pdfrwt>
<totfact> 0.10805302E+04</totfact>
</mgrwt>
</event>
<event>
 9    1  0.8093459E-001  0.2727049E+03  0.7818608E-02  0.1099741E+00
          2   -1    0    0  501    0  0.00000000000E+00  0.00000000000E+00  0.12631916950E+04  0.12631916950E+04  0.00000000000E+00 0. -1.
         -2   -1    0    0    0  501 -0.00000000000E+00 -0.00000000000E+00 -0.14718262343E+02  0.14718262343E+02  0.00000000000E+00 0. -1.
         35    2    1    2    0    0  0.00000000000E+00 -0.71054273576E-14  0.12484734327E+04  0.12779099574E+04  0.27270487166E+03 0.  0.
         25    2    3    3    0    0  0.10189822023E+02  0.53198616931E+02  0.51711603679E+03  0.53393220523E+03  0.12141119782E+03 0.  0.
         25    2    3    3    0    0 -0.10189822023E+02 -0.53198616931E+02  0.73135739591E+03  0.74397775216E+03  0.12524108686E+03 0.  0.
          5    1    4    4  502    0  0.30026869868E+02 -0.59464395741E+01  0.31039915396E+02  0.43846771894E+02  0.47000000000E+01 0.  1.
         -5    1    4    4    0  502 -0.19837047845E+02  0.59145056505E+02  0.48607612140E+03  0.49008543333E+03  0.47000000000E+01 0.  1.
          5    1    5    5  503    0 -0.67498352120E+02 -0.34247180969E+02  0.39449475975E+03  0.40171768995E+03  0.47000000000E+01 0. -1.
         -5    1    5    5    0  503  0.57308530097E+02 -0.18951435962E+02  0.33686263616E+03  0.34226006221E+03  0.47000000000E+01 0. -1.
<mgrwt>
<rscale>  0 0.27270487E+03</rscale>
<asrwt>0</asrwt>
<pdfrwt beam="1">  1        2 0.19433710E+00 0.27270487E+03</pdfrwt>
<pdfrwt beam="2">  1       -2 0.22643490E-02 0.27270487E+03</pdfrwt>
<totfact> 0.11825651E+04</totfact>
</mgrwt>
</event>
<event>
 9    1  0.8093459E-001  0.2817908E+03  0.7818608E-02  0.1094715E+00
          2   -1    0    0  501    0  0.00000000000E+00  0.00000000000E+00  0.20561388134E+04  0.20561388134E+04  0.00000000000E+00 0.  1.
         -2   -1    0    0    0  501 -0.00000000000E+00 -0.00000000000E+00 -0.96547551915E+01  0.96547551915E+01  0.00000000000E+00 0.  1.
         35    2    1    2    0    0  0.00000000000E+00  0.00000000000E+00  0.20464840582E+04  0.20657935686E+04  0.28179082230E+03 0.  0.
         25    2    3    3    0    0  0.95424984705E+01 -0.46787318199E+02  0.13440195515E+04  0.13507222151E+04  0.12562577494E+03 0.  0.
         25    2    3    3    0    0 -0.95424984705E+01  0.46787318199E+02  0.70246450672E+03  0.71507135342E+03  0.12486210343E+03 0.  0.
          5    1    4    4  502    0  0.11487466253E+02  0.20391846739E+02  0.99350382543E+03  0.99379058681E+03  0.47000000000E+01 0.  1.
         -5    1    4    4    0  502 -0.19449677825E+01 -0.67179164938E+02  0.35051572604E+03  0.35693162833E+03  0.47000000000E+01 0.  1.
          5    1    5    5  503    0  0.17236943965E+02  0.66043917215E+02  0.19761430993E+03  0.20912297035E+03  0.47000000000E+01 0. -1.
         -5    1    5    5    0  503 -0.26779442436E+02 -0.19256599016E+02  0.50485019679E+03  0.50594838308E+03  0.47000000000E+01 0. -1.
<mgrwt>
<rscale>  0 0.28179082E+03</rscale>
<asrwt>0</asrwt>
<pdfrwt beam="1">  1        2 0.31632870E+00 0.28179082E+03</pdfrwt>
<pdfrwt beam="2">  1       -2 0.14853486E-02 0.28179082E+03</pdfrwt>
<totfact> 0.83083527E+03</totfact>
</mgrwt>
</event>
<event>
 9    1  0.8093459E-001  0.2794585E+03  0.7818608E-02  0.1095985E+00
         -1   -1    0    0    0  501 -0.00000000000E+00  0.00000000000E+00  0.18916328476E+03  0.18916328476E+03  0.00000000000E+00 0. -1.
          1   -1    0    0  501    0  0.00000000000E+00 -0.00000000000E+00 -0.10321382420E+03  0.10321382420E+03  0.00000000000E+00 0. -1.
         35    2    1    2    0    0  0.53290705182E-14  0.00000000000E+00  0.85949460563E+02  0.29237710897E+03  0.27945851942E+03 0.  0.
         25    2    3    3    0    0  0.21107464002E+01  0.64264615722E+02  0.50373935115E+02  0.15045301236E+03  0.12634943414E+03 0.  0.
         25    2    3    3    0    0 -0.21107464002E+01 -0.64264615722E+02  0.35575525448E+02  0.14192409660E+03  0.12141842982E+03 0.  0.
          5    1    4    4  502    0 -0.88238020287E+01  0.36093441518E+02 -0.40147849968E+02  0.54904789043E+02  0.47000000000E+01 0.  1.
         -5    1    4    4    0  502  0.10934548429E+02  0.28171174204E+02  0.90521785083E+02  0.95548223322E+02  0.47000000000E+01 0.  1.
          5    1    5    5  503    0 -0.48032037320E+02 -0.11892526472E+02 -0.19101431435E+02  0.53249070207E+02  0.47000000000E+01 0. -1.
         -5    1    5    5    0  503  0.45921290920E+02 -0.52372089250E+02  0.54676956883E+02  0.88675026395E+02  0.47000000000E+01 0. -1.
<mgrwt>
<rscale>  0 0.27945852E+03</rscale>
<asrwt>0</asrwt>
<pdfrwt beam="1">  1        1 0.15879050E-01 0.27945852E+03</pdfrwt>
<pdfrwt beam="2">  1       -1 0.29102044E-01 0.27945852E+03</pdfrwt>
<totfact> 0.37025695E+03</totfact>
</mgrwt>
</event>
<event>
 9    1  0.8093459E-001  0.2771188E+03  0.7818608E-02  0.1097273E+00
          2   -1    0    0  501    0  0.00000000000E+00  0.00000000000E+00  0.34422729688E+03  0.34422729688E+03  0.00000000000E+00 0.  1.
         -2   -1    0    0    0  501 -0.00000000000E+00 -0.00000000000E+00 -0.55773352671E+02  0.55773352671E+02  0.00000000000E+00 0.  1.
         35    2    1    2    0    0  0.00000000000E+00  0.35527136788E-14  0.28845394421E+03  0.40000064956E+03  0.27711882237E+03 0.  0.
         25    2    3    3    0    0  0.50139136718E+02  0.29912038157E+02  0.15830047881E+03  0.21023218993E+03  0.12541877465E+03 0.  0.
         25    2    3    3    0    0 -0.50139136718E+02 -0.29912038157E+02  0.13015346540E+03  0.18976845963E+03  0.12515382797E+03 0.  0.
          5    1    4    4  502    0  0.92115874960E+02  0.16708788678E+02  0.11437374000E+03  0.14787819461E+03  0.47000000000E+01 0. -1.
         -5    1    4    4    0  502 -0.41976738242E+02  0.13203249480E+02  0.43926738805E+02  0.62353995319E+02  0.47000000000E+01 0. -1.
          5    1    5    5  503    0  0.14687636151E+01 -0.16639226322E+02  0.13494866099E+03  0.13605973769E+03  0.47000000000E+01 0. -1.
         -5    1    5    5    0  503 -0.51607900333E+02 -0.13272811836E+02 -0.47951955834E+01  0.53708721931E+02  0.47000000000E+01 0. -1.
<mgrwt>
<rscale>  0 0.27711882E+03</rscale>
<asrwt>0</asrwt>
<pdfrwt beam="1">  1        2 0.52958045E-01 0.27711882E+03</pdfrwt>
<pdfrwt beam="2">  1       -2 0.85805160E-02 0.27711882E+03</pdfrwt>
<totfact> 0.79144311E+03</totfact>
</mgrwt>
</event>
<event>
 9    1  0.8093459E-001  0.2759817E+03  0.7818608E-02  0.1097904E+00
         -3   -1    0    0    0  501 -0.00000000000E+00  0.00000000000E+00  0.22773339475E+03  0.22773339475E+03  0.00000000000E+00 0.  1.
          3   -1    0    0  501    0  0.00000000000E+00 -0.00000000000E+00 -0.83613020041E+02  0.83613020041E+02  0.00000000000E+00 0.  1.
         35    2    1    2    0    0  0.71054273576E-14  0.00000000000E+00  0.14412037470E+03  0.31134641479E+03  0.27598171605E+03 0.  0.
         25    2    3    3    0    0 -0.50451636277E+02  0.23959566903E+02  0.88511671052E+02  0.16277386706E+03  0.12466590326E+03 0.  0.
         25    2    3    3    0    0  0.50451636277E+02 -0.23959566903E+02  0.55608703652E+02  0.14857254773E+03  0.12594461310E+03 0.  0.
          5    1    4    4  502    0 -0.83485865392E+01 -0.41996350348E+02 -0.18922104201E+01  0.43116850535E+02  0.47000000000E+01 0.  1.
         -5    1    4    4    0  502 -0.42103049738E+02  0.65955917251E+02  0.90403881472E+02  0.11965701652E+03  0.47000000000E+01 0.  1.
          5    1    5    5  503    0 -0.27283391310E+02 -0.87464136842E+01 -0.22877741248E+02  0.36964364438E+02  0.47000000000E+01 0. -1.
         -5    1    5    5    0  503  0.77735027587E+02 -0.15213153219E+02  0.78486444900E+02  0.11160818329E+03  0.47000000000E+01 0. -1.
<mgrwt>
<rscale>  0 0.27598172E+03</rscale>
<asrwt>0</asrwt>
<pdfrwt beam="1">  1        3 0.12863542E-01 0.27598172E+03</pdfrwt>
<pdfrwt beam="2">  1       -3 0.35035907E-01 0.27598172E+03</pdfrwt>
<totfact> 0.98444301E+02</totfact>
</mgrwt>
</event>
<event>
 9    1  0.8093459E-001  0.2687205E+03  0.7818608E-02  0.1102014E+00
          2   -1    0    0  501    0  0.00000000000E+00  0.00000000000E+00  0.55616627508E+03  0.55616627508E+03  0.00000000000E+00 0. -1.
         -2   -1    0    0    0  501 -0.00000000000E+00 -0.00000000000E+00 -0.32459133011E+02  0.32459133011E+02  0.00000000000E+00 0. -1.
         35    2    1    2    0    0  0.71054273576E-14  0.00000000000E+00  0.52370714207E+03  0.58862540809E+03  0.26872048749E+03 0.  0.
         25    2    3    3    0    0 -0.36991608796E+02  0.22540297259E+01  0.33102334209E+03  0.35589660029E+03  0.12534942090E+03 0.  0.
         25    2    3    3    0    0  0.36991608796E+02 -0.22540297259E+01  0.19268379998E+03  0.23272880780E+03  0.12514867732E+03 0.  0.
          5    1    4    4  502    0 -0.26038339971E+02 -0.60778538679E+02  0.17975912463E+03  0.19159190693E+03  0.47000000000E+01 0. -1.
         -5    1    4    4    0  502 -0.10953268825E+02  0.63032568405E+02  0.15126421746E+03  0.16430469336E+03  0.47000000000E+01 0. -1.
          5    1    5    5  503    0  0.77043587567E+02 -0.26868187291E+02  0.10427161254E+03  0.13248499181E+03  0.47000000000E+01 0.  1.
         -5    1    5    5    0  503 -0.40051978771E+02  0.24614157565E+02  0.88412187437E+02  0.10024381599E+03  0.47000000000E+01 0.  1.
<mgrwt>
<rscale>  0 0.26872049E+03</rscale>
<asrwt>0</asrwt>
<pdfrwt beam="1">  1        2 0.85564035E-01 0.26872049E+03</pdfrwt>
<pdfrwt beam="2">  1       -2 0.49937132E-02 0.26872049E+03</pdfrwt>
<totfact> 0.10742990E+04</totfact>
</mgrwt>
</event>
<event>
 9    1  0.8093459E-001  0.2736007E+03  0.7818608E-02  0.1099236E+00
          1   -1    0    0  501    0  0.00000000000E+00  0.00000000000E+00  0.54116021937E+03  0.54116021937E+03  0.00000000000E+00 0.  1.
         -1   -1    0    0    0  501 -0.00000000000E+00 -0.00000000000E+00 -0.34581864130E+02  0.34581864130E+02  0.00000000000E+00 0.  1.
         35    2    1    2    0    0  0.14210854715E-13  0.00000000000E+00  0.50657835524E+03  0.57574208350E+03  0.27360065189E+03 0.  0.
         25    2    3    3    0    0  0.51190596092E+02 -0.15255169065E+02  0.16733328849E+03  0.21037910353E+03  0.11578316134E+03 0.  0.
         25    2    3    3    0    0 -0.51190596092E+02  0.15255169065E+02  0.33924506675E+03  0.36536297998E+03  0.12469841424E+03 0.  0.
          5    1    4    4  502    0 -0.29626927996E+02  0.22599785039E+02  0.40630441066E+02  0.55330171584E+02  0.47000000000E+01 0. -1.
         -5    1    4    4    0  502  0.80817524088E+02 -0.37854954104E+02  0.12670284743E+03  0.15504893194E+03  0.47000000000E+01 0. -1.
          5    1    5    5  503    0  0.30609122274E+02 -0.51500688055E+01  0.20051064572E+03  0.20295332129E+03  0.47000000000E+01 0.  1.
         -5    1    5    5    0  503 -0.81799718366E+02  0.20405237870E+02  0.13873442103E+03  0.16240965869E+03  0.47000000000E+01 0.  1.
<mgrwt>
<rscale>  0 0.27360065E+03</rscale>
<asrwt>0</asrwt>
<pdfrwt beam="1">  1        1 0.83255412E-01 0.27360065E+03</pdfrwt>
<pdfrwt beam="2">  1       -1 0.53202872E-02 0.27360065E+03</pdfrwt>
<totfact> 0.64726984E+03</totfact>
</mgrwt>
</event>
<event>
 9    1  0.8093459E-001  0.2733232E+03  0.7818608E-02  0.1099393E+00
         -1   -1    0    0    0  501 -0.00000000000E+00  0.00000000000E+00  0.45335846543E+02  0.45335846543E+02  0.00000000000E+00 0. -1.
          1   -1    0    0  501    0  0.00000000000E+00 -0.00000000000E+00 -0.41195649791E+03  0.41195649791E+03  0.00000000000E+00 0. -1.
         35    2    1    2    0    0  0.00000000000E+00  0.26645352591E-14 -0.36662065137E+03  0.45729234446E+03  0.27332322676E+03 0.  0.
         25    2    3    3    0    0 -0.14842348566E+02  0.65638000304E+01 -0.10191054285E+03  0.16314986979E+03  0.12636748982E+03 0.  0.
         25    2    3    3    0    0  0.14842348566E+02 -0.65638000304E+01 -0.26471010851E+03  0.29414247467E+03  0.12722018343E+03 0.  0.
          5    1    4    4  502    0 -0.64189907815E+02 -0.14337813182E+01 -0.20615078148E+02  0.67597865656E+02  0.47000000000E+01 0. -1.
         -5    1    4    4    0  502  0.49347559249E+02  0.79975813486E+01 -0.81295464707E+02  0.95552004130E+02  0.47000000000E+01 0. -1.
          5    1    5    5  503    0  0.22432879701E+02 -0.58857202364E+02 -0.20382811703E+03  0.21339024264E+03  0.47000000000E+01 0.  1.
         -5    1    5    5    0  503 -0.75905311353E+01  0.52293402334E+02 -0.60881991480E+02  0.80752232026E+02  0.47000000000E+01 0.  1.
<mgrwt>
<rscale>  0 0.27332323E+03</rscale>
<asrwt>0</asrwt>
<pdfrwt beam="1">  1        1 0.63377921E-01 0.27332323E+03</pdfrwt>
<pdfrwt beam="2">  1       -1 0.69747458E-02 0.27332323E+03</pdfrwt>
<totfact> 0.61587032E+03</totfact>
</mgrwt>
</event>
<event>
 9    1  0.8093459E-001  0.2757498E+03  0.7818608E-02  0.1098033E+00
          2   -1    0    0  501    0  0.00000000000E+00  0.00000000000E+00  0.12439847894E+04  0.12439847894E+04  0.00000000000E+00 0. -1.
         -2   -1    0    0    0  501 -0.00000000000E+00 -0.00000000000E+00 -0.15281126891E+02  0.15281126891E+02  0.00000000000E+00 0. -1.
         35    2    1    2    0    0  0.71054273576E-14  0.71054273576E-14  0.12287036626E+04  0.12592659163E+04  0.27574980993E+03 0.  0.
         25    2    3    3    0    0  0.10689154795E+02  0.31595390246E+02  0.39679289439E+03  0.41745090405E+03  0.12533207706E+03 0.  0.
         25    2    3    3    0    0 -0.10689154795E+02 -0.31595390246E+02  0.83191076817E+03  0.84181501229E+03  0.12435619007E+03 0.  0.
          5    1    4    4  502    0  0.45231094425E+02  0.65393183601E+02  0.27604186194E+03  0.28730353271E+03  0.47000000000E+01 0. -1.
         -5    1    4    4    0  502 -0.34541939630E+02 -0.33797793355E+02  0.12075103245E+03  0.13014737134E+03  0.47000000000E+01 0. -1.
          5    1    5    5  503    0 -0.64768068674E+02 -0.32626232073E+02  0.40537802660E+03  0.41184075586E+03  0.47000000000E+01 0. -1.
         -5    1    5    5    0  503  0.54078913879E+02  0.10308418271E+01  0.42653274157E+03  0.42997425643E+03  0.47000000000E+01 0. -1.
<mgrwt>
<rscale>  0 0.27574981E+03</rscale>
<asrwt>0</asrwt>
<pdfrwt beam="1">  1        2 0.19138220E+00 0.27574981E+03</pdfrwt>
<pdfrwt beam="2">  1       -2 0.23509436E-02 0.27574981E+03</pdfrwt>
<totfact> 0.11472079E+04</totfact>
</mgrwt>
</event>
<event>
 9    1  0.8093459E-001  0.2737948E+03  0.7818608E-02  0.1099127E+00
          3   -1    0    0  501    0  0.00000000000E+00  0.00000000000E+00  0.10875856194E+03  0.10875856194E+03  0.00000000000E+00 0. -1.
         -3   -1    0    0    0  501 -0.00000000000E+00 -0.00000000000E+00 -0.17231648136E+03  0.17231648136E+03  0.00000000000E+00 0. -1.
         35    2    1    2    0    0  0.00000000000E+00  0.00000000000E+00 -0.63557919422E+02  0.28107504330E+03  0.27379476044E+03 0.  0.
         25    2    3    3    0    0  0.19351814881E+02 -0.50816409219E+02 -0.17107889763E+02  0.13730898524E+03  0.12491708191E+03 0.  0.
         25    2    3    3    0    0 -0.19351814881E+02  0.50816409219E+02 -0.46450029659E+02  0.14376605805E+03  0.12471677517E+03 0.  0.
          5    1    4    4  502    0 -0.18078702779E+02 -0.53741173006E+02  0.39469514850E+02  0.69245113710E+02  0.47000000000E+01 0. -1.
         -5    1    4    4    0  502  0.37430517660E+02  0.29247637874E+01 -0.56577404613E+02  0.68063871535E+02  0.47000000000E+01 0. -1.
          5    1    5    5  503    0 -0.19785255045E+02  0.92189254447E+02 -0.32979268501E+02  0.10000018552E+03  0.47000000000E+01 0. -1.
         -5    1    5    5    0  503  0.43344016370E+00 -0.41372845228E+02 -0.13470761158E+02  0.43765872536E+02  0.47000000000E+01 0. -1.
<mgrwt>
<rscale>  0 0.27379476E+03</rscale>
<asrwt>0</asrwt>
<pdfrwt beam="1">  1        3 0.16732086E-01 0.27379476E+03</pdfrwt>
<pdfrwt beam="2">  1       -3 0.26510228E-01 0.27379476E+03</pdfrwt>
<totfact> 0.10537160E+03</totfact>
</mgrwt>
</event>
<event>
 9    1  0.8093459E-001  0.2851760E+03  0.7818608E-02  0.1092895E+00
         -2   -1    0    0    0  501 -0.00000000000E+00  0.00000000000E+00  0.14023089413E+02  0.14023089413E+02  0.00000000000E+00 0. -1.
          2   -1    0    0  501    0  0.00000000000E+00 -0.00000000000E+00 -0.14498475516E+04  0.14498475516E+04  0.00000000000E+00 0. -1.
         35    2    1    2    0    0  0.00000000000E+00  0.71054273576E-14 -0.14358244622E+04  0.14638706410E+04  0.28517602881E+03 0.  0.
         25    2    3    3    0    0 -0.53360351441E+02  0.35633521184E+02 -0.55816987497E+03  0.57549658114E+03  0.12460188859E+03 0.  0.
         25    2    3    3    0    0  0.53360351441E+02 -0.35633521184E+02 -0.87765458725E+03  0.88837405991E+03  0.12171204072E+03 0.  0.
          5    1    4    4  502    0 -0.13463508367E+02  0.25270679961E+02 -0.51429336976E+03  0.51511128264E+03  0.47000000000E+01 0. -1.
         -5    1    4    4    0  502 -0.39896843074E+02  0.10362841223E+02 -0.43876505209E+02  0.60385298499E+02  0.47000000000E+01 0. -1.
          5    1    5    5  503    0  0.52663249066E+02 -0.75112510504E+02 -0.71755102513E+03  0.72340643535E+03  0.47000000000E+01 0. -1.
         -5    1    5    5    0  503  0.69710237514E+00  0.39478989319E+02 -0.16010356212E+03  0.16496762456E+03  0.47000000000E+01 0. -1.
<mgrwt>
<rscale>  0 0.28517603E+03</rscale>
<asrwt>0</asrwt>
<pdfrwt beam="1">  1        2 0.22305341E+00 0.28517603E+03</pdfrwt>
<pdfrwt beam="2">  1       -2 0.21573989E-02 0.28517603E+03</pdfrwt>
<totfact> 0.10045345E+04</totfact>
</mgrwt>
</event>
<event>
 9    1  0.8093459E-001  0.2653450E+03  0.7818608E-02  0.1103974E+00
         -1   -1    0    0    0  501 -0.00000000000E+00  0.00000000000E+00  0.88596543028E+02  0.88596543028E+02  0.00000000000E+00 0.  1.
          1   -1    0    0  501    0  0.00000000000E+00 -0.00000000000E+00 -0.19867582432E+03  0.19867582432E+03  0.00000000000E+00 0.  1.
         35    2    1    2    0    0 -0.35527136788E-14  0.00000000000E+00 -0.11007928130E+03  0.28727236735E+03  0.26534499218E+03 0.  0.
         25    2    3    3    0    0 -0.29614454416E+02  0.41135098016E+02 -0.51546263365E+02  0.13996081740E+03  0.11984532090E+03 0.  0.
         25    2    3    3    0    0  0.29614454416E+02 -0.41135098016E+02 -0.58533017930E+02  0.14731154995E+03  0.12532145212E+03 0.  0.
          5    1    4    4  502    0  0.25262570839E+02 -0.37172406345E+01  0.24643372515E+02  0.35796664262E+02  0.47000000000E+01 0.  1.
         -5    1    4    4    0  502 -0.54877025255E+02  0.44852338651E+02 -0.76189635880E+02  0.10416415314E+03  0.47000000000E+01 0.  1.
          5    1    5    5  503    0 -0.67225783995E+01  0.22618241507E+01  0.36020248263E+02  0.37011581887E+02  0.47000000000E+01 0. -1.
         -5    1    5    5    0  503  0.36337032816E+02 -0.43396922167E+02 -0.94553266194E+02  0.11029996807E+03  0.47000000000E+01 0. -1.
<mgrwt>
<rscale>  0 0.26534499E+03</rscale>
<asrwt>0</asrwt>
<pdfrwt beam="1">  1        1 0.30565511E-01 0.26534499E+03</pdfrwt>
<pdfrwt beam="2">  1       -1 0.13630238E-01 0.26534499E+03</pdfrwt>
<totfact> 0.54883612E+03</totfact>
</mgrwt>
</event>
<event>
 9    1  0.8093459E-001  0.2759531E+03  0.7818608E-02  0.1097920E+00
         -2   -1    0    0    0  501 -0.00000000000E+00  0.00000000000E+00  0.45831742919E+02  0.45831742919E+02  0.00000000000E+00 0. -1.
          2   -1    0    0  501    0  0.00000000000E+00 -0.00000000000E+00 -0.41537870270E+03  0.41537870270E+03  0.00000000000E+00 0. -1.
         35    2    1    2    0    0  0.00000000000E+00 -0.71054273576E-14 -0.36954695978E+03  0.46121044562E+03  0.27595311135E+03 0.  0.
         25    2    3    3    0    0  0.62414098057E+02 -0.11285281115E+02 -0.14853672337E+03  0.20408619768E+03  0.12476033299E+03 0.  0.
         25    2    3    3    0    0 -0.62414098057E+02  0.11285281115E+02 -0.22101023641E+03  0.25712424794E+03  0.11508465177E+03 0.  0.
          5    1    4    4  502    0 -0.12177974374E+02  0.42379692085E+02 -0.71251390214E+02  0.83923727089E+02  0.47000000000E+01 0. -1.
         -5    1    4    4    0  502  0.74592072432E+02 -0.53664973200E+02 -0.77285333159E+02  0.12016247060E+03  0.47000000000E+01 0. -1.
          5    1    5    5  503    0 -0.63466338338E+02 -0.18368197758E+02 -0.21691670008E+03  0.22680456689E+03  0.47000000000E+01 0. -1.
         -5    1    5    5    0  503  0.10522402805E+01  0.29653478872E+02 -0.40935363322E+01  0.30319681043E+02  0.47000000000E+01 0. -1.
<mgrwt>
<rscale>  0 0.27595311E+03</rscale>
<asrwt>0</asrwt>
<pdfrwt beam="1">  1        2 0.63904416E-01 0.27595311E+03</pdfrwt>
<pdfrwt beam="2">  1       -2 0.70510373E-02 0.27595311E+03</pdfrwt>
<totfact> 0.87678146E+03</totfact>
</mgrwt>
</event>
<event>
 9    1  0.8093459E-001  0.2745537E+03  0.7818608E-02  0.1098701E+00
          2   -1    0    0  501    0  0.00000000000E+00  0.00000000000E+00  0.61585387678E+03  0.61585387678E+03  0.00000000000E+00 0. -1.
         -2   -1    0    0    0  501 -0.00000000000E+00 -0.00000000000E+00 -0.30599688874E+02  0.30599688874E+02  0.00000000000E+00 0. -1.
         35    2    1    2    0    0 -0.71054273576E-14 -0.71054273576E-14  0.58525418791E+03  0.64645356566E+03  0.27455372532E+03 0.  0.
         25    2    3    3    0    0  0.28188550654E+02  0.23955055187E+02  0.39320311230E+03  0.41414346360E+03  0.12465023813E+03 0.  0.
         25    2    3    3    0    0 -0.28188550654E+02 -0.23955055187E+02  0.19205107561E+03  0.23231010206E+03  0.12536318765E+03 0.  0.
          5    1    4    4  502    0 -0.11658311302E+02 -0.37942058973E+02  0.24881007966E+03  0.25200012262E+03  0.47000000000E+01 0. -1.
         -5    1    4    4    0  502  0.39846861956E+02  0.61897114159E+02  0.14439303264E+03  0.16214334098E+03  0.47000000000E+01 0. -1.
          5    1    5    5  503    0  0.34885808479E+02  0.17764173984E+02  0.19779959887E+02  0.44112609577E+02  0.47000000000E+01 0.  1.
         -5    1    5    5    0  503 -0.63074359133E+02 -0.41719229171E+02  0.17227111573E+03  0.18819749248E+03  0.47000000000E+01 0.  1.
<mgrwt>
<rscale>  0 0.27455373E+03</rscale>
<asrwt>0</asrwt>
<pdfrwt beam="1">  1        2 0.94746741E-01 0.27455373E+03</pdfrwt>
<pdfrwt beam="2">  1       -2 0.47076449E-02 0.27455373E+03</pdfrwt>
<totfact> 0.10453202E+04</totfact>
</mgrwt>
</event>
<event>
 9    1  0.8093459E-001  0.2700529E+03  0.7818608E-02  0.1101249E+00
          2   -1    0    0  501    0  0.00000000000E+00  0.00000000000E+00  0.16043040236E+04  0.16043040236E+04  0.00000000000E+00 0. -1.
         -2   -1    0    0    0  501 -0.00000000000E+00 -0.00000000000E+00 -0.11364519193E+02  0.11364519193E+02  0.00000000000E+00 0. -1.
         35    2    1    2    0    0  0.00000000000E+00 -0.35527136788E-14  0.15929395044E+04  0.16156685428E+04  0.27005291235E+03 0.  0.
         25    2    3    3    0    0  0.38043309737E+02 -0.23617768577E+02  0.95954378786E+03  0.96851491493E+03  0.12365988520E+03 0.  0.
         25    2    3    3    0    0 -0.38043309737E+02  0.23617768577E+02  0.63339571652E+03  0.64715362784E+03  0.12495035778E+03 0.  0.
          5    1    4    4  502    0  0.74077792273E+02  0.16102100834E+02  0.63654658112E+03  0.64106196026E+03  0.47000000000E+01 0.  1.
         -5    1    4    4    0  502 -0.36034482536E+02 -0.39719869410E+02  0.32299720674E+03  0.32745295467E+03  0.47000000000E+01 0.  1.
          5    1    5    5  503    0  0.38942558702E+01 -0.30826797060E+02  0.45244249874E+03  0.45353253611E+03  0.47000000000E+01 0.  1.
         -5    1    5    5    0  503 -0.41937565607E+02  0.54444565637E+02  0.18095321778E+03  0.19362109173E+03  0.47000000000E+01 0.  1.
<mgrwt>
<rscale>  0 0.27005291E+03</rscale>
<asrwt>0</asrwt>
<pdfrwt beam="1">  1        2 0.24681582E+00 0.27005291E+03</pdfrwt>
<pdfrwt beam="2">  1       -2 0.17483888E-02 0.27005291E+03</pdfrwt>
<totfact> 0.11305276E+04</totfact>
</mgrwt>
</event>
<event>
 9    1  0.8093459E-001  0.2729751E+03  0.7818608E-02  0.1099589E+00
         -2   -1    0    0    0  501 -0.00000000000E+00  0.00000000000E+00  0.91884411352E+02  0.91884411352E+02  0.00000000000E+00 0.  1.
          2   -1    0    0  501    0  0.00000000000E+00 -0.00000000000E+00 -0.20274226449E+03  0.20274226449E+03  0.00000000000E+00 0.  1.
         35    2    1    2    0    0  0.71054273576E-14 -0.35527136788E-14 -0.11085785313E+03  0.29462667584E+03  0.27297511702E+03 0.  0.
         25    2    3    3    0    0 -0.22435213461E+02 -0.10217224399E+02  0.46443257048E+00  0.12720232028E+03  0.12478975964E+03 0.  0.
         25    2    3    3    0    0  0.22435213461E+02  0.10217224399E+02 -0.11132228570E+03  0.16742435556E+03  0.12259907447E+03 0.  0.
          5    1    4    4  502    0  0.16297294254E+02  0.30527067899E+02  0.43834438787E+02  0.56045086299E+02  0.47000000000E+01 0. -1.
         -5    1    4    4    0  502 -0.38732507715E+02 -0.40744292297E+02 -0.43370006217E+02  0.71157233982E+02  0.47000000000E+01 0. -1.
          5    1    5    5  503    0 -0.45563624101E+02  0.23316968158E+02 -0.69320213550E+02  0.86296621324E+02  0.47000000000E+01 0.  1.
         -5    1    5    5    0  503  0.67998837563E+02 -0.13099743759E+02 -0.42002072154E+02  0.81127734232E+02  0.47000000000E+01 0.  1.
<mgrwt>
<rscale>  0 0.27297512E+03</rscale>
<asrwt>0</asrwt>
<pdfrwt beam="1">  1        2 0.31191117E-01 0.27297512E+03</pdfrwt>
<pdfrwt beam="2">  1       -2 0.14136063E-01 0.27297512E+03</pdfrwt>
<totfact> 0.62942294E+03</totfact>
</mgrwt>
</event>
<event>
 9    1  0.8093459E-001  0.2849168E+03  0.7818608E-02  0.1093033E+00
         -2   -1    0    0    0  501 -0.00000000000E+00  0.00000000000E+00  0.37456659258E+03  0.37456659258E+03  0.00000000000E+00 0.  1.
          2   -1    0    0  501    0  0.00000000000E+00 -0.00000000000E+00 -0.54181025661E+02  0.54181025661E+02  0.00000000000E+00 0.  1.
         35    2    1    2    0    0  0.71054273576E-14 -0.35527136788E-14  0.32038556692E+03  0.42874761824E+03  0.28491684516E+03 0.  0.
         25    2    3    3    0    0  0.24632453282E+02 -0.23239289452E+02  0.24904097611E+03  0.28036655410E+03  0.12424642669E+03 0.  0.
         25    2    3    3    0    0 -0.24632453282E+02  0.23239289452E+02  0.71344590813E+02  0.14838106415E+03  0.12561873758E+03 0.  0.
          5    1    4    4  502    0  0.68090404820E+02  0.44345580705E+01  0.18962729412E+03  0.20158514134E+03  0.47000000000E+01 0.  1.
         -5    1    4    4    0  502 -0.43457951538E+02 -0.27673847523E+02  0.59413681993E+02  0.78781412761E+02  0.47000000000E+01 0.  1.
          5    1    5    5  503    0 -0.48969446845E+02 -0.34165754547E+02  0.60101844892E+02  0.84850617367E+02  0.47000000000E+01 0. -1.
         -5    1    5    5    0  503  0.24336993564E+02  0.57405043999E+02  0.11242745921E+02  0.63530446780E+02  0.47000000000E+01 0. -1.
<mgrwt>
<rscale>  0 0.28491685E+03</rscale>
<asrwt>0</asrwt>
<pdfrwt beam="1">  1        2 0.83355426E-02 0.28491685E+03</pdfrwt>
<pdfrwt beam="2">  1       -2 0.57625628E-01 0.28491685E+03</pdfrwt>
<totfact> 0.23170832E+03</totfact>
</mgrwt>
</event>
<event>
 9    1  0.8093459E-001  0.2775053E+03  0.7818608E-02  0.1097059E+00
          2   -1    0    0  501    0  0.00000000000E+00  0.00000000000E+00  0.89857926807E+03  0.89857926807E+03  0.00000000000E+00 0.  1.
         -2   -1    0    0    0  501 -0.00000000000E+00 -0.00000000000E+00 -0.21425260688E+02  0.21425260688E+02  0.00000000000E+00 0.  1.
         35    2    1    2    0    0  0.71054273576E-14 -0.71054273576E-14  0.87715400738E+03  0.92000452876E+03  0.27750527971E+03 0.  0.
         25    2    3    3    0    0  0.11409841688E+02  0.25925539895E+02  0.25422848402E+03  0.28389396642E+03  0.12313140938E+03 0.  0.
         25    2    3    3    0    0 -0.11409841688E+02 -0.25925539895E+02  0.62292552336E+03  0.63611056233E+03  0.12569057942E+03 0.  0.
          5    1    4    4  502    0  0.66409068954E+02  0.93075574616E+01  0.15822033621E+03  0.17190857994E+03  0.47000000000E+01 0. -1.
         -5    1    4    4    0  502 -0.54999227267E+02  0.16617982434E+02  0.96008147810E+02  0.11198538648E+03  0.47000000000E+01 0. -1.
          5    1    5    5  503    0  0.42779112135E+02 -0.23446427406E+02  0.11150852527E+03  0.12180323723E+03  0.47000000000E+01 0. -1.
         -5    1    5    5    0  503 -0.54188953823E+02 -0.24791124896E+01  0.51141699809E+03  0.51430732510E+03  0.47000000000E+01 0. -1.
<mgrwt>
<rscale>  0 0.27750528E+03</rscale>
<asrwt>0</asrwt>
<pdfrwt beam="1">  1        2 0.13824294E+00 0.27750528E+03</pdfrwt>
<pdfrwt beam="2">  1       -2 0.32961946E-02 0.27750528E+03</pdfrwt>
<totfact> 0.11170984E+04</totfact>
</mgrwt>
</event>
<event>
 9    1  0.8093459E-001  0.2782318E+03  0.7818608E-02  0.1096659E+00
         -1   -1    0    0    0  501 -0.00000000000E+00  0.00000000000E+00  0.82998590050E+01  0.82998590050E+01  0.00000000000E+00 0.  1.
          1   -1    0    0  501    0  0.00000000000E+00 -0.00000000000E+00 -0.23317551985E+04  0.23317551985E+04  0.00000000000E+00 0.  1.
         35    2    1    2    0    0  0.35527136788E-14  0.17763568394E-14 -0.23234553395E+04  0.23400550575E+04  0.27823184132E+03 0.  0.
         25    2    3    3    0    0  0.10454995086E+02  0.12821007842E+01 -0.63110931087E+03  0.64304625061E+03  0.12287622817E+03 0.  0.
         25    2    3    3    0    0 -0.10454995086E+02 -0.12821007842E+01 -0.16923460286E+04  0.16970088069E+04  0.12527114344E+03 0.  0.
          5    1    4    4  502    0  0.17321256799E+02 -0.59287259397E+02 -0.29738347418E+03  0.30376640002E+03  0.47000000000E+01 0.  1.
         -5    1    4    4    0  502 -0.68662617128E+01  0.60569360182E+02 -0.33372583669E+03  0.33927985059E+03  0.47000000000E+01 0.  1.
          5    1    5    5  503    0  0.27990483464E+02  0.13778524842E+02 -0.11891827985E+03  0.12303236238E+03  0.47000000000E+01 0. -1.
         -5    1    5    5    0  503 -0.38445478550E+02 -0.15060625626E+02 -0.15734277488E+04  0.15739764445E+04  0.47000000000E+01 0. -1.
<mgrwt>
<rscale>  0 0.27823184E+03</rscale>
<asrwt>0</asrwt>
<pdfrwt beam="1">  1        1 0.35873211E+00 0.27823184E+03</pdfrwt>
<pdfrwt beam="2">  1       -1 0.12768995E-02 0.27823184E+03</pdfrwt>
<totfact> 0.27028250E+03</totfact>
</mgrwt>
</event>
<event>
 9    1  0.8093459E-001  0.2740240E+03  0.7818608E-02  0.1098998E+00
         -1   -1    0    0    0  501 -0.00000000000E+00  0.00000000000E+00  0.73606431781E+02  0.73606431781E+02  0.00000000000E+00 0. -1.
          1   -1    0    0  501    0  0.00000000000E+00 -0.00000000000E+00 -0.25503588377E+03  0.25503588377E+03  0.00000000000E+00 0. -1.
         35    2    1    2    0    0  0.00000000000E+00  0.00000000000E+00 -0.18142945199E+03  0.32864231555E+03  0.27402395063E+03 0.  0.
         25    2    3    3    0    0 -0.43174750600E+02 -0.20241881592E+02 -0.55611858955E+02  0.14477895311E+03  0.12487783449E+03 0.  0.
         25    2    3    3    0    0  0.43174750600E+02  0.20241881592E+02 -0.12581759303E+03  0.18386336244E+03  0.12530712858E+03 0.  0.
          5    1    4    4  502    0 -0.20946387856E+02 -0.60168009647E+02  0.10023724539E+02  0.64664562187E+02  0.47000000000E+01 0. -1.
         -5    1    4    4    0  502 -0.22228362744E+02  0.39926128055E+02 -0.65635583494E+02  0.80114390919E+02  0.47000000000E+01 0. -1.
          5    1    5    5  503    0  0.15930048168E+02  0.40791541360E+02 -0.13988435034E+03  0.14665414331E+03  0.47000000000E+01 0. -1.
         -5    1    5    5    0  503  0.27244702432E+02 -0.20549659768E+02  0.14066757306E+02  0.37209219130E+02  0.47000000000E+01 0. -1.
<mgrwt>
<rscale>  0 0.27402395E+03</rscale>
<asrwt>0</asrwt>
<pdfrwt beam="1">  1        1 0.39236290E-01 0.27402395E+03</pdfrwt>
<pdfrwt beam="2">  1       -1 0.11324066E-01 0.27402395E+03</pdfrwt>
<totfact> 0.53655136E+03</totfact>
</mgrwt>
</event>
<event>
 9    1  0.8093459E-001  0.2767691E+03  0.7818608E-02  0.1097467E+00
         -2   -1    0    0    0  501 -0.00000000000E+00  0.00000000000E+00  0.45059305253E+02  0.45059305253E+02  0.00000000000E+00 0.  1.
          2   -1    0    0  501    0  0.00000000000E+00 -0.00000000000E+00 -0.42500182065E+03  0.42500182065E+03  0.00000000000E+00 0.  1.
         35    2    1    2    0    0  0.00000000000E+00  0.35527136788E-14 -0.37994251539E+03  0.47006112590E+03  0.27676912234E+03 0.  0.
         25    2    3    3    0    0 -0.65151260742E+02 -0.20859993384E+02 -0.17768746879E+03  0.22233080312E+03  0.11479687865E+03 0.  0.
         25    2    3    3    0    0  0.65151260742E+02  0.20859993384E+02 -0.20225504660E+03  0.24773032278E+03  0.12563193404E+03 0.  0.
          5    1    4    4  502    0 -0.33845708442E+01 -0.51919857932E+02 -0.12437081528E+03  0.13489743015E+03  0.47000000000E+01 0.  1.
         -5    1    4    4    0  502 -0.61766689898E+02  0.31059864549E+02 -0.53316653516E+02  0.87433372969E+02  0.47000000000E+01 0.  1.
          5    1    5    5  503    0 -0.11445496896E+02 -0.24184649696E+02 -0.44100350335E+00  0.27169489583E+02  0.47000000000E+01 0. -1.
         -5    1    5    5    0  503  0.76596757638E+02  0.45044643080E+02 -0.20181404310E+03  0.22056083320E+03  0.47000000000E+01 0. -1.
<mgrwt>
<rscale>  0 0.27676912E+03</rscale>
<asrwt>0</asrwt>
<pdfrwt beam="1">  1        2 0.65384894E-01 0.27676912E+03</pdfrwt>
<pdfrwt beam="2">  1       -2 0.69322010E-02 0.27676912E+03</pdfrwt>
<totfact> 0.87802534E+03</totfact>
</mgrwt>
</event>
<event>
 9    1  0.8093459E-001  0.2749300E+03  0.7818608E-02  0.1098491E+00
         -2   -1    0    0    0  501 -0.00000000000E+00  0.00000000000E+00  0.23251846855E+02  0.23251846855E+02  0.00000000000E+00 0. -1.
          2   -1    0    0  501    0  0.00000000000E+00 -0.00000000000E+00 -0.81269331175E+03  0.81269331175E+03  0.00000000000E+00 0. -1.
         35    2    1    2    0    0  0.71054273576E-14  0.00000000000E+00 -0.78944146490E+03  0.83594515861E+03  0.27492995780E+03 0.  0.
         25    2    3    3    0    0 -0.32317711832E+02  0.51319967544E+00 -0.54301077027E+03  0.55776595357E+03  0.12327799667E+03 0.  0.
         25    2    3    3    0    0  0.32317711832E+02 -0.51319967544E+00 -0.24643069463E+03  0.27817920503E+03  0.12494352719E+03 0.  0.
          5    1    4    4  502    0 -0.41737211899E+02  0.35726940928E+02 -0.10853911628E+03  0.12174251076E+03  0.47000000000E+01 0. -1.
         -5    1    4    4    0  502  0.94195000664E+01 -0.35213741253E+02 -0.43447165399E+03  0.43602344281E+03  0.47000000000E+01 0. -1.
          5    1    5    5  503    0  0.16240109192E+01  0.57855123727E+02 -0.78033559123E+02  0.97268592579E+02  0.47000000000E+01 0. -1.
         -5    1    5    5    0  503  0.30693700913E+02 -0.58368323403E+02 -0.16839713551E+03  0.18091061246E+03  0.47000000000E+01 0. -1.
<mgrwt>
<rscale>  0 0.27492996E+03</rscale>
<asrwt>0</asrwt>
<pdfrwt beam="1">  1        2 0.12502972E+00 0.27492996E+03</pdfrwt>
<pdfrwt beam="2">  1       -2 0.35772078E-02 0.27492996E+03</pdfrwt>
<totfact> 0.11269806E+04</totfact>
</mgrwt>
</event>
<event>
 9    1  0.8093459E-001  0.2778362E+03  0.7818608E-02  0.1096877E+00
          1   -1    0    0  501    0  0.00000000000E+00  0.00000000000E+00  0.19648273749E+03  0.19648273749E+03  0.00000000000E+00 0. -1.
         -1   -1    0    0    0  501 -0.00000000000E+00 -0.00000000000E+00 -0.98218487796E+02  0.98218487796E+02  0.00000000000E+00 0. -1.
         35    2    1    2    0    0  0.00000000000E+00  0.00000000000E+00  0.98264249694E+02  0.29470122529E+03  0.27783619170E+03 0.  0.
         25    2    3    3    0    0 -0.41574267439E+02  0.44279476939E+02  0.59651366711E+02  0.15041266396E+03  0.12400238763E+03 0.  0.
         25    2    3    3    0    0  0.41574267439E+02 -0.44279476939E+02  0.38612882983E+02  0.14428856133E+03  0.12505655683E+03 0.  0.
          5    1    4    4  502    0 -0.79124405210E+02  0.14835865963E+02  0.63022687308E+02  0.10234609682E+03  0.47000000000E+01 0. -1.
         -5    1    4    4    0  502  0.37550137770E+02  0.29443610976E+02 -0.33713205978E+01  0.48066567138E+02  0.47000000000E+01 0. -1.
          5    1    5    5  503    0  0.47139074504E+02 -0.12906675313E+02  0.78764933606E+02  0.92815297116E+02  0.47000000000E+01 0. -1.
         -5    1    5    5    0  503 -0.55648070643E+01 -0.31372801626E+02 -0.40152050623E+02  0.51473264213E+02  0.47000000000E+01 0. -1.
<mgrwt>
<rscale>  0 0.27783619E+03</rscale>
<asrwt>0</asrwt>
<pdfrwt beam="1">  1        1 0.30228113E-01 0.27783619E+03</pdfrwt>
<pdfrwt beam="2">  1       -1 0.15110537E-01 0.27783619E+03</pdfrwt>
<totfact> 0.47356803E+03</totfact>
</mgrwt>
</event>
<event>
 9    1  0.8093459E-001  0.2749205E+03  0.7818608E-02  0.1098496E+00
         -1   -1    0    0    0  501 -0.00000000000E+00  0.00000000000E+00  0.21603034515E+02  0.21603034515E+02  0.00000000000E+00 0. -1.
          1   -1    0    0  501    0  0.00000000000E+00 -0.00000000000E+00 -0.87466077378E+03  0.87466077378E+03  0.00000000000E+00 0. -1.
         35    2    1    2    0    0  0.00000000000E+00 -0.14210854715E-13 -0.85305773926E+03  0.89626380829E+03  0.27492054769E+03 0.  0.
         25    2    3    3    0    0  0.48234211955E+01 -0.57098734876E+02 -0.43942707931E+03  0.46061357515E+03  0.12563907299E+03 0.  0.
         25    2    3    3    0    0 -0.48234211955E+01  0.57098734876E+02 -0.41363065995E+03  0.43565023315E+03  0.12416630731E+03 0.  0.
          5    1    4    4  502    0 -0.31507773902E+01 -0.88885439304E+02 -0.39662258558E+03  0.40649983285E+03  0.47000000000E+01 0.  1.
         -5    1    4    4    0  502  0.79741985857E+01  0.31786704428E+02 -0.42804493728E+02  0.54113742291E+02  0.47000000000E+01 0.  1.
          5    1    5    5  503    0 -0.28914985292E+02  0.36652350909E+02 -0.39675685103E+03  0.39952166404E+03  0.47000000000E+01 0. -1.
         -5    1    5    5    0  503  0.24091564096E+02  0.20446383967E+02 -0.16873808928E+02  0.36128569106E+02  0.47000000000E+01 0. -1.
<mgrwt>
<rscale>  0 0.27492055E+03</rscale>
<asrwt>0</asrwt>
<pdfrwt beam="1">  1        1 0.13456318E+00 0.27492055E+03</pdfrwt>
<pdfrwt beam="2">  1       -1 0.33235441E-02 0.27492055E+03</pdfrwt>
<totfact> 0.64740312E+03</totfact>
</mgrwt>
</event>
<event>
 9    1  0.8093459E-001  0.2733879E+03  0.7818608E-02  0.1099356E+00
          2   -1    0    0  501    0  0.00000000000E+00  0.00000000000E+00  0.27198785715E+04  0.27198785715E+04  0.00000000000E+00 0. -1.
         -2   -1    0    0    0  501 -0.00000000000E+00 -0.00000000000E+00 -0.68698804927E+01  0.68698804927E+01  0.00000000000E+00 0. -1.
         35    2    1    2    0    0  0.00000000000E+00  0.00000000000E+00  0.27130086910E+04  0.27267484520E+04  0.27338793493E+03 0.  0.
         25    2    3    3    0    0  0.21222921591E+01  0.35381079184E+02  0.16509619734E+04  0.16563484292E+04  0.12867927769E+03 0.  0.
         25    2    3    3    0    0 -0.21222921591E+01 -0.35381079184E+02  0.10620467177E+04  0.10704000228E+04  0.12867266013E+03 0.  0.
          5    1    4    4  502    0  0.20938510430E+02  0.72328957256E+02  0.13922583777E+04  0.13943010362E+04  0.47000000000E+01 0.  1.
         -5    1    4    4    0  502 -0.18816218271E+02 -0.36947878073E+02  0.25870359570E+03  0.26204739303E+03  0.47000000000E+01 0.  1.
          5    1    5    5  503    0  0.14638958869E+02 -0.38455425031E+02  0.10450724335E+04  0.10458927288E+04  0.47000000000E+01 0.  1.
         -5    1    5    5    0  503 -0.16761251028E+02  0.30743458472E+01  0.16974284134E+02  0.24507294022E+02  0.47000000000E+01 0.  1.
<mgrwt>
<rscale>  0 0.27338793E+03</rscale>
<asrwt>0</asrwt>
<pdfrwt beam="1">  1        2 0.41844200E+00 0.27338793E+03</pdfrwt>
<pdfrwt beam="2">  1       -2 0.10569069E-02 0.27338793E+03</pdfrwt>
<totfact> 0.59529325E+03</totfact>
</mgrwt>
</event>
<event>
 9    1  0.8093459E-001  0.2734569E+03  0.7818608E-02  0.1099317E+00
         -2   -1    0    0    0  501 -0.00000000000E+00  0.00000000000E+00  0.30954631890E+02  0.30954631890E+02  0.00000000000E+00 0.  1.
          2   -1    0    0  501    0  0.00000000000E+00 -0.00000000000E+00 -0.60393747770E+03  0.60393747770E+03  0.00000000000E+00 0.  1.
         35    2    1    2    0    0  0.00000000000E+00  0.17763568394E-14 -0.57298284581E+03  0.63489210959E+03  0.27345685076E+03 0.  0.
         25    2    3    3    0    0  0.13278078491E+02  0.44804495717E+01 -0.16174430325E+03  0.20484622813E+03  0.12491747576E+03 0.  0.
         25    2    3    3    0    0 -0.13278078491E+02 -0.44804495717E+01 -0.41123854255E+03  0.43004588145E+03  0.12500375785E+03 0.  0.
          5    1    4    4  502    0  0.65946753495E+02  0.12775900525E+02 -0.11739174497E+03  0.13533332818E+03  0.47000000000E+01 0. -1.
         -5    1    4    4    0  502 -0.52668675003E+02 -0.82954509530E+01 -0.44352558287E+02  0.69512899952E+02  0.47000000000E+01 0. -1.
          5    1    5    5  503    0 -0.20047237439E+02  0.12979952922E+02 -0.69731144256E+01  0.25319660969E+02  0.47000000000E+01 0. -1.
         -5    1    5    5    0  503  0.67691589479E+01 -0.17460402494E+02 -0.40426542813E+03  0.40472622048E+03  0.47000000000E+01 0. -1.
<mgrwt>
<rscale>  0 0.27345685E+03</rscale>
<asrwt>0</asrwt>
<pdfrwt beam="1">  1        2 0.92913445E-01 0.27345685E+03</pdfrwt>
<pdfrwt beam="2">  1       -2 0.47622517E-02 0.27345685E+03</pdfrwt>
<totfact> 0.10507233E+04</totfact>
</mgrwt>
</event>
<event>
 9    1  0.8093459E-001  0.2779286E+03  0.7818608E-02  0.1096826E+00
         -1   -1    0    0    0  501 -0.00000000000E+00  0.00000000000E+00  0.13820396975E+03  0.13820396975E+03  0.00000000000E+00 0. -1.
          1   -1    0    0  501    0  0.00000000000E+00 -0.00000000000E+00 -0.13972876492E+03  0.13972876492E+03  0.00000000000E+00 0. -1.
         35    2    1    2    0    0  0.00000000000E+00  0.71054273576E-14 -0.15247951707E+01  0.27793273468E+03  0.27792855198E+03 0.  0.
         25    2    3    3    0    0  0.50528305260E+01  0.41124346477E+02 -0.40907871336E+02  0.14082975508E+03  0.12822957150E+03 0.  0.
         25    2    3    3    0    0 -0.50528305260E+01 -0.41124346477E+02  0.39383076166E+02  0.13710297960E+03  0.12461724342E+03 0.  0.
          5    1    4    4  502    0  0.11677037572E+02 -0.36868458348E+02 -0.48316248147E+02  0.62065983134E+02  0.47000000000E+01 0. -1.
         -5    1    4    4    0  502 -0.66242070457E+01  0.77992804825E+02  0.74083768111E+01  0.78763771941E+02  0.47000000000E+01 0. -1.
          5    1    5    5  503    0 -0.21680961938E+02  0.26542668350E+02  0.55528699548E+02  0.65422502453E+02  0.47000000000E+01 0.  1.
         -5    1    5    5    0  503  0.16628131412E+02 -0.67667014828E+02 -0.16145623382E+02  0.71680477149E+02  0.47000000000E+01 0.  1.
<mgrwt>
<rscale>  0 0.27792855E+03</rscale>
<asrwt>0</asrwt>
<pdfrwt beam="1">  1        1 0.21496733E-01 0.27792855E+03</pdfrwt>
<pdfrwt beam="2">  1       -1 0.21262149E-01 0.27792855E+03</pdfrwt>
<totfact> 0.42150258E+03</totfact>
</mgrwt>
</event>
<event>
 9    1  0.8093459E-001  0.2686158E+03  0.7818608E-02  0.1102074E+00
         -2   -1    0    0    0  501 -0.00000000000E+00  0.00000000000E+00  0.95926436308E+01  0.95926436308E+01  0.00000000000E+00 0. -1.
          2   -1    0    0  501    0  0.00000000000E+00 -0.00000000000E+00 -0.18804628100E+04  0.18804628100E+04  0.00000000000E+00 0. -1.
         35    2    1    2    0    0 -0.71054273576E-14  0.35527136788E-14 -0.18708701664E+04  0.18900554536E+04  0.26861578209E+03 0.  0.
         25    2    3    3    0    0  0.45203752079E+02 -0.14559551094E+02 -0.86968380858E+03  0.88001160443E+03  0.12575824939E+03 0.  0.
         25    2    3    3    0    0 -0.45203752079E+02  0.14559551094E+02 -0.10011863578E+04  0.10100438492E+04  0.12473609967E+03 0.  0.
          5    1    4    4  502    0  0.85565661855E+02  0.67920609809E+01 -0.48037659267E+03  0.48800755667E+03  0.47000000000E+01 0. -1.
         -5    1    4    4    0  502 -0.40361909775E+02 -0.21351612075E+02 -0.38930721591E+03  0.39200404775E+03  0.47000000000E+01 0. -1.
          5    1    5    5  503    0 -0.27976653847E+02  0.49267521610E+02 -0.89677586079E+03  0.89857610493E+03  0.47000000000E+01 0.  1.
         -5    1    5    5    0  503 -0.17227098232E+02 -0.34707970515E+02 -0.10441049698E+03  0.11146774426E+03  0.47000000000E+01 0.  1.
<mgrwt>
<rscale>  0 0.26861578E+03</rscale>
<asrwt>0</asrwt>
<pdfrwt beam="1">  1        2 0.28930210E+00 0.26861578E+03</pdfrwt>
<pdfrwt beam="2">  1       -2 0.14757906E-02 0.26861578E+03</pdfrwt>
<totfact> 0.10369879E+04</totfact>
</mgrwt>
</event>
<event>
 9    1  0.8093459E-001  0.2813884E+03  0.7818608E-02  0.1094933E+00
         -2   -1    0    0    0  501 -0.00000000000E+00  0.00000000000E+00  0.73863951608E+01  0.73863951608E+01  0.00000000000E+00 0. -1.
          2   -1    0    0  501    0  0.00000000000E+00 -0.00000000000E+00 -0.26799074304E+04  0.26799074304E+04  0.00000000000E+00 0. -1.
         35    2    1    2    0    0  0.00000000000E+00 -0.35527136788E-14 -0.26725210352E+04  0.26872938256E+04  0.28138838125E+03 0.  0.
         25    2    3    3    0    0  0.28958264214E+02  0.14236696731E+02 -0.18467776341E+04  0.18512137956E+04  0.12395008071E+03 0.  0.
         25    2    3    3    0    0 -0.28958264214E+02 -0.14236696731E+02 -0.82574340113E+03  0.83608002998E+03  0.12702908100E+03 0.  0.
          5    1    4    4  502    0 -0.22288209882E+02  0.52246398633E+02 -0.57222833682E+03  0.57505983161E+03  0.47000000000E+01 0. -1.
         -5    1    4    4    0  502  0.51246474096E+02 -0.38009701902E+02 -0.12745492973E+04  0.12761539640E+04  0.47000000000E+01 0. -1.
          5    1    5    5  503    0 -0.73513968376E+02 -0.32274544352E+02 -0.58853782175E+03  0.59400741358E+03  0.47000000000E+01 0. -1.
         -5    1    5    5    0  503  0.44555704162E+02  0.18037847621E+02 -0.23720557938E+03  0.24207261640E+03  0.47000000000E+01 0. -1.
<mgrwt>
<rscale>  0 0.28138838E+03</rscale>
<asrwt>0</asrwt>
<pdfrwt beam="1">  1        2 0.41229305E+00 0.28138838E+03</pdfrwt>
<pdfrwt beam="2">  1       -2 0.11363696E-02 0.28138838E+03</pdfrwt>
<totfact> 0.56400733E+03</totfact>
</mgrwt>
</event>
<event>
 9    1  0.8093459E-001  0.2764221E+03  0.7818608E-02  0.1097659E+00
          1   -1    0    0  501    0  0.00000000000E+00  0.00000000000E+00  0.79524866555E+03  0.79524866555E+03  0.00000000000E+00 0.  1.
         -1   -1    0    0    0  501 -0.00000000000E+00 -0.00000000000E+00 -0.24020528073E+02  0.24020528073E+02  0.00000000000E+00 0.  1.
         35    2    1    2    0    0  0.35527136788E-14  0.00000000000E+00  0.77122813747E+03  0.81926919362E+03  0.27642208954E+03 0.  0.
         25    2    3    3    0    0  0.16823304749E+02 -0.37639498693E+02  0.50970929993E+03  0.52670029345E+03  0.12613434601E+03 0.  0.
         25    2    3    3    0    0 -0.16823304749E+02  0.37639498693E+02  0.26151883755E+03  0.29256890017E+03  0.12451788430E+03 0.  0.
          5    1    4    4  502    0 -0.16924690425E+02 -0.11074807390E+02  0.46148702352E+03  0.46195395808E+03  0.47000000000E+01 0.  1.
         -5    1    4    4    0  502  0.33747995173E+02 -0.26564691303E+02  0.48222276404E+02  0.64746335370E+02  0.47000000000E+01 0.  1.
          5    1    5    5  503    0 -0.32324847402E+02 -0.13128321803E+02  0.22553980425E+03  0.22827076443E+03  0.47000000000E+01 0.  1.
         -5    1    5    5    0  503  0.15501542654E+02  0.50767820496E+02  0.35979033296E+02  0.64298135739E+02  0.47000000000E+01 0.  1.
<mgrwt>
<rscale>  0 0.27642209E+03</rscale>
<asrwt>0</asrwt>
<pdfrwt beam="1">  1        1 0.12234593E+00 0.27642209E+03</pdfrwt>
<pdfrwt beam="2">  1       -1 0.36954665E-02 0.27642209E+03</pdfrwt>
<totfact> 0.64247707E+03</totfact>
</mgrwt>
</event>
<event>
 9    1  0.8093459E-001  0.2762031E+03  0.7818608E-02  0.1097781E+00
          1   -1    0    0  501    0  0.00000000000E+00  0.00000000000E+00  0.23473506561E+03  0.23473506561E+03  0.00000000000E+00 0.  1.
         -1   -1    0    0    0  501 -0.00000000000E+00 -0.00000000000E+00 -0.81249201463E+02  0.81249201463E+02  0.00000000000E+00 0.  1.
         35    2    1    2    0    0  0.00000000000E+00  0.00000000000E+00  0.15348586415E+03  0.31598426707E+03  0.27620308931E+03 0.  0.
         25    2    3    3    0    0 -0.60247885888E+02 -0.24722653272E+01  0.90533486208E+02  0.16298942019E+03  0.12138088449E+03 0.  0.
         25    2    3    3    0    0  0.60247885888E+02  0.24722653272E+01  0.62952377938E+02  0.15299484688E+03  0.12573186324E+03 0.  0.
          5    1    4    4  502    0  0.15759320762E+02 -0.33720744120E+02  0.67973112449E+02  0.77639415189E+02  0.47000000000E+01 0.  1.
         -5    1    4    4    0  502 -0.76007206650E+02  0.31248478792E+02  0.22560373759E+02  0.85350005001E+02  0.47000000000E+01 0.  1.
          5    1    5    5  503    0 -0.16014398644E+02  0.17210470355E+02 -0.25625225590E+02  0.35091358485E+02  0.47000000000E+01 0. -1.
         -5    1    5    5    0  503  0.76262284532E+02 -0.14738205028E+02  0.88577603528E+02  0.11790348840E+03  0.47000000000E+01 0. -1.
<mgrwt>
<rscale>  0 0.27620309E+03</rscale>
<asrwt>0</asrwt>
<pdfrwt beam="1">  1        1 0.36113087E-01 0.27620309E+03</pdfrwt>
<pdfrwt beam="2">  1       -1 0.12499877E-01 0.27620309E+03</pdfrwt>
<totfact> 0.51047319E+03</totfact>
</mgrwt>
</event>
<event>
 9    1  0.8093459E-001  0.2757831E+03  0.7818608E-02  0.1098015E+00
          1   -1    0    0  501    0  0.00000000000E+00  0.00000000000E+00  0.21222854367E+04  0.21222854367E+04  0.00000000000E+00 0.  1.
         -1   -1    0    0    0  501 -0.00000000000E+00 -0.00000000000E+00 -0.89592452424E+01  0.89592452424E+01  0.00000000000E+00 0.  1.
         35    2    1    2    0    0  0.00000000000E+00  0.00000000000E+00  0.21133261914E+04  0.21312446819E+04  0.27578307201E+03 0.  0.
         25    2    3    3    0    0 -0.34871862178E+02 -0.13411185704E+02  0.14024049551E+04  0.14084188845E+04  0.12453188113E+03 0.  0.
         25    2    3    3    0    0  0.34871862178E+02  0.13411185704E+02  0.71092123628E+03  0.72282579737E+03  0.12518874744E+03 0.  0.
          5    1    4    4  502    0 -0.50455363619E+02 -0.42192580093E+02  0.12778380847E+04  0.12795382833E+04  0.47000000000E+01 0.  1.
         -5    1    4    4    0  502  0.15583501441E+02  0.28781394390E+02  0.12456687041E+03  0.12888060127E+03  0.47000000000E+01 0.  1.
          5    1    5    5  503    0 -0.31323710847E+01 -0.50213314237E+02  0.18858300945E+03  0.19523531988E+03  0.47000000000E+01 0. -1.
         -5    1    5    5    0  503  0.38004233263E+02  0.63624499940E+02  0.52233822683E+03  0.52759047750E+03  0.47000000000E+01 0. -1.
<mgrwt>
<rscale>  0 0.27578307E+03</rscale>
<asrwt>0</asrwt>
<pdfrwt beam="1">  1        1 0.32650505E+00 0.27578307E+03</pdfrwt>
<pdfrwt beam="2">  1       -1 0.13783471E-02 0.27578307E+03</pdfrwt>
<totfact> 0.33162213E+03</totfact>
</mgrwt>
</event>
<event>
 9    1  0.8093459E-001  0.2738614E+03  0.7818608E-02  0.1099090E+00
          2   -1    0    0  501    0  0.00000000000E+00  0.00000000000E+00  0.11748428811E+03  0.11748428811E+03  0.00000000000E+00 0. -1.
         -2   -1    0    0    0  501 -0.00000000000E+00 -0.00000000000E+00 -0.15959596880E+03  0.15959596880E+03  0.00000000000E+00 0. -1.
         35    2    1    2    0    0 -0.71054273576E-14  0.00000000000E+00 -0.42111680690E+02  0.27708025691E+03  0.27386141590E+03 0.  0.
         25    2    3    3    0    0  0.37932807293E+02 -0.37471960824E+02 -0.15156100342E+01  0.13556689791E+03  0.12463162127E+03 0.  0.
         25    2    3    3    0    0 -0.37932807293E+02  0.37471960824E+02 -0.40596070656E+02  0.14151335900E+03  0.12463925588E+03 0.  0.
          5    1    4    4  502    0  0.59755897680E+00  0.44551829222E+02  0.50391198263E+01  0.45085533072E+02  0.47000000000E+01 0. -1.
         -5    1    4    4    0  502  0.37335248316E+02 -0.82023790046E+02 -0.65547298605E+01  0.90481364843E+02  0.47000000000E+01 0. -1.
          5    1    5    5  503    0 -0.61778664628E+02  0.60536837923E+01  0.23139031194E+02  0.66413517112E+02  0.47000000000E+01 0. -1.
         -5    1    5    5    0  503  0.23845857334E+02  0.31418277032E+02 -0.63735101850E+02  0.75099841887E+02  0.47000000000E+01 0. -1.
<mgrwt>
<rscale>  0 0.27386142E+03</rscale>
<asrwt>0</asrwt>
<pdfrwt beam="1">  1        2 0.18074506E-01 0.27386142E+03</pdfrwt>
<pdfrwt beam="2">  1       -2 0.24553226E-01 0.27386142E+03</pdfrwt>
<totfact> 0.45561221E+03</totfact>
</mgrwt>
</event>
<event>
 9    1  0.8093459E-001  0.2768717E+03  0.7818608E-02  0.1097410E+00
          2   -1    0    0  501    0  0.00000000000E+00  0.00000000000E+00  0.66911669689E+03  0.66911669689E+03  0.00000000000E+00 0.  1.
         -2   -1    0    0    0  501 -0.00000000000E+00 -0.00000000000E+00 -0.28641478132E+02  0.28641478132E+02  0.00000000000E+00 0.  1.
         35    2    1    2    0    0 -0.35527136788E-14 -0.35527136788E-14  0.64047521876E+03  0.69775817502E+03  0.27687174823E+03 0.  0.
         25    2    3    3    0    0  0.27060861588E+02 -0.12375623046E+02  0.19071259081E+03  0.23013552969E+03  0.12532207889E+03 0.  0.
         25    2    3    3    0    0 -0.27060861588E+02  0.12375623046E+02  0.44976262794E+03  0.46762264533E+03  0.12449526357E+03 0.  0.
          5    1    4    4  502    0  0.35753729809E+02  0.51782116738E+02  0.10674935785E+03  0.12400496849E+03  0.47000000000E+01 0.  1.
         -5    1    4    4    0  502 -0.86928682217E+01 -0.64157739784E+02  0.83963232964E+02  0.10613056121E+03  0.47000000000E+01 0.  1.
          5    1    5    5  503    0  0.44676295263E+01  0.18833304772E+02  0.35573677664E+01  0.20233584647E+02  0.47000000000E+01 0.  1.
         -5    1    5    5    0  503 -0.31528491114E+02 -0.64576817261E+01  0.44620526018E+03  0.44738906068E+03  0.47000000000E+01 0.  1.
<mgrwt>
<rscale>  0 0.27687175E+03</rscale>
<asrwt>0</asrwt>
<pdfrwt beam="1">  1        2 0.10294102E+00 0.27687175E+03</pdfrwt>
<pdfrwt beam="2">  1       -2 0.44063817E-02 0.27687175E+03</pdfrwt>
<totfact> 0.10476955E+04</totfact>
</mgrwt>
</event>
<event>
 9    1  0.8093459E-001  0.2739268E+03  0.7818608E-02  0.1099053E+00
          2   -1    0    0  501    0  0.00000000000E+00  0.00000000000E+00  0.80638367307E+03  0.80638367307E+03  0.00000000000E+00 0. -1.
         -2   -1    0    0    0  501 -0.00000000000E+00 -0.00000000000E+00 -0.23263092546E+02  0.23263092546E+02  0.00000000000E+00 0. -1.
         35    2    1    2    0    0 -0.35527136788E-14  0.14210854715E-13  0.78312058052E+03  0.82964676562E+03  0.27392683705E+03 0.  0.
         25    2    3    3    0    0  0.73593148421E+01  0.51627714427E+02  0.44712580033E+03  0.46720853230E+03  0.12507098353E+03 0.  0.
         25    2    3    3    0    0 -0.73593148421E+01 -0.51627714427E+02  0.33599478019E+03  0.36243823332E+03  0.12549661446E+03 0.  0.
          5    1    4    4  502    0 -0.26456483048E+02 -0.33300751752E+02  0.11509679893E+03  0.12279352054E+03  0.47000000000E+01 0.  1.
         -5    1    4    4    0  502  0.33815797890E+02  0.84928466180E+02  0.33202900140E+03  0.34441501176E+03  0.47000000000E+01 0.  1.
          5    1    5    5  503    0  0.20689627130E+02 -0.76116325258E+02  0.12322548151E+03  0.14638430563E+03  0.47000000000E+01 0. -1.
         -5    1    5    5    0  503 -0.28048941973E+02  0.24488610831E+02  0.21276929869E+03  0.21605392769E+03  0.47000000000E+01 0. -1.
<mgrwt>
<rscale>  0 0.27392684E+03</rscale>
<asrwt>0</asrwt>
<pdfrwt beam="1">  1        2 0.12405901E+00 0.27392684E+03</pdfrwt>
<pdfrwt beam="2">  1       -2 0.35789379E-02 0.27392684E+03</pdfrwt>
<totfact> 0.11373003E+04</totfact>
</mgrwt>
</event>
<event>
 9    1  0.8093459E-001  0.2909483E+03  0.7818608E-02  0.1089855E+00
          4   -1    0    0  501    0  0.00000000000E+00  0.00000000000E+00  0.11691182994E+03  0.11691182994E+03  0.00000000000E+00 0. -1.
         -4   -1    0    0    0  501 -0.00000000000E+00 -0.00000000000E+00 -0.18101443239E+03  0.18101443239E+03  0.00000000000E+00 0. -1.
         35    2    1    2    0    0  0.00000000000E+00  0.00000000000E+00 -0.64102602450E+02  0.29792626234E+03  0.29094830150E+03 0.  0.
         25    2    3    3    0    0 -0.14335416653E+02 -0.49866388470E+02 -0.88283293778E+02  0.16014703351E+03  0.12312989691E+03 0.  0.
         25    2    3    3    0    0  0.14335416653E+02  0.49866388470E+02  0.24180691328E+02  0.13777922882E+03  0.12532457537E+03 0.  0.
          5    1    4    4  502    0 -0.27115408239E+02  0.36751060240E+02 -0.28975225600E+02  0.54291246912E+02  0.47000000000E+01 0. -1.
         -5    1    4    4    0  502  0.12779991585E+02 -0.86617448709E+02 -0.59308068177E+02  0.10585578660E+03  0.47000000000E+01 0. -1.
          5    1    5    5  503    0  0.28060299884E+02  0.22454591486E+02  0.72100974263E+02  0.80698386589E+02  0.47000000000E+01 0.  1.
         -5    1    5    5    0  503 -0.13724883230E+02  0.27411796984E+02 -0.47920282935E+02  0.57080842234E+02  0.47000000000E+01 0.  1.
<mgrwt>
<rscale>  0 0.29094830E+03</rscale>
<asrwt>0</asrwt>
<pdfrwt beam="1">  1        4 0.17986435E-01 0.29094830E+03</pdfrwt>
<pdfrwt beam="2">  1       -4 0.27848374E-01 0.29094830E+03</pdfrwt>
<totfact> 0.63146779E+02</totfact>
</mgrwt>
</event>
<event>
 9    1  0.8093459E-001  0.2760363E+03  0.7818608E-02  0.1097874E+00
         -2   -1    0    0    0  501 -0.00000000000E+00  0.00000000000E+00  0.12452643260E+03  0.12452643260E+03  0.00000000000E+00 0.  1.
          2   -1    0    0  501    0  0.00000000000E+00 -0.00000000000E+00 -0.15297162870E+03  0.15297162870E+03  0.00000000000E+00 0.  1.
         35    2    1    2    0    0  0.00000000000E+00  0.00000000000E+00 -0.28445196103E+02  0.27749806130E+03  0.27603631074E+03 0.  0.
         25    2    3    3    0    0  0.56781360639E+02  0.81091730556E+01 -0.27418689251E+02  0.13975114862E+03  0.12445367578E+03 0.  0.
         25    2    3    3    0    0 -0.56781360639E+02 -0.81091730556E+01 -0.10265068523E+01  0.13774691269E+03  0.12523288959E+03 0.  0.
          5    1    4    4  502    0 -0.33440002647E+02 -0.21384908734E+02  0.26863448136E+01  0.40060635880E+02  0.47000000000E+01 0.  1.
         -5    1    4    4    0  502  0.90221363286E+02  0.29494081790E+02 -0.30105034064E+02  0.99690512737E+02  0.47000000000E+01 0.  1.
          5    1    5    5  503    0 -0.67712588143E+02 -0.15417861780E+02  0.49445052929E+02  0.85379203053E+02  0.47000000000E+01 0. -1.
         -5    1    5    5    0  503  0.10931227505E+02  0.73086887240E+01 -0.50471559781E+02  0.52367709634E+02  0.47000000000E+01 0. -1.
<mgrwt>
<rscale>  0 0.27603631E+03</rscale>
<asrwt>0</asrwt>
<pdfrwt beam="1">  1        2 0.23534097E-01 0.27603631E+03</pdfrwt>
<pdfrwt beam="2">  1       -2 0.19157913E-01 0.27603631E+03</pdfrwt>
<totfact> 0.51792573E+03</totfact>
</mgrwt>
</event>
<event>
 9    1  0.8093459E-001  0.2726296E+03  0.7818608E-02  0.1099784E+00
          2   -1    0    0  501    0  0.00000000000E+00  0.00000000000E+00  0.61520636847E+03  0.61520636847E+03  0.00000000000E+00 0. -1.
         -2   -1    0    0    0  501 -0.00000000000E+00 -0.00000000000E+00 -0.30204057818E+02  0.30204057818E+02  0.00000000000E+00 0. -1.
         35    2    1    2    0    0  0.00000000000E+00  0.00000000000E+00  0.58500231065E+03  0.64541042629E+03  0.27262962952E+03 0.  0.
         25    2    3    3    0    0  0.34160495360E+02  0.97958401949E+01  0.19999491220E+03  0.23920398425E+03  0.12632372399E+03 0.  0.
         25    2    3    3    0    0 -0.34160495360E+02 -0.97958401949E+01  0.38500739845E+03  0.40620644204E+03  0.12453946671E+03 0.  0.
          5    1    4    4  502    0  0.26038035189E+02  0.64688045680E+02  0.14486218788E+03  0.16084049866E+03  0.47000000000E+01 0.  1.
         -5    1    4    4    0  502  0.81224601706E+01 -0.54892205485E+02  0.55132724323E+02  0.78363485588E+02  0.47000000000E+01 0.  1.
          5    1    5    5  503    0 -0.25900704206E+02  0.13630456109E+01  0.61516536491E+01  0.27067272015E+02  0.47000000000E+01 0.  1.
         -5    1    5    5    0  503 -0.82597911537E+01 -0.11158885806E+02  0.37885574480E+03  0.37913917003E+03  0.47000000000E+01 0.  1.
<mgrwt>
<rscale>  0 0.27262963E+03</rscale>
<asrwt>0</asrwt>
<pdfrwt beam="1">  1        2 0.94647125E-01 0.27262963E+03</pdfrwt>
<pdfrwt beam="2">  1       -2 0.46467786E-02 0.27262963E+03</pdfrwt>
<totfact> 0.10671556E+04</totfact>
</mgrwt>
</event>
<event>
 9    1  0.8093459E-001  0.2794428E+03  0.7818608E-02  0.1095994E+00
          4   -1    0    0  501    0  0.00000000000E+00  0.00000000000E+00  0.44119007934E+02  0.44119007934E+02  0.00000000000E+00 0.  1.
         -4   -1    0    0    0  501 -0.00000000000E+00 -0.00000000000E+00 -0.44248657161E+03  0.44248657161E+03  0.00000000000E+00 0.  1.
         35    2    1    2    0    0  0.00000000000E+00 -0.35527136788E-14 -0.39836756368E+03  0.48660557955E+03  0.27944279246E+03 0.  0.
         25    2    3    3    0    0  0.43614828925E+02  0.22764406497E+02 -0.14680346199E+03  0.20120085896E+03  0.12849146933E+03 0.  0.
         25    2    3    3    0    0 -0.43614828925E+02 -0.22764406497E+02 -0.25156410169E+03  0.28540472058E+03  0.12550253291E+03 0.  0.
          5    1    4    4  502    0  0.18332080136E+02 -0.37062943279E+02 -0.12622281331E+03  0.13290604022E+03  0.47000000000E+01 0. -1.
         -5    1    4    4    0  502  0.25282748789E+02  0.59827349777E+02 -0.20580648678E+02  0.68294818747E+02  0.47000000000E+01 0. -1.
          5    1    5    5  503    0 -0.71915174488E+02 -0.11423438902E+02 -0.69582663402E+02  0.10082720032E+03  0.47000000000E+01 0. -1.
         -5    1    5    5    0  503  0.28300345563E+02 -0.11340967596E+02 -0.18198143829E+03  0.18457752026E+03  0.47000000000E+01 0. -1.
<mgrwt>
<rscale>  0 0.27944279E+03</rscale>
<asrwt>0</asrwt>
<pdfrwt beam="1">  1        4 0.67875397E-02 0.27944279E+03</pdfrwt>
<pdfrwt beam="2">  1       -4 0.68074857E-01 0.27944279E+03</pdfrwt>
<totfact> 0.55122675E+02</totfact>
</mgrwt>
</event>
<event>
 9    1  0.8093459E-001  0.2759314E+03  0.7818608E-02  0.1097932E+00
         -2   -1    0    0    0  501 -0.00000000000E+00  0.00000000000E+00  0.15235232217E+03  0.15235232217E+03  0.00000000000E+00 0. -1.
          2   -1    0    0  501    0  0.00000000000E+00 -0.00000000000E+00 -0.12493756193E+03  0.12493756193E+03  0.00000000000E+00 0. -1.
         35    2    1    2    0    0  0.71054273576E-14 -0.26645352591E-14  0.27414760234E+02  0.27728988410E+03  0.27593135151E+03 0.  0.
         25    2    3    3    0    0  0.57530003414E+02 -0.20785514009E+01  0.24897746696E+02  0.13970460464E+03  0.12483371780E+03 0.  0.
         25    2    3    3    0    0 -0.57530003414E+02  0.20785514009E+01  0.25170135382E+01  0.13758527946E+03  0.12493739271E+03 0.  0.
          5    1    4    4  502    0  0.48882687815E+02  0.26530345521E+01  0.74304390815E+02  0.89105489476E+02  0.47000000000E+01 0.  1.
         -5    1    4    4    0  502  0.86473155987E+01 -0.47315859530E+01 -0.49406644119E+02  0.50599115168E+02  0.47000000000E+01 0.  1.
          5    1    5    5  503    0  0.36329552110E+02  0.19187275586E+02 -0.55480936816E+01  0.41723605362E+02  0.47000000000E+01 0.  1.
         -5    1    5    5    0  503 -0.93859555524E+02 -0.17108724185E+02  0.80651072198E+01  0.95861674098E+02  0.47000000000E+01 0.  1.
<mgrwt>
<rscale>  0 0.27593135E+03</rscale>
<asrwt>0</asrwt>
<pdfrwt beam="1">  1        2 0.19221164E-01 0.27593135E+03</pdfrwt>
<pdfrwt beam="2">  1       -2 0.23438819E-01 0.27593135E+03</pdfrwt>
<totfact> 0.46050447E+03</totfact>
</mgrwt>
</event>
<event>
 9    1  0.8093459E-001  0.2685137E+03  0.7818608E-02  0.1102133E+00
         -2   -1    0    0    0  501 -0.00000000000E+00  0.00000000000E+00  0.47543499875E+03  0.47543499875E+03  0.00000000000E+00 0.  1.
          2   -1    0    0  501    0  0.00000000000E+00 -0.00000000000E+00 -0.37912452901E+02  0.37912452901E+02  0.00000000000E+00 0.  1.
         35    2    1    2    0    0 -0.71054273576E-14 -0.71054273576E-14  0.43752254585E+03  0.51334745165E+03  0.26851373892E+03 0.  0.
         25    2    3    3    0    0  0.26124812020E+02  0.39639389747E+02  0.20526524900E+03  0.24480059770E+03  0.12465842596E+03 0.  0.
         25    2    3    3    0    0 -0.26124812020E+02 -0.39639389747E+02  0.23225729685E+03  0.26854685395E+03  0.12617517112E+03 0.  0.
          5    1    4    4  502    0 -0.32674065036E+02  0.54888679788E+02  0.62107981529E+02  0.89218008633E+02  0.47000000000E+01 0.  1.
         -5    1    4    4    0  502  0.58798877056E+02 -0.15249290041E+02  0.14315726747E+03  0.15558258906E+03  0.47000000000E+01 0.  1.
          5    1    5    5  503    0 -0.14168485771E+02  0.12059615891E+02  0.20989798448E+03  0.21077341913E+03  0.47000000000E+01 0. -1.
         -5    1    5    5    0  503 -0.11956326249E+02 -0.51699005638E+02  0.22359312369E+02  0.57773434820E+02  0.47000000000E+01 0. -1.
<mgrwt>
<rscale>  0 0.26851374E+03</rscale>
<asrwt>0</asrwt>
<pdfrwt beam="1">  1        2 0.58326854E-02 0.26851374E+03</pdfrwt>
<pdfrwt beam="2">  1       -2 0.73143842E-01 0.26851374E+03</pdfrwt>
<totfact> 0.22163623E+03</totfact>
</mgrwt>
</event>
<event>
 9    1  0.8093459E-001  0.2680779E+03  0.7818608E-02  0.1102385E+00
          2   -1    0    0  501    0  0.00000000000E+00  0.00000000000E+00  0.15197623787E+03  0.15197623787E+03  0.00000000000E+00 0.  1.
         -2   -1    0    0    0  501 -0.00000000000E+00 -0.00000000000E+00 -0.11821871567E+03  0.11821871567E+03  0.00000000000E+00 0.  1.
         35    2    1    2    0    0 -0.71054273576E-14  0.00000000000E+00  0.33757522197E+02  0.27019495354E+03  0.26807786670E+03 0.  0.
         25    2    3    3    0    0 -0.28010183151E+02 -0.34465531460E+02  0.99968149981E+01  0.13363520450E+03  0.12564230320E+03 0.  0.
         25    2    3    3    0    0  0.28010183151E+02  0.34465531460E+02  0.23760707199E+02  0.13655974904E+03  0.12693128312E+03 0.  0.
          5    1    4    4  502    0 -0.55575545850E+02  0.21386979577E+02  0.31557150609E+02  0.67557293807E+02  0.47000000000E+01 0. -1.
         -5    1    4    4    0  502  0.27565362699E+02 -0.55852511037E+02 -0.21560335611E+02  0.66077910693E+02  0.47000000000E+01 0. -1.
          5    1    5    5  503    0 -0.18572423792E+02  0.63985195768E+02 -0.15666311395E+02  0.68604398661E+02  0.47000000000E+01 0.  1.
         -5    1    5    5    0  503  0.46582606943E+02 -0.29519664308E+02  0.39427018595E+02  0.67955350384E+02  0.47000000000E+01 0.  1.
<mgrwt>
<rscale>  0 0.26807787E+03</rscale>
<asrwt>0</asrwt>
<pdfrwt beam="1">  1        2 0.23380960E-01 0.26807787E+03</pdfrwt>
<pdfrwt beam="2">  1       -2 0.18187495E-01 0.26807787E+03</pdfrwt>
<totfact> 0.56918937E+03</totfact>
</mgrwt>
</event>
<event>
 9    1  0.8093459E-001  0.2739394E+03  0.7818608E-02  0.1099046E+00
          2   -1    0    0  501    0  0.00000000000E+00  0.00000000000E+00  0.32438950337E+03  0.32438950337E+03  0.00000000000E+00 0.  1.
         -2   -1    0    0    0  501 -0.00000000000E+00 -0.00000000000E+00 -0.57833882662E+02  0.57833882662E+02  0.00000000000E+00 0.  1.
         35    2    1    2    0    0 -0.71054273576E-14  0.17763568394E-14  0.26655562071E+03  0.38222338603E+03  0.27393944203E+03 0.  0.
         25    2    3    3    0    0 -0.51803915952E+02  0.64081945114E+01  0.14923910189E+03  0.20245999894E+03  0.12646355592E+03 0.  0.
         25    2    3    3    0    0  0.51803915952E+02 -0.64081945114E+01  0.11731651882E+03  0.17976338709E+03  0.12580540165E+03 0.  0.
          5    1    4    4  502    0 -0.53203214140E+02  0.18649449596E+02  0.40978849615E+01  0.56720954031E+02  0.47000000000E+01 0.  1.
         -5    1    4    4    0  502  0.13992981883E+01 -0.12241255084E+02  0.14514121692E+03  0.14573904491E+03  0.47000000000E+01 0.  1.
          5    1    5    5  503    0 -0.20911687631E+01 -0.55288263348E+02  0.81271045611E+02  0.98428846917E+02  0.47000000000E+01 0.  1.
         -5    1    5    5    0  503  0.53895084715E+02  0.48880068836E+02  0.36045473211E+02  0.81334540171E+02  0.47000000000E+01 0.  1.
<mgrwt>
<rscale>  0 0.27393944E+03</rscale>
<asrwt>0</asrwt>
<pdfrwt beam="1">  1        2 0.49906076E-01 0.27393944E+03</pdfrwt>
<pdfrwt beam="2">  1       -2 0.88975206E-02 0.27393944E+03</pdfrwt>
<totfact> 0.79658735E+03</totfact>
</mgrwt>
</event>
<event>
 9    1  0.8093459E-001  0.2780550E+03  0.7818608E-02  0.1096756E+00
         -1   -1    0    0    0  501 -0.00000000000E+00  0.00000000000E+00  0.15607764201E+02  0.15607764201E+02  0.00000000000E+00 0. -1.
          1   -1    0    0  501    0  0.00000000000E+00 -0.00000000000E+00 -0.12383997686E+04  0.12383997686E+04  0.00000000000E+00 0. -1.
         35    2    1    2    0    0  0.00000000000E+00  0.00000000000E+00 -0.12227920044E+04  0.12540075328E+04  0.27805504186E+03 0.  0.
         25    2    3    3    0    0 -0.13254764224E+02  0.59977407963E+02 -0.68402949070E+03  0.69803591758E+03  0.12483917589E+03 0.  0.
         25    2    3    3    0    0  0.13254764224E+02 -0.59977407963E+02 -0.53876251373E+03  0.55597161526E+03  0.12274531572E+03 0.  0.
          5    1    4    4  502    0 -0.93347873209E+01  0.20230617522E+02 -0.63135142924E+03  0.63176192774E+03  0.47000000000E+01 0.  1.
         -5    1    4    4    0  502 -0.39199769032E+01  0.39746790441E+02 -0.52678061462E+02  0.66273989835E+02  0.47000000000E+01 0.  1.
          5    1    5    5  503    0  0.66665761732E+02 -0.47160113267E+02 -0.30260432677E+03  0.31346430204E+03  0.47000000000E+01 0. -1.
         -5    1    5    5    0  503 -0.53410997508E+02 -0.12817294696E+02 -0.23615818696E+03  0.24250731323E+03  0.47000000000E+01 0. -1.
<mgrwt>
<rscale>  0 0.27805504E+03</rscale>
<asrwt>0</asrwt>
<pdfrwt beam="1">  1        1 0.19052304E+00 0.27805504E+03</pdfrwt>
<pdfrwt beam="2">  1       -1 0.24011945E-02 0.27805504E+03</pdfrwt>
<totfact> 0.56422706E+03</totfact>
</mgrwt>
</event>
<event>
 9    1  0.8093459E-001  0.3165619E+03  0.7818608E-02  0.1077243E+00
          2   -1    0    0  501    0  0.00000000000E+00  0.00000000000E+00  0.25880984679E+04  0.25880984679E+04  0.00000000000E+00 0.  1.
         -2   -1    0    0    0  501 -0.00000000000E+00 -0.00000000000E+00 -0.96800260128E+01  0.96800260128E+01  0.00000000000E+00 0.  1.
         35    2    1    2    0    0  0.14210854715E-13 -0.71054273576E-14  0.25784184418E+04  0.25977784939E+04  0.31656190859E+03 0.  0.
         25    2    3    3    0    0 -0.76417405488E+02  0.60586268810E+02  0.12862090640E+04  0.12959329617E+04  0.12489262988E+03 0.  0.
         25    2    3    3    0    0  0.76417405488E+02 -0.60586268810E+02  0.12922093779E+04  0.13018455322E+04  0.12444435580E+03 0.  0.
          5    1    4    4  502    0 -0.47247023949E+02  0.98694029468E+02  0.94747533989E+03  0.95378425361E+03  0.47000000000E+01 0.  1.
         -5    1    4    4    0  502 -0.29170381539E+02 -0.38107760657E+02  0.33873372409E+03  0.34214870805E+03  0.47000000000E+01 0.  1.
          5    1    5    5  503    0 -0.18436702544E+01 -0.59665107753E+02  0.89323405551E+03  0.89523879056E+03  0.47000000000E+01 0.  1.
         -5    1    5    5    0  503  0.78261075742E+02 -0.92116105761E+00  0.39897532235E+03  0.40660674165E+03  0.47000000000E+01 0.  1.
<mgrwt>
<rscale>  0 0.31656191E+03</rscale>
<asrwt>0</asrwt>
<pdfrwt beam="1">  1        2 0.39816844E+00 0.31656191E+03</pdfrwt>
<pdfrwt beam="2">  1       -2 0.14892368E-02 0.31656191E+03</pdfrwt>
<totfact> 0.42678700E+03</totfact>
</mgrwt>
</event>
<event>
 9    1  0.8093459E-001  0.2762327E+03  0.7818608E-02  0.1097765E+00
         -2   -1    0    0    0  501 -0.00000000000E+00  0.00000000000E+00  0.76415521518E+01  0.76415521518E+01  0.00000000000E+00 0. -1.
          2   -1    0    0  501    0  0.00000000000E+00 -0.00000000000E+00 -0.24963681561E+04  0.24963681561E+04  0.00000000000E+00 0. -1.
         35    2    1    2    0    0  0.00000000000E+00  0.71054273576E-14 -0.24887266039E+04  0.25040097082E+04  0.27623270954E+03 0.  0.
         25    2    3    3    0    0  0.33134766400E+02  0.44354118117E+02 -0.14282839905E+04  0.14348267590E+04  0.12516976506E+03 0.  0.
         25    2    3    3    0    0 -0.33134766400E+02 -0.44354118117E+02 -0.10604426134E+04  0.10691829493E+04  0.12469339262E+03 0.  0.
          5    1    4    4  502    0  0.17024628286E+02  0.15427187044E+02 -0.41715905709E+02  0.47855437074E+02  0.47000000000E+01 0. -1.
         -5    1    4    4    0  502  0.16110138114E+02  0.28926931073E+02 -0.13865680848E+04  0.13869713219E+04  0.47000000000E+01 0. -1.
          5    1    5    5  503    0 -0.51643084924E+02  0.28782002812E+02 -0.38826204946E+03  0.39276573292E+03  0.47000000000E+01 0. -1.
         -5    1    5    5    0  503  0.18508318524E+02 -0.73136120929E+02 -0.67218056394E+03  0.67641721635E+03  0.47000000000E+01 0. -1.
<mgrwt>
<rscale>  0 0.27623271E+03</rscale>
<asrwt>0</asrwt>
<pdfrwt beam="1">  1        2 0.38405708E+00 0.27623271E+03</pdfrwt>
<pdfrwt beam="2">  1       -2 0.11756220E-02 0.27623271E+03</pdfrwt>
<totfact> 0.67871938E+03</totfact>
</mgrwt>
</event>
<event>
 9    1  0.8093459E-001  0.2634852E+03  0.7818608E-02  0.1105067E+00
         -2   -1    0    0    0  501 -0.00000000000E+00  0.00000000000E+00  0.79151062908E+01  0.79151062908E+01  0.00000000000E+00 0.  1.
          2   -1    0    0  501    0  0.00000000000E+00 -0.00000000000E+00 -0.21927836027E+04  0.21927836027E+04  0.00000000000E+00 0.  1.
         35    2    1    2    0    0 -0.35527136788E-14  0.71054273576E-14 -0.21848684964E+04  0.22006987090E+04  0.26348521999E+03 0.  0.
         25    2    3    3    0    0  0.73683370121E+01 -0.28803064514E+02 -0.13173655424E+04  0.13236481291E+04  0.12533350890E+03 0.  0.
         25    2    3    3    0    0 -0.73683370121E+01  0.28803064514E+02 -0.86750295403E+03  0.87705057991E+03  0.12558835756E+03 0.  0.
          5    1    4    4  502    0  0.65867106914E+02 -0.19737741944E+02 -0.76575840052E+03  0.76885373914E+03  0.47000000000E+01 0.  1.
         -5    1    4    4    0  502 -0.58498769902E+02 -0.90653225704E+01 -0.55160714187E+03  0.55479438994E+03  0.47000000000E+01 0.  1.
          5    1    5    5  503    0 -0.27667763568E+02  0.68998746911E+02 -0.68403841176E+03  0.68808209610E+03  0.47000000000E+01 0. -1.
         -5    1    5    5    0  503  0.20299426556E+02 -0.40195682397E+02 -0.18346454228E+03  0.18896848381E+03  0.47000000000E+01 0. -1.
<mgrwt>
<rscale>  0 0.26348522E+03</rscale>
<asrwt>0</asrwt>
<pdfrwt beam="1">  1        2 0.33735207E+00 0.26348522E+03</pdfrwt>
<pdfrwt beam="2">  1       -2 0.12177060E-02 0.26348522E+03</pdfrwt>
<totfact> 0.93960660E+03</totfact>
</mgrwt>
</event>
<event>
 9    1  0.8093459E-001  0.2741998E+03  0.7818608E-02  0.1098900E+00
         -2   -1    0    0    0  501 -0.00000000000E+00  0.00000000000E+00  0.11385705691E+03  0.11385705691E+03  0.00000000000E+00 0.  1.
          2   -1    0    0  501    0  0.00000000000E+00 -0.00000000000E+00 -0.16508759429E+03  0.16508759429E+03  0.00000000000E+00 0.  1.
         35    2    1    2    0    0  0.00000000000E+00  0.00000000000E+00 -0.51230537382E+02  0.27894465121E+03  0.27419983675E+03 0.  0.
         25    2    3    3    0    0 -0.41806156838E+02 -0.33144210337E-01 -0.64728672032E+02  0.14657275848E+03  0.12468366652E+03 0.  0.
         25    2    3    3    0    0  0.41806156838E+02  0.33144210337E-01  0.13498134650E+02  0.13237189273E+03  0.12486938175E+03 0.  0.
          5    1    4    4  502    0 -0.67786272158E+02  0.40269589100E+02 -0.21543208081E+02  0.81870741500E+02  0.47000000000E+01 0. -1.
         -5    1    4    4    0  502  0.25980115320E+02 -0.40302733310E+02 -0.43185463952E+02  0.64702016978E+02  0.47000000000E+01 0. -1.
          5    1    5    5  503    0  0.76350092278E+02  0.16913880914E+02 -0.20339218487E+02  0.80939420353E+02  0.47000000000E+01 0. -1.
         -5    1    5    5    0  503 -0.34543935440E+02 -0.16880736704E+02  0.33837353137E+02  0.51432472376E+02  0.47000000000E+01 0. -1.
<mgrwt>
<rscale>  0 0.27419984E+03</rscale>
<asrwt>0</asrwt>
<pdfrwt beam="1">  1        2 0.25398092E-01 0.27419984E+03</pdfrwt>
<pdfrwt beam="2">  1       -2 0.17516470E-01 0.27419984E+03</pdfrwt>
<totfact> 0.55318221E+03</totfact>
</mgrwt>
</event>
<event>
 9    1  0.8093459E-001  0.2826931E+03  0.7818608E-02  0.1094227E+00
          2   -1    0    0  501    0  0.00000000000E+00  0.00000000000E+00  0.27212162100E+03  0.27212162100E+03  0.00000000000E+00 0. -1.
         -2   -1    0    0    0  501 -0.00000000000E+00 -0.00000000000E+00 -0.73418831717E+02  0.73418831717E+02  0.00000000000E+00 0. -1.
         35    2    1    2    0    0 -0.14210854715E-13  0.00000000000E+00  0.19870278928E+03  0.34554045271E+03  0.28269313043E+03 0.  0.
         25    2    3    3    0    0  0.57640811656E+02 -0.27923576887E+02  0.79927457571E+02  0.16160208119E+03  0.12499857941E+03 0.  0.
         25    2    3    3    0    0 -0.57640811656E+02  0.27923576887E+02  0.11877533171E+03  0.18393837153E+03  0.12499422300E+03 0.  0.
          5    1    4    4  502    0  0.22183830565E+02  0.49801244293E+02  0.27301844463E+02  0.61153634256E+02  0.47000000000E+01 0. -1.
         -5    1    4    4    0  502  0.35456981091E+02 -0.77724821180E+02  0.52625613108E+02  0.10044844693E+03  0.47000000000E+01 0. -1.
          5    1    5    5  503    0 -0.31181888969E+02  0.72790978424E+02  0.38618990453E+02  0.88228981424E+02  0.47000000000E+01 0. -1.
         -5    1    5    5    0  503 -0.26458922687E+02 -0.44867401536E+02  0.80156341257E+02  0.95709390104E+02  0.47000000000E+01 0. -1.
<mgrwt>
<rscale>  0 0.28269313E+03</rscale>
<asrwt>0</asrwt>
<pdfrwt beam="1">  1        2 0.41864864E-01 0.28269313E+03</pdfrwt>
<pdfrwt beam="2">  1       -2 0.11295205E-01 0.28269313E+03</pdfrwt>
<totfact> 0.65924135E+03</totfact>
</mgrwt>
</event>
<event>
 9    1  0.8093459E-001  0.2763115E+03  0.7818608E-02  0.1097721E+00
         -2   -1    0    0    0  501 -0.00000000000E+00  0.00000000000E+00  0.38979352814E+02  0.38979352814E+02  0.00000000000E+00 0. -1.
          2   -1    0    0  501    0  0.00000000000E+00 -0.00000000000E+00 -0.48966964195E+03  0.48966964195E+03  0.00000000000E+00 0. -1.
         35    2    1    2    0    0  0.00000000000E+00 -0.35527136788E-14 -0.45069028914E+03  0.52864899476E+03  0.27631146003E+03 0.  0.
         25    2    3    3    0    0  0.47868519890E+02  0.14278251517E+02 -0.27631988550E+03  0.30750608677E+03  0.12534771882E+03 0.  0.
         25    2    3    3    0    0 -0.47868519890E+02 -0.14278251517E+02 -0.17437040363E+03  0.22114290800E+03  0.12650646003E+03 0.  0.
          5    1    4    4  502    0 -0.26919191385E+01 -0.71325842626E+01  0.11433356994E+02  0.14523492660E+02  0.47000000000E+01 0.  1.
         -5    1    4    4    0  502  0.50560439029E+02  0.21410835780E+02 -0.28775324250E+03  0.29298259411E+03  0.47000000000E+01 0.  1.
          5    1    5    5  503    0 -0.74131474850E+02  0.28129713494E+02 -0.72156274285E+02  0.10730971188E+03  0.47000000000E+01 0.  1.
         -5    1    5    5    0  503  0.26262954960E+02 -0.42407965011E+02 -0.10221412935E+03  0.11383319612E+03  0.47000000000E+01 0.  1.
<mgrwt>
<rscale>  0 0.27631146E+03</rscale>
<asrwt>0</asrwt>
<pdfrwt beam="1">  1        2 0.75333797E-01 0.27631146E+03</pdfrwt>
<pdfrwt beam="2">  1       -2 0.59968230E-02 0.27631146E+03</pdfrwt>
<totfact> 0.93885237E+03</totfact>
</mgrwt>
</event>
<event>
 9    1  0.8093459E-001  0.2725496E+03  0.7818608E-02  0.1099829E+00
          1   -1    0    0  501    0  0.00000000000E+00  0.00000000000E+00  0.77435874439E+02  0.77435874439E+02  0.00000000000E+00 0. -1.
         -1   -1    0    0    0  501 -0.00000000000E+00 -0.00000000000E+00 -0.23982187136E+03  0.23982187136E+03  0.00000000000E+00 0. -1.
         35    2    1    2    0    0  0.35527136788E-14 -0.71054273576E-14 -0.16238599692E+03  0.31725774580E+03  0.27254956480E+03 0.  0.
         25    2    3    3    0    0 -0.67548090084E+01 -0.52002476735E+02 -0.60943734979E+02  0.14832962638E+03  0.12465012714E+03 0.  0.
         25    2    3    3    0    0  0.67548090084E+01  0.52002476735E+02 -0.10144226194E+03  0.16892811942E+03  0.12448410337E+03 0.  0.
          5    1    4    4  502    0 -0.19618833164E+02 -0.91350536348E+02 -0.41097792496E+02  0.10218090650E+03  0.47000000000E+01 0.  1.
         -5    1    4    4    0  502  0.12864024155E+02  0.39348059613E+02 -0.19845942483E+02  0.46148719872E+02  0.47000000000E+01 0.  1.
          5    1    5    5  503    0  0.43385584379E+02 -0.45063431863E+01 -0.90455695403E+02  0.10053327256E+03  0.47000000000E+01 0.  1.
         -5    1    5    5    0  503 -0.36630775371E+02  0.56508819922E+02 -0.10986566538E+02  0.68394846864E+02  0.47000000000E+01 0.  1.
<mgrwt>
<rscale>  0 0.27254956E+03</rscale>
<asrwt>0</asrwt>
<pdfrwt beam="1">  1        1 0.11913212E-01 0.27254956E+03</pdfrwt>
<pdfrwt beam="2">  1       -1 0.36895672E-01 0.27254956E+03</pdfrwt>
<totfact> 0.35922066E+03</totfact>
</mgrwt>
</event>
<event>
 9    1  0.8093459E-001  0.2806419E+03  0.7818608E-02  0.1095339E+00
         -1   -1    0    0    0  501 -0.00000000000E+00  0.00000000000E+00  0.71050214383E+03  0.71050214383E+03  0.00000000000E+00 0. -1.
          1   -1    0    0  501    0  0.00000000000E+00 -0.00000000000E+00 -0.27712747449E+02  0.27712747449E+02  0.00000000000E+00 0. -1.
         35    2    1    2    0    0  0.71054273576E-14  0.00000000000E+00  0.68278939638E+03  0.73821489128E+03  0.28064188194E+03 0.  0.
         25    2    3    3    0    0 -0.43394632932E+02 -0.13364162734E+02  0.22065643578E+03  0.25757555000E+03  0.12487676441E+03 0.  0.
         25    2    3    3    0    0  0.43394632932E+02  0.13364162734E+02  0.46213296060E+03  0.48063934129E+03  0.12403873631E+03 0.  0.
          5    1    4    4  502    0 -0.80821037726E+02 -0.66014542718E+01  0.89173451804E+02  0.12062178014E+03  0.47000000000E+01 0. -1.
         -5    1    4    4    0  502  0.37426404794E+02 -0.67627084623E+01  0.13148298398E+03  0.13695376985E+03  0.47000000000E+01 0. -1.
          5    1    5    5  503    0  0.22581006958E+02 -0.17065039260E+02  0.15785630566E+02  0.32747420853E+02  0.47000000000E+01 0. -1.
         -5    1    5    5    0  503  0.20813625974E+02  0.30429201994E+02  0.44634733004E+03  0.44789192043E+03  0.47000000000E+01 0. -1.
<mgrwt>
<rscale>  0 0.28064188E+03</rscale>
<asrwt>0</asrwt>
<pdfrwt beam="1">  1        1 0.42635002E-02 0.28064188E+03</pdfrwt>
<pdfrwt beam="2">  1       -1 0.10930801E+00 0.28064188E+03</pdfrwt>
<totfact> 0.17115211E+03</totfact>
</mgrwt>
</event>
<event>
 9    1  0.8093459E-001  0.2775148E+03  0.7818608E-02  0.1097054E+00
         -2   -1    0    0    0  501 -0.00000000000E+00  0.00000000000E+00  0.14819709701E+02  0.14819709701E+02  0.00000000000E+00 0. -1.
          2   -1    0    0  501    0  0.00000000000E+00 -0.00000000000E+00 -0.12991900697E+04  0.12991900697E+04  0.00000000000E+00 0. -1.
         35    2    1    2    0    0  0.00000000000E+00 -0.71054273576E-14 -0.12843703600E+04  0.13140097794E+04  0.27751482612E+03 0.  0.
         25    2    3    3    0    0 -0.18655933508E+02 -0.49216079723E+02 -0.78284103956E+03  0.79437795455E+03  0.12420134899E+03 0.  0.
         25    2    3    3    0    0  0.18655933508E+02  0.49216079723E+02 -0.50152932047E+03  0.51963182489E+03  0.12536071069E+03 0.  0.
          5    1    4    4  502    0 -0.41817406090E+02 -0.35047143418E+02 -0.13141273504E+03  0.14236711223E+03  0.47000000000E+01 0.  1.
         -5    1    4    4    0  502  0.23161472581E+02 -0.14168936305E+02 -0.65142830453E+03  0.65201084232E+03  0.47000000000E+01 0.  1.
          5    1    5    5  503    0  0.90161895885E+01 -0.41676779464E+02 -0.12569308116E+03  0.13281222185E+03  0.47000000000E+01 0. -1.
         -5    1    5    5    0  503  0.96397439197E+01  0.90892859188E+02 -0.37583623931E+03  0.38681960304E+03  0.47000000000E+01 0. -1.
<mgrwt>
<rscale>  0 0.27751483E+03</rscale>
<asrwt>0</asrwt>
<pdfrwt beam="1">  1        2 0.19987542E+00 0.27751483E+03</pdfrwt>
<pdfrwt beam="2">  1       -2 0.22799551E-02 0.27751483E+03</pdfrwt>
<totfact> 0.11183907E+04</totfact>
</mgrwt>
</event>
<event>
 9    1  0.8093459E-001  0.2764864E+03  0.7818608E-02  0.1097624E+00
          2   -1    0    0  501    0  0.00000000000E+00  0.00000000000E+00  0.25218078969E+02  0.25218078969E+02  0.00000000000E+00 0.  1.
         -2   -1    0    0    0  501 -0.00000000000E+00 -0.00000000000E+00 -0.75783644653E+03  0.75783644653E+03  0.00000000000E+00 0.  1.
         35    2    1    2    0    0  0.00000000000E+00 -0.35527136788E-14 -0.73261836756E+03  0.78305452550E+03  0.27648637836E+03 0.  0.
         25    2    3    3    0    0 -0.27715193457E+02  0.24257160224E+02 -0.23622615082E+03  0.26952274707E+03  0.12443140715E+03 0.  0.
         25    2    3    3    0    0  0.27715193457E+02 -0.24257160224E+02 -0.49639221674E+03  0.51353177843E+03  0.12630563268E+03 0.  0.
          5    1    4    4  502    0 -0.41109197275E+02  0.57076749163E+02 -0.69463855111E+02  0.98969887150E+02  0.47000000000E+01 0. -1.
         -5    1    4    4    0  502  0.13394003817E+02 -0.32819588939E+02 -0.16676229571E+03  0.17055285992E+03  0.47000000000E+01 0. -1.
          5    1    5    5  503    0  0.22062321890E+01 -0.40350425044E+02 -0.43305093936E+02  0.59417551468E+02  0.47000000000E+01 0. -1.
         -5    1    5    5    0  503  0.25508961268E+02  0.16093264820E+02 -0.45308712281E+03  0.45411422696E+03  0.47000000000E+01 0. -1.
<mgrwt>
<rscale>  0 0.27648638E+03</rscale>
<asrwt>0</asrwt>
<pdfrwt beam="1">  1        2 0.38797049E-02 0.27648638E+03</pdfrwt>
<pdfrwt beam="2">  1       -2 0.11659021E+00 0.27648638E+03</pdfrwt>
<totfact> 0.13153667E+03</totfact>
</mgrwt>
</event>
<event>
 9    1  0.8093459E-001  0.2751339E+03  0.7818608E-02  0.1098377E+00
         -2   -1    0    0    0  501 -0.00000000000E+00  0.00000000000E+00  0.38091214543E+02  0.38091214543E+02  0.00000000000E+00 0.  1.
          2   -1    0    0  501    0  0.00000000000E+00 -0.00000000000E+00 -0.49682477523E+03  0.49682477523E+03  0.00000000000E+00 0.  1.
         35    2    1    2    0    0  0.00000000000E+00 -0.14210854715E-13 -0.45873356069E+03  0.53491598977E+03  0.27513385181E+03 0.  0.
         25    2    3    3    0    0  0.30750499842E+02  0.41667013992E+02 -0.17688667084E+03  0.22274931097E+03  0.12508648178E+03 0.  0.
         25    2    3    3    0    0 -0.30750499842E+02 -0.41667013992E+02 -0.28184688985E+03  0.31216667880E+03  0.12380885566E+03 0.  0.
          5    1    4    4  502    0  0.25820959450E+02 -0.31039143585E+02 -0.11946688002E+02  0.42367012352E+02  0.47000000000E+01 0. -1.
         -5    1    4    4    0  502  0.49295403926E+01  0.72706157577E+02 -0.16493998283E+03  0.18038229862E+03  0.47000000000E+01 0. -1.
          5    1    5    5  503    0 -0.17799143331E+02  0.77582779700E+01  0.51409751549E+01  0.20628136269E+02  0.47000000000E+01 0.  1.
         -5    1    5    5    0  503 -0.12951356512E+02 -0.49425291962E+02 -0.28698786500E+03  0.29153854253E+03  0.47000000000E+01 0.  1.
<mgrwt>
<rscale>  0 0.27513385E+03</rscale>
<asrwt>0</asrwt>
<pdfrwt beam="1">  1        2 0.76434579E-01 0.27513385E+03</pdfrwt>
<pdfrwt beam="2">  1       -2 0.58601870E-02 0.27513385E+03</pdfrwt>
<totfact> 0.95684118E+03</totfact>
</mgrwt>
</event>
<event>
 9    1  0.8093459E-001  0.2737115E+03  0.7818608E-02  0.1099174E+00
         -2   -1    0    0    0  501 -0.00000000000E+00  0.00000000000E+00  0.16085790101E+02  0.16085790101E+02  0.00000000000E+00 0.  1.
          2   -1    0    0  501    0  0.00000000000E+00 -0.00000000000E+00 -0.11643503776E+04  0.11643503776E+04  0.00000000000E+00 0.  1.
         35    2    1    2    0    0  0.35527136788E-14  0.00000000000E+00 -0.11482645875E+04  0.11804361677E+04  0.27371149613E+03 0.  0.
         25    2    3    3    0    0 -0.30019729555E+02  0.54911602237E+01 -0.37329514641E+03  0.39486582539E+03  0.12505365536E+03 0.  0.
         25    2    3    3    0    0  0.30019729555E+02 -0.54911602237E+01 -0.77496944112E+03  0.78557034234E+03  0.12494715324E+03 0.  0.
          5    1    4    4  502    0  0.17268035246E+02  0.50136970523E+02 -0.24767681961E+03  0.25333337291E+03  0.47000000000E+01 0.  1.
         -5    1    4    4    0  502 -0.47287764801E+02 -0.44645810299E+02 -0.12561832680E+03  0.14153245248E+03  0.47000000000E+01 0.  1.
          5    1    5    5  503    0 -0.11816286194E+02  0.54073802145E+02 -0.35267217114E+03  0.35702009887E+03  0.47000000000E+01 0. -1.
         -5    1    5    5    0  503  0.41836015749E+02 -0.59564962369E+02 -0.42229726998E+03  0.42855024348E+03  0.47000000000E+01 0. -1.
<mgrwt>
<rscale>  0 0.27371150E+03</rscale>
<asrwt>0</asrwt>
<pdfrwt beam="1">  1        2 0.17913085E+00 0.27371150E+03</pdfrwt>
<pdfrwt beam="2">  1       -2 0.24747366E-02 0.27371150E+03</pdfrwt>
<totfact> 0.11798081E+04</totfact>
</mgrwt>
</event>
<event>
 9    1  0.8093459E-001  0.2777219E+03  0.7818608E-02  0.1096940E+00
         -1   -1    0    0    0  501 -0.00000000000E+00  0.00000000000E+00  0.21144720147E+03  0.21144720147E+03  0.00000000000E+00 0.  1.
          1   -1    0    0  501    0  0.00000000000E+00 -0.00000000000E+00 -0.91192350699E+02  0.91192350699E+02  0.00000000000E+00 0.  1.
         35    2    1    2    0    0  0.35527136788E-14 -0.17763568394E-14  0.12025485077E+03  0.30263955217E+03  0.27772192820E+03 0.  0.
         25    2    3    3    0    0  0.30092966658E+02 -0.12129261247E+02  0.41817809608E+01  0.12899141868E+03  0.12477416872E+03 0.  0.
         25    2    3    3    0    0 -0.30092966658E+02  0.12129261247E+02  0.11607306981E+03  0.17364813348E+03  0.12501204385E+03 0.  0.
          5    1    4    4  502    0  0.24861268112E+02 -0.12280378394E+02  0.63399369627E+02  0.69357482760E+02  0.47000000000E+01 0. -1.
         -5    1    4    4    0  502  0.52316985463E+01  0.15111714708E+00 -0.59217588666E+02  0.59633935922E+02  0.47000000000E+01 0. -1.
          5    1    5    5  503    0  0.32237796573E+02 -0.32524736169E+02  0.18864787936E+02  0.49750419241E+02  0.47000000000E+01 0. -1.
         -5    1    5    5    0  503 -0.62330763232E+02  0.44653997416E+02  0.97208281871E+02  0.12389771424E+03  0.47000000000E+01 0. -1.
<mgrwt>
<rscale>  0 0.27772193E+03</rscale>
<asrwt>0</asrwt>
<pdfrwt beam="1">  1        1 0.14029593E-01 0.27772193E+03</pdfrwt>
<pdfrwt beam="2">  1       -1 0.32530338E-01 0.27772193E+03</pdfrwt>
<totfact> 0.36012865E+03</totfact>
</mgrwt>
</event>
<event>
 9    1  0.8093459E-001  0.2542799E+03  0.7818608E-02  0.1110630E+00
          1   -1    0    0  501    0  0.00000000000E+00  0.00000000000E+00  0.46062125139E+03  0.46062125139E+03  0.00000000000E+00 0. -1.
         -1   -1    0    0    0  501 -0.00000000000E+00 -0.00000000000E+00 -0.35092959412E+02  0.35092959412E+02  0.00000000000E+00 0. -1.
         35    2    1    2    0    0 -0.88817841970E-15  0.00000000000E+00  0.42552829198E+03  0.49571421080E+03  0.25427986848E+03 0.  0.
         25    2    3    3    0    0 -0.26245067547E+01 -0.20444428688E+02  0.18530916283E+03  0.22466538018E+03  0.12534027495E+03 0.  0.
         25    2    3    3    0    0  0.26245067547E+01  0.20444428688E+02  0.24021912915E+03  0.27104883062E+03  0.12384415961E+03 0.  0.
          5    1    4    4  502    0 -0.42491465982E+01 -0.64516991878E+02  0.48829073601E+02  0.81159509095E+02  0.47000000000E+01 0.  1.
         -5    1    4    4    0  502  0.16246398435E+01  0.44072563191E+02  0.13648008923E+03  0.14350587109E+03  0.47000000000E+01 0.  1.
          5    1    5    5  503    0 -0.54196214388E+02  0.34816273562E+02  0.15057051786E+03  0.16383825380E+03  0.47000000000E+01 0.  1.
         -5    1    5    5    0  503  0.56820721143E+02 -0.14371844874E+02  0.89648611284E+02  0.10721057682E+03  0.47000000000E+01 0.  1.
<mgrwt>
<rscale>  0 0.25427987E+03</rscale>
<asrwt>0</asrwt>
<pdfrwt beam="1">  1        1 0.70864804E-01 0.25427987E+03</pdfrwt>
<pdfrwt beam="2">  1       -1 0.53989171E-02 0.25427987E+03</pdfrwt>
<totfact> 0.78222460E+03</totfact>
</mgrwt>
</event>
<event>
 9    1  0.8093459E-001  0.2770769E+03  0.7818608E-02  0.1097296E+00
         -3   -1    0    0    0  501 -0.00000000000E+00  0.00000000000E+00  0.10732467187E+04  0.10732467187E+04  0.00000000000E+00 0. -1.
          3   -1    0    0  501    0  0.00000000000E+00 -0.00000000000E+00 -0.17883031364E+02  0.17883031364E+02  0.00000000000E+00 0. -1.
         35    2    1    2    0    0 -0.71054273576E-14  0.00000000000E+00  0.10553636874E+04  0.10911297501E+04  0.27707691880E+03 0.  0.
         25    2    3    3    0    0 -0.45790407484E+02 -0.48974451073E+01  0.38767917412E+03  0.41038915401E+03  0.12650442402E+03 0.  0.
         25    2    3    3    0    0  0.45790407484E+02  0.48974451073E+01  0.66768451324E+03  0.68074059608E+03  0.12443634333E+03 0.  0.
          5    1    4    4  502    0 -0.12681145074E+00  0.42729018116E+02  0.28516174481E+03  0.28838359137E+03  0.47000000000E+01 0.  1.
         -5    1    4    4    0  502 -0.45663596033E+02 -0.47626463223E+02  0.10251742931E+03  0.12200556263E+03  0.47000000000E+01 0.  1.
          5    1    5    5  503    0  0.71312553933E+01  0.61357976957E+02  0.25651337369E+03  0.26388796301E+03  0.47000000000E+01 0. -1.
         -5    1    5    5    0  503  0.38659152090E+02 -0.56460531850E+02  0.41117113955E+03  0.41685263307E+03  0.47000000000E+01 0. -1.
<mgrwt>
<rscale>  0 0.27707692E+03</rscale>
<asrwt>0</asrwt>
<pdfrwt beam="1">  1        3 0.27512364E-02 0.27707692E+03</pdfrwt>
<pdfrwt beam="2">  1       -3 0.16511483E+00 0.27707692E+03</pdfrwt>
<totfact> 0.39515353E+02</totfact>
</mgrwt>
</event>
<event>
 9    1  0.8093459E-001  0.2735804E+03  0.7818608E-02  0.1099248E+00
          2   -1    0    0  501    0  0.00000000000E+00  0.00000000000E+00  0.46180371504E+03  0.46180371504E+03  0.00000000000E+00 0. -1.
         -2   -1    0    0    0  501 -0.00000000000E+00 -0.00000000000E+00 -0.40518417601E+02  0.40518417601E+02  0.00000000000E+00 0. -1.
         35    2    1    2    0    0  0.00000000000E+00  0.00000000000E+00  0.42128529744E+03  0.50232213264E+03  0.27358037778E+03 0.  0.
         25    2    3    3    0    0  0.40331096423E+02  0.29112165060E+02  0.25706358924E+03  0.28982208160E+03  0.12426195949E+03 0.  0.
         25    2    3    3    0    0 -0.40331096423E+02 -0.29112165060E+02  0.16422170820E+03  0.21250005104E+03  0.12535304845E+03 0.  0.
          5    1    4    4  502    0  0.10366138343E+01  0.23856821424E+02 -0.49068710404E+01  0.24827200408E+02  0.47000000000E+01 0. -1.
         -5    1    4    4    0  502  0.39294482589E+02  0.52553436358E+01  0.26197046028E+03  0.26499488119E+03  0.47000000000E+01 0. -1.
          5    1    5    5  503    0 -0.29945262725E+02  0.47969577846E+02  0.74903609380E+02  0.93970420115E+02  0.47000000000E+01 0.  1.
         -5    1    5    5    0  503 -0.10385833698E+02 -0.77081742906E+02  0.89318098821E+02  0.11852963093E+03  0.47000000000E+01 0.  1.
<mgrwt>
<rscale>  0 0.27358038E+03</rscale>
<asrwt>0</asrwt>
<pdfrwt beam="1">  1        2 0.71046722E-01 0.27358038E+03</pdfrwt>
<pdfrwt beam="2">  1       -2 0.62336030E-02 0.27358038E+03</pdfrwt>
<totfact> 0.94371502E+03</totfact>
</mgrwt>
</event>
<event>
 9    1  0.8093459E-001  0.2780121E+03  0.7818608E-02  0.1096780E+00
         -1   -1    0    0    0  501 -0.00000000000E+00  0.00000000000E+00  0.21257329732E+02  0.21257329732E+02  0.00000000000E+00 0.  1.
          1   -1    0    0  501    0  0.00000000000E+00 -0.00000000000E+00 -0.90898929624E+03  0.90898929624E+03  0.00000000000E+00 0.  1.
         35    2    1    2    0    0  0.71054273576E-14  0.00000000000E+00 -0.88773196650E+03  0.93024662597E+03  0.27801212342E+03 0.  0.
         25    2    3    3    0    0  0.47606565144E+02 -0.10776113107E+02 -0.33840016855E+03  0.36441084122E+03  0.12608757855E+03 0.  0.
         25    2    3    3    0    0 -0.47606565144E+02  0.10776113107E+02 -0.54933179795E+03  0.56583578475E+03  0.12657883473E+03 0.  0.
          5    1    4    4  502    0  0.33790236266E+02  0.55210550476E+02 -0.12952992641E+03  0.14487952508E+03  0.47000000000E+01 0. -1.
         -5    1    4    4    0  502  0.13816328878E+02 -0.65986663583E+02 -0.20887024215E+03  0.21953131615E+03  0.47000000000E+01 0. -1.
          5    1    5    5  503    0 -0.10587740755E+02 -0.56797962825E+02 -0.26000152485E+03  0.26638504417E+03  0.47000000000E+01 0.  1.
         -5    1    5    5    0  503 -0.37018824389E+02  0.67574075932E+02 -0.28933027310E+03  0.29945074057E+03  0.47000000000E+01 0.  1.
<mgrwt>
<rscale>  0 0.27801212E+03</rscale>
<asrwt>0</asrwt>
<pdfrwt beam="1">  1        1 0.13984447E+00 0.27801212E+03</pdfrwt>
<pdfrwt beam="2">  1       -1 0.32703592E-02 0.27801212E+03</pdfrwt>
<totfact> 0.62308920E+03</totfact>
</mgrwt>
</event>
<event>
 9    1  0.8093459E-001  0.2698990E+03  0.7818608E-02  0.1101337E+00
          2   -1    0    0  501    0  0.00000000000E+00  0.00000000000E+00  0.82849016614E+03  0.82849016614E+03  0.00000000000E+00 0. -1.
         -2   -1    0    0    0  501 -0.00000000000E+00 -0.00000000000E+00 -0.21981386561E+02  0.21981386561E+02  0.00000000000E+00 0. -1.
         35    2    1    2    0    0  0.71054273576E-14 -0.71054273576E-14  0.80650877958E+03  0.85047155270E+03  0.26989896335E+03 0.  0.
         25    2    3    3    0    0  0.36031110980E+02  0.21197209158E+02  0.49503232979E+03  0.51247218605E+03  0.12579018761E+03 0.  0.
         25    2    3    3    0    0 -0.36031110980E+02 -0.21197209158E+02  0.31147644979E+03  0.33799936665E+03  0.12441234043E+03 0.  0.
          5    1    4    4  502    0  0.60724120949E+02  0.49259191074E+02  0.19595853535E+03  0.21103488893E+03  0.47000000000E+01 0. -1.
         -5    1    4    4    0  502 -0.24693009969E+02 -0.28061981916E+02  0.29907379444E+03  0.30143729712E+03  0.47000000000E+01 0. -1.
          5    1    5    5  503    0 -0.54861652876E+02  0.39111620474E+02  0.17307630528E+03  0.18578755949E+03  0.47000000000E+01 0. -1.
         -5    1    5    5    0  503  0.18830541896E+02 -0.60308829633E+02  0.13840014451E+03  0.15221180717E+03  0.47000000000E+01 0. -1.
<mgrwt>
<rscale>  0 0.26989896E+03</rscale>
<asrwt>0</asrwt>
<pdfrwt beam="1">  1        2 0.12746000E+00 0.26989896E+03</pdfrwt>
<pdfrwt beam="2">  1       -2 0.33817524E-02 0.26989896E+03</pdfrwt>
<totfact> 0.11950412E+04</totfact>
</mgrwt>
</event>
<event>
 9    1  0.8093459E-001  0.2743791E+03  0.7818608E-02  0.1098799E+00
         -2   -1    0    0    0  501 -0.00000000000E+00  0.00000000000E+00  0.15077380763E+03  0.15077380763E+03  0.00000000000E+00 0. -1.
          2   -1    0    0  501    0  0.00000000000E+00 -0.00000000000E+00 -0.12482922968E+03  0.12482922968E+03  0.00000000000E+00 0. -1.
         35    2    1    2    0    0  0.71054273576E-14 -0.71054273576E-14  0.25944577948E+02  0.27560303731E+03  0.27437914106E+03 0.  0.
         25    2    3    3    0    0 -0.43007394245E+02 -0.11605684084E+02 -0.21830009237E+02  0.13477322943E+03  0.12531139695E+03 0.  0.
         25    2    3    3    0    0  0.43007394245E+02  0.11605684084E+02  0.47774587185E+02  0.14082980788E+03  0.12476496201E+03 0.  0.
          5    1    4    4  502    0 -0.38130549672E+02 -0.53930396939E+02 -0.50440027529E+02  0.83238890607E+02  0.47000000000E+01 0. -1.
         -5    1    4    4    0  502 -0.48768445727E+01  0.42324712855E+02  0.28610018292E+02  0.51534338823E+02  0.47000000000E+01 0. -1.
          5    1    5    5  503    0 -0.15950969109E+02  0.50023660823E+02 -0.46973366215E+01  0.52924049627E+02  0.47000000000E+01 0.  1.
         -5    1    5    5    0  503  0.58958363354E+02 -0.38417976739E+02  0.52471923807E+02  0.87905758253E+02  0.47000000000E+01 0.  1.
<mgrwt>
<rscale>  0 0.27437914E+03</rscale>
<asrwt>0</asrwt>
<pdfrwt beam="1">  1        2 0.19204497E-01 0.27437914E+03</pdfrwt>
<pdfrwt beam="2">  1       -2 0.23195971E-01 0.27437914E+03</pdfrwt>
<totfact> 0.46933680E+03</totfact>
</mgrwt>
</event>
<event>
 9    1  0.8093459E-001  0.2772759E+03  0.7818608E-02  0.1097186E+00
          2   -1    0    0  501    0  0.00000000000E+00  0.00000000000E+00  0.28175127483E+04  0.28175127483E+04  0.00000000000E+00 0.  1.
         -2   -1    0    0    0  501 -0.00000000000E+00 -0.00000000000E+00 -0.68217925880E+01  0.68217925880E+01  0.00000000000E+00 0.  1.
         35    2    1    2    0    0 -0.71054273576E-14  0.00000000000E+00  0.28106909557E+04  0.28243345408E+04  0.27727594618E+03 0.  0.
         25    2    3    3    0    0 -0.44659649889E+02 -0.15394345015E+02  0.17774160947E+04  0.17824451203E+04  0.12518451579E+03 0.  0.
         25    2    3    3    0    0  0.44659649889E+02  0.15394345015E+02  0.10332748610E+04  0.10418894205E+04  0.12508059861E+03 0.  0.
          5    1    4    4  502    0 -0.67088979280E+02  0.64364874281E-01  0.16754261773E+04  0.16767754473E+04  0.47000000000E+01 0.  1.
         -5    1    4    4    0  502  0.22429329392E+02 -0.15458709889E+02  0.10198991745E+03  0.10566967299E+03  0.47000000000E+01 0.  1.
          5    1    5    5  503    0 -0.40028094063E+02 -0.13701319693E+02  0.40861606584E+03  0.41082740140E+03  0.47000000000E+01 0.  1.
         -5    1    5    5    0  503  0.84687743951E+02  0.29095664708E+02  0.62465879511E+03  0.63106201913E+03  0.47000000000E+01 0.  1.
<mgrwt>
<rscale>  0 0.27727595E+03</rscale>
<asrwt>0</asrwt>
<pdfrwt beam="1">  1        2 0.43346257E+00 0.27727595E+03</pdfrwt>
<pdfrwt beam="2">  1       -2 0.10495088E-02 0.27727595E+03</pdfrwt>
<totfact> 0.52904054E+03</totfact>
</mgrwt>
</event>
<event>
 9    1  0.8093459E-001  0.2727142E+03  0.7818608E-02  0.1099736E+00
          1   -1    0    0  501    0  0.00000000000E+00  0.00000000000E+00  0.13977374702E+04  0.13977374702E+04  0.00000000000E+00 0.  1.
         -1   -1    0    0    0  501 -0.00000000000E+00 -0.00000000000E+00 -0.13302399679E+02  0.13302399679E+02  0.00000000000E+00 0.  1.
         35    2    1    2    0    0  0.88817841970E-15  0.00000000000E+00  0.13844350706E+04  0.14110398699E+04  0.27271422753E+03 0.  0.
         25    2    3    3    0    0  0.15173415341E+01  0.45874200553E+01  0.97343414981E+03  0.98149898789E+03  0.12547060403E+03 0.  0.
         25    2    3    3    0    0 -0.15173415341E+01 -0.45874200553E+01  0.41100092076E+03  0.42954088203E+03  0.12474079414E+03 0.  0.
          5    1    4    4  502    0  0.55727108931E+01 -0.20974982324E+02  0.28174342600E+02  0.35873229171E+02  0.47000000000E+01 0.  1.
         -5    1    4    4    0  502 -0.40553693590E+01  0.25562402380E+02  0.94525980721E+03  0.94562575872E+03  0.47000000000E+01 0.  1.
          5    1    5    5  503    0 -0.13012414168E+02  0.57144223844E+02  0.15148307566E+03  0.16249306894E+03  0.47000000000E+01 0. -1.
         -5    1    5    5    0  503  0.11495072633E+02 -0.61731643900E+02  0.25951784509E+03  0.26704781309E+03  0.47000000000E+01 0. -1.
<mgrwt>
<rscale>  0 0.27271423E+03</rscale>
<asrwt>0</asrwt>
<pdfrwt beam="1">  1        1 0.21503642E+00 0.27271423E+03</pdfrwt>
<pdfrwt beam="2">  1       -1 0.20465241E-02 0.27271423E+03</pdfrwt>
<totfact> 0.55518258E+03</totfact>
</mgrwt>
</event>
<event>
 9    1  0.8093459E-001  0.2715231E+03  0.7818608E-02  0.1100411E+00
          1   -1    0    0  501    0  0.00000000000E+00  0.00000000000E+00  0.29744683200E+03  0.29744683200E+03  0.00000000000E+00 0. -1.
         -1   -1    0    0    0  501 -0.00000000000E+00 -0.00000000000E+00 -0.61964689347E+02  0.61964689347E+02  0.00000000000E+00 0. -1.
         35    2    1    2    0    0 -0.71054273576E-14  0.71054273576E-14  0.23548214266E+03  0.35941152135E+03  0.27152311535E+03 0.  0.
         25    2    3    3    0    0 -0.52134201191E+02 -0.41760053531E+01  0.10767392948E+03  0.17310603424E+03  0.12504643156E+03 0.  0.
         25    2    3    3    0    0  0.52134201191E+02  0.41760053531E+01  0.12780821318E+03  0.18630548711E+03  0.12505751164E+03 0.  0.
          5    1    4    4  502    0 -0.29071320789E+02  0.34419054325E+02  0.11829328968E+03  0.12666967031E+03  0.47000000000E+01 0. -1.
         -5    1    4    4    0  502 -0.23062880403E+02 -0.38595059679E+02 -0.10619360201E+02  0.46436363931E+02  0.47000000000E+01 0. -1.
          5    1    5    5  503    0  0.28686654967E+02 -0.52085433138E+02  0.10556588560E+03  0.12125206275E+03  0.47000000000E+01 0. -1.
         -5    1    5    5    0  503  0.23447546224E+02  0.56261438491E+02  0.22242327578E+02  0.65053424361E+02  0.47000000000E+01 0. -1.
<mgrwt>
<rscale>  0 0.27152312E+03</rscale>
<asrwt>0</asrwt>
<pdfrwt beam="1">  1        1 0.45761050E-01 0.27152312E+03</pdfrwt>
<pdfrwt beam="2">  1       -1 0.95330293E-02 0.27152312E+03</pdfrwt>
<totfact> 0.57732939E+03</totfact>
</mgrwt>
</event>
<event>
 9    1  0.8093459E-001  0.2762557E+03  0.7818608E-02  0.1097752E+00
         -1   -1    0    0    0  501 -0.00000000000E+00  0.00000000000E+00  0.54112464652E+02  0.54112464652E+02  0.00000000000E+00 0. -1.
          1   -1    0    0  501    0  0.00000000000E+00 -0.00000000000E+00 -0.35258603719E+03  0.35258603719E+03  0.00000000000E+00 0. -1.
         35    2    1    2    0    0  0.00000000000E+00  0.71054273576E-14 -0.29847357253E+03  0.40669850184E+03  0.27625567487E+03 0.  0.
         25    2    3    3    0    0 -0.29393274037E+02  0.16194160755E+02 -0.75495352061E+02  0.14899355941E+03  0.12398918164E+03 0.  0.
         25    2    3    3    0    0  0.29393274037E+02 -0.16194160755E+02 -0.22297822047E+03  0.25770494242E+03  0.12476511990E+03 0.  0.
          5    1    4    4  502    0 -0.61867335965E+02  0.23100752714E+02 -0.90603735286E+02  0.11221559109E+03  0.47000000000E+01 0. -1.
         -5    1    4    4    0  502  0.32474061928E+02 -0.69065919588E+01  0.15108383226E+02  0.36777968327E+02  0.47000000000E+01 0. -1.
          5    1    5    5  503    0  0.80574776672E+01  0.37103881619E+02 -0.13689192373E+02  0.40633790930E+02  0.47000000000E+01 0.  1.
         -5    1    5    5    0  503  0.21335796370E+02 -0.53298042373E+02 -0.20928902810E+03  0.21707115149E+03  0.47000000000E+01 0.  1.
<mgrwt>
<rscale>  0 0.27625567E+03</rscale>
<asrwt>0</asrwt>
<pdfrwt beam="1">  1        1 0.54244004E-01 0.27625567E+03</pdfrwt>
<pdfrwt beam="2">  1       -1 0.83249949E-02 0.27625567E+03</pdfrwt>
<totfact> 0.57388084E+03</totfact>
</mgrwt>
</event>
<event>
 9    1  0.8093459E-001  0.2737365E+03  0.7818608E-02  0.1099160E+00
         -1   -1    0    0    0  501 -0.00000000000E+00  0.00000000000E+00  0.63106612516E+01  0.63106612516E+01  0.00000000000E+00 0.  1.
          1   -1    0    0  501    0  0.00000000000E+00 -0.00000000000E+00 -0.29684562958E+04  0.29684562958E+04  0.00000000000E+00 0.  1.
         35    2    1    2    0    0  0.00000000000E+00  0.00000000000E+00 -0.29621456346E+04  0.29747669571E+04  0.27373653116E+03 0.  0.
         25    2    3    3    0    0 -0.21058583958E+02 -0.35345904982E+02 -0.19293902930E+04  0.19338425643E+04  0.12452856709E+03 0.  0.
         25    2    3    3    0    0  0.21058583958E+02  0.35345904982E+02 -0.10327553416E+04  0.10409243927E+04  0.12347954836E+03 0.  0.
          5    1    4    4  502    0 -0.32923086761E+02 -0.70031533088E+02 -0.77663330740E+03  0.78049326033E+03  0.47000000000E+01 0.  1.
         -5    1    4    4    0  502  0.11864502803E+02  0.34685628106E+02 -0.11527569856E+04  0.11533493040E+04  0.47000000000E+01 0.  1.
          5    1    5    5  503    0  0.39620066185E+02  0.60461466436E+02 -0.34892206066E+03  0.35636222160E+03  0.47000000000E+01 0.  1.
         -5    1    5    5    0  503 -0.18561482227E+02 -0.25115561455E+02 -0.68383328094E+03  0.68456217115E+03  0.47000000000E+01 0.  1.
<mgrwt>
<rscale>  0 0.27373653E+03</rscale>
<asrwt>0</asrwt>
<pdfrwt beam="1">  1        1 0.45668626E+00 0.27373653E+03</pdfrwt>
<pdfrwt beam="2">  1       -1 0.97086952E-03 0.27373653E+03</pdfrwt>
<totfact> 0.14951340E+03</totfact>
</mgrwt>
</event>
<event>
 9    1  0.8093459E-001  0.2549266E+03  0.7818608E-02  0.1110230E+00
         -2   -1    0    0    0  501 -0.00000000000E+00  0.00000000000E+00  0.92868816620E+01  0.92868816620E+01  0.00000000000E+00 0.  1.
          2   -1    0    0  501    0  0.00000000000E+00 -0.00000000000E+00 -0.17494460330E+04  0.17494460330E+04  0.00000000000E+00 0.  1.
         35    2    1    2    0    0  0.00000000000E+00  0.00000000000E+00 -0.17401591513E+04  0.17587329146E+04  0.25492664264E+03 0.  0.
         25    2    3    3    0    0 -0.50225654747E+01 -0.21213105117E+02 -0.95150296889E+03  0.95995889011E+03  0.12525154248E+03 0.  0.
         25    2    3    3    0    0  0.50225654747E+01  0.21213105117E+02 -0.78865618241E+03  0.79877402452E+03  0.12484448806E+03 0.  0.
          5    1    4    4  502    0  0.55078069901E+02 -0.34705464931E+02 -0.47086354345E+03  0.47536578509E+03  0.47000000000E+01 0. -1.
         -5    1    4    4    0  502 -0.60100635376E+02  0.13492359814E+02 -0.48063942544E+03  0.48459310502E+03  0.47000000000E+01 0. -1.
          5    1    5    5  503    0 -0.54783302339E+02 -0.14569060671E+02 -0.35476963054E+03  0.35930077720E+03  0.47000000000E+01 0.  1.
         -5    1    5    5    0  503  0.59805867813E+02  0.35782165788E+02 -0.43388655188E+03  0.43947324733E+03  0.47000000000E+01 0.  1.
<mgrwt>
<rscale>  0 0.25492664E+03</rscale>
<asrwt>0</asrwt>
<pdfrwt beam="1">  1        2 0.26914564E+00 0.25492664E+03</pdfrwt>
<pdfrwt beam="2">  1       -2 0.14287505E-02 0.25492664E+03</pdfrwt>
<totfact> 0.12721984E+04</totfact>
</mgrwt>
</event>
<event>
 9    1  0.8093459E-001  0.2757543E+03  0.7818608E-02  0.1098031E+00
          1   -1    0    0  501    0  0.00000000000E+00  0.00000000000E+00  0.18160218925E+04  0.18160218925E+04  0.00000000000E+00 0. -1.
         -1   -1    0    0    0  501 -0.00000000000E+00 -0.00000000000E+00 -0.10467993676E+02  0.10467993676E+02  0.00000000000E+00 0. -1.
         35    2    1    2    0    0 -0.14210854715E-13  0.00000000000E+00  0.18055538988E+04  0.18264898862E+04  0.27575427965E+03 0.  0.
         25    2    3    3    0    0 -0.44535990146E+02 -0.36881113882E+01  0.62719277844E+03  0.64067611053E+03  0.12287408470E+03 0.  0.
         25    2    3    3    0    0  0.44535990146E+02  0.36881113882E+01  0.11783611204E+04  0.11858137757E+04  0.12498929514E+03 0.  0.
          5    1    4    4  502    0  0.40188023482E+02  0.71609642668E+01  0.28528929690E+03  0.28823329018E+03  0.47000000000E+01 0. -1.
         -5    1    4    4    0  502 -0.84724013628E+02 -0.10849075655E+02  0.34190348154E+03  0.35244282036E+03  0.47000000000E+01 0. -1.
          5    1    5    5  503    0  0.89436419383E+01  0.62475399116E+02  0.61919466954E+03  0.62242051140E+03  0.47000000000E+01 0.  1.
         -5    1    5    5    0  503  0.35592348208E+02 -0.58787287728E+02  0.55916645086E+03  0.56339326426E+03  0.47000000000E+01 0.  1.
<mgrwt>
<rscale>  0 0.27575428E+03</rscale>
<asrwt>0</asrwt>
<pdfrwt beam="1">  1        1 0.27938773E+00 0.27575428E+03</pdfrwt>
<pdfrwt beam="2">  1       -1 0.16104620E-02 0.27575428E+03</pdfrwt>
<totfact> 0.41804752E+03</totfact>
</mgrwt>
</event>
<event>
 9    1  0.8093459E-001  0.2764351E+03  0.7818608E-02  0.1097652E+00
          2   -1    0    0  501    0  0.00000000000E+00  0.00000000000E+00  0.77515479538E+03  0.77515479538E+03  0.00000000000E+00 0.  1.
         -2   -1    0    0    0  501 -0.00000000000E+00 -0.00000000000E+00 -0.24645517033E+02  0.24645517033E+02  0.00000000000E+00 0.  1.
         35    2    1    2    0    0  0.00000000000E+00 -0.35527136788E-14  0.75050927835E+03  0.79980031242E+03  0.27643509700E+03 0.  0.
         25    2    3    3    0    0  0.48566372908E+02 -0.31718056576E+02  0.34180535205E+03  0.36853472726E+03  0.12498887476E+03 0.  0.
         25    2    3    3    0    0 -0.48566372908E+02  0.31718056576E+02  0.40870392630E+03  0.43126558516E+03  0.12484541593E+03 0.  0.
          5    1    4    4  502    0 -0.25861796546E+02  0.30786163906E+02  0.10203660666E+03  0.10977330963E+03  0.47000000000E+01 0.  1.
         -5    1    4    4    0  502  0.74428169454E+02 -0.62504220481E+02  0.23976874539E+03  0.25876141762E+03  0.47000000000E+01 0.  1.
          5    1    5    5  503    0 -0.69757255619E+02 -0.11067808839E+02  0.12602300346E+03  0.14454223779E+03  0.47000000000E+01 0.  1.
         -5    1    5    5    0  503  0.21190882711E+02  0.42785865414E+02  0.28268092284E+03  0.28672334737E+03  0.47000000000E+01 0.  1.
<mgrwt>
<rscale>  0 0.27643510E+03</rscale>
<asrwt>0</asrwt>
<pdfrwt beam="1">  1        2 0.11925457E+00 0.27643510E+03</pdfrwt>
<pdfrwt beam="2">  1       -2 0.37916186E-02 0.27643510E+03</pdfrwt>
<totfact> 0.10968897E+04</totfact>
</mgrwt>
</event>
<event>
 9    1  0.8093459E-001  0.2777821E+03  0.7818608E-02  0.1096907E+00
         -1   -1    0    0    0  501 -0.00000000000E+00  0.00000000000E+00  0.64794327538E+02  0.64794327538E+02  0.00000000000E+00 0. -1.
          1   -1    0    0  501    0  0.00000000000E+00 -0.00000000000E+00 -0.29772233335E+03  0.29772233335E+03  0.00000000000E+00 0. -1.
         35    2    1    2    0    0  0.00000000000E+00  0.00000000000E+00 -0.23292800581E+03  0.36251666088E+03  0.27778206121E+03 0.  0.
         25    2    3    3    0    0  0.25233487340E+02  0.27712236948E+02 -0.56627210251E+02  0.14327670444E+03  0.12616210261E+03 0.  0.
         25    2    3    3    0    0 -0.25233487340E+02 -0.27712236948E+02 -0.17630079556E+03  0.21923995645E+03  0.12481783137E+03 0.  0.
          5    1    4    4  502    0 -0.45922558364E+02 -0.19642782956E+01  0.20917292360E+01  0.46251541456E+02  0.47000000000E+01 0.  1.
         -5    1    4    4    0  502  0.71156045703E+02  0.29676515244E+02 -0.58718939487E+02  0.97025162982E+02  0.47000000000E+01 0.  1.
          5    1    5    5  503    0  0.30746828202E+01  0.41880366103E+02 -0.11382319132E+03  0.12141345734E+03  0.47000000000E+01 0.  1.
         -5    1    5    5    0  503 -0.28308170160E+02 -0.69592603051E+02 -0.62477604232E+02  0.97826499108E+02  0.47000000000E+01 0.  1.
<mgrwt>
<rscale>  0 0.27778206E+03</rscale>
<asrwt>0</asrwt>
<pdfrwt beam="1">  1        1 0.45803437E-01 0.27778206E+03</pdfrwt>
<pdfrwt beam="2">  1       -1 0.99683579E-02 0.27778206E+03</pdfrwt>
<totfact> 0.53866057E+03</totfact>
</mgrwt>
</event>
<event>
 9    1  0.8093459E-001  0.2752287E+03  0.7818608E-02  0.1098324E+00
         -2   -1    0    0    0  501 -0.00000000000E+00  0.00000000000E+00  0.11850606053E+02  0.11850606053E+02  0.00000000000E+00 0. -1.
          2   -1    0    0  501    0  0.00000000000E+00 -0.00000000000E+00 -0.15980371556E+04  0.15980371556E+04  0.00000000000E+00 0. -1.
         35    2    1    2    0    0  0.00000000000E+00  0.35527136788E-14 -0.15861865496E+04  0.16098877617E+04  0.27522869610E+03 0.  0.
         25    2    3    3    0    0  0.53547484369E+02 -0.27791233438E+01 -0.90648527200E+03  0.91670160682E+03  0.12550390823E+03 0.  0.
         25    2    3    3    0    0 -0.53547484369E+02  0.27791233438E+01 -0.67970127756E+03  0.69318615484E+03  0.12505263671E+03 0.  0.
          5    1    4    4  502    0  0.70891797653E+02  0.45034066066E+02 -0.62274311025E+03  0.62839858804E+03  0.47000000000E+01 0.  1.
         -5    1    4    4    0  502 -0.17344313284E+02 -0.47813189410E+02 -0.28374216175E+03  0.28830301879E+03  0.47000000000E+01 0.  1.
          5    1    5    5  503    0 -0.10536178636E+02  0.17279728882E+02 -0.12133566494E+02  0.24060621903E+02  0.47000000000E+01 0. -1.
         -5    1    5    5    0  503 -0.43011305733E+02 -0.14500605538E+02 -0.66756771106E+03  0.66912553294E+03  0.47000000000E+01 0. -1.
<mgrwt>
<rscale>  0 0.27522870E+03</rscale>
<asrwt>0</asrwt>
<pdfrwt beam="1">  1        2 0.24585178E+00 0.27522870E+03</pdfrwt>
<pdfrwt beam="2">  1       -2 0.18231708E-02 0.27522870E+03</pdfrwt>
<totfact> 0.10716998E+04</totfact>
</mgrwt>
</event>
<event>
 9    1  0.8093459E-001  0.2741889E+03  0.7818608E-02  0.1098906E+00
         -1   -1    0    0    0  501 -0.00000000000E+00  0.00000000000E+00  0.25036378202E+03  0.25036378202E+03  0.00000000000E+00 0. -1.
          1   -1    0    0  501    0  0.00000000000E+00 -0.00000000000E+00 -0.75070308733E+02  0.75070308733E+02  0.00000000000E+00 0. -1.
         35    2    1    2    0    0 -0.35527136788E-14  0.00000000000E+00  0.17529347328E+03  0.32543409075E+03  0.27418888680E+03 0.  0.
         25    2    3    3    0    0  0.29734757190E+02  0.45473920920E+02  0.63469494269E+02  0.14922589477E+03  0.12364448106E+03 0.  0.
         25    2    3    3    0    0 -0.29734757190E+02 -0.45473920920E+02  0.11182397901E+03  0.17620819598E+03  0.12487070425E+03 0.  0.
          5    1    4    4  502    0 -0.14663898261E+02  0.71523018261E+02  0.83107177555E+01  0.73632398325E+02  0.47000000000E+01 0. -1.
         -5    1    4    4    0  502  0.44398655451E+02 -0.26049097341E+02  0.55158776514E+02  0.75593496444E+02  0.47000000000E+01 0. -1.
          5    1    5    5  503    0  0.29357634271E+02  0.28268407440E+01 -0.10748019692E+02  0.31740693847E+02  0.47000000000E+01 0.  1.
         -5    1    5    5    0  503 -0.59092391461E+02 -0.48300761664E+02  0.12257199870E+03  0.14446750213E+03  0.47000000000E+01 0.  1.
<mgrwt>
<rscale>  0 0.27418889E+03</rscale>
<asrwt>0</asrwt>
<pdfrwt beam="1">  1        1 0.11549278E-01 0.27418889E+03</pdfrwt>
<pdfrwt beam="2">  1       -1 0.38517505E-01 0.27418889E+03</pdfrwt>
<totfact> 0.34717451E+03</totfact>
</mgrwt>
</event>
<event>
 9    1  0.8093459E-001  0.2712620E+03  0.7818608E-02  0.1100559E+00
          1   -1    0    0  501    0  0.00000000000E+00  0.00000000000E+00  0.15859777048E+04  0.15859777048E+04  0.00000000000E+00 0. -1.
         -1   -1    0    0    0  501 -0.00000000000E+00 -0.00000000000E+00 -0.11599010796E+02  0.11599010796E+02  0.00000000000E+00 0. -1.
         35    2    1    2    0    0  0.00000000000E+00  0.17763568394E-14  0.15743786940E+04  0.15975767156E+04  0.27126203214E+03 0.  0.
         25    2    3    3    0    0  0.46307135401E+02 -0.51443007881E+01  0.70661213928E+03  0.71954073854E+03  0.12754350013E+03 0.  0.
         25    2    3    3    0    0 -0.46307135401E+02  0.51443007881E+01  0.86776655476E+03  0.87803597709E+03  0.12552915551E+03 0.  0.
          5    1    4    4  502    0  0.10042962242E+02  0.10592198126E+02  0.65082653009E+03  0.65100715666E+03  0.47000000000E+01 0.  1.
         -5    1    4    4    0  502  0.36264173159E+02 -0.15736498914E+02  0.55785609186E+02  0.68533581879E+02  0.47000000000E+01 0.  1.
          5    1    5    5  503    0 -0.48568214687E+02  0.58151584459E+02  0.61858221593E+03  0.62322269384E+03  0.47000000000E+01 0.  1.
         -5    1    5    5    0  503  0.22610792860E+01 -0.53007283670E+02  0.24918433883E+03  0.25481328325E+03  0.47000000000E+01 0.  1.
<mgrwt>
<rscale>  0 0.27126203E+03</rscale>
<asrwt>0</asrwt>
<pdfrwt beam="1">  1        1 0.24399640E+00 0.27126203E+03</pdfrwt>
<pdfrwt beam="2">  1       -1 0.17844645E-02 0.27126203E+03</pdfrwt>
<totfact> 0.50862621E+03</totfact>
</mgrwt>
</event>
<event>
 9    1  0.8093459E-001  0.2657035E+03  0.7818608E-02  0.1103764E+00
          2   -1    0    0  501    0  0.00000000000E+00  0.00000000000E+00  0.36340351785E+03  0.36340351785E+03  0.00000000000E+00 0. -1.
         -2   -1    0    0    0  501 -0.00000000000E+00 -0.00000000000E+00 -0.48567448169E+02  0.48567448169E+02  0.00000000000E+00 0. -1.
         35    2    1    2    0    0  0.00000000000E+00 -0.71054273576E-14  0.31483606968E+03  0.41197096602E+03  0.26570345513E+03 0.  0.
         25    2    3    3    0    0 -0.34985331221E+02 -0.23635748425E+02  0.18649398187E+03  0.22787755484E+03  0.12395786671E+03 0.  0.
         25    2    3    3    0    0  0.34985331221E+02  0.23635748425E+02  0.12834208780E+03  0.18409341118E+03  0.12504427429E+03 0.  0.
          5    1    4    4  502    0 -0.20183697519E+02  0.98169690826E+00  0.19612469224E+03  0.19721899067E+03  0.47000000000E+01 0. -1.
         -5    1    4    4    0  502 -0.14801633702E+02 -0.24617445333E+02 -0.96307103622E+01  0.30658564171E+02  0.47000000000E+01 0. -1.
          5    1    5    5  503    0  0.27030191824E+02  0.74766497995E+02  0.70771001601E+02  0.10654241015E+03  0.47000000000E+01 0. -1.
         -5    1    5    5    0  503  0.79551393968E+01 -0.51130749570E+02  0.57571086203E+02  0.77551001032E+02  0.47000000000E+01 0. -1.
<mgrwt>
<rscale>  0 0.26570346E+03</rscale>
<asrwt>0</asrwt>
<pdfrwt beam="1">  1        2 0.55908232E-01 0.26570346E+03</pdfrwt>
<pdfrwt beam="2">  1       -2 0.74719153E-02 0.26570346E+03</pdfrwt>
<totfact> 0.92496847E+03</totfact>
</mgrwt>
</event>
<event>
 9    1  0.8093459E-001  0.2740491E+03  0.7818608E-02  0.1098984E+00
          2   -1    0    0  501    0  0.00000000000E+00  0.00000000000E+00  0.15513241648E+03  0.15513241648E+03  0.00000000000E+00 0.  1.
         -2   -1    0    0    0  501 -0.00000000000E+00 -0.00000000000E+00 -0.12103035133E+03  0.12103035133E+03  0.00000000000E+00 0.  1.
         35    2    1    2    0    0  0.00000000000E+00 -0.35527136788E-14  0.34102065150E+02  0.27616276781E+03  0.27404912603E+03 0.  0.
         25    2    3    3    0    0  0.51541863295E+02 -0.21858824595E+02  0.20980347459E+02  0.13849096554E+03  0.12492077759E+03 0.  0.
         25    2    3    3    0    0 -0.51541863295E+02  0.21858824595E+02  0.13121717691E+02  0.13767180227E+03  0.12508786424E+03 0.  0.
          5    1    4    4  502    0 -0.14062349207E+02 -0.45872727845E+02 -0.25412444271E+02  0.54497148081E+02  0.47000000000E+01 0.  1.
         -5    1    4    4    0  502  0.65604212502E+02  0.24013903250E+02  0.46392791731E+02  0.83993817463E+02  0.47000000000E+01 0.  1.
          5    1    5    5  503    0 -0.59002385924E+02  0.27927361983E+02  0.60483529169E+02  0.89115466630E+02  0.47000000000E+01 0. -1.
         -5    1    5    5    0  503  0.74605226287E+01 -0.60685373881E+01 -0.47361811477E+02  0.48556335636E+02  0.47000000000E+01 0. -1.
<mgrwt>
<rscale>  0 0.27404913E+03</rscale>
<asrwt>0</asrwt>
<pdfrwt beam="1">  1        2 0.23866526E-01 0.27404913E+03</pdfrwt>
<pdfrwt beam="2">  1       -2 0.18620054E-01 0.27404913E+03</pdfrwt>
<totfact> 0.53494559E+03</totfact>
</mgrwt>
</event>
<event>
 9    1  0.8093459E-001  0.2723332E+03  0.7818608E-02  0.1099952E+00
         -2   -1    0    0    0  501 -0.00000000000E+00  0.00000000000E+00  0.12740063403E+03  0.12740063403E+03  0.00000000000E+00 0. -1.
          2   -1    0    0  501    0  0.00000000000E+00 -0.00000000000E+00 -0.14553571610E+03  0.14553571610E+03  0.00000000000E+00 0. -1.
         35    2    1    2    0    0  0.00000000000E+00  0.35527136788E-14 -0.18135082068E+02  0.27293635013E+03  0.27233319669E+03 0.  0.
         25    2    3    3    0    0 -0.44852677086E+02  0.15943350012E+01  0.20990079337E+02  0.13478658458E+03  0.12534965260E+03 0.  0.
         25    2    3    3    0    0  0.44852677086E+02 -0.15943350012E+01 -0.39125161406E+02  0.13814976555E+03  0.12466063902E+03 0.  0.
          5    1    4    4  502    0  0.39036770662E+02  0.20948303511E+02 -0.47542331611E+01  0.44803946440E+02  0.47000000000E+01 0.  1.
         -5    1    4    4    0  502 -0.83889447747E+02 -0.19353968510E+02  0.25744312498E+02  0.89982638139E+02  0.47000000000E+01 0.  1.
          5    1    5    5  503    0  0.36520810975E+02 -0.45812616169E+02 -0.63692686712E+02  0.86668412788E+02  0.47000000000E+01 0. -1.
         -5    1    5    5    0  503  0.83318661102E+01  0.44218281168E+02  0.24567525307E+02  0.51481352760E+02  0.47000000000E+01 0. -1.
<mgrwt>
<rscale>  0 0.27233320E+03</rscale>
<asrwt>0</asrwt>
<pdfrwt beam="1">  1        2 0.22390110E-01 0.27233320E+03</pdfrwt>
<pdfrwt beam="2">  1       -2 0.19600097E-01 0.27233320E+03</pdfrwt>
<totfact> 0.52671777E+03</totfact>
</mgrwt>
</event>
<event>
 9    1  0.8093459E-001  0.2872194E+03  0.7818608E-02  0.1091810E+00
         -2   -1    0    0    0  501 -0.00000000000E+00  0.00000000000E+00  0.12071809404E+03  0.12071809404E+03  0.00000000000E+00 0.  1.
          2   -1    0    0  501    0  0.00000000000E+00 -0.00000000000E+00 -0.17084215540E+03  0.17084215540E+03  0.00000000000E+00 0.  1.
         35    2    1    2    0    0  0.00000000000E+00  0.00000000000E+00 -0.50124061359E+02  0.29156024944E+03  0.28721935437E+03 0.  0.
         25    2    3    3    0    0 -0.72902685145E+01 -0.67153640489E+02 -0.97381160964E+01  0.14332738215E+03  0.12603629685E+03 0.  0.
         25    2    3    3    0    0  0.72902685145E+01  0.67153640489E+02 -0.40385945263E+02  0.14823286729E+03  0.12561528141E+03 0.  0.
          5    1    4    4  502    0 -0.20479339469E+02  0.24294252212E+02  0.28768547688E+02  0.43119988076E+02  0.47000000000E+01 0. -1.
         -5    1    4    4    0  502  0.13189070955E+02 -0.91447892701E+02 -0.38506663784E+02  0.10020739408E+03  0.47000000000E+01 0. -1.
          5    1    5    5  503    0 -0.15213862003E+02  0.62323735328E+02  0.32203729333E+02  0.71936637155E+02  0.47000000000E+01 0.  1.
         -5    1    5    5    0  503  0.22504130518E+02  0.48299051612E+01 -0.72589674595E+02  0.76296230130E+02  0.47000000000E+01 0.  1.
<mgrwt>
<rscale>  0 0.28721935E+03</rscale>
<asrwt>0</asrwt>
<pdfrwt beam="1">  1        2 0.26283409E-01 0.28721935E+03</pdfrwt>
<pdfrwt beam="2">  1       -2 0.18572014E-01 0.28721935E+03</pdfrwt>
<totfact> 0.48311007E+03</totfact>
</mgrwt>
</event>
<event>
 9    1  0.8093459E-001  0.2708110E+03  0.7818608E-02  0.1100816E+00
          1   -1    0    0  501    0  0.00000000000E+00  0.00000000000E+00  0.41467862534E+03  0.41467862534E+03  0.00000000000E+00 0. -1.
         -1   -1    0    0    0  501 -0.00000000000E+00 -0.00000000000E+00 -0.44214119129E+02  0.44214119129E+02  0.00000000000E+00 0. -1.
         35    2    1    2    0    0  0.00000000000E+00  0.00000000000E+00  0.37046450621E+03  0.45889274447E+03  0.27081100525E+03 0.  0.
         25    2    3    3    0    0  0.17305003155E+02 -0.46456372562E+02  0.20668222656E+03  0.24696820466E+03  0.12577000298E+03 0.  0.
         25    2    3    3    0    0 -0.17305003155E+02  0.46456372562E+02  0.16378227965E+03  0.21192453981E+03  0.12501886962E+03 0.  0.
          5    1    4    4  502    0  0.18328885876E+02  0.38648236657E+02  0.35685666001E+02  0.55903407876E+02  0.47000000000E+01 0. -1.
         -5    1    4    4    0  502 -0.10238827208E+01 -0.85104609220E+02  0.17099656056E+03  0.19106479679E+03  0.47000000000E+01 0. -1.
          5    1    5    5  503    0  0.53251665520E+02  0.10817803316E+02  0.78035844043E+02  0.95207393120E+02  0.47000000000E+01 0.  1.
         -5    1    5    5    0  503 -0.70556668675E+02  0.35638569247E+02  0.85746435607E+02  0.11671714669E+03  0.47000000000E+01 0.  1.
<mgrwt>
<rscale>  0 0.27081101E+03</rscale>
<asrwt>0</asrwt>
<pdfrwt beam="1">  1        1 0.63796709E-01 0.27081101E+03</pdfrwt>
<pdfrwt beam="2">  1       -1 0.68021725E-02 0.27081101E+03</pdfrwt>
<totfact> 0.63413188E+03</totfact>
</mgrwt>
</event>
<event>
 9    1  0.8093459E-001  0.2806994E+03  0.7818608E-02  0.1095308E+00
          2   -1    0    0  501    0  0.00000000000E+00  0.00000000000E+00  0.39861427002E+04  0.39861427002E+04  0.00000000000E+00 0.  1.
         -2   -1    0    0    0  501 -0.00000000000E+00 -0.00000000000E+00 -0.49416273892E+01  0.49416273892E+01  0.00000000000E+00 0.  1.
         35    2    1    2    0    0 -0.14210854715E-13  0.00000000000E+00  0.39812010728E+04  0.39910843276E+04  0.28069935479E+03 0.  0.
         25    2    3    3    0    0  0.59805898205E+02 -0.16192451567E+02  0.22027107233E+04  0.22071416704E+04  0.12530315933E+03 0.  0.
         25    2    3    3    0    0 -0.59805898205E+02  0.16192451567E+02  0.17784903495E+04  0.17839426572E+04  0.12483805461E+03 0.  0.
          5    1    4    4  502    0  0.17241749902E+02 -0.15569764334E+02  0.19910750785E+04  0.19912161494E+04  0.47000000000E+01 0.  1.
         -5    1    4    4    0  502  0.42564148303E+02 -0.62268723276E+00  0.21163564481E+03  0.21592552099E+03  0.47000000000E+01 0.  1.
          5    1    5    5  503    0 -0.65031814060E+02 -0.43542225482E+02  0.90940643296E+03  0.91277993654E+03  0.47000000000E+01 0. -1.
         -5    1    5    5    0  503  0.52259158553E+01  0.59734677048E+02  0.86908391656E+03  0.87116272066E+03  0.47000000000E+01 0. -1.
<mgrwt>
<rscale>  0 0.28069935E+03</rscale>
<asrwt>0</asrwt>
<pdfrwt beam="1">  1        2 0.61325015E+00 0.28069935E+03</pdfrwt>
<pdfrwt beam="2">  1       -2 0.76025355E-03 0.28069935E+03</pdfrwt>
<totfact> 0.14524011E+03</totfact>
</mgrwt>
</event>
<event>
 9    1  0.8093459E-001  0.2790680E+03  0.7818608E-02  0.1096199E+00
          2   -1    0    0  501    0  0.00000000000E+00  0.00000000000E+00  0.32647690260E+02  0.32647690260E+02  0.00000000000E+00 0. -1.
         -2   -1    0    0    0  501 -0.00000000000E+00 -0.00000000000E+00 -0.59635893678E+03  0.59635893678E+03  0.00000000000E+00 0. -1.
         35    2    1    2    0    0  0.71054273576E-14  0.00000000000E+00 -0.56371124652E+03  0.62900662704E+03  0.27906803365E+03 0.  0.
         25    2    3    3    0    0  0.50832492493E+02 -0.32878428268E+02 -0.31692389508E+03  0.34614598639E+03  0.12534494517E+03 0.  0.
         25    2    3    3    0    0 -0.50832492493E+02  0.32878428268E+02 -0.24678735144E+03  0.28286064065E+03  0.12426267284E+03 0.  0.
          5    1    4    4  502    0  0.10435970449E+02 -0.13601932465E+02 -0.29596598945E+03  0.29649937430E+03  0.47000000000E+01 0. -1.
         -5    1    4    4    0  502  0.40396522044E+02 -0.19276495803E+02 -0.20957905630E+02  0.49646612091E+02  0.47000000000E+01 0. -1.
          5    1    5    5  503    0 -0.75734704432E+00  0.55576171061E+02 -0.20816097286E+03  0.21550490710E+03  0.47000000000E+01 0.  1.
         -5    1    5    5    0  503 -0.50075145449E+02 -0.22697742793E+02 -0.38626378578E+02  0.67355733547E+02  0.47000000000E+01 0.  1.
<mgrwt>
<rscale>  0 0.27906803E+03</rscale>
<asrwt>0</asrwt>
<pdfrwt beam="1">  1        2 0.50227216E-02 0.27906803E+03</pdfrwt>
<pdfrwt beam="2">  1       -2 0.91747528E-01 0.27906803E+03</pdfrwt>
<totfact> 0.16340035E+03</totfact>
</mgrwt>
</event>
<event>
 9    1  0.8093459E-001  0.2804935E+03  0.7818608E-02  0.1095420E+00
         -1   -1    0    0    0  501 -0.00000000000E+00  0.00000000000E+00  0.11936667985E+03  0.11936667985E+03  0.00000000000E+00 0.  1.
          1   -1    0    0  501    0  0.00000000000E+00 -0.00000000000E+00 -0.16477920885E+03  0.16477920885E+03  0.00000000000E+00 0.  1.
         35    2    1    2    0    0  0.00000000000E+00  0.71054273576E-14 -0.45412529003E+02  0.28414588870E+03  0.28049347278E+03 0.  0.
         25    2    3    3    0    0  0.20222099802E+01 -0.42244878273E+02 -0.69340689244E+02  0.14933686156E+03  0.12531818688E+03 0.  0.
         25    2    3    3    0    0 -0.20222099802E+01  0.42244878273E+02  0.23928160241E+02  0.13480902714E+03  0.12574656207E+03 0.  0.
          5    1    4    4  502    0 -0.22831288940E+02  0.48563971202E+01 -0.89185610579E+02  0.92309346666E+02  0.47000000000E+01 0.  1.
         -5    1    4    4    0  502  0.24853498920E+02 -0.47101275393E+02  0.19844921335E+02  0.57027514894E+02  0.47000000000E+01 0.  1.
          5    1    5    5  503    0 -0.30908540200E+02  0.78303526542E+02  0.26262794136E+02  0.88309707745E+02  0.47000000000E+01 0.  1.
         -5    1    5    5    0  503  0.28886330220E+02 -0.36058648270E+02 -0.23346338952E+01  0.46499319393E+02  0.47000000000E+01 0.  1.
<mgrwt>
<rscale>  0 0.28049347E+03</rscale>
<asrwt>0</asrwt>
<pdfrwt beam="1">  1        1 0.25350647E-01 0.28049347E+03</pdfrwt>
<pdfrwt beam="2">  1       -1 0.18364105E-01 0.28049347E+03</pdfrwt>
<totfact> 0.43329694E+03</totfact>
</mgrwt>
</event>
<event>
 9    1  0.8093459E-001  0.2710004E+03  0.7818608E-02  0.1100708E+00
          2   -1    0    0  501    0  0.00000000000E+00  0.00000000000E+00  0.85494244844E+03  0.85494244844E+03  0.00000000000E+00 0.  1.
         -2   -1    0    0    0  501 -0.00000000000E+00 -0.00000000000E+00 -0.21475489203E+02  0.21475489203E+02  0.00000000000E+00 0.  1.
         35    2    1    2    0    0  0.00000000000E+00  0.00000000000E+00  0.83346695924E+03  0.87641793764E+03  0.27100042303E+03 0.  0.
         25    2    3    3    0    0 -0.48209832943E+02 -0.27314542383E+02  0.40018739288E+03  0.42315810927E+03  0.12586724672E+03 0.  0.
         25    2    3    3    0    0  0.48209832943E+02  0.27314542383E+02  0.43327956636E+03  0.45325982838E+03  0.12100833518E+03 0.  0.
          5    1    4    4  502    0 -0.19205864767E+02  0.40260848492E+02  0.59053973470E+02  0.74157015483E+02  0.47000000000E+01 0. -1.
         -5    1    4    4    0  502 -0.29003968177E+02 -0.67575390875E+02  0.34113341941E+03  0.34900109378E+03  0.47000000000E+01 0. -1.
          5    1    5    5  503    0 -0.23743776514E+02  0.50709027820E+02  0.21366021318E+03  0.22092521160E+03  0.47000000000E+01 0.  1.
         -5    1    5    5    0  503  0.71953609457E+02 -0.23394485437E+02  0.21961935318E+03  0.23233461678E+03  0.47000000000E+01 0.  1.
<mgrwt>
<rscale>  0 0.27100042E+03</rscale>
<asrwt>0</asrwt>
<pdfrwt beam="1">  1        2 0.13152958E+00 0.27100042E+03</pdfrwt>
<pdfrwt beam="2">  1       -2 0.33039221E-02 0.27100042E+03</pdfrwt>
<totfact> 0.11880055E+04</totfact>
</mgrwt>
</event>
<event>
 9    1  0.8093459E-001  0.2748073E+03  0.7818608E-02  0.1098559E+00
         -2   -1    0    0    0  501 -0.00000000000E+00  0.00000000000E+00  0.89265352504E+01  0.89265352504E+01  0.00000000000E+00 0.  1.
          2   -1    0    0  501    0  0.00000000000E+00 -0.00000000000E+00 -0.21150160933E+04  0.21150160933E+04  0.00000000000E+00 0.  1.
         35    2    1    2    0    0  0.71054273576E-14  0.00000000000E+00 -0.21060895580E+04  0.21239426285E+04  0.27480731949E+03 0.  0.
         25    2    3    3    0    0 -0.30190814947E+02 -0.31661441044E+01 -0.67059743015E+03  0.68269298550E+03  0.12428712464E+03 0.  0.
         25    2    3    3    0    0  0.30190814947E+02  0.31661441044E+01 -0.14354921279E+04  0.14412496430E+04  0.12506548108E+03 0.  0.
          5    1    4    4  502    0 -0.48779749890E+01  0.54095088931E+02 -0.45144314204E+03  0.45472307373E+03  0.47000000000E+01 0. -1.
         -5    1    4    4    0  502 -0.25312839958E+02 -0.57261233035E+02 -0.21915428811E+03  0.22796991177E+03  0.47000000000E+01 0. -1.
          5    1    5    5  503    0  0.49990152120E+02  0.53849874729E+02 -0.88318590176E+03  0.88624954239E+03  0.47000000000E+01 0.  1.
         -5    1    5    5    0  503 -0.19799337174E+02 -0.50683730625E+02 -0.55230622610E+03  0.55500010063E+03  0.47000000000E+01 0.  1.
<mgrwt>
<rscale>  0 0.27480732E+03</rscale>
<asrwt>0</asrwt>
<pdfrwt beam="1">  1        2 0.32538728E+00 0.27480732E+03</pdfrwt>
<pdfrwt beam="2">  1       -2 0.13733123E-02 0.27480732E+03</pdfrwt>
<totfact> 0.86723159E+03</totfact>
</mgrwt>
</event>
<event>
 9    1  0.8093459E-001  0.2731365E+03  0.7818608E-02  0.1099498E+00
         -2   -1    0    0    0  501 -0.00000000000E+00  0.00000000000E+00  0.34191163129E+02  0.34191163129E+02  0.00000000000E+00 0. -1.
          2   -1    0    0  501    0  0.00000000000E+00 -0.00000000000E+00 -0.54548832828E+03  0.54548832828E+03  0.00000000000E+00 0. -1.
         35    2    1    2    0    0  0.00000000000E+00  0.00000000000E+00 -0.51129716515E+03  0.57967949141E+03  0.27313645247E+03 0.  0.
         25    2    3    3    0    0 -0.55870857889E+01 -0.43852434756E+02 -0.32629759345E+03  0.35213298698E+03  0.12479290632E+03 0.  0.
         25    2    3    3    0    0  0.55870857889E+01  0.43852434756E+02 -0.18499957170E+03  0.22754650443E+03  0.12489322874E+03 0.  0.
          5    1    4    4  502    0 -0.50357397312E+02 -0.32393602844E+02 -0.28065579532E+03  0.28701041517E+03  0.47000000000E+01 0. -1.
         -5    1    4    4    0  502  0.44770311523E+02 -0.11458831913E+02 -0.45641798130E+02  0.65122571810E+02  0.47000000000E+01 0. -1.
          5    1    5    5  503    0 -0.45077803121E+02 -0.83540338304E+01 -0.26685891807E+02  0.53254342893E+02  0.47000000000E+01 0. -1.
         -5    1    5    5    0  503  0.50664888910E+02  0.52206468587E+02 -0.15831367989E+03  0.17429216153E+03  0.47000000000E+01 0. -1.
<mgrwt>
<rscale>  0 0.27313645E+03</rscale>
<asrwt>0</asrwt>
<pdfrwt beam="1">  1        2 0.83921280E-01 0.27313645E+03</pdfrwt>
<pdfrwt beam="2">  1       -2 0.52601790E-02 0.27313645E+03</pdfrwt>
<totfact> 0.10154267E+04</totfact>
</mgrwt>
</event>
<event>
 9    1  0.8093459E-001  0.2754536E+03  0.7818608E-02  0.1098198E+00
          2   -1    0    0  501    0  0.00000000000E+00  0.00000000000E+00  0.11455517454E+04  0.11455517454E+04  0.00000000000E+00 0. -1.
         -2   -1    0    0    0  501 -0.00000000000E+00 -0.00000000000E+00 -0.16558551458E+02  0.16558551458E+02  0.00000000000E+00 0. -1.
         35    2    1    2    0    0  0.00000000000E+00 -0.71054273576E-14  0.11289931940E+04  0.11621102969E+04  0.27545364419E+03 0.  0.
         25    2    3    3    0    0 -0.51405560017E+01 -0.30048615762E+02  0.77410627968E+03  0.78477795624E+03  0.12532583026E+03 0.  0.
         25    2    3    3    0    0  0.51405560017E+01  0.30048615762E+02  0.35488691429E+03  0.37733234065E+03  0.12452159949E+03 0.  0.
          5    1    4    4  502    0  0.74525380334E+01  0.43420976891E+02  0.15581240208E+03  0.16198924717E+03  0.47000000000E+01 0.  1.
         -5    1    4    4    0  502 -0.12593094035E+02 -0.73469592653E+02  0.61829387760E+03  0.62278870906E+03  0.47000000000E+01 0.  1.
          5    1    5    5  503    0 -0.98622027570E+01  0.16380560820E+01 -0.75905376143E+01  0.13403452250E+02  0.47000000000E+01 0.  1.
         -5    1    5    5    0  503  0.15002758759E+02  0.28410559680E+02  0.36247745191E+03  0.36392888840E+03  0.47000000000E+01 0.  1.
<mgrwt>
<rscale>  0 0.27545364E+03</rscale>
<asrwt>0</asrwt>
<pdfrwt beam="1">  1        2 0.17623867E+00 0.27545364E+03</pdfrwt>
<pdfrwt beam="2">  1       -2 0.25474704E-02 0.27545364E+03</pdfrwt>
<totfact> 0.11590526E+04</totfact>
</mgrwt>
</event>
<event>
 9    1  0.8093459E-001  0.2774375E+03  0.7818608E-02  0.1097097E+00
         -2   -1    0    0    0  501 -0.00000000000E+00  0.00000000000E+00  0.48118804952E+02  0.48118804952E+02  0.00000000000E+00 0. -1.
          2   -1    0    0  501    0  0.00000000000E+00 -0.00000000000E+00 -0.39990378328E+03  0.39990378328E+03  0.00000000000E+00 0. -1.
         35    2    1    2    0    0  0.00000000000E+00 -0.35527136788E-14 -0.35178497833E+03  0.44802258824E+03  0.27743750394E+03 0.  0.
         25    2    3    3    0    0 -0.22884008336E+02  0.25802252358E+01 -0.86060377374E+02  0.15366754715E+03  0.12520779167E+03 0.  0.
         25    2    3    3    0    0  0.22884008336E+02 -0.25802252358E+01 -0.26572460096E+03  0.29435504108E+03  0.12451903974E+03 0.  0.
          5    1    4    4  502    0  0.47785340431E+02 -0.17521724410E+02 -0.50699944593E+02  0.71993221682E+02  0.47000000000E+01 0. -1.
         -5    1    4    4    0  502 -0.70669348767E+02  0.20101949645E+02 -0.35360432781E+02  0.81674325471E+02  0.47000000000E+01 0. -1.
          5    1    5    5  503    0  0.16870381941E+02 -0.49246230399E+02 -0.46084934487E+02  0.69682940394E+02  0.47000000000E+01 0.  1.
         -5    1    5    5    0  503  0.60136263954E+01  0.46666005163E+02 -0.21963966647E+03  0.22467210069E+03  0.47000000000E+01 0.  1.
<mgrwt>
<rscale>  0 0.27743750E+03</rscale>
<asrwt>0</asrwt>
<pdfrwt beam="1">  1        2 0.61523660E-01 0.27743750E+03</pdfrwt>
<pdfrwt beam="2">  1       -2 0.74028929E-02 0.27743750E+03</pdfrwt>
<totfact> 0.84745651E+03</totfact>
</mgrwt>
</event>
<event>
 9    1  0.8093459E-001  0.2697337E+03  0.7818608E-02  0.1101432E+00
         -2   -1    0    0    0  501 -0.00000000000E+00  0.00000000000E+00  0.17157331810E+02  0.17157331810E+02  0.00000000000E+00 0.  1.
          2   -1    0    0  501    0  0.00000000000E+00 -0.00000000000E+00 -0.10601341449E+04  0.10601341449E+04  0.00000000000E+00 0.  1.
         35    2    1    2    0    0 -0.35527136788E-14  0.00000000000E+00 -0.10429768130E+04  0.10772914767E+04  0.26973374491E+03 0.  0.
         25    2    3    3    0    0 -0.83875769311E+01 -0.29177411037E+02 -0.35261341163E+03  0.37538303362E+03  0.12511806867E+03 0.  0.
         25    2    3    3    0    0  0.83875769311E+01  0.29177411037E+02 -0.69036340142E+03  0.70190844305E+03  0.12309412512E+03 0.  0.
          5    1    4    4  502    0 -0.17127933041E+02 -0.77191026357E+02 -0.23372782568E+03  0.24678453586E+03  0.47000000000E+01 0.  1.
         -5    1    4    4    0  502  0.87403561095E+01  0.48013615321E+02 -0.11888558594E+03  0.12859849776E+03  0.47000000000E+01 0.  1.
          5    1    5    5  503    0  0.56143636428E+02  0.39200171155E+02 -0.52389768613E+03  0.52837452329E+03  0.47000000000E+01 0. -1.
         -5    1    5    5    0  503 -0.47756059497E+02 -0.10022760118E+02 -0.16646571529E+03  0.17353391976E+03  0.47000000000E+01 0. -1.
<mgrwt>
<rscale>  0 0.26973374E+03</rscale>
<asrwt>0</asrwt>
<pdfrwt beam="1">  1        2 0.16309760E+00 0.26973374E+03</pdfrwt>
<pdfrwt beam="2">  1       -2 0.26395889E-02 0.26973374E+03</pdfrwt>
<totfact> 0.12333739E+04</totfact>
</mgrwt>
</event>
<event>
 9    1  0.8093459E-001  0.2778522E+03  0.7818608E-02  0.1096868E+00
         -2   -1    0    0    0  501 -0.00000000000E+00  0.00000000000E+00  0.51221262684E+02  0.51221262684E+02  0.00000000000E+00 0.  1.
          2   -1    0    0  501    0  0.00000000000E+00 -0.00000000000E+00 -0.37680565704E+03  0.37680565704E+03  0.00000000000E+00 0.  1.
         35    2    1    2    0    0  0.00000000000E+00  0.00000000000E+00 -0.32558439436E+03  0.42802691972E+03  0.27785220201E+03 0.  0.
         25    2    3    3    0    0  0.62708581904E+00  0.36422272731E+02 -0.87382871014E+02  0.15660376767E+03  0.12474774032E+03 0.  0.
         25    2    3    3    0    0 -0.62708581904E+00 -0.36422272731E+02 -0.23820152334E+03  0.27142315205E+03  0.12491431687E+03 0.  0.
          5    1    4    4  502    0 -0.56395813627E+02  0.90441084718E+01 -0.70713534010E+02  0.91020753595E+02  0.47000000000E+01 0. -1.
         -5    1    4    4    0  502  0.57022899446E+02  0.27378164260E+02 -0.16669337004E+02  0.65583014079E+02  0.47000000000E+01 0. -1.
          5    1    5    5  503    0  0.33281672924E+02  0.42757023446E+01 -0.75416280851E+01  0.34711922121E+02  0.47000000000E+01 0.  1.
         -5    1    5    5    0  503 -0.33908758743E+02 -0.40697975076E+02 -0.23065989526E+03  0.23671122993E+03  0.47000000000E+01 0.  1.
<mgrwt>
<rscale>  0 0.27785220E+03</rscale>
<asrwt>0</asrwt>
<pdfrwt beam="1">  1        2 0.57970099E-01 0.27785220E+03</pdfrwt>
<pdfrwt beam="2">  1       -2 0.78801945E-02 0.27785220E+03</pdfrwt>
<totfact> 0.82016059E+03</totfact>
</mgrwt>
</event>
<event>
 9    1  0.8093459E-001  0.2702760E+03  0.7818608E-02  0.1101122E+00
         -2   -1    0    0    0  501 -0.00000000000E+00  0.00000000000E+00  0.99466451410E+01  0.99466451410E+01  0.00000000000E+00 0. -1.
          2   -1    0    0  501    0  0.00000000000E+00 -0.00000000000E+00 -0.18360234331E+04  0.18360234331E+04  0.00000000000E+00 0. -1.
         35    2    1    2    0    0  0.71054273576E-14  0.35527136788E-14 -0.18260767880E+04  0.18459700783E+04  0.27027595942E+03 0.  0.
         25    2    3    3    0    0 -0.48672895072E+02 -0.13776208071E+02 -0.96260283735E+03  0.97194977983E+03  0.12459260584E+03 0.  0.
         25    2    3    3    0    0  0.48672895072E+02  0.13776208071E+02 -0.86347395066E+03  0.87402029846E+03  0.12556028041E+03 0.  0.
          5    1    4    4  502    0 -0.66578142038E+02 -0.17655327058E+01 -0.24291459679E+03  0.25192331658E+03  0.47000000000E+01 0.  1.
         -5    1    4    4    0  502  0.17905246966E+02 -0.12010675366E+02 -0.71968824056E+03  0.72002646326E+03  0.47000000000E+01 0.  1.
          5    1    5    5  503    0  0.47341825100E+02 -0.50491139706E+02 -0.51295489397E+03  0.51762478384E+03  0.47000000000E+01 0. -1.
         -5    1    5    5    0  503  0.13310699720E+01  0.64267347777E+02 -0.35051905669E+03  0.35639551462E+03  0.47000000000E+01 0. -1.
<mgrwt>
<rscale>  0 0.27027596E+03</rscale>
<asrwt>0</asrwt>
<pdfrwt beam="1">  1        2 0.28246524E+00 0.27027596E+03</pdfrwt>
<pdfrwt beam="2">  1       -2 0.15302526E-02 0.27027596E+03</pdfrwt>
<totfact> 0.10377844E+04</totfact>
</mgrwt>
</event>
<event>
 9    1  0.8093459E-001  0.2741360E+03  0.7818608E-02  0.1098936E+00
          1   -1    0    0  501    0  0.00000000000E+00  0.00000000000E+00  0.19224392932E+03  0.19224392932E+03  0.00000000000E+00 0. -1.
         -1   -1    0    0    0  501 -0.00000000000E+00 -0.00000000000E+00 -0.97728123335E+02  0.97728123335E+02  0.00000000000E+00 0. -1.
         35    2    1    2    0    0 -0.71054273576E-14  0.00000000000E+00  0.94515805984E+02  0.28997205265E+03  0.27413601321E+03 0.  0.
         25    2    3    3    0    0 -0.31271117108E+02 -0.40578296947E+02  0.78783010995E+02  0.15682969778E+03  0.12555600478E+03 0.  0.
         25    2    3    3    0    0  0.31271117108E+02  0.40578296947E+02  0.15732794989E+02  0.13314235487E+03  0.12188061730E+03 0.  0.
          5    1    4    4  502    0 -0.72335067776E+02 -0.43308528985E+00  0.65502827066E+02  0.97699846196E+02  0.47000000000E+01 0. -1.
         -5    1    4    4    0  502  0.41063950667E+02 -0.40145211657E+02  0.13280183929E+02  0.59129851586E+02  0.47000000000E+01 0. -1.
          5    1    5    5  503    0  0.29492066366E+01  0.79578032021E+02  0.25484265112E+02  0.83743052061E+02  0.47000000000E+01 0. -1.
         -5    1    5    5    0  503  0.28321910472E+02 -0.38999735074E+02 -0.97514701234E+01  0.49399302811E+02  0.47000000000E+01 0. -1.
<mgrwt>
<rscale>  0 0.27413601E+03</rscale>
<asrwt>0</asrwt>
<pdfrwt beam="1">  1        1 0.29575989E-01 0.27413601E+03</pdfrwt>
<pdfrwt beam="2">  1       -1 0.15035096E-01 0.27413601E+03</pdfrwt>
<totfact> 0.49045797E+03</totfact>
</mgrwt>
</event>
<event>
 9    1  0.8093459E-001  0.2784854E+03  0.7818608E-02  0.1096519E+00
          3   -1    0    0  501    0  0.00000000000E+00  0.00000000000E+00  0.38751791447E+03  0.38751791447E+03  0.00000000000E+00 0.  1.
         -3   -1    0    0    0  501 -0.00000000000E+00 -0.00000000000E+00 -0.50032613303E+02  0.50032613303E+02  0.00000000000E+00 0.  1.
         35    2    1    2    0    0  0.00000000000E+00  0.00000000000E+00  0.33748530117E+03  0.43755052777E+03  0.27848543202E+03 0.  0.
         25    2    3    3    0    0 -0.48821418089E+02 -0.21121523562E+01  0.11170797435E+03  0.17459262126E+03  0.12496367397E+03 0.  0.
         25    2    3    3    0    0  0.48821418089E+02  0.21121523562E+01  0.22577732681E+03  0.26295790652E+03  0.12563226992E+03 0.  0.
          5    1    4    4  502    0  0.31874292830E+02 -0.13655958521E+02 -0.14821573337E+01  0.35024884538E+02  0.47000000000E+01 0.  1.
         -5    1    4    4    0  502 -0.80695710918E+02  0.11543806165E+02  0.11319013169E+03  0.13956773672E+03  0.47000000000E+01 0.  1.
          5    1    5    5  503    0  0.84850971178E+02  0.66110479824E+01  0.97250092808E+02  0.12931768563E+03  0.47000000000E+01 0.  1.
         -5    1    5    5    0  503 -0.36029553089E+02 -0.44988956262E+01  0.12852723400E+03  0.13364022089E+03  0.47000000000E+01 0.  1.
<mgrwt>
<rscale>  0 0.27848543E+03</rscale>
<asrwt>0</asrwt>
<pdfrwt beam="1">  1        3 0.59618139E-01 0.27848543E+03</pdfrwt>
<pdfrwt beam="2">  1       -3 0.76973254E-02 0.27848543E+03</pdfrwt>
<totfact> 0.80710347E+02</totfact>
</mgrwt>
</event>
<event>
 9    1  0.8093459E-001  0.2741078E+03  0.7818608E-02  0.1098951E+00
          2   -1    0    0  501    0  0.00000000000E+00  0.00000000000E+00  0.34720047617E+03  0.34720047617E+03  0.00000000000E+00 0.  1.
         -2   -1    0    0    0  501 -0.00000000000E+00 -0.00000000000E+00 -0.54100646435E+02  0.54100646435E+02  0.00000000000E+00 0.  1.
         35    2    1    2    0    0 -0.35527136788E-14  0.00000000000E+00  0.29309982974E+03  0.40130112261E+03  0.27410779050E+03 0.  0.
         25    2    3    3    0    0 -0.30337034203E+02  0.47308568872E+02  0.16639115648E+03  0.21460577098E+03  0.12333362740E+03 0.  0.
         25    2    3    3    0    0  0.30337034203E+02 -0.47308568872E+02  0.12670867325E+03  0.18669535163E+03  0.12506650274E+03 0.  0.
          5    1    4    4  502    0 -0.32173670245E+02  0.42238476675E+02  0.18612921322E+03  0.19361148722E+03  0.47000000000E+01 0. -1.
         -5    1    4    4    0  502  0.18366360419E+01  0.50700921970E+01 -0.19738056737E+02  0.20994283760E+02  0.47000000000E+01 0. -1.
          5    1    5    5  503    0 -0.15187887500E+02 -0.79466189434E+02  0.70835783526E+02  0.10763524245E+03  0.47000000000E+01 0. -1.
         -5    1    5    5    0  503  0.45524921703E+02  0.32157620562E+02  0.55872889727E+02  0.79060109175E+02  0.47000000000E+01 0. -1.
<mgrwt>
<rscale>  0 0.27410779E+03</rscale>
<asrwt>0</asrwt>
<pdfrwt beam="1">  1        2 0.53415456E-01 0.27410779E+03</pdfrwt>
<pdfrwt beam="2">  1       -2 0.83231766E-02 0.27410779E+03</pdfrwt>
<totfact> 0.82214639E+03</totfact>
</mgrwt>
</event>
<event>
 9    1  0.8093459E-001  0.2745299E+03  0.7818608E-02  0.1098715E+00
         -1   -1    0    0    0  501 -0.00000000000E+00  0.00000000000E+00  0.61324881457E+02  0.61324881457E+02  0.00000000000E+00 0. -1.
          1   -1    0    0  501    0  0.00000000000E+00 -0.00000000000E+00 -0.30724343401E+03  0.30724343401E+03  0.00000000000E+00 0. -1.
         35    2    1    2    0    0 -0.71054273576E-14  0.71054273576E-14 -0.24591855255E+03  0.36856831546E+03  0.27452990488E+03 0.  0.
         25    2    3    3    0    0  0.48627668693E+02  0.31374362712E+02 -0.11821945444E+03  0.18161003579E+03  0.12512939261E+03 0.  0.
         25    2    3    3    0    0 -0.48627668693E+02 -0.31374362712E+02 -0.12769909811E+03  0.18695827967E+03  0.12368240732E+03 0.  0.
          5    1    4    4  502    0 -0.42113285254E+02  0.10890971033E+02 -0.28048885123E+02  0.51970876475E+02  0.47000000000E+01 0.  1.
         -5    1    4    4    0  502  0.90740953947E+02  0.20483391679E+02 -0.90170569313E+02  0.12963915932E+03  0.47000000000E+01 0.  1.
          5    1    5    5  503    0  0.33763507565E+02  0.37479385445E+01 -0.76138416498E+02  0.83505508520E+02  0.47000000000E+01 0.  1.
         -5    1    5    5    0  503 -0.82391176258E+02 -0.35122301257E+02 -0.51560681616E+02  0.10345277115E+03  0.47000000000E+01 0.  1.
<mgrwt>
<rscale>  0 0.27452990E+03</rscale>
<asrwt>0</asrwt>
<pdfrwt beam="1">  1        1 0.47268219E-01 0.27452990E+03</pdfrwt>
<pdfrwt beam="2">  1       -1 0.94345975E-02 0.27452990E+03</pdfrwt>
<totfact> 0.56341261E+03</totfact>
</mgrwt>
</event>
<event>
 9    1  0.8093459E-001  0.3332080E+03  0.7818608E-02  0.1069726E+00
         -1   -1    0    0    0  501 -0.00000000000E+00  0.00000000000E+00  0.38586942434E+02  0.38586942434E+02  0.00000000000E+00 0. -1.
          1   -1    0    0  501    0  0.00000000000E+00 -0.00000000000E+00 -0.71933394766E+03  0.71933394766E+03  0.00000000000E+00 0. -1.
         35    2    1    2    0    0 -0.35527136788E-14  0.14210854715E-13 -0.68074700523E+03  0.75792089009E+03  0.33320802889E+03 0.  0.
         25    2    3    3    0    0  0.11462210541E+02  0.10760681674E+03 -0.28702464367E+03  0.33119703299E+03  0.12489082956E+03 0.  0.
         25    2    3    3    0    0 -0.11462210541E+02 -0.10760681674E+03 -0.39372236155E+03  0.42672385710E+03  0.12395702058E+03 0.  0.
          5    1    4    4  502    0  0.53622042379E+02  0.10786542387E+03 -0.18626872915E+03  0.22187474519E+03  0.47000000000E+01 0.  1.
         -5    1    4    4    0  502 -0.42159831838E+02 -0.25860712777E+00 -0.10075591453E+03  0.10932228780E+03  0.47000000000E+01 0.  1.
          5    1    5    5  503    0  0.95549713211E+01 -0.12153961917E+03 -0.37663549267E+03  0.39590347415E+03  0.47000000000E+01 0.  1.
         -5    1    5    5    0  503 -0.21017181862E+02  0.13932802428E+02 -0.17086868882E+02  0.30820382949E+02  0.47000000000E+01 0.  1.
<mgrwt>
<rscale>  0 0.33320803E+03</rscale>
<asrwt>0</asrwt>
<pdfrwt beam="1">  1        1 0.11066675E+00 0.33320803E+03</pdfrwt>
<pdfrwt beam="2">  1       -1 0.59364534E-02 0.33320803E+03</pdfrwt>
<totfact> 0.36854800E+03</totfact>
</mgrwt>
</event>
<event>
 9    1  0.8093459E-001  0.2736171E+03  0.7818608E-02  0.1099227E+00
         -2   -1    0    0    0  501 -0.00000000000E+00  0.00000000000E+00  0.10218910762E+02  0.10218910762E+02  0.00000000000E+00 0.  1.
          2   -1    0    0  501    0  0.00000000000E+00 -0.00000000000E+00 -0.18315635735E+04  0.18315635735E+04  0.00000000000E+00 0.  1.
         35    2    1    2    0    0  0.17763568394E-14  0.00000000000E+00 -0.18213446628E+04  0.18417824843E+04  0.27361713918E+03 0.  0.
         25    2    3    3    0    0 -0.12715629412E+02 -0.44993838765E+02 -0.10795421375E+04  0.10879727629E+04  0.12683600984E+03 0.  0.
         25    2    3    3    0    0  0.12715629412E+02  0.44993838765E+02 -0.74180252523E+03  0.75380972137E+03  0.12558653124E+03 0.  0.
          5    1    4    4  502    0 -0.43023947948E+02 -0.52924636588E+02 -0.10002884973E+04  0.10026221846E+04  0.47000000000E+01 0. -1.
         -5    1    4    4    0  502  0.30308318536E+02  0.79307978239E+01 -0.79253640212E+02  0.85350578284E+02  0.47000000000E+01 0. -1.
          5    1    5    5  503    0 -0.10078184669E+02  0.53413606944E+02 -0.12352930961E+03  0.13504134014E+03  0.47000000000E+01 0. -1.
         -5    1    5    5    0  503  0.22793814082E+02 -0.84197681794E+01 -0.61827321562E+03  0.61876838123E+03  0.47000000000E+01 0. -1.
<mgrwt>
<rscale>  0 0.27361714E+03</rscale>
<asrwt>0</asrwt>
<pdfrwt beam="1">  1        2 0.28177922E+00 0.27361714E+03</pdfrwt>
<pdfrwt beam="2">  1       -2 0.15721390E-02 0.27361714E+03</pdfrwt>
<totfact> 0.10031429E+04</totfact>
</mgrwt>
</event>
<event>
 9    1  0.8093459E-001  0.2739551E+03  0.7818608E-02  0.1099037E+00
          3   -1    0    0  501    0  0.00000000000E+00  0.00000000000E+00  0.16910601876E+03  0.16910601876E+03  0.00000000000E+00 0.  1.
         -3   -1    0    0    0  501 -0.00000000000E+00 -0.00000000000E+00 -0.11095318939E+03  0.11095318939E+03  0.00000000000E+00 0.  1.
         35    2    1    2    0    0  0.00000000000E+00  0.00000000000E+00  0.58152829366E+02  0.28005920815E+03  0.27395512134E+03 0.  0.
         25    2    3    3    0    0 -0.37724845623E+02 -0.12273742207E+02  0.70453528629E+02  0.14871922999E+03  0.12481947343E+03 0.  0.
         25    2    3    3    0    0  0.37724845623E+02  0.12273742207E+02 -0.12300699263E+02  0.13133997816E+03  0.12459965464E+03 0.  0.
          5    1    4    4  502    0 -0.60323484670E+02  0.25519895961E+02  0.79915499774E+02  0.10343483454E+03  0.47000000000E+01 0.  1.
         -5    1    4    4    0  502  0.22598639047E+02 -0.37793638168E+02 -0.94619711456E+01  0.45284395444E+02  0.47000000000E+01 0.  1.
          5    1    5    5  503    0  0.78106762203E+02 -0.14826567562E+02  0.42501772694E+01  0.79753667090E+02  0.47000000000E+01 0. -1.
         -5    1    5    5    0  503 -0.40381916580E+02  0.27100309769E+02 -0.16550876532E+02  0.51586311074E+02  0.47000000000E+01 0. -1.
<mgrwt>
<rscale>  0 0.27395512E+03</rscale>
<asrwt>0</asrwt>
<pdfrwt beam="1">  1        3 0.26016311E-01 0.27395512E+03</pdfrwt>
<pdfrwt beam="2">  1       -3 0.17069721E-01 0.27395512E+03</pdfrwt>
<totfact> 0.10534722E+03</totfact>
</mgrwt>
</event>
<event>
 9    1  0.8093459E-001  0.2767183E+03  0.7818608E-02  0.1097495E+00
         -2   -1    0    0    0  501 -0.00000000000E+00  0.00000000000E+00  0.30614087081E+02  0.30614087081E+02  0.00000000000E+00 0.  1.
          2   -1    0    0  501    0  0.00000000000E+00 -0.00000000000E+00 -0.62530866193E+03  0.62530866193E+03  0.00000000000E+00 0.  1.
         35    2    1    2    0    0 -0.71054273576E-14  0.00000000000E+00 -0.59469457485E+03  0.65592274901E+03  0.27671829595E+03 0.  0.
         25    2    3    3    0    0 -0.20002222463E+02  0.67023520069E+02 -0.31879879918E+03  0.34943944795E+03  0.12483193611E+03 0.  0.
         25    2    3    3    0    0  0.20002222463E+02 -0.67023520069E+02 -0.27589577567E+03  0.30648330107E+03  0.11367186836E+03 0.  0.
          5    1    4    4  502    0 -0.29452097097E+02  0.88328285220E+01 -0.27266536098E+03  0.27443384260E+03  0.47000000000E+01 0. -1.
         -5    1    4    4    0  502  0.94498746337E+01  0.58190691547E+02 -0.46133438199E+02  0.75005605347E+02  0.47000000000E+01 0. -1.
          5    1    5    5  503    0  0.30463822253E+02 -0.47469835807E+02 -0.27801274173E+03  0.28371571042E+03  0.47000000000E+01 0. -1.
         -5    1    5    5    0  503 -0.10461599790E+02 -0.19553684262E+02  0.21169660617E+01  0.22767590643E+02  0.47000000000E+01 0. -1.
<mgrwt>
<rscale>  0 0.27671830E+03</rscale>
<asrwt>0</asrwt>
<pdfrwt beam="1">  1        2 0.96201342E-01 0.27671830E+03</pdfrwt>
<pdfrwt beam="2">  1       -2 0.47098591E-02 0.27671830E+03</pdfrwt>
<totfact> 0.10263943E+04</totfact>
</mgrwt>
</event>
<event>
 9    1  0.8093459E-001  0.2815793E+03  0.7818608E-02  0.1094829E+00
         -2   -1    0    0    0  501 -0.00000000000E+00  0.00000000000E+00  0.23999872334E+02  0.23999872334E+02  0.00000000000E+00 0.  1.
          2   -1    0    0  501    0  0.00000000000E+00 -0.00000000000E+00 -0.82590985560E+03  0.82590985560E+03  0.00000000000E+00 0.  1.
         35    2    1    2    0    0  0.00000000000E+00 -0.71054273576E-14 -0.80190998326E+03  0.84990972793E+03  0.28157933940E+03 0.  0.
         25    2    3    3    0    0  0.45774789341E+02  0.44696376033E+02 -0.44775615890E+03  0.46888593298E+03  0.12359345833E+03 0.  0.
         25    2    3    3    0    0 -0.45774789341E+02 -0.44696376033E+02 -0.35415382436E+03  0.38102379495E+03  0.12514433124E+03 0.  0.
          5    1    4    4  502    0  0.40628214022E+02  0.23274589292E+02 -0.43754013964E+02  0.64256221639E+02  0.47000000000E+01 0. -1.
         -5    1    4    4    0  502  0.51465753190E+01  0.21421786741E+02 -0.40400214494E+03  0.40462971134E+03  0.47000000000E+01 0. -1.
          5    1    5    5  503    0  0.38445779034E+02 -0.38695638883E+02 -0.11521447230E+03  0.12756133827E+03  0.47000000000E+01 0.  1.
         -5    1    5    5    0  503 -0.84220568375E+02 -0.60007371500E+01 -0.23893935206E+03  0.25346245668E+03  0.47000000000E+01 0.  1.
<mgrwt>
<rscale>  0 0.28157934E+03</rscale>
<asrwt>0</asrwt>
<pdfrwt beam="1">  1        2 0.12706308E+00 0.28157934E+03</pdfrwt>
<pdfrwt beam="2">  1       -2 0.36922874E-02 0.28157934E+03</pdfrwt>
<totfact> 0.10535296E+04</totfact>
</mgrwt>
</event>
<event>
 9    1  0.8093459E-001  0.2757697E+03  0.7818608E-02  0.1098022E+00
         -2   -1    0    0    0  501 -0.00000000000E+00  0.00000000000E+00  0.16537088324E+02  0.16537088324E+02  0.00000000000E+00 0.  1.
          2   -1    0    0  501    0  0.00000000000E+00 -0.00000000000E+00 -0.11496719553E+04  0.11496719553E+04  0.00000000000E+00 0.  1.
         35    2    1    2    0    0 -0.35527136788E-14  0.00000000000E+00 -0.11331348670E+04  0.11662090436E+04  0.27576966235E+03 0.  0.
         25    2    3    3    0    0  0.11334879288E+02  0.41478860278E+02 -0.73635603709E+03  0.74812383964E+03  0.12498036142E+03 0.  0.
         25    2    3    3    0    0 -0.11334879288E+02 -0.41478860278E+02 -0.39677882987E+03  0.41808520396E+03  0.12455048215E+03 0.  0.
          5    1    4    4  502    0  0.17985707058E+02  0.22232319545E-01 -0.11127223490E+02  0.21665439189E+02  0.47000000000E+01 0. -1.
         -5    1    4    4    0  502 -0.66508277703E+01  0.41456627959E+02 -0.72522881360E+03  0.72645840045E+03  0.47000000000E+01 0. -1.
          5    1    5    5  503    0 -0.52315196902E+02 -0.62710633464E+02 -0.20370962065E+03  0.21952039296E+03  0.47000000000E+01 0.  1.
         -5    1    5    5    0  503  0.40980317614E+02  0.21231773186E+02 -0.19306920921E+03  0.19856481101E+03  0.47000000000E+01 0.  1.
<mgrwt>
<rscale>  0 0.27576966E+03</rscale>
<asrwt>0</asrwt>
<pdfrwt beam="1">  1        2 0.17687254E+00 0.27576966E+03</pdfrwt>
<pdfrwt beam="2">  1       -2 0.25441684E-02 0.27576966E+03</pdfrwt>
<totfact> 0.11549719E+04</totfact>
</mgrwt>
</event>
<event>
 9    1  0.8093459E-001  0.2788172E+03  0.7818608E-02  0.1096337E+00
         -2   -1    0    0    0  501 -0.00000000000E+00  0.00000000000E+00  0.28953584278E+03  0.28953584278E+03  0.00000000000E+00 0.  1.
          2   -1    0    0  501    0  0.00000000000E+00 -0.00000000000E+00 -0.67123859461E+02  0.67123859461E+02  0.00000000000E+00 0.  1.
         35    2    1    2    0    0 -0.14210854715E-13  0.00000000000E+00  0.22241198331E+03  0.35665970224E+03  0.27881723920E+03 0.  0.
         25    2    3    3    0    0  0.35037109910E+02  0.47001034318E+02  0.86822277520E+02  0.16352651724E+03  0.12556320189E+03 0.  0.
         25    2    3    3    0    0 -0.35037109910E+02 -0.47001034318E+02  0.13558970579E+03  0.19313318500E+03  0.12441528255E+03 0.  0.
          5    1    4    4  502    0  0.65098086604E+02  0.50006426544E+02  0.10065478392E+03  0.12996876202E+03  0.47000000000E+01 0. -1.
         -5    1    4    4    0  502 -0.30060976693E+02 -0.30053922258E+01 -0.13832506399E+02  0.33557755221E+02  0.47000000000E+01 0. -1.
          5    1    5    5  503    0 -0.64679014635E+02  0.10555461921E+02  0.37919510145E+02  0.75860213288E+02  0.47000000000E+01 0.  1.
         -5    1    5    5    0  503  0.29641904724E+02 -0.57556496239E+02  0.97670195649E+02  0.11727297171E+03  0.47000000000E+01 0.  1.
<mgrwt>
<rscale>  0 0.27881724E+03</rscale>
<asrwt>0</asrwt>
<pdfrwt beam="1">  1        2 0.10326748E-01 0.27881724E+03</pdfrwt>
<pdfrwt beam="2">  1       -2 0.44543975E-01 0.27881724E+03</pdfrwt>
<totfact> 0.29647303E+03</totfact>
</mgrwt>
</event>
<event>
 9    1  0.8093459E-001  0.2760903E+03  0.7818608E-02  0.1097844E+00
          2   -1    0    0  501    0  0.00000000000E+00  0.00000000000E+00  0.12696358197E+04  0.12696358197E+04  0.00000000000E+00 0.  1.
         -2   -1    0    0    0  501 -0.00000000000E+00 -0.00000000000E+00 -0.15009396974E+02  0.15009396974E+02  0.00000000000E+00 0.  1.
         35    2    1    2    0    0 -0.71054273576E-14 -0.35527136788E-14  0.12546264227E+04  0.12846452166E+04  0.27609033326E+03 0.  0.
         25    2    3    3    0    0 -0.18234383990E+02  0.27914010105E+02  0.85766502779E+03  0.86726866894E+03  0.12431395540E+03 0.  0.
         25    2    3    3    0    0  0.18234383990E+02 -0.27914010105E+02  0.39696139490E+03  0.41737654770E+03  0.12455179167E+03 0.  0.
          5    1    4    4  502    0 -0.55687561163E+02 -0.11259961477E+02  0.65344595844E+03  0.65592804620E+03  0.47000000000E+01 0. -1.
         -5    1    4    4    0  502  0.37453177173E+02  0.39173971582E+02  0.20421906935E+03  0.21134062273E+03  0.47000000000E+01 0. -1.
          5    1    5    5  503    0  0.63803182046E+02 -0.41694124866E+02  0.18612632573E+03  0.20118236806E+03  0.47000000000E+01 0.  1.
         -5    1    5    5    0  503 -0.45568798057E+02  0.13780114761E+02  0.21083506917E+03  0.21619417964E+03  0.47000000000E+01 0.  1.
<mgrwt>
<rscale>  0 0.27609033E+03</rscale>
<asrwt>0</asrwt>
<pdfrwt beam="1">  1        2 0.19532850E+00 0.27609033E+03</pdfrwt>
<pdfrwt beam="2">  1       -2 0.23091390E-02 0.27609033E+03</pdfrwt>
<totfact> 0.11397550E+04</totfact>
</mgrwt>
</event>
<event>
 9    1  0.8093459E-001  0.2743668E+03  0.7818608E-02  0.1098806E+00
         -2   -1    0    0    0  501 -0.00000000000E+00  0.00000000000E+00  0.11547524731E+02  0.11547524731E+02  0.00000000000E+00 0. -1.
          2   -1    0    0  501    0  0.00000000000E+00 -0.00000000000E+00 -0.16297242164E+04  0.16297242164E+04  0.00000000000E+00 0. -1.
         35    2    1    2    0    0  0.17763568394E-14  0.00000000000E+00 -0.16181766917E+04  0.16412717411E+04  0.27436676690E+03 0.  0.
         25    2    3    3    0    0  0.43097521158E+00  0.88546565403E+01 -0.47518364541E+03  0.49142674044E+03  0.12498861415E+03 0.  0.
         25    2    3    3    0    0 -0.43097521158E+00 -0.88546565403E+01 -0.11429930463E+04  0.11498450007E+04  0.12502732161E+03 0.  0.
          5    1    4    4  502    0  0.75014282554E+01 -0.41318303506E+02 -0.38939902778E+03  0.39168503478E+03  0.47000000000E+01 0. -1.
         -5    1    4    4    0  502 -0.70704530439E+01  0.50172960047E+02 -0.85784617629E+02  0.99741705660E+02  0.47000000000E+01 0. -1.
          5    1    5    5  503    0  0.16469535468E+02 -0.12806173411E+02 -0.11219997819E+04  0.11222035663E+04  0.47000000000E+01 0. -1.
         -5    1    5    5    0  503 -0.16900510679E+02  0.39515168707E+01 -0.20993264419E+02  0.27641434438E+02  0.47000000000E+01 0. -1.
<mgrwt>
<rscale>  0 0.27436677E+03</rscale>
<asrwt>0</asrwt>
<pdfrwt beam="1">  1        2 0.25072692E+00 0.27436677E+03</pdfrwt>
<pdfrwt beam="2">  1       -2 0.17765414E-02 0.27436677E+03</pdfrwt>
<totfact> 0.10709986E+04</totfact>
</mgrwt>
</event>
<event>
 9    1  0.8093459E-001  0.2676798E+03  0.7818608E-02  0.1102615E+00
          2   -1    0    0  501    0  0.00000000000E+00  0.00000000000E+00  0.14986234115E+03  0.14986234115E+03  0.00000000000E+00 0. -1.
         -2   -1    0    0    0  501 -0.00000000000E+00 -0.00000000000E+00 -0.11953051913E+03  0.11953051913E+03  0.00000000000E+00 0. -1.
         35    2    1    2    0    0  0.00000000000E+00  0.00000000000E+00  0.30331822027E+02  0.26939286028E+03  0.26767983439E+03 0.  0.
         25    2    3    3    0    0 -0.51252632765E+01 -0.47600256938E+02  0.19940739802E+02  0.13501592182E+03  0.12465798513E+03 0.  0.
         25    2    3    3    0    0  0.51252632765E+01  0.47600256938E+02  0.10391082225E+02  0.13437693846E+03  0.12512847084E+03 0.  0.
          5    1    4    4  502    0  0.43253348983E+02  0.19325692940E+02  0.21616104517E+02  0.52284611315E+02  0.47000000000E+01 0.  1.
         -5    1    4    4    0  502 -0.48378612259E+02 -0.66925949878E+02 -0.16753647154E+01  0.82731310507E+02  0.47000000000E+01 0.  1.
          5    1    5    5  503    0  0.38570581942E+02  0.71952624031E+01  0.53367248826E+02  0.66404930838E+02  0.47000000000E+01 0. -1.
         -5    1    5    5    0  503 -0.33445318665E+02  0.40404994535E+02 -0.42976166601E+02  0.67972007619E+02  0.47000000000E+01 0. -1.
<mgrwt>
<rscale>  0 0.26767983E+03</rscale>
<asrwt>0</asrwt>
<pdfrwt beam="1">  1        2 0.23055745E-01 0.26767983E+03</pdfrwt>
<pdfrwt beam="2">  1       -2 0.18389311E-01 0.26767983E+03</pdfrwt>
<totfact> 0.56752112E+03</totfact>
</mgrwt>
</event>
<event>
 9    1  0.8093459E-001  0.2776219E+03  0.7818608E-02  0.1096995E+00
          2   -1    0    0  501    0  0.00000000000E+00  0.00000000000E+00  0.83086142634E+03  0.83086142634E+03  0.00000000000E+00 0.  1.
         -2   -1    0    0    0  501 -0.00000000000E+00 -0.00000000000E+00 -0.23190960769E+02  0.23190960769E+02  0.00000000000E+00 0.  1.
         35    2    1    2    0    0  0.00000000000E+00  0.00000000000E+00  0.80767046557E+03  0.85405238711E+03  0.27762186328E+03 0.  0.
         25    2    3    3    0    0  0.51860329151E+02  0.23984413265E+02  0.35890294887E+03  0.38439440237E+03  0.12523172141E+03 0.  0.
         25    2    3    3    0    0 -0.51860329151E+02 -0.23984413265E+02  0.44876751670E+03  0.46965798474E+03  0.12618079396E+03 0.  0.
          5    1    4    4  502    0 -0.27640842558E+02  0.46973969351E+02  0.14797756012E+03  0.15776570689E+03  0.47000000000E+01 0. -1.
         -5    1    4    4    0  502  0.79501171708E+02 -0.22989556086E+02  0.21092538876E+03  0.22662869548E+03  0.47000000000E+01 0. -1.
          5    1    5    5  503    0  0.35571967982E+02 -0.11104481196E+02  0.58787425751E+02  0.69761922531E+02  0.47000000000E+01 0.  1.
         -5    1    5    5    0  503 -0.87432297133E+02 -0.12879932070E+02  0.38998009095E+03  0.39989606220E+03  0.47000000000E+01 0.  1.
<mgrwt>
<rscale>  0 0.27762186E+03</rscale>
<asrwt>0</asrwt>
<pdfrwt beam="1">  1        2 0.12782481E+00 0.27762186E+03</pdfrwt>
<pdfrwt beam="2">  1       -2 0.35678408E-02 0.27762186E+03</pdfrwt>
<totfact> 0.11000438E+04</totfact>
</mgrwt>
</event>
<event>
 9    1  0.8093459E-001  0.2814657E+03  0.7818608E-02  0.1094891E+00
         -1   -1    0    0    0  501 -0.00000000000E+00  0.00000000000E+00  0.41258135728E+02  0.41258135728E+02  0.00000000000E+00 0. -1.
          1   -1    0    0  501    0  0.00000000000E+00 -0.00000000000E+00 -0.48004431058E+03  0.48004431058E+03  0.00000000000E+00 0. -1.
         35    2    1    2    0    0  0.14210854715E-13 -0.35527136788E-14 -0.43878617485E+03  0.52130244631E+03  0.28146568758E+03 0.  0.
         25    2    3    3    0    0  0.66525394297E+02  0.31321382181E+01 -0.19857443233E+03  0.24361464373E+03  0.12442206833E+03 0.  0.
         25    2    3    3    0    0 -0.66525394297E+02 -0.31321382181E+01 -0.24021174252E+03  0.27768780257E+03  0.12236582889E+03 0.  0.
          5    1    4    4  502    0  0.55079042101E+02 -0.14420669702E+02 -0.21114033359E+03  0.21873268403E+03  0.47000000000E+01 0. -1.
         -5    1    4    4    0  502  0.11446352196E+02  0.17552807920E+02  0.12565901254E+02  0.24881959706E+02  0.47000000000E+01 0. -1.
          5    1    5    5  503    0 -0.35680044014E+02 -0.56766212563E+02 -0.17598695248E+03  0.18838515301E+03  0.47000000000E+01 0. -1.
         -5    1    5    5    0  503 -0.30845350283E+02  0.53634074345E+02 -0.64224790036E+02  0.89302649569E+02  0.47000000000E+01 0. -1.
<mgrwt>
<rscale>  0 0.28146569E+03</rscale>
<asrwt>0</asrwt>
<pdfrwt beam="1">  1        1 0.73852966E-01 0.28146569E+03</pdfrwt>
<pdfrwt beam="2">  1       -1 0.63474059E-02 0.28146569E+03</pdfrwt>
<totfact> 0.58263959E+03</totfact>
</mgrwt>
</event>
<event>
 9    1  0.8093459E-001  0.2780961E+03  0.7818608E-02  0.1096733E+00
          2   -1    0    0  501    0  0.00000000000E+00  0.00000000000E+00  0.12954808568E+04  0.12954808568E+04  0.00000000000E+00 0.  1.
         -2   -1    0    0    0  501 -0.00000000000E+00 -0.00000000000E+00 -0.14924466840E+02  0.14924466840E+02  0.00000000000E+00 0.  1.
         35    2    1    2    0    0  0.00000000000E+00  0.00000000000E+00  0.12805563899E+04  0.13104053236E+04  0.27809610633E+03 0.  0.
         25    2    3    3    0    0  0.53228769552E+02 -0.71625284653E+01  0.77623957535E+03  0.78806915562E+03  0.12498204658E+03 0.  0.
         25    2    3    3    0    0 -0.53228769552E+02  0.71625284653E+01  0.50431681458E+03  0.52233616799E+03  0.12496007045E+03 0.  0.
          5    1    4    4  502    0  0.53009789715E+02  0.52324953987E+02  0.49247790054E+03  0.49810090457E+03  0.47000000000E+01 0. -1.
         -5    1    4    4    0  502  0.21897983658E+00 -0.59487482453E+02  0.28376167481E+03  0.28996825104E+03  0.47000000000E+01 0. -1.
          5    1    5    5  503    0 -0.33485538573E+02 -0.46772167364E+02  0.39070809256E+03  0.39494787064E+03  0.47000000000E+01 0.  1.
         -5    1    5    5    0  503 -0.19743230978E+02  0.53934695829E+02  0.11360872202E+03  0.12738829735E+03  0.47000000000E+01 0.  1.
<mgrwt>
<rscale>  0 0.27809611E+03</rscale>
<asrwt>0</asrwt>
<pdfrwt beam="1">  1        2 0.19930466E+00 0.27809611E+03</pdfrwt>
<pdfrwt beam="2">  1       -2 0.22960728E-02 0.27809611E+03</pdfrwt>
<totfact> 0.11121281E+04</totfact>
</mgrwt>
</event>
<event>
 9    1  0.8093459E-001  0.3342709E+03  0.7818608E-02  0.1069263E+00
          2   -1    0    0  501    0  0.00000000000E+00  0.00000000000E+00  0.19698111023E+03  0.19698111023E+03  0.00000000000E+00 0.  1.
         -2   -1    0    0    0  501 -0.00000000000E+00 -0.00000000000E+00 -0.14181186601E+03  0.14181186601E+03  0.00000000000E+00 0.  1.
         35    2    1    2    0    0  0.14210854715E-13  0.00000000000E+00  0.55169244222E+02  0.33879297624E+03  0.33427090098E+03 0.  0.
         25    2    3    3    0    0  0.78196352990E+02  0.77247218815E+02  0.17563611227E+02  0.16750981565E+03  0.12517689668E+03 0.  0.
         25    2    3    3    0    0 -0.78196352990E+02 -0.77247218815E+02  0.37605632995E+02  0.17128316059E+03  0.12586474897E+03 0.  0.
          5    1    4    4  502    0  0.70215455537E+02  0.57782702775E+02 -0.44833159761E+02  0.10149459666E+03  0.47000000000E+01 0.  1.
         -5    1    4    4    0  502  0.79808974532E+01  0.19464516040E+02  0.62396770988E+02  0.66015218992E+02  0.47000000000E+01 0.  1.
          5    1    5    5  503    0  0.36633185405E+01  0.26768304308E+02 -0.11889179348E+02  0.29889874604E+02  0.47000000000E+01 0.  1.
         -5    1    5    5    0  503 -0.81859671531E+02 -0.10401552312E+03  0.49494812343E+02  0.14139328599E+03  0.47000000000E+01 0.  1.
<mgrwt>
<rscale>  0 0.33427090E+03</rscale>
<asrwt>0</asrwt>
<pdfrwt beam="1">  1        2 0.30304786E-01 0.33427090E+03</pdfrwt>
<pdfrwt beam="2">  1       -2 0.21817210E-01 0.33427090E+03</pdfrwt>
<totfact> 0.31419104E+03</totfact>
</mgrwt>
</event>
<event>
 9    1  0.8093459E-001  0.2752814E+03  0.7818608E-02  0.1098294E+00
         -2   -1    0    0    0  501 -0.00000000000E+00  0.00000000000E+00  0.77201150328E+02  0.77201150328E+02  0.00000000000E+00 0.  1.
          2   -1    0    0  501    0  0.00000000000E+00 -0.00000000000E+00 -0.24539741707E+03  0.24539741707E+03  0.00000000000E+00 0.  1.
         35    2    1    2    0    0  0.00000000000E+00  0.00000000000E+00 -0.16819626674E+03  0.32259856739E+03  0.27528140428E+03 0.  0.
         25    2    3    3    0    0 -0.85013677788E+01  0.54978043918E+02 -0.99373381086E+02  0.16927832684E+03  0.12524066633E+03 0.  0.
         25    2    3    3    0    0  0.85013677788E+01 -0.54978043918E+02 -0.68822885653E+02  0.15332024055E+03  0.12520242811E+03 0.  0.
          5    1    4    4  502    0  0.99077686227E+01 -0.76640879112E+01 -0.10285906585E+03  0.10372550096E+03  0.47000000000E+01 0. -1.
         -5    1    4    4    0  502 -0.18409136402E+02  0.62642131830E+02  0.34856847606E+01  0.65552825885E+02  0.47000000000E+01 0. -1.
          5    1    5    5  503    0  0.13350943924E+01 -0.93764359160E+02 -0.32108772784E+02  0.99230039884E+02  0.47000000000E+01 0. -1.
         -5    1    5    5    0  503  0.71662733864E+01  0.38786315242E+02 -0.36714112869E+02  0.54090200666E+02  0.47000000000E+01 0. -1.
<mgrwt>
<rscale>  0 0.27528140E+03</rscale>
<asrwt>0</asrwt>
<pdfrwt beam="1">  1        2 0.37753449E-01 0.27528140E+03</pdfrwt>
<pdfrwt beam="2">  1       -2 0.11877100E-01 0.27528140E+03</pdfrwt>
<totfact> 0.67912090E+03</totfact>
</mgrwt>
</event>
<event>
 9    1  0.8093459E-001  0.2732019E+03  0.7818608E-02  0.1099461E+00
         -3   -1    0    0    0  501 -0.00000000000E+00  0.00000000000E+00  0.18289879963E+03  0.18289879963E+03  0.00000000000E+00 0.  1.
          3   -1    0    0  501    0  0.00000000000E+00 -0.00000000000E+00 -0.10202265740E+03  0.10202265740E+03  0.00000000000E+00 0.  1.
         35    2    1    2    0    0 -0.71054273576E-14 -0.35527136788E-14  0.80876142232E+02  0.28492145703E+03  0.27320191488E+03 0.  0.
         25    2    3    3    0    0 -0.91785496464E+01 -0.24386185995E+02 -0.44581730965E+01  0.12996982985E+03  0.12725309239E+03 0.  0.
         25    2    3    3    0    0  0.91785496464E+01  0.24386185995E+02  0.85334315328E+02  0.15495162718E+03  0.12668515916E+03 0.  0.
          5    1    4    4  502    0 -0.59367454182E+02 -0.45731003457E+02 -0.53280346600E+00  0.75087902973E+02  0.47000000000E+01 0.  1.
         -5    1    4    4    0  502  0.50188904536E+02  0.21344817463E+02 -0.39253696305E+01  0.54881926877E+02  0.47000000000E+01 0.  1.
          5    1    5    5  503    0  0.44037741750E+02  0.29836949603E+02  0.10239229031E+03  0.11548089614E+03  0.47000000000E+01 0.  1.
         -5    1    5    5    0  503 -0.34859192104E+02 -0.54507636087E+01 -0.17057974977E+02  0.39470731034E+02  0.47000000000E+01 0.  1.
<mgrwt>
<rscale>  0 0.27320191E+03</rscale>
<asrwt>0</asrwt>
<pdfrwt beam="1">  1        3 0.15695793E-01 0.27320191E+03</pdfrwt>
<pdfrwt beam="2">  1       -3 0.28138277E-01 0.27320191E+03</pdfrwt>
<totfact> 0.10548046E+03</totfact>
</mgrwt>
</event>
<event>
 9    1  0.8093459E-001  0.2761688E+03  0.7818608E-02  0.1097800E+00
         -2   -1    0    0    0  501 -0.00000000000E+00  0.00000000000E+00  0.38819193552E+03  0.38819193552E+03  0.00000000000E+00 0.  1.
          2   -1    0    0  501    0  0.00000000000E+00 -0.00000000000E+00 -0.49118222150E+02  0.49118222150E+02  0.00000000000E+00 0.  1.
         35    2    1    2    0    0  0.00000000000E+00  0.71054273576E-14  0.33907371337E+03  0.43731015767E+03  0.27616877250E+03 0.  0.
         25    2    3    3    0    0 -0.16858908093E+02 -0.53700300176E+02  0.14783085929E+03  0.20103243245E+03  0.12406502697E+03 0.  0.
         25    2    3    3    0    0  0.16858908093E+02  0.53700300176E+02  0.19124285408E+03  0.23627772522E+03  0.12682818763E+03 0.  0.
          5    1    4    4  502    0 -0.13448473867E+02 -0.69973378243E+01 -0.20682462979E+02  0.26070643660E+02  0.47000000000E+01 0. -1.
         -5    1    4    4    0  502 -0.34104342255E+01 -0.46702962352E+02  0.16851332227E+03  0.17496178879E+03  0.47000000000E+01 0. -1.
          5    1    5    5  503    0  0.76540829569E+01  0.94413743235E+02  0.14960032070E+03  0.17712957362E+03  0.47000000000E+01 0. -1.
         -5    1    5    5    0  503  0.92048251358E+01 -0.40713443059E+02  0.41642533380E+02  0.59148151601E+02  0.47000000000E+01 0. -1.
<mgrwt>
<rscale>  0 0.27616877E+03</rscale>
<asrwt>0</asrwt>
<pdfrwt beam="1">  1        2 0.75566498E-02 0.27616877E+03</pdfrwt>
<pdfrwt beam="2">  1       -2 0.59721834E-01 0.27616877E+03</pdfrwt>
<totfact> 0.24367681E+03</totfact>
</mgrwt>
</event>
<event>
 9    1  0.8093459E-001  0.2780454E+03  0.7818608E-02  0.1096761E+00
         -2   -1    0    0    0  501 -0.00000000000E+00  0.00000000000E+00  0.18042839414E+02  0.18042839414E+02  0.00000000000E+00 0.  1.
          2   -1    0    0  501    0  0.00000000000E+00 -0.00000000000E+00 -0.10711897658E+04  0.10711897658E+04  0.00000000000E+00 0.  1.
         35    2    1    2    0    0  0.00000000000E+00  0.14210854715E-13 -0.10531469264E+04  0.10892326052E+04  0.27804535549E+03 0.  0.
         25    2    3    3    0    0  0.13053525879E+02 -0.49625505181E+02 -0.66517302134E+03  0.67856972018E+03  0.12397028486E+03 0.  0.
         25    2    3    3    0    0 -0.13053525879E+02  0.49625505181E+02 -0.38797390508E+03  0.41066288507E+03  0.12444745415E+03 0.  0.
          5    1    4    4  502    0  0.38572070309E+02  0.18854093575E+02 -0.43234023734E+03  0.43449217746E+03  0.47000000000E+01 0. -1.
         -5    1    4    4    0  502 -0.25518544430E+02 -0.68479598756E+02 -0.23283278400E+03  0.24407754272E+03  0.47000000000E+01 0. -1.
          5    1    5    5  503    0  0.11126754593E+01 -0.41575632168E+02 -0.10775806008E+03  0.11560130081E+03  0.47000000000E+01 0.  1.
         -5    1    5    5    0  503 -0.14166201338E+02  0.91201137348E+02 -0.28021584500E+03  0.29506158425E+03  0.47000000000E+01 0.  1.
<mgrwt>
<rscale>  0 0.27804536E+03</rscale>
<asrwt>0</asrwt>
<pdfrwt beam="1">  1        2 0.16479839E+00 0.27804536E+03</pdfrwt>
<pdfrwt beam="2">  1       -2 0.27758220E-02 0.27804536E+03</pdfrwt>
<totfact> 0.11285077E+04</totfact>
</mgrwt>
</event>
<event>
 9    1  0.8093459E-001  0.2706953E+03  0.7818608E-02  0.1100882E+00
          2   -1    0    0  501    0  0.00000000000E+00  0.00000000000E+00  0.11144656490E+04  0.11144656490E+04  0.00000000000E+00 0.  1.
         -2   -1    0    0    0  501 -0.00000000000E+00 -0.00000000000E+00 -0.16437458635E+02  0.16437458635E+02  0.00000000000E+00 0.  1.
         35    2    1    2    0    0  0.35527136788E-14  0.00000000000E+00  0.10980281904E+04  0.11309031077E+04  0.27069527522E+03 0.  0.
         25    2    3    3    0    0 -0.29499703797E+02 -0.40428892369E+02  0.45832415139E+03  0.47770531527E+03  0.12504644190E+03 0.  0.
         25    2    3    3    0    0  0.29499703797E+02  0.40428892369E+02  0.63970403901E+03  0.65319779240E+03  0.12223489928E+03 0.  0.
          5    1    4    4  502    0  0.31323426143E+02 -0.30862871902E+02  0.59532325758E+02  0.74161052430E+02  0.47000000000E+01 0. -1.
         -5    1    4    4    0  502 -0.60823129940E+02 -0.95660204671E+01  0.39879182563E+03  0.40354426284E+03  0.47000000000E+01 0. -1.
          5    1    5    5  503    0 -0.19460927166E+02  0.56826438887E+02  0.50951094655E+03  0.51306087991E+03  0.47000000000E+01 0. -1.
         -5    1    5    5    0  503  0.48960630963E+02 -0.16397546518E+02  0.13019309247E+03  0.14013691249E+03  0.47000000000E+01 0. -1.
<mgrwt>
<rscale>  0 0.27069528E+03</rscale>
<asrwt>0</asrwt>
<pdfrwt beam="1">  1        2 0.17145619E+00 0.27069528E+03</pdfrwt>
<pdfrwt beam="2">  1       -2 0.25288407E-02 0.27069528E+03</pdfrwt>
<totfact> 0.12208334E+04</totfact>
</mgrwt>
</event>
<event>
 9    1  0.8093459E-001  0.2806154E+03  0.7818608E-02  0.1095353E+00
         -2   -1    0    0    0  501 -0.00000000000E+00  0.00000000000E+00  0.42532586840E+01  0.42532586840E+01  0.00000000000E+00 0. -1.
          2   -1    0    0  501    0  0.00000000000E+00 -0.00000000000E+00 -0.46285101001E+04  0.46285101001E+04  0.00000000000E+00 0. -1.
         35    2    1    2    0    0  0.00000000000E+00  0.00000000000E+00 -0.46242568415E+04  0.46327633588E+04  0.28061540070E+03 0.  0.
         25    2    3    3    0    0 -0.20257136716E+02  0.59629099541E+02 -0.26075940161E+04  0.26112531296E+04  0.12300557984E+03 0.  0.
         25    2    3    3    0    0  0.20257136716E+02 -0.59629099541E+02 -0.20166628253E+04  0.20215102293E+04  0.12493468212E+03 0.  0.
          5    1    4    4  502    0  0.46625745811E+01  0.94466788809E+02 -0.18815128001E+04  0.18838944293E+04  0.47000000000E+01 0. -1.
         -5    1    4    4    0  502 -0.24919711297E+02 -0.34837689268E+02 -0.72608121600E+03  0.72735870025E+03  0.47000000000E+01 0. -1.
          5    1    5    5  503    0  0.13308963145E+02  0.38265720038E+02 -0.69935061810E+03  0.70053891460E+03  0.47000000000E+01 0. -1.
         -5    1    5    5    0  503  0.69481735708E+01 -0.97894819579E+02 -0.13173122072E+04  0.13209713147E+04  0.47000000000E+01 0. -1.
<mgrwt>
<rscale>  0 0.28061540E+03</rscale>
<asrwt>0</asrwt>
<pdfrwt beam="1">  1        2 0.71207847E+00 0.28061540E+03</pdfrwt>
<pdfrwt beam="2">  1       -2 0.65434750E-03 0.28061540E+03</pdfrwt>
<totfact> 0.50348066E+02</totfact>
</mgrwt>
</event>
<event>
 9    1  0.8093459E-001  0.2796327E+03  0.7818608E-02  0.1095890E+00
          4   -1    0    0  501    0  0.00000000000E+00  0.00000000000E+00  0.95920253628E+02  0.95920253628E+02  0.00000000000E+00 0.  1.
         -4   -1    0    0    0  501 -0.00000000000E+00 -0.00000000000E+00 -0.20380065899E+03  0.20380065899E+03  0.00000000000E+00 0.  1.
         35    2    1    2    0    0  0.00000000000E+00 -0.10658141036E-13 -0.10788040536E+03  0.29972091262E+03  0.27963269408E+03 0.  0.
         25    2    3    3    0    0 -0.57525999725E+02  0.18592070694E+02 -0.30960078629E+02  0.14075842676E+03  0.12328626240E+03 0.  0.
         25    2    3    3    0    0  0.57525999725E+02 -0.18592070694E+02 -0.76920326734E+02  0.15896248586E+03  0.12528938307E+03 0.  0.
          5    1    4    4  502    0 -0.47668100540E+01 -0.48565724598E+02 -0.24967059099E+02  0.55016325976E+02  0.47000000000E+01 0.  1.
         -5    1    4    4    0  502 -0.52759189671E+02  0.67157795291E+02 -0.59930195298E+01  0.85742100780E+02  0.47000000000E+01 0.  1.
          5    1    5    5  503    0 -0.77288479738E+01  0.15107843493E+02 -0.83255258514E+02  0.85097062794E+02  0.47000000000E+01 0.  1.
         -5    1    5    5    0  503  0.65254847699E+02 -0.33699914187E+02  0.63349317794E+01  0.73865423068E+02  0.47000000000E+01 0.  1.
<mgrwt>
<rscale>  0 0.27963269E+03</rscale>
<asrwt>0</asrwt>
<pdfrwt beam="1">  1        4 0.14756962E-01 0.27963269E+03</pdfrwt>
<pdfrwt beam="2">  1       -4 0.31353947E-01 0.27963269E+03</pdfrwt>
<totfact> 0.71247611E+02</totfact>
</mgrwt>
</event>
<event>
 9    1  0.8093459E-001  0.2735825E+03  0.7818608E-02  0.1099247E+00
         -2   -1    0    0    0  501 -0.00000000000E+00  0.00000000000E+00  0.26640130091E+02  0.26640130091E+02  0.00000000000E+00 0.  1.
          2   -1    0    0  501    0  0.00000000000E+00 -0.00000000000E+00 -0.70239333418E+03  0.70239333418E+03  0.00000000000E+00 0.  1.
         35    2    1    2    0    0  0.00000000000E+00  0.00000000000E+00 -0.67575320409E+03  0.72903346427E+03  0.27358252720E+03 0.  0.
         25    2    3    3    0    0  0.14032635229E+02  0.42541190034E+02 -0.26056409479E+03  0.29316568265E+03  0.12667202647E+03 0.  0.
         25    2    3    3    0    0 -0.14032635229E+02 -0.42541190034E+02 -0.41518910930E+03  0.43586778162E+03  0.12486816597E+03 0.  0.
          5    1    4    4  502    0 -0.25802072227E+01  0.57961318031E+02 -0.38254022649E+02  0.69653658239E+02  0.47000000000E+01 0. -1.
         -5    1    4    4    0  502  0.16612842452E+02 -0.15420127998E+02 -0.22231007214E+03  0.22351202441E+03  0.47000000000E+01 0. -1.
          5    1    5    5  503    0  0.32610503824E+02 -0.28471197726E+02 -0.45599201407E+02  0.63051020837E+02  0.47000000000E+01 0. -1.
         -5    1    5    5    0  503 -0.46643139053E+02 -0.14069992308E+02 -0.36958990790E+03  0.37281676079E+03  0.47000000000E+01 0. -1.
<mgrwt>
<rscale>  0 0.27358253E+03</rscale>
<asrwt>0</asrwt>
<pdfrwt beam="1">  1        2 0.10806049E+00 0.27358253E+03</pdfrwt>
<pdfrwt beam="2">  1       -2 0.40984823E-02 0.27358253E+03</pdfrwt>
<totfact> 0.11017380E+04</totfact>
</mgrwt>
</event>
<event>
 9    1  0.8093459E-001  0.2751958E+03  0.7818608E-02  0.1098342E+00
         -1   -1    0    0    0  501 -0.00000000000E+00  0.00000000000E+00  0.20099516924E+02  0.20099516924E+02  0.00000000000E+00 0. -1.
          1   -1    0    0  501    0  0.00000000000E+00 -0.00000000000E+00 -0.94197221166E+03  0.94197221166E+03  0.00000000000E+00 0. -1.
         35    2    1    2    0    0  0.14210854715E-13  0.00000000000E+00 -0.92187269474E+03  0.96207172859E+03  0.27519583144E+03 0.  0.
         25    2    3    3    0    0  0.48609929595E+02  0.28587615567E+02 -0.49276595252E+03  0.51134509552E+03  0.12439994266E+03 0.  0.
         25    2    3    3    0    0 -0.48609929595E+02 -0.28587615567E+02 -0.42910674222E+03  0.45072663306E+03  0.12586391269E+03 0.  0.
          5    1    4    4  502    0  0.87099405231E+02  0.35069515582E+02 -0.29182046006E+03  0.30659003282E+03  0.47000000000E+01 0.  1.
         -5    1    4    4    0  502 -0.38489475636E+02 -0.64819000154E+01 -0.20094549246E+03  0.20475506271E+03  0.47000000000E+01 0.  1.
          5    1    5    5  503    0  0.10278842276E+02 -0.46159306273E+02 -0.33420628471E+03  0.33756816630E+03  0.47000000000E+01 0. -1.
         -5    1    5    5    0  503 -0.58888771871E+02  0.17571690706E+02 -0.94900457502E+02  0.11315846677E+03  0.47000000000E+01 0. -1.
<mgrwt>
<rscale>  0 0.27519583E+03</rscale>
<asrwt>0</asrwt>
<pdfrwt beam="1">  1        1 0.14491879E+00 0.27519583E+03</pdfrwt>
<pdfrwt beam="2">  1       -1 0.30922336E-02 0.27519583E+03</pdfrwt>
<totfact> 0.63800675E+03</totfact>
</mgrwt>
</event>
<event>
 9    1  0.8093459E-001  0.2745220E+03  0.7818608E-02  0.1098719E+00
         -1   -1    0    0    0  501 -0.00000000000E+00  0.00000000000E+00  0.12074713472E+03  0.12074713472E+03  0.00000000000E+00 0. -1.
          1   -1    0    0  501    0  0.00000000000E+00 -0.00000000000E+00 -0.15603341242E+03  0.15603341242E+03  0.00000000000E+00 0. -1.
         35    2    1    2    0    0  0.00000000000E+00 -0.35527136788E-14 -0.35286277709E+02  0.27678054714E+03  0.27452203897E+03 0.  0.
         25    2    3    3    0    0  0.37982313245E+02  0.19198448434E+02  0.21502199605E+02  0.13328788471E+03  0.12446718074E+03 0.  0.
         25    2    3    3    0    0 -0.37982313245E+02 -0.19198448434E+02 -0.56788477313E+02  0.14349266243E+03  0.12471558232E+03 0.  0.
          5    1    4    4  502    0  0.29166612951E+02 -0.68737388835E+01  0.70581186562E+02  0.76822740734E+02  0.47000000000E+01 0. -1.
         -5    1    4    4    0  502  0.88157002937E+01  0.26072187318E+02 -0.49078986958E+02  0.56465143974E+02  0.47000000000E+01 0. -1.
          5    1    5    5  503    0 -0.42318875440E+02 -0.36682636839E+02  0.23615620550E+02  0.60961386123E+02  0.47000000000E+01 0.  1.
         -5    1    5    5    0  503  0.43365621956E+01  0.17484188405E+02 -0.80404097864E+02  0.82531276309E+02  0.47000000000E+01 0.  1.
<mgrwt>
<rscale>  0 0.27452204E+03</rscale>
<asrwt>0</asrwt>
<pdfrwt beam="1">  1        1 0.24005140E-01 0.27452204E+03</pdfrwt>
<pdfrwt beam="2">  1       -1 0.18576482E-01 0.27452204E+03</pdfrwt>
<totfact> 0.45563050E+03</totfact>
</mgrwt>
</event>
<event>
 9    1  0.8093459E-001  0.2687082E+03  0.7818608E-02  0.1102021E+00
          1   -1    0    0  501    0  0.00000000000E+00  0.00000000000E+00  0.14436970755E+03  0.14436970755E+03  0.00000000000E+00 0. -1.
         -1   -1    0    0    0  501 -0.00000000000E+00 -0.00000000000E+00 -0.12503334987E+03  0.12503334987E+03  0.00000000000E+00 0. -1.
         35    2    1    2    0    0 -0.71054273576E-14 -0.71054273576E-14  0.19336357684E+02  0.26940305742E+03  0.26870822953E+03 0.  0.
         25    2    3    3    0    0 -0.23034199056E+02  0.44426105873E+02  0.11986758122E+02  0.13546355004E+03  0.12530936841E+03 0.  0.
         25    2    3    3    0    0  0.23034199056E+02 -0.44426105873E+02  0.73495995626E+01  0.13393950738E+03  0.12402226338E+03 0.  0.
          5    1    4    4  502    0  0.50192304160E+02  0.12132069389E+02 -0.89204591588E+01  0.52612917579E+02  0.47000000000E+01 0. -1.
         -5    1    4    4    0  502 -0.73226503216E+02  0.32294036484E+02  0.20907217280E+02  0.82850632466E+02  0.47000000000E+01 0. -1.
          5    1    5    5  503    0 -0.26123496783E+02 -0.11155917831E+02  0.52051025437E+02  0.59483534158E+02  0.47000000000E+01 0. -1.
         -5    1    5    5    0  503  0.49157695840E+02 -0.33270188041E+02 -0.44701425874E+02  0.74455973217E+02  0.47000000000E+01 0. -1.
<mgrwt>
<rscale>  0 0.26870823E+03</rscale>
<asrwt>0</asrwt>
<pdfrwt beam="1">  1        1 0.22210724E-01 0.26870823E+03</pdfrwt>
<pdfrwt beam="2">  1       -1 0.19235900E-01 0.26870823E+03</pdfrwt>
<totfact> 0.47526111E+03</totfact>
</mgrwt>
</event>
<event>
 9    1  0.8093459E-001  0.2683927E+03  0.7818608E-02  0.1102203E+00
          1   -1    0    0  501    0  0.00000000000E+00  0.00000000000E+00  0.22230420085E+03  0.22230420085E+03  0.00000000000E+00 0.  1.
         -1   -1    0    0    0  501 -0.00000000000E+00 -0.00000000000E+00 -0.81009082722E+02  0.81009082722E+02  0.00000000000E+00 0.  1.
         35    2    1    2    0    0  0.00000000000E+00 -0.35527136788E-14  0.14129511812E+03  0.30331328357E+03  0.26839269286E+03 0.  0.
         25    2    3    3    0    0  0.32274992149E+02 -0.12549006524E+02  0.11062376060E+03  0.17024708594E+03  0.12468881738E+03 0.  0.
         25    2    3    3    0    0 -0.32274992149E+02  0.12549006524E+02  0.30671357523E+02  0.13306619763E+03  0.12476669466E+03 0.  0.
          5    1    4    4  502    0 -0.20500725972E+02 -0.43279942719E+01 -0.19814489046E+02  0.29218406458E+02  0.47000000000E+01 0. -1.
         -5    1    4    4    0  502  0.52775718121E+02 -0.82210122525E+01  0.13043824965E+03  0.14102867948E+03  0.47000000000E+01 0. -1.
          5    1    5    5  503    0  0.32053509401E+02  0.36036255888E+02 -0.14872147990E+02  0.50688361477E+02  0.47000000000E+01 0. -1.
         -5    1    5    5    0  503 -0.64328501550E+02 -0.23487249363E+02  0.45543505513E+02  0.82377836150E+02  0.47000000000E+01 0. -1.
<mgrwt>
<rscale>  0 0.26839269E+03</rscale>
<asrwt>0</asrwt>
<pdfrwt beam="1">  1        1 0.34200646E-01 0.26839269E+03</pdfrwt>
<pdfrwt beam="2">  1       -1 0.12462936E-01 0.26839269E+03</pdfrwt>
<totfact> 0.54860529E+03</totfact>
</mgrwt>
</event>
<event>
 9    1  0.8093459E-001  0.2677751E+03  0.7818608E-02  0.1102560E+00
          4   -1    0    0  501    0  0.00000000000E+00  0.00000000000E+00  0.24562855292E+03  0.24562855292E+03  0.00000000000E+00 0.  1.
         -4   -1    0    0    0  501 -0.00000000000E+00 -0.00000000000E+00 -0.72979614338E+02  0.72979614338E+02  0.00000000000E+00 0.  1.
         35    2    1    2    0    0  0.71054273576E-14  0.00000000000E+00  0.17264893858E+03  0.31860816725E+03  0.26777510760E+03 0.  0.
         25    2    3    3    0    0  0.46940066319E+02  0.17610438408E+01  0.11112292407E+03  0.17170740224E+03  0.12218288190E+03 0.  0.
         25    2    3    3    0    0 -0.46940066319E+02 -0.17610438408E+01  0.61526014506E+02  0.14690076501E+03  0.12485156466E+03 0.  0.
          5    1    4    4  502    0 -0.25009399928E+02  0.35763850959E+02  0.68374057749E+02  0.81250383957E+02  0.47000000000E+01 0. -1.
         -5    1    4    4    0  502  0.71949466247E+02 -0.34002807118E+02  0.42748866323E+02  0.90457018285E+02  0.47000000000E+01 0. -1.
          5    1    5    5  503    0 -0.76018669101E+02  0.36947862630E+02  0.41813388569E+02  0.94416270147E+02  0.47000000000E+01 0. -1.
         -5    1    5    5    0  503  0.29078602782E+02 -0.38708906471E+02  0.19712625937E+02  0.52484494865E+02  0.47000000000E+01 0. -1.
<mgrwt>
<rscale>  0 0.26777511E+03</rscale>
<asrwt>0</asrwt>
<pdfrwt beam="1">  1        4 0.37789008E-01 0.26777511E+03</pdfrwt>
<pdfrwt beam="2">  1       -4 0.11227633E-01 0.26777511E+03</pdfrwt>
<totfact> 0.79197910E+02</totfact>
</mgrwt>
</event>
<event>
 9    1  0.8093459E-001  0.2767193E+03  0.7818608E-02  0.1097494E+00
          1   -1    0    0  501    0  0.00000000000E+00  0.00000000000E+00  0.73467137114E+03  0.73467137114E+03  0.00000000000E+00 0. -1.
         -1   -1    0    0    0  501 -0.00000000000E+00 -0.00000000000E+00 -0.26057077911E+02  0.26057077911E+02  0.00000000000E+00 0. -1.
         35    2    1    2    0    0  0.00000000000E+00  0.71054273576E-14  0.70861429323E+03  0.76072844905E+03  0.27671927404E+03 0.  0.
         25    2    3    3    0    0 -0.37521083588E+02  0.43368006235E+02  0.36927476759E+03  0.39456082989E+03  0.12659296515E+03 0.  0.
         25    2    3    3    0    0  0.37521083588E+02 -0.43368006235E+02  0.33933952564E+03  0.36616761916E+03  0.12505517176E+03 0.  0.
          5    1    4    4  502    0 -0.36068468295E+02 -0.29771884562E+02  0.57415762534E+02  0.74202151606E+02  0.47000000000E+01 0.  1.
         -5    1    4    4    0  502 -0.14526152934E+01  0.73139890796E+02  0.31185900506E+03  0.32035867828E+03  0.47000000000E+01 0.  1.
          5    1    5    5  503    0 -0.43186313948E+02 -0.38776333752E+01  0.72944584554E+02  0.84988800255E+02  0.47000000000E+01 0. -1.
         -5    1    5    5    0  503  0.80707397537E+02 -0.39490372859E+02  0.26639494108E+03  0.28117881890E+03  0.47000000000E+01 0. -1.
<mgrwt>
<rscale>  0 0.27671927E+03</rscale>
<asrwt>0</asrwt>
<pdfrwt beam="1">  1        1 0.11302635E+00 0.27671927E+03</pdfrwt>
<pdfrwt beam="2">  1       -1 0.40087818E-02 0.27671927E+03</pdfrwt>
<totfact> 0.64170638E+03</totfact>
</mgrwt>
</event>
<event>
 9    1  0.8093459E-001  0.2738124E+03  0.7818608E-02  0.1099117E+00
         -1   -1    0    0    0  501 -0.00000000000E+00  0.00000000000E+00  0.31489762932E+02  0.31489762932E+02  0.00000000000E+00 0. -1.
          1   -1    0    0  501    0  0.00000000000E+00 -0.00000000000E+00 -0.59521917015E+03  0.59521917015E+03  0.00000000000E+00 0. -1.
         35    2    1    2    0    0  0.00000000000E+00  0.35527136788E-14 -0.56372940722E+03  0.62670893308E+03  0.27381242164E+03 0.  0.
         25    2    3    3    0    0 -0.48002507823E+02 -0.22607321321E+02 -0.35897847159E+03  0.38026473533E+03  0.11366791165E+03 0.  0.
         25    2    3    3    0    0  0.48002507823E+02  0.22607321321E+02 -0.20475093563E+03  0.24644419775E+03  0.12647713322E+03 0.  0.
          5    1    4    4  502    0  0.36114761715E+02  0.71895052483E+00 -0.13509339140E+03  0.13991821648E+03  0.47000000000E+01 0.  1.
         -5    1    4    4    0  502 -0.84117269538E+02 -0.23326271846E+02 -0.22388508019E+03  0.24034651885E+03  0.47000000000E+01 0.  1.
          5    1    5    5  503    0 -0.31937354118E+02  0.60198265415E+01 -0.86246832378E+01  0.33951554612E+02  0.47000000000E+01 0.  1.
         -5    1    5    5    0  503  0.79939861941E+02  0.16587494779E+02 -0.19612625239E+03  0.21249264314E+03  0.47000000000E+01 0.  1.
<mgrwt>
<rscale>  0 0.27381242E+03</rscale>
<asrwt>0</asrwt>
<pdfrwt beam="1">  1        1 0.91572181E-01 0.27381242E+03</pdfrwt>
<pdfrwt beam="2">  1       -1 0.48445788E-02 0.27381242E+03</pdfrwt>
<totfact> 0.65386258E+03</totfact>
</mgrwt>
</event>
<event>
 9    1  0.8093459E-001  0.2738230E+03  0.7818608E-02  0.1099111E+00
          2   -1    0    0  501    0  0.00000000000E+00  0.00000000000E+00  0.15629723893E+04  0.15629723893E+04  0.00000000000E+00 0.  1.
         -2   -1    0    0    0  501 -0.00000000000E+00 -0.00000000000E+00 -0.11993017629E+02  0.11993017629E+02  0.00000000000E+00 0.  1.
         35    2    1    2    0    0 -0.71054273576E-14  0.00000000000E+00  0.15509793717E+04  0.15749654069E+04  0.27382297506E+03 0.  0.
         25    2    3    3    0    0  0.43258729617E+02 -0.29786064842E+02  0.89746019078E+03  0.90757459633E+03  0.12449227491E+03 0.  0.
         25    2    3    3    0    0 -0.43258729617E+02  0.29786064842E+02  0.65351918087E+03  0.66739081058E+03  0.12475835418E+03 0.  0.
          5    1    4    4  502    0  0.83223559082E+01 -0.65298014765E+02  0.26333749363E+03  0.27148078733E+03  0.47000000000E+01 0. -1.
         -5    1    4    4    0  502  0.34936373709E+02  0.35511949923E+02  0.63412269716E+03  0.63609380900E+03  0.47000000000E+01 0. -1.
          5    1    5    5  503    0  0.31235150071E+02  0.43621991164E+02  0.36937288994E+03  0.37327862855E+03  0.47000000000E+01 0. -1.
         -5    1    5    5    0  503 -0.74493879688E+02 -0.13835926322E+02  0.28414629093E+03  0.29411218203E+03  0.47000000000E+01 0. -1.
<mgrwt>
<rscale>  0 0.27382298E+03</rscale>
<asrwt>0</asrwt>
<pdfrwt beam="1">  1        2 0.24045713E+00 0.27382298E+03</pdfrwt>
<pdfrwt beam="2">  1       -2 0.18450809E-02 0.27382298E+03</pdfrwt>
<totfact> 0.10990709E+04</totfact>
</mgrwt>
</event>
<event>
 9    1  0.8093459E-001  0.2767322E+03  0.7818608E-02  0.1097487E+00
          2   -1    0    0  501    0  0.00000000000E+00  0.00000000000E+00  0.11171028263E+04  0.11171028263E+04  0.00000000000E+00 0. -1.
         -2   -1    0    0    0  501 -0.00000000000E+00 -0.00000000000E+00 -0.17138240846E+02  0.17138240846E+02  0.00000000000E+00 0. -1.
         35    2    1    2    0    0  0.00000000000E+00 -0.35527136788E-14  0.10999645854E+04  0.11342410671E+04  0.27673219752E+03 0.  0.
         25    2    3    3    0    0  0.43559678484E+02  0.26203488416E+01  0.71975562849E+03  0.73158765230E+03  0.12356381525E+03 0.  0.
         25    2    3    3    0    0 -0.43559678484E+02 -0.26203488416E+01  0.38020895692E+03  0.40265341480E+03  0.12516632818E+03 0.  0.
          5    1    4    4  502    0  0.39602236861E+02  0.60693541307E+02  0.39217346946E+03  0.39884102506E+03  0.47000000000E+01 0. -1.
         -5    1    4    4    0  502  0.39574416227E+01 -0.58073192465E+02  0.32758215903E+03  0.33274662725E+03  0.47000000000E+01 0. -1.
          5    1    5    5  503    0 -0.14627855097E+02 -0.80210004213E+01 -0.35891482721E+01  0.17699790332E+02  0.47000000000E+01 0.  1.
         -5    1    5    5    0  503 -0.28931823387E+02  0.54006515798E+01  0.38379810519E+03  0.38495362446E+03  0.47000000000E+01 0.  1.
<mgrwt>
<rscale>  0 0.27673220E+03</rscale>
<asrwt>0</asrwt>
<pdfrwt beam="1">  1        2 0.17186192E+00 0.27673220E+03</pdfrwt>
<pdfrwt beam="2">  1       -2 0.26366533E-02 0.27673220E+03</pdfrwt>
<totfact> 0.11443185E+04</totfact>
</mgrwt>
</event>
<event>
 9    1  0.8093459E-001  0.2723653E+03  0.7818608E-02  0.1099933E+00
          2   -1    0    0  501    0  0.00000000000E+00  0.00000000000E+00  0.58587963175E+03  0.58587963175E+03  0.00000000000E+00 0.  1.
         -2   -1    0    0    0  501 -0.00000000000E+00 -0.00000000000E+00 -0.31654482993E+02  0.31654482993E+02  0.00000000000E+00 0.  1.
         35    2    1    2    0    0  0.71054273576E-14 -0.71054273576E-14  0.55422514876E+03  0.61753411475E+03  0.27236531967E+03 0.  0.
         25    2    3    3    0    0  0.45240856196E+02 -0.31277387547E+02  0.28292471565E+03  0.31414262712E+03  0.12495673413E+03 0.  0.
         25    2    3    3    0    0 -0.45240856196E+02  0.31277387547E+02  0.27130043311E+03  0.30339148763E+03  0.12416706375E+03 0.  0.
          5    1    4    4  502    0  0.12192412275E+02 -0.31380380428E+02  0.27838683699E+03  0.28045446012E+03  0.47000000000E+01 0. -1.
         -5    1    4    4    0  502  0.33048443921E+02  0.10299288077E+00  0.45378786669E+01  0.33688167002E+02  0.47000000000E+01 0. -1.
          5    1    5    5  503    0  0.42208177021E+01 -0.44535858840E+02  0.97415827597E+02  0.10729954096E+03  0.47000000000E+01 0.  1.
         -5    1    5    5    0  503 -0.49461673899E+02  0.75813246387E+02  0.17388460551E+03  0.19609194666E+03  0.47000000000E+01 0.  1.
<mgrwt>
<rscale>  0 0.27236532E+03</rscale>
<asrwt>0</asrwt>
<pdfrwt beam="1">  1        2 0.90135320E-01 0.27236532E+03</pdfrwt>
<pdfrwt beam="2">  1       -2 0.48699209E-02 0.27236532E+03</pdfrwt>
<totfact> 0.10518950E+04</totfact>
</mgrwt>
</event>
<event>
 9    1  0.8093459E-001  0.2744614E+03  0.7818608E-02  0.1098753E+00
          2   -1    0    0  501    0  0.00000000000E+00  0.00000000000E+00  0.17770453249E+04  0.17770453249E+04  0.00000000000E+00 0.  1.
         -2   -1    0    0    0  501 -0.00000000000E+00 -0.00000000000E+00 -0.10597516069E+02  0.10597516069E+02  0.00000000000E+00 0.  1.
         35    2    1    2    0    0 -0.71054273576E-14  0.00000000000E+00  0.17664478088E+04  0.17876428410E+04  0.27446140994E+03 0.  0.
         25    2    3    3    0    0 -0.16012998844E+02 -0.17923578015E+02  0.58591323812E+03  0.60019350047E+03  0.12790717190E+03 0.  0.
         25    2    3    3    0    0  0.16012998844E+02  0.17923578015E+02  0.11805345707E+04  0.11874493405E+04  0.12568370150E+03 0.  0.
          5    1    4    4  502    0  0.53891899114E+02 -0.22970155994E+02  0.22804375451E+03  0.23549524162E+03  0.47000000000E+01 0. -1.
         -5    1    4    4    0  502 -0.69904897958E+02  0.50465779784E+01  0.35786948361E+03  0.36469825885E+03  0.47000000000E+01 0. -1.
          5    1    5    5  503    0 -0.24132361067E+02  0.61908888028E+02  0.71541002385E+03  0.71850447006E+03  0.47000000000E+01 0. -1.
         -5    1    5    5    0  503  0.40145359911E+02 -0.43985310013E+02  0.46512454686E+03  0.46894487044E+03  0.47000000000E+01 0. -1.
<mgrwt>
<rscale>  0 0.27446141E+03</rscale>
<asrwt>0</asrwt>
<pdfrwt beam="1">  1        2 0.27339135E+00 0.27446141E+03</pdfrwt>
<pdfrwt beam="2">  1       -2 0.16303885E-02 0.27446141E+03</pdfrwt>
<totfact> 0.10159359E+04</totfact>
</mgrwt>
</event>
<event>
 9    1  0.8093459E-001  0.2714867E+03  0.7818608E-02  0.1100432E+00
          4   -1    0    0  501    0  0.00000000000E+00  0.00000000000E+00  0.31079260363E+02  0.31079260363E+02  0.00000000000E+00 0. -1.
         -4   -1    0    0    0  501 -0.00000000000E+00 -0.00000000000E+00 -0.59287947534E+03  0.59287947534E+03  0.00000000000E+00 0. -1.
         35    2    1    2    0    0  0.00000000000E+00  0.88817841970E-15 -0.56180021497E+03  0.62395873570E+03  0.27148668902E+03 0.  0.
         25    2    3    3    0    0 -0.18750622755E+02 -0.60204395453E+01 -0.16943860068E+03  0.21149234513E+03  0.12502696150E+03 0.  0.
         25    2    3    3    0    0  0.18750622755E+02  0.60204395453E+01 -0.39236161430E+03  0.41246639058E+03  0.12567042387E+03 0.  0.
          5    1    4    4  502    0 -0.22932068715E+02  0.24562071094E+01  0.14240679717E+02  0.27509992507E+02  0.47000000000E+01 0.  1.
         -5    1    4    4    0  502  0.41814459603E+01 -0.84766466547E+01 -0.18367928039E+03  0.18398235262E+03  0.47000000000E+01 0.  1.
          5    1    5    5  503    0  0.15390893227E+02  0.53146529603E+02 -0.85476092603E+02  0.10192980727E+03  0.47000000000E+01 0. -1.
         -5    1    5    5    0  503  0.33597295284E+01 -0.47126090058E+02 -0.30688552169E+03  0.31053658331E+03  0.47000000000E+01 0. -1.
<mgrwt>
<rscale>  0 0.27148669E+03</rscale>
<asrwt>0</asrwt>
<pdfrwt beam="1">  1        4 0.47814248E-02 0.27148669E+03</pdfrwt>
<pdfrwt beam="2">  1       -4 0.91212225E-01 0.27148669E+03</pdfrwt>
<totfact> 0.50698780E+02</totfact>
</mgrwt>
</event>
<event>
 9    1  0.8093459E-001  0.2760237E+03  0.7818608E-02  0.1097881E+00
          2   -1    0    0  501    0  0.00000000000E+00  0.00000000000E+00  0.35419554085E+03  0.35419554085E+03  0.00000000000E+00 0.  1.
         -2   -1    0    0    0  501 -0.00000000000E+00 -0.00000000000E+00 -0.53776163168E+02  0.53776163168E+02  0.00000000000E+00 0.  1.
         35    2    1    2    0    0 -0.14210854715E-13  0.00000000000E+00  0.30041937768E+03  0.40797170402E+03  0.27602374679E+03 0.  0.
         25    2    3    3    0    0  0.46941223247E+02  0.37166933039E+02  0.14998491092E+03  0.20405651103E+03  0.12473462567E+03 0.  0.
         25    2    3    3    0    0 -0.46941223247E+02 -0.37166933039E+02  0.15043446677E+03  0.20391519299E+03  0.12395974261E+03 0.  0.
          5    1    4    4  502    0  0.43823578597E+02  0.37454253740E+02  0.17192902671E+03  0.18139737426E+03  0.47000000000E+01 0.  1.
         -5    1    4    4    0  502  0.31176446503E+01 -0.28732070094E+00 -0.21944115793E+02  0.22659136772E+02  0.47000000000E+01 0.  1.
          5    1    5    5  503    0  0.25343497609E+02 -0.53686735335E+02  0.43696593477E+02  0.73865016777E+02  0.47000000000E+01 0. -1.
         -5    1    5    5    0  503 -0.72284720857E+02  0.16519802296E+02  0.10673787329E+03  0.13005017621E+03  0.47000000000E+01 0. -1.
<mgrwt>
<rscale>  0 0.27602375E+03</rscale>
<asrwt>0</asrwt>
<pdfrwt beam="1">  1        2 0.54491620E-01 0.27602375E+03</pdfrwt>
<pdfrwt beam="2">  1       -2 0.82732561E-02 0.27602375E+03</pdfrwt>
<totfact> 0.81246833E+03</totfact>
</mgrwt>
</event>
<event>
 9    1  0.8093459E-001  0.2561415E+03  0.7818608E-02  0.1109484E+00
         -2   -1    0    0    0  501 -0.00000000000E+00  0.00000000000E+00  0.93979571207E+01  0.93979571207E+01  0.00000000000E+00 0. -1.
          2   -1    0    0  501    0  0.00000000000E+00 -0.00000000000E+00 -0.17452854549E+04  0.17452854549E+04  0.00000000000E+00 0. -1.
         35    2    1    2    0    0  0.35527136788E-14 -0.71054273576E-14 -0.17358874978E+04  0.17546834120E+04  0.25614150674E+03 0.  0.
         25    2    3    3    0    0 -0.34884454424E+01  0.27979282656E+02 -0.85185133317E+03  0.86144512320E+03  0.12506796933E+03 0.  0.
         25    2    3    3    0    0  0.34884454424E+01 -0.27979282656E+02 -0.88403616462E+03  0.89323828884E+03  0.12473848953E+03 0.  0.
          5    1    4    4  502    0 -0.46384520153E+02 -0.25063766500E+02 -0.23902835354E+03  0.24481903500E+03  0.47000000000E+01 0.  1.
         -5    1    4    4    0  502  0.42896074710E+02  0.53043049156E+02 -0.61282297962E+03  0.61662608819E+03  0.47000000000E+01 0.  1.
          5    1    5    5  503    0 -0.25601497320E+01  0.26215758571E+02 -0.71626668205E+03  0.71676625910E+03  0.47000000000E+01 0. -1.
         -5    1    5    5    0  503  0.60485951744E+01 -0.54195041227E+02 -0.16776948258E+03  0.17647202974E+03  0.47000000000E+01 0. -1.
<mgrwt>
<rscale>  0 0.25614151E+03</rscale>
<asrwt>0</asrwt>
<pdfrwt beam="1">  1        2 0.26850519E+00 0.25614151E+03</pdfrwt>
<pdfrwt beam="2">  1       -2 0.14458410E-02 0.25614151E+03</pdfrwt>
<totfact> 0.12567524E+04</totfact>
</mgrwt>
</event>
<event>
 9    1  0.8093459E-001  0.2952074E+03  0.7818608E-02  0.1087661E+00
         -2   -1    0    0    0  501 -0.00000000000E+00  0.00000000000E+00  0.16424816054E+02  0.16424816054E+02  0.00000000000E+00 0. -1.
          2   -1    0    0  501    0  0.00000000000E+00 -0.00000000000E+00 -0.13264591587E+04  0.13264591587E+04  0.00000000000E+00 0. -1.
         35    2    1    2    0    0  0.00000000000E+00 -0.10658141036E-13 -0.13100343427E+04  0.13428839748E+04  0.29520736905E+03 0.  0.
         25    2    3    3    0    0  0.69801122501E+02 -0.27101037742E+02 -0.53958123820E+03  0.55871714583E+03  0.12413812258E+03 0.  0.
         25    2    3    3    0    0 -0.69801122501E+02  0.27101037742E+02 -0.77045310445E+03  0.78416682893E+03  0.12535137209E+03 0.  0.
          5    1    4    4  502    0  0.20598203782E+02  0.43992673694E+02 -0.10769717906E+03  0.11823879953E+03  0.47000000000E+01 0. -1.
         -5    1    4    4    0  502  0.49202918719E+02 -0.71093711436E+02 -0.43188405915E+03  0.44047834630E+03  0.47000000000E+01 0. -1.
          5    1    5    5  503    0 -0.76106942677E+02  0.43689255819E+02 -0.75520783489E+03  0.76030387457E+03  0.47000000000E+01 0. -1.
         -5    1    5    5    0  503  0.63058201756E+01 -0.16588218077E+02 -0.15245269561E+02  0.23862954365E+02  0.47000000000E+01 0. -1.
<mgrwt>
<rscale>  0 0.29520737E+03</rscale>
<asrwt>0</asrwt>
<pdfrwt beam="1">  1        2 0.20407065E+00 0.29520737E+03</pdfrwt>
<pdfrwt beam="2">  1       -2 0.25268947E-02 0.29520737E+03</pdfrwt>
<totfact> 0.92895691E+03</totfact>
</mgrwt>
</event>
<event>
 9    1  0.8093459E-001  0.2762524E+03  0.7818608E-02  0.1097754E+00
         -2   -1    0    0    0  501 -0.00000000000E+00  0.00000000000E+00  0.51935765945E+02  0.51935765945E+02  0.00000000000E+00 0. -1.
          2   -1    0    0  501    0  0.00000000000E+00 -0.00000000000E+00 -0.36735465060E+03  0.36735465060E+03  0.00000000000E+00 0. -1.
         35    2    1    2    0    0  0.88817841970E-15  0.00000000000E+00 -0.31541888466E+03  0.41929041655E+03  0.27625238571E+03 0.  0.
         25    2    3    3    0    0 -0.13473903139E+01  0.43817616669E+02 -0.10070763701E+03  0.16682390990E+03  0.12556428541E+03 0.  0.
         25    2    3    3    0    0  0.13473903139E+01 -0.43817616669E+02 -0.21471124765E+03  0.25246650665E+03  0.12536593684E+03 0.  0.
          5    1    4    4  502    0 -0.69403589874E+01 -0.38058195515E+02 -0.29246489906E+01  0.39079897652E+02  0.47000000000E+01 0.  1.
         -5    1    4    4    0  502  0.55929686736E+01  0.81875812184E+02 -0.97782988018E+02  0.12774401225E+03  0.47000000000E+01 0.  1.
          5    1    5    5  503    0  0.17660872222E+02 -0.59728403663E+02 -0.35689368967E+02  0.71938930136E+02  0.47000000000E+01 0.  1.
         -5    1    5    5    0  503 -0.16313481908E+02  0.15910786994E+02 -0.17902187868E+03  0.18052757651E+03  0.47000000000E+01 0.  1.
<mgrwt>
<rscale>  0 0.27625239E+03</rscale>
<asrwt>0</asrwt>
<pdfrwt beam="1">  1        2 0.56516101E-01 0.27625239E+03</pdfrwt>
<pdfrwt beam="2">  1       -2 0.79901177E-02 0.27625239E+03</pdfrwt>
<totfact> 0.82479753E+03</totfact>
</mgrwt>
</event>
<event>
 9    1  0.8093459E-001  0.2717693E+03  0.7818608E-02  0.1100271E+00
         -2   -1    0    0    0  501 -0.00000000000E+00  0.00000000000E+00  0.12130630292E+03  0.12130630292E+03  0.00000000000E+00 0.  1.
          2   -1    0    0  501    0  0.00000000000E+00 -0.00000000000E+00 -0.15221502680E+03  0.15221502680E+03  0.00000000000E+00 0.  1.
         35    2    1    2    0    0  0.00000000000E+00  0.35527136788E-14 -0.30908723875E+02  0.27352132972E+03  0.27176932976E+03 0.  0.
         25    2    3    3    0    0 -0.29751021825E+02 -0.21337951371E+02 -0.61996831857E+02  0.14310716336E+03  0.12367546878E+03 0.  0.
         25    2    3    3    0    0  0.29751021825E+02  0.21337951371E+02  0.31088107982E+02  0.13041416636E+03  0.12124748599E+03 0.  0.
          5    1    4    4  502    0 -0.13088725333E+02  0.31975500754E+02  0.22652578058E+02  0.41580965261E+02  0.47000000000E+01 0.  1.
         -5    1    4    4    0  502 -0.16662296492E+02 -0.53313452125E+02 -0.84649409915E+02  0.10152619810E+03  0.47000000000E+01 0.  1.
          5    1    5    5  503    0  0.26092195437E+02  0.47042040489E+02 -0.31483881441E+02  0.62506647860E+02  0.47000000000E+01 0.  1.
         -5    1    5    5    0  503  0.36588263878E+01 -0.25704089118E+02  0.62571989423E+02  0.67907518496E+02  0.47000000000E+01 0.  1.
<mgrwt>
<rscale>  0 0.27176933E+03</rscale>
<asrwt>0</asrwt>
<pdfrwt beam="1">  1        2 0.23417696E-01 0.27176933E+03</pdfrwt>
<pdfrwt beam="2">  1       -2 0.18662508E-01 0.27176933E+03</pdfrwt>
<totfact> 0.54421397E+03</totfact>
</mgrwt>
</event>
<event>
 9    1  0.8093459E-001  0.2718976E+03  0.7818608E-02  0.1100198E+00
         -1   -1    0    0    0  501 -0.00000000000E+00  0.00000000000E+00  0.27311544682E+03  0.27311544682E+03  0.00000000000E+00 0.  1.
          1   -1    0    0  501    0  0.00000000000E+00 -0.00000000000E+00 -0.67671302944E+02  0.67671302944E+02  0.00000000000E+00 0.  1.
         35    2    1    2    0    0 -0.35527136788E-14 -0.21316282073E-13  0.20544414388E+03  0.34078674976E+03  0.27189761412E+03 0.  0.
         25    2    3    3    0    0  0.10340905312E+02 -0.41690414121E+02  0.64027302537E+02  0.14708989094E+03  0.12526338489E+03 0.  0.
         25    2    3    3    0    0 -0.10340905312E+02  0.41690414121E+02  0.14141684134E+03  0.19369685883E+03  0.12519874261E+03 0.  0.
          5    1    4    4  502    0 -0.39228160614E+02  0.76786347725E+01 -0.13599925708E+02  0.42483620331E+02  0.47000000000E+01 0. -1.
         -5    1    4    4    0  502  0.49569065926E+02 -0.49369048894E+02  0.77627228245E+02  0.10460627061E+03  0.47000000000E+01 0. -1.
          5    1    5    5  503    0 -0.64939813018E+01 -0.30182787705E+02 -0.38919836993E+01  0.31470780160E+02  0.47000000000E+01 0.  1.
         -5    1    5    5    0  503 -0.38469240101E+01  0.71873201826E+02  0.14530882504E+03  0.16222607867E+03  0.47000000000E+01 0.  1.
<mgrwt>
<rscale>  0 0.27189761E+03</rscale>
<asrwt>0</asrwt>
<pdfrwt beam="1">  1        1 0.10410970E-01 0.27189761E+03</pdfrwt>
<pdfrwt beam="2">  1       -1 0.42017760E-01 0.27189761E+03</pdfrwt>
<totfact> 0.34164261E+03</totfact>
</mgrwt>
</event>
<event>
 9    1  0.8093459E-001  0.2755331E+03  0.7818608E-02  0.1098154E+00
          1   -1    0    0  501    0  0.00000000000E+00  0.00000000000E+00  0.98455450494E+03  0.98455450494E+03  0.00000000000E+00 0.  1.
         -1   -1    0    0    0  501 -0.00000000000E+00 -0.00000000000E+00 -0.19277375173E+02  0.19277375173E+02  0.00000000000E+00 0.  1.
         35    2    1    2    0    0  0.00000000000E+00  0.35527136788E-14  0.96527712977E+03  0.10038318801E+04  0.27553313100E+03 0.  0.
         25    2    3    3    0    0 -0.54871389099E+02 -0.17005070228E+02  0.46780029334E+03  0.48745244637E+03  0.12438943392E+03 0.  0.
         25    2    3    3    0    0  0.54871389099E+02  0.17005070228E+02  0.49747683644E+03  0.51637943375E+03  0.12595425778E+03 0.  0.
          5    1    4    4  502    0  0.18768959568E+02  0.21681785462E+02  0.28596942176E+03  0.28744212260E+03  0.47000000000E+01 0.  1.
         -5    1    4    4    0  502 -0.73640348667E+02 -0.38686855690E+02  0.18183087157E+03  0.20001032376E+03  0.47000000000E+01 0.  1.
          5    1    5    5  503    0  0.80820925277E+02 -0.86954017205E+01  0.19008487219E+03  0.20678970141E+03  0.47000000000E+01 0.  1.
         -5    1    5    5    0  503 -0.25949536178E+02  0.25700471948E+02  0.30739196425E+03  0.30958973234E+03  0.47000000000E+01 0.  1.
<mgrwt>
<rscale>  0 0.27553313E+03</rscale>
<asrwt>0</asrwt>
<pdfrwt beam="1">  1        1 0.15146989E+00 0.27553313E+03</pdfrwt>
<pdfrwt beam="2">  1       -1 0.29657508E-02 0.27553313E+03</pdfrwt>
<totfact> 0.62979555E+03</totfact>
</mgrwt>
</event>
<event>
 9    1  0.8093459E-001  0.2747530E+03  0.7818608E-02  0.1098590E+00
          2   -1    0    0  501    0  0.00000000000E+00  0.00000000000E+00  0.25814218443E+02  0.25814218443E+02  0.00000000000E+00 0.  1.
         -2   -1    0    0    0  501 -0.00000000000E+00 -0.00000000000E+00 -0.73108188977E+03  0.73108188977E+03  0.00000000000E+00 0.  1.
         35    2    1    2    0    0 -0.71054273576E-14  0.35527136788E-14 -0.70526767133E+03  0.75689610822E+03  0.27475303530E+03 0.  0.
         25    2    3    3    0    0  0.41360622768E+02 -0.21669998123E+02 -0.26374332459E+03  0.29547943297E+03  0.12476884271E+03 0.  0.
         25    2    3    3    0    0 -0.41360622768E+02  0.21669998123E+02 -0.44152434674E+03  0.46141667525E+03  0.12562368205E+03 0.  0.
          5    1    4    4  502    0  0.70774156469E+02 -0.89516260856E+01 -0.25047573844E+03  0.26047897877E+03  0.47000000000E+01 0.  1.
         -5    1    4    4    0  502 -0.29413533701E+02 -0.12718372037E+02 -0.13267586144E+02  0.35000454199E+02  0.47000000000E+01 0.  1.
          5    1    5    5  503    0 -0.78487030809E+01 -0.17144695880E+02 -0.27446829228E+01  0.19625647026E+02  0.47000000000E+01 0.  1.
         -5    1    5    5    0  503 -0.33511919687E+02  0.38814694002E+02 -0.43877966382E+03  0.44179102822E+03  0.47000000000E+01 0.  1.
<mgrwt>
<rscale>  0 0.27475304E+03</rscale>
<asrwt>0</asrwt>
<pdfrwt beam="1">  1        2 0.39714186E-02 0.27475304E+03</pdfrwt>
<pdfrwt beam="2">  1       -2 0.11247413E+00 0.27475304E+03</pdfrwt>
<totfact> 0.13889380E+03</totfact>
</mgrwt>
</event>
<event>
 9    1  0.8093459E-001  0.2781733E+03  0.7818608E-02  0.1096691E+00
         -2   -1    0    0    0  501 -0.00000000000E+00  0.00000000000E+00  0.57245275220E+02  0.57245275220E+02  0.00000000000E+00 0. -1.
          2   -1    0    0  501    0  0.00000000000E+00 -0.00000000000E+00 -0.33793360419E+03  0.33793360419E+03  0.00000000000E+00 0. -1.
         35    2    1    2    0    0 -0.71054273576E-14  0.00000000000E+00 -0.28068832897E+03  0.39517887941E+03  0.27817334292E+03 0.  0.
         25    2    3    3    0    0  0.19054380476E+02 -0.25417961688E+02 -0.66572036228E+02  0.14495869239E+03  0.12478799742E+03 0.  0.
         25    2    3    3    0    0 -0.19054380476E+02  0.25417961688E+02 -0.21411629274E+03  0.25022018702E+03  0.12551977129E+03 0.  0.
          5    1    4    4  502    0 -0.34762168427E+02 -0.20706438514E+02 -0.79396860726E+02  0.89236295546E+02  0.47000000000E+01 0.  1.
         -5    1    4    4    0  502  0.53816548903E+02 -0.47115231740E+01  0.12824824497E+02  0.55722396842E+02  0.47000000000E+01 0.  1.
          5    1    5    5  503    0  0.51219863149E+02  0.28829075665E+02 -0.97381277227E+02  0.11384108722E+03  0.47000000000E+01 0. -1.
         -5    1    5    5    0  503 -0.70274243625E+02 -0.34111139775E+01 -0.11673501551E+03  0.13637909980E+03  0.47000000000E+01 0. -1.
<mgrwt>
<rscale>  0 0.27817334E+03</rscale>
<asrwt>0</asrwt>
<pdfrwt beam="1">  1        2 0.51989784E-01 0.27817334E+03</pdfrwt>
<pdfrwt beam="2">  1       -2 0.88069656E-02 0.27817334E+03</pdfrwt>
<totfact> 0.77507297E+03</totfact>
</mgrwt>
</event>
<event>
 9    1  0.8093459E-001  0.2766988E+03  0.7818608E-02  0.1097506E+00
          2   -1    0    0  501    0  0.00000000000E+00  0.00000000000E+00  0.33636829069E+03  0.33636829069E+03  0.00000000000E+00 0.  1.
         -2   -1    0    0    0  501 -0.00000000000E+00 -0.00000000000E+00 -0.56903550818E+02  0.56903550818E+02  0.00000000000E+00 0.  1.
         35    2    1    2    0    0  0.71054273576E-14  0.17763568394E-14  0.27946473987E+03  0.39327184151E+03  0.27669875405E+03 0.  0.
         25    2    3    3    0    0 -0.50437201047E+02 -0.82882248970E+01  0.17489057830E+03  0.22152854453E+03  0.12599831643E+03 0.  0.
         25    2    3    3    0    0  0.50437201047E+02  0.82882248970E+01  0.10457416157E+03  0.17174329698E+03  0.12628301100E+03 0.  0.
          5    1    4    4  502    0 -0.10983404064E+02 -0.46538398364E+02  0.15599884074E+03  0.16323046897E+03  0.47000000000E+01 0.  1.
         -5    1    4    4    0  502 -0.39453796983E+02  0.38250173467E+02  0.18891737563E+02  0.58298075566E+02  0.47000000000E+01 0.  1.
          5    1    5    5  503    0  0.68539874647E+02  0.83771507702E+01  0.38707963145E+01  0.69317848609E+02  0.47000000000E+01 0. -1.
         -5    1    5    5    0  503 -0.18102673600E+02 -0.88925873185E-01  0.10070336526E+03  0.10242544837E+03  0.47000000000E+01 0. -1.
<mgrwt>
<rscale>  0 0.27669875E+03</rscale>
<asrwt>0</asrwt>
<pdfrwt beam="1">  1        2 0.51748967E-01 0.27669875E+03</pdfrwt>
<pdfrwt beam="2">  1       -2 0.87543926E-02 0.27669875E+03</pdfrwt>
<totfact> 0.78617508E+03</totfact>
</mgrwt>
</event>
<event>
 9    1  0.8093459E-001  0.2743038E+03  0.7818608E-02  0.1098841E+00
          2   -1    0    0  501    0  0.00000000000E+00  0.00000000000E+00  0.28042581408E+03  0.28042581408E+03  0.00000000000E+00 0.  1.
         -2   -1    0    0    0  501 -0.00000000000E+00 -0.00000000000E+00 -0.67078871090E+02  0.67078871090E+02  0.00000000000E+00 0.  1.
         35    2    1    2    0    0 -0.71054273576E-14  0.00000000000E+00  0.21334694299E+03  0.34750468517E+03  0.27430382449E+03 0.  0.
         25    2    3    3    0    0  0.35922298047E+02  0.29971704156E+01  0.16175519905E+03  0.20758224434E+03  0.12500499678E+03 0.  0.
         25    2    3    3    0    0 -0.35922298047E+02 -0.29971704156E+01  0.51591743938E+02  0.13992244082E+03  0.12496874360E+03 0.  0.
          5    1    4    4  502    0 -0.44571180625E+02 -0.83936390857E+01  0.80673895544E+02  0.92668283364E+02  0.47000000000E+01 0.  1.
         -5    1    4    4    0  502  0.80493478672E+02  0.11390809501E+02  0.81081303504E+02  0.11491396098E+03  0.47000000000E+01 0.  1.
          5    1    5    5  503    0 -0.51249608407E+02  0.18082180662E+02 -0.24171179742E+02  0.59664256884E+02  0.47000000000E+01 0.  1.
         -5    1    5    5    0  503  0.15327310360E+02 -0.21079351078E+02  0.75762923680E+02  0.80258183940E+02  0.47000000000E+01 0.  1.
<mgrwt>
<rscale>  0 0.27430382E+03</rscale>
<asrwt>0</asrwt>
<pdfrwt beam="1">  1        2 0.43142432E-01 0.27430382E+03</pdfrwt>
<pdfrwt beam="2">  1       -2 0.10319826E-01 0.27430382E+03</pdfrwt>
<totfact> 0.73666849E+03</totfact>
</mgrwt>
</event>
<event>
 9    1  0.8093459E-001  0.2780964E+03  0.7818608E-02  0.1096733E+00
         -1   -1    0    0    0  501 -0.00000000000E+00  0.00000000000E+00  0.16725451523E+04  0.16725451523E+04  0.00000000000E+00 0.  1.
          1   -1    0    0  501    0  0.00000000000E+00 -0.00000000000E+00 -0.11559867519E+02  0.11559867519E+02  0.00000000000E+00 0.  1.
         35    2    1    2    0    0 -0.35527136788E-14  0.35527136788E-14  0.16609852848E+04  0.16841050198E+04  0.27809638890E+03 0.  0.
         25    2    3    3    0    0 -0.98524094877E+01  0.23462437681E+02  0.55523134123E+03  0.57097716631E+03  0.13071161468E+03 0.  0.
         25    2    3    3    0    0  0.98524094877E+01 -0.23462437681E+02  0.11057539435E+04  0.11131278535E+04  0.12535660580E+03 0.  0.
          5    1    4    4  502    0  0.28250019927E+02  0.58156415870E+02  0.43883444111E+03  0.44359665129E+03  0.47000000000E+01 0.  1.
         -5    1    4    4    0  502 -0.38102429414E+02 -0.34693978189E+02  0.11639690012E+03  0.12738051502E+03  0.47000000000E+01 0.  1.
          5    1    5    5  503    0 -0.15682390743E+02  0.12884157123E+02  0.30440182074E+02  0.36886766854E+02  0.47000000000E+01 0.  1.
         -5    1    5    5    0  503  0.25534800231E+02 -0.36346594804E+02  0.10753137615E+04  0.10762410866E+04  0.47000000000E+01 0.  1.
<mgrwt>
<rscale>  0 0.27809639E+03</rscale>
<asrwt>0</asrwt>
<pdfrwt beam="1">  1        1 0.17784425E-02 0.27809639E+03</pdfrwt>
<pdfrwt beam="2">  1       -1 0.25731445E+00 0.27809639E+03</pdfrwt>
<totfact> 0.50995099E+02</totfact>
</mgrwt>
</event>
<event>
 9    1  0.8093459E-001  0.2748757E+03  0.7818608E-02  0.1098521E+00
         -2   -1    0    0    0  501 -0.00000000000E+00  0.00000000000E+00  0.18295719211E+02  0.18295719211E+02  0.00000000000E+00 0.  1.
          2   -1    0    0  501    0  0.00000000000E+00 -0.00000000000E+00 -0.10324365591E+04  0.10324365591E+04  0.00000000000E+00 0.  1.
         35    2    1    2    0    0 -0.17763568394E-14 -0.71054273576E-14 -0.10141408399E+04  0.10507322784E+04  0.27487574930E+03 0.  0.
         25    2    3    3    0    0 -0.10608883289E+02 -0.20310190733E+02 -0.30858342603E+03  0.33176615679E+03  0.11966620123E+03 0.  0.
         25    2    3    3    0    0  0.10608883289E+02  0.20310190733E+02 -0.70555741390E+03  0.71896612156E+03  0.13629368069E+03 0.  0.
          5    1    4    4  502    0 -0.22441652961E+02 -0.67148044510E+02 -0.21398860891E+03  0.22544556419E+03  0.47000000000E+01 0. -1.
         -5    1    4    4    0  502  0.11832769672E+02  0.46837853777E+02 -0.94594817127E+02  0.10632059261E+03  0.47000000000E+01 0. -1.
          5    1    5    5  503    0  0.14999779622E+02  0.78247076543E+02 -0.42138846262E+03  0.42887984892E+03  0.47000000000E+01 0. -1.
         -5    1    5    5    0  503 -0.43908963325E+01 -0.57936885811E+02 -0.28416895127E+03  0.29008627264E+03  0.47000000000E+01 0. -1.
<mgrwt>
<rscale>  0 0.27487575E+03</rscale>
<asrwt>0</asrwt>
<pdfrwt beam="1">  1        2 0.15883644E+00 0.27487575E+03</pdfrwt>
<pdfrwt beam="2">  1       -2 0.28147253E-02 0.27487575E+03</pdfrwt>
<totfact> 0.11656928E+04</totfact>
</mgrwt>
</event>
<event>
 9    1  0.8093459E-001  0.2780417E+03  0.7818608E-02  0.1096763E+00
          2   -1    0    0  501    0  0.00000000000E+00  0.00000000000E+00  0.21652743915E+04  0.21652743915E+04  0.00000000000E+00 0.  1.
         -2   -1    0    0    0  501 -0.00000000000E+00 -0.00000000000E+00 -0.89257985640E+01  0.89257985640E+01  0.00000000000E+00 0.  1.
         35    2    1    2    0    0  0.71054273576E-14  0.17763568394E-14  0.21563485930E+04  0.21742001901E+04  0.27804174546E+03 0.  0.
         25    2    3    3    0    0  0.53843475082E+02 -0.97997335681E+01  0.13021691915E+04  0.13092815061E+04  0.12481307755E+03 0.  0.
         25    2    3    3    0    0 -0.53843475082E+02  0.97997335681E+01  0.85417940145E+03  0.86491868398E+03  0.12436529038E+03 0.  0.
          5    1    4    4  502    0  0.36028923284E+02 -0.20281116397E+02  0.12704520236E+04  0.12711332902E+04  0.47000000000E+01 0.  1.
         -5    1    4    4    0  502  0.17814551798E+02  0.10481382829E+02  0.31717167866E+02  0.38148215938E+02  0.47000000000E+01 0.  1.
          5    1    5    5  503    0 -0.16382291031E+02 -0.43354545809E+02  0.62248701276E+03  0.62422765651E+03  0.47000000000E+01 0.  1.
         -5    1    5    5    0  503 -0.37461184051E+02  0.53154279377E+02  0.23169238869E+03  0.24069102746E+03  0.47000000000E+01 0.  1.
<mgrwt>
<rscale>  0 0.27804175E+03</rscale>
<asrwt>0</asrwt>
<pdfrwt beam="1">  1        2 0.33311872E+00 0.27804175E+03</pdfrwt>
<pdfrwt beam="2">  1       -2 0.13732015E-02 0.27804175E+03</pdfrwt>
<totfact> 0.81579867E+03</totfact>
</mgrwt>
</event>
<event>
 9    1  0.8093459E-001  0.2756453E+03  0.7818608E-02  0.1098091E+00
         -1   -1    0    0    0  501 -0.00000000000E+00  0.00000000000E+00  0.78128748987E+02  0.78128748987E+02  0.00000000000E+00 0. -1.
          1   -1    0    0  501    0  0.00000000000E+00 -0.00000000000E+00 -0.24312536488E+03  0.24312536488E+03  0.00000000000E+00 0. -1.
         35    2    1    2    0    0  0.00000000000E+00 -0.71054273576E-14 -0.16499661589E+03  0.32125411387E+03  0.27564528369E+03 0.  0.
         25    2    3    3    0    0  0.46947633355E+02 -0.35087168497E+02 -0.73409345681E+02  0.15587766946E+03  0.12439343284E+03 0.  0.
         25    2    3    3    0    0 -0.46947633355E+02  0.35087168497E+02 -0.91587270212E+02  0.16537644440E+03  0.12460317262E+03 0.  0.
          5    1    4    4  502    0  0.15132246934E+02 -0.79417911218E+02 -0.55809636858E+02  0.98351385785E+02  0.47000000000E+01 0. -1.
         -5    1    4    4    0  502  0.31815386420E+02  0.44330742722E+02 -0.17599708823E+02  0.57526283680E+02  0.47000000000E+01 0. -1.
          5    1    5    5  503    0  0.15281951327E+02  0.29312180346E+02  0.18888296695E+02  0.38361435127E+02  0.47000000000E+01 0.  1.
         -5    1    5    5    0  503 -0.62229584682E+02  0.57749881510E+01 -0.11047556691E+03  0.12701500928E+03  0.47000000000E+01 0.  1.
<mgrwt>
<rscale>  0 0.27564528E+03</rscale>
<asrwt>0</asrwt>
<pdfrwt beam="1">  1        1 0.37403902E-01 0.27564528E+03</pdfrwt>
<pdfrwt beam="2">  1       -1 0.12019808E-01 0.27564528E+03</pdfrwt>
<totfact> 0.51927127E+03</totfact>
</mgrwt>
</event>
<event>
 9    1  0.8093459E-001  0.2746195E+03  0.7818608E-02  0.1098665E+00
         -1   -1    0    0    0  501 -0.00000000000E+00  0.00000000000E+00  0.52310540795E+02  0.52310540795E+02  0.00000000000E+00 0.  1.
          1   -1    0    0  501    0  0.00000000000E+00 -0.00000000000E+00 -0.36042373897E+03  0.36042373897E+03  0.00000000000E+00 0.  1.
         35    2    1    2    0    0 -0.14210854715E-13  0.00000000000E+00 -0.30811319818E+03  0.41273427977E+03  0.27461945088E+03 0.  0.
         25    2    3    3    0    0 -0.42296275769E+02 -0.35363859616E+02 -0.17753268137E+03  0.22409285987E+03  0.12514063840E+03 0.  0.
         25    2    3    3    0    0  0.42296275769E+02  0.35363859616E+02 -0.13058051680E+03  0.18864141989E+03  0.12447785514E+03 0.  0.
          5    1    4    4  502    0 -0.86385973043E+02 -0.29382268488E+02 -0.10872170070E+03  0.14201532397E+03  0.47000000000E+01 0.  1.
         -5    1    4    4    0  502  0.44089697274E+02 -0.59815911279E+01 -0.68810980672E+02  0.82077535899E+02  0.47000000000E+01 0.  1.
          5    1    5    5  503    0 -0.39035199229E+02 -0.61981887442E+00 -0.13579558908E+02  0.41600785743E+02  0.47000000000E+01 0.  1.
         -5    1    5    5    0  503  0.81331474998E+02  0.35983678490E+02 -0.11700095789E+03  0.14704063415E+03  0.47000000000E+01 0.  1.
<mgrwt>
<rscale>  0 0.27461945E+03</rscale>
<asrwt>0</asrwt>
<pdfrwt beam="1">  1        1 0.55449805E-01 0.27461945E+03</pdfrwt>
<pdfrwt beam="2">  1       -1 0.80477757E-02 0.27461945E+03</pdfrwt>
<totfact> 0.58762935E+03</totfact>
</mgrwt>
</event>
<event>
 9    1  0.8093459E-001  0.2748346E+03  0.7818608E-02  0.1098544E+00
          1   -1    0    0  501    0  0.00000000000E+00  0.00000000000E+00  0.75016536033E+03  0.75016536033E+03  0.00000000000E+00 0.  1.
         -1   -1    0    0    0  501 -0.00000000000E+00 -0.00000000000E+00 -0.25172467965E+02  0.25172467965E+02  0.00000000000E+00 0.  1.
         35    2    1    2    0    0  0.00000000000E+00  0.00000000000E+00  0.72499289237E+03  0.77533782830E+03  0.27483459390E+03 0.  0.
         25    2    3    3    0    0  0.38262490823E+02  0.12177792832E+02  0.25479513860E+03  0.28700826251E+03  0.12586049123E+03 0.  0.
         25    2    3    3    0    0 -0.38262490823E+02 -0.12177792832E+02  0.47019775377E+03  0.48832956579E+03  0.12556878726E+03 0.  0.
          5    1    4    4  502    0  0.35477982114E+02 -0.38640875541E+02  0.39782361587E+02  0.66004020869E+02  0.47000000000E+01 0. -1.
         -5    1    4    4    0  502  0.27845087095E+01  0.50818668374E+02  0.21501277701E+03  0.22100424164E+03  0.47000000000E+01 0. -1.
          5    1    5    5  503    0 -0.83793814215E+02  0.18438557152E+01  0.30285721234E+03  0.31427596818E+03  0.47000000000E+01 0.  1.
         -5    1    5    5    0  503  0.45531323392E+02 -0.14021648548E+02  0.16734054142E+03  0.17405359761E+03  0.47000000000E+01 0.  1.
<mgrwt>
<rscale>  0 0.27483459E+03</rscale>
<asrwt>0</asrwt>
<pdfrwt beam="1">  1        1 0.11541004E+00 0.27483459E+03</pdfrwt>
<pdfrwt beam="2">  1       -1 0.38726880E-02 0.27483459E+03</pdfrwt>
<totfact> 0.65468769E+03</totfact>
</mgrwt>
</event>
<event>
 9    1  0.8093459E-001  0.2752898E+03  0.7818608E-02  0.1098290E+00
          1   -1    0    0  501    0  0.00000000000E+00  0.00000000000E+00  0.48899042294E+03  0.48899042294E+03  0.00000000000E+00 0.  1.
         -1   -1    0    0    0  501 -0.00000000000E+00 -0.00000000000E+00 -0.38745377200E+02  0.38745377200E+02  0.00000000000E+00 0.  1.
         35    2    1    2    0    0  0.00000000000E+00  0.00000000000E+00  0.45024504574E+03  0.52773580014E+03  0.27528979919E+03 0.  0.
         25    2    3    3    0    0 -0.50856460460E+02  0.22549450242E+02  0.23533168259E+03  0.27263902892E+03  0.12592133251E+03 0.  0.
         25    2    3    3    0    0  0.50856460460E+02 -0.22549450242E+02  0.21491336315E+03  0.25509677123E+03  0.12566523685E+03 0.  0.
          5    1    4    4  502    0 -0.48361824044E+02 -0.43294523475E+02  0.75400441704E+02  0.99602200763E+02  0.47000000000E+01 0. -1.
         -5    1    4    4    0  502 -0.24946364159E+01  0.65843973717E+02  0.15993124089E+03  0.17303682816E+03  0.47000000000E+01 0. -1.
          5    1    5    5  503    0 -0.39224533677E+02  0.84636046191E+01  0.82987783874E+02  0.92299831622E+02  0.47000000000E+01 0.  1.
         -5    1    5    5    0  503  0.90080994136E+02 -0.31013054861E+02  0.13192557928E+03  0.16279693960E+03  0.47000000000E+01 0.  1.
<mgrwt>
<rscale>  0 0.27528980E+03</rscale>
<asrwt>0</asrwt>
<pdfrwt beam="1">  1        1 0.75229292E-01 0.27528980E+03</pdfrwt>
<pdfrwt beam="2">  1       -1 0.59608276E-02 0.27528980E+03</pdfrwt>
<totfact> 0.62479188E+03</totfact>
</mgrwt>
</event>
<event>
 9    1  0.8093459E-001  0.2712644E+03  0.7818608E-02  0.1100558E+00
         -2   -1    0    0    0  501 -0.00000000000E+00  0.00000000000E+00  0.38036213924E+02  0.38036213924E+02  0.00000000000E+00 0.  1.
          2   -1    0    0  501    0  0.00000000000E+00 -0.00000000000E+00 -0.48364686507E+03  0.48364686507E+03  0.00000000000E+00 0.  1.
         35    2    1    2    0    0 -0.35527136788E-14  0.00000000000E+00 -0.44561065115E+03  0.52168307900E+03  0.27126441435E+03 0.  0.
         25    2    3    3    0    0 -0.22931665298E+02  0.37528449007E+02 -0.26796482337E+03  0.29871044109E+03  0.12445294412E+03 0.  0.
         25    2    3    3    0    0  0.22931665298E+02 -0.37528449007E+02 -0.17764582778E+03  0.22297263790E+03  0.12737547396E+03 0.  0.
          5    1    4    4  502    0  0.10138253177E+02  0.61741913454E+02 -0.60424603338E+02  0.87109533021E+02  0.47000000000E+01 0.  1.
         -5    1    4    4    0  502 -0.33069918476E+02 -0.24213464447E+02 -0.20754022003E+03  0.21160090807E+03  0.47000000000E+01 0.  1.
          5    1    5    5  503    0 -0.51919785022E+02 -0.33253296040E+01 -0.65041654718E+02  0.83421991958E+02  0.47000000000E+01 0. -1.
         -5    1    5    5    0  503  0.74851450321E+02 -0.34203119403E+02 -0.11260417307E+03  0.13955064595E+03  0.47000000000E+01 0. -1.
<mgrwt>
<rscale>  0 0.27126441E+03</rscale>
<asrwt>0</asrwt>
<pdfrwt beam="1">  1        2 0.74407205E-01 0.27126441E+03</pdfrwt>
<pdfrwt beam="2">  1       -2 0.58517256E-02 0.27126441E+03</pdfrwt>
<totfact> 0.98759047E+03</totfact>
</mgrwt>
</event>
<event>
 9    1  0.8093459E-001  0.2811228E+03  0.7818608E-02  0.1095077E+00
         -4   -1    0    0    0  501 -0.00000000000E+00  0.00000000000E+00  0.56035060350E+03  0.56035060350E+03  0.00000000000E+00 0.  1.
          4   -1    0    0  501    0  0.00000000000E+00 -0.00000000000E+00 -0.35259192121E+02  0.35259192121E+02  0.00000000000E+00 0.  1.
         35    2    1    2    0    0  0.00000000000E+00  0.35527136788E-14  0.52509141138E+03  0.59560979562E+03  0.28112281717E+03 0.  0.
         25    2    3    3    0    0  0.13201495405E+02 -0.13363369882E+02  0.14100640566E+03  0.19117552513E+03  0.12772006826E+03 0.  0.
         25    2    3    3    0    0 -0.13201495405E+02  0.13363369882E+02  0.38408500571E+03  0.40443427049E+03  0.12527141890E+03 0.  0.
          5    1    4    4  502    0  0.67288106545E+02  0.13074530671E+02  0.74673738966E+02  0.10147359226E+03  0.47000000000E+01 0.  1.
         -5    1    4    4    0  502 -0.54086611140E+02 -0.26437900552E+02  0.66332666698E+02  0.89701932875E+02  0.47000000000E+01 0.  1.
          5    1    5    5  503    0  0.49760330583E+02  0.18813410030E+02  0.25622147710E+03  0.26172804631E+03  0.47000000000E+01 0.  1.
         -5    1    5    5    0  503 -0.62961825989E+02 -0.54500401482E+01  0.12786352862E+03  0.14270622418E+03  0.47000000000E+01 0.  1.
<mgrwt>
<rscale>  0 0.28112282E+03</rscale>
<asrwt>0</asrwt>
<pdfrwt beam="1">  1        4 0.54244915E-02 0.28112282E+03</pdfrwt>
<pdfrwt beam="2">  1       -4 0.86207779E-01 0.28112282E+03</pdfrwt>
<totfact> 0.47195350E+02</totfact>
</mgrwt>
</event>
<event>
 9    1  0.8093459E-001  0.2764664E+03  0.7818608E-02  0.1097635E+00
          2   -1    0    0  501    0  0.00000000000E+00  0.00000000000E+00  0.14388774837E+03  0.14388774837E+03  0.00000000000E+00 0.  1.
         -2   -1    0    0    0  501 -0.00000000000E+00 -0.00000000000E+00 -0.13280083945E+03  0.13280083945E+03  0.00000000000E+00 0.  1.
         35    2    1    2    0    0 -0.35527136788E-14  0.00000000000E+00  0.11086908927E+02  0.27668858782E+03  0.27646637242E+03 0.  0.
         25    2    3    3    0    0  0.84148842292E+01  0.31581431621E+02  0.55859633405E+02  0.13993509131E+03  0.12406987561E+03 0.  0.
         25    2    3    3    0    0 -0.84148842292E+01 -0.31581431621E+02 -0.44772724479E+02  0.13675349652E+03  0.12501489852E+03 0.  0.
          5    1    4    4  502    0  0.22739899690E+02 -0.38203047033E+02  0.51801209762E+02  0.68425369370E+02  0.47000000000E+01 0. -1.
         -5    1    4    4    0  502 -0.14325015461E+02  0.69784478654E+02  0.40584236432E+01  0.71509721936E+02  0.47000000000E+01 0. -1.
          5    1    5    5  503    0  0.23381531134E+02 -0.45108090383E+02 -0.74927724050E+02  0.90651473499E+02  0.47000000000E+01 0.  1.
         -5    1    5    5    0  503 -0.31796415363E+02  0.13526658763E+02  0.30154999571E+02  0.46102023018E+02  0.47000000000E+01 0.  1.
<mgrwt>
<rscale>  0 0.27646637E+03</rscale>
<asrwt>0</asrwt>
<pdfrwt beam="1">  1        2 0.22136577E-01 0.27646637E+03</pdfrwt>
<pdfrwt beam="2">  1       -2 0.20430898E-01 0.27646637E+03</pdfrwt>
<totfact> 0.49723350E+03</totfact>
</mgrwt>
</event>
<event>
 9    1  0.8093459E-001  0.2799179E+03  0.7818608E-02  0.1095734E+00
         -1   -1    0    0    0  501 -0.00000000000E+00  0.00000000000E+00  0.73688315365E+02  0.73688315365E+02  0.00000000000E+00 0. -1.
          1   -1    0    0  501    0  0.00000000000E+00 -0.00000000000E+00 -0.26582924654E+03  0.26582924654E+03  0.00000000000E+00 0. -1.
         35    2    1    2    0    0  0.00000000000E+00 -0.21316282073E-13 -0.19214093118E+03  0.33951756191E+03  0.27991791191E+03 0.  0.
         25    2    3    3    0    0  0.37332169895E+02 -0.51091317005E+02 -0.11230029463E+03  0.17854129610E+03  0.12353794824E+03 0.  0.
         25    2    3    3    0    0 -0.37332169895E+02  0.51091317005E+02 -0.79840636548E+02  0.16097626581E+03  0.12463874729E+03 0.  0.
          5    1    4    4  502    0  0.15458809363E+02  0.39921871873E+02 -0.50049844888E+02  0.66028839260E+02  0.47000000000E+01 0.  1.
         -5    1    4    4    0  502  0.21873360532E+02 -0.91013188878E+02 -0.62250449741E+02  0.11251245684E+03  0.47000000000E+01 0.  1.
          5    1    5    5  503    0 -0.77711081593E+01 -0.63460848178E+01 -0.94022448522E+02  0.94672983161E+02  0.47000000000E+01 0.  1.
         -5    1    5    5    0  503 -0.29561061736E+02  0.57437401823E+02  0.14181811974E+02  0.66303282648E+02  0.47000000000E+01 0.  1.
<mgrwt>
<rscale>  0 0.27991791E+03</rscale>
<asrwt>0</asrwt>
<pdfrwt beam="1">  1        1 0.40896806E-01 0.27991791E+03</pdfrwt>
<pdfrwt beam="2">  1       -1 0.11336664E-01 0.27991791E+03</pdfrwt>
<totfact> 0.50882687E+03</totfact>
</mgrwt>
</event>
<event>
 9    1  0.8093459E-001  0.2672771E+03  0.7818608E-02  0.1102848E+00
          2   -1    0    0  501    0  0.00000000000E+00  0.00000000000E+00  0.31539400721E+04  0.31539400721E+04  0.00000000000E+00 0. -1.
         -2   -1    0    0    0  501 -0.00000000000E+00 -0.00000000000E+00 -0.56625232832E+01  0.56625232832E+01  0.00000000000E+00 0. -1.
         35    2    1    2    0    0  0.71054273576E-14  0.00000000000E+00  0.31482775488E+04  0.31596025953E+04  0.26727707789E+03 0.  0.
         25    2    3    3    0    0  0.28605834407E+02 -0.23840713658E+02  0.20350367722E+04  0.20392530215E+04  0.12566442612E+03 0.  0.
         25    2    3    3    0    0 -0.28605834407E+02  0.23840713658E+02  0.11132407765E+04  0.11203495738E+04  0.12038051191E+03 0.  0.
          5    1    4    4  502    0  0.69520304689E+02  0.12923492937E+02  0.14112129817E+04  0.14129912452E+04  0.47000000000E+01 0. -1.
         -5    1    4    4    0  502 -0.40914470282E+02 -0.36764206595E+02  0.62382379055E+03  0.62626177628E+03  0.47000000000E+01 0. -1.
          5    1    5    5  503    0  0.95857381886E+01 -0.31884860310E+02  0.75596216473E+03  0.75670959766E+03  0.47000000000E+01 0. -1.
         -5    1    5    5    0  503 -0.38191572596E+02  0.55725573967E+02  0.35727861181E+03  0.36363997616E+03  0.47000000000E+01 0. -1.
<mgrwt>
<rscale>  0 0.26727708E+03</rscale>
<asrwt>0</asrwt>
<pdfrwt beam="1">  1        2 0.48522015E+00 0.26727708E+03</pdfrwt>
<pdfrwt beam="2">  1       -2 0.87115995E-03 0.26727708E+03</pdfrwt>
<totfact> 0.43874147E+03</totfact>
</mgrwt>
</event>
<event>
 9    1  0.8093459E-001  0.2781568E+03  0.7818608E-02  0.1096700E+00
          2   -1    0    0  501    0  0.00000000000E+00  0.00000000000E+00  0.39397841379E+03  0.39397841379E+03  0.00000000000E+00 0.  1.
         -2   -1    0    0    0  501 -0.00000000000E+00 -0.00000000000E+00 -0.49096083903E+02  0.49096083903E+02  0.00000000000E+00 0.  1.
         35    2    1    2    0    0  0.17763568394E-14  0.00000000000E+00  0.34488232988E+03  0.44307449769E+03  0.27815677061E+03 0.  0.
         25    2    3    3    0    0  0.14090509512E+01 -0.52837065246E+02  0.11389639307E+03  0.17698264240E+03  0.12472660689E+03 0.  0.
         25    2    3    3    0    0 -0.14090509512E+01  0.52837065246E+02  0.23098593681E+03  0.26609185529E+03  0.12106457599E+03 0.  0.
          5    1    4    4  502    0  0.54757494559E+02 -0.58345857130E+02  0.80653132654E+02  0.11370857515E+03  0.47000000000E+01 0. -1.
         -5    1    4    4    0  502 -0.53348443608E+02  0.55087918843E+01  0.33243260415E+02  0.63274067250E+02  0.47000000000E+01 0. -1.
          5    1    5    5  503    0 -0.14172017137E+02 -0.37636463765E+02  0.76169177381E+02  0.86262292210E+02  0.47000000000E+01 0.  1.
         -5    1    5    5    0  503  0.12762966186E+02  0.90473529011E+02  0.15481675943E+03  0.17982956308E+03  0.47000000000E+01 0.  1.
<mgrwt>
<rscale>  0 0.27815677E+03</rscale>
<asrwt>0</asrwt>
<pdfrwt beam="1">  1        2 0.60612061E-01 0.27815677E+03</pdfrwt>
<pdfrwt beam="2">  1       -2 0.75532439E-02 0.27815677E+03</pdfrwt>
<totfact> 0.83487566E+03</totfact>
</mgrwt>
</event>
<event>
 9    1  0.8093459E-001  0.2749933E+03  0.7818608E-02  0.1098455E+00
          3   -1    0    0  501    0  0.00000000000E+00  0.00000000000E+00  0.57966472147E+03  0.57966472147E+03  0.00000000000E+00 0. -1.
         -3   -1    0    0    0  501 -0.00000000000E+00 -0.00000000000E+00 -0.32614253498E+02  0.32614253498E+02  0.00000000000E+00 0. -1.
         35    2    1    2    0    0  0.00000000000E+00  0.35527136788E-14  0.54705046797E+03  0.61227897496E+03  0.27499332479E+03 0.  0.
         25    2    3    3    0    0  0.19730347775E+02  0.28285971712E+02  0.37766887515E+03  0.39888767837E+03  0.12364553319E+03 0.  0.
         25    2    3    3    0    0 -0.19730347775E+02 -0.28285971712E+02  0.16938159281E+03  0.21339129659E+03  0.12512529184E+03 0.  0.
          5    1    4    4  502    0  0.61357970898E+02 -0.81044078049E+01  0.11770936277E+03  0.13307165777E+03  0.47000000000E+01 0.  1.
         -5    1    4    4    0  502 -0.41627623123E+02  0.36390379517E+02  0.25995951238E+03  0.26581602060E+03  0.47000000000E+01 0.  1.
          5    1    5    5  503    0 -0.59870950261E+02 -0.86236364672E+01  0.15460029314E+03  0.16607901261E+03  0.47000000000E+01 0.  1.
         -5    1    5    5    0  503  0.40140602486E+02 -0.19662335245E+02  0.14781299670E+02  0.47312283977E+02  0.47000000000E+01 0.  1.
<mgrwt>
<rscale>  0 0.27499332E+03</rscale>
<asrwt>0</asrwt>
<pdfrwt beam="1">  1        3 0.89179180E-01 0.27499332E+03</pdfrwt>
<pdfrwt beam="2">  1       -3 0.50175779E-02 0.27499332E+03</pdfrwt>
<totfact> 0.67596874E+02</totfact>
</mgrwt>
</event>
<event>
 9    1  0.8093459E-001  0.2748726E+03  0.7818608E-02  0.1098523E+00
          2   -1    0    0  501    0  0.00000000000E+00  0.00000000000E+00  0.15331987467E+03  0.15331987467E+03  0.00000000000E+00 0.  1.
         -2   -1    0    0    0  501 -0.00000000000E+00 -0.00000000000E+00 -0.12319823089E+03  0.12319823089E+03  0.00000000000E+00 0.  1.
         35    2    1    2    0    0  0.00000000000E+00  0.00000000000E+00  0.30121643784E+02  0.27651810556E+03  0.27487260554E+03 0.  0.
         25    2    3    3    0    0 -0.12562441523E+02  0.37197881740E+02 -0.20799277430E+02  0.13355075633E+03  0.12594323019E+03 0.  0.
         25    2    3    3    0    0  0.12562441523E+02 -0.37197881740E+02  0.50920921214E+02  0.14296734923E+03  0.12769191590E+03 0.  0.
          5    1    4    4  502    0  0.54551691586E+02  0.33958323273E+02 -0.13192319288E+02  0.65766116371E+02  0.47000000000E+01 0. -1.
         -5    1    4    4    0  502 -0.67114133109E+02  0.32395584676E+01 -0.76069581426E+01  0.67784639958E+02  0.47000000000E+01 0. -1.
          5    1    5    5  503    0 -0.44154162991E+02 -0.52220149614E+02  0.48663089324E+02  0.84063787672E+02  0.47000000000E+01 0. -1.
         -5    1    5    5    0  503  0.56716604514E+02  0.15022267874E+02  0.22578318904E+01  0.58903561561E+02  0.47000000000E+01 0. -1.
<mgrwt>
<rscale>  0 0.27487261E+03</rscale>
<asrwt>0</asrwt>
<pdfrwt beam="1">  1        2 0.23587673E-01 0.27487261E+03</pdfrwt>
<pdfrwt beam="2">  1       -2 0.18953574E-01 0.27487261E+03</pdfrwt>
<totfact> 0.52602908E+03</totfact>
</mgrwt>
</event>
<event>
 9    1  0.8093459E-001  0.2780657E+03  0.7818608E-02  0.1096750E+00
         -2   -1    0    0    0  501 -0.00000000000E+00  0.00000000000E+00  0.83417370588E+03  0.83417370588E+03  0.00000000000E+00 0.  1.
          2   -1    0    0  501    0  0.00000000000E+00 -0.00000000000E+00 -0.23172788433E+02  0.23172788433E+02  0.00000000000E+00 0.  1.
         35    2    1    2    0    0  0.00000000000E+00  0.71054273576E-14  0.81100091745E+03  0.85734649431E+03  0.27806568147E+03 0.  0.
         25    2    3    3    0    0  0.24483874225E+02  0.23884701057E+02  0.23576361221E+03  0.26781776085E+03  0.12235985101E+03 0.  0.
         25    2    3    3    0    0 -0.24483874225E+02 -0.23884701057E+02  0.57523730523E+03  0.58952873347E+03  0.12440350158E+03 0.  0.
          5    1    4    4  502    0  0.34808989186E+02  0.69911575199E+02  0.16545446704E+03  0.18302066751E+03  0.47000000000E+01 0. -1.
         -5    1    4    4    0  502 -0.10325114960E+02 -0.46026874142E+02  0.70309145175E+02  0.84797093332E+02  0.47000000000E+01 0. -1.
          5    1    5    5  503    0  0.45388217246E+02  0.12174607341E+02  0.28047677736E+03  0.28442507619E+03  0.47000000000E+01 0. -1.
         -5    1    5    5    0  503 -0.69872091471E+02 -0.36059308398E+02  0.29476052788E+03  0.30510365728E+03  0.47000000000E+01 0. -1.
<mgrwt>
<rscale>  0 0.27806568E+03</rscale>
<asrwt>0</asrwt>
<pdfrwt beam="1">  1        2 0.35650450E-02 0.27806568E+03</pdfrwt>
<pdfrwt beam="2">  1       -2 0.12833439E+00 0.27806568E+03</pdfrwt>
<totfact> 0.11663904E+03</totfact>
</mgrwt>
</event>
<event>
 9    1  0.8093459E-001  0.2592949E+03  0.7818608E-02  0.1107568E+00
         -2   -1    0    0    0  501 -0.00000000000E+00  0.00000000000E+00  0.18148872145E+03  0.18148872145E+03  0.00000000000E+00 0. -1.
          2   -1    0    0  501    0  0.00000000000E+00 -0.00000000000E+00 -0.92614344116E+02  0.92614344116E+02  0.00000000000E+00 0. -1.
         35    2    1    2    0    0  0.00000000000E+00  0.00000000000E+00  0.88874377336E+02  0.27410306557E+03  0.25929488157E+03 0.  0.
         25    2    3    3    0    0 -0.17381773458E+01 -0.99214110579E+01  0.79111715648E+02  0.14830101019E+03  0.12503227748E+03 0.  0.
         25    2    3    3    0    0  0.17381773458E+01  0.99214110579E+01  0.97626616880E+01  0.12580205538E+03  0.12501756643E+03 0.  0.
          5    1    4    4  502    0  0.55609439905E+02 -0.29498325077E+02  0.28726611337E+02  0.69353220457E+02  0.47000000000E+01 0.  1.
         -5    1    4    4    0  502 -0.57347617251E+02  0.19576914019E+02  0.50385104312E+02  0.78947789730E+02  0.47000000000E+01 0.  1.
          5    1    5    5  503    0 -0.22265906280E+02  0.44593542361E+02 -0.37302634065E+02  0.62433413418E+02  0.47000000000E+01 0. -1.
         -5    1    5    5    0  503  0.24004083626E+02 -0.34672131304E+02  0.47065295753E+02  0.63368641962E+02  0.47000000000E+01 0. -1.
<mgrwt>
<rscale>  0 0.25929488E+03</rscale>
<asrwt>0</asrwt>
<pdfrwt beam="1">  1        2 0.14248361E-01 0.25929488E+03</pdfrwt>
<pdfrwt beam="2">  1       -2 0.27921342E-01 0.25929488E+03</pdfrwt>
<totfact> 0.47863476E+03</totfact>
</mgrwt>
</event>
<event>
 9    1  0.8093459E-001  0.2930585E+03  0.7818608E-02  0.1088763E+00
          2   -1    0    0  501    0  0.00000000000E+00  0.00000000000E+00  0.12336454989E+04  0.12336454989E+04  0.00000000000E+00 0. -1.
         -2   -1    0    0    0  501 -0.00000000000E+00 -0.00000000000E+00 -0.17404367966E+02  0.17404367966E+02  0.00000000000E+00 0. -1.
         35    2    1    2    0    0  0.00000000000E+00  0.00000000000E+00  0.12162411310E+04  0.12510498669E+04  0.29305849384E+03 0.  0.
         25    2    3    3    0    0 -0.25842740988E+02  0.71036601724E+02  0.61137738614E+03  0.62875519646E+03  0.12584412083E+03 0.  0.
         25    2    3    3    0    0  0.25842740988E+02 -0.71036601724E+02  0.60486374482E+03  0.62229467043E+03  0.12520567479E+03 0.  0.
          5    1    4    4  502    0 -0.33245304892E+02  0.10339017826E+03  0.39047800792E+03  0.40532695929E+03  0.47000000000E+01 0.  1.
         -5    1    4    4    0  502  0.74025639044E+01 -0.32353576540E+02  0.22089937822E+03  0.22342823717E+03  0.47000000000E+01 0.  1.
          5    1    5    5  503    0  0.61189648935E+01 -0.10371814650E+03  0.49736519624E+03  0.50812313869E+03  0.47000000000E+01 0.  1.
         -5    1    5    5    0  503  0.19723776094E+02  0.32681544774E+02  0.10749854858E+03  0.11417153174E+03  0.47000000000E+01 0.  1.
<mgrwt>
<rscale>  0 0.29305849E+03</rscale>
<asrwt>0</asrwt>
<pdfrwt beam="1">  1        2 0.18979155E+00 0.29305849E+03</pdfrwt>
<pdfrwt beam="2">  1       -2 0.26775961E-02 0.29305849E+03</pdfrwt>
<totfact> 0.96025157E+03</totfact>
</mgrwt>
</event>
<event>
 9    1  0.8093459E-001  0.2662380E+03  0.7818608E-02  0.1103452E+00
          2   -1    0    0  501    0  0.00000000000E+00  0.00000000000E+00  0.38355973905E+02  0.38355973905E+02  0.00000000000E+00 0.  1.
         -2   -1    0    0    0  501 -0.00000000000E+00 -0.00000000000E+00 -0.46200541421E+03  0.46200541421E+03  0.00000000000E+00 0.  1.
         35    2    1    2    0    0  0.00000000000E+00  0.71054273576E-14 -0.42364944031E+03  0.50036138812E+03  0.26623799587E+03 0.  0.
         25    2    3    3    0    0  0.27415678933E+02 -0.22359332284E+02 -0.15942385885E+03  0.20520814954E+03  0.12426929900E+03 0.  0.
         25    2    3    3    0    0 -0.27415678933E+02  0.22359332284E+02 -0.26422558146E+03  0.29515323858E+03  0.12668353151E+03 0.  0.
          5    1    4    4  502    0  0.11675405269E+02 -0.73137764345E+02 -0.10841670951E+03  0.13138386721E+03  0.47000000000E+01 0.  1.
         -5    1    4    4    0  502  0.15740273665E+02  0.50778432061E+02 -0.51007149334E+02  0.73824282325E+02  0.47000000000E+01 0.  1.
          5    1    5    5  503    0  0.58462689758E+01  0.56006817739E+02 -0.49170754340E+02  0.74905243986E+02  0.47000000000E+01 0. -1.
         -5    1    5    5    0  503 -0.33261947909E+02 -0.33647485454E+02 -0.21505482712E+03  0.22024799460E+03  0.47000000000E+01 0. -1.
<mgrwt>
<rscale>  0 0.26623800E+03</rscale>
<asrwt>0</asrwt>
<pdfrwt beam="1">  1        2 0.59009189E-02 0.26623800E+03</pdfrwt>
<pdfrwt beam="2">  1       -2 0.71077757E-01 0.26623800E+03</pdfrwt>
<totfact> 0.23213840E+03</totfact>
</mgrwt>
</event>
<event>
 9    1  0.8093459E-001  0.2796134E+03  0.7818608E-02  0.1095900E+00
          4   -1    0    0  501    0  0.00000000000E+00  0.00000000000E+00  0.33179927797E+02  0.33179927797E+02  0.00000000000E+00 0. -1.
         -4   -1    0    0    0  501 -0.00000000000E+00 -0.00000000000E+00 -0.58908851561E+03  0.58908851561E+03  0.00000000000E+00 0. -1.
         35    2    1    2    0    0  0.71054273576E-14 -0.71054273576E-14 -0.55590858782E+03  0.62226844341E+03  0.27961340750E+03 0.  0.
         25    2    3    3    0    0 -0.24090706432E+02  0.36453520429E+02 -0.37758604357E+03  0.40016543695E+03  0.12510769499E+03 0.  0.
         25    2    3    3    0    0  0.24090706432E+02 -0.36453520429E+02 -0.17832254425E+03  0.22210300646E+03  0.12498637687E+03 0.  0.
          5    1    4    4  502    0 -0.38008736965E+02 -0.36235891971E+02 -0.10258484343E+03  0.11534055685E+03  0.47000000000E+01 0. -1.
         -5    1    4    4    0  502  0.13918030533E+02  0.72689412399E+02 -0.27500120014E+03  0.28482488011E+03  0.47000000000E+01 0. -1.
          5    1    5    5  503    0  0.55344127806E+02 -0.67268641743E+02 -0.10490467031E+03  0.13643724747E+03  0.47000000000E+01 0.  1.
         -5    1    5    5    0  503 -0.31253421374E+02  0.30815121314E+02 -0.73417873936E+02  0.85665758985E+02  0.47000000000E+01 0.  1.
<mgrwt>
<rscale>  0 0.27961341E+03</rscale>
<asrwt>0</asrwt>
<pdfrwt beam="1">  1        4 0.51046046E-02 0.27961341E+03</pdfrwt>
<pdfrwt beam="2">  1       -4 0.90628997E-01 0.27961341E+03</pdfrwt>
<totfact> 0.46454163E+02</totfact>
</mgrwt>
</event>
<event>
 9    1  0.8093459E-001  0.2755556E+03  0.7818608E-02  0.1098141E+00
          1   -1    0    0  501    0  0.00000000000E+00  0.00000000000E+00  0.10262756827E+03  0.10262756827E+03  0.00000000000E+00 0. -1.
         -1   -1    0    0    0  501 -0.00000000000E+00 -0.00000000000E+00 -0.18496708613E+03  0.18496708613E+03  0.00000000000E+00 0. -1.
         35    2    1    2    0    0 -0.35527136788E-14  0.00000000000E+00 -0.82339517855E+02  0.28759465440E+03  0.27555560063E+03 0.  0.
         25    2    3    3    0    0  0.13155716711E+02 -0.38408907533E+02 -0.82440152968E+02  0.15545719902E+03  0.12538837604E+03 0.  0.
         25    2    3    3    0    0 -0.13155716711E+02  0.38408907533E+02  0.10063511369E+00  0.13213745538E+03  0.12574569546E+03 0.  0.
          5    1    4    4  502    0 -0.42843102813E+02 -0.44018717032E+02 -0.81566338615E+01  0.62143379243E+02  0.47000000000E+01 0. -1.
         -5    1    4    4    0  502  0.55998819524E+02  0.56098094991E+01 -0.74283519107E+02  0.93313819778E+02  0.47000000000E+01 0. -1.
          5    1    5    5  503    0 -0.37685673083E+02  0.15001349421E+02 -0.54253516790E+02  0.67902757855E+02  0.47000000000E+01 0. -1.
         -5    1    5    5    0  503  0.24529956372E+02  0.23407558112E+02  0.54354151904E+02  0.64234697521E+02  0.47000000000E+01 0. -1.
<mgrwt>
<rscale>  0 0.27555560E+03</rscale>
<asrwt>0</asrwt>
<pdfrwt beam="1">  1        1 0.15788857E-01 0.27555560E+03</pdfrwt>
<pdfrwt beam="2">  1       -1 0.28456475E-01 0.27555560E+03</pdfrwt>
<totfact> 0.38730376E+03</totfact>
</mgrwt>
</event>
<event>
 9    1  0.8093459E-001  0.2733922E+03  0.7818608E-02  0.1099354E+00
          2   -1    0    0  501    0  0.00000000000E+00  0.00000000000E+00  0.20660748627E+04  0.20660748627E+04  0.00000000000E+00 0. -1.
         -2   -1    0    0    0  501 -0.00000000000E+00 -0.00000000000E+00 -0.90441184160E+01  0.90441184160E+01  0.00000000000E+00 0. -1.
         35    2    1    2    0    0  0.00000000000E+00  0.00000000000E+00  0.20570307443E+04  0.20751189811E+04  0.27339221433E+03 0.  0.
         25    2    3    3    0    0  0.53903762619E+02  0.83038586020E+01  0.10938184793E+04  0.11023314124E+04  0.12538383989E+03 0.  0.
         25    2    3    3    0    0 -0.53903762619E+02 -0.83038586020E+01  0.96321226496E+03  0.97278756875E+03  0.12475262256E+03 0.  0.
          5    1    4    4  502    0  0.56657109221E+02  0.10243042568E+02  0.19217870035E+03  0.20067309440E+03  0.47000000000E+01 0. -1.
         -5    1    4    4    0  502 -0.27533466020E+01 -0.19391839657E+01  0.90163977899E+03  0.90165831799E+03  0.47000000000E+01 0. -1.
          5    1    5    5  503    0 -0.62457579218E+02  0.44444260887E+01  0.20490089280E+03  0.21430624814E+03  0.47000000000E+01 0.  1.
         -5    1    5    5    0  503  0.85538165986E+01 -0.12748284691E+02  0.75831137217E+03  0.75848132060E+03  0.47000000000E+01 0.  1.
<mgrwt>
<rscale>  0 0.27339221E+03</rscale>
<asrwt>0</asrwt>
<pdfrwt beam="1">  1        2 0.31785730E+00 0.27339221E+03</pdfrwt>
<pdfrwt beam="2">  1       -2 0.13914045E-02 0.27339221E+03</pdfrwt>
<totfact> 0.90296152E+03</totfact>
</mgrwt>
</event>
<event>
 9    1  0.8093459E-001  0.2744811E+03  0.7818608E-02  0.1098742E+00
          3   -1    0    0  501    0  0.00000000000E+00  0.00000000000E+00  0.10537301471E+03  0.10537301471E+03  0.00000000000E+00 0.  1.
         -3   -1    0    0    0  501 -0.00000000000E+00 -0.00000000000E+00 -0.17874559064E+03  0.17874559064E+03  0.00000000000E+00 0.  1.
         35    2    1    2    0    0  0.00000000000E+00  0.00000000000E+00 -0.73372575936E+02  0.28411860535E+03  0.27448105036E+03 0.  0.
         25    2    3    3    0    0 -0.26088832510E+02 -0.48866456797E+02 -0.49578685425E+02  0.14587530955E+03  0.12551096409E+03 0.  0.
         25    2    3    3    0    0  0.26088832510E+02  0.48866456797E+02 -0.23793890511E+02  0.13824329581E+03  0.12440458926E+03 0.  0.
          5    1    4    4  502    0  0.62901415238E+01  0.28426313629E+02 -0.54319842991E+02  0.61809032750E+02  0.47000000000E+01 0.  1.
         -5    1    4    4    0  502 -0.32378974034E+02 -0.77292770426E+02  0.47411575668E+01  0.84066276798E+02  0.47000000000E+01 0.  1.
          5    1    5    5  503    0  0.60256335488E+02  0.24618226752E+01 -0.46325070473E+02  0.76190476384E+02  0.47000000000E+01 0.  1.
         -5    1    5    5    0  503 -0.34167502978E+02  0.46404634122E+02  0.22531179962E+02  0.62052819422E+02  0.47000000000E+01 0.  1.
<mgrwt>
<rscale>  0 0.27448105E+03</rscale>
<asrwt>0</asrwt>
<pdfrwt beam="1">  1        3 0.16211233E-01 0.27448105E+03</pdfrwt>
<pdfrwt beam="2">  1       -3 0.27499321E-01 0.27448105E+03</pdfrwt>
<totfact> 0.10410338E+03</totfact>
</mgrwt>
</event>
<event>
 9    1  0.8093459E-001  0.2764156E+03  0.7818608E-02  0.1097663E+00
          2   -1    0    0  501    0  0.00000000000E+00  0.00000000000E+00  0.27154513265E+03  0.27154513265E+03  0.00000000000E+00 0. -1.
         -2   -1    0    0    0  501 -0.00000000000E+00 -0.00000000000E+00 -0.70343378775E+02  0.70343378775E+02  0.00000000000E+00 0. -1.
         35    2    1    2    0    0  0.71054273576E-14 -0.71054273576E-14  0.20120175387E+03  0.34188851142E+03  0.27641564442E+03 0.  0.
         25    2    3    3    0    0 -0.35227026483E+02  0.22906754960E+02  0.16191058616E+03  0.20913665856E+03  0.12552864703E+03 0.  0.
         25    2    3    3    0    0  0.35227026483E+02 -0.22906754960E+02  0.39291167717E+02  0.13275185287E+03  0.11963944066E+03 0.  0.
          5    1    4    4  502    0 -0.60922427534E+02 -0.68463015044E+01  0.24587274811E+02  0.66219620231E+02  0.47000000000E+01 0.  1.
         -5    1    4    4    0  502  0.25695401051E+02  0.29753056465E+02  0.13732331135E+03  0.14291703832E+03  0.47000000000E+01 0.  1.
          5    1    5    5  503    0  0.15274192011E+02  0.45471586242E+01  0.78755710210E+02  0.80489312855E+02  0.47000000000E+01 0.  1.
         -5    1    5    5    0  503  0.19952834472E+02 -0.27453913584E+02 -0.39464542493E+02  0.52262540015E+02  0.47000000000E+01 0.  1.
<mgrwt>
<rscale>  0 0.27641564E+03</rscale>
<asrwt>0</asrwt>
<pdfrwt beam="1">  1        2 0.41776174E-01 0.27641564E+03</pdfrwt>
<pdfrwt beam="2">  1       -2 0.10822058E-01 0.27641564E+03</pdfrwt>
<totfact> 0.70710517E+03</totfact>
</mgrwt>
</event>
<event>
 9    1  0.8093459E-001  0.2763350E+03  0.7818608E-02  0.1097708E+00
          2   -1    0    0  501    0  0.00000000000E+00  0.00000000000E+00  0.17641793548E+04  0.17641793548E+04  0.00000000000E+00 0.  1.
         -2   -1    0    0    0  501 -0.00000000000E+00 -0.00000000000E+00 -0.10821039265E+02  0.10821039265E+02  0.00000000000E+00 0.  1.
         35    2    1    2    0    0 -0.35527136788E-14 -0.17763568394E-14  0.17533583155E+04  0.17750003941E+04  0.27633497114E+03 0.  0.
         25    2    3    3    0    0  0.19698360715E+02 -0.80930209553E+01  0.12308645649E+04  0.12374328782E+04  0.12553496929E+03 0.  0.
         25    2    3    3    0    0 -0.19698360715E+02  0.80930209553E+01  0.52249375061E+03  0.53756751585E+03  0.12460173458E+03 0.  0.
          5    1    4    4  502    0  0.70130465680E+02 -0.16856088887E+02  0.85844044109E+03  0.86147808495E+03  0.47000000000E+01 0.  1.
         -5    1    4    4    0  502 -0.50432104965E+02  0.87630679316E+01  0.37242412385E+03  0.37595479328E+03  0.47000000000E+01 0.  1.
          5    1    5    5  503    0  0.18542722739E+02 -0.33749603696E+02  0.40682173056E+03  0.40866719806E+03  0.47000000000E+01 0. -1.
         -5    1    5    5    0  503 -0.38241083454E+02  0.41842624652E+02  0.11567202006E+03  0.12890031779E+03  0.47000000000E+01 0. -1.
<mgrwt>
<rscale>  0 0.27633497E+03</rscale>
<asrwt>0</asrwt>
<pdfrwt beam="1">  1        2 0.27141198E+00 0.27633497E+03</pdfrwt>
<pdfrwt beam="2">  1       -2 0.16647767E-02 0.27633497E+03</pdfrwt>
<totfact> 0.10008887E+04</totfact>
</mgrwt>
</event>
<event>
 9    1  0.8093459E-001  0.2739683E+03  0.7818608E-02  0.1099030E+00
          2   -1    0    0  501    0  0.00000000000E+00  0.00000000000E+00  0.12175757883E+04  0.12175757883E+04  0.00000000000E+00 0.  1.
         -2   -1    0    0    0  501 -0.00000000000E+00 -0.00000000000E+00 -0.15411489810E+02  0.15411489810E+02  0.00000000000E+00 0.  1.
         35    2    1    2    0    0  0.00000000000E+00  0.00000000000E+00  0.12021642984E+04  0.12329872781E+04  0.27396829637E+03 0.  0.
         25    2    3    3    0    0  0.43682399925E+02  0.11837751602E+02  0.44147925937E+03  0.46038741206E+03  0.12249223772E+03 0.  0.
         25    2    3    3    0    0 -0.43682399925E+02 -0.11837751602E+02  0.76068503907E+03  0.77259986600E+03  0.12735988322E+03 0.  0.
          5    1    4    4  502    0  0.13977658907E+02 -0.48454315111E+02  0.29287735377E+03  0.29722454467E+03  0.47000000000E+01 0. -1.
         -5    1    4    4    0  502  0.29704741019E+02  0.60292066712E+02  0.14860190560E+03  0.16316286739E+03  0.47000000000E+01 0. -1.
          5    1    5    5  503    0 -0.45264812573E+02  0.21062346794E+02  0.71122284525E+03  0.71298846506E+03  0.47000000000E+01 0.  1.
         -5    1    5    5    0  503  0.15824126473E+01 -0.32900098395E+02  0.49462193820E+02  0.59611400937E+02  0.47000000000E+01 0.  1.
<mgrwt>
<rscale>  0 0.27396830E+03</rscale>
<asrwt>0</asrwt>
<pdfrwt beam="1">  1        2 0.18731928E+00 0.27396830E+03</pdfrwt>
<pdfrwt beam="2">  1       -2 0.23709994E-02 0.27396830E+03</pdfrwt>
<totfact> 0.11721788E+04</totfact>
</mgrwt>
</event>
<event>
 9    1  0.8093459E-001  0.2732964E+03  0.7818608E-02  0.1099408E+00
          1   -1    0    0  501    0  0.00000000000E+00  0.00000000000E+00  0.16571257092E+03  0.16571257092E+03  0.00000000000E+00 0.  1.
         -1   -1    0    0    0  501 -0.00000000000E+00 -0.00000000000E+00 -0.11268142745E+03  0.11268142745E+03  0.00000000000E+00 0.  1.
         35    2    1    2    0    0  0.71054273576E-14  0.71054273576E-14  0.53031143474E+02  0.27839399838E+03  0.27329638884E+03 0.  0.
         25    2    3    3    0    0  0.46564383381E+02  0.17729276069E+02  0.88205293008E+01  0.13543594051E+03  0.12562851275E+03 0.  0.
         25    2    3    3    0    0 -0.46564383381E+02 -0.17729276069E+02  0.44210614173E+02  0.14295805787E+03  0.12649054855E+03 0.  0.
          5    1    4    4  502    0 -0.29973497800E+02  0.44339934980E+02  0.75785416333E+01  0.54258314549E+02  0.47000000000E+01 0.  1.
         -5    1    4    4    0  502  0.76537881181E+02 -0.26610658912E+02  0.12419876675E+01  0.81177625961E+02  0.47000000000E+01 0.  1.
          5    1    5    5  503    0 -0.20055872717E+02 -0.21180603871E+02  0.87226642544E+02  0.92094696808E+02  0.47000000000E+01 0.  1.
         -5    1    5    5    0  503 -0.26508510663E+02  0.34513278028E+01 -0.43016028371E+02  0.50863361057E+02  0.47000000000E+01 0.  1.
<mgrwt>
<rscale>  0 0.27329639E+03</rscale>
<asrwt>0</asrwt>
<pdfrwt beam="1">  1        1 0.25494242E-01 0.27329639E+03</pdfrwt>
<pdfrwt beam="2">  1       -1 0.17335604E-01 0.27329639E+03</pdfrwt>
<totfact> 0.47161944E+03</totfact>
</mgrwt>
</event>
<event>
 9    1  0.8093459E-001  0.2718494E+03  0.7818608E-02  0.1100226E+00
         -2   -1    0    0    0  501 -0.00000000000E+00  0.00000000000E+00  0.32302711656E+02  0.32302711656E+02  0.00000000000E+00 0.  1.
          2   -1    0    0  501    0  0.00000000000E+00 -0.00000000000E+00 -0.57194965403E+03  0.57194965403E+03  0.00000000000E+00 0.  1.
         35    2    1    2    0    0  0.00000000000E+00  0.00000000000E+00 -0.53964694237E+03  0.60425236568E+03  0.27184940505E+03 0.  0.
         25    2    3    3    0    0  0.47669227218E+01 -0.52040805573E+02 -0.24715874773E+03  0.28186595978E+03  0.12502001322E+03 0.  0.
         25    2    3    3    0    0 -0.47669227218E+01  0.52040805573E+02 -0.29248819464E+03  0.32238640591E+03  0.12511067785E+03 0.  0.
          5    1    4    4  502    0 -0.34582570889E+02  0.20046366211E+02 -0.31684961780E+02  0.51223410767E+02  0.47000000000E+01 0. -1.
         -5    1    4    4    0  502  0.39349493610E+02 -0.72087171784E+02 -0.21547378595E+03  0.23064254901E+03  0.47000000000E+01 0. -1.
          5    1    5    5  503    0  0.24378822931E+02 -0.33378396996E+02 -0.12950622221E+03  0.13602351262E+03  0.47000000000E+01 0.  1.
         -5    1    5    5    0  503 -0.29145745653E+02  0.85419202569E+02 -0.16298197243E+03  0.18636289329E+03  0.47000000000E+01 0.  1.
<mgrwt>
<rscale>  0 0.27184941E+03</rscale>
<asrwt>0</asrwt>
<pdfrwt beam="1">  1        2 0.87992250E-01 0.27184941E+03</pdfrwt>
<pdfrwt beam="2">  1       -2 0.49696482E-02 0.27184941E+03</pdfrwt>
<totfact> 0.10485897E+04</totfact>
</mgrwt>
</event>
<event>
 9    1  0.8093459E-001  0.2791156E+03  0.7818608E-02  0.1096173E+00
          1   -1    0    0  501    0  0.00000000000E+00  0.00000000000E+00  0.17520585276E+04  0.17520585276E+04  0.00000000000E+00 0. -1.
         -1   -1    0    0    0  501 -0.00000000000E+00 -0.00000000000E+00 -0.11116284548E+02  0.11116284548E+02  0.00000000000E+00 0. -1.
         35    2    1    2    0    0  0.00000000000E+00  0.00000000000E+00  0.17409422431E+04  0.17631748122E+04  0.27911561144E+03 0.  0.
         25    2    3    3    0    0 -0.63917741659E+02  0.89314225400E+01  0.95143063134E+03  0.96133367248E+03  0.12156041948E+03 0.  0.
         25    2    3    3    0    0  0.63917741659E+02 -0.89314225400E+01  0.78951161172E+03  0.80184113967E+03  0.12431966952E+03 0.  0.
          5    1    4    4  502    0  0.60628540973E+01 -0.28094854178E+02  0.63408710748E+02  0.69777027951E+02  0.47000000000E+01 0. -1.
         -5    1    4    4    0  502 -0.69980595756E+02  0.37026276718E+02  0.88802192060E+03  0.89155664453E+03  0.47000000000E+01 0. -1.
          5    1    5    5  503    0  0.63252795358E+02  0.35325230155E+02  0.67642883150E+03  0.68031378209E+03  0.47000000000E+01 0.  1.
         -5    1    5    5    0  503  0.66494630020E+00 -0.44256652695E+02  0.11308278021E+03  0.12152735759E+03  0.47000000000E+01 0.  1.
<mgrwt>
<rscale>  0 0.27911561E+03</rscale>
<asrwt>0</asrwt>
<pdfrwt beam="1">  1        1 0.26954725E+00 0.27911561E+03</pdfrwt>
<pdfrwt beam="2">  1       -1 0.17101990E-02 0.27911561E+03</pdfrwt>
<totfact> 0.42149423E+03</totfact>
</mgrwt>
</event>
<event>
 9    1  0.8093459E-001  0.2728297E+03  0.7818608E-02  0.1099671E+00
          2   -1    0    0  501    0  0.00000000000E+00  0.00000000000E+00  0.18579172226E+04  0.18579172226E+04  0.00000000000E+00 0. -1.
         -2   -1    0    0    0  501 -0.00000000000E+00 -0.00000000000E+00 -0.10016061855E+02  0.10016061855E+02  0.00000000000E+00 0. -1.
         35    2    1    2    0    0  0.35527136788E-14  0.00000000000E+00  0.18479011607E+04  0.18679332844E+04  0.27282971849E+03 0.  0.
         25    2    3    3    0    0  0.23149097510E+02  0.97817683637E+01  0.59313529396E+03  0.60668007921E+03  0.12497870961E+03 0.  0.
         25    2    3    3    0    0 -0.23149097510E+02 -0.97817683637E+01  0.12547658668E+04  0.12612532052E+04  0.12526253868E+03 0.  0.
          5    1    4    4  502    0 -0.68293609837E+01 -0.37671598950E+02  0.46639266102E+03  0.46798503586E+03  0.47000000000E+01 0. -1.
         -5    1    4    4    0  502  0.29978458494E+02  0.47453367314E+02  0.12674263294E+03  0.13869504334E+03  0.47000000000E+01 0. -1.
          5    1    5    5  503    0 -0.48601109528E+02  0.17035964744E+02  0.22718170809E+03  0.23299336993E+03  0.47000000000E+01 0.  1.
         -5    1    5    5    0  503  0.25452012018E+02 -0.26817733108E+02  0.10275841587E+04  0.10282598353E+04  0.47000000000E+01 0.  1.
<mgrwt>
<rscale>  0 0.27282972E+03</rscale>
<asrwt>0</asrwt>
<pdfrwt beam="1">  1        2 0.28583315E+00 0.27282972E+03</pdfrwt>
<pdfrwt beam="2">  1       -2 0.15409341E-02 0.27282972E+03</pdfrwt>
<totfact> 0.10006041E+04</totfact>
</mgrwt>
</event>
<event>
 9    1  0.8093459E-001  0.2787738E+03  0.7818608E-02  0.1096361E+00
         -2   -1    0    0    0  501 -0.00000000000E+00  0.00000000000E+00  0.67410735491E+02  0.67410735491E+02  0.00000000000E+00 0.  1.
          2   -1    0    0  501    0  0.00000000000E+00 -0.00000000000E+00 -0.28821387582E+03  0.28821387582E+03  0.00000000000E+00 0.  1.
         35    2    1    2    0    0  0.00000000000E+00  0.00000000000E+00 -0.22080314033E+03  0.35562461131E+03  0.27877381045E+03 0.  0.
         25    2    3    3    0    0 -0.48282734891E+02 -0.32918894741E+02 -0.11014008330E+03  0.17672037788E+03  0.12523728634E+03 0.  0.
         25    2    3    3    0    0  0.48282734891E+02  0.32918894741E+02 -0.11066305703E+03  0.17890423343E+03  0.12784966339E+03 0.  0.
          5    1    4    4  502    0 -0.49406139047E+02 -0.26231269118E+02 -0.13730144246E+03  0.14833348293E+03  0.47000000000E+01 0. -1.
         -5    1    4    4    0  502  0.11234041560E+01 -0.66876256237E+01  0.27161359166E+02  0.28386894954E+02  0.47000000000E+01 0. -1.
          5    1    5    5  503    0  0.39758222779E+02  0.61445270106E+02 -0.12546334186E+03  0.14532507577E+03  0.47000000000E+01 0.  1.
         -5    1    5    5    0  503  0.85245121127E+01 -0.28526375365E+02  0.14800284827E+02  0.33579157660E+02  0.47000000000E+01 0.  1.
<mgrwt>
<rscale>  0 0.27877381E+03</rscale>
<asrwt>0</asrwt>
<pdfrwt beam="1">  1        2 0.44340596E-01 0.27877381E+03</pdfrwt>
<pdfrwt beam="2">  1       -2 0.10370882E-01 0.27877381E+03</pdfrwt>
<totfact> 0.71010503E+03</totfact>
</mgrwt>
</event>
<event>
 9    1  0.8093459E-001  0.2763995E+03  0.7818608E-02  0.1097672E+00
         -2   -1    0    0    0  501 -0.00000000000E+00  0.00000000000E+00  0.10872452840E+03  0.10872452840E+03  0.00000000000E+00 0. -1.
          2   -1    0    0  501    0  0.00000000000E+00 -0.00000000000E+00 -0.17566566946E+03  0.17566566946E+03  0.00000000000E+00 0. -1.
         35    2    1    2    0    0  0.00000000000E+00 -0.35527136788E-14 -0.66941141053E+02  0.28439019786E+03  0.27639947228E+03 0.  0.
         25    2    3    3    0    0 -0.47984693002E+02 -0.28566180932E+02 -0.49541251947E+02  0.14549054874E+03  0.12487836751E+03 0.  0.
         25    2    3    3    0    0  0.47984693002E+02  0.28566180932E+02 -0.17399889106E+02  0.13889964912E+03  0.12598332798E+03 0.  0.
          5    1    4    4  502    0 -0.74016883484E+02 -0.36318587648E+02 -0.72288734828E+02  0.10975103659E+03  0.47000000000E+01 0.  1.
         -5    1    4    4    0  502  0.26032190483E+02  0.77524067153E+01  0.22747482881E+02  0.35739512149E+02  0.47000000000E+01 0.  1.
          5    1    5    5  503    0  0.48939692558E+02  0.75116421745E+02 -0.20197088640E+02  0.92019469206E+02  0.47000000000E+01 0. -1.
         -5    1    5    5    0  503 -0.95499955593E+00 -0.46550240812E+02  0.27971995338E+01  0.46880179917E+02  0.47000000000E+01 0. -1.
<mgrwt>
<rscale>  0 0.27639947E+03</rscale>
<asrwt>0</asrwt>
<pdfrwt beam="1">  1        2 0.27025487E-01 0.27639947E+03</pdfrwt>
<pdfrwt beam="2">  1       -2 0.16726851E-01 0.27639947E+03</pdfrwt>
<totfact> 0.55793470E+03</totfact>
</mgrwt>
</event>
<event>
 9    1  0.8093459E-001  0.2715444E+03  0.7818608E-02  0.1100399E+00
          2   -1    0    0  501    0  0.00000000000E+00  0.00000000000E+00  0.17566611338E+04  0.17566611338E+04  0.00000000000E+00 0. -1.
         -2   -1    0    0    0  501 -0.00000000000E+00 -0.00000000000E+00 -0.10493825029E+02  0.10493825029E+02  0.00000000000E+00 0. -1.
         35    2    1    2    0    0  0.00000000000E+00  0.71054273576E-14  0.17461673088E+04  0.17671549588E+04  0.27154443153E+03 0.  0.
         25    2    3    3    0    0 -0.38046487710E+02 -0.37181626451E+02  0.87991360909E+03  0.89034382579E+03  0.12503663499E+03 0.  0.
         25    2    3    3    0    0  0.38046487710E+02  0.37181626451E+02  0.86625369969E+03  0.87681113305E+03  0.12478895078E+03 0.  0.
          5    1    4    4  502    0  0.46839296330E+01 -0.27130311792E+02  0.78678937270E+03  0.78728495477E+03  0.47000000000E+01 0.  1.
         -5    1    4    4    0  502 -0.42730417343E+02 -0.10051314659E+02  0.93124236386E+02  0.10305887102E+03  0.47000000000E+01 0.  1.
          5    1    5    5  503    0 -0.46118574801E+01  0.31479215267E+01 -0.13988932167E+01  0.74313889406E+01  0.47000000000E+01 0. -1.
         -5    1    5    5    0  503  0.42658345190E+02  0.34033704924E+02  0.86765259291E+03  0.86937974411E+03  0.47000000000E+01 0. -1.
<mgrwt>
<rscale>  0 0.27154443E+03</rscale>
<asrwt>0</asrwt>
<pdfrwt beam="1">  1        2 0.27025533E+00 0.27154443E+03</pdfrwt>
<pdfrwt beam="2">  1       -2 0.16144360E-02 0.27154443E+03</pdfrwt>
<totfact> 0.10562212E+04</totfact>
</mgrwt>
</event>
<event>
 9    1  0.8093459E-001  0.2765132E+03  0.7818608E-02  0.1097609E+00
         -2   -1    0    0    0  501 -0.00000000000E+00  0.00000000000E+00  0.18862191119E+03  0.18862191119E+03  0.00000000000E+00 0. -1.
          2   -1    0    0  501    0  0.00000000000E+00 -0.00000000000E+00 -0.10133973234E+03  0.10133973234E+03  0.00000000000E+00 0. -1.
         35    2    1    2    0    0 -0.35527136788E-14 -0.17763568394E-14  0.87282178851E+02  0.28996164353E+03  0.27651324738E+03 0.  0.
         25    2    3    3    0    0  0.30749113940E+02  0.33044694424E+01  0.95085552481E+02  0.16062145306E+03  0.12570426153E+03 0.  0.
         25    2    3    3    0    0 -0.30749113940E+02 -0.33044694424E+01 -0.78033736301E+01  0.12934019047E+03  0.12534578056E+03 0.  0.
          5    1    4    4  502    0 -0.55913232291E+01  0.31122784504E+01 -0.29608561101E+02  0.30654625476E+02  0.47000000000E+01 0.  1.
         -5    1    4    4    0  502  0.36340437169E+02  0.19219099196E+00  0.12469411358E+03  0.12996682759E+03  0.47000000000E+01 0.  1.
          5    1    5    5  503    0 -0.63382800613E+02 -0.26992540055E+02  0.28668293745E+02  0.74765885927E+02  0.47000000000E+01 0. -1.
         -5    1    5    5    0  503  0.32633686674E+02  0.23688070613E+02 -0.36471667376E+02  0.54574304544E+02  0.47000000000E+01 0. -1.
<mgrwt>
<rscale>  0 0.27651325E+03</rscale>
<asrwt>0</asrwt>
<pdfrwt beam="1">  1        2 0.15590728E-01 0.27651325E+03</pdfrwt>
<pdfrwt beam="2">  1       -2 0.29018755E-01 0.27651325E+03</pdfrwt>
<totfact> 0.40222671E+03</totfact>
</mgrwt>
</event>
<event>
 9    1  0.8093459E-001  0.2760798E+03  0.7818608E-02  0.1097850E+00
          2   -1    0    0  501    0  0.00000000000E+00  0.00000000000E+00  0.31971268305E+02  0.31971268305E+02  0.00000000000E+00 0. -1.
         -2   -1    0    0    0  501 -0.00000000000E+00 -0.00000000000E+00 -0.59600426395E+03  0.59600426395E+03  0.00000000000E+00 0. -1.
         35    2    1    2    0    0  0.00000000000E+00  0.00000000000E+00 -0.56403299564E+03  0.62797553225E+03  0.27607978726E+03 0.  0.
         25    2    3    3    0    0  0.49271617913E+02  0.12240671734E+02 -0.19872252681E+03  0.24010475790E+03  0.12482838510E+03 0.  0.
         25    2    3    3    0    0 -0.49271617913E+02 -0.12240671734E+02 -0.36531046883E+03  0.38787077435E+03  0.12006028730E+03 0.  0.
          5    1    4    4  502    0  0.69350920132E+02 -0.61303972584E+01 -0.20063224387E+03  0.21242061853E+03  0.47000000000E+01 0. -1.
         -5    1    4    4    0  502 -0.20079302219E+02  0.18371068992E+02  0.19097170593E+01  0.27684139372E+02  0.47000000000E+01 0. -1.
          5    1    5    5  503    0 -0.10842536000E+02 -0.60556120293E+02 -0.12080915649E+03  0.13565230033E+03  0.47000000000E+01 0.  1.
         -5    1    5    5    0  503 -0.38429081913E+02  0.48315448558E+02 -0.24450131233E+03  0.25221847402E+03  0.47000000000E+01 0.  1.
<mgrwt>
<rscale>  0 0.27607979E+03</rscale>
<asrwt>0</asrwt>
<pdfrwt beam="1">  1        2 0.49186569E-02 0.27607979E+03</pdfrwt>
<pdfrwt beam="2">  1       -2 0.91692960E-01 0.27607979E+03</pdfrwt>
<totfact> 0.16816884E+03</totfact>
</mgrwt>
</event>
<event>
 9    1  0.8093459E-001  0.2758593E+03  0.7818608E-02  0.1097972E+00
         -1   -1    0    0    0  501 -0.00000000000E+00  0.00000000000E+00  0.10399964263E+02  0.10399964263E+02  0.00000000000E+00 0.  1.
          1   -1    0    0  501    0  0.00000000000E+00 -0.00000000000E+00 -0.18292931761E+04  0.18292931761E+04  0.00000000000E+00 0.  1.
         35    2    1    2    0    0  0.44408920985E-14 -0.71054273576E-14 -0.18188932118E+04  0.18396931404E+04  0.27585926599E+03 0.  0.
         25    2    3    3    0    0  0.15787527491E+01 -0.56210714899E+02 -0.88699096982E+03  0.89751610292E+03  0.12498014859E+03 0.  0.
         25    2    3    3    0    0 -0.15787527491E+01  0.56210714899E+02 -0.93190224202E+03  0.94217703744E+03  0.12686072784E+03 0.  0.
          5    1    4    4  502    0 -0.58880292062E+02 -0.35288291086E+02 -0.56690456078E+03  0.57106481533E+03  0.47000000000E+01 0.  1.
         -5    1    4    4    0  502  0.60459044811E+02 -0.20922423813E+02 -0.32008640904E+03  0.32645128759E+03  0.47000000000E+01 0.  1.
          5    1    5    5  503    0 -0.95272676426E+01  0.96560955273E+02 -0.67757633751E+03  0.68450461654E+03  0.47000000000E+01 0.  1.
         -5    1    5    5    0  503  0.79485148935E+01 -0.40350240374E+02 -0.25432590451E+03  0.25767242090E+03  0.47000000000E+01 0.  1.
<mgrwt>
<rscale>  0 0.27585927E+03</rscale>
<asrwt>0</asrwt>
<pdfrwt beam="1">  1        1 0.28142972E+00 0.27585927E+03</pdfrwt>
<pdfrwt beam="2">  1       -1 0.15999945E-02 0.27585927E+03</pdfrwt>
<totfact> 0.41373971E+03</totfact>
</mgrwt>
</event>
<event>
 9    1  0.8093459E-001  0.2823568E+03  0.7818608E-02  0.1094409E+00
         -2   -1    0    0    0  501 -0.00000000000E+00  0.00000000000E+00  0.47317771355E+02  0.47317771355E+02  0.00000000000E+00 0.  1.
          2   -1    0    0  501    0  0.00000000000E+00 -0.00000000000E+00 -0.42122314798E+03  0.42122314798E+03  0.00000000000E+00 0.  1.
         35    2    1    2    0    0  0.00000000000E+00 -0.35527136788E-14 -0.37390537662E+03  0.46854091933E+03  0.28235679985E+03 0.  0.
         25    2    3    3    0    0  0.50499079134E+02  0.28055126257E+02 -0.14669976811E+03  0.20134102605E+03  0.12522036458E+03 0.  0.
         25    2    3    3    0    0 -0.50499079134E+02 -0.28055126257E+02 -0.22720560851E+03  0.26719989328E+03  0.12820353866E+03 0.  0.
          5    1    4    4  502    0  0.20738166215E+02  0.81088513582E+01 -0.16091148338E+03  0.16251283177E+03  0.47000000000E+01 0. -1.
         -5    1    4    4    0  502  0.29760912919E+02  0.19946274899E+02  0.14211715269E+02  0.38828194280E+02  0.47000000000E+01 0. -1.
          5    1    5    5  503    0  0.33590786438E+02 -0.92979822264E+01 -0.15209976526E+02  0.38317447631E+02  0.47000000000E+01 0.  1.
         -5    1    5    5    0  503 -0.84089865573E+02 -0.18757144031E+02 -0.21199563198E+03  0.22888244565E+03  0.47000000000E+01 0.  1.
<mgrwt>
<rscale>  0 0.28235680E+03</rscale>
<asrwt>0</asrwt>
<pdfrwt beam="1">  1        2 0.64803562E-01 0.28235680E+03</pdfrwt>
<pdfrwt beam="2">  1       -2 0.72796570E-02 0.28235680E+03</pdfrwt>
<totfact> 0.82249749E+03</totfact>
</mgrwt>
</event>
<event>
 9    1  0.8093459E-001  0.2749880E+03  0.7818608E-02  0.1098458E+00
         -1   -1    0    0    0  501 -0.00000000000E+00  0.00000000000E+00  0.10870189880E+02  0.10870189880E+02  0.00000000000E+00 0.  1.
          1   -1    0    0  501    0  0.00000000000E+00 -0.00000000000E+00 -0.17391227241E+04  0.17391227241E+04  0.00000000000E+00 0.  1.
         35    2    1    2    0    0 -0.71054273576E-14  0.00000000000E+00 -0.17282525342E+04  0.17499929140E+04  0.27498795781E+03 0.  0.
         25    2    3    3    0    0 -0.37467537945E+02 -0.46490255726E+02 -0.89129062967E+03  0.90193878618E+03  0.12461712245E+03 0.  0.
         25    2    3    3    0    0  0.37467537945E+02  0.46490255726E+02 -0.83696190458E+03  0.84805412782E+03  0.12298542079E+03 0.  0.
          5    1    4    4  502    0 -0.60497086073E+02 -0.38226793067E+02 -0.85450957356E+03  0.85751378207E+03  0.47000000000E+01 0. -1.
         -5    1    4    4    0  502  0.23029548128E+02 -0.82634626587E+01 -0.36781056109E+02  0.44425004115E+02  0.47000000000E+01 0. -1.
          5    1    5    5  503    0 -0.34709720112E+02  0.32801211400E+02 -0.53905789993E+03  0.54118960967E+03  0.47000000000E+01 0.  1.
         -5    1    5    5    0  503  0.72177258057E+02  0.13689044326E+02 -0.29790400465E+03  0.30686451815E+03  0.47000000000E+01 0.  1.
<mgrwt>
<rscale>  0 0.27498796E+03</rscale>
<asrwt>0</asrwt>
<pdfrwt beam="1">  1        1 0.26755735E+00 0.27498796E+03</pdfrwt>
<pdfrwt beam="2">  1       -1 0.16723368E-02 0.27498796E+03</pdfrwt>
<totfact> 0.44400275E+03</totfact>
</mgrwt>
</event>
<event>
 9    1  0.8093459E-001  0.2878882E+03  0.7818608E-02  0.1091457E+00
         -3   -1    0    0    0  501 -0.00000000000E+00  0.00000000000E+00  0.10815907024E+03  0.10815907024E+03  0.00000000000E+00 0. -1.
          3   -1    0    0  501    0  0.00000000000E+00 -0.00000000000E+00 -0.19156875618E+03  0.19156875618E+03  0.00000000000E+00 0. -1.
         35    2    1    2    0    0  0.14210854715E-13  0.00000000000E+00 -0.83409685936E+02  0.29972782641E+03  0.28788816269E+03 0.  0.
         25    2    3    3    0    0  0.69679003369E+02 -0.16014353745E+02 -0.48131724253E+02  0.15171451683E+03  0.12485595181E+03 0.  0.
         25    2    3    3    0    0 -0.69679003369E+02  0.16014353745E+02 -0.35277961683E+02  0.14801330958E+03  0.12470678489E+03 0.  0.
          5    1    4    4  502    0  0.91318097067E+02 -0.39081800074E+02 -0.61647622493E+02  0.11699957824E+03  0.47000000000E+01 0.  1.
         -5    1    4    4    0  502 -0.21639093698E+02  0.23067446329E+02  0.13515898240E+02  0.34714938592E+02  0.47000000000E+01 0.  1.
          5    1    5    5  503    0 -0.52136333165E+02 -0.85561964384E+01  0.40220152521E+02  0.66566931746E+02  0.47000000000E+01 0. -1.
         -5    1    5    5    0  503 -0.17542670205E+02  0.24570550183E+02 -0.75498114204E+02  0.81446377836E+02  0.47000000000E+01 0. -1.
<mgrwt>
<rscale>  0 0.28788816E+03</rscale>
<asrwt>0</asrwt>
<pdfrwt beam="1">  1        3 0.29472116E-01 0.28788816E+03</pdfrwt>
<pdfrwt beam="2">  1       -3 0.16639857E-01 0.28788816E+03</pdfrwt>
<totfact> 0.87908914E+02</totfact>
</mgrwt>
</event>
<event>
 9    1  0.8093459E-001  0.2757486E+03  0.7818608E-02  0.1098034E+00
          1   -1    0    0  501    0  0.00000000000E+00  0.00000000000E+00  0.19609335005E+02  0.19609335005E+02  0.00000000000E+00 0. -1.
         -1   -1    0    0    0  501 -0.00000000000E+00 -0.00000000000E+00 -0.96940173029E+03  0.96940173029E+03  0.00000000000E+00 0. -1.
         35    2    1    2    0    0  0.71054273576E-14  0.14210854715E-13 -0.94979239528E+03  0.98901106529E+03  0.27574860495E+03 0.  0.
         25    2    3    3    0    0  0.36495671024E+02  0.40528814708E+02 -0.44272877914E+03  0.46321743434E+03  0.12484831106E+03 0.  0.
         25    2    3    3    0    0 -0.36495671024E+02 -0.40528814708E+02 -0.50706361614E+03  0.52579363095E+03  0.12794886755E+03 0.  0.
          5    1    4    4  502    0  0.42025276613E+02 -0.34158415045E+02 -0.11781755051E+03  0.12975356026E+03  0.47000000000E+01 0. -1.
         -5    1    4    4    0  502 -0.55296055894E+01  0.74687229753E+02 -0.32491122863E+03  0.33346387408E+03  0.47000000000E+01 0. -1.
          5    1    5    5  503    0 -0.27395389310E+01  0.45105269927E+02 -0.13312385347E+03  0.14066286223E+03  0.47000000000E+01 0. -1.
         -5    1    5    5    0  503 -0.33756132093E+02 -0.85634084635E+02 -0.37393976268E+03  0.38513076872E+03  0.47000000000E+01 0. -1.
<mgrwt>
<rscale>  0 0.27574860E+03</rscale>
<asrwt>0</asrwt>
<pdfrwt beam="1">  1        1 0.30168207E-02 0.27574860E+03</pdfrwt>
<pdfrwt beam="2">  1       -1 0.14913873E+00 0.27574860E+03</pdfrwt>
<totfact> 0.12976609E+03</totfact>
</mgrwt>
</event>
<event>
 9    1  0.8093459E-001  0.2710156E+03  0.7818608E-02  0.1100700E+00
         -2   -1    0    0    0  501 -0.00000000000E+00  0.00000000000E+00  0.31287813327E+02  0.31287813327E+02  0.00000000000E+00 0.  1.
          2   -1    0    0  501    0  0.00000000000E+00 -0.00000000000E+00 -0.58688530160E+03  0.58688530160E+03  0.00000000000E+00 0.  1.
         35    2    1    2    0    0 -0.71054273576E-14  0.71054273576E-14 -0.55559748828E+03  0.61817311493E+03  0.27101555498E+03 0.  0.
         25    2    3    3    0    0 -0.53940042895E+02  0.29801473766E+02 -0.26035951567E+03  0.29507694678E+03  0.12444143626E+03 0.  0.
         25    2    3    3    0    0  0.53940042895E+02 -0.29801473766E+02 -0.29523797261E+03  0.32309616815E+03  0.11587932229E+03 0.  0.
          5    1    4    4  502    0 -0.68272467387E+02  0.68753163330E+02 -0.17710942793E+03  0.20193555094E+03  0.47000000000E+01 0. -1.
         -5    1    4    4    0  502  0.14332424492E+02 -0.38951689564E+02 -0.83250087740E+02  0.93141395848E+02  0.47000000000E+01 0. -1.
          5    1    5    5  503    0  0.23298808458E+02 -0.72559374289E+02 -0.20186193452E+03  0.21581943351E+03  0.47000000000E+01 0. -1.
         -5    1    5    5    0  503  0.30641234437E+02  0.42757900523E+02 -0.93376038087E+02  0.10727673463E+03  0.47000000000E+01 0. -1.
<mgrwt>
<rscale>  0 0.27101555E+03</rscale>
<asrwt>0</asrwt>
<pdfrwt beam="1">  1        2 0.90290041E-01 0.27101555E+03</pdfrwt>
<pdfrwt beam="2">  1       -2 0.48135100E-02 0.27101555E+03</pdfrwt>
<totfact> 0.10683267E+04</totfact>
</mgrwt>
</event>
<event>
 9    1  0.8093459E-001  0.2743239E+03  0.7818608E-02  0.1098830E+00
         -2   -1    0    0    0  501 -0.00000000000E+00  0.00000000000E+00  0.43983848606E+02  0.43983848606E+02  0.00000000000E+00 0.  1.
          2   -1    0    0  501    0  0.00000000000E+00 -0.00000000000E+00 -0.42773425723E+03  0.42773425723E+03  0.00000000000E+00 0.  1.
         35    2    1    2    0    0  0.71054273576E-14  0.00000000000E+00 -0.38375040863E+03  0.47171810584E+03  0.27432388750E+03 0.  0.
         25    2    3    3    0    0  0.35230557734E+02  0.29249488277E+02 -0.25196322701E+03  0.28489950305E+03  0.12484203743E+03 0.  0.
         25    2    3    3    0    0 -0.35230557734E+02 -0.29249488277E+02 -0.13178718161E+03  0.18681860279E+03  0.12424413204E+03 0.  0.
          5    1    4    4  502    0 -0.45720701370E+02  0.65752180064E+00 -0.10521968453E+03  0.11482197908E+03  0.47000000000E+01 0.  1.
         -5    1    4    4    0  502  0.80951259105E+02  0.28591966476E+02 -0.14674354248E+03  0.17007752397E+03  0.47000000000E+01 0.  1.
          5    1    5    5  503    0  0.20107079536E+02 -0.19729610969E+02 -0.12710889785E+03  0.13027783430E+03  0.47000000000E+01 0. -1.
         -5    1    5    5    0  503 -0.55337637271E+02 -0.95198773085E+01 -0.46782837660E+01  0.56540768492E+02  0.47000000000E+01 0. -1.
<mgrwt>
<rscale>  0 0.27432389E+03</rscale>
<asrwt>0</asrwt>
<pdfrwt beam="1">  1        2 0.65805272E-01 0.27432389E+03</pdfrwt>
<pdfrwt beam="2">  1       -2 0.67667458E-02 0.27432389E+03</pdfrwt>
<totfact> 0.90477180E+03</totfact>
</mgrwt>
</event>
<event>
 9    1  0.8093459E-001  0.2769017E+03  0.7818608E-02  0.1097393E+00
          1   -1    0    0  501    0  0.00000000000E+00  0.00000000000E+00  0.22006015711E+04  0.22006015711E+04  0.00000000000E+00 0.  1.
         -1   -1    0    0    0  501 -0.00000000000E+00 -0.00000000000E+00 -0.87106357856E+01  0.87106357856E+01  0.00000000000E+00 0.  1.
         35    2    1    2    0    0  0.00000000000E+00 -0.35527136788E-14  0.21918909354E+04  0.22093122069E+04  0.27690170672E+03 0.  0.
         25    2    3    3    0    0  0.18630529333E+02  0.14523912503E+02  0.64785840392E+03  0.66014722517E+03  0.12456246112E+03 0.  0.
         25    2    3    3    0    0 -0.18630529333E+02 -0.14523912503E+02  0.15440325314E+04  0.15491649818E+04  0.12376446136E+03 0.  0.
          5    1    4    4  502    0  0.46993886336E+02 -0.19995725305E+02  0.55095470235E+03  0.55333663210E+03  0.47000000000E+01 0. -1.
         -5    1    4    4    0  502 -0.28363357003E+02  0.34519637809E+02  0.96903701568E+02  0.10681059307E+03  0.47000000000E+01 0. -1.
          5    1    5    5  503    0  0.27119189767E+01  0.25863509039E+02  0.13299617133E+04  0.13302242384E+04  0.47000000000E+01 0. -1.
         -5    1    5    5    0  503 -0.21342448310E+02 -0.40387421542E+02  0.21407081817E+03  0.21894074338E+03  0.47000000000E+01 0. -1.
<mgrwt>
<rscale>  0 0.27690171E+03</rscale>
<asrwt>0</asrwt>
<pdfrwt beam="1">  1        1 0.33855365E+00 0.27690171E+03</pdfrwt>
<pdfrwt beam="2">  1       -1 0.13400996E-02 0.27690171E+03</pdfrwt>
<totfact> 0.30712584E+03</totfact>
</mgrwt>
</event>
<event>
 9    1  0.8093459E-001  0.2736439E+03  0.7818608E-02  0.1099212E+00
          2   -1    0    0  501    0  0.00000000000E+00  0.00000000000E+00  0.87602987664E+03  0.87602987664E+03  0.00000000000E+00 0.  1.
         -2   -1    0    0    0  501 -0.00000000000E+00 -0.00000000000E+00 -0.21369414938E+02  0.21369414938E+02  0.00000000000E+00 0.  1.
         35    2    1    2    0    0 -0.71054273576E-14 -0.71054273576E-14  0.85466046171E+03  0.89739929158E+03  0.27364389949E+03 0.  0.
         25    2    3    3    0    0 -0.41145487602E+02 -0.32748021799E+02  0.37042229909E+03  0.39441746629E+03  0.12484820370E+03 0.  0.
         25    2    3    3    0    0  0.41145487602E+02  0.32748021799E+02  0.48423816262E+03  0.50298182529E+03  0.12545411257E+03 0.  0.
          5    1    4    4  502    0  0.16370948269E+02 -0.12708374461E+02  0.30178475662E+03  0.30253204798E+03  0.47000000000E+01 0.  1.
         -5    1    4    4    0  502 -0.57516435871E+02 -0.20039647338E+02  0.68637542472E+02  0.91885418307E+02  0.47000000000E+01 0.  1.
          5    1    5    5  503    0  0.37814441517E+02 -0.43988731280E+02  0.18068310529E+03  0.18982469545E+03  0.47000000000E+01 0.  1.
         -5    1    5    5    0  503  0.33310460849E+01  0.76736753080E+02  0.30355505733E+03  0.31315712984E+03  0.47000000000E+01 0.  1.
<mgrwt>
<rscale>  0 0.27364390E+03</rscale>
<asrwt>0</asrwt>
<pdfrwt beam="1">  1        2 0.13477380E+00 0.27364390E+03</pdfrwt>
<pdfrwt beam="2">  1       -2 0.32876030E-02 0.27364390E+03</pdfrwt>
<totfact> 0.11594759E+04</totfact>
</mgrwt>
</event>
<event>
 9    1  0.8093459E-001  0.2743557E+03  0.7818608E-02  0.1098812E+00
         -3   -1    0    0    0  501 -0.00000000000E+00  0.00000000000E+00  0.19236211490E+04  0.19236211490E+04  0.00000000000E+00 0.  1.
          3   -1    0    0  501    0  0.00000000000E+00 -0.00000000000E+00 -0.97824686872E+01  0.97824686872E+01  0.00000000000E+00 0.  1.
         35    2    1    2    0    0 -0.71054273576E-14  0.35527136788E-14  0.19138386803E+04  0.19334036176E+04  0.27435570820E+03 0.  0.
         25    2    3    3    0    0  0.32408529979E+02  0.22523353412E+02  0.12183826430E+04  0.12254477799E+04  0.12533308522E+03 0.  0.
         25    2    3    3    0    0 -0.32408529979E+02 -0.22523353412E+02  0.69545603726E+03  0.70795583773E+03  0.12643082752E+03 0.  0.
          5    1    4    4  502    0 -0.19096563824E+02  0.55131073895E+01  0.10056903326E+04  0.10058977126E+04  0.47000000000E+01 0. -1.
         -5    1    4    4    0  502  0.51505093803E+02  0.17010246023E+02  0.21269231044E+03  0.21955006736E+03  0.47000000000E+01 0. -1.
          5    1    5    5  503    0 -0.63079888633E+02  0.13808447709E+02  0.57074656781E+03  0.57440706841E+03  0.47000000000E+01 0. -1.
         -5    1    5    5    0  503  0.30671358654E+02 -0.36331801122E+02  0.12470946945E+03  0.13354876931E+03  0.47000000000E+01 0. -1.
<mgrwt>
<rscale>  0 0.27435571E+03</rscale>
<asrwt>0</asrwt>
<pdfrwt beam="1">  1        3 0.15049967E-02 0.27435571E+03</pdfrwt>
<pdfrwt beam="2">  1       -3 0.29594141E+00 0.27435571E+03</pdfrwt>
<totfact> 0.17164785E+02</totfact>
</mgrwt>
</event>
<event>
 9    1  0.8093459E-001  0.2725440E+03  0.7818608E-02  0.1099832E+00
          2   -1    0    0  501    0  0.00000000000E+00  0.00000000000E+00  0.12880782500E+04  0.12880782500E+04  0.00000000000E+00 0. -1.
         -2   -1    0    0    0  501 -0.00000000000E+00 -0.00000000000E+00 -0.14416871469E+02  0.14416871469E+02  0.00000000000E+00 0. -1.
         35    2    1    2    0    0  0.00000000000E+00  0.00000000000E+00  0.12736613785E+04  0.13024951215E+04  0.27254400431E+03 0.  0.
         25    2    3    3    0    0  0.35428613891E+02 -0.22630152390E+02  0.78559974651E+03  0.79689609399E+03  0.12692167827E+03 0.  0.
         25    2    3    3    0    0 -0.35428613891E+02  0.22630152390E+02  0.48806163202E+03  0.50559902748E+03  0.12513556433E+03 0.  0.
          5    1    4    4  502    0 -0.31238722718E+02 -0.14863822490E+02  0.56939059136E+03  0.57045992545E+03  0.47000000000E+01 0. -1.
         -5    1    4    4    0  502  0.66667336609E+02 -0.77663298999E+01  0.21620915515E+03  0.22643616854E+03  0.47000000000E+01 0. -1.
          5    1    5    5  503    0 -0.11063137365E+02  0.85111476155E+01  0.47316877269E+03  0.47339794052E+03  0.47000000000E+01 0. -1.
         -5    1    5    5    0  503 -0.24365476526E+02  0.14119004775E+02  0.14892859328E+02  0.32201086956E+02  0.47000000000E+01 0. -1.
<mgrwt>
<rscale>  0 0.27254400E+03</rscale>
<asrwt>0</asrwt>
<pdfrwt beam="1">  1        2 0.19816579E+00 0.27254400E+03</pdfrwt>
<pdfrwt beam="2">  1       -2 0.22179812E-02 0.27254400E+03</pdfrwt>
<totfact> 0.11809126E+04</totfact>
</mgrwt>
</event>
<event>
 9    1  0.8093459E-001  0.2708461E+03  0.7818608E-02  0.1100796E+00
         -2   -1    0    0    0  501 -0.00000000000E+00  0.00000000000E+00  0.21030164975E+02  0.21030164975E+02  0.00000000000E+00 0.  1.
          2   -1    0    0  501    0  0.00000000000E+00 -0.00000000000E+00 -0.87205195349E+03  0.87205195349E+03  0.00000000000E+00 0.  1.
         35    2    1    2    0    0  0.00000000000E+00 -0.35527136788E-14 -0.85102178851E+03  0.89308211846E+03  0.27084605553E+03 0.  0.
         25    2    3    3    0    0  0.34777306480E+02  0.75109124241E+01 -0.29995105383E+03  0.32701838492E+03  0.12531765450E+03 0.  0.
         25    2    3    3    0    0 -0.34777306480E+02 -0.75109124241E+01 -0.55107073469E+03  0.56606373355E+03  0.12443199331E+03 0.  0.
          5    1    4    4  502    0  0.50938330163E+02  0.29756833868E+02 -0.29210645115E+03  0.29804102309E+03  0.47000000000E+01 0. -1.
         -5    1    4    4    0  502 -0.16161023682E+02 -0.22245921444E+02 -0.78446026812E+01  0.28977361829E+02  0.47000000000E+01 0. -1.
          5    1    5    5  503    0 -0.76367055571E+01  0.44492299779E+02 -0.85604040210E+02  0.96891824793E+02  0.47000000000E+01 0. -1.
         -5    1    5    5    0  503 -0.27140600923E+02 -0.52003212203E+02 -0.46546669448E+03  0.46917190876E+03  0.47000000000E+01 0. -1.
<mgrwt>
<rscale>  0 0.27084606E+03</rscale>
<asrwt>0</asrwt>
<pdfrwt beam="1">  1        2 0.13416186E+00 0.27084606E+03</pdfrwt>
<pdfrwt beam="2">  1       -2 0.32354095E-02 0.27084606E+03</pdfrwt>
<totfact> 0.11942308E+04</totfact>
</mgrwt>
</event>
<event>
 9    1  0.8093459E-001  0.2708173E+03  0.7818608E-02  0.1100813E+00
          3   -1    0    0  501    0  0.00000000000E+00  0.00000000000E+00  0.37616680858E+03  0.37616680858E+03  0.00000000000E+00 0. -1.
         -3   -1    0    0    0  501 -0.00000000000E+00 -0.00000000000E+00 -0.48743004209E+02  0.48743004209E+02  0.00000000000E+00 0. -1.
         35    2    1    2    0    0  0.00000000000E+00  0.35527136788E-14  0.32742380437E+03  0.42490981279E+03  0.27081728404E+03 0.  0.
         25    2    3    3    0    0  0.38860327096E+02  0.19329207666E+02  0.20598812751E+03  0.24464958118E+03  0.12465378297E+03 0.  0.
         25    2    3    3    0    0 -0.38860327096E+02 -0.19329207666E+02  0.12143567687E+03  0.18026023161E+03  0.12594992732E+03 0.  0.
          5    1    4    4  502    0  0.73271143140E+02 -0.23270570809E+02  0.12163853123E+03  0.14397292163E+03  0.47000000000E+01 0. -1.
         -5    1    4    4    0  502 -0.34410816044E+02  0.42599778476E+02  0.84349596279E+02  0.10067665956E+03  0.47000000000E+01 0. -1.
          5    1    5    5  503    0 -0.38855435127E+02 -0.33274956153E+02  0.14424255148E+03  0.15311750783E+03  0.47000000000E+01 0.  1.
         -5    1    5    5    0  503 -0.48919686404E-02  0.13945748487E+02 -0.22806874611E+02  0.27142723782E+02  0.47000000000E+01 0.  1.
<mgrwt>
<rscale>  0 0.27081728E+03</rscale>
<asrwt>0</asrwt>
<pdfrwt beam="1">  1        3 0.57871815E-01 0.27081728E+03</pdfrwt>
<pdfrwt beam="2">  1       -3 0.74989240E-02 0.27081728E+03</pdfrwt>
<totfact> 0.89325081E+02</totfact>
</mgrwt>
</event>
<event>
 9    1  0.8093459E-001  0.2774532E+03  0.7818608E-02  0.1097088E+00
         -2   -1    0    0    0  501 -0.00000000000E+00  0.00000000000E+00  0.13312990494E+02  0.13312990494E+02  0.00000000000E+00 0.  1.
          2   -1    0    0  501    0  0.00000000000E+00 -0.00000000000E+00 -0.14455858392E+04  0.14455858392E+04  0.00000000000E+00 0.  1.
         35    2    1    2    0    0  0.00000000000E+00  0.00000000000E+00 -0.14322728488E+04  0.14588988297E+04  0.27745320713E+03 0.  0.
         25    2    3    3    0    0 -0.27039319159E+02  0.52372235551E+02 -0.80916360128E+03  0.82076893879E+03  0.12426560828E+03 0.  0.
         25    2    3    3    0    0  0.27039319159E+02 -0.52372235551E+02 -0.62310924747E+03  0.63812989095E+03  0.12438105808E+03 0.  0.
          5    1    4    4  502    0 -0.28845180797E+02 -0.37479122158E+02 -0.28559304117E+03  0.28952064558E+03  0.47000000000E+01 0. -1.
         -5    1    4    4    0  502  0.18058616384E+01  0.89851357709E+02 -0.52357056011E+03  0.53124829321E+03  0.47000000000E+01 0. -1.
          5    1    5    5  503    0  0.48472839769E+02 -0.81943425320E+01 -0.53400135252E+03  0.53628005551E+03  0.47000000000E+01 0.  1.
         -5    1    5    5    0  503 -0.21433520610E+02 -0.44177893019E+02 -0.89107894947E+02  0.10184983544E+03  0.47000000000E+01 0.  1.
<mgrwt>
<rscale>  0 0.27745321E+03</rscale>
<asrwt>0</asrwt>
<pdfrwt beam="1">  1        2 0.22239780E+00 0.27745321E+03</pdfrwt>
<pdfrwt beam="2">  1       -2 0.20481525E-02 0.27745321E+03</pdfrwt>
<totfact> 0.10896620E+04</totfact>
</mgrwt>
</event>
<event>
 9    1  0.8093459E-001  0.2746531E+03  0.7818608E-02  0.1098646E+00
          1   -1    0    0  501    0  0.00000000000E+00  0.00000000000E+00  0.29937066665E+03  0.29937066665E+03  0.00000000000E+00 0. -1.
         -1   -1    0    0    0  501 -0.00000000000E+00 -0.00000000000E+00 -0.62994099551E+02  0.62994099551E+02  0.00000000000E+00 0. -1.
         35    2    1    2    0    0 -0.14210854715E-13 -0.71054273576E-14  0.23637656710E+03  0.36236476620E+03  0.27465313089E+03 0.  0.
         25    2    3    3    0    0 -0.46432332960E+02 -0.36093581697E+02  0.13240303771E+03  0.19175922682E+03  0.12562773775E+03 0.  0.
         25    2    3    3    0    0  0.46432332960E+02  0.36093581697E+02  0.10397352939E+03  0.17060553938E+03  0.12180741796E+03 0.  0.
          5    1    4    4  502    0 -0.20906938928E+02  0.24301273345E+02 -0.10830157796E+02  0.34161883722E+02  0.47000000000E+01 0. -1.
         -5    1    4    4    0  502 -0.25525394032E+02 -0.60394855042E+02  0.14323319550E+03  0.15759734310E+03  0.47000000000E+01 0. -1.
          5    1    5    5  503    0 -0.24583141707E+02 -0.22581514615E+02  0.59082276340E+02  0.68022503894E+02  0.47000000000E+01 0. -1.
         -5    1    5    5    0  503  0.71015474667E+02  0.58675096312E+02  0.44891253047E+02  0.10258303549E+03  0.47000000000E+01 0. -1.
<mgrwt>
<rscale>  0 0.27465313E+03</rscale>
<asrwt>0</asrwt>
<pdfrwt beam="1">  1        1 0.46057025E-01 0.27465313E+03</pdfrwt>
<pdfrwt beam="2">  1       -1 0.96914001E-02 0.27465313E+03</pdfrwt>
<totfact> 0.55851660E+03</totfact>
</mgrwt>
</event>
<event>
 9    1  0.8093459E-001  0.2752066E+03  0.7818608E-02  0.1098336E+00
          2   -1    0    0  501    0  0.00000000000E+00  0.00000000000E+00  0.91884093543E+03  0.91884093543E+03  0.00000000000E+00 0.  1.
         -2   -1    0    0    0  501 -0.00000000000E+00 -0.00000000000E+00 -0.20607125622E+02  0.20607125622E+02  0.00000000000E+00 0.  1.
         35    2    1    2    0    0  0.00000000000E+00  0.00000000000E+00  0.89823380981E+03  0.93944806106E+03  0.27520661753E+03 0.  0.
         25    2    3    3    0    0  0.50837682341E+02  0.14427992052E+02  0.51097957541E+03  0.52882621042E+03  0.12555635166E+03 0.  0.
         25    2    3    3    0    0 -0.50837682341E+02 -0.14427992052E+02  0.38725423441E+03  0.41062185064E+03  0.12590403193E+03 0.  0.
          5    1    4    4  502    0  0.26330490450E+02 -0.46468573667E+02  0.36212225161E+03  0.36606999082E+03  0.47000000000E+01 0. -1.
         -5    1    4    4    0  502  0.24507191891E+02  0.60896565719E+02  0.14885732379E+03  0.16275621960E+03  0.47000000000E+01 0. -1.
          5    1    5    5  503    0  0.29060979601E+02 -0.24597017162E+02  0.23692546554E+03  0.24001108309E+03  0.47000000000E+01 0.  1.
         -5    1    5    5    0  503 -0.79898661942E+02  0.10169025110E+02  0.15032876887E+03  0.17061076754E+03  0.47000000000E+01 0.  1.
<mgrwt>
<rscale>  0 0.27520662E+03</rscale>
<asrwt>0</asrwt>
<pdfrwt beam="1">  1        2 0.14136011E+00 0.27520662E+03</pdfrwt>
<pdfrwt beam="2">  1       -2 0.31703277E-02 0.27520662E+03</pdfrwt>
<totfact> 0.11486312E+04</totfact>
</mgrwt>
</event>
<event>
 9    1  0.8093459E-001  0.2691247E+03  0.7818608E-02  0.1101782E+00
          1   -1    0    0  501    0  0.00000000000E+00  0.00000000000E+00  0.26796695862E+03  0.26796695862E+03  0.00000000000E+00 0.  1.
         -1   -1    0    0    0  501 -0.00000000000E+00 -0.00000000000E+00 -0.67571860768E+02  0.67571860768E+02  0.00000000000E+00 0.  1.
         35    2    1    2    0    0  0.71054273576E-14  0.00000000000E+00  0.20039509785E+03  0.33553881939E+03  0.26912469986E+03 0.  0.
         25    2    3    3    0    0 -0.20512490428E+02  0.40247584082E+02  0.74186470463E+02  0.15189337471E+03  0.12460872599E+03 0.  0.
         25    2    3    3    0    0  0.20512490428E+02 -0.40247584082E+02  0.12620862739E+03  0.18364544468E+03  0.12552450532E+03 0.  0.
          5    1    4    4  502    0 -0.56311457301E+02  0.47006668728E+02  0.51385981046E+01  0.73682442404E+02  0.47000000000E+01 0. -1.
         -5    1    4    4    0  502  0.35798966873E+02 -0.67590846455E+01  0.69047872358E+02  0.78210932302E+02  0.47000000000E+01 0. -1.
          5    1    5    5  503    0 -0.13484118967E+02 -0.58585756049E+02  0.10037492397E+02  0.61130626774E+02  0.47000000000E+01 0.  1.
         -5    1    5    5    0  503  0.33996609396E+02  0.18338171966E+02  0.11617113499E+03  0.12251481791E+03  0.47000000000E+01 0.  1.
<mgrwt>
<rscale>  0 0.26912470E+03</rscale>
<asrwt>0</asrwt>
<pdfrwt beam="1">  1        1 0.41225685E-01 0.26912470E+03</pdfrwt>
<pdfrwt beam="2">  1       -1 0.10395671E-01 0.26912470E+03</pdfrwt>
<totfact> 0.57554112E+03</totfact>
</mgrwt>
</event>
<event>
 9    1  0.8093459E-001  0.2698498E+03  0.7818608E-02  0.1101366E+00
         -2   -1    0    0    0  501 -0.00000000000E+00  0.00000000000E+00  0.98783755761E+02  0.98783755761E+02  0.00000000000E+00 0. -1.
          2   -1    0    0  501    0  0.00000000000E+00 -0.00000000000E+00 -0.18428866079E+03  0.18428866079E+03  0.00000000000E+00 0. -1.
         35    2    1    2    0    0  0.71054273576E-14  0.00000000000E+00 -0.85504905027E+02  0.28307241655E+03  0.26984978085E+03 0.  0.
         25    2    3    3    0    0  0.36988952930E+02 -0.28023065477E+02 -0.34115460992E+02  0.14044138598E+03  0.12808763945E+03 0.  0.
         25    2    3    3    0    0 -0.36988952930E+02  0.28023065477E+02 -0.51389444035E+02  0.14263103056E+03  0.12469667631E+03 0.  0.
          5    1    4    4  502    0 -0.84686462945E+01  0.46220803492E+02 -0.23083880372E+02  0.52564590539E+02  0.47000000000E+01 0. -1.
         -5    1    4    4    0  502  0.45457599225E+02 -0.74243868969E+02 -0.11031580620E+02  0.87876795445E+02  0.47000000000E+01 0. -1.
          5    1    5    5  503    0 -0.30075225262E+02 -0.38805595242E+02  0.11324761427E+02  0.50603691743E+02  0.47000000000E+01 0. -1.
         -5    1    5    5    0  503 -0.69137276683E+01  0.66828660719E+02 -0.62714205462E+02  0.92027338821E+02  0.47000000000E+01 0. -1.
<mgrwt>
<rscale>  0 0.26984978E+03</rscale>
<asrwt>0</asrwt>
<pdfrwt beam="1">  1        2 0.28352101E-01 0.26984978E+03</pdfrwt>
<pdfrwt beam="2">  1       -2 0.15197501E-01 0.26984978E+03</pdfrwt>
<totfact> 0.62009199E+03</totfact>
</mgrwt>
</event>
<event>
 9    1  0.8093459E-001  0.2735341E+03  0.7818608E-02  0.1099274E+00
         -3   -1    0    0    0  501 -0.00000000000E+00  0.00000000000E+00  0.78757575442E+02  0.78757575442E+02  0.00000000000E+00 0. -1.
          3   -1    0    0  501    0  0.00000000000E+00 -0.00000000000E+00 -0.23750377326E+03  0.23750377326E+03  0.00000000000E+00 0. -1.
         35    2    1    2    0    0  0.00000000000E+00 -0.71054273576E-14 -0.15874619782E+03  0.31626134871E+03  0.27353406618E+03 0.  0.
         25    2    3    3    0    0 -0.71228802073E+01  0.50007074356E+02 -0.93973457282E+02  0.16446018559E+03  0.12515869552E+03 0.  0.
         25    2    3    3    0    0  0.71228802073E+01 -0.50007074356E+02 -0.64772740541E+02  0.15180116311E+03  0.12765830289E+03 0.  0.
          5    1    4    4  502    0  0.41056222416E+02  0.59855951412E+02 -0.88806329784E+02  0.11479112565E+03  0.47000000000E+01 0.  1.
         -5    1    4    4    0  502 -0.48179102623E+02 -0.98488770566E+01 -0.51671274981E+01  0.49669059941E+02  0.47000000000E+01 0.  1.
          5    1    5    5  503    0 -0.18424971775E+02  0.39280616568E+02 -0.13876251232E+02  0.45793959985E+02  0.47000000000E+01 0. -1.
         -5    1    5    5    0  503  0.25547851982E+02 -0.89287690924E+02 -0.50896489309E+02  0.10600720313E+03  0.47000000000E+01 0. -1.
<mgrwt>
<rscale>  0 0.27353407E+03</rscale>
<asrwt>0</asrwt>
<pdfrwt beam="1">  1        3 0.36539042E-01 0.27353407E+03</pdfrwt>
<pdfrwt beam="2">  1       -3 0.12116550E-01 0.27353407E+03</pdfrwt>
<totfact> 0.10048611E+03</totfact>
</mgrwt>
</event>
<event>
 9    1  0.8093459E-001  0.2774393E+03  0.7818608E-02  0.1097096E+00
          2   -1    0    0  501    0  0.00000000000E+00  0.00000000000E+00  0.22391846378E+04  0.22391846378E+04  0.00000000000E+00 0. -1.
         -2   -1    0    0    0  501 -0.00000000000E+00 -0.00000000000E+00 -0.85938169947E+01  0.85938169947E+01  0.00000000000E+00 0. -1.
         35    2    1    2    0    0  0.35527136788E-14  0.00000000000E+00  0.22305908209E+04  0.22477784548E+04  0.27743931225E+03 0.  0.
         25    2    3    3    0    0  0.12965784849E+02 -0.52716605988E+02  0.13305245641E+04  0.13374353863E+04  0.12446141946E+03 0.  0.
         25    2    3    3    0    0 -0.12965784849E+02  0.52716605988E+02  0.90006625678E+03  0.91034306849E+03  0.12513226457E+03 0.  0.
          5    1    4    4  502    0 -0.33022411144E+02 -0.60204046439E+02  0.41131791428E+03  0.41703659726E+03  0.47000000000E+01 0. -1.
         -5    1    4    4    0  502  0.45988195993E+02  0.74874404515E+01  0.91920664979E+03  0.92039878909E+03  0.47000000000E+01 0. -1.
          5    1    5    5  503    0  0.12118260151E+02  0.30032836723E+02  0.51036685494E+02  0.60627195027E+02  0.47000000000E+01 0.  1.
         -5    1    5    5    0  503 -0.25084045000E+02  0.22683769265E+02  0.84902957129E+03  0.84971587347E+03  0.47000000000E+01 0.  1.
<mgrwt>
<rscale>  0 0.27743931E+03</rscale>
<asrwt>0</asrwt>
<pdfrwt beam="1">  1        2 0.34448948E+00 0.27743931E+03</pdfrwt>
<pdfrwt beam="2">  1       -2 0.13221275E-02 0.27743931E+03</pdfrwt>
<totfact> 0.78754961E+03</totfact>
</mgrwt>
</event>
<event>
 9    1  0.8093459E-001  0.2766011E+03  0.7818608E-02  0.1097560E+00
         -1   -1    0    0    0  501 -0.00000000000E+00  0.00000000000E+00  0.15287918585E+02  0.15287918585E+02  0.00000000000E+00 0.  1.
          1   -1    0    0  501    0  0.00000000000E+00 -0.00000000000E+00 -0.12511217979E+04  0.12511217979E+04  0.00000000000E+00 0.  1.
         35    2    1    2    0    0  0.17763568394E-14 -0.14210854715E-13 -0.12358338793E+04  0.12664097165E+04  0.27660114379E+03 0.  0.
         25    2    3    3    0    0 -0.41045143202E+01  0.39997420122E+02 -0.80764495213E+03  0.81825260525E+03  0.12502126475E+03 0.  0.
         25    2    3    3    0    0  0.41045143202E+01 -0.39997420122E+02 -0.42818892720E+03  0.44815711125E+03  0.12602538766E+03 0.  0.
          5    1    4    4  502    0 -0.65066981851E+00  0.36811050622E+02 -0.59824912916E+02  0.70403032779E+02  0.47000000000E+01 0. -1.
         -5    1    4    4    0  502 -0.34538445017E+01  0.31863695002E+01 -0.74782003922E+03  0.74784957247E+03  0.47000000000E+01 0. -1.
          5    1    5    5  503    0 -0.10888557623E+02  0.43141427699E+02 -0.19572999655E+03  0.20077864682E+03  0.47000000000E+01 0.  1.
         -5    1    5    5    0  503  0.14993071943E+02 -0.83138847821E+02 -0.23245893065E+03  0.24737846443E+03  0.47000000000E+01 0.  1.
<mgrwt>
<rscale>  0 0.27660114E+03</rscale>
<asrwt>0</asrwt>
<pdfrwt beam="1">  1        1 0.19248037E+00 0.27660114E+03</pdfrwt>
<pdfrwt beam="2">  1       -1 0.23519864E-02 0.27660114E+03</pdfrwt>
<totfact> 0.56992012E+03</totfact>
</mgrwt>
</event>
<event>
 9    1  0.8093459E-001  0.2713196E+03  0.7818608E-02  0.1100527E+00
          1   -1    0    0  501    0  0.00000000000E+00  0.00000000000E+00  0.40687999831E+02  0.40687999831E+02  0.00000000000E+00 0. -1.
         -1   -1    0    0    0  501 -0.00000000000E+00 -0.00000000000E+00 -0.45230996475E+03  0.45230996475E+03  0.00000000000E+00 0. -1.
         35    2    1    2    0    0  0.71054273576E-14  0.00000000000E+00 -0.41162196492E+03  0.49299796459E+03  0.27131964742E+03 0.  0.
         25    2    3    3    0    0  0.46748161736E+02  0.19579453796E+02 -0.15936099699E+03  0.20730025889E+03  0.12251009892E+03 0.  0.
         25    2    3    3    0    0 -0.46748161736E+02 -0.19579453796E+02 -0.25226096794E+03  0.28569770569E+03  0.12417261155E+03 0.  0.
          5    1    4    4  502    0  0.54878514000E+02 -0.15755834580E+02 -0.16186903699E+02  0.59531533439E+02  0.47000000000E+01 0.  1.
         -5    1    4    4    0  502 -0.81303522644E+01  0.35335288376E+02 -0.14317409329E+03  0.14776872545E+03  0.47000000000E+01 0.  1.
          5    1    5    5  503    0 -0.16972632065E+02 -0.71740439220E+02 -0.13980454564E+03  0.15812071920E+03  0.47000000000E+01 0. -1.
         -5    1    5    5    0  503 -0.29775529671E+02  0.52160985424E+02 -0.11245642230E+03  0.12757698650E+03  0.47000000000E+01 0. -1.
<mgrwt>
<rscale>  0 0.27131965E+03</rscale>
<asrwt>0</asrwt>
<pdfrwt beam="1">  1        1 0.62596916E-02 0.27131965E+03</pdfrwt>
<pdfrwt beam="2">  1       -1 0.69586156E-01 0.27131965E+03</pdfrwt>
<totfact> 0.26361612E+03</totfact>
</mgrwt>
</event>
<event>
 9    1  0.8093459E-001  0.2757126E+03  0.7818608E-02  0.1098054E+00
         -1   -1    0    0    0  501 -0.00000000000E+00  0.00000000000E+00  0.11039466153E+02  0.11039466153E+02  0.00000000000E+00 0. -1.
          1   -1    0    0  501    0  0.00000000000E+00 -0.00000000000E+00 -0.17214931640E+04  0.17214931640E+04  0.00000000000E+00 0. -1.
         35    2    1    2    0    0  0.00000000000E+00  0.71054273576E-14 -0.17104536979E+04  0.17325326302E+04  0.27571264402E+03 0.  0.
         25    2    3    3    0    0  0.35970286745E+02 -0.32363294113E+02 -0.10602143103E+04  0.10685875718E+04  0.12443380023E+03 0.  0.
         25    2    3    3    0    0 -0.35970286745E+02  0.32363294113E+02 -0.65023938763E+03  0.66394505837E+03  0.12518200741E+03 0.  0.
          5    1    4    4  502    0  0.22343642788E+02 -0.19007019028E+02 -0.10398985524E+04  0.10403228318E+04  0.47000000000E+01 0.  1.
         -5    1    4    4    0  502  0.13626643957E+02 -0.13356275085E+02 -0.20315757880E+02  0.28264740011E+02  0.47000000000E+01 0.  1.
          5    1    5    5  503    0  0.27686323928E+02  0.48098445070E+02 -0.44404195197E+03  0.44752132693E+03  0.47000000000E+01 0. -1.
         -5    1    5    5    0  503 -0.63656610673E+02 -0.15735150956E+02 -0.20619743566E+03  0.21642373144E+03  0.47000000000E+01 0. -1.
<mgrwt>
<rscale>  0 0.27571264E+03</rscale>
<asrwt>0</asrwt>
<pdfrwt beam="1">  1        1 0.26484505E+00 0.27571264E+03</pdfrwt>
<pdfrwt beam="2">  1       -1 0.16983798E-02 0.27571264E+03</pdfrwt>
<totfact> 0.44575018E+03</totfact>
</mgrwt>
</event>
<event>
 9    1  0.8093459E-001  0.2758886E+03  0.7818608E-02  0.1097956E+00
          2   -1    0    0  501    0  0.00000000000E+00  0.00000000000E+00  0.38601196700E+03  0.38601196700E+03  0.00000000000E+00 0. -1.
         -2   -1    0    0    0  501 -0.00000000000E+00 -0.00000000000E+00 -0.49295442913E+02  0.49295442913E+02  0.00000000000E+00 0. -1.
         35    2    1    2    0    0 -0.71054273576E-14 -0.71054273576E-14  0.33671652409E+03  0.43530740991E+03  0.27588860711E+03 0.  0.
         25    2    3    3    0    0  0.50795750735E+02 -0.25396889324E+02  0.18216116678E+03  0.22755092989E+03  0.12398195326E+03 0.  0.
         25    2    3    3    0    0 -0.50795750735E+02  0.25396889324E+02  0.15455535731E+03  0.20775648002E+03  0.12668932960E+03 0.  0.
          5    1    4    4  502    0  0.82957279737E+02  0.13214727648E+02  0.13095159948E+03  0.15565009057E+03  0.47000000000E+01 0.  1.
         -5    1    4    4    0  502 -0.32161529003E+02 -0.38611616972E+02  0.51209567296E+02  0.71900839325E+02  0.47000000000E+01 0.  1.
          5    1    5    5  503    0 -0.78248535663E+02  0.55833716340E+02  0.12079710034E+03  0.15444826533E+03  0.47000000000E+01 0. -1.
         -5    1    5    5    0  503  0.27452784928E+02 -0.30436827017E+02  0.33758256973E+02  0.53308214686E+02  0.47000000000E+01 0. -1.
<mgrwt>
<rscale>  0 0.27588861E+03</rscale>
<asrwt>0</asrwt>
<pdfrwt beam="1">  1        2 0.59386454E-01 0.27588861E+03</pdfrwt>
<pdfrwt beam="2">  1       -2 0.75839146E-02 0.27588861E+03</pdfrwt>
<totfact> 0.84795279E+03</totfact>
</mgrwt>
</event>
<event>
 9    1  0.8093459E-001  0.2815066E+03  0.7818608E-02  0.1094869E+00
          1   -1    0    0  501    0  0.00000000000E+00  0.00000000000E+00  0.87732672975E+02  0.87732672975E+02  0.00000000000E+00 0. -1.
         -1   -1    0    0    0  501 -0.00000000000E+00 -0.00000000000E+00 -0.22581652033E+03  0.22581652033E+03  0.00000000000E+00 0. -1.
         35    2    1    2    0    0  0.71054273576E-14  0.14210854715E-13 -0.13808384735E+03  0.31354919330E+03  0.28150656781E+03 0.  0.
         25    2    3    3    0    0  0.33793126649E+02  0.54326255203E+02 -0.71273855550E+02  0.15795885660E+03  0.12560939647E+03 0.  0.
         25    2    3    3    0    0 -0.33793126649E+02 -0.54326255203E+02 -0.66809991801E+02  0.15559033670E+03  0.12510579706E+03 0.  0.
          5    1    4    4  502    0 -0.39784017032E+01  0.78577665639E+02 -0.79650325662E+02  0.11205597528E+03  0.47000000000E+01 0.  1.
         -5    1    4    4    0  502  0.37771528352E+02 -0.24251410436E+02  0.83764701120E+01  0.45902881323E+02  0.47000000000E+01 0.  1.
          5    1    5    5  503    0  0.12340416199E+02 -0.24592305293E+01 -0.83063659433E+02  0.84142707379E+02  0.47000000000E+01 0.  1.
         -5    1    5    5    0  503 -0.46133542848E+02 -0.51867024674E+02  0.16253667632E+02  0.71447629322E+02  0.47000000000E+01 0.  1.
<mgrwt>
<rscale>  0 0.28150657E+03</rscale>
<asrwt>0</asrwt>
<pdfrwt beam="1">  1        1 0.13497335E-01 0.28150657E+03</pdfrwt>
<pdfrwt beam="2">  1       -1 0.34741002E-01 0.28150657E+03</pdfrwt>
<totfact> 0.33840154E+03</totfact>
</mgrwt>
</event>
<event>
 9    1  0.8093459E-001  0.2792437E+03  0.7818608E-02  0.1096103E+00
         -1   -1    0    0    0  501 -0.00000000000E+00  0.00000000000E+00  0.12730056177E+03  0.12730056177E+03  0.00000000000E+00 0. -1.
          1   -1    0    0  501    0  0.00000000000E+00 -0.00000000000E+00 -0.15313565731E+03  0.15313565731E+03  0.00000000000E+00 0. -1.
         35    2    1    2    0    0  0.00000000000E+00 -0.35527136788E-14 -0.25835095535E+02  0.28043621908E+03  0.27924365850E+03 0.  0.
         25    2    3    3    0    0  0.52368139953E+02  0.21095087689E+02  0.16350256911E+02  0.13783788079E+03  0.12467768715E+03 0.  0.
         25    2    3    3    0    0 -0.52368139953E+02 -0.21095087689E+02 -0.42185352447E+02  0.14259833829E+03  0.12396474223E+03 0.  0.
          5    1    4    4  502    0  0.45036293833E+02  0.27014995459E+01 -0.50545243742E+02  0.67915223087E+02  0.47000000000E+01 0. -1.
         -5    1    4    4    0  502  0.73318461199E+01  0.18393588143E+02  0.66895500653E+02  0.69922657701E+02  0.47000000000E+01 0. -1.
          5    1    5    5  503    0 -0.74060564157E+02  0.28822666873E+02 -0.13011722391E+02  0.80666648675E+02  0.47000000000E+01 0. -1.
         -5    1    5    5    0  503  0.21692424204E+02 -0.49917754562E+02 -0.29173630056E+02  0.61931689619E+02  0.47000000000E+01 0. -1.
<mgrwt>
<rscale>  0 0.27924366E+03</rscale>
<asrwt>0</asrwt>
<pdfrwt beam="1">  1        1 0.23559332E-01 0.27924366E+03</pdfrwt>
<pdfrwt beam="2">  1       -1 0.19584702E-01 0.27924366E+03</pdfrwt>
<totfact> 0.42861876E+03</totfact>
</mgrwt>
</event>
<event>
 9    1  0.8093459E-001  0.2751996E+03  0.7818608E-02  0.1098340E+00
          1   -1    0    0  501    0  0.00000000000E+00  0.00000000000E+00  0.16991855638E+03  0.16991855638E+03  0.00000000000E+00 0. -1.
         -1   -1    0    0    0  501 -0.00000000000E+00 -0.00000000000E+00 -0.11142814499E+03  0.11142814499E+03  0.00000000000E+00 0. -1.
         35    2    1    2    0    0  0.00000000000E+00  0.35527136788E-14  0.58490411396E+02  0.28134670137E+03  0.27519963326E+03 0.  0.
         25    2    3    3    0    0 -0.16346299845E+02 -0.31104837020E+02 -0.18160374431E+02  0.13096047091E+03  0.12484443654E+03 0.  0.
         25    2    3    3    0    0  0.16346299845E+02  0.31104837020E+02  0.76650785827E+02  0.15038623046E+03  0.12452294142E+03 0.  0.
          5    1    4    4  502    0  0.37419770828E+02 -0.54809730373E+02  0.69381199935E+01  0.66892251430E+02  0.47000000000E+01 0.  1.
         -5    1    4    4    0  502 -0.53766070673E+02  0.23704893354E+02 -0.25098494424E+02  0.64068219477E+02  0.47000000000E+01 0.  1.
          5    1    5    5  503    0 -0.78509232961E+01  0.74522338230E+02  0.64547182526E+02  0.99013355987E+02  0.47000000000E+01 0. -1.
         -5    1    5    5    0  503  0.24197223142E+02 -0.43417501211E+02  0.12103603301E+02  0.51372874477E+02  0.47000000000E+01 0. -1.
<mgrwt>
<rscale>  0 0.27519963E+03</rscale>
<asrwt>0</asrwt>
<pdfrwt beam="1">  1        1 0.26141316E-01 0.27519963E+03</pdfrwt>
<pdfrwt beam="2">  1       -1 0.17142791E-01 0.27519963E+03</pdfrwt>
<totfact> 0.46520751E+03</totfact>
</mgrwt>
</event>
<event>
 9    1  0.8093459E-001  0.2751819E+03  0.7818608E-02  0.1098350E+00
          2   -1    0    0  501    0  0.00000000000E+00  0.00000000000E+00  0.32878638218E+02  0.32878638218E+02  0.00000000000E+00 0.  1.
         -2   -1    0    0    0  501 -0.00000000000E+00 -0.00000000000E+00 -0.57579222028E+03  0.57579222028E+03  0.00000000000E+00 0.  1.
         35    2    1    2    0    0 -0.71054273576E-14  0.00000000000E+00 -0.54291358207E+03  0.60867085850E+03  0.27518186059E+03 0.  0.
         25    2    3    3    0    0  0.23202045391E+02  0.85245373589E+01 -0.36479448228E+03  0.38915398305E+03  0.13324715973E+03 0.  0.
         25    2    3    3    0    0 -0.23202045391E+02 -0.85245373589E+01 -0.17811909979E+03  0.21951687545E+03  0.12589774522E+03 0.  0.
          5    1    4    4  502    0  0.77085508366E+02  0.10641076568E+02 -0.25649501156E+03  0.26808056450E+03  0.47000000000E+01 0.  1.
         -5    1    4    4    0  502 -0.53883462974E+02 -0.21165392094E+01 -0.10829947072E+03  0.12107341855E+03  0.47000000000E+01 0.  1.
          5    1    5    5  503    0 -0.65166545037E+02  0.25061114433E+02 -0.71625172127E+02  0.10013487570E+03  0.47000000000E+01 0. -1.
         -5    1    5    5    0  503  0.41964499645E+02 -0.33585651792E+02 -0.10649392766E+03  0.11938199976E+03  0.47000000000E+01 0. -1.
<mgrwt>
<rscale>  0 0.27518186E+03</rscale>
<asrwt>0</asrwt>
<pdfrwt beam="1">  1        2 0.50582519E-02 0.27518186E+03</pdfrwt>
<pdfrwt beam="2">  1       -2 0.88583420E-01 0.27518186E+03</pdfrwt>
<totfact> 0.17521088E+03</totfact>
</mgrwt>
</event>
<event>
 9    1  0.8093459E-001  0.2758889E+03  0.7818608E-02  0.1097956E+00
          1   -1    0    0  501    0  0.00000000000E+00  0.00000000000E+00  0.92716929184E+03  0.92716929184E+03  0.00000000000E+00 0. -1.
         -1   -1    0    0    0  501 -0.00000000000E+00 -0.00000000000E+00 -0.20523408245E+02  0.20523408245E+02  0.00000000000E+00 0. -1.
         35    2    1    2    0    0  0.00000000000E+00  0.35527136788E-14  0.90664588360E+03  0.94769270009E+03  0.27588891887E+03 0.  0.
         25    2    3    3    0    0 -0.57428900772E+02  0.24893517582E+02  0.39573512399E+03  0.41992493911E+03  0.12574935495E+03 0.  0.
         25    2    3    3    0    0  0.57428900772E+02 -0.24893517582E+02  0.51091075961E+03  0.52776776097E+03  0.11658147099E+03 0.  0.
          5    1    4    4  502    0 -0.46825344776E+01 -0.20020058073E+02  0.32437488494E+01  0.21338715073E+02  0.47000000000E+01 0.  1.
         -5    1    4    4    0  502 -0.52746366294E+02  0.44913575655E+02  0.39249137514E+03  0.39858622404E+03  0.47000000000E+01 0.  1.
          5    1    5    5  503    0 -0.22713068830E+02  0.11587869898E+02  0.26971349281E+03  0.27095686082E+03  0.47000000000E+01 0.  1.
         -5    1    5    5    0  503  0.80141969602E+02 -0.36481387480E+02  0.24119726680E+03  0.25681090015E+03  0.47000000000E+01 0.  1.
<mgrwt>
<rscale>  0 0.27588892E+03</rscale>
<asrwt>0</asrwt>
<pdfrwt beam="1">  1        1 0.14264140E+00 0.27588892E+03</pdfrwt>
<pdfrwt beam="2">  1       -1 0.31574481E-02 0.27588892E+03</pdfrwt>
<totfact> 0.63516161E+03</totfact>
</mgrwt>
</event>
<event>
 9    1  0.8093459E-001  0.2756660E+03  0.7818608E-02  0.1098080E+00
         -2   -1    0    0    0  501 -0.00000000000E+00  0.00000000000E+00  0.16299253336E+03  0.16299253336E+03  0.00000000000E+00 0. -1.
          2   -1    0    0  501    0  0.00000000000E+00 -0.00000000000E+00 -0.11655712429E+03  0.11655712429E+03  0.00000000000E+00 0. -1.
         35    2    1    2    0    0  0.00000000000E+00  0.00000000000E+00  0.46435409069E+02  0.27954965766E+03  0.27566603686E+03 0.  0.
         25    2    3    3    0    0  0.21616442185E+02 -0.51637937073E+02  0.39364784068E+02  0.14269281583E+03  0.12521144655E+03 0.  0.
         25    2    3    3    0    0 -0.21616442185E+02  0.51637937073E+02  0.70706250006E+01  0.13685684182E+03  0.12468381731E+03 0.  0.
          5    1    4    4  502    0 -0.98174853227E+01 -0.48133341914E+02 -0.35828246003E+02  0.60983234036E+02  0.47000000000E+01 0.  1.
         -5    1    4    4    0  502  0.31433927508E+02 -0.35045951593E+01  0.75193030072E+02  0.81709581795E+02  0.47000000000E+01 0.  1.
          5    1    5    5  503    0  0.26370896044E+02 -0.27760547969E+02 -0.14980066501E+02  0.41383143598E+02  0.47000000000E+01 0. -1.
         -5    1    5    5    0  503 -0.47987338228E+02  0.79398485042E+02  0.22050691501E+02  0.95473698226E+02  0.47000000000E+01 0. -1.
<mgrwt>
<rscale>  0 0.27566604E+03</rscale>
<asrwt>0</asrwt>
<pdfrwt beam="1">  1        2 0.17931865E-01 0.27566604E+03</pdfrwt>
<pdfrwt beam="2">  1       -2 0.25075774E-01 0.27566604E+03</pdfrwt>
<totfact> 0.44316360E+03</totfact>
</mgrwt>
</event>
<event>
 9    1  0.8093459E-001  0.2824083E+03  0.7818608E-02  0.1094381E+00
          2   -1    0    0  501    0  0.00000000000E+00  0.00000000000E+00  0.18744222344E+04  0.18744222344E+04  0.00000000000E+00 0.  1.
         -2   -1    0    0    0  501 -0.00000000000E+00 -0.00000000000E+00 -0.10637204209E+02  0.10637204209E+02  0.00000000000E+00 0.  1.
         35    2    1    2    0    0  0.00000000000E+00  0.71054273576E-14  0.18637850302E+04  0.18850594386E+04  0.28240830074E+03 0.  0.
         25    2    3    3    0    0  0.24792569790E+02 -0.20784139308E+02  0.55355833375E+03  0.56850504506E+03  0.12539739004E+03 0.  0.
         25    2    3    3    0    0 -0.24792569790E+02  0.20784139308E+02  0.13102266964E+04  0.13165543935E+04  0.12479913121E+03 0.  0.
          5    1    4    4  502    0 -0.19599398968E+02  0.23403426253E+02  0.41757897718E+03  0.41871965440E+03  0.47000000000E+01 0. -1.
         -5    1    4    4    0  502  0.44391968758E+02 -0.44187565561E+02  0.13597935657E+03  0.14978539066E+03  0.47000000000E+01 0. -1.
          5    1    5    5  503    0 -0.10834268741E+02  0.70056985605E+02  0.54657323630E+03  0.55117125764E+03  0.47000000000E+01 0. -1.
         -5    1    5    5    0  503 -0.13958301049E+02 -0.49272846297E+02  0.76365346011E+03  0.76538313587E+03  0.47000000000E+01 0. -1.
<mgrwt>
<rscale>  0 0.28240830E+03</rscale>
<asrwt>0</asrwt>
<pdfrwt beam="1">  1        2 0.28837239E+00 0.28240830E+03</pdfrwt>
<pdfrwt beam="2">  1       -2 0.16364944E-02 0.28240830E+03</pdfrwt>
<totfact> 0.89846439E+03</totfact>
</mgrwt>
</event>
<event>
 9    1  0.8093459E-001  0.2757448E+03  0.7818608E-02  0.1098036E+00
         -2   -1    0    0    0  501 -0.00000000000E+00  0.00000000000E+00  0.83875884528E+01  0.83875884528E+01  0.00000000000E+00 0. -1.
          2   -1    0    0  501    0  0.00000000000E+00 -0.00000000000E+00 -0.22663009202E+04  0.22663009202E+04  0.00000000000E+00 0. -1.
         35    2    1    2    0    0 -0.35527136788E-14  0.00000000000E+00 -0.22579133317E+04  0.22746885086E+04  0.27574480542E+03 0.  0.
         25    2    3    3    0    0  0.70137372741E+01 -0.14964120958E+02 -0.15873158602E+04  0.15922608332E+04  0.12429723894E+03 0.  0.
         25    2    3    3    0    0 -0.70137372741E+01  0.14964120958E+02 -0.67059747151E+03  0.68242767538E+03  0.12543303350E+03 0.  0.
          5    1    4    4  502    0 -0.10048797052E+02  0.21855022296E+02 -0.14133612085E+04  0.14135737038E+04  0.47000000000E+01 0.  1.
         -5    1    4    4    0  502  0.17062534326E+02 -0.36819143254E+02 -0.17395465167E+03  0.17868712943E+03  0.47000000000E+01 0.  1.
          5    1    5    5  503    0 -0.53682975691E+02 -0.18391189425E+02 -0.18865713033E+03  0.19706268178E+03  0.47000000000E+01 0.  1.
         -5    1    5    5    0  503  0.46669238417E+02  0.33355310383E+02 -0.48194034118E+03  0.48536499359E+03  0.47000000000E+01 0.  1.
<mgrwt>
<rscale>  0 0.27574481E+03</rscale>
<asrwt>0</asrwt>
<pdfrwt beam="1">  1        2 0.34866221E+00 0.27574481E+03</pdfrwt>
<pdfrwt beam="2">  1       -2 0.12903963E-02 0.27574481E+03</pdfrwt>
<totfact> 0.78918323E+03</totfact>
</mgrwt>
</event>
<event>
 9    1  0.8093459E-001  0.2720901E+03  0.7818608E-02  0.1100089E+00
         -2   -1    0    0    0  501 -0.00000000000E+00  0.00000000000E+00  0.37004999770E+01  0.37004999770E+01  0.00000000000E+00 0.  1.
          2   -1    0    0  501    0  0.00000000000E+00 -0.00000000000E+00 -0.50015560503E+04  0.50015560503E+04  0.00000000000E+00 0.  1.
         35    2    1    2    0    0  0.00000000000E+00  0.35527136788E-14 -0.49978555503E+04  0.50052565502E+04  0.27209011778E+03 0.  0.
         25    2    3    3    0    0 -0.36114582481E+02 -0.24387316900E+02 -0.30692457870E+04  0.30720794194E+04  0.12451206368E+03 0.  0.
         25    2    3    3    0    0  0.36114582481E+02  0.24387316900E+02 -0.19286097633E+04  0.19331771308E+04  0.12545595137E+03 0.  0.
          5    1    4    4  502    0 -0.57947391847E+02 -0.27482570586E+02 -0.75777480156E+03  0.76049847586E+03  0.47000000000E+01 0. -1.
         -5    1    4    4    0  502  0.21832809365E+02  0.30952536861E+01 -0.23114709854E+04  0.23115809435E+04  0.47000000000E+01 0. -1.
          5    1    5    5  503    0  0.82762451061E+02  0.93004022293E+01 -0.11690250993E+04  0.11719973949E+04  0.47000000000E+01 0.  1.
         -5    1    5    5    0  503 -0.46647868579E+02  0.15086914670E+02 -0.75958466404E+03  0.76117973599E+03  0.47000000000E+01 0.  1.
<mgrwt>
<rscale>  0 0.27209012E+03</rscale>
<asrwt>0</asrwt>
<pdfrwt beam="1">  1        2 0.76946954E+00 0.27209012E+03</pdfrwt>
<pdfrwt beam="2">  1       -2 0.56930815E-03 0.27209012E+03</pdfrwt>
<totfact> 0.24311202E+02</totfact>
</mgrwt>
</event>
<event>
 9    1  0.8093459E-001  0.2749853E+03  0.7818608E-02  0.1098460E+00
         -1   -1    0    0    0  501 -0.00000000000E+00  0.00000000000E+00  0.24588953939E+02  0.24588953939E+02  0.00000000000E+00 0.  1.
          1   -1    0    0  501    0  0.00000000000E+00 -0.00000000000E+00 -0.76880963211E+03  0.76880963211E+03  0.00000000000E+00 0.  1.
         35    2    1    2    0    0  0.00000000000E+00  0.00000000000E+00 -0.74422067817E+03  0.79339858605E+03  0.27498526965E+03 0.  0.
         25    2    3    3    0    0 -0.53405269630E+02  0.10279447275E+02 -0.32441703636E+03  0.35204027384E+03  0.12541192551E+03 0.  0.
         25    2    3    3    0    0  0.53405269630E+02 -0.10279447275E+02 -0.41980364181E+03  0.44135831222E+03  0.12491706137E+03 0.  0.
          5    1    4    4  502    0 -0.32974331048E+02  0.13694213292E+02 -0.10649351942E+02  0.37554449571E+02  0.47000000000E+01 0.  1.
         -5    1    4    4    0  502 -0.20430938581E+02 -0.34147660173E+01 -0.31376768442E+03  0.31448582427E+03  0.47000000000E+01 0.  1.
          5    1    5    5  503    0  0.75301777564E+02 -0.46933116043E+02 -0.33089402904E+03  0.34261643793E+03  0.47000000000E+01 0. -1.
         -5    1    5    5    0  503 -0.21896507934E+02  0.36653668768E+02 -0.88909612777E+02  0.98741874289E+02  0.47000000000E+01 0. -1.
<mgrwt>
<rscale>  0 0.27498527E+03</rscale>
<asrwt>0</asrwt>
<pdfrwt beam="1">  1        1 0.11827840E+00 0.27498527E+03</pdfrwt>
<pdfrwt beam="2">  1       -1 0.37829163E-02 0.27498527E+03</pdfrwt>
<totfact> 0.65330975E+03</totfact>
</mgrwt>
</event>
<event>
 9    1  0.8093459E-001  0.2767362E+03  0.7818608E-02  0.1097485E+00
         -1   -1    0    0    0  501 -0.00000000000E+00  0.00000000000E+00  0.29867997456E+02  0.29867997456E+02  0.00000000000E+00 0. -1.
          1   -1    0    0  501    0  0.00000000000E+00 -0.00000000000E+00 -0.64101162518E+03  0.64101162518E+03  0.00000000000E+00 0. -1.
         35    2    1    2    0    0 -0.71054273576E-14  0.35527136788E-14 -0.61114362773E+03  0.67087962264E+03  0.27673621801E+03 0.  0.
         25    2    3    3    0    0 -0.50803615329E+02  0.25570408222E+02 -0.28788532676E+03  0.31957256181E+03  0.12654567473E+03 0.  0.
         25    2    3    3    0    0  0.50803615329E+02 -0.25570408222E+02 -0.32325830097E+03  0.35130706083E+03  0.12524323828E+03 0.  0.
          5    1    4    4  502    0 -0.65845346541E+02  0.61726184643E+02 -0.14094890857E+03  0.16743481226E+03  0.47000000000E+01 0. -1.
         -5    1    4    4    0  502  0.15041731212E+02 -0.36155776422E+02 -0.14693641819E+03  0.15213774955E+03  0.47000000000E+01 0. -1.
          5    1    5    5  503    0 -0.11700924189E+02 -0.55654364114E+02 -0.21658278116E+03  0.22397435336E+03  0.47000000000E+01 0. -1.
         -5    1    5    5    0  503  0.62504539518E+02  0.30083955892E+02 -0.10667551981E+03  0.12733270746E+03  0.47000000000E+01 0. -1.
<mgrwt>
<rscale>  0 0.27673622E+03</rscale>
<asrwt>0</asrwt>
<pdfrwt beam="1">  1        1 0.98617169E-01 0.27673622E+03</pdfrwt>
<pdfrwt beam="2">  1       -1 0.45950767E-02 0.27673622E+03</pdfrwt>
<totfact> 0.63806587E+03</totfact>
</mgrwt>
</event>
<event>
 9    1  0.8093459E-001  0.2763638E+03  0.7818608E-02  0.1097692E+00
         -1   -1    0    0    0  501 -0.00000000000E+00  0.00000000000E+00  0.35064458394E+02  0.35064458394E+02  0.00000000000E+00 0. -1.
          1   -1    0    0  501    0  0.00000000000E+00 -0.00000000000E+00 -0.54454659029E+03  0.54454659029E+03  0.00000000000E+00 0. -1.
         35    2    1    2    0    0 -0.53290705182E-14  0.35527136788E-14 -0.50948213189E+03  0.57961104868E+03  0.27636375492E+03 0.  0.
         25    2    3    3    0    0  0.26946078763E+01  0.24582690822E+02 -0.36460620024E+03  0.38660075650E+03  0.12613839253E+03 0.  0.
         25    2    3    3    0    0 -0.26946078763E+01 -0.24582690822E+02 -0.14487593165E+03  0.19301029218E+03  0.12510942297E+03 0.  0.
          5    1    4    4  502    0  0.46565174937E+01  0.45437079297E+02 -0.36208636907E+03  0.36498608192E+03  0.47000000000E+01 0.  1.
         -5    1    4    4    0  502 -0.19619096174E+01 -0.20854388475E+02 -0.25198311747E+01  0.21614674579E+02  0.47000000000E+01 0.  1.
          5    1    5    5  503    0  0.56449039406E+02 -0.34212355763E+02 -0.89309503790E+02  0.11115420282E+03  0.47000000000E+01 0. -1.
         -5    1    5    5    0  503 -0.59143647283E+02  0.96296649411E+01 -0.55566427859E+02  0.81856089363E+02  0.47000000000E+01 0. -1.
<mgrwt>
<rscale>  0 0.27636375E+03</rscale>
<asrwt>0</asrwt>
<pdfrwt beam="1">  1        1 0.83776388E-01 0.27636375E+03</pdfrwt>
<pdfrwt beam="2">  1       -1 0.53945327E-02 0.27636375E+03</pdfrwt>
<totfact> 0.62879768E+03</totfact>
</mgrwt>
</event>
<event>
 9    1  0.8093459E-001  0.2754762E+03  0.7818608E-02  0.1098186E+00
          2   -1    0    0  501    0  0.00000000000E+00  0.00000000000E+00  0.15669482771E+04  0.15669482771E+04  0.00000000000E+00 0.  1.
         -2   -1    0    0    0  501 -0.00000000000E+00 -0.00000000000E+00 -0.12107469111E+02  0.12107469111E+02  0.00000000000E+00 0.  1.
         35    2    1    2    0    0 -0.35527136788E-14  0.71054273576E-14  0.15548408079E+04  0.15790557462E+04  0.27547615406E+03 0.  0.
         25    2    3    3    0    0  0.29443683389E+02 -0.17883211519E+02  0.49561515439E+03  0.51194340744E+03  0.12355133111E+03 0.  0.
         25    2    3    3    0    0 -0.29443683389E+02  0.17883211519E+02  0.10592256536E+04  0.10671123387E+04  0.12483196129E+03 0.  0.
          5    1    4    4  502    0 -0.20068830585E+02 -0.19286597371E+02  0.42286656648E+03  0.42380768498E+03  0.47000000000E+01 0. -1.
         -5    1    4    4    0  502  0.49512513974E+02  0.14033858518E+01  0.72748587906E+02  0.88135722464E+02  0.47000000000E+01 0. -1.
          5    1    5    5  503    0 -0.22895940099E+02 -0.46086572485E+02  0.71742880259E+03  0.71928740641E+03  0.47000000000E+01 0. -1.
         -5    1    5    5    0  503 -0.65477432904E+01  0.63969784004E+02  0.34179685097E+03  0.34782493232E+03  0.47000000000E+01 0. -1.
<mgrwt>
<rscale>  0 0.27547615E+03</rscale>
<asrwt>0</asrwt>
<pdfrwt beam="1">  1        2 0.24106881E+00 0.27547615E+03</pdfrwt>
<pdfrwt beam="2">  1       -2 0.18626888E-02 0.27547615E+03</pdfrwt>
<totfact> 0.10787119E+04</totfact>
</mgrwt>
</event>
<event>
 9    1  0.8093459E-001  0.2732580E+03  0.7818608E-02  0.1099429E+00
          1   -1    0    0  501    0  0.00000000000E+00  0.00000000000E+00  0.41735660398E+03  0.41735660398E+03  0.00000000000E+00 0.  1.
         -1   -1    0    0    0  501 -0.00000000000E+00 -0.00000000000E+00 -0.44727883428E+02  0.44727883428E+02  0.00000000000E+00 0.  1.
         35    2    1    2    0    0 -0.35527136788E-14 -0.35527136788E-14  0.37262872055E+03  0.46208448740E+03  0.27325795528E+03 0.  0.
         25    2    3    3    0    0  0.22871555188E+02  0.27195157289E+02  0.11802663329E+03  0.17608814527E+03  0.12575398253E+03 0.  0.
         25    2    3    3    0    0 -0.22871555188E+02 -0.27195157289E+02  0.25460208725E+03  0.28599634213E+03  0.12533555067E+03 0.  0.
          5    1    4    4  502    0  0.40883393745E+02 -0.84124521170E+01 -0.89150101248E+01  0.42939360035E+02  0.47000000000E+01 0.  1.
         -5    1    4    4    0  502 -0.18011838557E+02  0.35607609406E+02  0.12694164342E+03  0.13314878523E+03  0.47000000000E+01 0.  1.
          5    1    5    5  503    0  0.16011268595E+02  0.41971741751E+02  0.13530091979E+03  0.14264086625E+03  0.47000000000E+01 0. -1.
         -5    1    5    5    0  503 -0.38882823782E+02 -0.69166899040E+02  0.11930116746E+03  0.14335547588E+03  0.47000000000E+01 0. -1.
<mgrwt>
<rscale>  0 0.27325796E+03</rscale>
<asrwt>0</asrwt>
<pdfrwt beam="1">  1        1 0.64208706E-01 0.27325796E+03</pdfrwt>
<pdfrwt beam="2">  1       -1 0.68812131E-02 0.27325796E+03</pdfrwt>
<totfact> 0.61815333E+03</totfact>
</mgrwt>
</event>
<event>
 9    1  0.8093459E-001  0.2738331E+03  0.7818608E-02  0.1099106E+00
         -2   -1    0    0    0  501 -0.00000000000E+00  0.00000000000E+00  0.15143879736E+02  0.15143879736E+02  0.00000000000E+00 0. -1.
          2   -1    0    0  501    0  0.00000000000E+00 -0.00000000000E+00 -0.12378692190E+04  0.12378692190E+04  0.00000000000E+00 0. -1.
         35    2    1    2    0    0  0.14210854715E-13 -0.71054273576E-14 -0.12227253392E+04  0.12530130987E+04  0.27383310670E+03 0.  0.
         25    2    3    3    0    0 -0.48332312381E+02  0.28514769289E+02 -0.56235388787E+03  0.57865571147E+03  0.12430379210E+03 0.  0.
         25    2    3    3    0    0  0.48332312381E+02 -0.28514769289E+02 -0.66037145137E+03  0.67435738724E+03  0.12457257905E+03 0.  0.
          5    1    4    4  502    0 -0.54101227719E+02  0.33343960526E+02 -0.56562321677E+03  0.56920161270E+03  0.47000000000E+01 0. -1.
         -5    1    4    4    0  502  0.57689153383E+01 -0.48291912371E+01  0.32693289037E+01  0.94540987759E+01  0.47000000000E+01 0. -1.
          5    1    5    5  503    0 -0.15660193936E+01  0.29156822725E+02 -0.44230453503E+03  0.44329218856E+03  0.47000000000E+01 0.  1.
         -5    1    5    5    0  503  0.49898331775E+02 -0.57671592014E+02 -0.21806691634E+03  0.23106519868E+03  0.47000000000E+01 0.  1.
<mgrwt>
<rscale>  0 0.27383311E+03</rscale>
<asrwt>0</asrwt>
<pdfrwt beam="1">  1        2 0.19044137E+00 0.27383311E+03</pdfrwt>
<pdfrwt beam="2">  1       -2 0.23298283E-02 0.27383311E+03</pdfrwt>
<totfact> 0.11716155E+04</totfact>
</mgrwt>
</event>
<event>
 9    1  0.8093459E-001  0.2793293E+03  0.7818608E-02  0.1096056E+00
          2   -1    0    0  501    0  0.00000000000E+00  0.00000000000E+00  0.50611354042E+03  0.50611354042E+03  0.00000000000E+00 0. -1.
         -2   -1    0    0    0  501 -0.00000000000E+00 -0.00000000000E+00 -0.38541180034E+02  0.38541180034E+02  0.00000000000E+00 0. -1.
         35    2    1    2    0    0  0.14210854715E-13  0.00000000000E+00  0.46757236039E+03  0.54465472046E+03  0.27932929011E+03 0.  0.
         25    2    3    3    0    0 -0.50455115660E+02  0.35157069476E+02  0.22710286499E+03  0.26682255436E+03  0.12584445161E+03 0.  0.
         25    2    3    3    0    0  0.50455115660E+02 -0.35157069476E+02  0.24046949540E+03  0.27783216610E+03  0.12483347334E+03 0.  0.
          5    1    4    4  502    0  0.22341827787E+02 -0.31399629995E+02  0.43175297913E+02  0.58062814112E+02  0.47000000000E+01 0.  1.
         -5    1    4    4    0  502 -0.72796943447E+02  0.66556699472E+02  0.18392756707E+03  0.20875974025E+03  0.47000000000E+01 0.  1.
          5    1    5    5  503    0 -0.10289972712E+02 -0.31417174947E+02  0.40227288625E+01  0.33633239029E+02  0.47000000000E+01 0. -1.
         -5    1    5    5    0  503  0.60745088372E+02 -0.37398945290E+01  0.23644676654E+03  0.24419892707E+03  0.47000000000E+01 0. -1.
<mgrwt>
<rscale>  0 0.27932929E+03</rscale>
<asrwt>0</asrwt>
<pdfrwt beam="1">  1        2 0.77863617E-01 0.27932929E+03</pdfrwt>
<pdfrwt beam="2">  1       -2 0.59294127E-02 0.27932929E+03</pdfrwt>
<totfact> 0.92100879E+03</totfact>
</mgrwt>
</event>
<event>
 9    1  0.8093459E-001  0.2760128E+03  0.7818608E-02  0.1097887E+00
         -1   -1    0    0    0  501 -0.00000000000E+00  0.00000000000E+00  0.75717850316E+02  0.75717850316E+02  0.00000000000E+00 0.  1.
          1   -1    0    0  501    0  0.00000000000E+00 -0.00000000000E+00 -0.25153606274E+03  0.25153606274E+03  0.00000000000E+00 0.  1.
         35    2    1    2    0    0  0.00000000000E+00 -0.71054273576E-14 -0.17581821242E+03  0.32725391306E+03  0.27601282541E+03 0.  0.
         25    2    3    3    0    0  0.30565069158E+02 -0.43125242654E+02 -0.58427042329E+02  0.14838229483E+03  0.12573613696E+03 0.  0.
         25    2    3    3    0    0 -0.30565069158E+02  0.43125242654E+02 -0.11739117009E+03  0.17887161822E+03  0.12417873805E+03 0.  0.
          5    1    4    4  502    0 -0.36806411728E+02 -0.15291333745E+01  0.15230579238E+02  0.40138643937E+02  0.47000000000E+01 0. -1.
         -5    1    4    4    0  502  0.67371480886E+02 -0.41596109279E+02 -0.73657621567E+02  0.10824365089E+03  0.47000000000E+01 0. -1.
          5    1    5    5  503    0 -0.29142304653E+02  0.28471489711E+02  0.16415562328E+02  0.44175336257E+02  0.47000000000E+01 0. -1.
         -5    1    5    5    0  503 -0.14227645053E+01  0.14653752942E+02 -0.13380673242E+03  0.13469628197E+03  0.47000000000E+01 0. -1.
<mgrwt>
<rscale>  0 0.27601283E+03</rscale>
<asrwt>0</asrwt>
<pdfrwt beam="1">  1        1 0.38697856E-01 0.27601283E+03</pdfrwt>
<pdfrwt beam="2">  1       -1 0.11648900E-01 0.27601283E+03</pdfrwt>
<totfact> 0.52253246E+03</totfact>
</mgrwt>
</event>
<event>
 9    1  0.8093459E-001  0.2808725E+03  0.7818608E-02  0.1095213E+00
         -2   -1    0    0    0  501 -0.00000000000E+00  0.00000000000E+00  0.28873750297E+02  0.28873750297E+02  0.00000000000E+00 0. -1.
          2   -1    0    0  501    0  0.00000000000E+00 -0.00000000000E+00 -0.68305439046E+03  0.68305439046E+03  0.00000000000E+00 0. -1.
         35    2    1    2    0    0  0.00000000000E+00  0.00000000000E+00 -0.65418064016E+03  0.71192814076E+03  0.28087251136E+03 0.  0.
         25    2    3    3    0    0  0.52903514072E+02  0.32993315950E+02 -0.29184459029E+03  0.32354600068E+03  0.12498563508E+03 0.  0.
         25    2    3    3    0    0 -0.52903514072E+02 -0.32993315950E+02 -0.36233604987E+03  0.38838214008E+03  0.12516362489E+03 0.  0.
          5    1    4    4  502    0 -0.30999049966E+01 -0.42787059989E+02 -0.11971475184E+03  0.12725585928E+03  0.47000000000E+01 0. -1.
         -5    1    4    4    0  502  0.56003419069E+02  0.75780375939E+02 -0.17212983845E+03  0.19629014140E+03  0.47000000000E+01 0. -1.
          5    1    5    5  503    0 -0.92480924064E+02 -0.19408269182E+02 -0.20991038132E+03  0.23024738959E+03  0.47000000000E+01 0.  1.
         -5    1    5    5    0  503  0.39577409992E+02 -0.13585046768E+02 -0.15242566855E+03  0.15813475048E+03  0.47000000000E+01 0.  1.
<mgrwt>
<rscale>  0 0.28087251E+03</rscale>
<asrwt>0</asrwt>
<pdfrwt beam="1">  1        2 0.10508529E+00 0.28087251E+03</pdfrwt>
<pdfrwt beam="2">  1       -2 0.44421154E-02 0.28087251E+03</pdfrwt>
<totfact> 0.10101888E+04</totfact>
</mgrwt>
</event>
<event>
 9    1  0.8093459E-001  0.2734779E+03  0.7818608E-02  0.1099305E+00
          1   -1    0    0  501    0  0.00000000000E+00  0.00000000000E+00  0.22961000708E+04  0.22961000708E+04  0.00000000000E+00 0. -1.
         -1   -1    0    0    0  501 -0.00000000000E+00 -0.00000000000E+00 -0.81431718244E+01  0.81431718244E+01  0.00000000000E+00 0. -1.
         35    2    1    2    0    0  0.35527136788E-14 -0.21316282073E-13  0.22879568990E+04  0.23042432427E+04  0.27347787774E+03 0.  0.
         25    2    3    3    0    0  0.15792542779E+02 -0.55835687103E+02  0.12467903303E+04  0.12541574394E+04  0.12270992980E+03 0.  0.
         25    2    3    3    0    0 -0.15792542779E+02  0.55835687103E+02  0.10411665687E+04  0.10500858032E+04  0.12363390276E+03 0.  0.
          5    1    4    4  502    0  0.14602827492E+02  0.90211416068E+01  0.25274353738E+02  0.30911268552E+02  0.47000000000E+01 0. -1.
         -5    1    4    4    0  502  0.11897152872E+01 -0.64856828710E+02  0.12215159765E+04  0.12232461709E+04  0.47000000000E+01 0. -1.
          5    1    5    5  503    0  0.41707314228E+02  0.65105908251E+02  0.54094452168E+03  0.54646257410E+03  0.47000000000E+01 0.  1.
         -5    1    5    5    0  503 -0.57499857007E+02 -0.92702211479E+01  0.50022204705E+03  0.50362322912E+03  0.47000000000E+01 0.  1.
<mgrwt>
<rscale>  0 0.27347788E+03</rscale>
<asrwt>0</asrwt>
<pdfrwt beam="1">  1        1 0.35324565E+00 0.27347788E+03</pdfrwt>
<pdfrwt beam="2">  1       -1 0.12527975E-02 0.27347788E+03</pdfrwt>
<totfact> 0.29332870E+03</totfact>
</mgrwt>
</event>
<event>
 9    1  0.8093459E-001  0.2749325E+03  0.7818608E-02  0.1098489E+00
         -2   -1    0    0    0  501 -0.00000000000E+00  0.00000000000E+00  0.11836009614E+03  0.11836009614E+03  0.00000000000E+00 0.  1.
          2   -1    0    0  501    0  0.00000000000E+00 -0.00000000000E+00 -0.15965660329E+03  0.15965660329E+03  0.00000000000E+00 0.  1.
         35    2    1    2    0    0  0.00000000000E+00  0.14210854715E-13 -0.41296507152E+02  0.27801669944E+03  0.27493250747E+03 0.  0.
         25    2    3    3    0    0  0.32611486058E+02 -0.43385785768E+02 -0.42638089710E+02  0.14320731541E+03  0.12547706190E+03 0.  0.
         25    2    3    3    0    0 -0.32611486058E+02  0.43385785768E+02  0.13415825577E+01  0.13480938403E+03  0.12339341453E+03 0.  0.
          5    1    4    4  502    0  0.99353547249E+01 -0.85414301841E+02 -0.40518007323E+02  0.95174120169E+02  0.47000000000E+01 0. -1.
         -5    1    4    4    0  502  0.22676131333E+02  0.42028516074E+02 -0.21200823862E+01  0.48033195239E+02  0.47000000000E+01 0. -1.
          5    1    5    5  503    0 -0.34483479644E+02  0.72437023790E+02 -0.35300712729E+02  0.87775071080E+02  0.47000000000E+01 0. -1.
         -5    1    5    5    0  503  0.18719935861E+01 -0.29051238022E+02  0.36642295287E+02  0.47034312948E+02  0.47000000000E+01 0. -1.
<mgrwt>
<rscale>  0 0.27493251E+03</rscale>
<asrwt>0</asrwt>
<pdfrwt beam="1">  1        2 0.24562554E-01 0.27493251E+03</pdfrwt>
<pdfrwt beam="2">  1       -2 0.18209246E-01 0.27493251E+03</pdfrwt>
<totfact> 0.53796455E+03</totfact>
</mgrwt>
</event>
<event>
 9    1  0.8093459E-001  0.2759119E+03  0.7818608E-02  0.1097943E+00
         -1   -1    0    0    0  501 -0.00000000000E+00  0.00000000000E+00  0.69096572609E+02  0.69096572609E+02  0.00000000000E+00 0. -1.
          1   -1    0    0  501    0  0.00000000000E+00 -0.00000000000E+00 -0.27543836344E+03  0.27543836344E+03  0.00000000000E+00 0. -1.
         35    2    1    2    0    0  0.00000000000E+00  0.35527136788E-14 -0.20634179084E+03  0.34453493605E+03  0.27591191985E+03 0.  0.
         25    2    3    3    0    0  0.33093934778E+02 -0.29173741702E+01 -0.41831599839E+02  0.13500640361E+03  0.12398841349E+03 0.  0.
         25    2    3    3    0    0 -0.33093934778E+02  0.29173741702E+01 -0.16451019100E+03  0.20952853244E+03  0.12543876345E+03 0.  0.
          5    1    4    4  502    0 -0.22138341920E+02  0.42788103511E+02 -0.40557802745E+02  0.63150244248E+02  0.47000000000E+01 0. -1.
         -5    1    4    4    0  502  0.55232276698E+02 -0.45705477681E+02 -0.12737970936E+01  0.71856159362E+02  0.47000000000E+01 0. -1.
          5    1    5    5  503    0 -0.34818187615E+02 -0.25475435528E+02 -0.17387954173E+03  0.17921352917E+03  0.47000000000E+01 0.  1.
         -5    1    5    5    0  503  0.17242528371E+01  0.28392809698E+02  0.93693507349E+01  0.30315003275E+02  0.47000000000E+01 0.  1.
<mgrwt>
<rscale>  0 0.27591192E+03</rscale>
<asrwt>0</asrwt>
<pdfrwt beam="1">  1        1 0.42375133E-01 0.27591192E+03</pdfrwt>
<pdfrwt beam="2">  1       -1 0.10630242E-01 0.27591192E+03</pdfrwt>
<totfact> 0.53757658E+03</totfact>
</mgrwt>
</event>
<event>
 9    1  0.8093459E-001  0.2756599E+03  0.7818608E-02  0.1098083E+00
         -1   -1    0    0    0  501 -0.00000000000E+00  0.00000000000E+00  0.66612888982E+03  0.66612888982E+03  0.00000000000E+00 0.  1.
          1   -1    0    0  501    0  0.00000000000E+00 -0.00000000000E+00 -0.28518641229E+02  0.28518641229E+02  0.00000000000E+00 0.  1.
         35    2    1    2    0    0 -0.71054273576E-14  0.00000000000E+00  0.63761024859E+03  0.69464753105E+03  0.27565986883E+03 0.  0.
         25    2    3    3    0    0 -0.28476534373E+02 -0.42521818288E+02  0.38239152162E+03  0.40555210390E+03  0.12502085877E+03 0.  0.
         25    2    3    3    0    0  0.28476534373E+02  0.42521818288E+02  0.25521872697E+03  0.28909542716E+03  0.12577976532E+03 0.  0.
          5    1    4    4  502    0 -0.28227219568E+02 -0.66375317322E+02  0.37225967779E+03  0.37921209946E+03  0.47000000000E+01 0.  1.
         -5    1    4    4    0  502 -0.24931480496E+00  0.23853499034E+02  0.10131843835E+02  0.26340004433E+02  0.47000000000E+01 0.  1.
          5    1    5    5  503    0 -0.12475303731E+02  0.66495777430E+02  0.68536718819E+02  0.96419362400E+02  0.47000000000E+01 0. -1.
         -5    1    5    5    0  503  0.40951838104E+02 -0.23973959142E+02  0.18668200815E+03  0.19267606476E+03  0.47000000000E+01 0. -1.
<mgrwt>
<rscale>  0 0.27565987E+03</rscale>
<asrwt>0</asrwt>
<pdfrwt beam="1">  1        1 0.43874837E-02 0.27565987E+03</pdfrwt>
<pdfrwt beam="2">  1       -1 0.10248136E+00 0.27565987E+03</pdfrwt>
<totfact> 0.19037834E+03</totfact>
</mgrwt>
</event>
<event>
 9    1  0.8093459E-001  0.2757695E+03  0.7818608E-02  0.1098022E+00
          2   -1    0    0  501    0  0.00000000000E+00  0.00000000000E+00  0.21121955275E+03  0.21121955275E+03  0.00000000000E+00 0.  1.
         -2   -1    0    0    0  501 -0.00000000000E+00 -0.00000000000E+00 -0.90011601612E+02  0.90011601612E+02  0.00000000000E+00 0.  1.
         35    2    1    2    0    0  0.71054273576E-14  0.00000000000E+00  0.12120795113E+03  0.30123115436E+03  0.27576954317E+03 0.  0.
         25    2    3    3    0    0 -0.47609817920E+02  0.31984304654E+02  0.48666663434E+02  0.14594720570E+03  0.12506978937E+03 0.  0.
         25    2    3    3    0    0  0.47609817920E+02 -0.31984304654E+02  0.72541287699E+02  0.15528394866E+03  0.12474444190E+03 0.  0.
          5    1    4    4  502    0 -0.38240427620E+01  0.56907942559E+02  0.70527371878E+02  0.90825863130E+02  0.47000000000E+01 0. -1.
         -5    1    4    4    0  502 -0.43785775158E+02 -0.24923637905E+02 -0.21860708444E+02  0.55121342566E+02  0.47000000000E+01 0. -1.
          5    1    5    5  503    0  0.42755486468E+02 -0.78754102506E+02  0.42522126785E+02  0.99299856752E+02  0.47000000000E+01 0.  1.
         -5    1    5    5    0  503  0.48543314519E+01  0.46769797852E+02  0.30019160914E+02  0.55984091910E+02  0.47000000000E+01 0.  1.
<mgrwt>
<rscale>  0 0.27576954E+03</rscale>
<asrwt>0</asrwt>
<pdfrwt beam="1">  1        2 0.32495316E-01 0.27576954E+03</pdfrwt>
<pdfrwt beam="2">  1       -2 0.13847939E-01 0.27576954E+03</pdfrwt>
<totfact> 0.62278340E+03</totfact>
</mgrwt>
</event>
<event>
 9    1  0.8093459E-001  0.2703422E+03  0.7818608E-02  0.1101084E+00
         -1   -1    0    0    0  501 -0.00000000000E+00  0.00000000000E+00  0.13885825150E+04  0.13885825150E+04  0.00000000000E+00 0.  1.
          1   -1    0    0  501    0  0.00000000000E+00 -0.00000000000E+00 -0.13158188939E+02  0.13158188939E+02  0.00000000000E+00 0.  1.
         35    2    1    2    0    0  0.00000000000E+00  0.00000000000E+00  0.13754243261E+04  0.14017407040E+04  0.27034223563E+03 0.  0.
         25    2    3    3    0    0 -0.38457023083E+02  0.33760427409E+02  0.71118346920E+03  0.72386926081E+03  0.12484418607E+03 0.  0.
         25    2    3    3    0    0  0.38457023083E+02 -0.33760427409E+02  0.66424085688E+03  0.67787144315E+03  0.12520011345E+03 0.  0.
          5    1    4    4  502    0 -0.25449384719E+02  0.64737447557E+02  0.65148667960E+03  0.65520652622E+03  0.47000000000E+01 0. -1.
         -5    1    4    4    0  502 -0.13007638363E+02 -0.30977020148E+02  0.59696789598E+02  0.68662734590E+02  0.47000000000E+01 0. -1.
          5    1    5    5  503    0  0.63500797458E+02 -0.67456206393E+02  0.47493011576E+03  0.48390432517E+03  0.47000000000E+01 0.  1.
         -5    1    5    5    0  503 -0.25043774376E+02  0.33695778984E+02  0.18931074112E+03  0.19396711798E+03  0.47000000000E+01 0.  1.
<mgrwt>
<rscale>  0 0.27034224E+03</rscale>
<asrwt>0</asrwt>
<pdfrwt beam="1">  1        1 0.20243379E-02 0.27034224E+03</pdfrwt>
<pdfrwt beam="2">  1       -1 0.21362796E+00 0.27034224E+03</pdfrwt>
<totfact> 0.80665850E+02</totfact>
</mgrwt>
</event>
<event>
 9    1  0.8093459E-001  0.2742846E+03  0.7818608E-02  0.1098852E+00
         -2   -1    0    0    0  501 -0.00000000000E+00  0.00000000000E+00  0.28551805290E+02  0.28551805290E+02  0.00000000000E+00 0. -1.
          2   -1    0    0  501    0  0.00000000000E+00 -0.00000000000E+00 -0.65873259240E+03  0.65873259240E+03  0.00000000000E+00 0. -1.
         35    2    1    2    0    0  0.00000000000E+00  0.71054273576E-14 -0.63018078711E+03  0.68728439769E+03  0.27428455820E+03 0.  0.
         25    2    3    3    0    0 -0.32452801004E+02  0.44675755827E+02 -0.34994788281E+03  0.37565070867E+03  0.12490326973E+03 0.  0.
         25    2    3    3    0    0  0.32452801004E+02 -0.44675755827E+02 -0.28023290430E+03  0.31163368902E+03  0.12464336336E+03 0.  0.
          5    1    4    4  502    0 -0.30289051621E+02  0.10378211822E+02 -0.99041401546E+01  0.33842516469E+02  0.47000000000E+01 0.  1.
         -5    1    4    4    0  502 -0.21637493826E+01  0.34297544005E+02 -0.34004374265E+03  0.34180819220E+03  0.47000000000E+01 0.  1.
          5    1    5    5  503    0  0.33097899143E+02  0.34866615229E+02 -0.16205841321E+03  0.16910402443E+03  0.47000000000E+01 0. -1.
         -5    1    5    5    0  503 -0.64509813919E+00 -0.79542371056E+02 -0.11817449108E+03  0.14252966459E+03  0.47000000000E+01 0. -1.
<mgrwt>
<rscale>  0 0.27428456E+03</rscale>
<asrwt>0</asrwt>
<pdfrwt beam="1">  1        2 0.10134347E+00 0.27428456E+03</pdfrwt>
<pdfrwt beam="2">  1       -2 0.43925855E-02 0.27428456E+03</pdfrwt>
<totfact> 0.10721440E+04</totfact>
</mgrwt>
</event>
<event>
 9    1  0.8093459E-001  0.2760600E+03  0.7818608E-02  0.1097861E+00
         -2   -1    0    0    0  501 -0.00000000000E+00  0.00000000000E+00  0.35359736426E+02  0.35359736426E+02  0.00000000000E+00 0.  1.
          2   -1    0    0  501    0  0.00000000000E+00 -0.00000000000E+00 -0.53881281556E+03  0.53881281556E+03  0.00000000000E+00 0.  1.
         35    2    1    2    0    0  0.35527136788E-14  0.71054273576E-14 -0.50345307913E+03  0.57417255198E+03  0.27605998725E+03 0.  0.
         25    2    3    3    0    0 -0.29750223040E+02 -0.33003316857E+02 -0.17820747667E+03  0.22274569345E+03  0.12602953826E+03 0.  0.
         25    2    3    3    0    0  0.29750223040E+02  0.33003316857E+02 -0.32524560246E+03  0.35142685854E+03  0.12546649069E+03 0.  0.
          5    1    4    4  502    0 -0.99183302749E+01 -0.66901832044E+02 -0.16906101880E+03  0.18214814433E+03  0.47000000000E+01 0. -1.
         -5    1    4    4    0  502 -0.19831892765E+02  0.33898515186E+02 -0.91464578725E+01  0.40597549115E+02  0.47000000000E+01 0. -1.
          5    1    5    5  503    0 -0.13935528805E+02 -0.15295758861E+02 -0.25362143014E+03  0.25450752254E+03  0.47000000000E+01 0. -1.
         -5    1    5    5    0  503  0.43685751846E+02  0.48299075718E+02 -0.71624172315E+02  0.96919335993E+02  0.47000000000E+01 0. -1.
<mgrwt>
<rscale>  0 0.27605999E+03</rscale>
<asrwt>0</asrwt>
<pdfrwt beam="1">  1        2 0.82894277E-01 0.27605999E+03</pdfrwt>
<pdfrwt beam="2">  1       -2 0.54399596E-02 0.27605999E+03</pdfrwt>
<totfact> 0.97868581E+03</totfact>
</mgrwt>
</event>
<event>
 9    1  0.8093459E-001  0.2750351E+03  0.7818608E-02  0.1098432E+00
         -1   -1    0    0    0  501 -0.00000000000E+00  0.00000000000E+00  0.10320623231E+03  0.10320623231E+03  0.00000000000E+00 0.  1.
          1   -1    0    0  501    0  0.00000000000E+00 -0.00000000000E+00 -0.18323583149E+03  0.18323583149E+03  0.00000000000E+00 0.  1.
         35    2    1    2    0    0  0.00000000000E+00 -0.14210854715E-13 -0.80029599183E+02  0.28644206380E+03  0.27503512352E+03 0.  0.
         25    2    3    3    0    0  0.85824256969E+01 -0.50486880818E+02 -0.30241550157E+02  0.14330065647E+03  0.13037616202E+03 0.  0.
         25    2    3    3    0    0 -0.85824256969E+01  0.50486880818E+02 -0.49788049026E+02  0.14314140733E+03  0.12404849657E+03 0.  0.
          5    1    4    4  502    0  0.55717781767E+02  0.16017851835E+02 -0.16880910686E+02  0.60564824180E+02  0.47000000000E+01 0. -1.
         -5    1    4    4    0  502 -0.47135356070E+02 -0.66504732653E+02 -0.13360639471E+02  0.82735832287E+02  0.47000000000E+01 0. -1.
          5    1    5    5  503    0 -0.52310150965E+02 -0.12206327472E+02 -0.43518782581E+01  0.54095981077E+02  0.47000000000E+01 0. -1.
         -5    1    5    5    0  503  0.43727725268E+02  0.62693208290E+02 -0.45436170768E+02  0.89045426255E+02  0.47000000000E+01 0. -1.
<mgrwt>
<rscale>  0 0.27503512E+03</rscale>
<asrwt>0</asrwt>
<pdfrwt beam="1">  1        1 0.28190128E-01 0.27503512E+03</pdfrwt>
<pdfrwt beam="2">  1       -1 0.15877882E-01 0.27503512E+03</pdfrwt>
<totfact> 0.47787744E+03</totfact>
</mgrwt>
</event>
<event>
 9    1  0.8093459E-001  0.2743379E+03  0.7818608E-02  0.1098822E+00
         -2   -1    0    0    0  501 -0.00000000000E+00  0.00000000000E+00  0.14842215488E+02  0.14842215488E+02  0.00000000000E+00 0. -1.
          2   -1    0    0  501    0  0.00000000000E+00 -0.00000000000E+00 -0.12676894969E+04  0.12676894969E+04  0.00000000000E+00 0. -1.
         35    2    1    2    0    0  0.35527136788E-14  0.00000000000E+00 -0.12528472814E+04  0.12825317124E+04  0.27433789884E+03 0.  0.
         25    2    3    3    0    0  0.11600164909E+02  0.39194946817E+02 -0.81693784374E+03  0.82730686350E+03  0.12400966972E+03 0.  0.
         25    2    3    3    0    0 -0.11600164909E+02 -0.39194946817E+02 -0.43590943770E+03  0.45522484891E+03  0.12466682602E+03 0.  0.
          5    1    4    4  502    0  0.37894486733E+02  0.38044314120E+01 -0.71638661173E+03  0.71741364169E+03  0.47000000000E+01 0. -1.
         -5    1    4    4    0  502 -0.26294321824E+02  0.35390515405E+02 -0.10055123201E+03  0.10989322181E+03  0.47000000000E+01 0. -1.
          5    1    5    5  503    0  0.30842110060E+02  0.21284361565E+02 -0.28107081112E+03  0.28359681003E+03  0.47000000000E+01 0.  1.
         -5    1    5    5    0  503 -0.42442274969E+02 -0.60479308383E+02 -0.15483862658E+03  0.17162803888E+03  0.47000000000E+01 0.  1.
<mgrwt>
<rscale>  0 0.27433790E+03</rscale>
<asrwt>0</asrwt>
<pdfrwt beam="1">  1        2 0.19502918E+00 0.27433790E+03</pdfrwt>
<pdfrwt beam="2">  1       -2 0.22834175E-02 0.27433790E+03</pdfrwt>
<totfact> 0.11614695E+04</totfact>
</mgrwt>
</event>
<event>
 9    1  0.8093459E-001  0.2758812E+03  0.7818608E-02  0.1097960E+00
         -2   -1    0    0    0  501 -0.00000000000E+00  0.00000000000E+00  0.80907059485E+02  0.80907059485E+02  0.00000000000E+00 0. -1.
          2   -1    0    0  501    0  0.00000000000E+00 -0.00000000000E+00 -0.23517861122E+03  0.23517861122E+03  0.00000000000E+00 0. -1.
         35    2    1    2    0    0  0.71054273576E-14 -0.35527136788E-14 -0.15427155173E+03  0.31608567070E+03  0.27588120550E+03 0.  0.
         25    2    3    3    0    0  0.57506678771E+02  0.48536111045E+00 -0.63965522369E+02  0.15177415727E+03  0.12504620380E+03 0.  0.
         25    2    3    3    0    0 -0.57506678771E+02 -0.48536111045E+00 -0.90306029362E+02  0.16431151343E+03  0.12464285309E+03 0.  0.
          5    1    4    4  502    0  0.52418139339E+02 -0.56099425792E+02 -0.53797399906E+02  0.93867231463E+02  0.47000000000E+01 0. -1.
         -5    1    4    4    0  502  0.50885394313E+01  0.56584786903E+02 -0.10168122463E+02  0.57906925810E+02  0.47000000000E+01 0. -1.
          5    1    5    5  503    0 -0.23662105109E+02  0.17035941386E+02  0.27531196307E+02  0.40375429251E+02  0.47000000000E+01 0.  1.
         -5    1    5    5    0  503 -0.33844573662E+02 -0.17521302496E+02 -0.11783722567E+03  0.12393608418E+03  0.47000000000E+01 0.  1.
<mgrwt>
<rscale>  0 0.27588121E+03</rscale>
<asrwt>0</asrwt>
<pdfrwt beam="1">  1        2 0.36181324E-01 0.27588121E+03</pdfrwt>
<pdfrwt beam="2">  1       -2 0.12447240E-01 0.27588121E+03</pdfrwt>
<totfact> 0.65926916E+03</totfact>
</mgrwt>
</event>
<event>
 9    1  0.8093459E-001  0.2726811E+03  0.7818608E-02  0.1099755E+00
         -4   -1    0    0    0  501 -0.00000000000E+00  0.00000000000E+00  0.17639039380E+03  0.17639039380E+03  0.00000000000E+00 0. -1.
          4   -1    0    0  501    0  0.00000000000E+00 -0.00000000000E+00 -0.10538413599E+03  0.10538413599E+03  0.00000000000E+00 0. -1.
         35    2    1    2    0    0  0.00000000000E+00  0.00000000000E+00  0.71006257811E+02  0.28177452980E+03  0.27268112695E+03 0.  0.
         25    2    3    3    0    0  0.20800689480E+01 -0.50384990483E+01 -0.21865323822E+02  0.12627689544E+03  0.12424994477E+03 0.  0.
         25    2    3    3    0    0 -0.20800689480E+01  0.50384990483E+01  0.92871581633E+02  0.15549763436E+03  0.12459803552E+03 0.  0.
          5    1    4    4  502    0 -0.49311349264E+02  0.33418602454E+02 -0.64784572309E+01  0.60103848166E+02  0.47000000000E+01 0.  1.
         -5    1    4    4    0  502  0.51391418212E+02 -0.38457101503E+02 -0.15386866591E+02  0.66173047273E+02  0.47000000000E+01 0.  1.
          5    1    5    5  503    0  0.52415947774E+02  0.26229621296E+02  0.20351130897E+02  0.62222850651E+02  0.47000000000E+01 0. -1.
         -5    1    5    5    0  503 -0.54496016722E+02 -0.21191122247E+02  0.72520450737E+02  0.93274783707E+02  0.47000000000E+01 0. -1.
<mgrwt>
<rscale>  0 0.27268113E+03</rscale>
<asrwt>0</asrwt>
<pdfrwt beam="1">  1        4 0.16212944E-01 0.27268113E+03</pdfrwt>
<pdfrwt beam="2">  1       -4 0.27136984E-01 0.27268113E+03</pdfrwt>
<totfact> 0.79115539E+02</totfact>
</mgrwt>
</event>
<event>
 9    1  0.8093459E-001  0.2925062E+03  0.7818608E-02  0.1089048E+00
          2   -1    0    0  501    0  0.00000000000E+00  0.00000000000E+00  0.80021781112E+03  0.80021781112E+03  0.00000000000E+00 0.  1.
         -2   -1    0    0    0  501 -0.00000000000E+00 -0.00000000000E+00 -0.26730176521E+02  0.26730176521E+02  0.00000000000E+00 0.  1.
         35    2    1    2    0    0  0.71054273576E-14  0.00000000000E+00  0.77348763460E+03  0.82694798764E+03  0.29250615957E+03 0.  0.
         25    2    3    3    0    0 -0.10345117049E+02 -0.31321621905E+02  0.57977318556E+03  0.59409661710E+03  0.12540246532E+03 0.  0.
         25    2    3    3    0    0  0.10345117049E+02  0.31321621905E+02  0.19371444904E+03  0.23285137054E+03  0.12492560807E+03 0.  0.
          5    1    4    4  502    0  0.41924319094E+02 -0.30671804670E+02  0.11387833437E+03  0.12525483293E+03  0.47000000000E+01 0. -1.
         -5    1    4    4    0  502 -0.52269436143E+02 -0.64981723545E+00  0.46589485119E+03  0.46884178417E+03  0.47000000000E+01 0. -1.
          5    1    5    5  503    0  0.34661014289E+02  0.72618600358E+02  0.11170403523E+03  0.13774878771E+03  0.47000000000E+01 0.  1.
         -5    1    5    5    0  503 -0.24315897240E+02 -0.41296978453E+02  0.82010413813E+02  0.95102582834E+02  0.47000000000E+01 0.  1.
<mgrwt>
<rscale>  0 0.29250616E+03</rscale>
<asrwt>0</asrwt>
<pdfrwt beam="1">  1        2 0.12311041E+00 0.29250616E+03</pdfrwt>
<pdfrwt beam="2">  1       -2 0.41123355E-02 0.29250616E+03</pdfrwt>
<totfact> 0.93404526E+03</totfact>
</mgrwt>
</event>
<event>
 9    1  0.8093459E-001  0.2738620E+03  0.7818608E-02  0.1099089E+00
         -1   -1    0    0    0  501 -0.00000000000E+00  0.00000000000E+00  0.10855533895E+03  0.10855533895E+03  0.00000000000E+00 0.  1.
          1   -1    0    0  501    0  0.00000000000E+00 -0.00000000000E+00 -0.17272391887E+03  0.17272391887E+03  0.00000000000E+00 0.  1.
         35    2    1    2    0    0 -0.71054273576E-14  0.00000000000E+00 -0.64168579923E+02  0.28127925782E+03  0.27386203503E+03 0.  0.
         25    2    3    3    0    0  0.14448637508E+02 -0.50879553999E+02 -0.55452836511E+02  0.14544421708E+03  0.12361840908E+03 0.  0.
         25    2    3    3    0    0 -0.14448637508E+02  0.50879553999E+02 -0.87157434120E+01  0.13583504074E+03  0.12481066448E+03 0.  0.
          5    1    4    4  502    0 -0.30175842518E+02 -0.64582513571E+02  0.17515882905E+01  0.71460762607E+02  0.47000000000E+01 0.  1.
         -5    1    4    4    0  502  0.44624480027E+02  0.13702959572E+02 -0.57204424801E+02  0.73983454472E+02  0.47000000000E+01 0.  1.
          5    1    5    5  503    0 -0.50400523738E+02 -0.15840751954E+02  0.16944814295E+02  0.55680866974E+02  0.47000000000E+01 0. -1.
         -5    1    5    5    0  503  0.35951886229E+02  0.66720305953E+02 -0.25660557707E+02  0.80154173763E+02  0.47000000000E+01 0. -1.
<mgrwt>
<rscale>  0 0.27386204E+03</rscale>
<asrwt>0</asrwt>
<pdfrwt beam="1">  1        1 0.26572911E-01 0.27386204E+03</pdfrwt>
<pdfrwt beam="2">  1       -1 0.16700821E-01 0.27386204E+03</pdfrwt>
<totfact> 0.47502844E+03</totfact>
</mgrwt>
</event>
<event>
 9    1  0.8093459E-001  0.2759073E+03  0.7818608E-02  0.1097945E+00
          1   -1    0    0  501    0  0.00000000000E+00  0.00000000000E+00  0.61125506269E+02  0.61125506269E+02  0.00000000000E+00 0. -1.
         -1   -1    0    0    0  501 -0.00000000000E+00 -0.00000000000E+00 -0.31134652150E+03  0.31134652150E+03  0.00000000000E+00 0. -1.
         35    2    1    2    0    0  0.71054273576E-14  0.00000000000E+00 -0.25022101523E+03  0.37247202777E+03  0.27590733047E+03 0.  0.
         25    2    3    3    0    0 -0.37817230998E+02 -0.10621514168E+02 -0.17922076929E+03  0.22355796154E+03  0.12773064823E+03 0.  0.
         25    2    3    3    0    0  0.37817230998E+02  0.10621514168E+02 -0.71000245940E+02  0.14891406623E+03  0.12486554639E+03 0.  0.
          5    1    4    4  502    0 -0.83691495547E+02  0.73203135570E+01 -0.11153467842E+03  0.13971373557E+03  0.47000000000E+01 0. -1.
         -5    1    4    4    0  502  0.45874264549E+02 -0.17941827725E+02 -0.67686090875E+02  0.83844225966E+02  0.47000000000E+01 0. -1.
          5    1    5    5  503    0  0.64441379286E+02  0.91712732470E+01 -0.93285960519E+02  0.11384710821E+03  0.47000000000E+01 0.  1.
         -5    1    5    5    0  503 -0.26624148288E+02  0.14502409210E+01  0.22285714579E+02  0.35066958024E+02  0.47000000000E+01 0.  1.
<mgrwt>
<rscale>  0 0.27590733E+03</rscale>
<asrwt>0</asrwt>
<pdfrwt beam="1">  1        1 0.94039241E-02 0.27590733E+03</pdfrwt>
<pdfrwt beam="2">  1       -1 0.47899465E-01 0.27590733E+03</pdfrwt>
<totfact> 0.30909462E+03</totfact>
</mgrwt>
</event>
<event>
 9    1  0.8093459E-001  0.2732186E+03  0.7818608E-02  0.1099452E+00
         -1   -1    0    0    0  501 -0.00000000000E+00  0.00000000000E+00  0.43674863465E+02  0.43674863465E+02  0.00000000000E+00 0. -1.
          1   -1    0    0  501    0  0.00000000000E+00 -0.00000000000E+00 -0.42729604027E+03  0.42729604027E+03  0.00000000000E+00 0. -1.
         35    2    1    2    0    0  0.00000000000E+00 -0.35527136788E-14 -0.38362117680E+03  0.47097090373E+03  0.27321856612E+03 0.  0.
         25    2    3    3    0    0  0.38210219623E+02 -0.89633218090E+01 -0.25602478377E+03  0.28669068295E+03  0.12289221196E+03 0.  0.
         25    2    3    3    0    0 -0.38210219623E+02  0.89633218090E+01 -0.12759639303E+03  0.18428022079E+03  0.12703542119E+03 0.  0.
          5    1    4    4  502    0  0.52794574471E+02 -0.50592020595E+02 -0.21153041473E+03  0.22386162243E+03  0.47000000000E+01 0.  1.
         -5    1    4    4    0  502 -0.14584354848E+02  0.41628698786E+02 -0.44494369048E+02  0.62829060521E+02  0.47000000000E+01 0.  1.
          5    1    5    5  503    0  0.29329422088E+02 -0.12005421467E+02 -0.10516897507E+03  0.10994065882E+03  0.47000000000E+01 0. -1.
         -5    1    5    5    0  503 -0.67539641711E+02  0.20968743276E+02 -0.22427417960E+02  0.74339561966E+02  0.47000000000E+01 0. -1.
<mgrwt>
<rscale>  0 0.27321857E+03</rscale>
<asrwt>0</asrwt>
<pdfrwt beam="1">  1        1 0.65737852E-01 0.27321857E+03</pdfrwt>
<pdfrwt beam="2">  1       -1 0.67192098E-02 0.27321857E+03</pdfrwt>
<totfact> 0.62170041E+03</totfact>
</mgrwt>
</event>
<event>
 9    1  0.8093459E-001  0.2660206E+03  0.7818608E-02  0.1103579E+00
         -2   -1    0    0    0  501 -0.00000000000E+00  0.00000000000E+00  0.89263814387E+01  0.89263814387E+01  0.00000000000E+00 0. -1.
          2   -1    0    0  501    0  0.00000000000E+00 -0.00000000000E+00 -0.19819603047E+04  0.19819603047E+04  0.00000000000E+00 0. -1.
         35    2    1    2    0    0 -0.44408920985E-15  0.00000000000E+00 -0.19730339232E+04  0.19908866861E+04  0.26602055316E+03 0.  0.
         25    2    3    3    0    0 -0.30376632127E+01  0.32354292256E+01 -0.63848911766E+03  0.65051233133E+03  0.12441159285E+03 0.  0.
         25    2    3    3    0    0  0.30376632127E+01 -0.32354292256E+01 -0.13345448056E+04  0.13403743548E+04  0.12479534241E+03 0.  0.
          5    1    4    4  502    0  0.18212746983E+01  0.54013539677E+02 -0.49853568459E+03  0.50147851232E+03  0.47000000000E+01 0. -1.
         -5    1    4    4    0  502 -0.48589379110E+01 -0.50778110452E+02 -0.13995343307E+03  0.14903381901E+03  0.47000000000E+01 0. -1.
          5    1    5    5  503    0 -0.10323715356E+02  0.41738230359E+02 -0.19008802898E+03  0.19494667921E+03  0.47000000000E+01 0.  1.
         -5    1    5    5    0  503  0.13361378569E+02 -0.44973659585E+02 -0.11444567766E+04  0.11454276756E+04  0.47000000000E+01 0.  1.
<mgrwt>
<rscale>  0 0.26602055E+03</rscale>
<asrwt>0</asrwt>
<pdfrwt beam="1">  1        2 0.30491700E+00 0.26602055E+03</pdfrwt>
<pdfrwt beam="2">  1       -2 0.13732893E-02 0.26602055E+03</pdfrwt>
<totfact> 0.10188671E+04</totfact>
</mgrwt>
</event>
<event>
 9    1  0.8093459E-001  0.2711041E+03  0.7818608E-02  0.1100649E+00
          2   -1    0    0  501    0  0.00000000000E+00  0.00000000000E+00  0.12685577716E+04  0.12685577716E+04  0.00000000000E+00 0.  1.
         -2   -1    0    0    0  501 -0.00000000000E+00 -0.00000000000E+00 -0.14484451896E+02  0.14484451896E+02  0.00000000000E+00 0.  1.
         35    2    1    2    0    0  0.14210854715E-13 -0.14210854715E-13  0.12540733197E+04  0.12830422235E+04  0.27110414251E+03 0.  0.
         25    2    3    3    0    0 -0.25634193182E+02  0.39443232483E+02  0.62172866281E+03  0.63647118726E+03  0.12781299468E+03 0.  0.
         25    2    3    3    0    0  0.25634193182E+02 -0.39443232483E+02  0.63234465694E+03  0.64657103628E+03  0.12641779679E+03 0.  0.
          5    1    4    4  502    0  0.31962172251E+02 -0.25142769405E+02  0.31786798132E+03  0.32049318691E+03  0.47000000000E+01 0.  1.
         -5    1    4    4    0  502 -0.57596365433E+02  0.64586001888E+02  0.30386068148E+03  0.31597800035E+03  0.47000000000E+01 0.  1.
          5    1    5    5  503    0 -0.43812359641E+02 -0.42958337514E+02  0.22297906638E+03  0.23131514361E+03  0.47000000000E+01 0.  1.
         -5    1    5    5    0  503  0.69446552823E+02  0.35151050306E+01  0.40936559056E+03  0.41525589267E+03  0.47000000000E+01 0.  1.
<mgrwt>
<rscale>  0 0.27110414E+03</rscale>
<asrwt>0</asrwt>
<pdfrwt beam="1">  1        2 0.19516265E+00 0.27110414E+03</pdfrwt>
<pdfrwt beam="2">  1       -2 0.22283782E-02 0.27110414E+03</pdfrwt>
<totfact> 0.12023217E+04</totfact>
</mgrwt>
</event>
<event>
 9    1  0.8093459E-001  0.2743794E+03  0.7818608E-02  0.1098799E+00
         -2   -1    0    0    0  501 -0.00000000000E+00  0.00000000000E+00  0.23571057373E+02  0.23571057373E+02  0.00000000000E+00 0.  1.
          2   -1    0    0  501    0  0.00000000000E+00 -0.00000000000E+00 -0.79847993813E+03  0.79847993813E+03  0.00000000000E+00 0.  1.
         35    2    1    2    0    0  0.00000000000E+00  0.00000000000E+00 -0.77490888076E+03  0.82205099551E+03  0.27437941929E+03 0.  0.
         25    2    3    3    0    0 -0.31129274880E+02 -0.21841138260E+02 -0.39637182364E+03  0.41741276168E+03  0.12520672493E+03 0.  0.
         25    2    3    3    0    0  0.31129274880E+02  0.21841138260E+02 -0.37853705713E+03  0.40463823382E+03  0.13782499621E+03 0.  0.
          5    1    4    4  502    0  0.46669159621E+02 -0.42320365856E+01 -0.10128732685E+03  0.11170108851E+03  0.47000000000E+01 0. -1.
         -5    1    4    4    0  502 -0.77798434500E+02 -0.17609101674E+02 -0.29508449679E+03  0.30571167318E+03  0.47000000000E+01 0. -1.
          5    1    5    5  503    0  0.55503395665E+02 -0.41880708767E+02 -0.24343896589E+03  0.25321777349E+03  0.47000000000E+01 0. -1.
         -5    1    5    5    0  503 -0.24374120786E+02  0.63721847027E+02 -0.13509809123E+03  0.15142046033E+03  0.47000000000E+01 0. -1.
<mgrwt>
<rscale>  0 0.27437942E+03</rscale>
<asrwt>0</asrwt>
<pdfrwt beam="1">  1        2 0.12284308E+00 0.27437942E+03</pdfrwt>
<pdfrwt beam="2">  1       -2 0.36263161E-02 0.27437942E+03</pdfrwt>
<totfact> 0.11292663E+04</totfact>
</mgrwt>
</event>
<event>
 9    1  0.8093459E-001  0.2741013E+03  0.7818608E-02  0.1098955E+00
          1   -1    0    0  501    0  0.00000000000E+00  0.00000000000E+00  0.96280272053E+03  0.96280272053E+03  0.00000000000E+00 0.  1.
         -1   -1    0    0    0  501 -0.00000000000E+00 -0.00000000000E+00 -0.19508544653E+02  0.19508544653E+02  0.00000000000E+00 0.  1.
         35    2    1    2    0    0  0.00000000000E+00  0.35527136788E-14  0.94329417588E+03  0.98231126518E+03  0.27410129416E+03 0.  0.
         25    2    3    3    0    0 -0.32485941706E+02 -0.31040338000E+02  0.59273621007E+03  0.60730553828E+03  0.12435820483E+03 0.  0.
         25    2    3    3    0    0  0.32485941706E+02  0.31040338000E+02  0.35055796581E+03  0.37500572690E+03  0.12537770466E+03 0.  0.
          5    1    4    4  502    0 -0.27447582065E+02 -0.73302131279E+02  0.48625943102E+03  0.49254126372E+03  0.47000000000E+01 0. -1.
         -5    1    4    4    0  502 -0.50383596408E+01  0.42261793279E+02  0.10647677904E+03  0.11476427456E+03  0.47000000000E+01 0. -1.
          5    1    5    5  503    0  0.22326303213E+01  0.40371334574E+02  0.33828749583E+03  0.34072767590E+03  0.47000000000E+01 0.  1.
         -5    1    5    5    0  503  0.30253311385E+02 -0.93309965739E+01  0.12270469984E+02  0.34278051001E+02  0.47000000000E+01 0.  1.
<mgrwt>
<rscale>  0 0.27410129E+03</rscale>
<asrwt>0</asrwt>
<pdfrwt beam="1">  1        1 0.14812346E+00 0.27410129E+03</pdfrwt>
<pdfrwt beam="2">  1       -1 0.30013153E-02 0.27410129E+03</pdfrwt>
<totfact> 0.64266641E+03</totfact>
</mgrwt>
</event>
<event>
 9    1  0.8093459E-001  0.2747244E+03  0.7818608E-02  0.1098606E+00
          1   -1    0    0  501    0  0.00000000000E+00  0.00000000000E+00  0.44463248578E+03  0.44463248578E+03  0.00000000000E+00 0.  1.
         -1   -1    0    0    0  501 -0.00000000000E+00 -0.00000000000E+00 -0.42435881883E+02  0.42435881883E+02  0.00000000000E+00 0.  1.
         35    2    1    2    0    0  0.35527136788E-14  0.00000000000E+00  0.40219660390E+03  0.48706836767E+03  0.27472438296E+03 0.  0.
         25    2    3    3    0    0  0.24590760392E+02 -0.47431134044E+02  0.24736668041E+03  0.28125181374E+03  0.12271059521E+03 0.  0.
         25    2    3    3    0    0 -0.24590760392E+02  0.47431134044E+02  0.15482992349E+03  0.20581655393E+03  0.12463438808E+03 0.  0.
          5    1    4    4  502    0  0.42752311608E+02 -0.20571393317E+01  0.22171128890E+03  0.22585388550E+03  0.47000000000E+01 0.  1.
         -5    1    4    4    0  502 -0.18161551216E+02 -0.45373994713E+02  0.25655391511E+02  0.55397928232E+02  0.47000000000E+01 0.  1.
          5    1    5    5  503    0 -0.35706484660E+02 -0.69817243954E+01 -0.45558797994E+01  0.36966790002E+02  0.47000000000E+01 0. -1.
         -5    1    5    5    0  503  0.11115724268E+02  0.54412858440E+02  0.15938580329E+03  0.16884976393E+03  0.47000000000E+01 0. -1.
<mgrwt>
<rscale>  0 0.27472438E+03</rscale>
<asrwt>0</asrwt>
<pdfrwt beam="1">  1        1 0.68404994E-01 0.27472438E+03</pdfrwt>
<pdfrwt beam="2">  1       -1 0.65285976E-02 0.27472438E+03</pdfrwt>
<totfact> 0.61684938E+03</totfact>
</mgrwt>
</event>
<event>
 9    1  0.8093459E-001  0.2773996E+03  0.7818608E-02  0.1097118E+00
         -1   -1    0    0    0  501 -0.00000000000E+00  0.00000000000E+00  0.24936387484E+03  0.24936387484E+03  0.00000000000E+00 0.  1.
          1   -1    0    0  501    0  0.00000000000E+00 -0.00000000000E+00 -0.77146863663E+02  0.77146863663E+02  0.00000000000E+00 0.  1.
         35    2    1    2    0    0  0.71054273576E-14 -0.71054273576E-14  0.17221701117E+03  0.32651073850E+03  0.27739964567E+03 0.  0.
         25    2    3    3    0    0 -0.19947239319E+02 -0.59230803414E+02  0.82244893666E+02  0.16203244744E+03  0.12483633710E+03 0.  0.
         25    2    3    3    0    0  0.19947239319E+02  0.59230803414E+02  0.89972117508E+02  0.16447829106E+03  0.12268637199E+03 0.  0.
          5    1    4    4  502    0 -0.45571027946E+02 -0.36464303550E+01 -0.13854075604E+02  0.48000421386E+02  0.47000000000E+01 0.  1.
         -5    1    4    4    0  502  0.25623788626E+02 -0.55584373059E+02  0.96098969269E+02  0.11403202606E+03  0.47000000000E+01 0.  1.
          5    1    5    5  503    0  0.47227164309E+02  0.89760017885E+01  0.95315494321E+02  0.10685554321E+03  0.47000000000E+01 0.  1.
         -5    1    5    5    0  503 -0.27279924990E+02  0.50254801626E+02 -0.53433768130E+01  0.57622747849E+02  0.47000000000E+01 0.  1.
<mgrwt>
<rscale>  0 0.27739965E+03</rscale>
<asrwt>0</asrwt>
<pdfrwt beam="1">  1        1 0.11868748E-01 0.27739965E+03</pdfrwt>
<pdfrwt beam="2">  1       -1 0.38363673E-01 0.27739965E+03</pdfrwt>
<totfact> 0.33726058E+03</totfact>
</mgrwt>
</event>
<event>
 9    1  0.8093459E-001  0.2823390E+03  0.7818608E-02  0.1094418E+00
         -1   -1    0    0    0  501 -0.00000000000E+00  0.00000000000E+00  0.11459997508E+03  0.11459997508E+03  0.00000000000E+00 0.  1.
          1   -1    0    0  501    0  0.00000000000E+00 -0.00000000000E+00 -0.17389911159E+03  0.17389911159E+03  0.00000000000E+00 0.  1.
         35    2    1    2    0    0  0.71054273576E-14  0.00000000000E+00 -0.59299136511E+02  0.28849908667E+03  0.28233904339E+03 0.  0.
         25    2    3    3    0    0  0.54112092214E+02  0.36837088888E+02 -0.37705713157E+02  0.14582966002E+03  0.12473764185E+03 0.  0.
         25    2    3    3    0    0 -0.54112092214E+02 -0.36837088888E+02 -0.21593423355E+02  0.14266942666E+03  0.12491276848E+03 0.  0.
          5    1    4    4  502    0  0.87355982215E+02  0.17906642750E+02 -0.53588492132E+02  0.10414188385E+03  0.47000000000E+01 0. -1.
         -5    1    4    4    0  502 -0.33243890001E+02  0.18930446138E+02  0.15882778976E+02  0.41687776163E+02  0.47000000000E+01 0. -1.
          5    1    5    5  503    0 -0.12577760763E+02 -0.47287886142E+01 -0.69802549204E+02  0.71239366806E+02  0.47000000000E+01 0. -1.
         -5    1    5    5    0  503 -0.41534331451E+02 -0.32108300274E+02  0.48209125849E+02  0.71430059854E+02  0.47000000000E+01 0. -1.
<mgrwt>
<rscale>  0 0.28233904E+03</rscale>
<asrwt>0</asrwt>
<pdfrwt beam="1">  1        1 0.26753709E-01 0.28233904E+03</pdfrwt>
<pdfrwt beam="2">  1       -1 0.17630766E-01 0.28233904E+03</pdfrwt>
<totfact> 0.43215390E+03</totfact>
</mgrwt>
</event>
<event>
 9    1  0.8093459E-001  0.2718780E+03  0.7818608E-02  0.1100210E+00
          2   -1    0    0  501    0  0.00000000000E+00  0.00000000000E+00  0.14631027102E+03  0.14631027102E+03  0.00000000000E+00 0.  1.
         -2   -1    0    0    0  501 -0.00000000000E+00 -0.00000000000E+00 -0.12630287872E+03  0.12630287872E+03  0.00000000000E+00 0.  1.
         35    2    1    2    0    0 -0.17763568394E-14  0.71054273576E-14  0.20007392294E+02  0.27261314974E+03  0.27187797569E+03 0.  0.
         25    2    3    3    0    0 -0.28534264024E+01 -0.11508156732E+02  0.62325288933E+02  0.14015743578E+03  0.12497633957E+03 0.  0.
         25    2    3    3    0    0  0.28534264024E+01  0.11508156732E+02 -0.42317896638E+02  0.13245571396E+03  0.12495251926E+03 0.  0.
          5    1    4    4  502    0 -0.54818478970E+02 -0.34472406350E+02  0.49708963846E+02  0.81770921009E+02  0.47000000000E+01 0. -1.
         -5    1    4    4    0  502  0.51965052568E+02  0.22964249618E+02  0.12616325087E+02  0.58386514775E+02  0.47000000000E+01 0. -1.
          5    1    5    5  503    0  0.86023245112E+01  0.57648832229E+02  0.13137580353E+02  0.59933912453E+02  0.47000000000E+01 0.  1.
         -5    1    5    5    0  503 -0.57488981088E+01 -0.46140675497E+02 -0.55455476991E+02  0.72521801502E+02  0.47000000000E+01 0.  1.
<mgrwt>
<rscale>  0 0.27187798E+03</rscale>
<asrwt>0</asrwt>
<pdfrwt beam="1">  1        2 0.22509273E-01 0.27187798E+03</pdfrwt>
<pdfrwt beam="2">  1       -2 0.19431212E-01 0.27187798E+03</pdfrwt>
<totfact> 0.53131792E+03</totfact>
</mgrwt>
</event>
<event>
 9    1  0.8093459E-001  0.2810613E+03  0.7818608E-02  0.1095111E+00
         -1   -1    0    0    0  501 -0.00000000000E+00  0.00000000000E+00  0.65009114945E+02  0.65009114945E+02  0.00000000000E+00 0. -1.
          1   -1    0    0  501    0  0.00000000000E+00 -0.00000000000E+00 -0.30378611049E+03  0.30378611049E+03  0.00000000000E+00 0. -1.
         35    2    1    2    0    0 -0.35527136788E-14 -0.71054273576E-14 -0.23877699555E+03  0.36879522544E+03  0.28106131841E+03 0.  0.
         25    2    3    3    0    0 -0.30973566605E+02  0.48944358423E+02 -0.15330584303E+03  0.20657423128E+03  0.12575897372E+03 0.  0.
         25    2    3    3    0    0  0.30973566605E+02 -0.48944358423E+02 -0.85471152519E+02  0.16222099416E+03  0.12512162477E+03 0.  0.
          5    1    4    4  502    0 -0.10028555837E+02 -0.92841231470E+00 -0.15185240674E+03  0.15225858699E+03  0.47000000000E+01 0.  1.
         -5    1    4    4    0  502 -0.20945010768E+02  0.49872770738E+02 -0.14534362939E+01  0.54315644286E+02  0.47000000000E+01 0.  1.
          5    1    5    5  503    0  0.34721591144E+02  0.44921782531E+01  0.22302966850E+02  0.41776559065E+02  0.47000000000E+01 0. -1.
         -5    1    5    5    0  503 -0.37480245386E+01 -0.53436536676E+02 -0.10777411937E+03  0.12044443510E+03  0.47000000000E+01 0. -1.
<mgrwt>
<rscale>  0 0.28106132E+03</rscale>
<asrwt>0</asrwt>
<pdfrwt beam="1">  1        1 0.46736325E-01 0.28106132E+03</pdfrwt>
<pdfrwt beam="2">  1       -1 0.10001402E-01 0.28106132E+03</pdfrwt>
<totfact> 0.52267928E+03</totfact>
</mgrwt>
</event>
<event>
 9    1  0.8093459E-001  0.2750328E+03  0.7818608E-02  0.1098433E+00
         -3   -1    0    0    0  501 -0.00000000000E+00  0.00000000000E+00  0.11511871760E+03  0.11511871760E+03  0.00000000000E+00 0. -1.
          3   -1    0    0  501    0  0.00000000000E+00 -0.00000000000E+00 -0.16427177742E+03  0.16427177742E+03  0.00000000000E+00 0. -1.
         35    2    1    2    0    0  0.00000000000E+00  0.00000000000E+00 -0.49153059826E+02  0.27939049502E+03  0.27503277153E+03 0.  0.
         25    2    3    3    0    0  0.37952343427E+02  0.34061048882E+02 -0.52359266678E+01  0.13792895677E+03  0.12804861095E+03 0.  0.
         25    2    3    3    0    0 -0.37952343427E+02 -0.34061048882E+02 -0.43917133158E+02  0.14146153824E+03  0.12442715457E+03 0.  0.
          5    1    4    4  502    0  0.78966321627E+02 -0.47809797463E+01 -0.14287451369E+02  0.80528001249E+02  0.47000000000E+01 0.  1.
         -5    1    4    4    0  502 -0.41013978200E+02  0.38842028628E+02  0.90515247016E+01  0.57400955525E+02  0.47000000000E+01 0.  1.
          5    1    5    5  503    0  0.24628484532E+02 -0.98749651094E+01 -0.65500274963E+02  0.70826924305E+02  0.47000000000E+01 0.  1.
         -5    1    5    5    0  503 -0.62580827959E+02 -0.24186083772E+02  0.21583141804E+02  0.70634613940E+02  0.47000000000E+01 0.  1.
<mgrwt>
<rscale>  0 0.27503277E+03</rscale>
<asrwt>0</asrwt>
<pdfrwt beam="1">  1        3 0.25272581E-01 0.27503277E+03</pdfrwt>
<pdfrwt beam="2">  1       -3 0.17710572E-01 0.27503277E+03</pdfrwt>
<totfact> 0.10418692E+03</totfact>
</mgrwt>
</event>
<event>
 9    1  0.8093459E-001  0.2772710E+03  0.7818608E-02  0.1097189E+00
          1   -1    0    0  501    0  0.00000000000E+00  0.00000000000E+00  0.18888943894E+03  0.18888943894E+03  0.00000000000E+00 0.  1.
         -1   -1    0    0    0  501 -0.00000000000E+00 -0.00000000000E+00 -0.10175156717E+03  0.10175156717E+03  0.00000000000E+00 0.  1.
         35    2    1    2    0    0 -0.35527136788E-14  0.00000000000E+00  0.87137871776E+02  0.29064100611E+03  0.27727096086E+03 0.  0.
         25    2    3    3    0    0 -0.16916104075E+02 -0.44107952396E+02  0.69590721763E+02  0.15075481076E+03  0.12510986520E+03 0.  0.
         25    2    3    3    0    0  0.16916104075E+02  0.44107952396E+02  0.17547150013E+02  0.13988619535E+03  0.13049359805E+03 0.  0.
          5    1    4    4  502    0  0.22220034096E+02 -0.63281572769E+02 -0.14844186605E+01  0.67250136551E+02  0.47000000000E+01 0. -1.
         -5    1    4    4    0  502 -0.39136138171E+02  0.19173620373E+02  0.71075140423E+02  0.83504674213E+02  0.47000000000E+01 0. -1.
          5    1    5    5  503    0  0.21532599813E+02  0.13057746135E+02  0.72241251201E+02  0.76648848418E+02  0.47000000000E+01 0.  1.
         -5    1    5    5    0  503 -0.46164957374E+01  0.31050206261E+02 -0.54694101188E+02  0.63237346928E+02  0.47000000000E+01 0.  1.
<mgrwt>
<rscale>  0 0.27727096E+03</rscale>
<asrwt>0</asrwt>
<pdfrwt beam="1">  1        1 0.29059914E-01 0.27727096E+03</pdfrwt>
<pdfrwt beam="2">  1       -1 0.15654087E-01 0.27727096E+03</pdfrwt>
<totfact> 0.47050436E+03</totfact>
</mgrwt>
</event>
<event>
 9    1  0.8093459E-001  0.2798728E+03  0.7818608E-02  0.1095758E+00
         -2   -1    0    0    0  501 -0.00000000000E+00  0.00000000000E+00  0.13444631439E+03  0.13444631439E+03  0.00000000000E+00 0.  1.
          2   -1    0    0  501    0  0.00000000000E+00 -0.00000000000E+00 -0.14565069650E+03  0.14565069650E+03  0.00000000000E+00 0.  1.
         35    2    1    2    0    0  0.00000000000E+00 -0.35527136788E-14 -0.11204382114E+02  0.28009701089E+03  0.27987282350E+03 0.  0.
         25    2    3    3    0    0 -0.91879451981E+01  0.31633361385E+02  0.45705677202E+02  0.13701020750E+03  0.12489075282E+03 0.  0.
         25    2    3    3    0    0  0.91879451981E+01 -0.31633361385E+02 -0.56910059316E+02  0.14308680339E+03  0.12708261315E+03 0.  0.
          5    1    4    4  502    0 -0.63967490698E+02  0.35757189312E+02  0.19585100052E+02  0.76000543404E+02  0.47000000000E+01 0.  1.
         -5    1    4    4    0  502  0.54779545500E+02 -0.41238279262E+01  0.26120577150E+02  0.61009664092E+02  0.47000000000E+01 0.  1.
          5    1    5    5  503    0  0.50462811471E+02  0.28310637264E+02 -0.30029528794E+02  0.65359392007E+02  0.47000000000E+01 0. -1.
         -5    1    5    5    0  503 -0.41274866273E+02 -0.59943998650E+02 -0.26880530522E+02  0.77727411388E+02  0.47000000000E+01 0. -1.
<mgrwt>
<rscale>  0 0.27987282E+03</rscale>
<asrwt>0</asrwt>
<pdfrwt beam="1">  1        2 0.22407800E-01 0.27987282E+03</pdfrwt>
<pdfrwt beam="2">  1       -2 0.20684048E-01 0.27987282E+03</pdfrwt>
<totfact> 0.48036745E+03</totfact>
</mgrwt>
</event>
<event>
 9    1  0.8093459E-001  0.2743237E+03  0.7818608E-02  0.1098830E+00
          2   -1    0    0  501    0  0.00000000000E+00  0.00000000000E+00  0.12780967573E+04  0.12780967573E+04  0.00000000000E+00 0.  1.
         -2   -1    0    0    0  501 -0.00000000000E+00 -0.00000000000E+00 -0.14719831116E+02  0.14719831116E+02  0.00000000000E+00 0.  1.
         35    2    1    2    0    0  0.00000000000E+00  0.00000000000E+00  0.12633769262E+04  0.12928165884E+04  0.27432366589E+03 0.  0.
         25    2    3    3    0    0  0.10521169857E+02 -0.43348837735E+02  0.79204876610E+03  0.80305955293E+03  0.12479415418E+03 0.  0.
         25    2    3    3    0    0 -0.10521169857E+02  0.43348837735E+02  0.47132816007E+03  0.48975703547E+03  0.12538701119E+03 0.  0.
          5    1    4    4  502    0 -0.48576242558E+02 -0.53415382000E+02  0.44252995185E+03  0.44840573442E+03  0.47000000000E+01 0. -1.
         -5    1    4    4    0  502  0.59097412415E+02  0.10066544264E+02  0.34951881425E+03  0.35465381851E+03  0.47000000000E+01 0. -1.
          5    1    5    5  503    0  0.18511854010E+02  0.20345611726E+02  0.44037147490E+03  0.44125475472E+03  0.47000000000E+01 0. -1.
         -5    1    5    5    0  503 -0.29033023868E+02  0.23003226010E+02  0.30956685164E+02  0.48502280752E+02  0.47000000000E+01 0. -1.
<mgrwt>
<rscale>  0 0.27432367E+03</rscale>
<asrwt>0</asrwt>
<pdfrwt beam="1">  1        2 0.19663018E+00 0.27432367E+03</pdfrwt>
<pdfrwt beam="2">  1       -2 0.22645904E-02 0.27432367E+03</pdfrwt>
<totfact> 0.11601529E+04</totfact>
</mgrwt>
</event>
<event>
 9    1  0.8093459E-001  0.2684246E+03  0.7818608E-02  0.1102185E+00
         -1   -1    0    0    0  501 -0.00000000000E+00  0.00000000000E+00  0.33525731823E+03  0.33525731823E+03  0.00000000000E+00 0. -1.
          1   -1    0    0  501    0  0.00000000000E+00 -0.00000000000E+00 -0.53728709195E+02  0.53728709195E+02  0.00000000000E+00 0. -1.
         35    2    1    2    0    0 -0.17763568394E-14  0.00000000000E+00  0.28152860904E+03  0.38898602743E+03  0.26842461107E+03 0.  0.
         25    2    3    3    0    0  0.54556565457E+01 -0.43300767040E+02  0.11575267651E+03  0.17248850085E+03  0.12020349493E+03 0.  0.
         25    2    3    3    0    0 -0.54556565457E+01  0.43300767040E+02  0.16577593253E+03  0.21649752658E+03  0.13223009715E+03 0.  0.
          5    1    4    4  502    0 -0.43330956327E+02 -0.61450557418E+02  0.73886354051E+02  0.10552263311E+03  0.47000000000E+01 0. -1.
         -5    1    4    4    0  502  0.48786612873E+02  0.18149790378E+02  0.41866322460E+02  0.66965867744E+02  0.47000000000E+01 0. -1.
          5    1    5    5  503    0  0.93173023528E+01 -0.14047493528E+02 -0.16946692390E+02  0.24360307480E+02  0.47000000000E+01 0. -1.
         -5    1    5    5    0  503 -0.14772958899E+02  0.57348260568E+02  0.18272262492E+03  0.19213721910E+03  0.47000000000E+01 0. -1.
<mgrwt>
<rscale>  0 0.26842461E+03</rscale>
<asrwt>0</asrwt>
<pdfrwt beam="1">  1        1 0.82659555E-02 0.26842461E+03</pdfrwt>
<pdfrwt beam="2">  1       -1 0.51578048E-01 0.26842461E+03</pdfrwt>
<totfact> 0.32077790E+03</totfact>
</mgrwt>
</event>
<event>
 9    1  0.8093459E-001  0.2764654E+03  0.7818608E-02  0.1097635E+00
          2   -1    0    0  501    0  0.00000000000E+00  0.00000000000E+00  0.32664714129E+04  0.32664714129E+04  0.00000000000E+00 0.  1.
         -2   -1    0    0    0  501 -0.00000000000E+00 -0.00000000000E+00 -0.58498243839E+01  0.58498243839E+01  0.00000000000E+00 0.  1.
         35    2    1    2    0    0  0.00000000000E+00  0.35527136788E-14  0.32606215885E+04  0.32723212373E+04  0.27646543452E+03 0.  0.
         25    2    3    3    0    0 -0.25607373457E+02 -0.18407640464E+02  0.10658178595E+04  0.10737144353E+04  0.12609678857E+03 0.  0.
         25    2    3    3    0    0  0.25607373457E+02  0.18407640464E+02  0.21948037290E+04  0.21986068020E+04  0.12535502435E+03 0.  0.
          5    1    4    4  502    0 -0.45778220676E+02 -0.63338419719E+02  0.74527483893E+03  0.74937579120E+03  0.47000000000E+01 0. -1.
         -5    1    4    4    0  502  0.20170847219E+02  0.44930779256E+02  0.32054302057E+03  0.32433864407E+03  0.47000000000E+01 0. -1.
          5    1    5    5  503    0  0.22292731311E+02  0.29249000885E+02  0.21749516788E+04  0.21752676536E+04  0.47000000000E+01 0. -1.
         -5    1    5    5    0  503  0.33146421457E+01 -0.10841360422E+02  0.19852050255E+02  0.23339148392E+02  0.47000000000E+01 0. -1.
<mgrwt>
<rscale>  0 0.27646543E+03</rscale>
<asrwt>0</asrwt>
<pdfrwt beam="1">  1        2 0.50253260E+00 0.27646543E+03</pdfrwt>
<pdfrwt beam="2">  1       -2 0.89997559E-03 0.27646543E+03</pdfrwt>
<totfact> 0.35621451E+03</totfact>
</mgrwt>
</event>
<event>
 9    1  0.8093459E-001  0.2763753E+03  0.7818608E-02  0.1097685E+00
          2   -1    0    0  501    0  0.00000000000E+00  0.00000000000E+00  0.49485511736E+03  0.49485511736E+03  0.00000000000E+00 0.  1.
         -2   -1    0    0    0  501 -0.00000000000E+00 -0.00000000000E+00 -0.38588711544E+02  0.38588711544E+02  0.00000000000E+00 0.  1.
         35    2    1    2    0    0  0.00000000000E+00  0.00000000000E+00  0.45626640581E+03  0.53344382890E+03  0.27637526213E+03 0.  0.
         25    2    3    3    0    0  0.34515279496E+02 -0.43730053229E+02  0.26801623474E+03  0.30048632611E+03  0.12391815049E+03 0.  0.
         25    2    3    3    0    0 -0.34515279496E+02  0.43730053229E+02  0.18825017107E+03  0.23295750279E+03  0.12540912696E+03 0.  0.
          5    1    4    4  502    0  0.39493134635E+02  0.27135948924E+02  0.18480486840E+03  0.19097381180E+03  0.47000000000E+01 0.  1.
         -5    1    4    4    0  502 -0.49778551395E+01 -0.70866002153E+02  0.83211366335E+02  0.10951251431E+03  0.47000000000E+01 0.  1.
          5    1    5    5  503    0 -0.43561382390E+02 -0.89296710538E+01  0.17079513791E+03  0.17655141516E+03  0.47000000000E+01 0. -1.
         -5    1    5    5    0  503  0.90461028940E+01  0.52659724283E+02  0.17455033160E+02  0.56406087630E+02  0.47000000000E+01 0. -1.
<mgrwt>
<rscale>  0 0.27637526E+03</rscale>
<asrwt>0</asrwt>
<pdfrwt beam="1">  1        2 0.76131552E-01 0.27637526E+03</pdfrwt>
<pdfrwt beam="2">  1       -2 0.59367252E-02 0.27637526E+03</pdfrwt>
<totfact> 0.94233355E+03</totfact>
</mgrwt>
</event>
<event>
 9    1  0.8093459E-001  0.2771095E+03  0.7818608E-02  0.1097278E+00
          2   -1    0    0  501    0  0.00000000000E+00  0.00000000000E+00  0.34593374549E+02  0.34593374549E+02  0.00000000000E+00 0. -1.
         -2   -1    0    0    0  501 -0.00000000000E+00 -0.00000000000E+00 -0.55494476718E+03  0.55494476718E+03  0.00000000000E+00 0. -1.
         35    2    1    2    0    0  0.17763568394E-14  0.00000000000E+00 -0.52035139263E+03  0.58953814173E+03  0.27710945264E+03 0.  0.
         25    2    3    3    0    0 -0.91106191138E+01 -0.21360131569E+02 -0.14836261972E+03  0.19643142686E+03  0.12662772180E+03 0.  0.
         25    2    3    3    0    0  0.91106191138E+01  0.21360131569E+02 -0.37198877291E+03  0.39310671487E+03  0.12497193085E+03 0.  0.
          5    1    4    4  502    0  0.51913806420E+02 -0.64013583071E+00 -0.26458032697E+02  0.58459991149E+02  0.47000000000E+01 0. -1.
         -5    1    4    4    0  502 -0.61024425534E+02 -0.20719995739E+02 -0.12190458702E+03  0.13797143571E+03  0.47000000000E+01 0. -1.
          5    1    5    5  503    0 -0.99051756516E+01 -0.34863629005E+02 -0.28711926999E+03  0.28943591748E+03  0.47000000000E+01 0. -1.
         -5    1    5    5    0  503  0.19015794765E+02  0.56223760575E+02 -0.84869502925E+02  0.10367079738E+03  0.47000000000E+01 0. -1.
<mgrwt>
<rscale>  0 0.27710945E+03</rscale>
<asrwt>0</asrwt>
<pdfrwt beam="1">  1        2 0.53220574E-02 0.27710945E+03</pdfrwt>
<pdfrwt beam="2">  1       -2 0.85376122E-01 0.27710945E+03</pdfrwt>
<totfact> 0.17803033E+03</totfact>
</mgrwt>
</event>
<event>
 9    1  0.8093459E-001  0.2760229E+03  0.7818608E-02  0.1097881E+00
          3   -1    0    0  501    0  0.00000000000E+00  0.00000000000E+00  0.28982560240E+02  0.28982560240E+02  0.00000000000E+00 0. -1.
         -3   -1    0    0    0  501 -0.00000000000E+00 -0.00000000000E+00 -0.65719406579E+03  0.65719406579E+03  0.00000000000E+00 0. -1.
         35    2    1    2    0    0  0.71054273576E-14  0.00000000000E+00 -0.62821150555E+03  0.68617662603E+03  0.27602294543E+03 0.  0.
         25    2    3    3    0    0 -0.32557385400E+02 -0.19995495909E+02 -0.41972297496E+03  0.43953166067E+03  0.12474334382E+03 0.  0.
         25    2    3    3    0    0  0.32557385400E+02  0.19995495909E+02 -0.20848853059E+03  0.24664496535E+03  0.12612084818E+03 0.  0.
          5    1    4    4  502    0 -0.34318512157E+02 -0.62232147911E+02 -0.14513524665E+03  0.16166920032E+03  0.47000000000E+01 0. -1.
         -5    1    4    4    0  502  0.17611267576E+01  0.42236652002E+02 -0.27458772830E+03  0.27786246036E+03  0.47000000000E+01 0. -1.
          5    1    5    5  503    0 -0.18836039234E+02  0.88324623818E+01 -0.18924978658E+03  0.19044784190E+03  0.47000000000E+01 0. -1.
         -5    1    5    5    0  503  0.51393424634E+02  0.11163033527E+02 -0.19238744013E+02  0.56197123452E+02  0.47000000000E+01 0. -1.
<mgrwt>
<rscale>  0 0.27602295E+03</rscale>
<asrwt>0</asrwt>
<pdfrwt beam="1">  1        3 0.44588555E-02 0.27602295E+03</pdfrwt>
<pdfrwt beam="2">  1       -3 0.10110678E+00 0.27602295E+03</pdfrwt>
<totfact> 0.61259704E+02</totfact>
</mgrwt>
</event>
<event>
 9    1  0.8093459E-001  0.2725917E+03  0.7818608E-02  0.1099805E+00
         -1   -1    0    0    0  501 -0.00000000000E+00  0.00000000000E+00  0.16637071813E+02  0.16637071813E+02  0.00000000000E+00 0. -1.
          1   -1    0    0  501    0  0.00000000000E+00 -0.00000000000E+00 -0.11165761029E+04  0.11165761029E+04  0.00000000000E+00 0. -1.
         35    2    1    2    0    0 -0.71054273576E-14  0.71054273576E-14 -0.10999390311E+04  0.11332131747E+04  0.27259168593E+03 0.  0.
         25    2    3    3    0    0 -0.22439239854E+02  0.27755574647E+02 -0.46027581435E+03  0.48052475962E+03  0.13332789629E+03 0.  0.
         25    2    3    3    0    0  0.22439239854E+02 -0.27755574647E+02 -0.63966321676E+03  0.65268841510E+03  0.12473670243E+03 0.  0.
          5    1    4    4  502    0 -0.58888023752E+02 -0.26363064134E+02 -0.30918424013E+03  0.31587939919E+03  0.47000000000E+01 0. -1.
         -5    1    4    4    0  502  0.36448783898E+02  0.54118638780E+02 -0.15109157422E+03  0.16464536043E+03  0.47000000000E+01 0. -1.
          5    1    5    5  503    0 -0.44740194074E+01 -0.72237118850E+02 -0.45673025439E+03  0.46245306083E+03  0.47000000000E+01 0. -1.
         -5    1    5    5    0  503  0.26913259261E+02  0.44481544204E+02 -0.18293296236E+03  0.19023535428E+03  0.47000000000E+01 0. -1.
<mgrwt>
<rscale>  0 0.27259169E+03</rscale>
<asrwt>0</asrwt>
<pdfrwt beam="1">  1        1 0.17178093E+00 0.27259169E+03</pdfrwt>
<pdfrwt beam="2">  1       -1 0.25595496E-02 0.27259169E+03</pdfrwt>
<totfact> 0.62571465E+03</totfact>
</mgrwt>
</event>
<event>
 9    1  0.8093459E-001  0.2743280E+03  0.7818608E-02  0.1098828E+00
          2   -1    0    0  501    0  0.00000000000E+00  0.00000000000E+00  0.18529422050E+04  0.18529422050E+04  0.00000000000E+00 0.  1.
         -2   -1    0    0    0  501 -0.00000000000E+00 -0.00000000000E+00 -0.10153560680E+02  0.10153560680E+02  0.00000000000E+00 0.  1.
         35    2    1    2    0    0  0.00000000000E+00  0.71054273576E-14  0.18427886443E+04  0.18630957657E+04  0.27432798701E+03 0.  0.
         25    2    3    3    0    0  0.42323854044E+02 -0.30797154338E+02  0.10369185702E+04  0.10458483359E+04  0.12593191468E+03 0.  0.
         25    2    3    3    0    0 -0.42323854044E+02  0.30797154338E+02  0.80587007414E+03  0.81724742980E+03  0.12540738331E+03 0.  0.
          5    1    4    4  502    0 -0.18734463814E+02  0.37811899713E+02  0.41512158854E+03  0.41728736282E+03  0.47000000000E+01 0.  1.
         -5    1    4    4    0  502  0.61058317858E+02 -0.68609054052E+02  0.62179698166E+03  0.62856097308E+03  0.47000000000E+01 0.  1.
          5    1    5    5  503    0 -0.36589648736E+02  0.22388273038E+02  0.76813881921E+02  0.88105048777E+02  0.47000000000E+01 0.  1.
         -5    1    5    5    0  503 -0.57342053084E+01  0.84088813008E+01  0.72905619222E+03  0.72914238102E+03  0.47000000000E+01 0.  1.
<mgrwt>
<rscale>  0 0.27432799E+03</rscale>
<asrwt>0</asrwt>
<pdfrwt beam="1">  1        2 0.28506776E+00 0.27432799E+03</pdfrwt>
<pdfrwt beam="2">  1       -2 0.15620877E-02 0.27432799E+03</pdfrwt>
<totfact> 0.98682103E+03</totfact>
</mgrwt>
</event>
<event>
 9    1  0.8093459E-001  0.2798322E+03  0.7818608E-02  0.1095781E+00
         -1   -1    0    0    0  501 -0.00000000000E+00  0.00000000000E+00  0.97805628389E+02  0.97805628389E+02  0.00000000000E+00 0. -1.
          1   -1    0    0  501    0  0.00000000000E+00 -0.00000000000E+00 -0.20015738772E+03  0.20015738772E+03  0.00000000000E+00 0. -1.
         35    2    1    2    0    0 -0.14210854715E-13 -0.35527136788E-14 -0.10235175933E+03  0.29796301610E+03  0.27983222890E+03 0.  0.
         25    2    3    3    0    0 -0.60013336709E+02  0.11279487357E+02 -0.69701293281E+02  0.15575348536E+03  0.12518806052E+03 0.  0.
         25    2    3    3    0    0  0.60013336709E+02 -0.11279487357E+02 -0.32650466047E+02  0.14220953075E+03  0.12421219861E+03 0.  0.
          5    1    4    4  502    0 -0.68787807324E+02  0.46756114864E+02 -0.77416103494E+01  0.83665520045E+02  0.47000000000E+01 0. -1.
         -5    1    4    4    0  502  0.87744706151E+01 -0.35476627507E+02 -0.61959682932E+02  0.72087965312E+02  0.47000000000E+01 0. -1.
          5    1    5    5  503    0 -0.88530028463E+01  0.15297529285E+02 -0.60477270692E+02  0.63182120351E+02  0.47000000000E+01 0.  1.
         -5    1    5    5    0  503  0.68866339555E+02 -0.26577016642E+02  0.27826804645E+02  0.79027410397E+02  0.47000000000E+01 0.  1.
<mgrwt>
<rscale>  0 0.27983223E+03</rscale>
<asrwt>0</asrwt>
<pdfrwt beam="1">  1        1 0.30793444E-01 0.27983223E+03</pdfrwt>
<pdfrwt beam="2">  1       -1 0.15047020E-01 0.27983223E+03</pdfrwt>
<totfact> 0.46583484E+03</totfact>
</mgrwt>
</event>
<event>
 9    1  0.8093459E-001  0.2756718E+03  0.7818608E-02  0.1098077E+00
         -1   -1    0    0    0  501 -0.00000000000E+00  0.00000000000E+00  0.34305766901E+02  0.34305766901E+02  0.00000000000E+00 0.  1.
          1   -1    0    0  501    0  0.00000000000E+00 -0.00000000000E+00 -0.55380603222E+03  0.55380603222E+03  0.00000000000E+00 0.  1.
         35    2    1    2    0    0 -0.71054273576E-14  0.00000000000E+00 -0.51950026532E+03  0.58811179912E+03  0.27567183860E+03 0.  0.
         25    2    3    3    0    0  0.43179966901E+02 -0.28963978193E+02 -0.20689576606E+03  0.24719447056E+03  0.12488325223E+03 0.  0.
         25    2    3    3    0    0 -0.43179966901E+02  0.28963978193E+02 -0.31260449926E+03  0.34091732856E+03  0.12569658063E+03 0.  0.
          5    1    4    4  502    0 -0.58651191287E+01 -0.48024101560E+02 -0.18276051131E+03  0.18911427352E+03  0.47000000000E+01 0.  1.
         -5    1    4    4    0  502  0.49045086030E+02  0.19060123368E+02 -0.24135254747E+02  0.58080197039E+02  0.47000000000E+01 0.  1.
          5    1    5    5  503    0  0.37001211949E+02  0.39168371068E+02 -0.14561062445E+03  0.15533124261E+03  0.47000000000E+01 0. -1.
         -5    1    5    5    0  503 -0.80181178850E+02 -0.10204392875E+02 -0.16699387481E+03  0.18558608596E+03  0.47000000000E+01 0. -1.
<mgrwt>
<rscale>  0 0.27567184E+03</rscale>
<asrwt>0</asrwt>
<pdfrwt beam="1">  1        1 0.85200924E-01 0.27567184E+03</pdfrwt>
<pdfrwt beam="2">  1       -1 0.52778105E-02 0.27567184E+03</pdfrwt>
<totfact> 0.63504845E+03</totfact>
</mgrwt>
</event>
<event>
 9    1  0.8093459E-001  0.2756270E+03  0.7818608E-02  0.1098102E+00
         -2   -1    0    0    0  501 -0.00000000000E+00  0.00000000000E+00  0.23453810540E+04  0.23453810540E+04  0.00000000000E+00 0.  1.
          2   -1    0    0  501    0  0.00000000000E+00 -0.00000000000E+00 -0.80978548659E+01  0.80978548659E+01  0.00000000000E+00 0.  1.
         35    2    1    2    0    0  0.00000000000E+00  0.00000000000E+00  0.23372831992E+04  0.23534789089E+04  0.27562696080E+03 0.  0.
         25    2    3    3    0    0  0.22249355781E+02  0.25182881495E+02  0.81341886243E+03  0.82365006926E+03  0.12497991636E+03 0.  0.
         25    2    3    3    0    0 -0.22249355781E+02 -0.25182881495E+02  0.15238643367E+04  0.15298288396E+04  0.13070788207E+03 0.  0.
          5    1    4    4  502    0  0.73223925122E+02  0.23672397858E+02  0.43470191244E+03  0.44148609073E+03  0.47000000000E+01 0.  1.
         -5    1    4    4    0  502 -0.50974569342E+02  0.15104836364E+01  0.37871694999E+03  0.38216397853E+03  0.47000000000E+01 0.  1.
          5    1    5    5  503    0  0.58740280256E-01  0.48219017666E+02  0.33531209699E+03  0.33879399272E+03  0.47000000000E+01 0. -1.
         -5    1    5    5    0  503 -0.22308096061E+02 -0.73401899161E+02  0.11885522397E+04  0.11910348469E+04  0.47000000000E+01 0. -1.
<mgrwt>
<rscale>  0 0.27562696E+03</rscale>
<asrwt>0</asrwt>
<pdfrwt beam="1">  1        2 0.12458257E-02 0.27562696E+03</pdfrwt>
<pdfrwt beam="2">  1       -2 0.36082731E+00 0.27562696E+03</pdfrwt>
<totfact> 0.16805334E+02</totfact>
</mgrwt>
</event>
<event>
 9    1  0.8093459E-001  0.2819834E+03  0.7818608E-02  0.1094611E+00
          1   -1    0    0  501    0  0.00000000000E+00  0.00000000000E+00  0.32648419464E+02  0.32648419464E+02  0.00000000000E+00 0. -1.
         -1   -1    0    0    0  501 -0.00000000000E+00 -0.00000000000E+00 -0.60887050934E+03  0.60887050934E+03  0.00000000000E+00 0. -1.
         35    2    1    2    0    0  0.00000000000E+00  0.00000000000E+00 -0.57622208988E+03  0.64151892880E+03  0.28198340226E+03 0.  0.
         25    2    3    3    0    0 -0.55741722940E+02  0.37616084845E+02 -0.28474097374E+03  0.31776634843E+03  0.12399967966E+03 0.  0.
         25    2    3    3    0    0  0.55741722940E+02 -0.37616084845E+02 -0.29148111614E+03  0.32375258037E+03  0.12382399895E+03 0.  0.
          5    1    4    4  502    0  0.32209083321E+02 -0.14799509698E+02 -0.48553045331E+02  0.60298745813E+02  0.47000000000E+01 0.  1.
         -5    1    4    4    0  502 -0.87950806261E+02  0.52415594543E+02 -0.23618792841E+03  0.25746760262E+03  0.47000000000E+01 0.  1.
          5    1    5    5  503    0 -0.34346693200E+02  0.57005362955E+01 -0.12174486594E+03  0.12671264275E+03  0.47000000000E+01 0. -1.
         -5    1    5    5    0  503  0.90088416140E+02 -0.43316621141E+02 -0.16973625019E+03  0.19703993762E+03  0.47000000000E+01 0. -1.
<mgrwt>
<rscale>  0 0.28198340E+03</rscale>
<asrwt>0</asrwt>
<pdfrwt beam="1">  1        1 0.50228340E-02 0.28198340E+03</pdfrwt>
<pdfrwt beam="2">  1       -1 0.93672382E-01 0.28198340E+03</pdfrwt>
<totfact> 0.19256600E+03</totfact>
</mgrwt>
</event>
<event>
 9    1  0.8093459E-001  0.2762873E+03  0.7818608E-02  0.1097734E+00
         -2   -1    0    0    0  501 -0.00000000000E+00  0.00000000000E+00  0.32339543541E+03  0.32339543541E+03  0.00000000000E+00 0.  1.
          2   -1    0    0  501    0  0.00000000000E+00 -0.00000000000E+00 -0.59010330228E+02  0.59010330228E+02  0.00000000000E+00 0.  1.
         35    2    1    2    0    0  0.71054273576E-14  0.00000000000E+00  0.26438510518E+03  0.38240576564E+03  0.27628732463E+03 0.  0.
         25    2    3    3    0    0  0.31235575000E+02 -0.42177692861E+02  0.95398860840E+02  0.16576164490E+03  0.12498544456E+03 0.  0.
         25    2    3    3    0    0 -0.31235575000E+02  0.42177692861E+02  0.16898624434E+03  0.21664412073E+03  0.12499482130E+03 0.  0.
          5    1    4    4  502    0  0.65638518966E+02 -0.58202773948E+02  0.35624115652E+02  0.94800557399E+02  0.47000000000E+01 0. -1.
         -5    1    4    4    0  502 -0.34402943966E+02  0.16025081086E+02  0.59774745188E+02  0.70961087504E+02  0.47000000000E+01 0. -1.
          5    1    5    5  503    0  0.47522833450E+02  0.10805963681E+02  0.78849243878E+02  0.92814232801E+02  0.47000000000E+01 0. -1.
         -5    1    5    5    0  503 -0.78758408450E+02  0.31371729180E+02  0.90137000460E+02  0.12382988793E+03  0.47000000000E+01 0. -1.
<mgrwt>
<rscale>  0 0.27628732E+03</rscale>
<asrwt>0</asrwt>
<pdfrwt beam="1">  1        2 0.90785126E-02 0.27628732E+03</pdfrwt>
<pdfrwt beam="2">  1       -2 0.49753143E-01 0.27628732E+03</pdfrwt>
<totfact> 0.27985839E+03</totfact>
</mgrwt>
</event>
<event>
 9    1  0.8093459E-001  0.2746661E+03  0.7818608E-02  0.1098638E+00
         -2   -1    0    0    0  501 -0.00000000000E+00  0.00000000000E+00  0.70180918361E+02  0.70180918361E+02  0.00000000000E+00 0.  1.
          2   -1    0    0  501    0  0.00000000000E+00 -0.00000000000E+00 -0.26873927812E+03  0.26873927812E+03  0.00000000000E+00 0.  1.
         35    2    1    2    0    0 -0.71054273576E-14  0.00000000000E+00 -0.19855835975E+03  0.33892019648E+03  0.27466611977E+03 0.  0.
         25    2    3    3    0    0 -0.38201199031E+02  0.17432814338E+02 -0.14654308073E+03  0.19675855665E+03  0.12440185079E+03 0.  0.
         25    2    3    3    0    0  0.38201199031E+02 -0.17432814338E+02 -0.52015279027E+02  0.14216163983E+03  0.12546357226E+03 0.  0.
          5    1    4    4  502    0 -0.26550580122E+02 -0.35493315013E+00  0.16931016180E+02  0.31840361042E+02  0.47000000000E+01 0.  1.
         -5    1    4    4    0  502 -0.11650618909E+02  0.17787747488E+02 -0.16347409691E+03  0.16491819560E+03  0.47000000000E+01 0.  1.
          5    1    5    5  503    0 -0.46164463082E+02 -0.24932315819E+01 -0.19645481317E+02  0.50452044474E+02  0.47000000000E+01 0. -1.
         -5    1    5    5    0  503  0.84365662113E+02 -0.14939582756E+02 -0.32369797710E+02  0.91709595357E+02  0.47000000000E+01 0. -1.
<mgrwt>
<rscale>  0 0.27466612E+03</rscale>
<asrwt>0</asrwt>
<pdfrwt beam="1">  1        2 0.41344504E-01 0.27466612E+03</pdfrwt>
<pdfrwt beam="2">  1       -2 0.10797064E-01 0.27466612E+03</pdfrwt>
<totfact> 0.71753385E+03</totfact>
</mgrwt>
</event>
<event>
 9    1  0.8093459E-001  0.2755325E+03  0.7818608E-02  0.1098154E+00
         -2   -1    0    0    0  501 -0.00000000000E+00  0.00000000000E+00  0.81828011663E+02  0.81828011663E+02  0.00000000000E+00 0. -1.
          2   -1    0    0  501    0  0.00000000000E+00 -0.00000000000E+00 -0.23194435453E+03  0.23194435453E+03  0.00000000000E+00 0. -1.
         35    2    1    2    0    0  0.00000000000E+00 -0.14210854715E-13 -0.15011634287E+03  0.31377236619E+03  0.27553254144E+03 0.  0.
         25    2    3    3    0    0 -0.18613924168E+02  0.49359455157E+02 -0.92461299045E+02  0.16494964543E+03  0.12600182427E+03 0.  0.
         25    2    3    3    0    0  0.18613924168E+02 -0.49359455157E+02 -0.57655043824E+02  0.14882272076E+03  0.12665411225E+03 0.  0.
          5    1    4    4  502    0 -0.55385040517E+02  0.65351368221E+02 -0.90243478447E+02  0.12451618145E+03  0.47000000000E+01 0. -1.
         -5    1    4    4    0  502  0.36771116349E+02 -0.15991913064E+02 -0.22178205974E+01  0.40433463977E+02  0.47000000000E+01 0. -1.
          5    1    5    5  503    0 -0.27219754282E+01 -0.51581372095E+01 -0.89704034245E+02  0.90016216814E+02  0.47000000000E+01 0. -1.
         -5    1    5    5    0  503  0.21335899596E+02 -0.44201317947E+02  0.32048990421E+02  0.58806503950E+02  0.47000000000E+01 0. -1.
<mgrwt>
<rscale>  0 0.27553254E+03</rscale>
<asrwt>0</asrwt>
<pdfrwt beam="1">  1        2 0.35683747E-01 0.27553254E+03</pdfrwt>
<pdfrwt beam="2">  1       -2 0.12588925E-01 0.27553254E+03</pdfrwt>
<totfact> 0.65704404E+03</totfact>
</mgrwt>
</event>
<event>
 9    1  0.8093459E-001  0.2732106E+03  0.7818608E-02  0.1099456E+00
          3   -1    0    0  501    0  0.00000000000E+00  0.00000000000E+00  0.26204204104E+02  0.26204204104E+02  0.00000000000E+00 0.  1.
         -3   -1    0    0    0  501 -0.00000000000E+00 -0.00000000000E+00 -0.71213792230E+03  0.71213792230E+03  0.00000000000E+00 0.  1.
         35    2    1    2    0    0 -0.35527136788E-14  0.00000000000E+00 -0.68593371820E+03  0.73834212641E+03  0.27321059618E+03 0.  0.
         25    2    3    3    0    0 -0.70567249561E+01 -0.51196124484E+02 -0.27777128872E+03  0.30872560280E+03  0.12443379148E+03 0.  0.
         25    2    3    3    0    0  0.70567249561E+01  0.51196124484E+02 -0.40816242948E+03  0.42961652360E+03  0.12370508471E+03 0.  0.
          5    1    4    4  502    0 -0.35740656856E+02 -0.49745684995E+01 -0.23901143789E+03  0.24176579230E+03  0.47000000000E+01 0.  1.
         -5    1    4    4    0  502  0.28683931900E+02 -0.46221555985E+02 -0.38759850831E+02  0.66959810508E+02  0.47000000000E+01 0.  1.
          5    1    5    5  503    0  0.15628694423E+02  0.69523700795E+02 -0.11267534530E+03  0.13340024176E+03  0.47000000000E+01 0. -1.
         -5    1    5    5    0  503 -0.85719694672E+01 -0.18327576310E+02 -0.29548708418E+03  0.29621628185E+03  0.47000000000E+01 0. -1.
<mgrwt>
<rscale>  0 0.27321060E+03</rscale>
<asrwt>0</asrwt>
<pdfrwt beam="1">  1        3 0.40314155E-02 0.27321060E+03</pdfrwt>
<pdfrwt beam="2">  1       -3 0.10955970E+00 0.27321060E+03</pdfrwt>
<totfact> 0.59559181E+02</totfact>
</mgrwt>
</event>
<event>
 9    1  0.8093459E-001  0.2715187E+03  0.7818608E-02  0.1100414E+00
          3   -1    0    0  501    0  0.00000000000E+00  0.00000000000E+00  0.58889434097E+03  0.58889434097E+03  0.00000000000E+00 0.  1.
         -3   -1    0    0    0  501 -0.00000000000E+00 -0.00000000000E+00 -0.31296956239E+02  0.31296956239E+02  0.00000000000E+00 0.  1.
         35    2    1    2    0    0  0.00000000000E+00 -0.71054273576E-14  0.55759738473E+03  0.62019129721E+03  0.27151869489E+03 0.  0.
         25    2    3    3    0    0 -0.20519675770E+02 -0.49633820189E+02  0.28659500234E+03  0.31705327774E+03  0.12450506960E+03 0.  0.
         25    2    3    3    0    0  0.20519675770E+02  0.49633820189E+02  0.27100238238E+03  0.30313801947E+03  0.12476295279E+03 0.  0.
          5    1    4    4  502    0 -0.27526796023E+02  0.38213016820E+02  0.97804611619E+02  0.10865445784E+03  0.47000000000E+01 0.  1.
         -5    1    4    4    0  502  0.70071202532E+01 -0.87846837009E+02  0.18879039073E+03  0.20839881990E+03  0.47000000000E+01 0.  1.
          5    1    5    5  503    0 -0.14874731908E+02 -0.29442267873E+02  0.15349637552E+03  0.15707110519E+03  0.47000000000E+01 0.  1.
         -5    1    5    5    0  503  0.35394407678E+02  0.79076088063E+02  0.11750600686E+03  0.14606691428E+03  0.47000000000E+01 0.  1.
<mgrwt>
<rscale>  0 0.27151869E+03</rscale>
<asrwt>0</asrwt>
<pdfrwt beam="1">  1        3 0.90599121E-01 0.27151869E+03</pdfrwt>
<pdfrwt beam="2">  1       -3 0.48149168E-02 0.27151869E+03</pdfrwt>
<totfact> 0.69592712E+02</totfact>
</mgrwt>
</event>
<event>
 9    1  0.8093459E-001  0.2744763E+03  0.7818608E-02  0.1098745E+00
          2   -1    0    0  501    0  0.00000000000E+00  0.00000000000E+00  0.37452302304E+02  0.37452302304E+02  0.00000000000E+00 0. -1.
         -2   -1    0    0    0  501 -0.00000000000E+00 -0.00000000000E+00 -0.50288790942E+03  0.50288790942E+03  0.00000000000E+00 0. -1.
         35    2    1    2    0    0  0.00000000000E+00 -0.71054273576E-14 -0.46543560712E+03  0.54034021173E+03  0.27447630141E+03 0.  0.
         25    2    3    3    0    0  0.39094221343E+02 -0.31485798575E+02 -0.17986595063E+03  0.22458503317E+03  0.12476763713E+03 0.  0.
         25    2    3    3    0    0 -0.39094221343E+02  0.31485798575E+02 -0.28556965649E+03  0.31575517855E+03  0.12502635891E+03 0.  0.
          5    1    4    4  502    0  0.43755378491E+02 -0.66443270967E+02 -0.16985922200E+03  0.18762592225E+03  0.47000000000E+01 0.  1.
         -5    1    4    4    0  502 -0.46611571479E+01  0.34957472393E+02 -0.10006728632E+02  0.36959110919E+02  0.47000000000E+01 0.  1.
          5    1    5    5  503    0 -0.17836276793E+02  0.45982877671E+02 -0.28532819457E+03  0.28959769755E+03  0.47000000000E+01 0.  1.
         -5    1    5    5    0  503 -0.21257944550E+02 -0.14497079096E+02 -0.24146192072E+00  0.26157481007E+02  0.47000000000E+01 0.  1.
<mgrwt>
<rscale>  0 0.27447630E+03</rscale>
<asrwt>0</asrwt>
<pdfrwt beam="1">  1        2 0.57618926E-02 0.27447630E+03</pdfrwt>
<pdfrwt beam="2">  1       -2 0.77367371E-01 0.27447630E+03</pdfrwt>
<totfact> 0.19943837E+03</totfact>
</mgrwt>
</event>
<event>
 9    1  0.8093459E-001  0.2763810E+03  0.7818608E-02  0.1097682E+00
          1   -1    0    0  501    0  0.00000000000E+00  0.00000000000E+00  0.15375451974E+03  0.15375451974E+03  0.00000000000E+00 0.  1.
         -1   -1    0    0    0  501 -0.00000000000E+00 -0.00000000000E+00 -0.12420193362E+03  0.12420193362E+03  0.00000000000E+00 0.  1.
         35    2    1    2    0    0  0.00000000000E+00 -0.71054273576E-14  0.29552586120E+02  0.27795645336E+03  0.27638095922E+03 0.  0.
         25    2    3    3    0    0  0.21318948759E+02 -0.53011522392E+02  0.17275723173E+01  0.13801824505E+03  0.12562377314E+03 0.  0.
         25    2    3    3    0    0 -0.21318948759E+02  0.53011522392E+02  0.27825013803E+02  0.13993820831E+03  0.12467458309E+03 0.  0.
          5    1    4    4  502    0 -0.37577194921E+02 -0.28091070855E+02 -0.39731502541E+02  0.61659031245E+02  0.47000000000E+01 0. -1.
         -5    1    4    4    0  502  0.58896143680E+02 -0.24920451537E+02  0.41459074858E+02  0.76359213807E+02  0.47000000000E+01 0. -1.
          5    1    5    5  503    0 -0.17177235561E+02  0.88034811196E+02  0.44966262205E+02  0.10044520964E+03  0.47000000000E+01 0.  1.
         -5    1    5    5    0  503 -0.41417131981E+01 -0.35023288804E+02 -0.17141248402E+02  0.39492998666E+02  0.47000000000E+01 0.  1.
<mgrwt>
<rscale>  0 0.27638096E+03</rscale>
<asrwt>0</asrwt>
<pdfrwt beam="1">  1        1 0.23654541E-01 0.27638096E+03</pdfrwt>
<pdfrwt beam="2">  1       -1 0.19107990E-01 0.27638096E+03</pdfrwt>
<totfact> 0.44365795E+03</totfact>
</mgrwt>
</event>
<event>
 9    1  0.8093459E-001  0.2680400E+03  0.7818608E-02  0.1102407E+00
         -3   -1    0    0    0  501 -0.00000000000E+00  0.00000000000E+00  0.19493253364E+03  0.19493253364E+03  0.00000000000E+00 0. -1.
          3   -1    0    0  501    0  0.00000000000E+00 -0.00000000000E+00 -0.92141442220E+02  0.92141442220E+02  0.00000000000E+00 0. -1.
         35    2    1    2    0    0 -0.71054273576E-14 -0.35527136788E-14  0.10279109142E+03  0.28707397586E+03  0.26804003272E+03 0.  0.
         25    2    3    3    0    0  0.41493417290E+02  0.22719630847E+02  0.59257692628E+02  0.14622353617E+03  0.12502784926E+03 0.  0.
         25    2    3    3    0    0 -0.41493417290E+02 -0.22719630847E+02  0.43533398790E+02  0.14085043969E+03  0.12532280018E+03 0.  0.
          5    1    4    4  502    0  0.73824517516E+02  0.50951940739E+02  0.46793752939E+02  0.10128131598E+03  0.47000000000E+01 0.  1.
         -5    1    4    4    0  502 -0.32331100226E+02 -0.28232309892E+02  0.12463939689E+02  0.44942220197E+02  0.47000000000E+01 0.  1.
          5    1    5    5  503    0 -0.24624361958E+02 -0.32891576715E+01  0.86736187527E+02  0.90346189664E+02  0.47000000000E+01 0.  1.
         -5    1    5    5    0  503 -0.16869055332E+02 -0.19430473176E+02 -0.43202788737E+02  0.50504250022E+02  0.47000000000E+01 0.  1.
<mgrwt>
<rscale>  0 0.26804003E+03</rscale>
<asrwt>0</asrwt>
<pdfrwt beam="1">  1        3 0.14175607E-01 0.26804003E+03</pdfrwt>
<pdfrwt beam="2">  1       -3 0.29989620E-01 0.26804003E+03</pdfrwt>
<totfact> 0.11147154E+03</totfact>
</mgrwt>
</event>
<event>
 9    1  0.8093459E-001  0.2738519E+03  0.7818608E-02  0.1099095E+00
         -2   -1    0    0    0  501 -0.00000000000E+00  0.00000000000E+00  0.55445047886E+03  0.55445047886E+03  0.00000000000E+00 0. -1.
          2   -1    0    0  501    0  0.00000000000E+00 -0.00000000000E+00 -0.33814960786E+02  0.33814960786E+02  0.00000000000E+00 0. -1.
         35    2    1    2    0    0  0.00000000000E+00  0.00000000000E+00  0.52063551808E+03  0.58826543965E+03  0.27385193956E+03 0.  0.
         25    2    3    3    0    0  0.34415980942E+01  0.54653213406E+02  0.27492253222E+03  0.30737169377E+03  0.12607989957E+03 0.  0.
         25    2    3    3    0    0 -0.34415980942E+01 -0.54653213406E+02  0.24571298586E+03  0.28089374588E+03  0.12460981792E+03 0.  0.
          5    1    4    4  502    0 -0.33002034929E+02  0.60935907768E+02  0.25659826732E+03  0.26583280452E+03  0.47000000000E+01 0. -1.
         -5    1    4    4    0  502  0.36443633023E+02 -0.62826943621E+01  0.18324264896E+02  0.41538889253E+02  0.47000000000E+01 0. -1.
          5    1    5    5  503    0 -0.34212465150E+02 -0.61803354431E+02  0.23762478895E+03  0.24794712685E+03  0.47000000000E+01 0. -1.
         -5    1    5    5    0  503  0.30770867056E+02  0.71501410252E+01  0.80881969078E+01  0.32946619026E+02  0.47000000000E+01 0. -1.
<mgrwt>
<rscale>  0 0.27385194E+03</rscale>
<asrwt>0</asrwt>
<pdfrwt beam="1">  1        2 0.52023021E-02 0.27385194E+03</pdfrwt>
<pdfrwt beam="2">  1       -2 0.85300067E-01 0.27385194E+03</pdfrwt>
<totfact> 0.18375482E+03</totfact>
</mgrwt>
</event>
<event>
 9    1  0.8093459E-001  0.2963084E+03  0.7818608E-02  0.1087101E+00
          1   -1    0    0  501    0  0.00000000000E+00  0.00000000000E+00  0.30966429106E+03  0.30966429106E+03  0.00000000000E+00 0.  1.
         -1   -1    0    0    0  501 -0.00000000000E+00 -0.00000000000E+00 -0.70882130952E+02  0.70882130952E+02  0.00000000000E+00 0.  1.
         35    2    1    2    0    0  0.14210854715E-13 -0.35527136788E-14  0.23878216010E+03  0.38054642201E+03  0.29630838550E+03 0.  0.
         25    2    3    3    0    0  0.67750763619E+02 -0.19541925803E+02  0.15405064233E+03  0.21048127404E+03  0.12489480969E+03 0.  0.
         25    2    3    3    0    0 -0.67750763619E+02  0.19541925803E+02  0.84731517776E+02  0.17006514796E+03  0.12950162784E+03 0.  0.
          5    1    4    4  502    0  0.56912349594E+02  0.19150135763E+02  0.10248855452E+02  0.61097236223E+02  0.47000000000E+01 0.  1.
         -5    1    4    4    0  502  0.10838414025E+02 -0.38692061566E+02  0.14380178688E+03  0.14938403782E+03  0.47000000000E+01 0.  1.
          5    1    5    5  503    0  0.33827056084E+02 -0.17843398229E+02  0.15747642975E+02  0.41626131731E+02  0.47000000000E+01 0.  1.
         -5    1    5    5    0  503 -0.10157781970E+03  0.37385324031E+02  0.68983874801E+02  0.12843901623E+03  0.47000000000E+01 0.  1.
<mgrwt>
<rscale>  0 0.29630839E+03</rscale>
<asrwt>0</asrwt>
<pdfrwt beam="1">  1        1 0.47640659E-01 0.29630839E+03</pdfrwt>
<pdfrwt beam="2">  1       -1 0.10904943E-01 0.29630839E+03</pdfrwt>
<totfact> 0.44678060E+03</totfact>
</mgrwt>
</event>
<event>
 9    1  0.8093459E-001  0.2798957E+03  0.7818608E-02  0.1095746E+00
         -1   -1    0    0    0  501 -0.00000000000E+00  0.00000000000E+00  0.14019758785E+03  0.14019758785E+03  0.00000000000E+00 0.  1.
          1   -1    0    0  501    0  0.00000000000E+00 -0.00000000000E+00 -0.13969859928E+03  0.13969859928E+03  0.00000000000E+00 0.  1.
         35    2    1    2    0    0  0.00000000000E+00  0.00000000000E+00  0.49898856672E+00  0.27989618713E+03  0.27989574234E+03 0.  0.
         25    2    3    3    0    0  0.38302102083E+02 -0.21613415603E+02  0.43875577660E+02  0.14022544481E+03  0.12571363609E+03 0.  0.
         25    2    3    3    0    0 -0.38302102083E+02  0.21613415603E+02 -0.43376589093E+02  0.13967074232E+03  0.12526849971E+03 0.  0.
          5    1    4    4  502    0  0.71311962577E+02 -0.15250684923E+02  0.67008969575E+02  0.99147725142E+02  0.47000000000E+01 0. -1.
         -5    1    4    4    0  502 -0.33009860495E+02 -0.63627306798E+01 -0.23133391915E+02  0.41077719668E+02  0.47000000000E+01 0. -1.
          5    1    5    5  503    0  0.18025679701E+01 -0.41870238953E+02 -0.48486194588E+02  0.64260152715E+02  0.47000000000E+01 0.  1.
         -5    1    5    5    0  503 -0.40104670053E+02  0.63483654556E+02  0.51096054947E+01  0.75410589603E+02  0.47000000000E+01 0.  1.
<mgrwt>
<rscale>  0 0.27989574E+03</rscale>
<asrwt>0</asrwt>
<pdfrwt beam="1">  1        1 0.21492092E-01 0.27989574E+03</pdfrwt>
<pdfrwt beam="2">  1       -1 0.21568860E-01 0.27989574E+03</pdfrwt>
<totfact> 0.41193554E+03</totfact>
</mgrwt>
</event>
<event>
 9    1  0.8093459E-001  0.2719562E+03  0.7818608E-02  0.1100165E+00
          2   -1    0    0  501    0  0.00000000000E+00  0.00000000000E+00  0.46939488708E+03  0.46939488708E+03  0.00000000000E+00 0. -1.
         -2   -1    0    0    0  501 -0.00000000000E+00 -0.00000000000E+00 -0.39391243003E+02  0.39391243003E+02  0.00000000000E+00 0. -1.
         35    2    1    2    0    0 -0.17763568394E-14  0.00000000000E+00  0.43000364408E+03  0.50878613009E+03  0.27195623223E+03 0.  0.
         25    2    3    3    0    0  0.69477120667E+01  0.27028000913E+02  0.29439948105E+03  0.32044736426E+03  0.12343692835E+03 0.  0.
         25    2    3    3    0    0 -0.69477120667E+01 -0.27028000913E+02  0.13560416302E+03  0.18833876582E+03  0.12768797181E+03 0.  0.
          5    1    4    4  502    0  0.81985903811E+01 -0.36757805465E+02  0.29883757123E+02  0.48306128873E+02  0.47000000000E+01 0.  1.
         -5    1    4    4    0  502 -0.12508783144E+01  0.63785806378E+02  0.26451572393E+03  0.27214123539E+03  0.47000000000E+01 0.  1.
          5    1    5    5  503    0  0.23975577616E+02  0.45080627614E+02  0.43378982826E+02  0.67163363965E+02  0.47000000000E+01 0. -1.
         -5    1    5    5    0  503 -0.30923289683E+02 -0.72108628527E+02  0.92225180198E+02  0.12117540186E+03  0.47000000000E+01 0. -1.
<mgrwt>
<rscale>  0 0.27195623E+03</rscale>
<asrwt>0</asrwt>
<pdfrwt beam="1">  1        2 0.72214594E-01 0.27195623E+03</pdfrwt>
<pdfrwt beam="2">  1       -2 0.60601916E-02 0.27195623E+03</pdfrwt>
<totfact> 0.96767519E+03</totfact>
</mgrwt>
</event>
<event>
 9    1  0.8093459E-001  0.2758350E+03  0.7818608E-02  0.1097986E+00
          1   -1    0    0  501    0  0.00000000000E+00  0.00000000000E+00  0.80066942102E+02  0.80066942102E+02  0.00000000000E+00 0.  1.
         -1   -1    0    0    0  501 -0.00000000000E+00 -0.00000000000E+00 -0.23756669959E+03  0.23756669959E+03  0.00000000000E+00 0.  1.
         35    2    1    2    0    0 -0.71054273576E-14 -0.35527136788E-14 -0.15749975749E+03  0.31763364169E+03  0.27583501722E+03 0.  0.
         25    2    3    3    0    0  0.34603327446E+02 -0.92184545517E+00 -0.13212780744E+03  0.18510562365E+03  0.12493235905E+03 0.  0.
         25    2    3    3    0    0 -0.34603327446E+02  0.92184545517E+00 -0.25371950042E+02  0.13252801804E+03  0.12538620198E+03 0.  0.
          5    1    4    4  502    0  0.69535963099E+02  0.34776050740E+02 -0.65931710125E+02  0.10204755886E+03  0.47000000000E+01 0. -1.
         -5    1    4    4    0  502 -0.34932635653E+02 -0.35697896195E+02 -0.66196097318E+02  0.83058064790E+02  0.47000000000E+01 0. -1.
          5    1    5    5  503    0  0.14415469898E+02  0.25178845251E+02 -0.60566031815E+02  0.67320979125E+02  0.47000000000E+01 0. -1.
         -5    1    5    5    0  503 -0.49018797344E+02 -0.24256999796E+02  0.35194081773E+02  0.65207038914E+02  0.47000000000E+01 0. -1.
<mgrwt>
<rscale>  0 0.27583502E+03</rscale>
<asrwt>0</asrwt>
<pdfrwt beam="1">  1        1 0.12317991E-01 0.27583502E+03</pdfrwt>
<pdfrwt beam="2">  1       -1 0.36548723E-01 0.27583502E+03</pdfrwt>
<totfact> 0.34946270E+03</totfact>
</mgrwt>
</event>
<event>
 9    1  0.8093459E-001  0.2798794E+03  0.7818608E-02  0.1095755E+00
         -2   -1    0    0    0  501 -0.00000000000E+00  0.00000000000E+00  0.25847230556E+02  0.25847230556E+02  0.00000000000E+00 0. -1.
          2   -1    0    0  501    0  0.00000000000E+00 -0.00000000000E+00 -0.75764881653E+03  0.75764881653E+03  0.00000000000E+00 0. -1.
         35    2    1    2    0    0  0.00000000000E+00 -0.35527136788E-14 -0.73180158598E+03  0.78349604709E+03  0.27987942862E+03 0.  0.
         25    2    3    3    0    0 -0.49454165002E+02  0.18068405139E+02 -0.45999909900E+03  0.47987939447E+03  0.12614626612E+03 0.  0.
         25    2    3    3    0    0  0.49454165002E+02 -0.18068405139E+02 -0.27180248698E+03  0.30361665262E+03  0.12463666443E+03 0.  0.
          5    1    4    4  502    0 -0.24104373848E+02  0.71390142306E+02 -0.29727461346E+03  0.30671136116E+03  0.47000000000E+01 0.  1.
         -5    1    4    4    0  502 -0.25349791154E+02 -0.53321737167E+02 -0.16272448554E+03  0.17316803331E+03  0.47000000000E+01 0.  1.
          5    1    5    5  503    0  0.10791982201E+02  0.11814739070E+02  0.87279364554E+01  0.18823437887E+02  0.47000000000E+01 0.  1.
         -5    1    5    5    0  503  0.38662182801E+02 -0.29883144209E+02 -0.28053042343E+03  0.28479321473E+03  0.47000000000E+01 0.  1.
<mgrwt>
<rscale>  0 0.27987943E+03</rscale>
<asrwt>0</asrwt>
<pdfrwt beam="1">  1        2 0.11656135E+00 0.27987943E+03</pdfrwt>
<pdfrwt beam="2">  1       -2 0.39764973E-02 0.27987943E+03</pdfrwt>
<totfact> 0.10512471E+04</totfact>
</mgrwt>
</event>
<event>
 9    1  0.8093459E-001  0.2667677E+03  0.7818608E-02  0.1103144E+00
          1   -1    0    0  501    0  0.00000000000E+00  0.00000000000E+00  0.22326082185E+03  0.22326082185E+03  0.00000000000E+00 0. -1.
         -1   -1    0    0    0  501 -0.00000000000E+00 -0.00000000000E+00 -0.79688204660E+02  0.79688204660E+02  0.00000000000E+00 0. -1.
         35    2    1    2    0    0  0.71054273576E-14  0.00000000000E+00  0.14357261719E+03  0.30294902651E+03  0.26676771967E+03 0.  0.
         25    2    3    3    0    0  0.11436153869E+02  0.31614938290E+02  0.93018078430E+02  0.16389312839E+03  0.13068398786E+03 0.  0.
         25    2    3    3    0    0 -0.11436153869E+02 -0.31614938290E+02  0.50554538764E+02  0.13905589812E+03  0.12510192434E+03 0.  0.
          5    1    4    4  502    0 -0.48306227489E+02  0.44662500187E+02  0.75199057788E+02  0.10002609074E+03  0.47000000000E+01 0.  1.
         -5    1    4    4    0  502  0.59742381358E+02 -0.13047561898E+02  0.17819020641E+02  0.63867037651E+02  0.47000000000E+01 0.  1.
          5    1    5    5  503    0 -0.23012983346E+02 -0.29610316816E+02 -0.35633262236E+02  0.51944081876E+02  0.47000000000E+01 0. -1.
         -5    1    5    5    0  503  0.11576829477E+02 -0.20046214737E+01  0.86187801000E+02  0.87111816243E+02  0.47000000000E+01 0. -1.
<mgrwt>
<rscale>  0 0.26676772E+03</rscale>
<asrwt>0</asrwt>
<pdfrwt beam="1">  1        1 0.34347818E-01 0.26676772E+03</pdfrwt>
<pdfrwt beam="2">  1       -1 0.12259724E-01 0.26676772E+03</pdfrwt>
<totfact> 0.55974986E+03</totfact>
</mgrwt>
</event>
<event>
 9    1  0.8093459E-001  0.2761110E+03  0.7818608E-02  0.1097832E+00
          1   -1    0    0  501    0  0.00000000000E+00  0.00000000000E+00  0.12486638469E+04  0.12486638469E+04  0.00000000000E+00 0.  1.
         -1   -1    0    0    0  501 -0.00000000000E+00 -0.00000000000E+00 -0.15263774666E+02  0.15263774666E+02  0.00000000000E+00 0.  1.
         35    2    1    2    0    0 -0.71054273576E-14  0.00000000000E+00  0.12334000723E+04  0.12639276216E+04  0.27611101821E+03 0.  0.
         25    2    3    3    0    0  0.54410234058E+02 -0.96772556413E+01  0.50613163642E+03  0.52333017117E+03  0.12104177717E+03 0.  0.
         25    2    3    3    0    0 -0.54410234058E+02  0.96772556413E+01  0.72726843585E+03  0.74059745044E+03  0.12849545892E+03 0.  0.
          5    1    4    4  502    0 -0.37038251052E+01  0.31647166001E+02  0.38168556185E+02  0.49941867381E+02  0.47000000000E+01 0. -1.
         -5    1    4    4    0  502  0.58114059163E+02 -0.41324421642E+02  0.46796308024E+03  0.47338830379E+03  0.47000000000E+01 0. -1.
          5    1    5    5  503    0 -0.20439712285E+02 -0.30303153580E+02  0.54621534553E+02  0.65891311963E+02  0.47000000000E+01 0. -1.
         -5    1    5    5    0  503 -0.33970521773E+02  0.39980409222E+02  0.67264690130E+03  0.67470613847E+03  0.47000000000E+01 0. -1.
<mgrwt>
<rscale>  0 0.27611102E+03</rscale>
<asrwt>0</asrwt>
<pdfrwt beam="1">  1        1 0.19210205E+00 0.27611102E+03</pdfrwt>
<pdfrwt beam="2">  1       -1 0.23482740E-02 0.27611102E+03</pdfrwt>
<totfact> 0.57346845E+03</totfact>
</mgrwt>
</event>
<event>
 9    1  0.8093459E-001  0.2785274E+03  0.7818608E-02  0.1096496E+00
         -4   -1    0    0    0  501 -0.00000000000E+00  0.00000000000E+00  0.83369936670E+03  0.83369936670E+03  0.00000000000E+00 0. -1.
          4   -1    0    0  501    0  0.00000000000E+00 -0.00000000000E+00 -0.23263040041E+02  0.23263040041E+02  0.00000000000E+00 0. -1.
         35    2    1    2    0    0  0.71054273576E-14  0.71054273576E-14  0.81043632666E+03  0.85696240674E+03  0.27852742594E+03 0.  0.
         25    2    3    3    0    0 -0.50087740505E+02 -0.34802987084E+02  0.46519120518E+03  0.48489061818E+03  0.12245825643E+03 0.  0.
         25    2    3    3    0    0  0.50087740505E+02  0.34802987084E+02  0.34524512148E+03  0.37207178856E+03  0.12459210358E+03 0.  0.
          5    1    4    4  502    0 -0.10130755418E+02 -0.70309948603E+02  0.16149636975E+03  0.17649161034E+03  0.47000000000E+01 0. -1.
         -5    1    4    4    0  502 -0.39956985087E+02  0.35506961519E+02  0.30369483542E+03  0.30839900784E+03  0.47000000000E+01 0. -1.
          5    1    5    5  503    0  0.21025428629E+02  0.78519449037E+02  0.25362171256E+03  0.26637086103E+03  0.47000000000E+01 0. -1.
         -5    1    5    5    0  503  0.29062311876E+02 -0.43716461953E+02  0.91623408927E+02  0.10570092753E+03  0.47000000000E+01 0. -1.
<mgrwt>
<rscale>  0 0.27852743E+03</rscale>
<asrwt>0</asrwt>
<pdfrwt beam="1">  1        4 0.35789299E-02 0.27852743E+03</pdfrwt>
<pdfrwt beam="2">  1       -4 0.12826142E+00 0.27852743E+03</pdfrwt>
<totfact> 0.35936535E+02</totfact>
</mgrwt>
</event>
<event>
 9    1  0.8093459E-001  0.2941922E+03  0.7818608E-02  0.1088180E+00
         -2   -1    0    0    0  501 -0.00000000000E+00  0.00000000000E+00  0.85452203941E+01  0.85452203941E+01  0.00000000000E+00 0.  1.
          2   -1    0    0  501    0  0.00000000000E+00 -0.00000000000E+00 -0.25320890454E+04  0.25320890454E+04  0.00000000000E+00 0.  1.
         35    2    1    2    0    0  0.71054273576E-14 -0.35527136788E-14 -0.25235438250E+04  0.25406342658E+04  0.29419217495E+03 0.  0.
         25    2    3    3    0    0  0.60081140536E+02  0.12350800573E+02 -0.16926114469E+04  0.16983380769E+04  0.12512564694E+03 0.  0.
         25    2    3    3    0    0 -0.60081140536E+02 -0.12350800573E+02 -0.83093237812E+03  0.84229618892E+03  0.12349885478E+03 0.  0.
          5    1    4    4  502    0 -0.29058328388E+02  0.24590842593E+02 -0.25098708768E+03  0.25390097316E+03  0.47000000000E+01 0. -1.
         -5    1    4    4    0  502  0.89139468924E+02 -0.12240042020E+02 -0.14416243592E+04  0.14444371037E+04  0.47000000000E+01 0. -1.
          5    1    5    5  503    0 -0.31992901976E+02 -0.40279194333E+02 -0.12518883764E+03  0.13542634287E+03  0.47000000000E+01 0. -1.
         -5    1    5    5    0  503 -0.28088238560E+02  0.27928393760E+02 -0.70574354048E+03  0.70686984605E+03  0.47000000000E+01 0. -1.
<mgrwt>
<rscale>  0 0.29419217E+03</rscale>
<asrwt>0</asrwt>
<pdfrwt beam="1">  1        2 0.38955269E+00 0.29419217E+03</pdfrwt>
<pdfrwt beam="2">  1       -2 0.13146475E-02 0.29419217E+03</pdfrwt>
<totfact> 0.55084453E+03</totfact>
</mgrwt>
</event>
<event>
 9    1  0.8093459E-001  0.2757770E+03  0.7818608E-02  0.1098018E+00
          2   -1    0    0  501    0  0.00000000000E+00  0.00000000000E+00  0.16701773207E+03  0.16701773207E+03  0.00000000000E+00 0.  1.
         -2   -1    0    0    0  501 -0.00000000000E+00 -0.00000000000E+00 -0.11383960428E+03  0.11383960428E+03  0.00000000000E+00 0.  1.
         35    2    1    2    0    0  0.71054273576E-14 -0.71054273576E-14  0.53178127792E+02  0.28085733635E+03  0.27577695717E+03 0.  0.
         25    2    3    3    0    0 -0.17979663902E+02  0.58333659836E+02  0.17391035017E+02  0.13888589356E+03  0.12353444518E+03 0.  0.
         25    2    3    3    0    0  0.17979663902E+02 -0.58333659836E+02  0.35787092775E+02  0.14197144280E+03  0.12308164110E+03 0.  0.
          5    1    4    4  502    0 -0.37946030692E+02 -0.25830019646E+02 -0.11524107447E+02  0.47560342857E+02  0.47000000000E+01 0.  1.
         -5    1    4    4    0  502  0.19966366791E+02  0.84163679482E+02  0.28915142465E+02  0.91325550699E+02  0.47000000000E+01 0.  1.
          5    1    5    5  503    0 -0.42530044153E+02  0.12019312869E+02  0.10248152485E+02  0.45611217555E+02  0.47000000000E+01 0.  1.
         -5    1    5    5    0  503  0.60509708055E+02 -0.70352972705E+02  0.25538940290E+02  0.96360225241E+02  0.47000000000E+01 0.  1.
<mgrwt>
<rscale>  0 0.27577696E+03</rscale>
<asrwt>0</asrwt>
<pdfrwt beam="1">  1        2 0.25695036E-01 0.27577696E+03</pdfrwt>
<pdfrwt beam="2">  1       -2 0.17513785E-01 0.27577696E+03</pdfrwt>
<totfact> 0.54631097E+03</totfact>
</mgrwt>
</event>
<event>
 9    1  0.8093459E-001  0.2670779E+03  0.7818608E-02  0.1102964E+00
          1   -1    0    0  501    0  0.00000000000E+00  0.00000000000E+00  0.16597792546E+02  0.16597792546E+02  0.00000000000E+00 0.  1.
         -1   -1    0    0    0  501 -0.00000000000E+00 -0.00000000000E+00 -0.10743990508E+04  0.10743990508E+04  0.00000000000E+00 0.  1.
         35    2    1    2    0    0  0.35527136788E-14 -0.35527136788E-14 -0.10578012583E+04  0.10909968434E+04  0.26707791041E+03 0.  0.
         25    2    3    3    0    0  0.24622394935E+02 -0.27022372220E+02 -0.65530296412E+03  0.66770106424E+03  0.12274471664E+03 0.  0.
         25    2    3    3    0    0 -0.24622394935E+02  0.27022372220E+02 -0.40249829416E+03  0.42329577914E+03  0.12584899245E+03 0.  0.
          5    1    4    4  502    0  0.57204001409E+02 -0.43543218617E+02 -0.23520165610E+03  0.24598824910E+03  0.47000000000E+01 0.  1.
         -5    1    4    4    0  502 -0.32581606474E+02  0.16520846397E+02 -0.42010130802E+03  0.42171281514E+03  0.47000000000E+01 0.  1.
          5    1    5    5  503    0  0.28946259300E+02 -0.79137790964E+01 -0.22183802759E+02  0.37612829352E+02  0.47000000000E+01 0. -1.
         -5    1    5    5    0  503 -0.53568654235E+02  0.34936151316E+02 -0.38031449140E+03  0.38568294979E+03  0.47000000000E+01 0. -1.
<mgrwt>
<rscale>  0 0.26707791E+03</rscale>
<asrwt>0</asrwt>
<pdfrwt beam="1">  1        1 0.25535067E-02 0.26707791E+03</pdfrwt>
<pdfrwt beam="2">  1       -1 0.16529215E+00 0.26707791E+03</pdfrwt>
<totfact> 0.12442993E+03</totfact>
</mgrwt>
</event>
<event>
 9    1  0.8093459E-001  0.2689947E+03  0.7818608E-02  0.1101856E+00
          4   -1    0    0  501    0  0.00000000000E+00  0.00000000000E+00  0.37291692404E+02  0.37291692404E+02  0.00000000000E+00 0.  1.
         -4   -1    0    0    0  501 -0.00000000000E+00 -0.00000000000E+00 -0.48508233810E+03  0.48508233810E+03  0.00000000000E+00 0.  1.
         35    2    1    2    0    0 -0.88817841970E-15  0.71054273576E-14 -0.44779064569E+03  0.52237403050E+03  0.26899473112E+03 0.  0.
         25    2    3    3    0    0 -0.47628156847E+01  0.49097480664E+02 -0.23563990470E+03  0.27093119376E+03  0.12427509825E+03 0.  0.
         25    2    3    3    0    0  0.47628156847E+01 -0.49097480664E+02 -0.21215074099E+03  0.25144283674E+03  0.12562768892E+03 0.  0.
          5    1    4    4  502    0 -0.63643946356E+01  0.83086852014E+02 -0.21553344875E+03  0.23112915875E+03  0.47000000000E+01 0.  1.
         -5    1    4    4    0  502  0.16015789509E+01 -0.33989371349E+02 -0.20106455952E+02  0.39802035008E+02  0.47000000000E+01 0.  1.
          5    1    5    5  503    0  0.24578978294E+02  0.33877853497E+02 -0.34989157287E+02  0.54755513505E+02  0.47000000000E+01 0.  1.
         -5    1    5    5    0  503 -0.19816162610E+02 -0.82975334162E+02 -0.17716158370E+03  0.19668732323E+03  0.47000000000E+01 0.  1.
<mgrwt>
<rscale>  0 0.26899473E+03</rscale>
<asrwt>0</asrwt>
<pdfrwt beam="1">  1        4 0.57371838E-02 0.26899473E+03</pdfrwt>
<pdfrwt beam="2">  1       -4 0.74628048E-01 0.26899473E+03</pdfrwt>
<totfact> 0.59123889E+02</totfact>
</mgrwt>
</event>
<event>
 9    1  0.8093459E-001  0.2740559E+03  0.7818608E-02  0.1098980E+00
          2   -1    0    0  501    0  0.00000000000E+00  0.00000000000E+00  0.95371712893E+02  0.95371712893E+02  0.00000000000E+00 0.  1.
         -2   -1    0    0    0  501 -0.00000000000E+00 -0.00000000000E+00 -0.19687876570E+03  0.19687876570E+03  0.00000000000E+00 0.  1.
         35    2    1    2    0    0 -0.17763568394E-14  0.00000000000E+00 -0.10150705281E+03  0.29225047860E+03  0.27405594405E+03 0.  0.
         25    2    3    3    0    0 -0.12135378737E+01 -0.25672116980E+02  0.96712037160E+00  0.12825397092E+03  0.12564877823E+03 0.  0.
         25    2    3    3    0    0  0.12135378737E+01  0.25672116980E+02 -0.10247417318E+03  0.16399650768E+03  0.12543272339E+03 0.  0.
          5    1    4    4  502    0  0.38327704588E+01 -0.71400181770E+02  0.25306755415E+02  0.75994723211E+02  0.47000000000E+01 0.  1.
         -5    1    4    4    0  502 -0.50463083325E+01  0.45728064790E+02 -0.24339635044E+02  0.52259247711E+02  0.47000000000E+01 0.  1.
          5    1    5    5  503    0 -0.40656820783E+02  0.15840027728E+01 -0.10765934497E+03  0.11518728532E+03  0.47000000000E+01 0. -1.
         -5    1    5    5    0  503  0.41870358656E+02  0.24088114208E+02  0.51851717880E+01  0.48809222351E+02  0.47000000000E+01 0. -1.
<mgrwt>
<rscale>  0 0.27405594E+03</rscale>
<asrwt>0</asrwt>
<pdfrwt beam="1">  1        2 0.14672571E-01 0.27405594E+03</pdfrwt>
<pdfrwt beam="2">  1       -2 0.30289041E-01 0.27405594E+03</pdfrwt>
<totfact> 0.39979254E+03</totfact>
</mgrwt>
</event>
<event>
 9    1  0.8093459E-001  0.2760155E+03  0.7818608E-02  0.1097885E+00
          1   -1    0    0  501    0  0.00000000000E+00  0.00000000000E+00  0.68763719410E+03  0.68763719410E+03  0.00000000000E+00 0.  1.
         -1   -1    0    0    0  501 -0.00000000000E+00 -0.00000000000E+00 -0.27697944878E+02  0.27697944878E+02  0.00000000000E+00 0.  1.
         35    2    1    2    0    0  0.00000000000E+00 -0.14210854715E-13  0.65993924922E+03  0.71533513898E+03  0.27601548579E+03 0.  0.
         25    2    3    3    0    0  0.22642739543E+02  0.48382863114E+02  0.26409353269E+03  0.29702575204E+03  0.12500123306E+03 0.  0.
         25    2    3    3    0    0 -0.22642739543E+02 -0.48382863114E+02  0.39584571653E+03  0.41830938694E+03  0.12423895045E+03 0.  0.
          5    1    4    4  502    0 -0.51900260373E+02  0.15891657039E+02  0.10483670132E+03  0.11814823627E+03  0.47000000000E+01 0. -1.
         -5    1    4    4    0  502  0.74542999916E+02  0.32491206075E+02  0.15925683137E+03  0.17887751577E+03  0.47000000000E+01 0. -1.
          5    1    5    5  503    0 -0.51443969753E+02 -0.63997599616E+02  0.15754093316E+03  0.17771722033E+03  0.47000000000E+01 0.  1.
         -5    1    5    5    0  503  0.28801230210E+02  0.15614736502E+02  0.23830478337E+03  0.24059216661E+03  0.47000000000E+01 0.  1.
<mgrwt>
<rscale>  0 0.27601549E+03</rscale>
<asrwt>0</asrwt>
<pdfrwt beam="1">  1        1 0.10579033E+00 0.27601549E+03</pdfrwt>
<pdfrwt beam="2">  1       -1 0.42612228E-02 0.27601549E+03</pdfrwt>
<totfact> 0.64565763E+03</totfact>
</mgrwt>
</event>
<event>
 9    1  0.8093459E-001  0.2747332E+03  0.7818608E-02  0.1098601E+00
          2   -1    0    0  501    0  0.00000000000E+00  0.00000000000E+00  0.11883141295E+04  0.11883141295E+04  0.00000000000E+00 0. -1.
         -2   -1    0    0    0  501 -0.00000000000E+00 -0.00000000000E+00 -0.15879284355E+02  0.15879284355E+02  0.00000000000E+00 0. -1.
         35    2    1    2    0    0  0.00000000000E+00 -0.71054273576E-14  0.11724348451E+04  0.12041934138E+04  0.27473316483E+03 0.  0.
         25    2    3    3    0    0 -0.35159674547E+02 -0.39652653425E+02  0.51293875423E+03  0.53098569473E+03  0.12661400703E+03 0.  0.
         25    2    3    3    0    0  0.35159674547E+02  0.39652653425E+02  0.65949609087E+03  0.67320771909E+03  0.12435836733E+03 0.  0.
          5    1    4    4  502    0  0.78704433704E+01  0.79577229641E+01  0.40599373279E+03  0.40617517194E+03  0.47000000000E+01 0.  1.
         -5    1    4    4    0  502 -0.43030117918E+02 -0.47610376389E+02  0.10694502144E+03  0.12481052279E+03  0.47000000000E+01 0.  1.
          5    1    5    5  503    0  0.25006297935E+02  0.80467032146E+02  0.53737499676E+03  0.54396161201E+03  0.47000000000E+01 0. -1.
         -5    1    5    5    0  503  0.10153376613E+02 -0.40814378721E+02  0.12212109411E+03  0.12924610708E+03  0.47000000000E+01 0. -1.
<mgrwt>
<rscale>  0 0.27473316E+03</rscale>
<asrwt>0</asrwt>
<pdfrwt beam="1">  1        2 0.18281749E+00 0.27473316E+03</pdfrwt>
<pdfrwt beam="2">  1       -2 0.24429678E-02 0.27473316E+03</pdfrwt>
<totfact> 0.11653158E+04</totfact>
</mgrwt>
</event>
<event>
 9    1  0.8093459E-001  0.2704328E+03  0.7818608E-02  0.1101032E+00
          2   -1    0    0  501    0  0.00000000000E+00  0.00000000000E+00  0.91087417964E+02  0.91087417964E+02  0.00000000000E+00 0.  1.
         -2   -1    0    0    0  501 -0.00000000000E+00 -0.00000000000E+00 -0.20072452065E+03  0.20072452065E+03  0.00000000000E+00 0.  1.
         35    2    1    2    0    0  0.71054273576E-14  0.35527136788E-14 -0.10963710268E+03  0.29181193861E+03  0.27043282573E+03 0.  0.
         25    2    3    3    0    0 -0.46056960955E+02 -0.24468659909E+02 -0.73860973660E+02  0.15165442606E+03  0.12175246422E+03 0.  0.
         25    2    3    3    0    0  0.46056960955E+02  0.24468659909E+02 -0.35776129022E+02  0.14015751255E+03  0.12507692811E+03 0.  0.
          5    1    4    4  502    0  0.28902488244E+02  0.95808962077E+00  0.14702933617E+02  0.32780146725E+02  0.47000000000E+01 0. -1.
         -5    1    4    4    0  502 -0.74959449199E+02 -0.25426749530E+02 -0.88563907277E+02  0.11887427934E+03  0.47000000000E+01 0. -1.
          5    1    5    5  503    0 -0.20178750573E+02  0.25196564121E+02  0.31699132465E+02  0.45485973852E+02  0.47000000000E+01 0. -1.
         -5    1    5    5    0  503  0.66235711528E+02 -0.72790421182E+00 -0.67475261487E+02  0.94671538696E+02  0.47000000000E+01 0. -1.
<mgrwt>
<rscale>  0 0.27043283E+03</rscale>
<asrwt>0</asrwt>
<pdfrwt beam="1">  1        2 0.14013449E-01 0.27043283E+03</pdfrwt>
<pdfrwt beam="2">  1       -2 0.30880695E-01 0.27043283E+03</pdfrwt>
<totfact> 0.40749705E+03</totfact>
</mgrwt>
</event>
<event>
 9    1  0.8093459E-001  0.2750930E+03  0.7818608E-02  0.1098400E+00
          2   -1    0    0  501    0  0.00000000000E+00  0.00000000000E+00  0.71682268711E+02  0.71682268711E+02  0.00000000000E+00 0. -1.
         -2   -1    0    0    0  501 -0.00000000000E+00 -0.00000000000E+00 -0.26392921532E+03  0.26392921532E+03  0.00000000000E+00 0. -1.
         35    2    1    2    0    0 -0.35527136788E-14 -0.71054273576E-14 -0.19224694661E+03  0.33561148403E+03  0.27509303832E+03 0.  0.
         25    2    3    3    0    0 -0.10977152984E+02 -0.57045497378E+02 -0.10129614842E+03  0.17048466485E+03  0.12421523499E+03 0.  0.
         25    2    3    3    0    0  0.10977152984E+02  0.57045497378E+02 -0.90950798180E+02  0.16512681918E+03  0.12498052674E+03 0.  0.
          5    1    4    4  502    0  0.53237729721E+02 -0.16190589789E+02 -0.20764771341E+02  0.59578996235E+02  0.47000000000E+01 0. -1.
         -5    1    4    4    0  502 -0.64214882705E+02 -0.40854907590E+02 -0.80531377084E+02  0.11090566861E+03  0.47000000000E+01 0. -1.
          5    1    5    5  503    0  0.36543075647E+02  0.37485549015E+02  0.14702522780E+02  0.54578539178E+02  0.47000000000E+01 0. -1.
         -5    1    5    5    0  503 -0.25565922664E+02  0.19559948363E+02 -0.10565332096E+03  0.11054828000E+03  0.47000000000E+01 0. -1.
<mgrwt>
<rscale>  0 0.27509304E+03</rscale>
<asrwt>0</asrwt>
<pdfrwt beam="1">  1        2 0.11028041E-01 0.27509304E+03</pdfrwt>
<pdfrwt beam="2">  1       -2 0.40604495E-01 0.27509304E+03</pdfrwt>
<totfact> 0.32683413E+03</totfact>
</mgrwt>
</event>
<event>
 9    1  0.8093459E-001  0.2756924E+03  0.7818608E-02  0.1098065E+00
         -1   -1    0    0    0  501 -0.00000000000E+00  0.00000000000E+00  0.20891045169E+03  0.20891045169E+03  0.00000000000E+00 0. -1.
          1   -1    0    0  501    0  0.00000000000E+00 -0.00000000000E+00 -0.90955583294E+02  0.90955583294E+02  0.00000000000E+00 0. -1.
         35    2    1    2    0    0  0.00000000000E+00  0.00000000000E+00  0.11795486839E+03  0.29986603498E+03  0.27569237922E+03 0.  0.
         25    2    3    3    0    0  0.50272420457E+02  0.19721991661E+02  0.85557154931E+02  0.16074548872E+03  0.12491121715E+03 0.  0.
         25    2    3    3    0    0 -0.50272420457E+02 -0.19721991661E+02  0.32397713461E+02  0.13912054626E+03  0.12405096268E+03 0.  0.
          5    1    4    4  502    0  0.26401374740E+01  0.57882170015E+02  0.33207304422E+01  0.58227426374E+02  0.47000000000E+01 0.  1.
         -5    1    4    4    0  502  0.47632282983E+02 -0.38160178354E+02  0.82236424489E+02  0.10251806234E+03  0.47000000000E+01 0.  1.
          5    1    5    5  503    0 -0.84912831256E+02 -0.57673779823E+01  0.48624164295E+02  0.98131803784E+02  0.47000000000E+01 0.  1.
         -5    1    5    5    0  503  0.34640410798E+02 -0.13954613679E+02 -0.16226450834E+02  0.40988742477E+02  0.47000000000E+01 0.  1.
<mgrwt>
<rscale>  0 0.27569238E+03</rscale>
<asrwt>0</asrwt>
<pdfrwt beam="1">  1        1 0.13993167E-01 0.27569238E+03</pdfrwt>
<pdfrwt beam="2">  1       -1 0.32140069E-01 0.27569238E+03</pdfrwt>
<totfact> 0.36886142E+03</totfact>
</mgrwt>
</event>
<event>
 9    1  0.8093459E-001  0.2727939E+03  0.7818608E-02  0.1099691E+00
          1   -1    0    0  501    0  0.00000000000E+00  0.00000000000E+00  0.48400092122E+03  0.48400092122E+03  0.00000000000E+00 0. -1.
         -1   -1    0    0    0  501 -0.00000000000E+00 -0.00000000000E+00 -0.38438205958E+02  0.38438205958E+02  0.00000000000E+00 0. -1.
         35    2    1    2    0    0  0.71054273576E-14  0.00000000000E+00  0.44556271526E+03  0.52243912718E+03  0.27279389358E+03 0.  0.
         25    2    3    3    0    0 -0.51466722476E+02 -0.10674414339E+02  0.25127900012E+03  0.28560259950E+03  0.12515966722E+03 0.  0.
         25    2    3    3    0    0  0.51466722476E+02  0.10674414339E+02  0.19428371514E+03  0.23683652767E+03  0.12483033376E+03 0.  0.
          5    1    4    4  502    0 -0.62173064263E+02 -0.38603055858E+02  0.68554935116E+02  0.10038702591E+03  0.47000000000E+01 0.  1.
         -5    1    4    4    0  502  0.10706341787E+02  0.27928641519E+02  0.18272406500E+03  0.18521557360E+03  0.47000000000E+01 0.  1.
          5    1    5    5  503    0  0.60922834582E+02 -0.46238105907E+02  0.12424498054E+03  0.14597417374E+03  0.47000000000E+01 0.  1.
         -5    1    5    5    0  503 -0.94561121058E+01  0.56912520246E+02  0.70038734605E+02  0.90862353932E+02  0.47000000000E+01 0.  1.
<mgrwt>
<rscale>  0 0.27279389E+03</rscale>
<asrwt>0</asrwt>
<pdfrwt beam="1">  1        1 0.74461676E-01 0.27279389E+03</pdfrwt>
<pdfrwt beam="2">  1       -1 0.59135705E-02 0.27279389E+03</pdfrwt>
<totfact> 0.64078037E+03</totfact>
</mgrwt>
</event>
<event>
 9    1  0.8093459E-001  0.2758733E+03  0.7818608E-02  0.1097964E+00
         -2   -1    0    0    0  501 -0.00000000000E+00  0.00000000000E+00  0.90094821637E+02  0.90094821637E+02  0.00000000000E+00 0.  1.
          2   -1    0    0  501    0  0.00000000000E+00 -0.00000000000E+00 -0.21118331154E+03  0.21118331154E+03  0.00000000000E+00 0.  1.
         35    2    1    2    0    0  0.71054273576E-14 -0.14210854715E-13 -0.12108848991E+03  0.30127813318E+03  0.27587332445E+03 0.  0.
         25    2    3    3    0    0  0.28365894899E+02 -0.50135554476E+02 -0.77530733267E+02  0.15657438835E+03  0.12323281491E+03 0.  0.
         25    2    3    3    0    0 -0.28365894899E+02  0.50135554476E+02 -0.43557756638E+02  0.14470374483E+03  0.12539416967E+03 0.  0.
          5    1    4    4  502    0  0.51236072504E+02 -0.67916710017E+02 -0.90667270395E+02  0.12442049086E+03  0.47000000000E+01 0. -1.
         -5    1    4    4    0  502 -0.22870177605E+02  0.17781155541E+02  0.13136537128E+02  0.32153897490E+02  0.47000000000E+01 0. -1.
          5    1    5    5  503    0 -0.73905434829E+02  0.13797033002E+02 -0.67528160324E+01  0.75631091102E+02  0.47000000000E+01 0. -1.
         -5    1    5    5    0  503  0.45539539929E+02  0.36338521474E+02 -0.36804940606E+02  0.69072653727E+02  0.47000000000E+01 0. -1.
<mgrwt>
<rscale>  0 0.27587332E+03</rscale>
<asrwt>0</asrwt>
<pdfrwt beam="1">  1        2 0.32489740E-01 0.27587332E+03</pdfrwt>
<pdfrwt beam="2">  1       -2 0.13860742E-01 0.27587332E+03</pdfrwt>
<totfact> 0.62196614E+03</totfact>
</mgrwt>
</event>
<event>
 9    1  0.8093459E-001  0.2801624E+03  0.7818608E-02  0.1095600E+00
          2   -1    0    0  501    0  0.00000000000E+00  0.00000000000E+00  0.12118241277E+04  0.12118241277E+04  0.00000000000E+00 0. -1.
         -2   -1    0    0    0  501 -0.00000000000E+00 -0.00000000000E+00 -0.16192734318E+02  0.16192734318E+02  0.00000000000E+00 0. -1.
         35    2    1    2    0    0 -0.35527136788E-14  0.71054273576E-14  0.11956313934E+04  0.12280168620E+04  0.28016242532E+03 0.  0.
         25    2    3    3    0    0  0.17492124441E+02 -0.53788673533E+02  0.47521783824E+03  0.49464267207E+03  0.12506071896E+03 0.  0.
         25    2    3    3    0    0 -0.17492124441E+02  0.53788673533E+02  0.72041355511E+03  0.73337418993E+03  0.12507124466E+03 0.  0.
          5    1    4    4  502    0  0.12759696379E+02  0.15160374929E+02  0.73134471287E+01  0.21638468721E+02  0.47000000000E+01 0.  1.
         -5    1    4    4    0  502  0.47324280618E+01 -0.68949048462E+02  0.46790439111E+03  0.47300420335E+03  0.47000000000E+01 0.  1.
          5    1    5    5  503    0  0.42464804982E+02  0.52830991889E+02  0.51088285498E+03  0.51538117435E+03  0.47000000000E+01 0.  1.
         -5    1    5    5    0  503 -0.59956929423E+02  0.95768164337E+00  0.20953070014E+03  0.21799301558E+03  0.47000000000E+01 0.  1.
<mgrwt>
<rscale>  0 0.28016243E+03</rscale>
<asrwt>0</asrwt>
<pdfrwt beam="1">  1        2 0.18643441E+00 0.28016243E+03</pdfrwt>
<pdfrwt beam="2">  1       -2 0.24911908E-02 0.28016243E+03</pdfrwt>
<totfact> 0.10983632E+04</totfact>
</mgrwt>
</event>
<event>
 9    1  0.8093459E-001  0.2717592E+03  0.7818608E-02  0.1100277E+00
         -1   -1    0    0    0  501 -0.00000000000E+00  0.00000000000E+00  0.15963278837E+03  0.15963278837E+03  0.00000000000E+00 0. -1.
          1   -1    0    0  501    0  0.00000000000E+00 -0.00000000000E+00 -0.11566084040E+03  0.11566084040E+03  0.00000000000E+00 0. -1.
         35    2    1    2    0    0  0.00000000000E+00 -0.71054273576E-14  0.43971947968E+02  0.27529362877E+03  0.27175917617E+03 0.  0.
         25    2    3    3    0    0 -0.51106367196E+02 -0.18913753126E+02  0.13785839550E+02  0.13510374065E+03  0.12285512013E+03 0.  0.
         25    2    3    3    0    0  0.51106367196E+02  0.18913753126E+02  0.30186108418E+02  0.14018988811E+03  0.12558826682E+03 0.  0.
          5    1    4    4  502    0 -0.81337861716E+02 -0.22546438264E+02  0.41038651048E+02  0.93970476782E+02  0.47000000000E+01 0.  1.
         -5    1    4    4    0  502  0.30231494520E+02  0.36326851376E+01 -0.27252811498E+02  0.41133263872E+02  0.47000000000E+01 0.  1.
          5    1    5    5  503    0 -0.15883409113E+02  0.48091899961E+02 -0.16356651014E+02  0.53429800293E+02  0.47000000000E+01 0. -1.
         -5    1    5    5    0  503  0.66989776309E+02 -0.29178146835E+02  0.46542759432E+02  0.86760087818E+02  0.47000000000E+01 0. -1.
<mgrwt>
<rscale>  0 0.27175918E+03</rscale>
<asrwt>0</asrwt>
<pdfrwt beam="1">  1        1 0.17793975E-01 0.27175918E+03</pdfrwt>
<pdfrwt beam="2">  1       -1 0.24558890E-01 0.27175918E+03</pdfrwt>
<totfact> 0.42395639E+03</totfact>
</mgrwt>
</event>
<event>
 9    1  0.8093459E-001  0.2751822E+03  0.7818608E-02  0.1098350E+00
          2   -1    0    0  501    0  0.00000000000E+00  0.00000000000E+00  0.36042398943E+03  0.36042398943E+03  0.00000000000E+00 0.  1.
         -2   -1    0    0    0  501 -0.00000000000E+00 -0.00000000000E+00 -0.52525114149E+02  0.52525114149E+02  0.00000000000E+00 0.  1.
         35    2    1    2    0    0  0.00000000000E+00  0.00000000000E+00  0.30789887528E+03  0.41294910358E+03  0.27518220282E+03 0.  0.
         25    2    3    3    0    0  0.81185544653E+01 -0.45858330477E+02  0.10453349665E+03  0.16976749571E+03  0.12539877703E+03 0.  0.
         25    2    3    3    0    0 -0.81185544653E+01  0.45858330477E+02  0.20336537864E+03  0.24318160787E+03  0.12494366641E+03 0.  0.
          5    1    4    4  502    0 -0.52061743413E+02 -0.48916518728E+02  0.42987189152E+02  0.83505924119E+02  0.47000000000E+01 0.  1.
         -5    1    4    4    0  502  0.60180297879E+02  0.30581882513E+01  0.61546307493E+02  0.86261571596E+02  0.47000000000E+01 0.  1.
          5    1    5    5  503    0  0.43112004036E+02  0.54535399314E+02  0.16283499125E+03  0.17711600449E+03  0.47000000000E+01 0. -1.
         -5    1    5    5    0  503 -0.51230558501E+02 -0.86770688372E+01  0.40530387386E+02  0.66065603377E+02  0.47000000000E+01 0. -1.
<mgrwt>
<rscale>  0 0.27518220E+03</rscale>
<asrwt>0</asrwt>
<pdfrwt beam="1">  1        2 0.55449843E-01 0.27518220E+03</pdfrwt>
<pdfrwt beam="2">  1       -2 0.80807870E-02 0.27518220E+03</pdfrwt>
<totfact> 0.82712466E+03</totfact>
</mgrwt>
</event>
<event>
 9    1  0.8093459E-001  0.2789433E+03  0.7818608E-02  0.1096267E+00
          2   -1    0    0  501    0  0.00000000000E+00  0.00000000000E+00  0.22559978382E+03  0.22559978382E+03  0.00000000000E+00 0.  1.
         -2   -1    0    0    0  501 -0.00000000000E+00 -0.00000000000E+00 -0.86225010335E+02  0.86225010335E+02  0.00000000000E+00 0.  1.
         35    2    1    2    0    0  0.00000000000E+00  0.00000000000E+00  0.13937477348E+03  0.31182479415E+03  0.27894331819E+03 0.  0.
         25    2    3    3    0    0 -0.44859566914E+02 -0.51192487664E+01  0.20158213557E+02  0.13469843037E+03  0.12529455741E+03 0.  0.
         25    2    3    3    0    0  0.44859566914E+02  0.51192487664E+01  0.11921655992E+03  0.17712636378E+03  0.12297387176E+03 0.  0.
          5    1    4    4  502    0  0.27372174219E+02 -0.43176151345E+02  0.57266278988E+01  0.51655592471E+02  0.47000000000E+01 0.  1.
         -5    1    4    4    0  502 -0.72231741134E+02  0.38056902578E+02  0.14431585658E+02  0.83042837895E+02  0.47000000000E+01 0.  1.
          5    1    5    5  503    0  0.46564989230E+02  0.51293504568E+02  0.28199100901E+02  0.74943986580E+02  0.47000000000E+01 0. -1.
         -5    1    5    5    0  503 -0.17054223154E+01 -0.46174255802E+02  0.91017459023E+02  0.10218237720E+03  0.47000000000E+01 0. -1.
<mgrwt>
<rscale>  0 0.27894332E+03</rscale>
<asrwt>0</asrwt>
<pdfrwt beam="1">  1        2 0.34707659E-01 0.27894332E+03</pdfrwt>
<pdfrwt beam="2">  1       -2 0.13265386E-01 0.27894332E+03</pdfrwt>
<totfact> 0.62214000E+03</totfact>
</mgrwt>
</event>
<event>
 9    1  0.8093459E-001  0.2804239E+03  0.7818608E-02  0.1095458E+00
          1   -1    0    0  501    0  0.00000000000E+00  0.00000000000E+00  0.73453141852E+03  0.73453141852E+03  0.00000000000E+00 0. -1.
         -1   -1    0    0    0  501 -0.00000000000E+00 -0.00000000000E+00 -0.26764534373E+02  0.26764534373E+02  0.00000000000E+00 0. -1.
         35    2    1    2    0    0  0.71054273576E-14  0.00000000000E+00  0.70776688414E+03  0.76129595289E+03  0.28042390339E+03 0.  0.
         25    2    3    3    0    0 -0.11135529907E+02  0.40189503598E+02  0.48750144718E+03  0.50512798982E+03  0.12552859784E+03 0.  0.
         25    2    3    3    0    0  0.11135529907E+02 -0.40189503598E+02  0.22026543697E+03  0.25616796307E+03  0.12395953515E+03 0.  0.
          5    1    4    4  502    0 -0.68077542752E+02  0.28515619133E+02  0.27171587717E+03  0.28160131440E+03  0.47000000000E+01 0.  1.
         -5    1    4    4    0  502  0.56942012845E+02  0.11673884465E+02  0.21578557000E+03  0.22352667543E+03  0.47000000000E+01 0.  1.
          5    1    5    5  503    0  0.74735731108E+00 -0.54656964372E+01  0.21949230243E+03  0.21961191499E+03  0.47000000000E+01 0.  1.
         -5    1    5    5    0  503  0.10388172596E+02 -0.34723807161E+02  0.77313453420E+00  0.36556048072E+02  0.47000000000E+01 0.  1.
<mgrwt>
<rscale>  0 0.28042390E+03</rscale>
<asrwt>0</asrwt>
<pdfrwt beam="1">  1        1 0.11300482E+00 0.28042390E+03</pdfrwt>
<pdfrwt beam="2">  1       -1 0.41176212E-02 0.28042390E+03</pdfrwt>
<totfact> 0.61701024E+03</totfact>
</mgrwt>
</event>
<event>
 9    1  0.8093459E-001  0.2797004E+03  0.7818608E-02  0.1095853E+00
          2   -1    0    0  501    0  0.00000000000E+00  0.00000000000E+00  0.80780693166E+03  0.80780693166E+03  0.00000000000E+00 0. -1.
         -2   -1    0    0    0  501 -0.00000000000E+00 -0.00000000000E+00 -0.24211320566E+02  0.24211320566E+02  0.00000000000E+00 0. -1.
         35    2    1    2    0    0  0.00000000000E+00  0.00000000000E+00  0.78359561109E+03  0.83201825222E+03  0.27970035808E+03 0.  0.
         25    2    3    3    0    0  0.42338535713E+02 -0.19575935561E+02  0.27254346407E+03  0.30378730582E+03  0.12582137542E+03 0.  0.
         25    2    3    3    0    0 -0.42338535713E+02  0.19575935561E+02  0.51105214702E+03  0.52823094640E+03  0.12521128903E+03 0.  0.
          5    1    4    4  502    0  0.41133820496E+02  0.48251438028E+02  0.10207421544E+03  0.12025567728E+03  0.47000000000E+01 0. -1.
         -5    1    4    4    0  502  0.12047152170E+01 -0.67827373589E+02  0.17046924863E+03  0.18353162854E+03  0.47000000000E+01 0. -1.
          5    1    5    5  503    0 -0.72645383629E+02  0.24444287042E+02  0.17961214516E+03  0.19533941645E+03  0.47000000000E+01 0.  1.
         -5    1    5    5    0  503  0.30306847915E+02 -0.48683514812E+01  0.33144000186E+03  0.33289152995E+03  0.47000000000E+01 0.  1.
<mgrwt>
<rscale>  0 0.27970036E+03</rscale>
<asrwt>0</asrwt>
<pdfrwt beam="1">  1        2 0.12427797E+00 0.27970036E+03</pdfrwt>
<pdfrwt beam="2">  1       -2 0.37248192E-02 0.27970036E+03</pdfrwt>
<totfact> 0.10695466E+04</totfact>
</mgrwt>
</event>
<event>
 9    1  0.8093459E-001  0.2697373E+03  0.7818608E-02  0.1101430E+00
         -2   -1    0    0    0  501 -0.00000000000E+00  0.00000000000E+00  0.25186514135E+02  0.25186514135E+02  0.00000000000E+00 0. -1.
          2   -1    0    0  501    0  0.00000000000E+00 -0.00000000000E+00 -0.72219386859E+03  0.72219386859E+03  0.00000000000E+00 0. -1.
         35    2    1    2    0    0  0.35527136788E-14 -0.71054273576E-14 -0.69700735445E+03  0.74738038272E+03  0.26973725052E+03 0.  0.
         25    2    3    3    0    0  0.27973767673E+02 -0.35501235577E+02 -0.39267439139E+03  0.41463726657E+03  0.12525180944E+03 0.  0.
         25    2    3    3    0    0 -0.27973767673E+02  0.35501235577E+02 -0.30433296306E+03  0.33274311615E+03  0.12671448038E+03 0.  0.
          5    1    4    4  502    0  0.11830519892E+02 -0.62499384912E+02 -0.90074528885E+02  0.11037049003E+03  0.47000000000E+01 0.  1.
         -5    1    4    4    0  502  0.16143247781E+02  0.26998149335E+02 -0.30259986251E+03  0.30426677654E+03  0.47000000000E+01 0.  1.
          5    1    5    5  503    0 -0.12687492774E+02  0.77388652219E+02 -0.12299708101E+03  0.14594638708E+03  0.47000000000E+01 0.  1.
         -5    1    5    5    0  503 -0.15286274899E+02 -0.41887416642E+02 -0.18133588205E+03  0.18679672907E+03  0.47000000000E+01 0.  1.
<mgrwt>
<rscale>  0 0.26973725E+03</rscale>
<asrwt>0</asrwt>
<pdfrwt beam="1">  1        2 0.11110675E+00 0.26973725E+03</pdfrwt>
<pdfrwt beam="2">  1       -2 0.38748482E-02 0.26973725E+03</pdfrwt>
<totfact> 0.11581359E+04</totfact>
</mgrwt>
</event>
<event>
 9    1  0.8093459E-001  0.2742927E+03  0.7818608E-02  0.1098848E+00
         -4   -1    0    0    0  501 -0.00000000000E+00  0.00000000000E+00  0.72460988258E+02  0.72460988258E+02  0.00000000000E+00 0. -1.
          4   -1    0    0  501    0  0.00000000000E+00 -0.00000000000E+00 -0.25957590003E+03  0.25957590003E+03  0.00000000000E+00 0. -1.
         35    2    1    2    0    0  0.00000000000E+00  0.10658141036E-13 -0.18711491177E+03  0.33203688829E+03  0.27429273592E+03 0.  0.
         25    2    3    3    0    0  0.11539027282E+02 -0.31100003479E+02 -0.37380952932E+02  0.13415952390E+03  0.12450334471E+03 0.  0.
         25    2    3    3    0    0 -0.11539027282E+02  0.31100003479E+02 -0.14973395884E+03  0.19787736438E+03  0.12503932797E+03 0.  0.
          5    1    4    4  502    0  0.62607552411E+02 -0.17738100412E+01 -0.40942909605E+02  0.74975088315E+02  0.47000000000E+01 0. -1.
         -5    1    4    4    0  502 -0.51068525129E+02 -0.29326193437E+02  0.35619566739E+01  0.59184435586E+02  0.47000000000E+01 0. -1.
          5    1    5    5  503    0  0.19415169882E+02  0.58593520718E+02 -0.25693009042E+02  0.67025146067E+02  0.47000000000E+01 0.  1.
         -5    1    5    5    0  503 -0.30954197164E+02 -0.27493517240E+02 -0.12404094980E+03  0.13085221832E+03  0.47000000000E+01 0.  1.
<mgrwt>
<rscale>  0 0.27429274E+03</rscale>
<asrwt>0</asrwt>
<pdfrwt beam="1">  1        4 0.39934754E-01 0.27429274E+03</pdfrwt>
<pdfrwt beam="2">  1       -4 0.11147844E-01 0.27429274E+03</pdfrwt>
<totfact> 0.72121571E+02</totfact>
</mgrwt>
</event>
<event>
 9    1  0.8093459E-001  0.2756687E+03  0.7818608E-02  0.1098078E+00
          1   -1    0    0  501    0  0.00000000000E+00  0.00000000000E+00  0.25608197249E+03  0.25608197249E+03  0.00000000000E+00 0. -1.
         -1   -1    0    0    0  501 -0.00000000000E+00 -0.00000000000E+00 -0.74188359672E+02  0.74188359672E+02  0.00000000000E+00 0. -1.
         35    2    1    2    0    0  0.00000000000E+00 -0.71054273576E-14  0.18189361282E+03  0.33027033216E+03  0.27566865241E+03 0.  0.
         25    2    3    3    0    0  0.43799582214E+02  0.39152469893E+02  0.11603626597E+03  0.18017707773E+03  0.12469180012E+03 0.  0.
         25    2    3    3    0    0 -0.43799582214E+02 -0.39152469893E+02  0.65857346852E+02  0.15009325444E+03  0.12140624198E+03 0.  0.
          5    1    4    4  502    0  0.37326360314E+02 -0.32482049272E+02  0.80600094298E+01  0.50352700535E+02  0.47000000000E+01 0. -1.
         -5    1    4    4    0  502  0.64732219007E+01  0.71634519165E+02  0.10797625654E+03  0.12982437719E+03  0.47000000000E+01 0. -1.
          5    1    5    5  503    0 -0.41464020564E+02 -0.68495760848E+02  0.83233884642E+02  0.11558937584E+03  0.47000000000E+01 0. -1.
         -5    1    5    5    0  503 -0.23355616502E+01  0.29343290955E+02 -0.17376537790E+02  0.34503878591E+02  0.47000000000E+01 0. -1.
<mgrwt>
<rscale>  0 0.27566865E+03</rscale>
<asrwt>0</asrwt>
<pdfrwt beam="1">  1        1 0.39397226E-01 0.27566865E+03</pdfrwt>
<pdfrwt beam="2">  1       -1 0.11413594E-01 0.27566865E+03</pdfrwt>
<totfact> 0.52739916E+03</totfact>
</mgrwt>
</event>
<event>
 9    1  0.8093459E-001  0.2753716E+03  0.7818608E-02  0.1098244E+00
          1   -1    0    0  501    0  0.00000000000E+00  0.00000000000E+00  0.69476812704E+03  0.69476812704E+03  0.00000000000E+00 0. -1.
         -1   -1    0    0    0  501 -0.00000000000E+00 -0.00000000000E+00 -0.27285904731E+02  0.27285904731E+02  0.00000000000E+00 0. -1.
         35    2    1    2    0    0 -0.71054273576E-14  0.00000000000E+00  0.66748222231E+03  0.72205403177E+03  0.27537158114E+03 0.  0.
         25    2    3    3    0    0  0.50262498309E+02  0.95130924739E+01  0.26378025255E+03  0.29630438996E+03  0.12489776704E+03 0.  0.
         25    2    3    3    0    0 -0.50262498309E+02 -0.95130924739E+01  0.40370196976E+03  0.42574964181E+03  0.12518250456E+03 0.  0.
          5    1    4    4  502    0 -0.39764022977E+01  0.53743103944E+02  0.59977637713E+02  0.80768434567E+02  0.47000000000E+01 0. -1.
         -5    1    4    4    0  502  0.54238900606E+02 -0.44230011470E+02  0.20380261484E+03  0.21553595540E+03  0.47000000000E+01 0. -1.
          5    1    5    5  503    0  0.30635490677E+02 -0.36626156995E+02  0.11339592177E+03  0.12312893137E+03  0.47000000000E+01 0. -1.
         -5    1    5    5    0  503 -0.80897988986E+02  0.27113064521E+02  0.29030604799E+03  0.30262071044E+03  0.47000000000E+01 0. -1.
<mgrwt>
<rscale>  0 0.27537158E+03</rscale>
<asrwt>0</asrwt>
<pdfrwt beam="1">  1        1 0.10688739E+00 0.27537158E+03</pdfrwt>
<pdfrwt beam="2">  1       -1 0.41978320E-02 0.27537158E+03</pdfrwt>
<totfact> 0.65037156E+03</totfact>
</mgrwt>
</event>
<event>
 9    1  0.8093459E-001  0.2753495E+03  0.7818608E-02  0.1098256E+00
         -2   -1    0    0    0  501 -0.00000000000E+00  0.00000000000E+00  0.14558752268E+02  0.14558752268E+02  0.00000000000E+00 0.  1.
          2   -1    0    0  501    0  0.00000000000E+00 -0.00000000000E+00 -0.13019206603E+04  0.13019206603E+04  0.00000000000E+00 0.  1.
         35    2    1    2    0    0  0.00000000000E+00 -0.71054273576E-14 -0.12873619080E+04  0.13164794126E+04  0.27534952599E+03 0.  0.
         25    2    3    3    0    0  0.23189465639E+02  0.27454630939E+02 -0.78381073755E+03  0.79477144700E+03  0.12653407681E+03 0.  0.
         25    2    3    3    0    0 -0.23189465639E+02 -0.27454630939E+02 -0.50355117049E+03  0.52170796557E+03  0.13162033264E+03 0.  0.
          5    1    4    4  502    0  0.73974487085E+02  0.18428881708E+02 -0.37556288618E+03  0.38325111859E+03  0.47000000000E+01 0.  1.
         -5    1    4    4    0  502 -0.50785021446E+02  0.90257492310E+01 -0.40824785137E+03  0.41152032842E+03  0.47000000000E+01 0.  1.
          5    1    5    5  503    0 -0.93736929131E+01 -0.75241869799E+02 -0.19753999058E+03  0.21164437854E+03  0.47000000000E+01 0. -1.
         -5    1    5    5    0  503 -0.13815772726E+02  0.47787238860E+02 -0.30601117990E+03  0.31006358703E+03  0.47000000000E+01 0. -1.
<mgrwt>
<rscale>  0 0.27534953E+03</rscale>
<asrwt>0</asrwt>
<pdfrwt beam="1">  1        2 0.20029548E+00 0.27534953E+03</pdfrwt>
<pdfrwt beam="2">  1       -2 0.22398081E-02 0.27534953E+03</pdfrwt>
<totfact> 0.11438914E+04</totfact>
</mgrwt>
</event>
<event>
 9    1  0.8093459E-001  0.2718778E+03  0.7818608E-02  0.1100210E+00
          2   -1    0    0  501    0  0.00000000000E+00  0.00000000000E+00  0.64919148767E+03  0.64919148767E+03  0.00000000000E+00 0.  1.
         -2   -1    0    0    0  501 -0.00000000000E+00 -0.00000000000E+00 -0.28465223470E+02  0.28465223470E+02  0.00000000000E+00 0.  1.
         35    2    1    2    0    0  0.35527136788E-14 -0.17763568394E-14  0.62072626420E+03  0.67765671114E+03  0.27187777233E+03 0.  0.
         25    2    3    3    0    0  0.16398798651E+01 -0.13756088473E+02  0.17512266810E+03  0.21518505358E+03  0.12427686521E+03 0.  0.
         25    2    3    3    0    0 -0.16398798651E+01  0.13756088473E+02  0.44560359610E+03  0.46247165756E+03  0.12298597485E+03 0.  0.
          5    1    4    4  502    0 -0.28575782186E+02 -0.11236009245E+02  0.18125336172E+03  0.18389587915E+03  0.47000000000E+01 0. -1.
         -5    1    4    4    0  502  0.30215662051E+02 -0.25200792280E+01 -0.61306936242E+01  0.31289174435E+02  0.47000000000E+01 0. -1.
          5    1    5    5  503    0  0.40585533200E+02 -0.92580003544E+00  0.38422879708E+03  0.38639604179E+03  0.47000000000E+01 0. -1.
         -5    1    5    5    0  503 -0.42225413065E+02  0.14681888508E+02  0.61374799021E+02  0.76075615762E+02  0.47000000000E+01 0. -1.
<mgrwt>
<rscale>  0 0.27187777E+03</rscale>
<asrwt>0</asrwt>
<pdfrwt beam="1">  1        2 0.99875602E-01 0.27187777E+03</pdfrwt>
<pdfrwt beam="2">  1       -2 0.43792657E-02 0.27187777E+03</pdfrwt>
<totfact> 0.10955473E+04</totfact>
</mgrwt>
</event>
<event>
 9    1  0.8093459E-001  0.3030582E+03  0.7818608E-02  0.1083722E+00
         -3   -1    0    0    0  501 -0.00000000000E+00  0.00000000000E+00  0.21176124513E+03  0.21176124513E+03  0.00000000000E+00 0. -1.
          3   -1    0    0  501    0  0.00000000000E+00 -0.00000000000E+00 -0.10842902111E+03  0.10842902111E+03  0.00000000000E+00 0. -1.
         35    2    1    2    0    0  0.00000000000E+00 -0.71054273576E-14  0.10333222402E+03  0.32019026624E+03  0.30305817605E+03 0.  0.
         25    2    3    3    0    0 -0.88432300625E+01 -0.48533806739E+02  0.13012471950E+03  0.18364737788E+03  0.11983398376E+03 0.  0.
         25    2    3    3    0    0  0.88432300625E+01  0.48533806739E+02 -0.26792495479E+02  0.13654288836E+03  0.12446842745E+03 0.  0.
          5    1    4    4  502    0  0.18744471609E+02 -0.82972370297E+02  0.87184932267E+02  0.12189779269E+03  0.47000000000E+01 0.  1.
         -5    1    4    4    0  502 -0.27587701672E+02  0.34438563558E+02  0.42939787232E+02  0.61749585189E+02  0.47000000000E+01 0.  1.
          5    1    5    5  503    0  0.10942086407E+02 -0.35051880151E+02 -0.36805376431E+02  0.52202387793E+02  0.47000000000E+01 0.  1.
         -5    1    5    5    0  503 -0.20988563441E+01  0.83585686889E+02  0.10012880952E+02  0.84340500566E+02  0.47000000000E+01 0.  1.
<mgrwt>
<rscale>  0 0.30305818E+03</rscale>
<asrwt>0</asrwt>
<pdfrwt beam="1">  1        3 0.16681388E-01 0.30305818E+03</pdfrwt>
<pdfrwt beam="2">  1       -3 0.32578653E-01 0.30305818E+03</pdfrwt>
<totfact> 0.72850145E+02</totfact>
</mgrwt>
</event>
<event>
 9    1  0.8093459E-001  0.2726095E+03  0.7818608E-02  0.1099795E+00
         -2   -1    0    0    0  501 -0.00000000000E+00  0.00000000000E+00  0.43589882487E+02  0.43589882487E+02  0.00000000000E+00 0. -1.
          2   -1    0    0  501    0  0.00000000000E+00 -0.00000000000E+00 -0.42622227775E+03  0.42622227775E+03  0.00000000000E+00 0. -1.
         35    2    1    2    0    0  0.35527136788E-14  0.00000000000E+00 -0.38263239526E+03  0.46981216023E+03  0.27260945692E+03 0.  0.
         25    2    3    3    0    0  0.11857620399E+02 -0.31849775308E+02 -0.12294759970E+03  0.17855913049E+03  0.12494894741E+03 0.  0.
         25    2    3    3    0    0 -0.11857620399E+02  0.31849775308E+02 -0.25968479556E+03  0.29125302974E+03  0.12742496986E+03 0.  0.
          5    1    4    4  502    0  0.63751472923E+02 -0.16034254009E+02 -0.99328104119E+02  0.11920364873E+03  0.47000000000E+01 0.  1.
         -5    1    4    4    0  502 -0.51893852524E+02 -0.15815521299E+02 -0.23619495585E+02  0.59355481764E+02  0.47000000000E+01 0.  1.
          5    1    5    5  503    0 -0.42069497239E+02  0.40644714521E+02 -0.25170064554E+03  0.25845142751E+03  0.47000000000E+01 0. -1.
         -5    1    5    5    0  503  0.30211876840E+02 -0.87949392136E+01 -0.79841500198E+01  0.32801602240E+02  0.47000000000E+01 0. -1.
<mgrwt>
<rscale>  0 0.27260946E+03</rscale>
<asrwt>0</asrwt>
<pdfrwt beam="1">  1        2 0.65572658E-01 0.27260946E+03</pdfrwt>
<pdfrwt beam="2">  1       -2 0.67061358E-02 0.27260946E+03</pdfrwt>
<totfact> 0.92076967E+03</totfact>
</mgrwt>
</event>
<event>
 9    1  0.8093459E-001  0.2775911E+03  0.7818608E-02  0.1097012E+00
          1   -1    0    0  501    0  0.00000000000E+00  0.00000000000E+00  0.65708773488E+03  0.65708773488E+03  0.00000000000E+00 0.  1.
         -1   -1    0    0    0  501 -0.00000000000E+00 -0.00000000000E+00 -0.29317549234E+02  0.29317549234E+02  0.00000000000E+00 0.  1.
         35    2    1    2    0    0 -0.35527136788E-14  0.14210854715E-13  0.62777018564E+03  0.68640528411E+03  0.27759108068E+03 0.  0.
         25    2    3    3    0    0 -0.26282599324E+02 -0.48189775998E+02  0.36778154821E+03  0.39258427116E+03  0.12588134581E+03 0.  0.
         25    2    3    3    0    0  0.26282599324E+02  0.48189775998E+02  0.25998863743E+03  0.29382101295E+03  0.12539404498E+03 0.  0.
          5    1    4    4  502    0  0.23804890891E+02  0.69467290930E+01  0.26148543652E+03  0.26270069164E+03  0.47000000000E+01 0.  1.
         -5    1    4    4    0  502 -0.50087490216E+02 -0.55136505091E+02  0.10629611169E+03  0.12988357952E+03  0.47000000000E+01 0.  1.
          5    1    5    5  503    0  0.43728134689E+02 -0.31886763042E+02  0.91812482211E+02  0.10667960119E+03  0.47000000000E+01 0. -1.
         -5    1    5    5    0  503 -0.17445535364E+02  0.80076539040E+02  0.16817615522E+03  0.18714141176E+03  0.47000000000E+01 0. -1.
<mgrwt>
<rscale>  0 0.27759108E+03</rscale>
<asrwt>0</asrwt>
<pdfrwt beam="1">  1        1 0.10109041E+00 0.27759108E+03</pdfrwt>
<pdfrwt beam="2">  1       -1 0.45103927E-02 0.27759108E+03</pdfrwt>
<totfact> 0.63337908E+03</totfact>
</mgrwt>
</event>
<event>
 9    1  0.8093459E-001  0.2723646E+03  0.7818608E-02  0.1099934E+00
         -1   -1    0    0    0  501 -0.00000000000E+00  0.00000000000E+00  0.31032585608E+03  0.31032585608E+03  0.00000000000E+00 0.  1.
          1   -1    0    0  501    0  0.00000000000E+00 -0.00000000000E+00 -0.59761750119E+02  0.59761750119E+02  0.00000000000E+00 0.  1.
         35    2    1    2    0    0  0.35527136788E-14  0.00000000000E+00  0.25056410597E+03  0.37008760620E+03  0.27236458115E+03 0.  0.
         25    2    3    3    0    0 -0.82219673465E+01 -0.34904992676E+02  0.17592945996E+03  0.21915905120E+03  0.12567241376E+03 0.  0.
         25    2    3    3    0    0  0.82219673465E+01  0.34904992676E+02  0.74634646003E+02  0.15092855500E+03  0.12618692115E+03 0.  0.
          5    1    4    4  502    0  0.38726901988E+02  0.82536368517E+01  0.14051313367E+03  0.14606137817E+03  0.47000000000E+01 0.  1.
         -5    1    4    4    0  502 -0.46948869334E+02 -0.43158629528E+02  0.35416326292E+02  0.73097673031E+02  0.47000000000E+01 0.  1.
          5    1    5    5  503    0  0.28082424896E+02  0.32659705008E+02 -0.24441741575E+02  0.49747036600E+02  0.47000000000E+01 0. -1.
         -5    1    5    5    0  503 -0.19860457549E+02  0.22452876684E+01  0.99076387579E+02  0.10118151840E+03  0.47000000000E+01 0. -1.
<mgrwt>
<rscale>  0 0.27236458E+03</rscale>
<asrwt>0</asrwt>
<pdfrwt beam="1">  1        1 0.91941156E-02 0.27236458E+03</pdfrwt>
<pdfrwt beam="2">  1       -1 0.47742438E-01 0.27236458E+03</pdfrwt>
<totfact> 0.32046125E+03</totfact>
</mgrwt>
</event>
<event>
 9    1  0.8093459E-001  0.2568203E+03  0.7818608E-02  0.1109069E+00
         -1   -1    0    0    0  501 -0.00000000000E+00  0.00000000000E+00  0.87461818967E+03  0.87461818967E+03  0.00000000000E+00 0. -1.
          1   -1    0    0  501    0  0.00000000000E+00 -0.00000000000E+00 -0.18852991737E+02  0.18852991737E+02  0.00000000000E+00 0. -1.
         35    2    1    2    0    0  0.00000000000E+00 -0.35527136788E-14  0.85576519793E+03  0.89347118141E+03  0.25682032243E+03 0.  0.
         25    2    3    3    0    0 -0.90241594872E+01  0.16103603527E+02  0.45557929762E+03  0.47366531972E+03  0.12831826519E+03 0.  0.
         25    2    3    3    0    0  0.90241594872E+01 -0.16103603527E+02  0.40018590031E+03  0.41980586168E+03  0.12548882499E+03 0.  0.
          5    1    4    4  502    0  0.27458216159E+00 -0.84762163253E+01 -0.59424399339E+01  0.11372081205E+02  0.47000000000E+01 0. -1.
         -5    1    4    4    0  502 -0.92987416488E+01  0.24579819852E+02  0.46152173756E+03  0.46229323852E+03  0.47000000000E+01 0. -1.
          5    1    5    5  503    0 -0.21878099961E+02 -0.52879665657E+02  0.32788823814E+03  0.33287790105E+03  0.47000000000E+01 0.  1.
         -5    1    5    5    0  503  0.30902259448E+02  0.36776062130E+02  0.72297662166E+02  0.86927960631E+02  0.47000000000E+01 0.  1.
<mgrwt>
<rscale>  0 0.25682032E+03</rscale>
<asrwt>0</asrwt>
<pdfrwt beam="1">  1        1 0.29004609E-02 0.25682032E+03</pdfrwt>
<pdfrwt beam="2">  1       -1 0.13455661E+00 0.25682032E+03</pdfrwt>
<totfact> 0.17815758E+03</totfact>
</mgrwt>
</event>
<event>
 9    1  0.8093459E-001  0.2708798E+03  0.7818608E-02  0.1100777E+00
         -1   -1    0    0    0  501 -0.00000000000E+00  0.00000000000E+00  0.51630039780E+03  0.51630039780E+03  0.00000000000E+00 0.  1.
          1   -1    0    0  501    0  0.00000000000E+00 -0.00000000000E+00 -0.35529646398E+02  0.35529646398E+02  0.00000000000E+00 0.  1.
         35    2    1    2    0    0 -0.71054273576E-14  0.10658141036E-13  0.48077075141E+03  0.55183004420E+03  0.27087982996E+03 0.  0.
         25    2    3    3    0    0 -0.21383760972E+02  0.23472203584E+02  0.23571147528E+03  0.27541637929E+03  0.13887430585E+03 0.  0.
         25    2    3    3    0    0  0.21383760972E+02 -0.23472203584E+02  0.24505927612E+03  0.27641366492E+03  0.12386385980E+03 0.  0.
          5    1    4    4  502    0 -0.40192420325E+02  0.65871315681E+02  0.73622728384E+02  0.10675606313E+03  0.47000000000E+01 0.  1.
         -5    1    4    4    0  502  0.18808659354E+02 -0.42399112097E+02  0.16208874690E+03  0.16866031615E+03  0.47000000000E+01 0.  1.
          5    1    5    5  503    0  0.63440669597E+02  0.19396077239E+02  0.11020737778E+03  0.12871939438E+03  0.47000000000E+01 0. -1.
         -5    1    5    5    0  503 -0.42056908626E+02 -0.42868280823E+02  0.13485189834E+03  0.14769427054E+03  0.47000000000E+01 0. -1.
<mgrwt>
<rscale>  0 0.27087983E+03</rscale>
<asrwt>0</asrwt>
<pdfrwt beam="1">  1        1 0.54660998E-02 0.27087983E+03</pdfrwt>
<pdfrwt beam="2">  1       -1 0.79430825E-01 0.27087983E+03</pdfrwt>
<totfact> 0.24286127E+03</totfact>
</mgrwt>
</event>
<event>
 9    1  0.8093459E-001  0.2729684E+03  0.7818608E-02  0.1099593E+00
          2   -1    0    0  501    0  0.00000000000E+00  0.00000000000E+00  0.11838522623E+04  0.11838522623E+04  0.00000000000E+00 0.  1.
         -2   -1    0    0    0  501 -0.00000000000E+00 -0.00000000000E+00 -0.15735016809E+02  0.15735016809E+02  0.00000000000E+00 0.  1.
         35    2    1    2    0    0 -0.35527136788E-14  0.17763568394E-14  0.11681172455E+04  0.11995872791E+04  0.27296838826E+03 0.  0.
         25    2    3    3    0    0 -0.28729988438E+02 -0.15325987181E+02  0.77303775335E+03  0.78411658986E+03  0.12724449011E+03 0.  0.
         25    2    3    3    0    0  0.28729988438E+02  0.15325987181E+02  0.39507949217E+03  0.41547068928E+03  0.12436957185E+03 0.  0.
          5    1    4    4  502    0 -0.42773657987E+02 -0.58620694273E+02  0.29244783916E+03  0.30135328145E+03  0.47000000000E+01 0.  1.
         -5    1    4    4    0  502  0.14043669550E+02  0.43294707092E+02  0.48058991419E+03  0.48276330840E+03  0.47000000000E+01 0.  1.
          5    1    5    5  503    0 -0.38754366021E+02  0.31194617700E+02  0.93778399325E+02  0.10626139110E+03  0.47000000000E+01 0. -1.
         -5    1    5    5    0  503  0.67484354459E+02 -0.15868630520E+02  0.30130109285E+03  0.30920929818E+03  0.47000000000E+01 0. -1.
<mgrwt>
<rscale>  0 0.27296839E+03</rscale>
<asrwt>0</asrwt>
<pdfrwt beam="1">  1        2 0.18213105E+00 0.27296839E+03</pdfrwt>
<pdfrwt beam="2">  1       -2 0.24207727E-02 0.27296839E+03</pdfrwt>
<totfact> 0.11878757E+04</totfact>
</mgrwt>
</event>
<event>
 9    1  0.8093459E-001  0.2779675E+03  0.7818608E-02  0.1096804E+00
          2   -1    0    0  501    0  0.00000000000E+00  0.00000000000E+00  0.55651392803E+03  0.55651392803E+03  0.00000000000E+00 0. -1.
         -2   -1    0    0    0  501 -0.00000000000E+00 -0.00000000000E+00 -0.34709797387E+02  0.34709797387E+02  0.00000000000E+00 0. -1.
         35    2    1    2    0    0  0.00000000000E+00 -0.71054273576E-14  0.52180413064E+03  0.59122372541E+03  0.27796752101E+03 0.  0.
         25    2    3    3    0    0  0.17836436569E+02  0.37012769885E+02  0.35799693107E+03  0.38107455096E+03  0.12396744385E+03 0.  0.
         25    2    3    3    0    0 -0.17836436569E+02 -0.37012769885E+02  0.16380719957E+03  0.21014917445E+03  0.12506715510E+03 0.  0.
          5    1    4    4  502    0  0.61112529330E+02  0.12155901466E+02  0.28966207076E+03  0.29632534893E+03  0.47000000000E+01 0. -1.
         -5    1    4    4    0  502 -0.43276092761E+02  0.24856868419E+02  0.68334860301E+02  0.84749202030E+02  0.47000000000E+01 0. -1.
          5    1    5    5  503    0 -0.12021996707E+02 -0.63836579602E+02  0.16962771775E+03  0.18170110052E+03  0.47000000000E+01 0. -1.
         -5    1    5    5    0  503 -0.58144398624E+01  0.26823809717E+02 -0.58205181755E+01  0.28448073933E+02  0.47000000000E+01 0. -1.
<mgrwt>
<rscale>  0 0.27796752E+03</rscale>
<asrwt>0</asrwt>
<pdfrwt beam="1">  1        2 0.85617521E-01 0.27796752E+03</pdfrwt>
<pdfrwt beam="2">  1       -2 0.53399692E-02 0.27796752E+03</pdfrwt>
<totfact> 0.97067699E+03</totfact>
</mgrwt>
</event>
<event>
 9    1  0.8093459E-001  0.2777455E+03  0.7818608E-02  0.1096927E+00
          2   -1    0    0  501    0  0.00000000000E+00  0.00000000000E+00  0.11253788069E+04  0.11253788069E+04  0.00000000000E+00 0. -1.
         -2   -1    0    0    0  501 -0.00000000000E+00 -0.00000000000E+00 -0.17137024181E+02  0.17137024181E+02  0.00000000000E+00 0. -1.
         35    2    1    2    0    0  0.35527136788E-14 -0.71054273576E-14  0.11082417827E+04  0.11425158310E+04  0.27774552256E+03 0.  0.
         25    2    3    3    0    0  0.31383207972E+02  0.50404230388E+02  0.61105426647E+03  0.62639034081E+03  0.12430627619E+03 0.  0.
         25    2    3    3    0    0 -0.31383207972E+02 -0.50404230388E+02  0.49718751620E+03  0.51612549022E+03  0.12515831260E+03 0.  0.
          5    1    4    4  502    0  0.26280263389E+01  0.87959784113E+02  0.34209926063E+03  0.35326735522E+03  0.47000000000E+01 0.  1.
         -5    1    4    4    0  502  0.28755181633E+02 -0.37555553725E+02  0.26895500585E+03  0.27312298559E+03  0.47000000000E+01 0.  1.
          5    1    5    5  503    0 -0.54306461232E+02 -0.68022507298E+02  0.20894703969E+03  0.22640054909E+03  0.47000000000E+01 0.  1.
         -5    1    5    5    0  503  0.22923253259E+02  0.17618276909E+02  0.28824047650E+03  0.28972494114E+03  0.47000000000E+01 0.  1.
<mgrwt>
<rscale>  0 0.27774552E+03</rscale>
<asrwt>0</asrwt>
<pdfrwt beam="1">  1        2 0.17313514E+00 0.27774552E+03</pdfrwt>
<pdfrwt beam="2">  1       -2 0.26364661E-02 0.27774552E+03</pdfrwt>
<totfact> 0.11319116E+04</totfact>
</mgrwt>
</event>
<event>
 9    1  0.8093459E-001  0.2745335E+03  0.7818608E-02  0.1098713E+00
         -1   -1    0    0    0  501 -0.00000000000E+00  0.00000000000E+00  0.10704496530E+02  0.10704496530E+02  0.00000000000E+00 0. -1.
          1   -1    0    0  501    0  0.00000000000E+00 -0.00000000000E+00 -0.17602095078E+04  0.17602095078E+04  0.00000000000E+00 0. -1.
         35    2    1    2    0    0 -0.17763568394E-14  0.00000000000E+00 -0.17495050113E+04  0.17709140043E+04  0.27453347022E+03 0.  0.
         25    2    3    3    0    0 -0.90770883545E+01  0.34366649429E+02 -0.11500016690E+04  0.11574183477E+04  0.12589651574E+03 0.  0.
         25    2    3    3    0    0  0.90770883545E+01 -0.34366649429E+02 -0.59950334227E+03  0.61349565666E+03  0.12533636037E+03 0.  0.
          5    1    4    4  502    0  0.34412810868E+01 -0.41255791018E+02 -0.19866405710E+03  0.20298615788E+03  0.47000000000E+01 0. -1.
         -5    1    4    4    0  502 -0.12518369441E+02  0.75622440447E+02 -0.95133761189E+03  0.95443218977E+03  0.47000000000E+01 0. -1.
          5    1    5    5  503    0 -0.26623309099E+02  0.30876647243E+02 -0.94542855660E+02  0.10306604430E+03  0.47000000000E+01 0.  1.
         -5    1    5    5    0  503  0.35700397454E+02 -0.65243296672E+02 -0.50496048661E+03  0.51042961236E+03  0.47000000000E+01 0.  1.
<mgrwt>
<rscale>  0 0.27453347E+03</rscale>
<asrwt>0</asrwt>
<pdfrwt beam="1">  1        1 0.27080154E+00 0.27453347E+03</pdfrwt>
<pdfrwt beam="2">  1       -1 0.16468452E-02 0.27453347E+03</pdfrwt>
<totfact> 0.43992497E+03</totfact>
</mgrwt>
</event>
<event>
 9    1  0.8093459E-001  0.2670453E+03  0.7818608E-02  0.1102983E+00
         -1   -1    0    0    0  501 -0.00000000000E+00  0.00000000000E+00  0.10758907054E+03  0.10758907054E+03  0.00000000000E+00 0.  1.
          1   -1    0    0  501    0  0.00000000000E+00 -0.00000000000E+00 -0.16570731640E+03  0.16570731640E+03  0.00000000000E+00 0.  1.
         35    2    1    2    0    0  0.71054273576E-14  0.35527136788E-14 -0.58118245864E+02  0.27329638694E+03  0.26704528569E+03 0.  0.
         25    2    3    3    0    0 -0.18147451980E+02 -0.14702428756E+02 -0.73841928079E+02  0.14655180343E+03  0.12441587246E+03 0.  0.
         25    2    3    3    0    0  0.18147451980E+02  0.14702428756E+02  0.15723682214E+02  0.12674458351E+03  0.12357776435E+03 0.  0.
          5    1    4    4  502    0  0.49140926883E+02 -0.22735579517E+02 -0.51945683425E+02  0.75180990266E+02  0.47000000000E+01 0.  1.
         -5    1    4    4    0  502 -0.67288378863E+02  0.80331507610E+01 -0.21896244654E+02  0.71370813160E+02  0.47000000000E+01 0.  1.
          5    1    5    5  503    0  0.19389417717E+02  0.39864010502E+02  0.60502369437E+02  0.75151284488E+02  0.47000000000E+01 0.  1.
         -5    1    5    5    0  503 -0.12419657374E+01 -0.25161581746E+02 -0.44778687222E+02  0.51593299024E+02  0.47000000000E+01 0.  1.
<mgrwt>
<rscale>  0 0.26704529E+03</rscale>
<asrwt>0</asrwt>
<pdfrwt beam="1">  1        1 0.25493433E-01 0.26704529E+03</pdfrwt>
<pdfrwt beam="2">  1       -1 0.16552165E-01 0.26704529E+03</pdfrwt>
<totfact> 0.50750219E+03</totfact>
</mgrwt>
</event>
<event>
 9    1  0.8093459E-001  0.2758089E+03  0.7818608E-02  0.1098000E+00
          1   -1    0    0  501    0  0.00000000000E+00  0.00000000000E+00  0.13475466125E+03  0.13475466125E+03  0.00000000000E+00 0. -1.
         -1   -1    0    0    0  501 -0.00000000000E+00 -0.00000000000E+00 -0.14112783537E+03  0.14112783537E+03  0.00000000000E+00 0. -1.
         35    2    1    2    0    0  0.17763568394E-14  0.71054273576E-14 -0.63731741225E+01  0.27588249661E+03  0.27580887330E+03 0.  0.
         25    2    3    3    0    0 -0.99681825015E+01 -0.52022080849E+02 -0.25606595342E+02  0.13845233532E+03  0.12533032303E+03 0.  0.
         25    2    3    3    0    0  0.99681825015E+01  0.52022080849E+02  0.19233421219E+02  0.13743016129E+03  0.12534537560E+03 0.  0.
          5    1    4    4  502    0  0.26380883151E+02  0.33373362336E+02 -0.35821083130E+01  0.42949433167E+02  0.47000000000E+01 0. -1.
         -5    1    4    4    0  502 -0.36349065652E+02 -0.85395443185E+02 -0.22024487029E+02  0.95502902152E+02  0.47000000000E+01 0. -1.
          5    1    5    5  503    0 -0.21451980087E+01  0.77465250808E+02 -0.27745822135E+02  0.82446271008E+02  0.47000000000E+01 0.  1.
         -5    1    5    5    0  503  0.12113380510E+02 -0.25443169959E+02  0.46979243354E+02  0.54983890287E+02  0.47000000000E+01 0.  1.
<mgrwt>
<rscale>  0 0.27580887E+03</rscale>
<asrwt>0</asrwt>
<pdfrwt beam="1">  1        1 0.20731486E-01 0.27580887E+03</pdfrwt>
<pdfrwt beam="2">  1       -1 0.21711975E-01 0.27580887E+03</pdfrwt>
<totfact> 0.42661620E+03</totfact>
</mgrwt>
</event>
<event>
 9    1  0.8093459E-001  0.2752095E+03  0.7818608E-02  0.1098335E+00
          2   -1    0    0  501    0  0.00000000000E+00  0.00000000000E+00  0.47016001305E+03  0.47016001305E+03  0.00000000000E+00 0.  1.
         -2   -1    0    0    0  501 -0.00000000000E+00 -0.00000000000E+00 -0.40273664439E+02  0.40273664439E+02  0.00000000000E+00 0.  1.
         35    2    1    2    0    0  0.00000000000E+00  0.10658141036E-13  0.42988634861E+03  0.51043367749E+03  0.27520949546E+03 0.  0.
         25    2    3    3    0    0 -0.29136370421E+02 -0.19879093634E+02  0.30225338119E+03  0.32890819811E+03  0.12481742625E+03 0.  0.
         25    2    3    3    0    0  0.29136370421E+02  0.19879093634E+02  0.12763296742E+03  0.18152547938E+03  0.12416609379E+03 0.  0.
          5    1    4    4  502    0  0.14087270805E+02  0.47661291773E+01 -0.59394864584E+01  0.16689358450E+02  0.47000000000E+01 0.  1.
         -5    1    4    4    0  502 -0.43223641226E+02 -0.24645222811E+02  0.30819286765E+03  0.31221883966E+03  0.47000000000E+01 0.  1.
          5    1    5    5  503    0 -0.66040904064E+01 -0.49296458457E+02  0.38447253688E+02  0.63039956715E+02  0.47000000000E+01 0. -1.
         -5    1    5    5    0  503  0.35740460827E+02  0.69175552092E+02  0.89185713734E+02  0.11848552267E+03  0.47000000000E+01 0. -1.
<mgrwt>
<rscale>  0 0.27520950E+03</rscale>
<asrwt>0</asrwt>
<pdfrwt beam="1">  1        2 0.72332306E-01 0.27520950E+03</pdfrwt>
<pdfrwt beam="2">  1       -2 0.61959487E-02 0.27520950E+03</pdfrwt>
<totfact> 0.93404944E+03</totfact>
</mgrwt>
</event>
<event>
 9    1  0.8093459E-001  0.2743375E+03  0.7818608E-02  0.1098822E+00
         -2   -1    0    0    0  501 -0.00000000000E+00  0.00000000000E+00  0.24475601844E+02  0.24475601844E+02  0.00000000000E+00 0. -1.
          2   -1    0    0  501    0  0.00000000000E+00 -0.00000000000E+00 -0.76873572410E+03  0.76873572410E+03  0.00000000000E+00 0. -1.
         35    2    1    2    0    0 -0.71054273576E-14  0.00000000000E+00 -0.74426012226E+03  0.79321132594E+03  0.27433752573E+03 0.  0.
         25    2    3    3    0    0  0.37462808175E+02 -0.64261675834E+01 -0.25360431412E+03  0.28532684381E+03  0.12510596322E+03 0.  0.
         25    2    3    3    0    0 -0.37462808175E+02  0.64261675834E+01 -0.49065580814E+03  0.50788448213E+03  0.12553392970E+03 0.  0.
          5    1    4    4  502    0  0.79073896590E+02 -0.17624247259E+02 -0.20344536614E+03  0.21903287930E+03  0.47000000000E+01 0.  1.
         -5    1    4    4    0  502 -0.41611088416E+02  0.11198079676E+02 -0.50158947979E+02  0.66293964506E+02  0.47000000000E+01 0.  1.
          5    1    5    5  503    0 -0.77321465623E+02  0.22290355217E+02 -0.39200699934E+03  0.40020875367E+03  0.47000000000E+01 0. -1.
         -5    1    5    5    0  503  0.39858657448E+02 -0.15864187634E+02 -0.98648808799E+02  0.10767572846E+03  0.47000000000E+01 0. -1.
<mgrwt>
<rscale>  0 0.27433753E+03</rscale>
<asrwt>0</asrwt>
<pdfrwt beam="1">  1        2 0.11826701E+00 0.27433753E+03</pdfrwt>
<pdfrwt beam="2">  1       -2 0.37654779E-02 0.27433753E+03</pdfrwt>
<totfact> 0.11196692E+04</totfact>
</mgrwt>
</event>
<event>
 9    1  0.8093459E-001  0.2795155E+03  0.7818608E-02  0.1095954E+00
          1   -1    0    0  501    0  0.00000000000E+00  0.00000000000E+00  0.18679763522E+03  0.18679763522E+03  0.00000000000E+00 0. -1.
         -1   -1    0    0    0  501 -0.00000000000E+00 -0.00000000000E+00 -0.10456360851E+03  0.10456360851E+03  0.00000000000E+00 0. -1.
         35    2    1    2    0    0 -0.71054273576E-14 -0.71054273576E-14  0.82234026707E+02  0.29136124372E+03  0.27951554375E+03 0.  0.
         25    2    3    3    0    0 -0.65120318830E+01  0.62328185409E+02  0.47114962041E+02  0.14746893803E+03  0.12490019527E+03 0.  0.
         25    2    3    3    0    0  0.65120318830E+01 -0.62328185409E+02  0.35119064666E+02  0.14389230570E+03  0.12467733427E+03 0.  0.
          5    1    4    4  502    0  0.24834607312E+02 -0.62095131834E+01 -0.29879230555E+02  0.39625423567E+02  0.47000000000E+01 0. -1.
         -5    1    4    4    0  502 -0.31346639195E+02  0.68537698593E+02  0.76994192596E+02  0.10784351446E+03  0.47000000000E+01 0. -1.
          5    1    5    5  503    0  0.64248348423E+02 -0.20928585993E+02  0.23821339789E+02  0.71801129630E+02  0.47000000000E+01 0.  1.
         -5    1    5    5    0  503 -0.57736316540E+02 -0.41399599417E+02  0.11297724877E+02  0.72091176068E+02  0.47000000000E+01 0.  1.
<mgrwt>
<rscale>  0 0.27951554E+03</rscale>
<asrwt>0</asrwt>
<pdfrwt beam="1">  1        1 0.28738098E-01 0.27951554E+03</pdfrwt>
<pdfrwt beam="2">  1       -1 0.16086709E-01 0.27951554E+03</pdfrwt>
<totfact> 0.45699717E+03</totfact>
</mgrwt>
</event>
<event>
 9    1  0.8093459E-001  0.2754087E+03  0.7818608E-02  0.1098223E+00
         -2   -1    0    0    0  501 -0.00000000000E+00  0.00000000000E+00  0.16678095954E+02  0.16678095954E+02  0.00000000000E+00 0.  1.
          2   -1    0    0  501    0  0.00000000000E+00 -0.00000000000E+00 -0.11369700023E+04  0.11369700023E+04  0.00000000000E+00 0.  1.
         35    2    1    2    0    0  0.00000000000E+00  0.00000000000E+00 -0.11202919064E+04  0.11536480983E+04  0.27540874929E+03 0.  0.
         25    2    3    3    0    0  0.58501969870E+01  0.25815116915E+02 -0.77648804864E+03  0.78682161619E+03  0.12431380032E+03 0.  0.
         25    2    3    3    0    0 -0.58501969870E+01 -0.25815116915E+02 -0.34380385773E+03  0.36682648209E+03  0.12513964323E+03 0.  0.
          5    1    4    4  502    0 -0.76688054758E+01  0.34211312935E+02 -0.56616467788E+02  0.66758811665E+02  0.47000000000E+01 0. -1.
         -5    1    4    4    0  502  0.13519002463E+02 -0.83961960199E+01 -0.71987158086E+03  0.72006280452E+03  0.47000000000E+01 0. -1.
          5    1    5    5  503    0 -0.24732458885E+02 -0.54680841266E+02 -0.31760019737E+03  0.32325479779E+03  0.47000000000E+01 0.  1.
         -5    1    5    5    0  503  0.18882261898E+02  0.28865724351E+02 -0.26203660356E+02  0.43571684300E+02  0.47000000000E+01 0.  1.
<mgrwt>
<rscale>  0 0.27540875E+03</rscale>
<asrwt>0</asrwt>
<pdfrwt beam="1">  1        2 0.17491845E+00 0.27540875E+03</pdfrwt>
<pdfrwt beam="2">  1       -2 0.25658611E-02 0.27540875E+03</pdfrwt>
<totfact> 0.11599580E+04</totfact>
</mgrwt>
</event>
<event>
 9    1  0.8093459E-001  0.2787299E+03  0.7818608E-02  0.1096385E+00
          4   -1    0    0  501    0  0.00000000000E+00  0.00000000000E+00  0.43424941656E+02  0.43424941656E+02  0.00000000000E+00 0. -1.
         -4   -1    0    0    0  501 -0.00000000000E+00 -0.00000000000E+00 -0.44726818670E+03  0.44726818670E+03  0.00000000000E+00 0. -1.
         35    2    1    2    0    0 -0.35527136788E-14 -0.71054273576E-14 -0.40384324504E+03  0.49069312836E+03  0.27872994035E+03 0.  0.
         25    2    3    3    0    0  0.27984927967E+02  0.71976261670E+01 -0.10591732447E+03  0.16628538891E+03  0.12488950687E+03 0.  0.
         25    2    3    3    0    0 -0.27984927967E+02 -0.71976261670E+01 -0.29792592057E+03  0.32440773945E+03  0.12508223394E+03 0.  0.
          5    1    4    4  502    0  0.17616976621E+02 -0.53140230837E+02 -0.84065777492E+02  0.10111076572E+03  0.47000000000E+01 0. -1.
         -5    1    4    4    0  502  0.10367951345E+02  0.60337857004E+02 -0.21851546977E+02  0.65174623192E+02  0.47000000000E+01 0. -1.
          5    1    5    5  503    0  0.23648815205E+02 -0.33107613719E+02 -0.23623856047E+03  0.23976264930E+03  0.47000000000E+01 0. -1.
         -5    1    5    5    0  503 -0.51633743172E+02  0.25909987552E+02 -0.61687360102E+02  0.84645090142E+02  0.47000000000E+01 0. -1.
<mgrwt>
<rscale>  0 0.27872994E+03</rscale>
<asrwt>0</asrwt>
<pdfrwt beam="1">  1        4 0.66807603E-02 0.27872994E+03</pdfrwt>
<pdfrwt beam="2">  1       -4 0.68810490E-01 0.27872994E+03</pdfrwt>
<totfact> 0.55261019E+02</totfact>
</mgrwt>
</event>
<event>
 9    1  0.8093459E-001  0.2757549E+03  0.7818608E-02  0.1098030E+00
         -1   -1    0    0    0  501 -0.00000000000E+00  0.00000000000E+00  0.16939900462E+03  0.16939900462E+03  0.00000000000E+00 0. -1.
          1   -1    0    0  501    0  0.00000000000E+00 -0.00000000000E+00 -0.11222135897E+03  0.11222135897E+03  0.00000000000E+00 0. -1.
         35    2    1    2    0    0 -0.71054273576E-14  0.71054273576E-14  0.57177645645E+02  0.28162036359E+03  0.27575486583E+03 0.  0.
         25    2    3    3    0    0  0.48947750944E+02  0.32051254948E+00  0.53672806703E+02  0.14680079384E+03  0.12756848295E+03 0.  0.
         25    2    3    3    0    0 -0.48947750944E+02 -0.32051254948E+00  0.35048389425E+01  0.13481956975E+03  0.12557088612E+03 0.  0.
          5    1    4    4  502    0  0.60165623271E+02  0.51986110928E+02  0.14813359299E+02  0.81018414986E+02  0.47000000000E+01 0. -1.
         -5    1    4    4    0  502 -0.11217872327E+02 -0.51665598379E+02  0.38859447403E+02  0.65782378855E+02  0.47000000000E+01 0. -1.
          5    1    5    5  503    0  0.19437550273E+01  0.53466068225E+02 -0.19501907215E+02  0.57138542334E+02  0.47000000000E+01 0.  1.
         -5    1    5    5    0  503 -0.50891505972E+02 -0.53786580775E+02  0.23006746157E+02  0.77681027415E+02  0.47000000000E+01 0.  1.
<mgrwt>
<rscale>  0 0.27575487E+03</rscale>
<asrwt>0</asrwt>
<pdfrwt beam="1">  1        1 0.17264824E-01 0.27575487E+03</pdfrwt>
<pdfrwt beam="2">  1       -1 0.26061385E-01 0.27575487E+03</pdfrwt>
<totfact> 0.39957673E+03</totfact>
</mgrwt>
</event>
<event>
 9    1  0.8093459E-001  0.2727175E+03  0.7818608E-02  0.1099734E+00
         -1   -1    0    0    0  501 -0.00000000000E+00  0.00000000000E+00  0.38409054076E+02  0.38409054076E+02  0.00000000000E+00 0. -1.
          1   -1    0    0  501    0  0.00000000000E+00 -0.00000000000E+00 -0.48409690700E+03  0.48409690700E+03  0.00000000000E+00 0. -1.
         35    2    1    2    0    0  0.88817841970E-15  0.14210854715E-13 -0.44568785293E+03  0.52250596108E+03  0.27271746757E+03 0.  0.
         25    2    3    3    0    0 -0.25279888843E+01  0.48095634089E+02 -0.26556393528E+03  0.29797591225E+03  0.12627691718E+03 0.  0.
         25    2    3    3    0    0  0.25279888843E+01 -0.48095634089E+02 -0.18012391765E+03  0.22453004883E+03  0.12509810700E+03 0.  0.
          5    1    4    4  502    0  0.66748559342E+01  0.90541167708E+02 -0.16633809813E+03  0.18955925100E+03  0.47000000000E+01 0. -1.
         -5    1    4    4    0  502 -0.92028448185E+01 -0.42445533619E+02 -0.99225837152E+02  0.10841666125E+03  0.47000000000E+01 0. -1.
          5    1    5    5  503    0  0.59966489722E+02 -0.46892525115E+02 -0.10758444039E+03  0.13187642176E+03  0.47000000000E+01 0.  1.
         -5    1    5    5    0  503 -0.57438500838E+02 -0.12031089741E+01 -0.72539477257E+02  0.92653627076E+02  0.47000000000E+01 0.  1.
<mgrwt>
<rscale>  0 0.27271747E+03</rscale>
<asrwt>0</asrwt>
<pdfrwt beam="1">  1        1 0.74476448E-01 0.27271747E+03</pdfrwt>
<pdfrwt beam="2">  1       -1 0.59090852E-02 0.27271747E+03</pdfrwt>
<totfact> 0.64133993E+03</totfact>
</mgrwt>
</event>
<event>
 9    1  0.8093459E-001  0.2726239E+03  0.7818608E-02  0.1099787E+00
         -2   -1    0    0    0  501 -0.00000000000E+00  0.00000000000E+00  0.95849006377E+01  0.95849006377E+01  0.00000000000E+00 0.  1.
          2   -1    0    0  501    0  0.00000000000E+00 -0.00000000000E+00 -0.19385638379E+04  0.19385638379E+04  0.00000000000E+00 0.  1.
         35    2    1    2    0    0  0.14210854715E-13  0.17763568394E-14 -0.19289789372E+04  0.19481487385E+04  0.27262385637E+03 0.  0.
         25    2    3    3    0    0  0.57818423913E+02  0.40664020186E+01 -0.10993770897E+04  0.11071941990E+04  0.11785373605E+03 0.  0.
         25    2    3    3    0    0 -0.57818423913E+02 -0.40664020186E+01 -0.82960184753E+03  0.84095453954E+03  0.12492320191E+03 0.  0.
          5    1    4    4  502    0  0.56286836512E+02 -0.15366176558E+02 -0.22198418124E+03  0.22957219794E+03  0.47000000000E+01 0. -1.
         -5    1    4    4    0  502  0.15315874005E+01  0.19432578577E+02 -0.87739290844E+03  0.87762200101E+03  0.47000000000E+01 0. -1.
          5    1    5    5  503    0 -0.54060818332E+02  0.55629888897E+02 -0.47070111862E+03  0.47707325401E+03  0.47000000000E+01 0.  1.
         -5    1    5    5    0  503 -0.37576055810E+01 -0.59696290915E+02 -0.35890072891E+03  0.36388128553E+03  0.47000000000E+01 0.  1.
<mgrwt>
<rscale>  0 0.27262386E+03</rscale>
<asrwt>0</asrwt>
<pdfrwt beam="1">  1        2 0.29824033E+00 0.27262386E+03</pdfrwt>
<pdfrwt beam="2">  1       -2 0.14746014E-02 0.27262386E+03</pdfrwt>
<totfact> 0.96802155E+03</totfact>
</mgrwt>
</event>
<event>
 9    1  0.8093459E-001  0.2751286E+03  0.7818608E-02  0.1098380E+00
         -2   -1    0    0    0  501 -0.00000000000E+00  0.00000000000E+00  0.20282070120E+03  0.20282070120E+03  0.00000000000E+00 0.  1.
          2   -1    0    0  501    0  0.00000000000E+00 -0.00000000000E+00 -0.93303759249E+02  0.93303759249E+02  0.00000000000E+00 0.  1.
         35    2    1    2    0    0  0.00000000000E+00  0.00000000000E+00  0.10951694195E+03  0.29612446044E+03  0.27512857994E+03 0.  0.
         25    2    3    3    0    0  0.48031045751E+02  0.26742746394E+02  0.24615947502E+02  0.13536322886E+03  0.12122336002E+03 0.  0.
         25    2    3    3    0    0 -0.48031045751E+02 -0.26742746394E+02  0.84900994445E+02  0.16076123158E+03  0.12495534755E+03 0.  0.
          5    1    4    4  502    0  0.12964006091E+02  0.14216127756E+02  0.72137817588E+02  0.74807208668E+02  0.47000000000E+01 0. -1.
         -5    1    4    4    0  502  0.35067039661E+02  0.12526618638E+02 -0.47521870086E+02  0.60556020192E+02  0.47000000000E+01 0. -1.
          5    1    5    5  503    0 -0.73294198742E+02  0.42164497511E+01  0.80365469206E+01  0.74003338466E+02  0.47000000000E+01 0. -1.
         -5    1    5    5    0  503  0.25263152991E+02 -0.30959196145E+02  0.76864447525E+02  0.86757893118E+02  0.47000000000E+01 0. -1.
<mgrwt>
<rscale>  0 0.27512858E+03</rscale>
<asrwt>0</asrwt>
<pdfrwt beam="1">  1        2 0.14354424E-01 0.27512858E+03</pdfrwt>
<pdfrwt beam="2">  1       -2 0.31203185E-01 0.27512858E+03</pdfrwt>
<totfact> 0.38875198E+03</totfact>
</mgrwt>
</event>
<event>
 9    1  0.8093459E-001  0.2735785E+03  0.7818608E-02  0.1099249E+00
         -2   -1    0    0    0  501 -0.00000000000E+00  0.00000000000E+00  0.11998015673E+03  0.11998015673E+03  0.00000000000E+00 0.  1.
          2   -1    0    0  501    0  0.00000000000E+00 -0.00000000000E+00 -0.15595333553E+03  0.15595333553E+03  0.00000000000E+00 0.  1.
         35    2    1    2    0    0 -0.17763568394E-14  0.71054273576E-14 -0.35973178807E+02  0.27593349226E+03  0.27357854915E+03 0.  0.
         25    2    3    3    0    0 -0.53918505075E+01  0.12609160270E+02 -0.69710223064E+02  0.14545919951E+03  0.12692832839E+03 0.  0.
         25    2    3    3    0    0  0.53918505075E+01 -0.12609160270E+02  0.33737044257E+02  0.13047429275E+03  0.12528882607E+03 0.  0.
          5    1    4    4  502    0  0.48474927808E+02 -0.30376355070E+02 -0.41571771091E+02  0.70872023570E+02  0.47000000000E+01 0.  1.
         -5    1    4    4    0  502 -0.53866778315E+02  0.42985515341E+02 -0.28138451973E+02  0.74587175939E+02  0.47000000000E+01 0.  1.
          5    1    5    5  503    0  0.30381850707E-01 -0.47050405607E+02 -0.31181567532E+02  0.56640283761E+02  0.47000000000E+01 0.  1.
         -5    1    5    5    0  503  0.53614686568E+01  0.34441245336E+02  0.64918611789E+02  0.73834008987E+02  0.47000000000E+01 0.  1.
<mgrwt>
<rscale>  0 0.27357855E+03</rscale>
<asrwt>0</asrwt>
<pdfrwt beam="1">  1        2 0.23992821E-01 0.27357855E+03</pdfrwt>
<pdfrwt beam="2">  1       -2 0.18458486E-01 0.27357855E+03</pdfrwt>
<totfact> 0.53965759E+03</totfact>
</mgrwt>
</event>
<event>
 9    1  0.8093459E-001  0.2832319E+03  0.7818608E-02  0.1093937E+00
         -2   -1    0    0    0  501 -0.00000000000E+00  0.00000000000E+00  0.32862240915E+03  0.32862240915E+03  0.00000000000E+00 0.  1.
          2   -1    0    0  501    0  0.00000000000E+00 -0.00000000000E+00 -0.61027726849E+02  0.61027726849E+02  0.00000000000E+00 0.  1.
         35    2    1    2    0    0  0.00000000000E+00  0.35527136788E-14  0.26759468231E+03  0.38965013600E+03  0.28323190938E+03 0.  0.
         25    2    3    3    0    0 -0.59713290400E+02  0.29182249675E+02  0.12768603974E+03  0.19052691268E+03  0.12481786317E+03 0.  0.
         25    2    3    3    0    0  0.59713290400E+02 -0.29182249675E+02  0.13990864257E+03  0.19912322332E+03  0.12513332511E+03 0.  0.
          5    1    4    4  502    0  0.20770022489E+02  0.36629469417E+02  0.38122261099E+01  0.42540979442E+02  0.47000000000E+01 0. -1.
         -5    1    4    4    0  502 -0.80483312889E+02 -0.74472197418E+01  0.12387381363E+03  0.14798593324E+03  0.47000000000E+01 0. -1.
          5    1    5    5  503    0  0.78704516120E+02 -0.51775289287E+02  0.55183124997E+02  0.10928105381E+03  0.47000000000E+01 0. -1.
         -5    1    5    5    0  503 -0.18991225720E+02  0.22593039612E+02  0.84725517572E+02  0.89842169504E+02  0.47000000000E+01 0. -1.
<mgrwt>
<rscale>  0 0.28323191E+03</rscale>
<asrwt>0</asrwt>
<pdfrwt beam="1">  1        2 0.93888813E-02 0.28323191E+03</pdfrwt>
<pdfrwt beam="2">  1       -2 0.50557293E-01 0.28323191E+03</pdfrwt>
<totfact> 0.26003633E+03</totfact>
</mgrwt>
</event>
<event>
 9    1  0.8093459E-001  0.2748734E+03  0.7818608E-02  0.1098522E+00
         -2   -1    0    0    0  501 -0.00000000000E+00  0.00000000000E+00  0.19556448330E+02  0.19556448330E+02  0.00000000000E+00 0.  1.
          2   -1    0    0  501    0  0.00000000000E+00 -0.00000000000E+00 -0.96586288858E+03  0.96586288858E+03  0.00000000000E+00 0.  1.
         35    2    1    2    0    0  0.35527136788E-14 -0.35527136788E-14 -0.94630644025E+03  0.98541933691E+03  0.27487340849E+03 0.  0.
         25    2    3    3    0    0 -0.19044030250E+02  0.18655638481E+02 -0.29345979154E+03  0.32015328863E+03  0.12517496169E+03 0.  0.
         25    2    3    3    0    0  0.19044030250E+02 -0.18655638481E+02 -0.65284664871E+03  0.66526604828E+03  0.12513776539E+03 0.  0.
          5    1    4    4  502    0 -0.23594993734E+02 -0.13834776447E+02 -0.28445989688E+03  0.28581051014E+03  0.47000000000E+01 0.  1.
         -5    1    4    4    0  502  0.45509634840E+01  0.32490414928E+02 -0.89998946547E+01  0.34342778494E+02  0.47000000000E+01 0.  1.
          5    1    5    5  503    0  0.27272152090E+02 -0.29636391823E+02 -0.64899334077E+03  0.65025881952E+03  0.47000000000E+01 0.  1.
         -5    1    5    5    0  503 -0.82281218391E+01  0.10980753342E+02 -0.38533079403E+01  0.15007228760E+02  0.47000000000E+01 0.  1.
<mgrwt>
<rscale>  0 0.27487341E+03</rscale>
<asrwt>0</asrwt>
<pdfrwt beam="1">  1        2 0.14859427E+00 0.27487341E+03</pdfrwt>
<pdfrwt beam="2">  1       -2 0.30086848E-02 0.27487341E+03</pdfrwt>
<totfact> 0.11597475E+04</totfact>
</mgrwt>
</event>
<event>
 9    1  0.8093459E-001  0.2756208E+03  0.7818608E-02  0.1098105E+00
          2   -1    0    0  501    0  0.00000000000E+00  0.00000000000E+00  0.89010132014E+03  0.89010132014E+03  0.00000000000E+00 0.  1.
         -2   -1    0    0    0  501 -0.00000000000E+00 -0.00000000000E+00 -0.21336567459E+02  0.21336567459E+02  0.00000000000E+00 0.  1.
         35    2    1    2    0    0 -0.71054273576E-14 -0.53290705182E-14  0.86876475268E+03  0.91143788760E+03  0.27562080373E+03 0.  0.
         25    2    3    3    0    0 -0.30889683527E+02 -0.13640226685E+02  0.29176725561E+03  0.31958502524E+03  0.12596121855E+03 0.  0.
         25    2    3    3    0    0  0.30889683527E+02  0.13640226685E+02  0.57699749707E+03  0.59185286236E+03  0.12737138897E+03 0.  0.
          5    1    4    4  502    0  0.32472391438E+02  0.46113586426E+01  0.21811512360E+03  0.22061735648E+03  0.47000000000E+01 0. -1.
         -5    1    4    4    0  502 -0.63362074966E+02 -0.18251585328E+02  0.73652132010E+02  0.98967668764E+02  0.47000000000E+01 0. -1.
          5    1    5    5  503    0  0.21087019242E+02  0.64805377330E+02  0.43883782642E+03  0.44412287400E+03  0.47000000000E+01 0. -1.
         -5    1    5    5    0  503  0.98026642851E+01 -0.51165150645E+02  0.13815967065E+03  0.14772998836E+03  0.47000000000E+01 0. -1.
<mgrwt>
<rscale>  0 0.27562080E+03</rscale>
<asrwt>0</asrwt>
<pdfrwt beam="1">  1        2 0.13693864E+00 0.27562080E+03</pdfrwt>
<pdfrwt beam="2">  1       -2 0.32825495E-02 0.27562080E+03</pdfrwt>
<totfact> 0.11381006E+04</totfact>
</mgrwt>
</event>
<event>
 9    1  0.8093459E-001  0.2743595E+03  0.7818608E-02  0.1098810E+00
         -1   -1    0    0    0  501 -0.00000000000E+00  0.00000000000E+00  0.49208074678E+03  0.49208074678E+03  0.00000000000E+00 0. -1.
          1   -1    0    0  501    0  0.00000000000E+00 -0.00000000000E+00 -0.38242265526E+02  0.38242265526E+02  0.00000000000E+00 0. -1.
         35    2    1    2    0    0  0.00000000000E+00  0.35527136788E-14  0.45383848125E+03  0.53032301231E+03  0.27435949102E+03 0.  0.
         25    2    3    3    0    0  0.50819147812E+01 -0.17269224926E+01  0.33536292384E+03  0.35803580885E+03  0.12526987510E+03 0.  0.
         25    2    3    3    0    0 -0.50819147812E+01  0.17269224926E+01  0.11847555741E+03  0.17228720346E+03  0.12497045512E+03 0.  0.
          5    1    4    4  502    0  0.51832505373E+02  0.31567883824E+02  0.11317064012E+03  0.12850223223E+03  0.47000000000E+01 0.  1.
         -5    1    4    4    0  502 -0.46750590592E+02 -0.33294806317E+02  0.22219228372E+03  0.22953357662E+03  0.47000000000E+01 0.  1.
          5    1    5    5  503    0 -0.10985057467E+02  0.30560991699E+02 -0.14599737608E+02  0.35915011338E+02  0.47000000000E+01 0. -1.
         -5    1    5    5    0  503  0.59031426855E+01 -0.28834069206E+02  0.13307529502E+03  0.13637219212E+03  0.47000000000E+01 0. -1.
<mgrwt>
<rscale>  0 0.27435949E+03</rscale>
<asrwt>0</asrwt>
<pdfrwt beam="1">  1        1 0.58834258E-02 0.27435949E+03</pdfrwt>
<pdfrwt beam="2">  1       -1 0.75704726E-01 0.27435949E+03</pdfrwt>
<totfact> 0.24226113E+03</totfact>
</mgrwt>
</event>
<event>
 9    1  0.8093459E-001  0.2763854E+03  0.7818608E-02  0.1097680E+00
          2   -1    0    0  501    0  0.00000000000E+00  0.00000000000E+00  0.79877563797E+02  0.79877563797E+02  0.00000000000E+00 0.  1.
         -2   -1    0    0    0  501 -0.00000000000E+00 -0.00000000000E+00 -0.23908112674E+03  0.23908112674E+03  0.00000000000E+00 0.  1.
         35    2    1    2    0    0  0.00000000000E+00  0.14210854715E-13 -0.15920356295E+03  0.31895869054E+03  0.27638536831E+03 0.  0.
         25    2    3    3    0    0  0.33523695647E+02 -0.49436755166E+02 -0.71445767507E+02  0.15467341094E+03  0.12349710695E+03 0.  0.
         25    2    3    3    0    0 -0.33523695647E+02  0.49436755166E+02 -0.87757795441E+02  0.16428527960E+03  0.12538098541E+03 0.  0.
          5    1    4    4  502    0  0.33577681038E+02  0.19974286809E+02  0.16386348715E+02  0.42626696115E+02  0.47000000000E+01 0. -1.
         -5    1    4    4    0  502 -0.53985390857E-01 -0.69411041975E+02 -0.87832116222E+02  0.11204671482E+03  0.47000000000E+01 0. -1.
          5    1    5    5  503    0 -0.62147564694E+02 -0.18346240852E+02 -0.36896847142E+02  0.74715270727E+02  0.47000000000E+01 0. -1.
         -5    1    5    5    0  503  0.28623869047E+02  0.67782996018E+02 -0.50860948299E+02  0.89570008878E+02  0.47000000000E+01 0. -1.
<mgrwt>
<rscale>  0 0.27638537E+03</rscale>
<asrwt>0</asrwt>
<pdfrwt beam="1">  1        2 0.12288856E-01 0.27638537E+03</pdfrwt>
<pdfrwt beam="2">  1       -2 0.36781711E-01 0.27638537E+03</pdfrwt>
<totfact> 0.34550957E+03</totfact>
</mgrwt>
</event>
<event>
 9    1  0.8093459E-001  0.2736619E+03  0.7818608E-02  0.1099202E+00
         -2   -1    0    0    0  501 -0.00000000000E+00  0.00000000000E+00  0.37279027373E+02  0.37279027373E+02  0.00000000000E+00 0. -1.
          2   -1    0    0  501    0  0.00000000000E+00 -0.00000000000E+00 -0.50223155806E+03  0.50223155806E+03  0.00000000000E+00 0. -1.
         35    2    1    2    0    0 -0.71054273576E-14  0.00000000000E+00 -0.46495253069E+03  0.53951058544E+03  0.27366186436E+03 0.  0.
         25    2    3    3    0    0  0.23751875748E+02  0.45800186336E+02 -0.18772217685E+03  0.23102722836E+03  0.12438712109E+03 0.  0.
         25    2    3    3    0    0 -0.23751875748E+02 -0.45800186336E+02 -0.27723035384E+03  0.30848335708E+03  0.12507399343E+03 0.  0.
          5    1    4    4  502    0  0.25376519225E+02 -0.16986901917E+02  0.21595559148E+01  0.30972185045E+02  0.47000000000E+01 0. -1.
         -5    1    4    4    0  502 -0.16246434771E+01  0.62787088253E+02 -0.18988173276E+03  0.20005504331E+03  0.47000000000E+01 0. -1.
          5    1    5    5  503    0 -0.53946845967E+02  0.23640822965E+02 -0.11057693320E+03  0.12537343760E+03  0.47000000000E+01 0. -1.
         -5    1    5    5    0  503  0.30194970218E+02 -0.69441009301E+02 -0.16665342064E+03  0.18310991948E+03  0.47000000000E+01 0. -1.
<mgrwt>
<rscale>  0 0.27366186E+03</rscale>
<asrwt>0</asrwt>
<pdfrwt beam="1">  1        2 0.77266398E-01 0.27366186E+03</pdfrwt>
<pdfrwt beam="2">  1       -2 0.57352346E-02 0.27366186E+03</pdfrwt>
<totfact> 0.97684020E+03</totfact>
</mgrwt>
</event>
<event>
 9    1  0.8093459E-001  0.2741726E+03  0.7818608E-02  0.1098915E+00
         -2   -1    0    0    0  501 -0.00000000000E+00  0.00000000000E+00  0.37544958791E+03  0.37544958791E+03  0.00000000000E+00 0. -1.
          2   -1    0    0  501    0  0.00000000000E+00 -0.00000000000E+00 -0.50053729056E+02  0.50053729056E+02  0.00000000000E+00 0. -1.
         35    2    1    2    0    0  0.71054273576E-14  0.00000000000E+00  0.32539585885E+03  0.42550331697E+03  0.27417258760E+03 0.  0.
         25    2    3    3    0    0 -0.58099120516E+02  0.12556488592E+02  0.16250784835E+03  0.21324056890E+03  0.12461768028E+03 0.  0.
         25    2    3    3    0    0  0.58099120516E+02 -0.12556488592E+02  0.16288801051E+03  0.21226274807E+03  0.12243282665E+03 0.  0.
          5    1    4    4  502    0 -0.49452046611E+02  0.35742330097E+02  0.17480726955E+03  0.18520985547E+03  0.47000000000E+01 0. -1.
         -5    1    4    4    0  502 -0.86470739050E+01 -0.23185841506E+02 -0.12299421202E+02  0.28030713429E+02  0.47000000000E+01 0. -1.
          5    1    5    5  503    0 -0.13719496257E+02 -0.10023570359E+02 -0.13195921863E+02  0.22020874055E+02  0.47000000000E+01 0.  1.
         -5    1    5    5    0  503  0.71818616773E+02 -0.25329182321E+01  0.17608393237E+03  0.19024187402E+03  0.47000000000E+01 0.  1.
<mgrwt>
<rscale>  0 0.27417259E+03</rscale>
<asrwt>0</asrwt>
<pdfrwt beam="1">  1        2 0.77005740E-02 0.27417259E+03</pdfrwt>
<pdfrwt beam="2">  1       -2 0.57761473E-01 0.27417259E+03</pdfrwt>
<totfact> 0.25476647E+03</totfact>
</mgrwt>
</event>
<event>
 9    1  0.8093459E-001  0.2787450E+03  0.7818608E-02  0.1096376E+00
         -1   -1    0    0    0  501 -0.00000000000E+00  0.00000000000E+00  0.37730116682E+02  0.37730116682E+02  0.00000000000E+00 0.  1.
          1   -1    0    0  501    0  0.00000000000E+00 -0.00000000000E+00 -0.51483268427E+03  0.51483268427E+03  0.00000000000E+00 0.  1.
         35    2    1    2    0    0  0.00000000000E+00  0.00000000000E+00 -0.47710256759E+03  0.55256280095E+03  0.27874502506E+03 0.  0.
         25    2    3    3    0    0 -0.64902802570E+01  0.79333918129E+01 -0.35974543062E+03  0.38105268431E+03  0.12521705523E+03 0.  0.
         25    2    3    3    0    0  0.64902802570E+01 -0.79333918129E+01 -0.11735713696E+03  0.17151011664E+03  0.12465135407E+03 0.  0.
          5    1    4    4  502    0 -0.22772072301E+02  0.52505440229E+02 -0.29559273918E+03  0.30111882370E+03  0.47000000000E+01 0.  1.
         -5    1    4    4    0  502  0.16281792044E+02 -0.44572048417E+02 -0.64152691446E+02  0.79933860610E+02  0.47000000000E+01 0.  1.
          5    1    5    5  503    0  0.29172000563E+02 -0.45808790041E+02 -0.11474624967E+03  0.12703638328E+03  0.47000000000E+01 0.  1.
         -5    1    5    5    0  503 -0.22681720306E+02  0.37875398228E+02 -0.26108872885E+01  0.44473733365E+02  0.47000000000E+01 0.  1.
<mgrwt>
<rscale>  0 0.27874503E+03</rscale>
<asrwt>0</asrwt>
<pdfrwt beam="1">  1        1 0.79205023E-01 0.27874503E+03</pdfrwt>
<pdfrwt beam="2">  1       -1 0.58046338E-02 0.27874503E+03</pdfrwt>
<totfact> 0.60748429E+03</totfact>
</mgrwt>
</event>
<event>
 9    1  0.8093459E-001  0.2772665E+03  0.7818608E-02  0.1097191E+00
         -2   -1    0    0    0  501 -0.00000000000E+00  0.00000000000E+00  0.30133155621E+03  0.30133155621E+03  0.00000000000E+00 0. -1.
          2   -1    0    0  501    0  0.00000000000E+00 -0.00000000000E+00 -0.63780841703E+02  0.63780841703E+02  0.00000000000E+00 0. -1.
         35    2    1    2    0    0  0.00000000000E+00  0.71054273576E-14  0.23755071450E+03  0.36511239791E+03  0.27726651645E+03 0.  0.
         25    2    3    3    0    0 -0.47788368633E+02  0.34485422359E+02  0.11968875295E+03  0.18337304591E+03  0.12580661290E+03 0.  0.
         25    2    3    3    0    0  0.47788368633E+02 -0.34485422359E+02  0.11786196155E+03  0.18173935200E+03  0.12515900908E+03 0.  0.
          5    1    4    4  502    0  0.26153173717E+02  0.52047515422E+02  0.75017612789E+02  0.95092926055E+02  0.47000000000E+01 0.  1.
         -5    1    4    4    0  502 -0.73941542350E+02 -0.17562093063E+02  0.44671140162E+02  0.88280119852E+02  0.47000000000E+01 0.  1.
          5    1    5    5  503    0  0.48206473996E+02 -0.19328885530E+02 -0.98272017290E+01  0.53067257747E+02  0.47000000000E+01 0.  1.
         -5    1    5    5    0  503 -0.41810536317E+00 -0.15156536830E+02  0.12768916328E+03  0.12867209426E+03  0.47000000000E+01 0.  1.
<mgrwt>
<rscale>  0 0.27726652E+03</rscale>
<asrwt>0</asrwt>
<pdfrwt beam="1">  1        2 0.98124373E-02 0.27726652E+03</pdfrwt>
<pdfrwt beam="2">  1       -2 0.46358700E-01 0.27726652E+03</pdfrwt>
<totfact> 0.29208774E+03</totfact>
</mgrwt>
</event>
<event>
 9    1  0.8093459E-001  0.2663294E+03  0.7818608E-02  0.1103399E+00
          2   -1    0    0  501    0  0.00000000000E+00  0.00000000000E+00  0.97524672392E+02  0.97524672392E+02  0.00000000000E+00 0.  1.
         -2   -1    0    0    0  501 -0.00000000000E+00 -0.00000000000E+00 -0.18182917854E+03  0.18182917854E+03  0.00000000000E+00 0.  1.
         35    2    1    2    0    0 -0.17763568394E-14  0.00000000000E+00 -0.84304506147E+02  0.27935385093E+03  0.26632935301E+03 0.  0.
         25    2    3    3    0    0 -0.59762542803E+01  0.43936216450E+02 -0.61188399524E+02  0.14529921411E+03  0.12410372538E+03 0.  0.
         25    2    3    3    0    0  0.59762542803E+01 -0.43936216450E+02 -0.23116106622E+02  0.13405463682E+03  0.12437919656E+03 0.  0.
          5    1    4    4  502    0 -0.54930772563E+02 -0.86021065845E+01 -0.44636731062E+02  0.71455676975E+02  0.47000000000E+01 0. -1.
         -5    1    4    4    0  502  0.48954518283E+02  0.52538323035E+02 -0.16551668462E+02  0.73843537134E+02  0.47000000000E+01 0. -1.
          5    1    5    5  503    0 -0.62301400245E+01  0.42696929863E+02  0.14445105663E+00  0.43404531221E+02  0.47000000000E+01 0.  1.
         -5    1    5    5    0  503  0.12206394305E+02 -0.86633146313E+02 -0.23260557679E+02  0.90650105601E+02  0.47000000000E+01 0.  1.
<mgrwt>
<rscale>  0 0.26632935E+03</rscale>
<asrwt>0</asrwt>
<pdfrwt beam="1">  1        2 0.15003796E-01 0.26632935E+03</pdfrwt>
<pdfrwt beam="2">  1       -2 0.27973719E-01 0.26632935E+03</pdfrwt>
<totfact> 0.44906572E+03</totfact>
</mgrwt>
</event>
<event>
 9    1  0.8093459E-001  0.2792731E+03  0.7818608E-02  0.1096087E+00
          2   -1    0    0  501    0  0.00000000000E+00  0.00000000000E+00  0.85092532143E+02  0.85092532143E+02  0.00000000000E+00 0.  1.
         -2   -1    0    0    0  501 -0.00000000000E+00 -0.00000000000E+00 -0.22914304809E+03  0.22914304809E+03  0.00000000000E+00 0.  1.
         35    2    1    2    0    0  0.00000000000E+00  0.00000000000E+00 -0.14405051594E+03  0.31423558023E+03  0.27927307199E+03 0.  0.
         25    2    3    3    0    0  0.25205954767E+02  0.38638162565E+01 -0.13471953724E+03  0.18615227308E+03  0.12590887906E+03 0.  0.
         25    2    3    3    0    0 -0.25205954767E+02 -0.38638162565E+01 -0.93309787039E+01  0.12808330715E+03  0.12517187054E+03 0.  0.
          5    1    4    4  502    0  0.46595668390E+02  0.40390254017E+02 -0.12915990187E+03  0.14320230160E+03  0.47000000000E+01 0. -1.
         -5    1    4    4    0  502 -0.21389713622E+02 -0.36526437761E+02 -0.55596353675E+01  0.42949971476E+02  0.47000000000E+01 0. -1.
          5    1    5    5  503    0  0.39011758964E+02 -0.38143426364E+02 -0.25251750308E+01  0.54820660533E+02  0.47000000000E+01 0.  1.
         -5    1    5    5    0  503 -0.64217713732E+02  0.34279610108E+02 -0.68058036730E+01  0.73262646620E+02  0.47000000000E+01 0.  1.
<mgrwt>
<rscale>  0 0.27927307E+03</rscale>
<asrwt>0</asrwt>
<pdfrwt beam="1">  1        2 0.13091159E-01 0.27927307E+03</pdfrwt>
<pdfrwt beam="2">  1       -2 0.35252777E-01 0.27927307E+03</pdfrwt>
<totfact> 0.34667638E+03</totfact>
</mgrwt>
</event>
<event>
 9    1  0.8093459E-001  0.2754650E+03  0.7818608E-02  0.1098192E+00
          2   -1    0    0  501    0  0.00000000000E+00  0.00000000000E+00  0.17498689329E+04  0.17498689329E+04  0.00000000000E+00 0. -1.
         -2   -1    0    0    0  501 -0.00000000000E+00 -0.00000000000E+00 -0.10840950677E+02  0.10840950677E+02  0.00000000000E+00 0. -1.
         35    2    1    2    0    0  0.00000000000E+00  0.00000000000E+00  0.17390279822E+04  0.17607098836E+04  0.27546500897E+03 0.  0.
         25    2    3    3    0    0  0.32093148828E+02 -0.49084713011E+02  0.99844601664E+03  0.10079881448E+04  0.12532506799E+03 0.  0.
         25    2    3    3    0    0 -0.32093148828E+02  0.49084713011E+02  0.74058196557E+03  0.75272173876E+03  0.12119855206E+03 0.  0.
          5    1    4    4  502    0  0.70204683659E+02 -0.51495227745E+02  0.85627110055E+03  0.86069898555E+03  0.47000000000E+01 0. -1.
         -5    1    4    4    0  502 -0.38111534831E+02  0.24105147342E+01  0.14217491608E+03  0.14728915925E+03  0.47000000000E+01 0. -1.
          5    1    5    5  503    0  0.15272318082E+02  0.14059733114E+02  0.59799336418E+03  0.59837201924E+03  0.47000000000E+01 0.  1.
         -5    1    5    5    0  503 -0.47365466910E+02  0.35024979898E+02  0.14258860138E+03  0.15434971952E+03  0.47000000000E+01 0.  1.
<mgrwt>
<rscale>  0 0.27546501E+03</rscale>
<asrwt>0</asrwt>
<pdfrwt beam="1">  1        2 0.26921038E+00 0.27546501E+03</pdfrwt>
<pdfrwt beam="2">  1       -2 0.16678400E-02 0.27546501E+03</pdfrwt>
<totfact> 0.10155859E+04</totfact>
</mgrwt>
</event>
<event>
 9    1  0.8093459E-001  0.2693640E+03  0.7818608E-02  0.1101644E+00
          1   -1    0    0  501    0  0.00000000000E+00  0.00000000000E+00  0.35537283239E+03  0.35537283239E+03  0.00000000000E+00 0. -1.
         -1   -1    0    0    0  501 -0.00000000000E+00 -0.00000000000E+00 -0.51042858344E+02  0.51042858344E+02  0.00000000000E+00 0. -1.
         35    2    1    2    0    0  0.17763568394E-14  0.00000000000E+00  0.30432997405E+03  0.40641569073E+03  0.26936402984E+03 0.  0.
         25    2    3    3    0    0  0.11409057445E+02 -0.29486238727E+02  0.21119682079E+03  0.24728688435E+03  0.12468801543E+03 0.  0.
         25    2    3    3    0    0 -0.11409057445E+02  0.29486238727E+02  0.93133153253E+02  0.15912880638E+03  0.12509431610E+03 0.  0.
          5    1    4    4  502    0 -0.10036311693E+02 -0.49500341971E+02  0.21193553920E+02  0.54975159257E+02  0.47000000000E+01 0. -1.
         -5    1    4    4    0  502  0.21445369138E+02  0.20014103244E+02  0.19000326687E+03  0.19231172510E+03  0.47000000000E+01 0. -1.
          5    1    5    5  503    0  0.52082355840E+01 -0.23849358589E+02  0.99636688126E+02  0.10269117413E+03  0.47000000000E+01 0. -1.
         -5    1    5    5    0  503 -0.16617293029E+02  0.53335597316E+02 -0.65035348732E+01  0.56437632254E+02  0.47000000000E+01 0. -1.
<mgrwt>
<rscale>  0 0.26936403E+03</rscale>
<asrwt>0</asrwt>
<pdfrwt beam="1">  1        1 0.54672742E-01 0.26936403E+03</pdfrwt>
<pdfrwt beam="2">  1       -1 0.78527477E-02 0.26936403E+03</pdfrwt>
<totfact> 0.62068891E+03</totfact>
</mgrwt>
</event>
<event>
 9    1  0.8093459E-001  0.2735730E+03  0.7818608E-02  0.1099252E+00
         -2   -1    0    0    0  501 -0.00000000000E+00  0.00000000000E+00  0.25919902549E+02  0.25919902549E+02  0.00000000000E+00 0.  1.
          2   -1    0    0  501    0  0.00000000000E+00 -0.00000000000E+00 -0.72186000554E+03  0.72186000554E+03  0.00000000000E+00 0.  1.
         35    2    1    2    0    0  0.79936057773E-14  0.00000000000E+00 -0.69594010299E+03  0.74777990809E+03  0.27357295917E+03 0.  0.
         25    2    3    3    0    0  0.42087895650E+01 -0.13983702910E+02 -0.49661912348E+03  0.51223912750E+03  0.12468003879E+03 0.  0.
         25    2    3    3    0    0 -0.42087895650E+01  0.13983702910E+02 -0.19932097951E+03  0.23554078059E+03  0.12464890129E+03 0.  0.
          5    1    4    4  502    0  0.64238483277E+02 -0.50866689386E+01 -0.24817184434E+03  0.25644455786E+03  0.47000000000E+01 0.  1.
         -5    1    4    4    0  502 -0.60029693712E+02 -0.88970339711E+01 -0.24844727914E+03  0.25579456963E+03  0.47000000000E+01 0.  1.
          5    1    5    5  503    0  0.69197728147E+01 -0.30459748142E+02 -0.18446220789E+03  0.18714720317E+03  0.47000000000E+01 0.  1.
         -5    1    5    5    0  503 -0.11128562380E+02  0.44443451052E+02 -0.14858771617E+02  0.48393577425E+02  0.47000000000E+01 0.  1.
<mgrwt>
<rscale>  0 0.27357296E+03</rscale>
<asrwt>0</asrwt>
<pdfrwt beam="1">  1        2 0.11105538E+00 0.27357296E+03</pdfrwt>
<pdfrwt beam="2">  1       -2 0.39876774E-02 0.27357296E+03</pdfrwt>
<totfact> 0.11104584E+04</totfact>
</mgrwt>
</event>
<event>
 9    1  0.8093459E-001  0.2755975E+03  0.7818608E-02  0.1098118E+00
          1   -1    0    0  501    0  0.00000000000E+00  0.00000000000E+00  0.13699319767E+04  0.13699319767E+04  0.00000000000E+00 0. -1.
         -1   -1    0    0    0  501 -0.00000000000E+00 -0.00000000000E+00 -0.13860904539E+02  0.13860904539E+02  0.00000000000E+00 0. -1.
         35    2    1    2    0    0 -0.14210854715E-13 -0.88817841970E-15  0.13560710721E+04  0.13837928812E+04  0.27559750618E+03 0.  0.
         25    2    3    3    0    0  0.57098109631E+02 -0.39541932387E+01  0.83277707146E+03  0.84288604644E+03  0.11689057606E+03 0.  0.
         25    2    3    3    0    0 -0.57098109631E+02  0.39541932387E+01  0.52329400066E+03  0.54090683475E+03  0.12436946164E+03 0.  0.
          5    1    4    4  502    0 -0.30199670335E+01  0.75369848695E+01  0.16872544089E+01  0.95322174360E+01  0.47000000000E+01 0.  1.
         -5    1    4    4    0  502  0.60118076664E+02 -0.11491178108E+02  0.83108981705E+03  0.83335382901E+03  0.47000000000E+01 0.  1.
          5    1    5    5  503    0 -0.59651092078E+02 -0.49973182589E+02  0.23589924808E+03  0.24844741297E+03  0.47000000000E+01 0.  1.
         -5    1    5    5    0  503  0.25529824471E+01  0.53927375828E+02  0.28739475258E+03  0.29245942179E+03  0.47000000000E+01 0.  1.
<mgrwt>
<rscale>  0 0.27559751E+03</rscale>
<asrwt>0</asrwt>
<pdfrwt beam="1">  1        1 0.21075866E+00 0.27559751E+03</pdfrwt>
<pdfrwt beam="2">  1       -1 0.21324479E-02 0.27559751E+03</pdfrwt>
<totfact> 0.54584713E+03</totfact>
</mgrwt>
</event>
<event>
 9    1  0.8093459E-001  0.2814653E+03  0.7818608E-02  0.1094891E+00
          2   -1    0    0  501    0  0.00000000000E+00  0.00000000000E+00  0.85191520176E+03  0.85191520176E+03  0.00000000000E+00 0. -1.
         -2   -1    0    0    0  501 -0.00000000000E+00 -0.00000000000E+00 -0.23248419570E+02  0.23248419570E+02  0.00000000000E+00 0. -1.
         35    2    1    2    0    0 -0.71054273576E-14  0.00000000000E+00  0.82866678219E+03  0.87516362133E+03  0.28146532325E+03 0.  0.
         25    2    3    3    0    0  0.52391562503E+02 -0.16671571680E+01  0.32094428285E+03  0.34836327731E+03  0.12491631217E+03 0.  0.
         25    2    3    3    0    0 -0.52391562503E+02  0.16671571680E+01  0.50772249934E+03  0.52680034403E+03  0.13034113278E+03 0.  0.
          5    1    4    4  502    0  0.30167931869E+02  0.51681466837E+02  0.24810565690E+03  0.25526375597E+03  0.47000000000E+01 0.  1.
         -5    1    4    4    0  502  0.22223630634E+02 -0.53348624005E+02  0.72838625950E+02  0.93099521331E+02  0.47000000000E+01 0.  1.
          5    1    5    5  503    0 -0.80531903682E+02 -0.37833844687E+02  0.27657954319E+03  0.29057722042E+03  0.47000000000E+01 0. -1.
         -5    1    5    5    0  503  0.28140341179E+02  0.39501001855E+02  0.23114295615E+03  0.23622312361E+03  0.47000000000E+01 0. -1.
<mgrwt>
<rscale>  0 0.28146532E+03</rscale>
<asrwt>0</asrwt>
<pdfrwt beam="1">  1        2 0.13106385E+00 0.28146532E+03</pdfrwt>
<pdfrwt beam="2">  1       -2 0.35766806E-02 0.28146532E+03</pdfrwt>
<totfact> 0.10613693E+04</totfact>
</mgrwt>
</event>
<event>
 9    1  0.8093459E-001  0.2741591E+03  0.7818608E-02  0.1098923E+00
         -1   -1    0    0    0  501 -0.00000000000E+00  0.00000000000E+00  0.12185722684E+03  0.12185722684E+03  0.00000000000E+00 0.  1.
          1   -1    0    0  501    0  0.00000000000E+00 -0.00000000000E+00 -0.15420344102E+03  0.15420344102E+03  0.00000000000E+00 0.  1.
         35    2    1    2    0    0 -0.44408920985E-14  0.00000000000E+00 -0.32346214178E+02  0.27606066787E+03  0.27415910485E+03 0.  0.
         25    2    3    3    0    0 -0.49949108477E+01 -0.36339611000E+02  0.25997805717E+02  0.13159758277E+03  0.12367910667E+03 0.  0.
         25    2    3    3    0    0  0.49949108477E+01  0.36339611000E+02 -0.58344019896E+02  0.14446308509E+03  0.12696472673E+03 0.  0.
          5    1    4    4  502    0  0.36904620793E+02 -0.54850637631E+02  0.46734147236E+02  0.81096942004E+02  0.47000000000E+01 0.  1.
         -5    1    4    4    0  502 -0.41899531640E+02  0.18511026632E+02 -0.20736341519E+02  0.50500640770E+02  0.47000000000E+01 0.  1.
          5    1    5    5  503    0  0.78464683227E+01  0.19277197210E+02 -0.98342875934E+02  0.10063095272E+03  0.47000000000E+01 0. -1.
         -5    1    5    5    0  503 -0.28515574750E+01  0.17062413790E+02  0.39998856038E+02  0.43832132377E+02  0.47000000000E+01 0. -1.
<mgrwt>
<rscale>  0 0.27415910E+03</rscale>
<asrwt>0</asrwt>
<pdfrwt beam="1">  1        1 0.23723606E-01 0.27415910E+03</pdfrwt>
<pdfrwt beam="2">  1       -1 0.18747266E-01 0.27415910E+03</pdfrwt>
<totfact> 0.45573493E+03</totfact>
</mgrwt>
</event>
<event>
 9    1  0.8093459E-001  0.2766152E+03  0.7818608E-02  0.1097552E+00
          1   -1    0    0  501    0  0.00000000000E+00  0.00000000000E+00  0.89314558333E+03  0.89314558333E+03  0.00000000000E+00 0.  1.
         -1   -1    0    0    0  501 -0.00000000000E+00 -0.00000000000E+00 -0.21417555757E+02  0.21417555757E+02  0.00000000000E+00 0.  1.
         35    2    1    2    0    0 -0.71054273576E-14  0.00000000000E+00  0.87172802758E+03  0.91456313909E+03  0.27661522250E+03 0.  0.
         25    2    3    3    0    0 -0.14302886567E+02 -0.55396903954E+02  0.38087983130E+03  0.40490635799E+03  0.12492527092E+03 0.  0.
         25    2    3    3    0    0  0.14302886567E+02  0.55396903954E+02  0.49084819627E+03  0.50965678110E+03  0.12467835902E+03 0.  0.
          5    1    4    4  502    0 -0.50198472724E+02 -0.68831079971E+02  0.16662104168E+03  0.18719579526E+03  0.47000000000E+01 0.  1.
         -5    1    4    4    0  502  0.35895586158E+02  0.13434176016E+02  0.21425878962E+03  0.21771056272E+03  0.47000000000E+01 0.  1.
          5    1    5    5  503    0  0.52433713525E+02  0.38318536696E+02  0.43449848595E+03  0.43935023485E+03  0.47000000000E+01 0. -1.
         -5    1    5    5    0  503 -0.38130826958E+02  0.17078367258E+02  0.56349710323E+02  0.70306546254E+02  0.47000000000E+01 0. -1.
<mgrwt>
<rscale>  0 0.27661522E+03</rscale>
<asrwt>0</asrwt>
<pdfrwt beam="1">  1        1 0.13740698E+00 0.27661522E+03</pdfrwt>
<pdfrwt beam="2">  1       -1 0.32950093E-02 0.27661522E+03</pdfrwt>
<totfact> 0.63404979E+03</totfact>
</mgrwt>
</event>
<event>
 9    1  0.8093459E-001  0.2721581E+03  0.7818608E-02  0.1100051E+00
         -2   -1    0    0    0  501 -0.00000000000E+00  0.00000000000E+00  0.22414279290E+03  0.22414279290E+03  0.00000000000E+00 0. -1.
          2   -1    0    0  501    0  0.00000000000E+00 -0.00000000000E+00 -0.82614767189E+02  0.82614767189E+02  0.00000000000E+00 0. -1.
         35    2    1    2    0    0  0.00000000000E+00  0.00000000000E+00  0.14152802571E+03  0.30675756009E+03  0.27215807651E+03 0.  0.
         25    2    3    3    0    0 -0.45818732448E+01 -0.45517444963E+02  0.42587787192E+02  0.14066310516E+03  0.12601411896E+03 0.  0.
         25    2    3    3    0    0  0.45818732448E+01  0.45517444963E+02  0.98940238517E+02  0.16609445493E+03  0.12532105091E+03 0.  0.
          5    1    4    4  502    0 -0.37318448350E+02  0.25376535542E+02 -0.99218376452E+01  0.46445322753E+02  0.47000000000E+01 0.  1.
         -5    1    4    4    0  502  0.32736575105E+02 -0.70893980505E+02  0.52509624837E+02  0.94217782409E+02  0.47000000000E+01 0.  1.
          5    1    5    5  503    0  0.63415292317E+02  0.21656414941E+02  0.66972158556E+02  0.94857048390E+02  0.47000000000E+01 0.  1.
         -5    1    5    5    0  503 -0.58833419072E+02  0.23861030022E+02  0.31968079961E+02  0.71237406535E+02  0.47000000000E+01 0.  1.
<mgrwt>
<rscale>  0 0.27215808E+03</rscale>
<asrwt>0</asrwt>
<pdfrwt beam="1">  1        2 0.12709964E-01 0.27215808E+03</pdfrwt>
<pdfrwt beam="2">  1       -2 0.34483506E-01 0.27215808E+03</pdfrwt>
<totfact> 0.37403798E+03</totfact>
</mgrwt>
</event>
<event>
 9    1  0.8093459E-001  0.2723857E+03  0.7818608E-02  0.1099922E+00
         -2   -1    0    0    0  501 -0.00000000000E+00  0.00000000000E+00  0.80731648109E+01  0.80731648109E+01  0.00000000000E+00 0. -1.
          2   -1    0    0  501    0  0.00000000000E+00 -0.00000000000E+00 -0.22975485696E+04  0.22975485696E+04  0.00000000000E+00 0. -1.
         35    2    1    2    0    0  0.71054273576E-14 -0.71054273576E-14 -0.22894754048E+04  0.23056217345E+04  0.27238566970E+03 0.  0.
         25    2    3    3    0    0 -0.37001926367E+02 -0.32596666125E+02 -0.92189519004E+03  0.93154014231E+03  0.12427634580E+03 0.  0.
         25    2    3    3    0    0  0.37001926367E+02  0.32596666125E+02 -0.13675802148E+04  0.13740815921E+04  0.12406809731E+03 0.  0.
          5    1    4    4  502    0 -0.82641228922E+02 -0.25171779421E+02 -0.55261213356E+03  0.55934376850E+03  0.47000000000E+01 0. -1.
         -5    1    4    4    0  502  0.45639302555E+02 -0.74248867045E+01 -0.36928305648E+03  0.37219637382E+03  0.47000000000E+01 0. -1.
          5    1    5    5  503    0  0.64730071563E+01  0.46559162091E+02 -0.12681944895E+04  0.12690740753E+04  0.47000000000E+01 0.  1.
         -5    1    5    5    0  503  0.30528919210E+02 -0.13962495966E+02 -0.99385725319E+02  0.10500751687E+03  0.47000000000E+01 0.  1.
<mgrwt>
<rscale>  0 0.27238567E+03</rscale>
<asrwt>0</asrwt>
<pdfrwt beam="1">  1        2 0.35346809E+00 0.27238567E+03</pdfrwt>
<pdfrwt beam="2">  1       -2 0.12420286E-02 0.27238567E+03</pdfrwt>
<totfact> 0.80285062E+03</totfact>
</mgrwt>
</event>
<event>
 9    1  0.8093459E-001  0.2751448E+03  0.7818608E-02  0.1098371E+00
         -1   -1    0    0    0  501 -0.00000000000E+00  0.00000000000E+00  0.93559366038E+02  0.93559366038E+02  0.00000000000E+00 0.  1.
          1   -1    0    0  501    0  0.00000000000E+00 -0.00000000000E+00 -0.20229050517E+03  0.20229050517E+03  0.00000000000E+00 0.  1.
         35    2    1    2    0    0 -0.14210854715E-13  0.00000000000E+00 -0.10873113913E+03  0.29584987121E+03  0.27514484490E+03 0.  0.
         25    2    3    3    0    0 -0.35683582542E+02  0.61419151809E+01 -0.10067224120E+03  0.16509180006E+03  0.12573528190E+03 0.  0.
         25    2    3    3    0    0  0.35683582542E+02 -0.61419151809E+01 -0.80588979313E+01  0.13075807114E+03  0.12538614815E+03 0.  0.
          5    1    4    4  502    0  0.38288717447E+01 -0.22747601794E+02 -0.11215281145E+03  0.11459693173E+03  0.47000000000E+01 0. -1.
         -5    1    4    4    0  502 -0.39512454287E+02  0.28889516975E+02  0.11480570248E+02  0.50494868334E+02  0.47000000000E+01 0. -1.
          5    1    5    5  503    0  0.71187841822E+02 -0.18798024500E+02 -0.37442354989E+02  0.82735086242E+02  0.47000000000E+01 0.  1.
         -5    1    5    5    0  503 -0.35504259280E+02  0.12656109319E+02  0.29383457058E+02  0.48022984901E+02  0.47000000000E+01 0.  1.
<mgrwt>
<rscale>  0 0.27514484E+03</rscale>
<asrwt>0</asrwt>
<pdfrwt beam="1">  1        1 0.31121616E-01 0.27514484E+03</pdfrwt>
<pdfrwt beam="2">  1       -1 0.14393749E-01 0.27514484E+03</pdfrwt>
<totfact> 0.49288552E+03</totfact>
</mgrwt>
</event>
<event>
 9    1  0.8093459E-001  0.2569541E+03  0.7818608E-02  0.1108987E+00
         -3   -1    0    0    0  501 -0.00000000000E+00  0.00000000000E+00  0.30368841896E+02  0.30368841896E+02  0.00000000000E+00 0. -1.
          3   -1    0    0  501    0  0.00000000000E+00 -0.00000000000E+00 -0.54352933272E+03  0.54352933272E+03  0.00000000000E+00 0. -1.
         35    2    1    2    0    0  0.00000000000E+00  0.35527136788E-14 -0.51316049082E+03  0.57389817461E+03  0.25695413109E+03 0.  0.
         25    2    3    3    0    0 -0.23878917568E+02  0.12664943963E+02 -0.28690317449E+03  0.31405870694E+03  0.12485526165E+03 0.  0.
         25    2    3    3    0    0  0.23878917568E+02 -0.12664943963E+02 -0.22625731633E+03  0.25983946768E+03  0.12487422576E+03 0.  0.
          5    1    4    4  502    0 -0.57423571127E+01  0.68360020165E+02 -0.14539380712E+03  0.16083381539E+03  0.47000000000E+01 0. -1.
         -5    1    4    4    0  502 -0.18136560456E+02 -0.55695076202E+02 -0.14150936737E+03  0.15322489155E+03  0.47000000000E+01 0. -1.
          5    1    5    5  503    0  0.47250564537E+02 -0.25569503117E+02 -0.29988614546E+02  0.61707554976E+02  0.47000000000E+01 0.  1.
         -5    1    5    5    0  503 -0.23371646969E+02  0.12904559154E+02 -0.19626870179E+03  0.19813191270E+03  0.47000000000E+01 0.  1.
<mgrwt>
<rscale>  0 0.25695413E+03</rscale>
<asrwt>0</asrwt>
<pdfrwt beam="1">  1        3 0.83619903E-01 0.25695413E+03</pdfrwt>
<pdfrwt beam="2">  1       -3 0.46721292E-02 0.25695413E+03</pdfrwt>
<totfact> 0.86775546E+02</totfact>
</mgrwt>
</event>
<event>
 9    1  0.8093459E-001  0.2714668E+03  0.7818608E-02  0.1100443E+00
         -2   -1    0    0    0  501 -0.00000000000E+00  0.00000000000E+00  0.94444937619E+01  0.94444937619E+01  0.00000000000E+00 0. -1.
          2   -1    0    0  501    0  0.00000000000E+00 -0.00000000000E+00 -0.19507198049E+04  0.19507198049E+04  0.00000000000E+00 0. -1.
         35    2    1    2    0    0  0.71054273576E-14  0.00000000000E+00 -0.19412753111E+04  0.19601642987E+04  0.27146683796E+03 0.  0.
         25    2    3    3    0    0 -0.18501938755E+02  0.32745768219E+02 -0.74503460732E+03  0.75658589393E+03  0.12621823051E+03 0.  0.
         25    2    3    3    0    0  0.18501938755E+02 -0.32745768219E+02 -0.11962407038E+04  0.12035784047E+04  0.12725780053E+03 0.  0.
          5    1    4    4  502    0  0.16615334678E+02 -0.38052567658E+02 -0.41892872612E+03  0.42100764223E+03  0.47000000000E+01 0.  1.
         -5    1    4    4    0  502 -0.35117273432E+02  0.70798335877E+02 -0.32610588120E+03  0.33557825170E+03  0.47000000000E+01 0.  1.
          5    1    5    5  503    0  0.50312144801E+02  0.30054305601E+02 -0.68033559195E+03  0.68287127695E+03  0.47000000000E+01 0.  1.
         -5    1    5    5    0  503 -0.31810206046E+02 -0.62800073820E+02 -0.51590511187E+03  0.52070712779E+03  0.47000000000E+01 0.  1.
<mgrwt>
<rscale>  0 0.27146684E+03</rscale>
<asrwt>0</asrwt>
<pdfrwt beam="1">  1        2 0.30011097E+00 0.27146684E+03</pdfrwt>
<pdfrwt beam="2">  1       -2 0.14529979E-02 0.27146684E+03</pdfrwt>
<totfact> 0.97464799E+03</totfact>
</mgrwt>
</event>
<event>
 9    1  0.8093459E-001  0.2759972E+03  0.7818608E-02  0.1097895E+00
          4   -1    0    0  501    0  0.00000000000E+00  0.00000000000E+00  0.14408875713E+03  0.14408875713E+03  0.00000000000E+00 0. -1.
         -4   -1    0    0    0  501 -0.00000000000E+00 -0.00000000000E+00 -0.13216588832E+03  0.13216588832E+03  0.00000000000E+00 0. -1.
         35    2    1    2    0    0  0.00000000000E+00  0.00000000000E+00  0.11922868804E+02  0.27625464545E+03  0.27599723610E+03 0.  0.
         25    2    3    3    0    0 -0.39804771465E+01 -0.67116783743E+01 -0.51356225474E+02  0.13521222959E+03  0.12483586949E+03 0.  0.
         25    2    3    3    0    0  0.39804771465E+01  0.67116783743E+01  0.63279094278E+02  0.14104241586E+03  0.12580869793E+03 0.  0.
          5    1    4    4  502    0 -0.46427841251E+02  0.29257742484E+02  0.57096792535E+01  0.55373733625E+02  0.47000000000E+01 0. -1.
         -5    1    4    4    0  502  0.42447364104E+02 -0.35969420858E+02 -0.57065904727E+02  0.79838495969E+02  0.47000000000E+01 0. -1.
          5    1    5    5  503    0  0.36351695730E+02  0.55674902270E+02  0.39898231000E+02  0.77685901953E+02  0.47000000000E+01 0. -1.
         -5    1    5    5    0  503 -0.32371218584E+02 -0.48963223896E+02  0.23380863278E+02  0.63356513907E+02  0.47000000000E+01 0. -1.
<mgrwt>
<rscale>  0 0.27599724E+03</rscale>
<asrwt>0</asrwt>
<pdfrwt beam="1">  1        4 0.22167501E-01 0.27599724E+03</pdfrwt>
<pdfrwt beam="2">  1       -4 0.20333214E-01 0.27599724E+03</pdfrwt>
<totfact> 0.76849373E+02</totfact>
</mgrwt>
</event>
<event>
 9    1  0.8093459E-001  0.2779586E+03  0.7818608E-02  0.1096809E+00
          1   -1    0    0  501    0  0.00000000000E+00  0.00000000000E+00  0.45965852336E+03  0.45965852336E+03  0.00000000000E+00 0.  1.
         -1   -1    0    0    0  501 -0.00000000000E+00 -0.00000000000E+00 -0.42020859417E+02  0.42020859417E+02  0.00000000000E+00 0.  1.
         35    2    1    2    0    0  0.00000000000E+00  0.00000000000E+00  0.41763766394E+03  0.50167938278E+03  0.27795860260E+03 0.  0.
         25    2    3    3    0    0  0.12860228496E+02 -0.24482583224E+02  0.11287256287E+03  0.17012491862E+03  0.12424769667E+03 0.  0.
         25    2    3    3    0    0 -0.12860228496E+02  0.24482583224E+02  0.30476510107E+03  0.33155446416E+03  0.12760020970E+03 0.  0.
          5    1    4    4  502    0 -0.43534886291E+02  0.24136141940E+02  0.28715659125E+02  0.57658639865E+02  0.47000000000E+01 0. -1.
         -5    1    4    4    0  502  0.56395114787E+02 -0.48618725164E+02  0.84156903748E+02  0.11246627875E+03  0.47000000000E+01 0. -1.
          5    1    5    5  503    0 -0.66691609511E+02  0.34413466015E+02  0.16270238520E+03  0.17923786869E+03  0.47000000000E+01 0.  1.
         -5    1    5    5    0  503  0.53831381015E+02 -0.99308827910E+01  0.14206271587E+03  0.15231659547E+03  0.47000000000E+01 0.  1.
<mgrwt>
<rscale>  0 0.27795860E+03</rscale>
<asrwt>0</asrwt>
<pdfrwt beam="1">  1        1 0.70716692E-01 0.27795860E+03</pdfrwt>
<pdfrwt beam="2">  1       -1 0.64647479E-02 0.27795860E+03</pdfrwt>
<totfact> 0.59973855E+03</totfact>
</mgrwt>
</event>
<event>
 9    1  0.8093459E-001  0.2755006E+03  0.7818608E-02  0.1098172E+00
          2   -1    0    0  501    0  0.00000000000E+00  0.00000000000E+00  0.54954372881E+03  0.54954372881E+03  0.00000000000E+00 0. -1.
         -2   -1    0    0    0  501 -0.00000000000E+00 -0.00000000000E+00 -0.34528912751E+02  0.34528912751E+02  0.00000000000E+00 0. -1.
         35    2    1    2    0    0 -0.17763568394E-14  0.00000000000E+00  0.51501481606E+03  0.58407264156E+03  0.27550061680E+03 0.  0.
         25    2    3    3    0    0 -0.12700869375E+02 -0.48241784564E+02  0.32167626534E+03  0.34863017564E+03  0.12481505447E+03 0.  0.
         25    2    3    3    0    0  0.12700869375E+02  0.48241784564E+02  0.19333855072E+03  0.23544246592E+03  0.12475887826E+03 0.  0.
          5    1    4    4  502    0 -0.24193897495E+02 -0.31766654828E+02  0.17658596801E+02  0.43913335969E+02  0.47000000000E+01 0.  1.
         -5    1    4    4    0  502  0.11493028120E+02 -0.16475129735E+02  0.30401766854E+03  0.30471683967E+03  0.47000000000E+01 0.  1.
          5    1    5    5  503    0  0.10440774150E+02  0.47429394014E+02  0.73069169717E+01  0.49335972849E+02  0.47000000000E+01 0. -1.
         -5    1    5    5    0  503  0.22600952251E+01  0.81239055002E+00  0.18603163375E+03  0.18610649307E+03  0.47000000000E+01 0. -1.
<mgrwt>
<rscale>  0 0.27550062E+03</rscale>
<asrwt>0</asrwt>
<pdfrwt beam="1">  1        2 0.84545183E-01 0.27550062E+03</pdfrwt>
<pdfrwt beam="2">  1       -2 0.53121408E-02 0.27550062E+03</pdfrwt>
<totfact> 0.99226791E+03</totfact>
</mgrwt>
</event>
<event>
 9    1  0.8093459E-001  0.2734178E+03  0.7818608E-02  0.1099339E+00
         -2   -1    0    0    0  501 -0.00000000000E+00  0.00000000000E+00  0.19700830067E+03  0.19700830067E+03  0.00000000000E+00 0.  1.
          2   -1    0    0  501    0  0.00000000000E+00 -0.00000000000E+00 -0.94865640520E+02  0.94865640520E+02  0.00000000000E+00 0.  1.
         35    2    1    2    0    0 -0.35527136788E-14 -0.71054273576E-14  0.10214266015E+03  0.29187394119E+03  0.27341776556E+03 0.  0.
         25    2    3    3    0    0  0.15533400567E+02 -0.20737866977E+02  0.77283115383E+02  0.14945283658E+03  0.12526821136E+03 0.  0.
         25    2    3    3    0    0 -0.15533400567E+02  0.20737866977E+02  0.24859544768E+02  0.14242110462E+03  0.13782027577E+03 0.  0.
          5    1    4    4  502    0  0.56061563398E+02 -0.37830171558E+00  0.86255169514E+02  0.10298099956E+03  0.47000000000E+01 0.  1.
         -5    1    4    4    0  502 -0.40528162831E+02 -0.20359565261E+02 -0.89720541319E+01  0.46471837013E+02  0.47000000000E+01 0.  1.
          5    1    5    5  503    0 -0.44776240912E+02 -0.13889559653E+02 -0.40917279509E+02  0.62403087904E+02  0.47000000000E+01 0. -1.
         -5    1    5    5    0  503  0.29242840345E+02  0.34627426630E+02  0.65776824277E+02  0.80018016712E+02  0.47000000000E+01 0. -1.
<mgrwt>
<rscale>  0 0.27341777E+03</rscale>
<asrwt>0</asrwt>
<pdfrwt beam="1">  1        2 0.14594714E-01 0.27341777E+03</pdfrwt>
<pdfrwt beam="2">  1       -2 0.30308969E-01 0.27341777E+03</pdfrwt>
<totfact> 0.40181760E+03</totfact>
</mgrwt>
</event>
<event>
 9    1  0.8093459E-001  0.2823013E+03  0.7818608E-02  0.1094439E+00
         -4   -1    0    0    0  501 -0.00000000000E+00  0.00000000000E+00  0.97326430822E+02  0.97326430822E+02  0.00000000000E+00 0. -1.
          4   -1    0    0  501    0  0.00000000000E+00 -0.00000000000E+00 -0.20470811257E+03  0.20470811257E+03  0.00000000000E+00 0. -1.
         35    2    1    2    0    0  0.71054273576E-14  0.71054273576E-14 -0.10738168175E+03  0.30203454339E+03  0.28230132806E+03 0.  0.
         25    2    3    3    0    0  0.89371070493E+00  0.36726584052E+02 -0.11270078520E+03  0.17511420967E+03  0.12889483600E+03 0.  0.
         25    2    3    3    0    0 -0.89371070493E+00 -0.36726584052E+02  0.53191034501E+01  0.12692033372E+03  0.12137066184E+03 0.  0.
          5    1    4    4  502    0 -0.60229845039E+02  0.76085114549E+01 -0.29253961397E+02  0.67553000950E+02  0.47000000000E+01 0.  1.
         -5    1    4    4    0  502  0.61123555744E+02  0.29118072597E+02 -0.83446823800E+02  0.10756120872E+03  0.47000000000E+01 0.  1.
          5    1    5    5  503    0 -0.49675599571E+02  0.22089137670E+01  0.31525861891E+02  0.59063647540E+02  0.47000000000E+01 0.  1.
         -5    1    5    5    0  503  0.48781888866E+02 -0.38935497819E+02 -0.26206758441E+02  0.67856686183E+02  0.47000000000E+01 0.  1.
<mgrwt>
<rscale>  0 0.28230133E+03</rscale>
<asrwt>0</asrwt>
<pdfrwt beam="1">  1        4 0.31493555E-01 0.28230133E+03</pdfrwt>
<pdfrwt beam="2">  1       -4 0.14973297E-01 0.28230133E+03</pdfrwt>
<totfact> 0.68943390E+02</totfact>
</mgrwt>
</event>
<event>
 9    1  0.8093459E-001  0.2741017E+03  0.7818608E-02  0.1098955E+00
          2   -1    0    0  501    0  0.00000000000E+00  0.00000000000E+00  0.12528041972E+04  0.12528041972E+04  0.00000000000E+00 0.  1.
         -2   -1    0    0    0  501 -0.00000000000E+00 -0.00000000000E+00 -0.14992709113E+02  0.14992709113E+02  0.00000000000E+00 0.  1.
         35    2    1    2    0    0  0.00000000000E+00  0.00000000000E+00  0.12378114881E+04  0.12677969063E+04  0.27410165198E+03 0.  0.
         25    2    3    3    0    0  0.43985688894E+02  0.33871962848E+02  0.69165530641E+03  0.70475670584E+03  0.12334058880E+03 0.  0.
         25    2    3    3    0    0 -0.43985688894E+02 -0.33871962848E+02  0.54615618169E+03  0.56304020049E+03  0.12508254024E+03 0.  0.
          5    1    4    4  502    0 -0.37552637504E+02  0.36292179822E+02  0.31566706389E+03  0.31999235635E+03  0.47000000000E+01 0.  1.
         -5    1    4    4    0  502  0.81538326398E+02 -0.24202169746E+01  0.37598824253E+03  0.38476434949E+03  0.47000000000E+01 0.  1.
          5    1    5    5  503    0 -0.57492544330E+02 -0.19598244307E+02  0.53769371815E+03  0.54113409463E+03  0.47000000000E+01 0. -1.
         -5    1    5    5    0  503  0.13506855436E+02 -0.14273718541E+02  0.84624635434E+01  0.21906105861E+02  0.47000000000E+01 0. -1.
<mgrwt>
<rscale>  0 0.27410165E+03</rscale>
<asrwt>0</asrwt>
<pdfrwt beam="1">  1        2 0.19273902E+00 0.27410165E+03</pdfrwt>
<pdfrwt beam="2">  1       -2 0.23065716E-02 0.27410165E+03</pdfrwt>
<totfact> 0.11664072E+04</totfact>
</mgrwt>
</event>
<event>
 9    1  0.8093459E-001  0.2794676E+03  0.7818608E-02  0.1095980E+00
          1   -1    0    0  501    0  0.00000000000E+00  0.00000000000E+00  0.11349625517E+04  0.11349625517E+04  0.00000000000E+00 0. -1.
         -1   -1    0    0    0  501 -0.00000000000E+00 -0.00000000000E+00 -0.17203687165E+02  0.17203687165E+02  0.00000000000E+00 0. -1.
         35    2    1    2    0    0  0.71054273576E-14  0.71054273576E-14  0.11177588646E+04  0.11521662389E+04  0.27946764166E+03 0.  0.
         25    2    3    3    0    0 -0.44843668932E+02 -0.42715446751E+02  0.59266033893E+03  0.60871686144E+03  0.12431563063E+03 0.  0.
         25    2    3    3    0    0  0.44843668932E+02  0.42715446751E+02  0.52509852563E+03  0.54344937746E+03  0.12559140180E+03 0.  0.
          5    1    4    4  502    0  0.13691476742E+02 -0.64686269213E+02  0.19060839425E+03  0.20180540111E+03  0.47000000000E+01 0. -1.
         -5    1    4    4    0  502 -0.58535145674E+02  0.21970822462E+02  0.40205194468E+03  0.40691146032E+03  0.47000000000E+01 0. -1.
          5    1    5    5  503    0  0.44846674662E+02  0.36205010146E+02  0.82340036606E+02  0.10061808295E+03  0.47000000000E+01 0.  1.
         -5    1    5    5    0  503 -0.30057296531E-02  0.65104366057E+01  0.44275848903E+03  0.44283129451E+03  0.47000000000E+01 0.  1.
<mgrwt>
<rscale>  0 0.27946764E+03</rscale>
<asrwt>0</asrwt>
<pdfrwt beam="1">  1        1 0.17460956E+00 0.27946764E+03</pdfrwt>
<pdfrwt beam="2">  1       -1 0.26467220E-02 0.27946764E+03</pdfrwt>
<totfact> 0.57814094E+03</totfact>
</mgrwt>
</event>
<event>
 9    1  0.8093459E-001  0.2754316E+03  0.7818608E-02  0.1098211E+00
         -4   -1    0    0    0  501 -0.00000000000E+00  0.00000000000E+00  0.44548680886E+03  0.44548680886E+03  0.00000000000E+00 0. -1.
          4   -1    0    0  501    0  0.00000000000E+00 -0.00000000000E+00 -0.42572837235E+02  0.42572837235E+02  0.00000000000E+00 0. -1.
         35    2    1    2    0    0  0.71054273576E-14 -0.14210854715E-13  0.40291397162E+03  0.48805964609E+03  0.27543156975E+03 0.  0.
         25    2    3    3    0    0  0.16642207572E+02 -0.50332563529E+02  0.18040031422E+03  0.22708727410E+03  0.12733431063E+03 0.  0.
         25    2    3    3    0    0 -0.16642207572E+02  0.50332563529E+02  0.22251365740E+03  0.26097237199E+03  0.12563407654E+03 0.  0.
          5    1    4    4  502    0 -0.38256870625E+02 -0.58337147219E+02  0.14535520788E+03  0.16129797691E+03  0.47000000000E+01 0.  1.
         -5    1    4    4    0  502  0.54899078197E+02  0.80045836903E+01  0.35045106337E+02  0.65789297193E+02  0.47000000000E+01 0.  1.
          5    1    5    5  503    0  0.37689191300E+02 -0.16386114358E+02  0.33450305288E+02  0.53197676721E+02  0.47000000000E+01 0.  1.
         -5    1    5    5    0  503 -0.54331398872E+02  0.66718677887E+02  0.18906335212E+03  0.20777469527E+03  0.47000000000E+01 0.  1.
<mgrwt>
<rscale>  0 0.27543157E+03</rscale>
<asrwt>0</asrwt>
<pdfrwt beam="1">  1        4 0.65496676E-02 0.27543157E+03</pdfrwt>
<pdfrwt beam="2">  1       -4 0.68536429E-01 0.27543157E+03</pdfrwt>
<totfact> 0.57503248E+02</totfact>
</mgrwt>
</event>
<event>
 9    1  0.8093459E-001  0.2855991E+03  0.7818608E-02  0.1092670E+00
          1   -1    0    0  501    0  0.00000000000E+00  0.00000000000E+00  0.21604447610E+03  0.21604447610E+03  0.00000000000E+00 0.  1.
         -1   -1    0    0    0  501 -0.00000000000E+00 -0.00000000000E+00 -0.94386666223E+02  0.94386666223E+02  0.00000000000E+00 0.  1.
         35    2    1    2    0    0 -0.14210854715E-13  0.00000000000E+00  0.12165780988E+03  0.31043114232E+03  0.28559914464E+03 0.  0.
         25    2    3    3    0    0  0.46369032694E+02 -0.41922296017E+02  0.89699625468E+02  0.16636501224E+03  0.12539429170E+03 0.  0.
         25    2    3    3    0    0 -0.46369032694E+02  0.41922296017E+02  0.31958184411E+02  0.14406613009E+03  0.12580205957E+03 0.  0.
          5    1    4    4  502    0  0.55117491853E+02 -0.80826895679E+02  0.75890086728E+02  0.12390448029E+03  0.47000000000E+01 0.  1.
         -5    1    4    4    0  502 -0.87484591597E+01  0.38904599662E+02  0.13809538740E+02  0.42460531941E+02  0.47000000000E+01 0.  1.
          5    1    5    5  503    0 -0.60133855946E+02  0.62337078762E+02 -0.17618624251E+02  0.88512699315E+02  0.47000000000E+01 0. -1.
         -5    1    5    5    0  503  0.13764823252E+02 -0.20414782744E+02  0.49576808662E+02  0.55553430774E+02  0.47000000000E+01 0. -1.
<mgrwt>
<rscale>  0 0.28559914E+03</rscale>
<asrwt>0</asrwt>
<pdfrwt beam="1">  1        1 0.33237612E-01 0.28559914E+03</pdfrwt>
<pdfrwt beam="2">  1       -1 0.14521026E-01 0.28559914E+03</pdfrwt>
<totfact> 0.44790438E+03</totfact>
</mgrwt>
</event>
<event>
 9    1  0.8093459E-001  0.2749178E+03  0.7818608E-02  0.1098498E+00
         -2   -1    0    0    0  501 -0.00000000000E+00  0.00000000000E+00  0.90165373305E+02  0.90165373305E+02  0.00000000000E+00 0. -1.
          2   -1    0    0  501    0  0.00000000000E+00 -0.00000000000E+00 -0.20955885394E+03  0.20955885394E+03  0.00000000000E+00 0. -1.
         35    2    1    2    0    0 -0.35527136788E-14 -0.35527136788E-14 -0.11939348064E+03  0.29972422725E+03  0.27491782259E+03 0.  0.
         25    2    3    3    0    0 -0.69597583404E+01 -0.18364667524E+01 -0.11985604803E+03  0.17423716294E+03  0.12625888426E+03 0.  0.
         25    2    3    3    0    0  0.69597583404E+01  0.18364667524E+01  0.46256739501E+00  0.12548706430E+03  0.12527960126E+03 0.  0.
          5    1    4    4  502    0  0.23054424017E+02 -0.50922533083E+02 -0.21268062874E+02  0.59991927297E+02  0.47000000000E+01 0. -1.
         -5    1    4    4    0  502 -0.30014182357E+02  0.49086066331E+02 -0.98587985158E+02  0.11424523565E+03  0.47000000000E+01 0. -1.
          5    1    5    5  503    0 -0.32471013256E+02 -0.25850756816E+02  0.43792277093E+02  0.60518442337E+02  0.47000000000E+01 0. -1.
         -5    1    5    5    0  503  0.39430771597E+02  0.27687223568E+02 -0.43329709698E+02  0.64968621966E+02  0.47000000000E+01 0. -1.
<mgrwt>
<rscale>  0 0.27491782E+03</rscale>
<asrwt>0</asrwt>
<pdfrwt beam="1">  1        2 0.32239824E-01 0.27491782E+03</pdfrwt>
<pdfrwt beam="2">  1       -2 0.13871596E-01 0.27491782E+03</pdfrwt>
<totfact> 0.62634589E+03</totfact>
</mgrwt>
</event>
<event>
 9    1  0.8093459E-001  0.2754337E+03  0.7818608E-02  0.1098209E+00
         -1   -1    0    0    0  501 -0.00000000000E+00  0.00000000000E+00  0.91429680000E+02  0.91429680000E+02  0.00000000000E+00 0.  1.
          1   -1    0    0  501    0  0.00000000000E+00 -0.00000000000E+00 -0.20743739145E+03  0.20743739145E+03  0.00000000000E+00 0.  1.
         35    2    1    2    0    0  0.00000000000E+00  0.17763568394E-14 -0.11600771145E+03  0.29886707145E+03  0.27543372575E+03 0.  0.
         25    2    3    3    0    0  0.14134663885E+02  0.28924725877E+01 -0.11891192626E+03  0.17333884471E+03  0.12529227334E+03 0.  0.
         25    2    3    3    0    0 -0.14134663885E+02 -0.28924725877E+01  0.29042148129E+01  0.12552822674E+03  0.12466252895E+03 0.  0.
          5    1    4    4  502    0 -0.36252530552E+02  0.17764491469E+02  0.27483854858E+01  0.40736553013E+02  0.47000000000E+01 0.  1.
         -5    1    4    4    0  502  0.50387194438E+02 -0.14872018881E+02 -0.12166031175E+03  0.13260229170E+03  0.47000000000E+01 0.  1.
          5    1    5    5  503    0  0.30681927088E+02 -0.23124305120E+02 -0.43168882737E+02  0.57980656894E+02  0.47000000000E+01 0. -1.
         -5    1    5    5    0  503 -0.44816590974E+02  0.20231832533E+02  0.46073097550E+02  0.67547569845E+02  0.47000000000E+01 0. -1.
<mgrwt>
<rscale>  0 0.27543373E+03</rscale>
<asrwt>0</asrwt>
<pdfrwt beam="1">  1        1 0.31913445E-01 0.27543373E+03</pdfrwt>
<pdfrwt beam="2">  1       -1 0.14066105E-01 0.27543373E+03</pdfrwt>
<totfact> 0.49524552E+03</totfact>
</mgrwt>
</event>
<event>
 9    1  0.8093459E-001  0.2649620E+03  0.7818608E-02  0.1104198E+00
          2   -1    0    0  501    0  0.00000000000E+00  0.00000000000E+00  0.13556225631E+04  0.13556225631E+04  0.00000000000E+00 0. -1.
         -2   -1    0    0    0  501 -0.00000000000E+00 -0.00000000000E+00 -0.12946973050E+02  0.12946973050E+02  0.00000000000E+00 0. -1.
         35    2    1    2    0    0 -0.17763568394E-14  0.00000000000E+00  0.13426755901E+04  0.13685695362E+04  0.26496195041E+03 0.  0.
         25    2    3    3    0    0 -0.35313933150E+01 -0.95845239481E+01  0.89139925171E+03  0.89970929098E+03  0.12157240016E+03 0.  0.
         25    2    3    3    0    0  0.35313933150E+01  0.95845239481E+01  0.45127633837E+03  0.46886024521E+03  0.12678825704E+03 0.  0.
          5    1    4    4  502    0  0.41681911324E+02  0.18742073006E+02  0.16321390354E+03  0.16955682039E+03  0.47000000000E+01 0.  1.
         -5    1    4    4    0  502 -0.45213304639E+02 -0.28326596954E+02  0.72818534818E+03  0.73015247059E+03  0.47000000000E+01 0.  1.
          5    1    5    5  503    0  0.17951957986E+02  0.40751481538E+02  0.54334717711E+02  0.70408150039E+02  0.47000000000E+01 0.  1.
         -5    1    5    5    0  503 -0.14420564671E+02 -0.31166957590E+02  0.39694162066E+03  0.39845209517E+03  0.47000000000E+01 0.  1.
<mgrwt>
<rscale>  0 0.26496195E+03</rscale>
<asrwt>0</asrwt>
<pdfrwt beam="1">  1        2 0.20855721E+00 0.26496195E+03</pdfrwt>
<pdfrwt beam="2">  1       -2 0.19918431E-02 0.26496195E+03</pdfrwt>
<totfact> 0.12689610E+04</totfact>
</mgrwt>
</event>
<event>
 9    1  0.8093459E-001  0.2761627E+03  0.7818608E-02  0.1097803E+00
          1   -1    0    0  501    0  0.00000000000E+00  0.00000000000E+00  0.68221127616E+03  0.68221127616E+03  0.00000000000E+00 0.  1.
         -1   -1    0    0    0  501 -0.00000000000E+00 -0.00000000000E+00 -0.27948017178E+02  0.27948017178E+02  0.00000000000E+00 0.  1.
         35    2    1    2    0    0  0.35527136788E-14  0.00000000000E+00  0.65426325899E+03  0.71015929334E+03  0.27616265110E+03 0.  0.
         25    2    3    3    0    0 -0.21702202650E+02 -0.22071785626E+02  0.43459124294E+03  0.45526819962E+03  0.13206602824E+03 0.  0.
         25    2    3    3    0    0  0.21702202650E+02  0.22071785626E+02  0.21967201604E+03  0.25489109373E+03  0.12552101700E+03 0.  0.
          5    1    4    4  502    0 -0.55680035405E+01 -0.28466866624E+02  0.11124490072E+02  0.31419889213E+02  0.47000000000E+01 0. -1.
         -5    1    4    4    0  502 -0.16134199109E+02  0.63950809981E+01  0.42346675287E+03  0.42384831040E+03  0.47000000000E+01 0. -1.
          5    1    5    5  503    0 -0.13234433178E+02  0.52643340407E+02  0.19426548381E+03  0.20176134345E+03  0.47000000000E+01 0. -1.
         -5    1    5    5    0  503  0.34936635828E+02 -0.30571554781E+02  0.25406532236E+02  0.53129750281E+02  0.47000000000E+01 0. -1.
<mgrwt>
<rscale>  0 0.27616265E+03</rscale>
<asrwt>0</asrwt>
<pdfrwt beam="1">  1        1 0.10495557E+00 0.27616265E+03</pdfrwt>
<pdfrwt beam="2">  1       -1 0.42996954E-02 0.27616265E+03</pdfrwt>
<totfact> 0.64442751E+03</totfact>
</mgrwt>
</event>
<event>
 9    1  0.8093459E-001  0.2820403E+03  0.7818608E-02  0.1094580E+00
          1   -1    0    0  501    0  0.00000000000E+00  0.00000000000E+00  0.92179007892E+03  0.92179007892E+03  0.00000000000E+00 0. -1.
         -1   -1    0    0    0  501 -0.00000000000E+00 -0.00000000000E+00 -0.21573986580E+02  0.21573986580E+02  0.00000000000E+00 0. -1.
         35    2    1    2    0    0  0.00000000000E+00 -0.71054273576E-14  0.90021609234E+03  0.94336406550E+03  0.28204032897E+03 0.  0.
         25    2    3    3    0    0 -0.14352508864E+02  0.18457155972E+02  0.65597034926E+03  0.66828535198E+03  0.12554501765E+03 0.  0.
         25    2    3    3    0    0  0.14352508864E+02 -0.18457155972E+02  0.24424574308E+03  0.27507871351E+03  0.12436098463E+03 0.  0.
          5    1    4    4  502    0  0.89812936370E+01  0.42370433888E+02  0.78088437803E+02  0.89419301170E+02  0.47000000000E+01 0.  1.
         -5    1    4    4    0  502 -0.23333802501E+02 -0.23913277916E+02  0.57788191145E+03  0.57886605081E+03  0.47000000000E+01 0.  1.
          5    1    5    5  503    0  0.11610861271E+02  0.53104342220E+02  0.97696267157E+02  0.11189965987E+03  0.47000000000E+01 0. -1.
         -5    1    5    5    0  503  0.27416475924E+01 -0.71561498192E+02  0.14654947593E+03  0.16317905365E+03  0.47000000000E+01 0. -1.
<mgrwt>
<rscale>  0 0.28204033E+03</rscale>
<asrwt>0</asrwt>
<pdfrwt beam="1">  1        1 0.14181383E+00 0.28204033E+03</pdfrwt>
<pdfrwt beam="2">  1       -1 0.33190756E-02 0.28204033E+03</pdfrwt>
<totfact> 0.59593242E+03</totfact>
</mgrwt>
</event>
<event>
 9    1  0.8093459E-001  0.2737259E+03  0.7818608E-02  0.1099166E+00
          3   -1    0    0  501    0  0.00000000000E+00  0.00000000000E+00  0.12262039111E+02  0.12262039111E+02  0.00000000000E+00 0. -1.
         -3   -1    0    0    0  501 -0.00000000000E+00 -0.00000000000E+00 -0.15275975339E+04  0.15275975339E+04  0.00000000000E+00 0. -1.
         35    2    1    2    0    0 -0.71054273576E-14  0.17763568394E-14 -0.15153354948E+04  0.15398595730E+04  0.27372585341E+03 0.  0.
         25    2    3    3    0    0  0.47885862664E+02 -0.99059588368E+01 -0.86314190100E+03  0.87398001393E+03  0.12820272865E+03 0.  0.
         25    2    3    3    0    0 -0.47885862664E+02  0.99059588368E+01 -0.65219359380E+03  0.66587955909E+03  0.12509164461E+03 0.  0.
          5    1    4    4  502    0  0.26825944399E+02  0.42962889806E+02 -0.14675365033E+03  0.15531955794E+03  0.47000000000E+01 0.  1.
         -5    1    4    4    0  502  0.21059918265E+02 -0.52868848643E+02 -0.71638825067E+03  0.71866045599E+03  0.47000000000E+01 0.  1.
          5    1    5    5  503    0  0.27143536490E+02 -0.13815995754E+00 -0.37534286286E+02  0.46558600799E+02  0.47000000000E+01 0.  1.
         -5    1    5    5    0  503 -0.75029399154E+02  0.10044118794E+02 -0.61465930752E+03  0.61932095829E+03  0.47000000000E+01 0.  1.
<mgrwt>
<rscale>  0 0.27372585E+03</rscale>
<asrwt>0</asrwt>
<pdfrwt beam="1">  1        3 0.18864670E-02 0.27372585E+03</pdfrwt>
<pdfrwt beam="2">  1       -3 0.23501507E+00 0.27372585E+03</pdfrwt>
<totfact> 0.26220538E+02</totfact>
</mgrwt>
</event>
<event>
 9    1  0.8093459E-001  0.2733930E+03  0.7818608E-02  0.1099353E+00
         -3   -1    0    0    0  501 -0.00000000000E+00  0.00000000000E+00  0.34881275767E+03  0.34881275767E+03  0.00000000000E+00 0.  1.
          3   -1    0    0  501    0  0.00000000000E+00 -0.00000000000E+00 -0.53570093108E+02  0.53570093108E+02  0.00000000000E+00 0.  1.
         35    2    1    2    0    0 -0.71054273576E-14  0.00000000000E+00  0.29524266456E+03  0.40238285078E+03  0.27339299117E+03 0.  0.
         25    2    3    3    0    0 -0.38264290281E+02  0.22991664738E+02  0.19616637799E+03  0.23679464348E+03  0.12489068328E+03 0.  0.
         25    2    3    3    0    0  0.38264290281E+02 -0.22991664738E+02  0.99076286578E+02  0.16558820730E+03  0.12494227178E+03 0.  0.
          5    1    4    4  502    0  0.40899159761E+02  0.32911136466E+02  0.77370676805E+02  0.93617283671E+02  0.47000000000E+01 0.  1.
         -5    1    4    4    0  502 -0.79163450042E+02 -0.99194717281E+01  0.11879570118E+03  0.14317735981E+03  0.47000000000E+01 0.  1.
          5    1    5    5  503    0 -0.53300062696E+01 -0.48710632394E+02 -0.52809377455E+01  0.49508716188E+02  0.47000000000E+01 0.  1.
         -5    1    5    5    0  503  0.43594296550E+02  0.25718967657E+02  0.10435722432E+03  0.11607949112E+03  0.47000000000E+01 0.  1.
<mgrwt>
<rscale>  0 0.27339299E+03</rscale>
<asrwt>0</asrwt>
<pdfrwt beam="1">  1        3 0.82415530E-02 0.27339299E+03</pdfrwt>
<pdfrwt beam="2">  1       -3 0.53663500E-01 0.27339299E+03</pdfrwt>
<totfact> 0.89361730E+02</totfact>
</mgrwt>
</event>
<event>
 9    1  0.8093459E-001  0.2788392E+03  0.7818608E-02  0.1096325E+00
          2   -1    0    0  501    0  0.00000000000E+00  0.00000000000E+00  0.33231041773E+03  0.33231041773E+03  0.00000000000E+00 0. -1.
         -2   -1    0    0    0  501 -0.00000000000E+00 -0.00000000000E+00 -0.58492958409E+02  0.58492958409E+02  0.00000000000E+00 0. -1.
         35    2    1    2    0    0  0.00000000000E+00  0.71054273576E-14  0.27381745932E+03  0.39080337614E+03  0.27883916112E+03 0.  0.
         25    2    3    3    0    0  0.96635661522E+01 -0.35596460407E+02  0.20483375764E+03  0.24282900549E+03  0.12509422503E+03 0.  0.
         25    2    3    3    0    0 -0.96635661522E+01  0.35596460407E+02  0.68983701679E+02  0.14797437064E+03  0.12560720826E+03 0.  0.
          5    1    4    4  502    0 -0.83881240055E+01 -0.80727898660E+02  0.13563647935E+03  0.15813506498E+03  0.47000000000E+01 0.  1.
         -5    1    4    4    0  502  0.18051690158E+02  0.45131438253E+02  0.69197278291E+02  0.84693940511E+02  0.47000000000E+01 0.  1.
          5    1    5    5  503    0  0.34710119670E+02  0.63216419588E+01  0.85085714059E+02  0.92230278659E+02  0.47000000000E+01 0. -1.
         -5    1    5    5    0  503 -0.44373685822E+02  0.29274818448E+02 -0.16102012380E+02  0.55744091986E+02  0.47000000000E+01 0. -1.
<mgrwt>
<rscale>  0 0.27883916E+03</rscale>
<asrwt>0</asrwt>
<pdfrwt beam="1">  1        2 0.51124678E-01 0.27883916E+03</pdfrwt>
<pdfrwt beam="2">  1       -2 0.89989169E-02 0.27883916E+03</pdfrwt>
<totfact> 0.76293614E+03</totfact>
</mgrwt>
</event>
<event>
 9    1  0.8093459E-001  0.2745655E+03  0.7818608E-02  0.1098695E+00
          2   -1    0    0  501    0  0.00000000000E+00  0.00000000000E+00  0.45389676580E+04  0.45389676580E+04  0.00000000000E+00 0. -1.
         -2   -1    0    0    0  501 -0.00000000000E+00 -0.00000000000E+00 -0.41521671293E+01  0.41521671293E+01  0.00000000000E+00 0. -1.
         35    2    1    2    0    0  0.14210854715E-13  0.00000000000E+00  0.45348154908E+04  0.45431198251E+04  0.27456549172E+03 0.  0.
         25    2    3    3    0    0  0.56547485258E+02 -0.58191893327E+01  0.19821731492E+04  0.19868743007E+04  0.12420794038E+03 0.  0.
         25    2    3    3    0    0 -0.56547485258E+02  0.58191893327E+01  0.25526423416E+04  0.25562455244E+04  0.12319405607E+03 0.  0.
          5    1    4    4  502    0 -0.35691778054E+02  0.14432885520E+02  0.39918424451E+03  0.40106403762E+03  0.47000000000E+01 0. -1.
         -5    1    4    4    0  502  0.92239263312E+02 -0.20252074852E+02  0.15829889047E+04  0.15858102631E+04  0.47000000000E+01 0. -1.
          5    1    5    5  503    0 -0.62533777860E+01  0.24998450669E+02  0.21302925813E+04  0.21304536135E+04  0.47000000000E+01 0.  1.
         -5    1    5    5    0  503 -0.50294107472E+02 -0.19179261337E+02  0.42234976036E+03  0.42579191090E+03  0.47000000000E+01 0.  1.
<mgrwt>
<rscale>  0 0.27456549E+03</rscale>
<asrwt>0</asrwt>
<pdfrwt beam="1">  1        2 0.69829875E+00 0.27456549E+03</pdfrwt>
<pdfrwt beam="2">  1       -2 0.63879857E-03 0.27456549E+03</pdfrwt>
<totfact> 0.63723804E+02</totfact>
</mgrwt>
</event>
<event>
 9    1  0.8093459E-001  0.2880147E+03  0.7818608E-02  0.1091390E+00
          1   -1    0    0  501    0  0.00000000000E+00  0.00000000000E+00  0.28860909470E+03  0.28860909470E+03  0.00000000000E+00 0. -1.
         -1   -1    0    0    0  501 -0.00000000000E+00 -0.00000000000E+00 -0.71855373459E+02  0.71855373459E+02  0.00000000000E+00 0. -1.
         35    2    1    2    0    0 -0.71054273576E-14  0.71054273576E-14  0.21675372124E+03  0.36046446816E+03  0.28801468215E+03 0.  0.
         25    2    3    3    0    0 -0.59367019313E+02 -0.28520948116E+02  0.14725922702E+03  0.20385169524E+03  0.12462883393E+03 0.  0.
         25    2    3    3    0    0  0.59367019313E+02  0.28520948116E+02  0.69494494227E+02  0.15661277292E+03  0.12393622735E+03 0.  0.
          5    1    4    4  502    0 -0.97420688742E+02 -0.93607738876E+01  0.10620306678E+03  0.14449773727E+03  0.47000000000E+01 0. -1.
         -5    1    4    4    0  502  0.38053669429E+02 -0.19160174228E+02  0.41056160238E+02  0.59353957972E+02  0.47000000000E+01 0. -1.
          5    1    5    5  503    0 -0.10596804306E+02  0.36005451296E+02 -0.19908365013E+02  0.42744798304E+02  0.47000000000E+01 0. -1.
         -5    1    5    5    0  503  0.69963823618E+02 -0.74845031805E+01  0.89402859240E+02  0.11386797462E+03  0.47000000000E+01 0. -1.
<mgrwt>
<rscale>  0 0.28801468E+03</rscale>
<asrwt>0</asrwt>
<pdfrwt beam="1">  1        1 0.44401398E-01 0.28801468E+03</pdfrwt>
<pdfrwt beam="2">  1       -1 0.11054673E-01 0.28801468E+03</pdfrwt>
<totfact> 0.47762580E+03</totfact>
</mgrwt>
</event>
<event>
 9    1  0.8093459E-001  0.2747991E+03  0.7818608E-02  0.1098564E+00
          2   -1    0    0  501    0  0.00000000000E+00  0.00000000000E+00  0.33860768101E+03  0.33860768101E+03  0.00000000000E+00 0. -1.
         -2   -1    0    0    0  501 -0.00000000000E+00 -0.00000000000E+00 -0.55753735569E+02  0.55753735569E+02  0.00000000000E+00 0. -1.
         35    2    1    2    0    0  0.35527136788E-14 -0.71054273576E-14  0.28285394544E+03  0.39436141658E+03  0.27479914926E+03 0.  0.
         25    2    3    3    0    0  0.21409459075E+02 -0.37835653257E+02  0.19603421240E+03  0.23643168884E+03  0.12482239165E+03 0.  0.
         25    2    3    3    0    0 -0.21409459075E+02  0.37835653257E+02  0.86819733039E+02  0.15792972774E+03  0.12455613700E+03 0.  0.
          5    1    4    4  502    0  0.42248946483E+02 -0.61117817421E+02  0.56757280628E+02  0.93615383295E+02  0.47000000000E+01 0.  1.
         -5    1    4    4    0  502 -0.20839487407E+02  0.23282164164E+02  0.13927693177E+03  0.14281630554E+03  0.47000000000E+01 0.  1.
          5    1    5    5  503    0  0.20023667909E+02  0.32145498483E+02 -0.20023546741E+02  0.43096551757E+02  0.47000000000E+01 0. -1.
         -5    1    5    5    0  503 -0.41433126985E+02  0.56901547736E+01  0.10684327978E+03  0.11483317599E+03  0.47000000000E+01 0. -1.
<mgrwt>
<rscale>  0 0.27479915E+03</rscale>
<asrwt>0</asrwt>
<pdfrwt beam="1">  1        2 0.52093488E-01 0.27479915E+03</pdfrwt>
<pdfrwt beam="2">  1       -2 0.85774980E-02 0.27479915E+03</pdfrwt>
<totfact> 0.80580266E+03</totfact>
</mgrwt>
</event>
<event>
 9    1  0.8093459E-001  0.2726169E+03  0.7818608E-02  0.1099791E+00
          1   -1    0    0  501    0  0.00000000000E+00  0.00000000000E+00  0.30379593114E+02  0.30379593114E+02  0.00000000000E+00 0. -1.
         -1   -1    0    0    0  501 -0.00000000000E+00 -0.00000000000E+00 -0.61159470333E+03  0.61159470333E+03  0.00000000000E+00 0. -1.
         35    2    1    2    0    0  0.35527136788E-14  0.71054273576E-14 -0.58121511021E+03  0.64197429644E+03  0.27261693445E+03 0.  0.
         25    2    3    3    0    0 -0.27023856931E+02  0.17060092967E+02 -0.36754026434E+03  0.38945956600E+03  0.12478610509E+03 0.  0.
         25    2    3    3    0    0  0.27023856931E+02 -0.17060092967E+02 -0.21367484587E+03  0.25251473044E+03  0.13071118435E+03 0.  0.
          5    1    4    4  502    0 -0.37743963376E+02  0.49669369688E+02 -0.33855758743E+03  0.34428909809E+03  0.47000000000E+01 0.  1.
         -5    1    4    4    0  502  0.10720106445E+02 -0.32609276721E+02 -0.28982676910E+02  0.45170467912E+02  0.47000000000E+01 0.  1.
          5    1    5    5  503    0  0.12122917959E+02  0.35567691465E+02 -0.18823850485E+03  0.19201002714E+03  0.47000000000E+01 0. -1.
         -5    1    5    5    0  503  0.14900938972E+02 -0.52627784431E+02 -0.25436341024E+02  0.60504703297E+02  0.47000000000E+01 0. -1.
<mgrwt>
<rscale>  0 0.27261693E+03</rscale>
<asrwt>0</asrwt>
<pdfrwt beam="1">  1        1 0.46737837E-02 0.27261693E+03</pdfrwt>
<pdfrwt beam="2">  1       -1 0.94091490E-01 0.27261693E+03</pdfrwt>
<totfact> 0.21060491E+03</totfact>
</mgrwt>
</event>
<event>
 9    1  0.8093459E-001  0.2563240E+03  0.7818608E-02  0.1109372E+00
         -1   -1    0    0    0  501 -0.00000000000E+00  0.00000000000E+00  0.19497844283E+02  0.19497844283E+02  0.00000000000E+00 0. -1.
          1   -1    0    0  501    0  0.00000000000E+00 -0.00000000000E+00 -0.84242645233E+03  0.84242645233E+03  0.00000000000E+00 0. -1.
         35    2    1    2    0    0 -0.35527136788E-14  0.00000000000E+00 -0.82292860804E+03  0.86192429661E+03  0.25632401204E+03 0.  0.
         25    2    3    3    0    0  0.22204616160E+02  0.12029696708E+02 -0.35786754836E+03  0.37961041038E+03  0.12408514381E+03 0.  0.
         25    2    3    3    0    0 -0.22204616160E+02 -0.12029696708E+02 -0.46506105968E+03  0.48231388623E+03  0.12532811752E+03 0.  0.
          5    1    4    4  502    0 -0.15119385937E+02  0.55151306936E+02 -0.98400038686E+02  0.11390750678E+03  0.47000000000E+01 0. -1.
         -5    1    4    4    0  502  0.37324002097E+02 -0.43121610228E+02 -0.25946750968E+03  0.26570290360E+03  0.47000000000E+01 0. -1.
          5    1    5    5  503    0  0.22455667875E+02  0.40187385967E+02 -0.92373842993E+02  0.10331650343E+03  0.47000000000E+01 0. -1.
         -5    1    5    5    0  503 -0.44660284035E+02 -0.52217082675E+02 -0.37268721669E+03  0.37899738281E+03  0.47000000000E+01 0. -1.
<mgrwt>
<rscale>  0 0.25632401E+03</rscale>
<asrwt>0</asrwt>
<pdfrwt beam="1">  1        1 0.12960408E+00 0.25632401E+03</pdfrwt>
<pdfrwt beam="2">  1       -1 0.29996682E-02 0.25632401E+03</pdfrwt>
<totfact> 0.79798763E+03</totfact>
</mgrwt>
</event>
<event>
 9    1  0.8093459E-001  0.2678921E+03  0.7818608E-02  0.1102492E+00
          1   -1    0    0  501    0  0.00000000000E+00  0.00000000000E+00  0.14997000207E+03  0.14997000207E+03  0.00000000000E+00 0.  1.
         -1   -1    0    0    0  501 -0.00000000000E+00 -0.00000000000E+00 -0.11963419992E+03  0.11963419992E+03  0.00000000000E+00 0.  1.
         35    2    1    2    0    0 -0.71054273576E-14  0.35527136788E-14  0.30335802150E+02  0.26960420199E+03  0.26789207685E+03 0.  0.
         25    2    3    3    0    0 -0.35380226189E+02  0.30550313885E+02  0.25765588677E+02  0.13745207395E+03  0.12666540565E+03 0.  0.
         25    2    3    3    0    0  0.35380226189E+02 -0.30550313885E+02  0.45702134733E+01  0.13215212804E+03  0.12352415153E+03 0.  0.
          5    1    4    4  502    0 -0.81153256893E+02  0.30830327474E+01  0.17838230742E+02  0.83280541973E+02  0.47000000000E+01 0. -1.
         -5    1    4    4    0  502  0.45773030704E+02  0.27467281137E+02  0.79273579350E+01  0.54171531977E+02  0.47000000000E+01 0. -1.
          5    1    5    5  503    0  0.38385770879E+02 -0.75159192673E+02  0.15383936656E+02  0.85913486463E+02  0.47000000000E+01 0. -1.
         -5    1    5    5    0  503 -0.30055446905E+01  0.44608878789E+02 -0.10813723183E+02  0.46238641575E+02  0.47000000000E+01 0. -1.
<mgrwt>
<rscale>  0 0.26789208E+03</rscale>
<asrwt>0</asrwt>
<pdfrwt beam="1">  1        1 0.23072308E-01 0.26789208E+03</pdfrwt>
<pdfrwt beam="2">  1       -1 0.18405262E-01 0.26789208E+03</pdfrwt>
<totfact> 0.48610254E+03</totfact>
</mgrwt>
</event>
<event>
 9    1  0.8093459E-001  0.2723443E+03  0.7818608E-02  0.1099945E+00
         -2   -1    0    0    0  501 -0.00000000000E+00  0.00000000000E+00  0.69762224292E+02  0.69762224292E+02  0.00000000000E+00 0. -1.
          2   -1    0    0  501    0  0.00000000000E+00 -0.00000000000E+00 -0.26580088227E+03  0.26580088227E+03  0.00000000000E+00 0. -1.
         35    2    1    2    0    0 -0.17763568394E-14  0.00000000000E+00 -0.19603865798E+03  0.33556310656E+03  0.27234434649E+03 0.  0.
         25    2    3    3    0    0 -0.49382526930E+01  0.58250480389E+02 -0.10922660196E+03  0.17703875661E+03  0.12647041536E+03 0.  0.
         25    2    3    3    0    0  0.49382526930E+01 -0.58250480389E+02 -0.86812056015E+02  0.15852434995E+03  0.11906356139E+03 0.  0.
          5    1    4    4  502    0 -0.59178950078E+01 -0.30262973138E+02  0.58941956381E+01  0.31744299752E+02  0.47000000000E+01 0.  1.
         -5    1    4    4    0  502  0.97964231486E+00  0.88513453528E+02 -0.11512079760E+03  0.14529445686E+03  0.47000000000E+01 0.  1.
          5    1    5    5  503    0  0.43131315246E+02 -0.22963179510E+02 -0.93779578139E+02  0.10585044754E+03  0.47000000000E+01 0.  1.
         -5    1    5    5    0  503 -0.38193062553E+02 -0.35287300879E+02  0.69675221238E+01  0.52673902410E+02  0.47000000000E+01 0.  1.
<mgrwt>
<rscale>  0 0.27234435E+03</rscale>
<asrwt>0</asrwt>
<pdfrwt beam="1">  1        2 0.40892443E-01 0.27234435E+03</pdfrwt>
<pdfrwt beam="2">  1       -2 0.10732650E-01 0.27234435E+03</pdfrwt>
<totfact> 0.73281955E+03</totfact>
</mgrwt>
</event>
<event>
 9    1  0.8093459E-001  0.2761921E+03  0.7818608E-02  0.1097787E+00
          1   -1    0    0  501    0  0.00000000000E+00  0.00000000000E+00  0.57744593390E+02  0.57744593390E+02  0.00000000000E+00 0. -1.
         -1   -1    0    0    0  501 -0.00000000000E+00 -0.00000000000E+00 -0.33025640636E+03  0.33025640636E+03  0.00000000000E+00 0. -1.
         35    2    1    2    0    0  0.35527136788E-14 -0.14210854715E-13 -0.27251181297E+03  0.38800099975E+03  0.27619212081E+03 0.  0.
         25    2    3    3    0    0  0.18421320362E+02 -0.50673949399E+02 -0.10010205814E+03  0.16843934001E+03  0.12427467573E+03 0.  0.
         25    2    3    3    0    0 -0.18421320362E+02  0.50673949399E+02 -0.17240975483E+03  0.21956165974E+03  0.12479985848E+03 0.  0.
          5    1    4    4  502    0  0.57114488085E+02  0.54678831259E+01 -0.15381119817E+02  0.59587174308E+02  0.47000000000E+01 0.  1.
         -5    1    4    4    0  502 -0.38693167723E+02 -0.56141832525E+02 -0.84720938319E+02  0.10885216570E+03  0.47000000000E+01 0.  1.
          5    1    5    5  503    0  0.19753240043E+02 -0.31951863589E+01  0.11883253212E+02  0.23742396993E+02  0.47000000000E+01 0. -1.
         -5    1    5    5    0  503 -0.38174560405E+02  0.53869135758E+02 -0.18429300804E+03  0.19581926275E+03  0.47000000000E+01 0. -1.
<mgrwt>
<rscale>  0 0.27619212E+03</rscale>
<asrwt>0</asrwt>
<pdfrwt beam="1">  1        1 0.88837837E-02 0.27619212E+03</pdfrwt>
<pdfrwt beam="2">  1       -1 0.50808677E-01 0.27619212E+03</pdfrwt>
<totfact> 0.29940114E+03</totfact>
</mgrwt>
</event>
<event>
 9    1  0.8093459E-001  0.2698176E+03  0.7818608E-02  0.1101384E+00
          1   -1    0    0  501    0  0.00000000000E+00  0.00000000000E+00  0.21345955663E+03  0.21345955663E+03  0.00000000000E+00 0.  1.
         -1   -1    0    0    0  501 -0.00000000000E+00 -0.00000000000E+00 -0.85263880142E+02  0.85263880142E+02  0.00000000000E+00 0.  1.
         35    2    1    2    0    0 -0.35527136788E-14 -0.71054273576E-14  0.12819567649E+03  0.29872343677E+03  0.26981764251E+03 0.  0.
         25    2    3    3    0    0 -0.58815158311E+01 -0.30572711052E+02  0.18475611392E+02  0.12974962977E+03  0.12459669064E+03 0.  0.
         25    2    3    3    0    0  0.58815158311E+01  0.30572711052E+02  0.10972006510E+03  0.16897380701E+03  0.12467707039E+03 0.  0.
          5    1    4    4  502    0 -0.25055266605E+02  0.67760273995E+01 -0.45789031185E+02  0.52843223869E+02  0.47000000000E+01 0. -1.
         -5    1    4    4    0  502  0.19173750774E+02 -0.37348738452E+02  0.64264642577E+02  0.76906405898E+02  0.47000000000E+01 0. -1.
          5    1    5    5  503    0  0.52145676389E+02  0.48734150987E+02  0.36362541364E+02  0.80240348036E+02  0.47000000000E+01 0. -1.
         -5    1    5    5    0  503 -0.46264160558E+02 -0.18161439935E+02  0.73357523735E+02  0.88733458972E+02  0.47000000000E+01 0. -1.
<mgrwt>
<rscale>  0 0.26981764E+03</rscale>
<asrwt>0</asrwt>
<pdfrwt beam="1">  1        1 0.32839932E-01 0.26981764E+03</pdfrwt>
<pdfrwt beam="2">  1       -1 0.13117520E-01 0.26981764E+03</pdfrwt>
<totfact> 0.53289946E+03</totfact>
</mgrwt>
</event>
<event>
 9    1  0.8093459E-001  0.2741561E+03  0.7818608E-02  0.1098924E+00
          1   -1    0    0  501    0  0.00000000000E+00  0.00000000000E+00  0.29022402645E+03  0.29022402645E+03  0.00000000000E+00 0. -1.
         -1   -1    0    0    0  501 -0.00000000000E+00 -0.00000000000E+00 -0.64744455722E+02  0.64744455722E+02  0.00000000000E+00 0. -1.
         35    2    1    2    0    0  0.35527136788E-14 -0.14210854715E-13  0.22547957073E+03  0.35496848217E+03  0.27415613529E+03 0.  0.
         25    2    3    3    0    0  0.29842559927E+02 -0.48344843239E+02  0.11804192913E+03  0.18070569525E+03  0.12447027361E+03 0.  0.
         25    2    3    3    0    0 -0.29842559927E+02  0.48344843239E+02  0.10743764159E+03  0.17426278692E+03  0.12488742860E+03 0.  0.
          5    1    4    4  502    0 -0.16931112245E+02  0.84689296828E+00  0.11090391000E+03  0.11229045838E+03  0.47000000000E+01 0. -1.
         -5    1    4    4    0  502  0.46773672172E+02 -0.49191736208E+02  0.71380191343E+01  0.68415236875E+02  0.47000000000E+01 0. -1.
          5    1    5    5  503    0 -0.56673963067E+02  0.59200941040E+02  0.11743481697E+03  0.14328194494E+03  0.47000000000E+01 0. -1.
         -5    1    5    5    0  503  0.26831403140E+02 -0.10856097801E+02 -0.99971753771E+01  0.30980841975E+02  0.47000000000E+01 0. -1.
<mgrwt>
<rscale>  0 0.27415614E+03</rscale>
<asrwt>0</asrwt>
<pdfrwt beam="1">  1        1 0.44649850E-01 0.27415614E+03</pdfrwt>
<pdfrwt beam="2">  1       -1 0.99606856E-02 0.27415614E+03</pdfrwt>
<totfact> 0.55663624E+03</totfact>
</mgrwt>
</event>
<event>
 9    1  0.8093459E-001  0.2756382E+03  0.7818608E-02  0.1098095E+00
         -1   -1    0    0    0  501 -0.00000000000E+00  0.00000000000E+00  0.90256391119E+02  0.90256391119E+02  0.00000000000E+00 0. -1.
          1   -1    0    0  501    0  0.00000000000E+00 -0.00000000000E+00 -0.21044614354E+03  0.21044614354E+03  0.00000000000E+00 0. -1.
         35    2    1    2    0    0  0.10658141036E-13 -0.71054273576E-14 -0.12018975242E+03  0.30070253466E+03  0.27563823712E+03 0.  0.
         25    2    3    3    0    0  0.24472045927E+02 -0.37224901853E+02 -0.17482876282E+02  0.13222406774E+03  0.12325980195E+03 0.  0.
         25    2    3    3    0    0 -0.24472045927E+02  0.37224901853E+02 -0.10270687614E+03  0.16847846692E+03  0.12590360225E+03 0.  0.
          5    1    4    4  502    0  0.56034571096E+02  0.22054618582E+02  0.65150502269E+01  0.60752080114E+02  0.47000000000E+01 0.  1.
         -5    1    4    4    0  502 -0.31562525169E+02 -0.59279520435E+02 -0.23997926509E+02  0.71471987623E+02  0.47000000000E+01 0.  1.
          5    1    5    5  503    0 -0.76095605924E+02  0.19748198212E+02 -0.57521628470E+02  0.97526203225E+02  0.47000000000E+01 0.  1.
         -5    1    5    5    0  503  0.51623559997E+02  0.17476703641E+02 -0.45185247669E+02  0.70952263698E+02  0.47000000000E+01 0.  1.
<mgrwt>
<rscale>  0 0.27563824E+03</rscale>
<asrwt>0</asrwt>
<pdfrwt beam="1">  1        1 0.32376330E-01 0.27563824E+03</pdfrwt>
<pdfrwt beam="2">  1       -1 0.13885599E-01 0.27563824E+03</pdfrwt>
<totfact> 0.49637658E+03</totfact>
</mgrwt>
</event>
<event>
 9    1  0.8093459E-001  0.2767945E+03  0.7818608E-02  0.1097453E+00
         -2   -1    0    0    0  501 -0.00000000000E+00  0.00000000000E+00  0.32666038775E+02  0.32666038775E+02  0.00000000000E+00 0. -1.
          2   -1    0    0  501    0  0.00000000000E+00 -0.00000000000E+00 -0.58635203577E+03  0.58635203577E+03  0.00000000000E+00 0. -1.
         35    2    1    2    0    0  0.00000000000E+00  0.00000000000E+00 -0.55368599699E+03  0.61901807454E+03  0.27679449659E+03 0.  0.
         25    2    3    3    0    0  0.22617203382E+01 -0.23695811159E+02 -0.40582077160E+03  0.42179904541E+03  0.11250479633E+03 0.  0.
         25    2    3    3    0    0 -0.22617203382E+01  0.23695811159E+02 -0.14786522539E+03  0.19721902914E+03  0.12831451098E+03 0.  0.
          5    1    4    4  502    0 -0.18372523015E+02 -0.50179446543E+02 -0.94709696736E+02  0.10884641985E+03  0.47000000000E+01 0.  1.
         -5    1    4    4    0  502  0.20634243353E+02  0.26483635384E+02 -0.31111107487E+03  0.31295262556E+03  0.47000000000E+01 0.  1.
          5    1    5    5  503    0 -0.52619186174E+02  0.36969025225E+02 -0.36268652024E+02  0.73979677610E+02  0.47000000000E+01 0. -1.
         -5    1    5    5    0  503  0.50357465836E+02 -0.13273214066E+02 -0.11159657337E+03  0.12323935153E+03  0.47000000000E+01 0. -1.
<mgrwt>
<rscale>  0 0.27679450E+03</rscale>
<asrwt>0</asrwt>
<pdfrwt beam="1">  1        2 0.90208007E-01 0.27679450E+03</pdfrwt>
<pdfrwt beam="2">  1       -2 0.50255443E-02 0.27679450E+03</pdfrwt>
<totfact> 0.10025033E+04</totfact>
</mgrwt>
</event>
<event>
 9    1  0.8093459E-001  0.2880682E+03  0.7818608E-02  0.1091362E+00
         -1   -1    0    0    0  501 -0.00000000000E+00  0.00000000000E+00  0.25667023350E+02  0.25667023350E+02  0.00000000000E+00 0. -1.
          1   -1    0    0  501    0  0.00000000000E+00 -0.00000000000E+00 -0.80826751934E+03  0.80826751934E+03  0.00000000000E+00 0. -1.
         35    2    1    2    0    0  0.35527136788E-14  0.14210854715E-13 -0.78260049599E+03  0.83393454269E+03  0.28806819534E+03 0.  0.
         25    2    3    3    0    0  0.76419340726E+01  0.66179022832E+02 -0.46325271713E+03  0.48441354068E+03  0.12496133900E+03 0.  0.
         25    2    3    3    0    0 -0.76419340726E+01 -0.66179022832E+02 -0.31934777886E+03  0.34952100201E+03  0.12547455824E+03 0.  0.
          5    1    4    4  502    0 -0.16797067949E+02 -0.83343823379E+01 -0.56834015210E+01  0.20149304541E+02  0.47000000000E+01 0. -1.
         -5    1    4    4    0  502  0.24439002022E+02  0.74513405170E+02 -0.45756931561E+03  0.46426423614E+03  0.47000000000E+01 0. -1.
          5    1    5    5  503    0  0.23377905674E+02 -0.30103950398E+02 -0.29185414606E+03  0.29437001695E+03  0.47000000000E+01 0.  1.
         -5    1    5    5    0  503 -0.31019839747E+02 -0.36075072434E+02 -0.27493632795E+02  0.55150985062E+02  0.47000000000E+01 0.  1.
<mgrwt>
<rscale>  0 0.28806820E+03</rscale>
<asrwt>0</asrwt>
<pdfrwt beam="1">  1        1 0.12434884E+00 0.28806820E+03</pdfrwt>
<pdfrwt beam="2">  1       -1 0.39487730E-02 0.28806820E+03</pdfrwt>
<totfact> 0.56831537E+03</totfact>
</mgrwt>
</event>
<event>
 9    1  0.8093459E-001  0.2820123E+03  0.7818608E-02  0.1094595E+00
          2   -1    0    0  501    0  0.00000000000E+00  0.00000000000E+00  0.77682696251E+03  0.77682696251E+03  0.00000000000E+00 0. -1.
         -2   -1    0    0    0  501 -0.00000000000E+00 -0.00000000000E+00 -0.25594804087E+02  0.25594804087E+02  0.00000000000E+00 0. -1.
         35    2    1    2    0    0 -0.71054273576E-14  0.71054273576E-14  0.75123215842E+03  0.80242176660E+03  0.28201229700E+03 0.  0.
         25    2    3    3    0    0  0.26827488011E+02  0.52741556221E+02  0.38986127855E+03  0.41359165038E+03  0.12475917156E+03 0.  0.
         25    2    3    3    0    0 -0.26827488011E+02 -0.52741556221E+02  0.36137087987E+03  0.38883011621E+03  0.13076146447E+03 0.  0.
          5    1    4    4  502    0  0.67364393770E+02  0.20568974777E+02  0.31266177743E+03  0.32053162299E+03  0.47000000000E+01 0. -1.
         -5    1    4    4    0  502 -0.40536905758E+02  0.32172581444E+02  0.77199501125E+02  0.93060027398E+02  0.47000000000E+01 0. -1.
          5    1    5    5  503    0 -0.56849807248E+02  0.23236735074E+02  0.16248451140E+03  0.17376752541E+03  0.47000000000E+01 0. -1.
         -5    1    5    5    0  503  0.30022319237E+02 -0.75978291295E+02  0.19888636847E+03  0.21506259080E+03  0.47000000000E+01 0. -1.
<mgrwt>
<rscale>  0 0.28201230E+03</rscale>
<asrwt>0</asrwt>
<pdfrwt beam="1">  1        2 0.11951182E+00 0.28201230E+03</pdfrwt>
<pdfrwt beam="2">  1       -2 0.39376628E-02 0.28201230E+03</pdfrwt>
<totfact> 0.10342277E+04</totfact>
</mgrwt>
</event>
<event>
 9    1  0.8093459E-001  0.2785917E+03  0.7818608E-02  0.1096461E+00
         -1   -1    0    0    0  501 -0.00000000000E+00  0.00000000000E+00  0.16187024635E+02  0.16187024635E+02  0.00000000000E+00 0.  1.
          1   -1    0    0  501    0  0.00000000000E+00 -0.00000000000E+00 -0.11986964621E+04  0.11986964621E+04  0.00000000000E+00 0.  1.
         35    2    1    2    0    0  0.71054273576E-14 -0.71054273576E-14 -0.11825094375E+04  0.12148834867E+04  0.27859166651E+03 0.  0.
         25    2    3    3    0    0  0.42974173688E+02 -0.31185133475E+02 -0.72718114662E+03  0.73975224119E+03  0.12498666408E+03 0.  0.
         25    2    3    3    0    0 -0.42974173688E+02  0.31185133475E+02 -0.45532829084E+03  0.47513124554E+03  0.12492620178E+03 0.  0.
          5    1    4    4  502    0 -0.22810429997E+02 -0.10355427211E+02 -0.53321779495E+03  0.53382661740E+03  0.47000000000E+01 0.  1.
         -5    1    4    4    0  502  0.65784603685E+02 -0.20829706264E+02 -0.19396335166E+03  0.20592562379E+03  0.47000000000E+01 0.  1.
          5    1    5    5  503    0 -0.82937518342E+02 -0.21113745751E+01 -0.26118212761E+03  0.27408262192E+03  0.47000000000E+01 0. -1.
         -5    1    5    5    0  503  0.39963344655E+02  0.33296508050E+02 -0.19414616323E+03  0.20104862362E+03  0.47000000000E+01 0. -1.
<mgrwt>
<rscale>  0 0.27859167E+03</rscale>
<asrwt>0</asrwt>
<pdfrwt beam="1">  1        1 0.18441486E+00 0.27859167E+03</pdfrwt>
<pdfrwt beam="2">  1       -1 0.24903112E-02 0.27859167E+03</pdfrwt>
<totfact> 0.57001062E+03</totfact>
</mgrwt>
</event>
<event>
 9    1  0.8093459E-001  0.2763545E+03  0.7818608E-02  0.1097697E+00
          2   -1    0    0  501    0  0.00000000000E+00  0.00000000000E+00  0.18719041609E+04  0.18719041609E+04  0.00000000000E+00 0.  1.
         -2   -1    0    0    0  501 -0.00000000000E+00 -0.00000000000E+00 -0.10199749088E+02  0.10199749088E+02  0.00000000000E+00 0.  1.
         35    2    1    2    0    0  0.71054273576E-14  0.35527136788E-14  0.18617044118E+04  0.18821039100E+04  0.27635450246E+03 0.  0.
         25    2    3    3    0    0  0.37493410275E+02 -0.20736220168E+02  0.12089969848E+04  0.12162221567E+04  0.12524727054E+03 0.  0.
         25    2    3    3    0    0 -0.37493410275E+02  0.20736220168E+02  0.65270742706E+03  0.66588175324E+03  0.12464259834E+03 0.  0.
          5    1    4    4  502    0 -0.22281136419E+02  0.23423366474E+02  0.78891887824E+03  0.78959495286E+03  0.47000000000E+01 0. -1.
         -5    1    4    4    0  502  0.59774546694E+02 -0.44159586641E+02  0.42007810651E+03  0.42662720389E+03  0.47000000000E+01 0. -1.
          5    1    5    5  503    0 -0.22558561605E+02  0.24395412275E+02  0.64835686169E+03  0.64922471837E+03  0.47000000000E+01 0. -1.
         -5    1    5    5    0  503 -0.14934848670E+02 -0.36591921077E+01  0.43505653678E+01  0.16657034871E+02  0.47000000000E+01 0. -1.
<mgrwt>
<rscale>  0 0.27635450E+03</rscale>
<asrwt>0</asrwt>
<pdfrwt beam="1">  1        2 0.28798498E+00 0.27635450E+03</pdfrwt>
<pdfrwt beam="2">  1       -2 0.15691937E-02 0.27635450E+03</pdfrwt>
<totfact> 0.95816679E+03</totfact>
</mgrwt>
</event>
<event>
 9    1  0.8093459E-001  0.2737415E+03  0.7818608E-02  0.1099157E+00
          2   -1    0    0  501    0  0.00000000000E+00  0.00000000000E+00  0.19038977887E+04  0.19038977887E+04  0.00000000000E+00 0. -1.
         -2   -1    0    0    0  501 -0.00000000000E+00 -0.00000000000E+00 -0.98396038524E+01  0.98396038524E+01  0.00000000000E+00 0. -1.
         35    2    1    2    0    0  0.00000000000E+00 -0.35527136788E-14  0.18940581848E+04  0.19137373925E+04  0.27374148400E+03 0.  0.
         25    2    3    3    0    0 -0.54672732650E+02 -0.75651818568E+01  0.10192482095E+04  0.10283404492E+04  0.12478312085E+03 0.  0.
         25    2    3    3    0    0  0.54672732650E+02  0.75651818568E+01  0.87480997531E+03  0.88539694330E+03  0.12485557509E+03 0.  0.
          5    1    4    4  502    0  0.23757253488E+02  0.35329066486E+02  0.45797021712E+03  0.45996886830E+03  0.47000000000E+01 0.  1.
         -5    1    4    4    0  502 -0.78429986138E+02 -0.42894248343E+02  0.56127799239E+03  0.56837158093E+03  0.47000000000E+01 0.  1.
          5    1    5    5  503    0 -0.11796706945E+02  0.21237425743E+02  0.35150058544E+02  0.42986127560E+02  0.47000000000E+01 0. -1.
         -5    1    5    5    0  503  0.66469439595E+02 -0.13672243887E+02  0.83965991677E+03  0.84241081574E+03  0.47000000000E+01 0. -1.
<mgrwt>
<rscale>  0 0.27374148E+03</rscale>
<asrwt>0</asrwt>
<pdfrwt beam="1">  1        2 0.29290706E+00 0.27374148E+03</pdfrwt>
<pdfrwt beam="2">  1       -2 0.15137867E-02 0.27374148E+03</pdfrwt>
<totfact> 0.97151019E+03</totfact>
</mgrwt>
</event>
<event>
 9    1  0.8093459E-001  0.2705265E+03  0.7818608E-02  0.1100979E+00
          2   -1    0    0  501    0  0.00000000000E+00  0.00000000000E+00  0.20349561544E+04  0.20349561544E+04  0.00000000000E+00 0.  1.
         -2   -1    0    0    0  501 -0.00000000000E+00 -0.00000000000E+00 -0.89909268894E+01  0.89909268894E+01  0.00000000000E+00 0.  1.
         35    2    1    2    0    0  0.00000000000E+00  0.00000000000E+00  0.20259652275E+04  0.20439470813E+04  0.27052646456E+03 0.  0.
         25    2    3    3    0    0  0.31075884226E+02 -0.28019811690E+01  0.64273749742E+03  0.65537695527E+03  0.12423325333E+03 0.  0.
         25    2    3    3    0    0 -0.31075884226E+02  0.28019811690E+01  0.13832277301E+04  0.13885701260E+04  0.11762006588E+03 0.  0.
          5    1    4    4  502    0 -0.39778702576E+02  0.16229033218E+02  0.12102454945E+03  0.12850975942E+03  0.47000000000E+01 0.  1.
         -5    1    4    4    0  502  0.70854586802E+02 -0.19031014387E+02  0.52171294797E+03  0.52686719585E+03  0.47000000000E+01 0.  1.
          5    1    5    5  503    0 -0.16332022537E+02  0.57271479009E+02  0.50550365564E+03  0.50902140735E+03  0.47000000000E+01 0. -1.
         -5    1    5    5    0  503 -0.14743861689E+02 -0.54469497840E+02  0.87772407442E+03  0.87954871864E+03  0.47000000000E+01 0. -1.
<mgrwt>
<rscale>  0 0.27052646E+03</rscale>
<asrwt>0</asrwt>
<pdfrwt beam="1">  1        2 0.31306981E+00 0.27052646E+03</pdfrwt>
<pdfrwt beam="2">  1       -2 0.13832211E-02 0.27052646E+03</pdfrwt>
<totfact> 0.94573305E+03</totfact>
</mgrwt>
</event>
<event>
 9    1  0.8093459E-001  0.3024546E+03  0.7818608E-02  0.1084020E+00
         -4   -1    0    0    0  501 -0.00000000000E+00  0.00000000000E+00  0.59561309161E+02  0.59561309161E+02  0.00000000000E+00 0.  1.
          4   -1    0    0  501    0  0.00000000000E+00 -0.00000000000E+00 -0.38396910914E+03  0.38396910914E+03  0.00000000000E+00 0.  1.
         35    2    1    2    0    0  0.00000000000E+00  0.00000000000E+00 -0.32440779998E+03  0.44353041830E+03  0.30245464333E+03 0.  0.
         25    2    3    3    0    0  0.72947403306E+02 -0.37768105685E+02 -0.13306843015E+03  0.20136972575E+03  0.12686530609E+03 0.  0.
         25    2    3    3    0    0 -0.72947403306E+02  0.37768105685E+02 -0.19133936983E+03  0.24216069255E+03  0.12362561674E+03 0.  0.
          5    1    4    4  502    0  0.58420336765E+02  0.31305020302E+02 -0.10705227037E+03  0.12599689931E+03  0.47000000000E+01 0.  1.
         -5    1    4    4    0  502  0.14527066541E+02 -0.69073125987E+02 -0.26016159780E+02  0.75372826440E+02  0.47000000000E+01 0.  1.
          5    1    5    5  503    0 -0.96322804008E+01  0.65395337165E+01  0.17570012889E+02  0.21594945702E+02  0.47000000000E+01 0. -1.
         -5    1    5    5    0  503 -0.63315122905E+02  0.31228571969E+02 -0.20890938272E+03  0.22056574685E+03  0.47000000000E+01 0. -1.
<mgrwt>
<rscale>  0 0.30245464E+03</rscale>
<asrwt>0</asrwt>
<pdfrwt beam="1">  1        4 0.59072173E-01 0.30245464E+03</pdfrwt>
<pdfrwt beam="2">  1       -4 0.91632780E-02 0.30245464E+03</pdfrwt>
<totfact> 0.45694982E+02</totfact>
</mgrwt>
</event>
<event>
 9    1  0.8093459E-001  0.2744813E+03  0.7818608E-02  0.1098742E+00
          2   -1    0    0  501    0  0.00000000000E+00  0.00000000000E+00  0.24907569152E+03  0.24907569152E+03  0.00000000000E+00 0.  1.
         -2   -1    0    0    0  501 -0.00000000000E+00 -0.00000000000E+00 -0.75619569387E+02  0.75619569387E+02  0.00000000000E+00 0.  1.
         35    2    1    2    0    0  0.00000000000E+00  0.71054273576E-14  0.17345612214E+03  0.32469526091E+03  0.27448130383E+03 0.  0.
         25    2    3    3    0    0 -0.17723458220E+02 -0.21280327653E+02  0.12926995273E+03  0.18898624217E+03  0.13504853103E+03 0.  0.
         25    2    3    3    0    0  0.17723458220E+02  0.21280327653E+02  0.44186169412E+02  0.13570901874E+03  0.12528985148E+03 0.  0.
          5    1    4    4  502    0 -0.28837118700E+02 -0.68675375356E+02  0.11664239768E+03  0.13847536074E+03  0.47000000000E+01 0. -1.
         -5    1    4    4    0  502  0.11113660480E+02  0.47395047703E+02  0.12627555042E+02  0.50510881425E+02  0.47000000000E+01 0. -1.
          5    1    5    5  503    0  0.17315744227E+01  0.71203159890E+02  0.42450842100E+02  0.83048493805E+02  0.47000000000E+01 0.  1.
         -5    1    5    5    0  503  0.15991883797E+02 -0.49922832237E+02  0.17353273118E+01  0.52660524939E+02  0.47000000000E+01 0.  1.
<mgrwt>
<rscale>  0 0.27448130E+03</rscale>
<asrwt>0</asrwt>
<pdfrwt beam="1">  1        2 0.38319337E-01 0.27448130E+03</pdfrwt>
<pdfrwt beam="2">  1       -2 0.11633780E-01 0.27448130E+03</pdfrwt>
<totfact> 0.69087683E+03</totfact>
</mgrwt>
</event>
<event>
 9    1  0.8093459E-001  0.2742401E+03  0.7818608E-02  0.1098877E+00
          1   -1    0    0  501    0  0.00000000000E+00  0.00000000000E+00  0.40969853568E+03  0.40969853568E+03  0.00000000000E+00 0.  1.
         -1   -1    0    0    0  501 -0.00000000000E+00 -0.00000000000E+00 -0.45892056447E+02  0.45892056447E+02  0.00000000000E+00 0.  1.
         35    2    1    2    0    0 -0.22204460493E-14  0.00000000000E+00  0.36380647924E+03  0.45559059213E+03  0.27424010156E+03 0.  0.
         25    2    3    3    0    0  0.38077918332E+01 -0.25276712318E+02  0.25805462656E+03  0.28938245836E+03  0.12843911185E+03 0.  0.
         25    2    3    3    0    0 -0.38077918332E+01  0.25276712318E+02  0.10575185267E+03  0.16620813377E+03  0.12565141433E+03 0.  0.
          5    1    4    4  502    0 -0.23707199621E+02 -0.24642572715E+02  0.50994208341E+01  0.34890998792E+02  0.47000000000E+01 0. -1.
         -5    1    4    4    0  502  0.27514991454E+02 -0.63413960320E+00  0.25295520573E+03  0.25449145957E+03  0.47000000000E+01 0. -1.
          5    1    5    5  503    0 -0.73231481100E+01  0.63949644214E+02  0.10929962231E+03  0.12693180425E+03  0.47000000000E+01 0. -1.
         -5    1    5    5    0  503  0.35153562767E+01 -0.38672931896E+02 -0.35477696352E+01  0.39276329520E+02  0.47000000000E+01 0. -1.
<mgrwt>
<rscale>  0 0.27424010E+03</rscale>
<asrwt>0</asrwt>
<pdfrwt beam="1">  1        1 0.63030541E-01 0.27424010E+03</pdfrwt>
<pdfrwt beam="2">  1       -1 0.70603167E-02 0.27424010E+03</pdfrwt>
<totfact> 0.60893004E+03</totfact>
</mgrwt>
</event>
<event>
 9    1  0.8093459E-001  0.2751072E+03  0.7818608E-02  0.1098392E+00
         -2   -1    0    0    0  501 -0.00000000000E+00  0.00000000000E+00  0.11071924625E+02  0.11071924625E+02  0.00000000000E+00 0.  1.
          2   -1    0    0  501    0  0.00000000000E+00 -0.00000000000E+00 -0.17089161984E+04  0.17089161984E+04  0.00000000000E+00 0.  1.
         35    2    1    2    0    0 -0.14210854715E-13  0.00000000000E+00 -0.16978442738E+04  0.17199881230E+04  0.27510718885E+03 0.  0.
         25    2    3    3    0    0  0.55702711560E+02  0.80246150475E+01 -0.78454033503E+03  0.79645066181E+03  0.12515163961E+03 0.  0.
         25    2    3    3    0    0 -0.55702711560E+02 -0.80246150475E+01 -0.91330393874E+03  0.92353746120E+03  0.12502068311E+03 0.  0.
          5    1    4    4  502    0  0.75002439442E+02 -0.39545664068E+02 -0.52753177997E+03  0.53432302434E+03  0.47000000000E+01 0.  1.
         -5    1    4    4    0  502 -0.19299727882E+02  0.47570279116E+02 -0.25700855506E+03  0.26212763747E+03  0.47000000000E+01 0.  1.
          5    1    5    5  503    0 -0.71673389824E+02 -0.45975491584E+02 -0.42461246877E+03  0.43309197553E+03  0.47000000000E+01 0. -1.
         -5    1    5    5    0  503  0.15970678265E+02  0.37950876536E+02 -0.48869146997E+03  0.49044548567E+03  0.47000000000E+01 0. -1.
<mgrwt>
<rscale>  0 0.27510719E+03</rscale>
<asrwt>0</asrwt>
<pdfrwt beam="1">  1        2 0.26290996E+00 0.27510719E+03</pdfrwt>
<pdfrwt beam="2">  1       -2 0.17033744E-02 0.27510719E+03</pdfrwt>
<totfact> 0.10347328E+04</totfact>
</mgrwt>
</event>
<event>
 9    1  0.8093459E-001  0.2758015E+03  0.7818608E-02  0.1098004E+00
         -2   -1    0    0    0  501 -0.00000000000E+00  0.00000000000E+00  0.66531269719E+02  0.66531269719E+02  0.00000000000E+00 0. -1.
          2   -1    0    0  501    0  0.00000000000E+00 -0.00000000000E+00 -0.28582982324E+03  0.28582982324E+03  0.00000000000E+00 0. -1.
         35    2    1    2    0    0  0.71054273576E-14  0.00000000000E+00 -0.21929855352E+03  0.35236109295E+03  0.27580153055E+03 0.  0.
         25    2    3    3    0    0 -0.33669677947E+02 -0.44392889741E+02 -0.12568752970E+03  0.18652818640E+03  0.12605964194E+03 0.  0.
         25    2    3    3    0    0  0.33669677947E+02  0.44392889741E+02 -0.93611023815E+02  0.16583290655E+03  0.12503260872E+03 0.  0.
          5    1    4    4  502    0  0.89687477613E+01  0.33318398518E+02 -0.78776239470E+02  0.86129785912E+02  0.47000000000E+01 0. -1.
         -5    1    4    4    0  502 -0.42638425708E+02 -0.77711288259E+02 -0.46911290232E+02  0.10039840049E+03  0.47000000000E+01 0. -1.
          5    1    5    5  503    0 -0.16096088135E+02  0.75335185552E+02 -0.62547678505E+02  0.99341714913E+02  0.47000000000E+01 0.  1.
         -5    1    5    5    0  503  0.49765766082E+02 -0.30942295811E+02 -0.31063345311E+02  0.66491191640E+02  0.47000000000E+01 0.  1.
<mgrwt>
<rscale>  0 0.27580153E+03</rscale>
<asrwt>0</asrwt>
<pdfrwt beam="1">  1        2 0.43973819E-01 0.27580153E+03</pdfrwt>
<pdfrwt beam="2">  1       -2 0.10235580E-01 0.27580153E+03</pdfrwt>
<totfact> 0.73133585E+03</totfact>
</mgrwt>
</event>
<event>
 9    1  0.8093459E-001  0.2818425E+03  0.7818608E-02  0.1094687E+00
          1   -1    0    0  501    0  0.00000000000E+00  0.00000000000E+00  0.67172782345E+03  0.67172782345E+03  0.00000000000E+00 0. -1.
         -1   -1    0    0    0  501 -0.00000000000E+00 -0.00000000000E+00 -0.29563757242E+02  0.29563757242E+02  0.00000000000E+00 0. -1.
         35    2    1    2    0    0  0.00000000000E+00 -0.14210854715E-13  0.64216406620E+03  0.70129158069E+03  0.28184249719E+03 0.  0.
         25    2    3    3    0    0 -0.28239931484E+01 -0.65252960768E+02  0.31663416636E+03  0.34659382095E+03  0.12491660253E+03 0.  0.
         25    2    3    3    0    0  0.28239931484E+01  0.65252960768E+02  0.32552989985E+03  0.35469775974E+03  0.12479928383E+03 0.  0.
          5    1    4    4  502    0  0.32427283747E+02 -0.40700066217E+02  0.37947884521E+02  0.64576745512E+02  0.47000000000E+01 0. -1.
         -5    1    4    4    0  502 -0.35251276896E+02 -0.24552894551E+02  0.27868628184E+03  0.28201707544E+03  0.47000000000E+01 0. -1.
          5    1    5    5  503    0 -0.29444565114E+02  0.14305957903E+02  0.11682611673E+02  0.35074438866E+02  0.47000000000E+01 0. -1.
         -5    1    5    5    0  503  0.32268558262E+02  0.50947002865E+02  0.31384728817E+03  0.31962332088E+03  0.47000000000E+01 0. -1.
<mgrwt>
<rscale>  0 0.28184250E+03</rscale>
<asrwt>0</asrwt>
<pdfrwt beam="1">  1        1 0.10334273E+00 0.28184250E+03</pdfrwt>
<pdfrwt beam="2">  1       -1 0.45482708E-02 0.28184250E+03</pdfrwt>
<totfact> 0.60629391E+03</totfact>
</mgrwt>
</event>
<event>
 9    1  0.8093459E-001  0.2665348E+03  0.7818608E-02  0.1103279E+00
         -2   -1    0    0    0  501 -0.00000000000E+00  0.00000000000E+00  0.28014823904E+02  0.28014823904E+02  0.00000000000E+00 0. -1.
          2   -1    0    0  501    0  0.00000000000E+00 -0.00000000000E+00 -0.63395716071E+03  0.63395716071E+03  0.00000000000E+00 0. -1.
         35    2    1    2    0    0  0.00000000000E+00 -0.71054273576E-14 -0.60594233680E+03  0.66197198461E+03  0.26653478737E+03 0.  0.
         25    2    3    3    0    0  0.13156806413E+02  0.43117571990E+02 -0.28042890062E+03  0.31019127313E+03  0.12468372408E+03 0.  0.
         25    2    3    3    0    0 -0.13156806413E+02 -0.43117571990E+02 -0.32551343618E+03  0.35178071148E+03  0.12553264622E+03 0.  0.
          5    1    4    4  502    0  0.62080736580E+02  0.39195032514E+02 -0.10672129673E+03  0.12962173276E+03  0.47000000000E+01 0.  1.
         -5    1    4    4    0  502 -0.48923930167E+02  0.39225394762E+01 -0.17370760388E+03  0.18056954036E+03  0.47000000000E+01 0.  1.
          5    1    5    5  503    0  0.44096116531E+02 -0.57162456521E+02 -0.14923193810E+03  0.16584412946E+03  0.47000000000E+01 0. -1.
         -5    1    5    5    0  503 -0.57252922944E+02  0.14044884531E+02 -0.17628149809E+03  0.18593658202E+03  0.47000000000E+01 0. -1.
<mgrwt>
<rscale>  0 0.26653479E+03</rscale>
<asrwt>0</asrwt>
<pdfrwt beam="1">  1        2 0.97531865E-01 0.26653479E+03</pdfrwt>
<pdfrwt beam="2">  1       -2 0.43099732E-02 0.26653479E+03</pdfrwt>
<totfact> 0.11532717E+04</totfact>
</mgrwt>
</event>
<event>
 9    1  0.8093459E-001  0.2768140E+03  0.7818608E-02  0.1097442E+00
          2   -1    0    0  501    0  0.00000000000E+00  0.00000000000E+00  0.10894512102E+04  0.10894512102E+04  0.00000000000E+00 0.  1.
         -2   -1    0    0    0  501 -0.00000000000E+00 -0.00000000000E+00 -0.17583624151E+02  0.17583624151E+02  0.00000000000E+00 0.  1.
         35    2    1    2    0    0 -0.71054273576E-14  0.35527136788E-14  0.10718675861E+04  0.11070348344E+04  0.27681402140E+03 0.  0.
         25    2    3    3    0    0 -0.43738195315E+02 -0.14209590477E+02  0.40442812808E+03  0.42641736474E+03  0.12710120366E+03 0.  0.
         25    2    3    3    0    0  0.43738195315E+02  0.14209590477E+02  0.66743945801E+03  0.68061746966E+03  0.12509903160E+03 0.  0.
          5    1    4    4  502    0 -0.62771184050E+01  0.22221836287E+02  0.56896784817E+01  0.24242002076E+02  0.47000000000E+01 0.  1.
         -5    1    4    4    0  502 -0.37461076910E+02 -0.36431426764E+02  0.39873844960E+03  0.40217536266E+03  0.47000000000E+01 0.  1.
          5    1    5    5  503    0  0.55322564674E+02  0.61856556480E+02  0.37963830016E+03  0.38863112162E+03  0.47000000000E+01 0.  1.
         -5    1    5    5    0  503 -0.11584369359E+02 -0.47646966003E+02  0.28780115785E+03  0.29198634804E+03  0.47000000000E+01 0.  1.
<mgrwt>
<rscale>  0 0.27681402E+03</rscale>
<asrwt>0</asrwt>
<pdfrwt beam="1">  1        2 0.16760783E+00 0.27681402E+03</pdfrwt>
<pdfrwt beam="2">  1       -2 0.27051738E-02 0.27681402E+03</pdfrwt>
<totfact> 0.11435483E+04</totfact>
</mgrwt>
</event>
<event>
 9    1  0.8093459E-001  0.2756588E+03  0.7818608E-02  0.1098084E+00
          2   -1    0    0  501    0  0.00000000000E+00  0.00000000000E+00  0.12681869329E+03  0.12681869329E+03  0.00000000000E+00 0.  1.
         -2   -1    0    0    0  501 -0.00000000000E+00 -0.00000000000E+00 -0.14979605480E+03  0.14979605480E+03  0.00000000000E+00 0.  1.
         35    2    1    2    0    0 -0.71054273576E-14 -0.35527136788E-14 -0.22977361516E+02  0.27661474809E+03  0.27565877406E+03 0.  0.
         25    2    3    3    0    0  0.55698770543E+02 -0.68900473857E+01  0.18082055479E+02  0.13305837330E+03  0.11928010807E+03 0.  0.
         25    2    3    3    0    0 -0.55698770543E+02  0.68900473857E+01 -0.41059416995E+02  0.14355637479E+03  0.12558953470E+03 0.  0.
          5    1    4    4  502    0  0.91313740457E+02 -0.16552307208E+02  0.22472848844E+02  0.95599670530E+02  0.47000000000E+01 0.  1.
         -5    1    4    4    0  502 -0.35614969914E+02  0.96622598227E+01 -0.43907933651E+01  0.37458702771E+02  0.47000000000E+01 0.  1.
          5    1    5    5  503    0 -0.12398096811E+02 -0.57432962810E+02 -0.26023260520E+02  0.64432585776E+02  0.47000000000E+01 0. -1.
         -5    1    5    5    0  503 -0.43300673732E+02  0.64323010196E+02 -0.15036156474E+02  0.79123789014E+02  0.47000000000E+01 0. -1.
<mgrwt>
<rscale>  0 0.27565877E+03</rscale>
<asrwt>0</asrwt>
<pdfrwt beam="1">  1        2 0.19510568E-01 0.27565877E+03</pdfrwt>
<pdfrwt beam="2">  1       -2 0.23045547E-01 0.27565877E+03</pdfrwt>
<totfact> 0.46621921E+03</totfact>
</mgrwt>
</event>
<event>
 9    1  0.8093459E-001  0.2772607E+03  0.7818608E-02  0.1097195E+00
          3   -1    0    0  501    0  0.00000000000E+00  0.00000000000E+00  0.39425893081E+03  0.39425893081E+03  0.00000000000E+00 0. -1.
         -3   -1    0    0    0  501 -0.00000000000E+00 -0.00000000000E+00 -0.48745570689E+02  0.48745570689E+02  0.00000000000E+00 0. -1.
         35    2    1    2    0    0 -0.17763568394E-14  0.00000000000E+00  0.34551336012E+03  0.44300450150E+03  0.27726071905E+03 0.  0.
         25    2    3    3    0    0 -0.10071940286E+02 -0.15876393311E+00  0.27027187613E+03  0.29754208914E+03  0.12402797504E+03 0.  0.
         25    2    3    3    0    0  0.10071940286E+02  0.15876393311E+00  0.75241483991E+02  0.14546241236E+03  0.12408288887E+03 0.  0.
          5    1    4    4  502    0 -0.38483459928E+02 -0.32669905485E+02  0.43969097728E+02  0.67109395523E+02  0.47000000000E+01 0. -1.
         -5    1    4    4    0  502  0.28411519642E+02  0.32511141552E+02  0.22630277840E+03  0.23043269361E+03  0.47000000000E+01 0. -1.
          5    1    5    5  503    0 -0.94895865185E+01 -0.59985271456E+02  0.40533833030E+02  0.73166704613E+02  0.47000000000E+01 0. -1.
         -5    1    5    5    0  503  0.19561526804E+02  0.60144035389E+02  0.34707650962E+02  0.72295707750E+02  0.47000000000E+01 0. -1.
<mgrwt>
<rscale>  0 0.27726072E+03</rscale>
<asrwt>0</asrwt>
<pdfrwt beam="1">  1        3 0.60655218E-01 0.27726072E+03</pdfrwt>
<pdfrwt beam="2">  1       -3 0.74993188E-02 0.27726072E+03</pdfrwt>
<totfact> 0.81223000E+02</totfact>
</mgrwt>
</event>
<event>
 9    1  0.8093459E-001  0.2735852E+03  0.7818608E-02  0.1099245E+00
          4   -1    0    0  501    0  0.00000000000E+00  0.00000000000E+00  0.53101646317E+03  0.53101646317E+03  0.00000000000E+00 0. -1.
         -4   -1    0    0    0  501 -0.00000000000E+00 -0.00000000000E+00 -0.35238488162E+02  0.35238488162E+02  0.00000000000E+00 0. -1.
         35    2    1    2    0    0  0.00000000000E+00  0.14210854715E-13  0.49577797501E+03  0.56625495133E+03  0.27358521416E+03 0.  0.
         25    2    3    3    0    0 -0.18754475336E+02  0.58297697238E+02  0.20698452295E+03  0.24953555126E+03  0.12520002697E+03 0.  0.
         25    2    3    3    0    0  0.18754475336E+02 -0.58297697238E+02  0.28879345206E+03  0.31671940007E+03  0.11471341937E+03 0.  0.
          5    1    4    4  502    0  0.10372037088E+02  0.91807141163E+02  0.15928839835E+03  0.18420373007E+03  0.47000000000E+01 0.  1.
         -5    1    4    4    0  502 -0.29126512424E+02 -0.33509443925E+02  0.47696124596E+02  0.65331821187E+02  0.47000000000E+01 0.  1.
          5    1    5    5  503    0  0.49717887017E+02 -0.51649885830E+02  0.89011840761E+02  0.11438870920E+03  0.47000000000E+01 0. -1.
         -5    1    5    5    0  503 -0.30963411681E+02 -0.66478114081E+01  0.19978161130E+03  0.20233069088E+03  0.47000000000E+01 0. -1.
<mgrwt>
<rscale>  0 0.27358521E+03</rscale>
<asrwt>0</asrwt>
<pdfrwt beam="1">  1        4 0.81694835E-01 0.27358521E+03</pdfrwt>
<pdfrwt beam="2">  1       -4 0.54213062E-02 0.27358521E+03</pdfrwt>
<totfact> 0.53143266E+02</totfact>
</mgrwt>
</event>
<event>
 9    1  0.8093459E-001  0.2772861E+03  0.7818608E-02  0.1097181E+00
          4   -1    0    0  501    0  0.00000000000E+00  0.00000000000E+00  0.29546539304E+03  0.29546539304E+03  0.00000000000E+00 0. -1.
         -4   -1    0    0    0  501 -0.00000000000E+00 -0.00000000000E+00 -0.65056318577E+02  0.65056318577E+02  0.00000000000E+00 0. -1.
         35    2    1    2    0    0 -0.35527136788E-14  0.71054273576E-14  0.23040907447E+03  0.36052171162E+03  0.27728606700E+03 0.  0.
         25    2    3    3    0    0  0.12395449337E+02 -0.59451837133E+02  0.11007633121E+03  0.17714893667E+03  0.12480696683E+03 0.  0.
         25    2    3    3    0    0 -0.12395449337E+02  0.59451837133E+02  0.12033274326E+03  0.18337277495E+03  0.12432794292E+03 0.  0.
          5    1    4    4  502    0  0.26232116126E+02 -0.54841922801E+02 -0.48862726795E+01  0.61169649939E+02  0.47000000000E+01 0.  1.
         -5    1    4    4    0  502 -0.13836666789E+02 -0.46099143325E+01  0.11496260389E+03  0.11597928673E+03  0.47000000000E+01 0.  1.
          5    1    5    5  503    0 -0.42128408070E+02  0.82597329757E+02  0.55287394365E+02  0.10805511383E+03  0.47000000000E+01 0. -1.
         -5    1    5    5    0  503  0.29732958734E+02 -0.23145492623E+02  0.65045348895E+02  0.75317661121E+02  0.47000000000E+01 0. -1.
<mgrwt>
<rscale>  0 0.27728607E+03</rscale>
<asrwt>0</asrwt>
<pdfrwt beam="1">  1        4 0.45456213E-01 0.27728607E+03</pdfrwt>
<pdfrwt beam="2">  1       -4 0.10008665E-01 0.27728607E+03</pdfrwt>
<totfact> 0.66961946E+02</totfact>
</mgrwt>
</event>
<event>
 9    1  0.8093459E-001  0.3150987E+03  0.7818608E-02  0.1077927E+00
         -2   -1    0    0    0  501 -0.00000000000E+00  0.00000000000E+00  0.45248362532E+03  0.45248362532E+03  0.00000000000E+00 0. -1.
          2   -1    0    0  501    0  0.00000000000E+00 -0.00000000000E+00 -0.54856803565E+02  0.54856803565E+02  0.00000000000E+00 0. -1.
         35    2    1    2    0    0 -0.14210854715E-13 -0.14210854715E-13  0.39762682176E+03  0.50734042889E+03  0.31509874865E+03 0.  0.
         25    2    3    3    0    0 -0.35812061809E+02 -0.64950867115E+02  0.99291361931E+02  0.17540092683E+03  0.12411926388E+03 0.  0.
         25    2    3    3    0    0  0.35812061809E+02  0.64950867115E+02  0.29833545983E+03  0.33193950206E+03  0.12521448610E+03 0.  0.
          5    1    4    4  502    0 -0.78253551027E+02 -0.27148188533E+02  0.36678284329E+02  0.90708483232E+02  0.47000000000E+01 0.  1.
         -5    1    4    4    0  502  0.42441489217E+02 -0.37802678583E+02  0.62613077603E+02  0.84692443594E+02  0.47000000000E+01 0.  1.
          5    1    5    5  503    0 -0.30764553277E+02  0.71238775006E+02  0.17691734591E+03  0.19324403765E+03  0.47000000000E+01 0. -1.
         -5    1    5    5    0  503  0.66576615087E+02 -0.62879078909E+01  0.12141811392E+03  0.13869546441E+03  0.47000000000E+01 0. -1.
<mgrwt>
<rscale>  0 0.31509875E+03</rscale>
<asrwt>0</asrwt>
<pdfrwt beam="1">  1        2 0.84395085E-02 0.31509875E+03</pdfrwt>
<pdfrwt beam="2">  1       -2 0.69612863E-01 0.31509875E+03</pdfrwt>
<totfact> 0.15373627E+03</totfact>
</mgrwt>
</event>
<event>
 9    1  0.8093459E-001  0.2752931E+03  0.7818608E-02  0.1098288E+00
          2   -1    0    0  501    0  0.00000000000E+00  0.00000000000E+00  0.58081677489E+03  0.58081677489E+03  0.00000000000E+00 0.  1.
         -2   -1    0    0    0  501 -0.00000000000E+00 -0.00000000000E+00 -0.32620578701E+02  0.32620578701E+02  0.00000000000E+00 0.  1.
         35    2    1    2    0    0  0.35527136788E-14  0.00000000000E+00  0.54819619618E+03  0.61343735359E+03  0.27529314787E+03 0.  0.
         25    2    3    3    0    0 -0.82491770102E+01 -0.54230835977E+02  0.31619768984E+03  0.34438284153E+03  0.12493810462E+03 0.  0.
         25    2    3    3    0    0  0.82491770102E+01  0.54230835977E+02  0.23199850634E+03  0.26905451206E+03  0.12473167609E+03 0.  0.
          5    1    4    4  502    0  0.54576992484E+02 -0.48525132062E+02  0.17162067403E+03  0.18657192261E+03  0.47000000000E+01 0.  1.
         -5    1    4    4    0  502 -0.62826169494E+02 -0.57057039146E+01  0.14457701581E+03  0.15781091892E+03  0.47000000000E+01 0.  1.
          5    1    5    5  503    0  0.45200748955E+01  0.92885827762E+02  0.19041946631E+03  0.21196667480E+03  0.47000000000E+01 0.  1.
         -5    1    5    5    0  503  0.37291021147E+01 -0.38654991785E+02  0.41579040033E+02  0.57087837256E+02  0.47000000000E+01 0.  1.
<mgrwt>
<rscale>  0 0.27529315E+03</rscale>
<asrwt>0</asrwt>
<pdfrwt beam="1">  1        2 0.89356419E-01 0.27529315E+03</pdfrwt>
<pdfrwt beam="2">  1       -2 0.50185510E-02 0.27529315E+03</pdfrwt>
<totfact> 0.10154754E+04</totfact>
</mgrwt>
</event>
<event>
 9    1  0.8093459E-001  0.2750884E+03  0.7818608E-02  0.1098402E+00
         -2   -1    0    0    0  501 -0.00000000000E+00  0.00000000000E+00  0.17747738392E+03  0.17747738392E+03  0.00000000000E+00 0. -1.
          2   -1    0    0  501    0  0.00000000000E+00 -0.00000000000E+00 -0.10659612194E+03  0.10659612194E+03  0.00000000000E+00 0. -1.
         35    2    1    2    0    0 -0.35527136788E-14 -0.71054273576E-14  0.70881261972E+02  0.28407350586E+03  0.27508835568E+03 0.  0.
         25    2    3    3    0    0  0.19994880997E+02 -0.44152201946E+02  0.60051546162E+02  0.14775113540E+03  0.12599602221E+03 0.  0.
         25    2    3    3    0    0 -0.19994880997E+02  0.44152201946E+02  0.10829715810E+02  0.13632237046E+03  0.12695390400E+03 0.  0.
          5    1    4    4  502    0 -0.97947746448E+01  0.15203156588E+02 -0.30252198160E+02  0.35557827184E+02  0.47000000000E+01 0.  1.
         -5    1    4    4    0  502  0.29789655642E+02 -0.59355358534E+02  0.90303744321E+02  0.11219330822E+03  0.47000000000E+01 0.  1.
          5    1    5    5  503    0  0.52281491398E+02  0.31555444799E+01  0.19494046175E+01  0.52623207638E+02  0.47000000000E+01 0. -1.
         -5    1    5    5    0  503 -0.72276372395E+02  0.40996657466E+02  0.88803111923E+01  0.83699162821E+02  0.47000000000E+01 0. -1.
<mgrwt>
<rscale>  0 0.27508836E+03</rscale>
<asrwt>0</asrwt>
<pdfrwt beam="1">  1        2 0.16399403E-01 0.27508836E+03</pdfrwt>
<pdfrwt beam="2">  1       -2 0.27304213E-01 0.27508836E+03</pdfrwt>
<totfact> 0.42277451E+03</totfact>
</mgrwt>
</event>
<event>
 9    1  0.8093459E-001  0.2650537E+03  0.7818608E-02  0.1104144E+00
          4   -1    0    0  501    0  0.00000000000E+00  0.00000000000E+00  0.11472961767E+03  0.11472961767E+03  0.00000000000E+00 0.  1.
         -4   -1    0    0    0  501 -0.00000000000E+00 -0.00000000000E+00 -0.15308484285E+03  0.15308484285E+03  0.00000000000E+00 0.  1.
         35    2    1    2    0    0 -0.35527136788E-14 -0.71054273576E-14 -0.38355225181E+02  0.26781446051E+03  0.26505369637E+03 0.  0.
         25    2    3    3    0    0 -0.16278223616E+02 -0.25109335113E+02  0.15544893324E+02  0.12984158899E+03  0.12538634394E+03 0.  0.
         25    2    3    3    0    0  0.16278223616E+02  0.25109335113E+02 -0.53900118505E+02  0.13797287153E+03  0.12343350934E+03 0.  0.
          5    1    4    4  502    0 -0.49139082260E+02 -0.15342808789E+02 -0.39339908630E+02  0.64959753678E+02  0.47000000000E+01 0.  1.
         -5    1    4    4    0  502  0.32860858644E+02 -0.97665263237E+01  0.54884801954E+02  0.64881835307E+02  0.47000000000E+01 0.  1.
          5    1    5    5  503    0 -0.81478908627E+01 -0.18083999300E+02  0.32419922844E+02  0.38295698889E+02  0.47000000000E+01 0.  1.
         -5    1    5    5    0  503  0.24426114479E+02  0.43193334413E+02 -0.86320041349E+02  0.99677172636E+02  0.47000000000E+01 0.  1.
<mgrwt>
<rscale>  0 0.26505370E+03</rscale>
<asrwt>0</asrwt>
<pdfrwt beam="1">  1        4 0.17650710E-01 0.26505370E+03</pdfrwt>
<pdfrwt beam="2">  1       -4 0.23551514E-01 0.26505370E+03</pdfrwt>
<totfact> 0.88211416E+02</totfact>
</mgrwt>
</event>
<event>
 9    1  0.8093459E-001  0.2754330E+03  0.7818608E-02  0.1098210E+00
          2   -1    0    0  501    0  0.00000000000E+00  0.00000000000E+00  0.12348119814E+04  0.12348119814E+04  0.00000000000E+00 0. -1.
         -2   -1    0    0    0  501 -0.00000000000E+00 -0.00000000000E+00 -0.15359285682E+02  0.15359285682E+02  0.00000000000E+00 0. -1.
         35    2    1    2    0    0  0.00000000000E+00  0.00000000000E+00  0.12194526957E+04  0.12501712670E+04  0.27543296814E+03 0.  0.
         25    2    3    3    0    0 -0.26919720977E+02  0.13335858804E+02  0.90453154991E+03  0.91361698275E+03  0.12496459450E+03 0.  0.
         25    2    3    3    0    0  0.26919720977E+02 -0.13335858804E+02  0.31492114577E+03  0.33655428429E+03  0.11485182504E+03 0.  0.
          5    1    4    4  502    0 -0.63449758685E+02 -0.23504275125E+02  0.66702463764E+03  0.67046422727E+03  0.47000000000E+01 0. -1.
         -5    1    4    4    0  502  0.36530037708E+02  0.36840133929E+02  0.23750691226E+03  0.24315275548E+03  0.47000000000E+01 0. -1.
          5    1    5    5  503    0  0.23918867217E+02  0.45786376290E+02  0.89526032121E+02  0.10346740980E+03  0.47000000000E+01 0. -1.
         -5    1    5    5    0  503  0.30008537601E+01 -0.59122235093E+02  0.22539511365E+03  0.23308687449E+03  0.47000000000E+01 0. -1.
<mgrwt>
<rscale>  0 0.27543297E+03</rscale>
<asrwt>0</asrwt>
<pdfrwt beam="1">  1        2 0.18997100E+00 0.27543297E+03</pdfrwt>
<pdfrwt beam="2">  1       -2 0.23629680E-02 0.27543297E+03</pdfrwt>
<totfact> 0.11521568E+04</totfact>
</mgrwt>
</event>
<event>
 9    1  0.8093459E-001  0.2754670E+03  0.7818608E-02  0.1098191E+00
         -2   -1    0    0    0  501 -0.00000000000E+00  0.00000000000E+00  0.41208075923E+02  0.41208075923E+02  0.00000000000E+00 0.  1.
          2   -1    0    0  501    0  0.00000000000E+00 -0.00000000000E+00 -0.46035936670E+03  0.46035936670E+03  0.00000000000E+00 0.  1.
         35    2    1    2    0    0  0.00000000000E+00  0.17763568394E-14 -0.41915129078E+03  0.50156744262E+03  0.27546704874E+03 0.  0.
         25    2    3    3    0    0  0.37521840264E+02 -0.18500230456E+01 -0.12772183324E+03  0.18227081241E+03  0.12449285638E+03 0.  0.
         25    2    3    3    0    0 -0.37521840264E+02  0.18500230456E+01 -0.29142945754E+03  0.31929663021E+03  0.12493157431E+03 0.  0.
          5    1    4    4  502    0  0.35775867533E+02  0.14229583143E+02 -0.14966452540E+03  0.15460903562E+03  0.47000000000E+01 0. -1.
         -5    1    4    4    0  502  0.17459727315E+01 -0.16079606189E+02  0.21942692160E+02  0.27661776790E+02  0.47000000000E+01 0. -1.
          5    1    5    5  503    0  0.35324451232E+02 -0.22060573547E+02 -0.46481001509E+02  0.62586414351E+02  0.47000000000E+01 0. -1.
         -5    1    5    5    0  503 -0.72846291496E+02  0.23910596593E+02 -0.24494845603E+03  0.25671021586E+03  0.47000000000E+01 0. -1.
<mgrwt>
<rscale>  0 0.27546705E+03</rscale>
<asrwt>0</asrwt>
<pdfrwt beam="1">  1        2 0.70824517E-01 0.27546705E+03</pdfrwt>
<pdfrwt beam="2">  1       -2 0.63397040E-02 0.27546705E+03</pdfrwt>
<totfact> 0.92295882E+03</totfact>
</mgrwt>
</event>
<event>
 9    1  0.8093459E-001  0.2719441E+03  0.7818608E-02  0.1100172E+00
          2   -1    0    0  501    0  0.00000000000E+00  0.00000000000E+00  0.27755177664E+04  0.27755177664E+04  0.00000000000E+00 0.  1.
         -2   -1    0    0    0  501 -0.00000000000E+00 -0.00000000000E+00 -0.66612425083E+01  0.66612425083E+01  0.00000000000E+00 0.  1.
         35    2    1    2    0    0 -0.71054273576E-14  0.71054273576E-14  0.27688565239E+04  0.27821790089E+04  0.27194408931E+03 0.  0.
         25    2    3    3    0    0 -0.21454071255E+02 -0.24044952122E+02  0.17937189888E+04  0.17988983625E+04  0.13254837236E+03 0.  0.
         25    2    3    3    0    0  0.21454071255E+02  0.24044952122E+02  0.97513753512E+03  0.98328064641E+03  0.12210315439E+03 0.  0.
          5    1    4    4  502    0  0.32676665541E+02  0.39916917263E+02  0.77419597568E+03  0.77592694470E+03  0.47000000000E+01 0. -1.
         -5    1    4    4    0  502 -0.54130736796E+02 -0.63961869385E+02  0.10195230131E+04  0.10229714178E+04  0.47000000000E+01 0. -1.
          5    1    5    5  503    0  0.35520011191E+02  0.59601650543E+02  0.34347111883E+03  0.35044047628E+03  0.47000000000E+01 0. -1.
         -5    1    5    5    0  503 -0.14065939936E+02 -0.35556698422E+02  0.63166641629E+03  0.63284017013E+03  0.47000000000E+01 0. -1.
<mgrwt>
<rscale>  0 0.27194409E+03</rscale>
<asrwt>0</asrwt>
<pdfrwt beam="1">  1        2 0.42700181E+00 0.27194409E+03</pdfrwt>
<pdfrwt beam="2">  1       -2 0.10248088E-02 0.27194409E+03</pdfrwt>
<totfact> 0.57897753E+03</totfact>
</mgrwt>
</event>
<event>
 9    1  0.8093459E-001  0.2786108E+03  0.7818608E-02  0.1096450E+00
         -1   -1    0    0    0  501 -0.00000000000E+00  0.00000000000E+00  0.13059970913E+02  0.13059970913E+02  0.00000000000E+00 0.  1.
          1   -1    0    0  501    0  0.00000000000E+00 -0.00000000000E+00 -0.14859140253E+04  0.14859140253E+04  0.00000000000E+00 0.  1.
         35    2    1    2    0    0 -0.35527136788E-14 -0.71054273576E-14 -0.14728540544E+04  0.14989739962E+04  0.27861079627E+03 0.  0.
         25    2    3    3    0    0 -0.17278607939E+02 -0.34657225159E+02 -0.99516756497E+03  0.10037799302E+04  0.12536344122E+03 0.  0.
         25    2    3    3    0    0  0.17278607939E+02  0.34657225159E+02 -0.47768648941E+03  0.49519406598E+03  0.12463188708E+03 0.  0.
          5    1    4    4  502    0 -0.63718229654E+02 -0.47044668706E+02 -0.49910807284E+03  0.50537527840E+03  0.47000000000E+01 0.  1.
         -5    1    4    4    0  502  0.46439621715E+02  0.12387443547E+02 -0.49605949213E+03  0.49840465182E+03  0.47000000000E+01 0.  1.
          5    1    5    5  503    0  0.37137447903E+02 -0.34040667981E+02 -0.11723606205E+03  0.12768845428E+03  0.47000000000E+01 0.  1.
         -5    1    5    5    0  503 -0.19858839964E+02  0.68697893140E+02 -0.36045042736E+03  0.36750561170E+03  0.47000000000E+01 0.  1.
<mgrwt>
<rscale>  0 0.27861080E+03</rscale>
<asrwt>0</asrwt>
<pdfrwt beam="1">  1        1 0.22860208E+00 0.27861080E+03</pdfrwt>
<pdfrwt beam="2">  1       -1 0.20092270E-02 0.27861080E+03</pdfrwt>
<totfact> 0.49810291E+03</totfact>
</mgrwt>
</event>
<event>
 9    1  0.8093459E-001  0.3205325E+03  0.7818608E-02  0.1075404E+00
         -2   -1    0    0    0  501 -0.00000000000E+00  0.00000000000E+00  0.67233310070E+02  0.67233310070E+02  0.00000000000E+00 0.  1.
          2   -1    0    0  501    0  0.00000000000E+00 -0.00000000000E+00 -0.38203202594E+03  0.38203202594E+03  0.00000000000E+00 0.  1.
         35    2    1    2    0    0  0.71054273576E-14  0.00000000000E+00 -0.31479871587E+03  0.44926533601E+03  0.32053254223E+03 0.  0.
         25    2    3    3    0    0  0.44957245723E+02 -0.89877933682E+02 -0.15059541948E+03  0.21976210772E+03  0.12456808065E+03 0.  0.
         25    2    3    3    0    0 -0.44957245723E+02  0.89877933682E+02 -0.16420329639E+03  0.22950322828E+03  0.12493923460E+03 0.  0.
          5    1    4    4  502    0  0.16616491224E+02  0.20909030251E+02  0.40000217612E+01  0.27411411871E+02  0.47000000000E+01 0. -1.
         -5    1    4    4    0  502  0.28340754499E+02 -0.11078696393E+03 -0.15459544124E+03  0.19235069585E+03  0.47000000000E+01 0. -1.
          5    1    5    5  503    0 -0.77850842876E+02  0.82696186773E+02 -0.15847697538E+03  0.19502936899E+03  0.47000000000E+01 0.  1.
         -5    1    5    5    0  503  0.32893597152E+02  0.71817469092E+01 -0.57263210091E+01  0.34473859293E+02  0.47000000000E+01 0.  1.
<mgrwt>
<rscale>  0 0.32053254E+03</rscale>
<asrwt>0</asrwt>
<pdfrwt beam="1">  1        2 0.58774159E-01 0.32053254E+03</pdfrwt>
<pdfrwt beam="2">  1       -2 0.10343586E-01 0.32053254E+03</pdfrwt>
<totfact> 0.52808296E+03</totfact>
</mgrwt>
</event>
<event>
 9    1  0.8093459E-001  0.2704838E+03  0.7818608E-02  0.1101003E+00
         -2   -1    0    0    0  501 -0.00000000000E+00  0.00000000000E+00  0.54219290286E+01  0.54219290286E+01  0.00000000000E+00 0. -1.
          2   -1    0    0  501    0  0.00000000000E+00 -0.00000000000E+00 -0.33734076072E+04  0.33734076072E+04  0.00000000000E+00 0. -1.
         35    2    1    2    0    0  0.88817841970E-15  0.00000000000E+00 -0.33679856781E+04  0.33788295362E+04  0.27048383782E+03 0.  0.
         25    2    3    3    0    0  0.55344442075E+01 -0.50549031192E+02 -0.18064432868E+04  0.18114738800E+04  0.12495773235E+03 0.  0.
         25    2    3    3    0    0 -0.55344442075E+01  0.50549031192E+02 -0.15615423913E+04  0.15673556562E+04  0.12491308351E+03 0.  0.
          5    1    4    4  502    0  0.15284126229E+01  0.36260470647E+02 -0.93013493593E+03  0.93085457877E+03  0.47000000000E+01 0.  1.
         -5    1    4    4    0  502  0.40060315846E+01 -0.86809501839E+02 -0.87630835088E+03  0.88061930124E+03  0.47000000000E+01 0.  1.
          5    1    5    5  503    0 -0.62881470683E+02  0.10406727146E+02 -0.82989639729E+03  0.83235359046E+03  0.47000000000E+01 0. -1.
         -5    1    5    5    0  503  0.57347026476E+02  0.40142304046E+02 -0.73164599404E+03  0.73500206572E+03  0.47000000000E+01 0. -1.
<mgrwt>
<rscale>  0 0.27048384E+03</rscale>
<asrwt>0</asrwt>
<pdfrwt beam="1">  1        2 0.51898699E+00 0.27048384E+03</pdfrwt>
<pdfrwt beam="2">  1       -2 0.83414100E-03 0.27048384E+03</pdfrwt>
<totfact> 0.34042438E+03</totfact>
</mgrwt>
</event>
<event>
 9    1  0.8093459E-001  0.2741823E+03  0.7818608E-02  0.1098910E+00
         -2   -1    0    0    0  501 -0.00000000000E+00  0.00000000000E+00  0.31930744353E+03  0.31930744353E+03  0.00000000000E+00 0.  1.
          2   -1    0    0  501    0  0.00000000000E+00 -0.00000000000E+00 -0.58858580776E+02  0.58858580776E+02  0.00000000000E+00 0.  1.
         35    2    1    2    0    0  0.35527136788E-14  0.00000000000E+00  0.26044886276E+03  0.37816602431E+03  0.27418229671E+03 0.  0.
         25    2    3    3    0    0 -0.24602610034E+02 -0.38066825600E+02  0.17464099305E+03  0.21938574258E+03  0.12480487154E+03 0.  0.
         25    2    3    3    0    0  0.24602610034E+02  0.38066825600E+02  0.85807869707E+02  0.15878028173E+03  0.12567344880E+03 0.  0.
          5    1    4    4  502    0 -0.16959423721E+02  0.29314923380E+02  0.24695071415E+01  0.34280829209E+02  0.47000000000E+01 0. -1.
         -5    1    4    4    0  502 -0.76431863127E+01 -0.67381748979E+02  0.17217148591E+03  0.18510491337E+03  0.47000000000E+01 0. -1.
          5    1    5    5  503    0 -0.35904678650E+02  0.11990722115E+02  0.84502558558E+02  0.92712975191E+02  0.47000000000E+01 0.  1.
         -5    1    5    5    0  503  0.60507288683E+02  0.26076103485E+02  0.13053111485E+01  0.66067306544E+02  0.47000000000E+01 0.  1.
<mgrwt>
<rscale>  0 0.27418230E+03</rscale>
<asrwt>0</asrwt>
<pdfrwt beam="1">  1        2 0.90551664E-02 0.27418230E+03</pdfrwt>
<pdfrwt beam="2">  1       -2 0.49124221E-01 0.27418230E+03</pdfrwt>
<totfact> 0.28789915E+03</totfact>
</mgrwt>
</event>
<event>
 9    1  0.8093459E-001  0.2737520E+03  0.7818608E-02  0.1099151E+00
          2   -1    0    0  501    0  0.00000000000E+00  0.00000000000E+00  0.63796257731E+03  0.63796257731E+03  0.00000000000E+00 0. -1.
         -2   -1    0    0    0  501 -0.00000000000E+00 -0.00000000000E+00 -0.29366984720E+02  0.29366984720E+02  0.00000000000E+00 0. -1.
         35    2    1    2    0    0  0.00000000000E+00  0.00000000000E+00  0.60859559259E+03  0.66732956203E+03  0.27375198454E+03 0.  0.
         25    2    3    3    0    0  0.34865374204E+02 -0.35025098310E+02  0.36707089536E+03  0.39103111641E+03  0.12538716022E+03 0.  0.
         25    2    3    3    0    0 -0.34865374204E+02  0.35025098310E+02  0.24152469723E+03  0.27629844562E+03  0.12475696314E+03 0.  0.
          5    1    4    4  502    0  0.36212771852E+02 -0.71746041545E+02  0.32568499893E+03  0.33548720967E+03  0.47000000000E+01 0. -1.
         -5    1    4    4    0  502 -0.13473976484E+01  0.36720943234E+02  0.41385896431E+02  0.55543906739E+02  0.47000000000E+01 0. -1.
          5    1    5    5  503    0 -0.21832129293E+02  0.54758136049E+02  0.24491197384E+03  0.25195051154E+03  0.47000000000E+01 0.  1.
         -5    1    5    5    0  503 -0.13033244911E+02 -0.19733037739E+02 -0.33872766133E+01  0.24347934084E+02  0.47000000000E+01 0.  1.
<mgrwt>
<rscale>  0 0.27375198E+03</rscale>
<asrwt>0</asrwt>
<pdfrwt beam="1">  1        2 0.98148078E-01 0.27375198E+03</pdfrwt>
<pdfrwt beam="2">  1       -2 0.45179981E-02 0.27375198E+03</pdfrwt>
<totfact> 0.10671874E+04</totfact>
</mgrwt>
</event>
<event>
 9    1  0.8093459E-001  0.2798925E+03  0.7818608E-02  0.1095748E+00
         -4   -1    0    0    0  501 -0.00000000000E+00  0.00000000000E+00  0.28323634535E+02  0.28323634535E+02  0.00000000000E+00 0.  1.
          4   -1    0    0  501    0  0.00000000000E+00 -0.00000000000E+00 -0.69147020111E+03  0.69147020111E+03  0.00000000000E+00 0.  1.
         35    2    1    2    0    0 -0.10658141036E-13  0.00000000000E+00 -0.66314656657E+03  0.71979383564E+03  0.27989247413E+03 0.  0.
         25    2    3    3    0    0 -0.15298341553E+02 -0.16328092893E+02 -0.47686256861E+03  0.49361980903E+03  0.12554664730E+03 0.  0.
         25    2    3    3    0    0  0.15298341553E+02  0.16328092893E+02 -0.18628399796E+03  0.22617402662E+03  0.12630248037E+03 0.  0.
          5    1    4    4  502    0  0.17131999507E+02 -0.16375279583E+02 -0.10898900246E+02  0.26505305414E+02  0.47000000000E+01 0. -1.
         -5    1    4    4    0  502 -0.32430341059E+02  0.47186689858E-01 -0.46596366837E+03  0.46711450361E+03  0.47000000000E+01 0. -1.
          5    1    5    5  503    0 -0.53551477135E+02  0.10429014918E+01 -0.54074221195E+02  0.76255883345E+02  0.47000000000E+01 0. -1.
         -5    1    5    5    0  503  0.68849818688E+02  0.15285191401E+02 -0.13220977677E+03  0.14991814327E+03  0.47000000000E+01 0. -1.
<mgrwt>
<rscale>  0 0.27989247E+03</rscale>
<asrwt>0</asrwt>
<pdfrwt beam="1">  1        4 0.10638002E+00 0.27989247E+03</pdfrwt>
<pdfrwt beam="2">  1       -4 0.43574826E-02 0.27989247E+03</pdfrwt>
<totfact> 0.41285927E+02</totfact>
</mgrwt>
</event>
<event>
 9    1  0.8093459E-001  0.2744690E+03  0.7818608E-02  0.1098749E+00
         -3   -1    0    0    0  501 -0.00000000000E+00  0.00000000000E+00  0.21021543571E+03  0.21021543571E+03  0.00000000000E+00 0.  1.
          3   -1    0    0  501    0  0.00000000000E+00 -0.00000000000E+00 -0.89590525546E+02  0.89590525546E+02  0.00000000000E+00 0.  1.
         35    2    1    2    0    0  0.00000000000E+00  0.00000000000E+00  0.12062491016E+03  0.29980596126E+03  0.27446902458E+03 0.  0.
         25    2    3    3    0    0  0.24748351113E+02 -0.10932536030E+02  0.61688020834E+01  0.12819752876E+03  0.12515810415E+03 0.  0.
         25    2    3    3    0    0 -0.24748351113E+02  0.10932536030E+02  0.11445610808E+03  0.17160843249E+03  0.12496900495E+03 0.  0.
          5    1    4    4  502    0 -0.37243770548E+01 -0.58737569588E+02  0.31455062622E+02  0.66899058514E+02  0.47000000000E+01 0. -1.
         -5    1    4    4    0  502  0.28472728168E+02  0.47805033558E+02 -0.25286260538E+02  0.61298470249E+02  0.47000000000E+01 0. -1.
          5    1    5    5  503    0  0.35057893149E+02 -0.21794066950E+02  0.89825469951E+02  0.98968390298E+02  0.47000000000E+01 0. -1.
         -5    1    5    5    0  503 -0.59806244262E+02  0.32726602980E+02  0.24630638129E+02  0.72640042195E+02  0.47000000000E+01 0. -1.
<mgrwt>
<rscale>  0 0.27446902E+03</rscale>
<asrwt>0</asrwt>
<pdfrwt beam="1">  1        3 0.13783158E-01 0.27446902E+03</pdfrwt>
<pdfrwt beam="2">  1       -3 0.32340836E-01 0.27446902E+03</pdfrwt>
<totfact> 0.10178015E+03</totfact>
</mgrwt>
</event>
<event>
 9    1  0.8093459E-001  0.2761920E+03  0.7818608E-02  0.1097787E+00
          1   -1    0    0  501    0  0.00000000000E+00  0.00000000000E+00  0.52295094571E+03  0.52295094571E+03  0.00000000000E+00 0.  1.
         -1   -1    0    0    0  501 -0.00000000000E+00 -0.00000000000E+00 -0.36467105385E+02  0.36467105385E+02  0.00000000000E+00 0.  1.
         35    2    1    2    0    0  0.00000000000E+00  0.17763568394E-14  0.48648384033E+03  0.55941805110E+03  0.27619201472E+03 0.  0.
         25    2    3    3    0    0  0.55625042543E+02  0.15060020750E+02  0.27104832903E+03  0.30386856831E+03  0.12469146141E+03 0.  0.
         25    2    3    3    0    0 -0.55625042543E+02 -0.15060020750E+02  0.21543551129E+03  0.25554948279E+03  0.12478833698E+03 0.  0.
          5    1    4    4  502    0 -0.10910204740E+01  0.29042145619E+02  0.31188115003E+01  0.29604957912E+02  0.47000000000E+01 0. -1.
         -5    1    4    4    0  502  0.56716063017E+02 -0.13982124869E+02  0.26792951753E+03  0.27426361039E+03  0.47000000000E+01 0. -1.
          5    1    5    5  503    0  0.84626961178E+01 -0.23955507937E+02  0.17957656861E+03  0.18142579084E+03  0.47000000000E+01 0.  1.
         -5    1    5    5    0  503 -0.64087738660E+02  0.88954871873E+01  0.35858942682E+02  0.74123691956E+02  0.47000000000E+01 0.  1.
<mgrwt>
<rscale>  0 0.27619201E+03</rscale>
<asrwt>0</asrwt>
<pdfrwt beam="1">  1        1 0.80453986E-01 0.27619201E+03</pdfrwt>
<pdfrwt beam="2">  1       -1 0.56103243E-02 0.27619201E+03</pdfrwt>
<totfact> 0.62600710E+03</totfact>
</mgrwt>
</event>
<event>
 9    1  0.8093459E-001  0.2758265E+03  0.7818608E-02  0.1097991E+00
         -2   -1    0    0    0  501 -0.00000000000E+00  0.00000000000E+00  0.25312938728E+02  0.25312938728E+02  0.00000000000E+00 0.  1.
          2   -1    0    0  501    0  0.00000000000E+00 -0.00000000000E+00 -0.75139688682E+03  0.75139688682E+03  0.00000000000E+00 0.  1.
         35    2    1    2    0    0 -0.17763568394E-14 -0.71054273576E-14 -0.72608394809E+03  0.77670982555E+03  0.27582649152E+03 0.  0.
         25    2    3    3    0    0 -0.99510861802E+01 -0.25955016183E+02 -0.49525955750E+03  0.51260386919E+03  0.12925946942E+03 0.  0.
         25    2    3    3    0    0  0.99510861802E+01  0.25955016183E+02 -0.23082439060E+03  0.26410595636E+03  0.12529712650E+03 0.  0.
          5    1    4    4  502    0 -0.27458539845E+01 -0.60147259747E+02 -0.10797010831E+03  0.12371284031E+03  0.47000000000E+01 0.  1.
         -5    1    4    4    0  502 -0.72052321958E+01  0.34192243564E+02 -0.38728944918E+03  0.38889102887E+03  0.47000000000E+01 0.  1.
          5    1    5    5  503    0  0.20223611843E+01 -0.48522961486E+02 -0.12658008854E+03  0.13565830808E+03  0.47000000000E+01 0. -1.
         -5    1    5    5    0  503  0.79287249959E+01  0.74477977669E+02 -0.10424430205E+03  0.12844764828E+03  0.47000000000E+01 0. -1.
<mgrwt>
<rscale>  0 0.27582649E+03</rscale>
<asrwt>0</asrwt>
<pdfrwt beam="1">  1        2 0.11559954E+00 0.27582649E+03</pdfrwt>
<pdfrwt beam="2">  1       -2 0.38942977E-02 0.27582649E+03</pdfrwt>
<totfact> 0.10954786E+04</totfact>
</mgrwt>
</event>
<event>
 9    1  0.8093459E-001  0.2752141E+03  0.7818608E-02  0.1098332E+00
         -1   -1    0    0    0  501 -0.00000000000E+00  0.00000000000E+00  0.36186906163E+02  0.36186906163E+02  0.00000000000E+00 0. -1.
          1   -1    0    0  501    0  0.00000000000E+00 -0.00000000000E+00 -0.52327509996E+03  0.52327509996E+03  0.00000000000E+00 0. -1.
         35    2    1    2    0    0  0.35527136788E-14  0.00000000000E+00 -0.48708819380E+03  0.55946200612E+03  0.27521414891E+03 0.  0.
         25    2    3    3    0    0 -0.26860741184E+02  0.45140781824E+02 -0.28869422087E+03  0.31871165663E+03  0.12439283465E+03 0.  0.
         25    2    3    3    0    0  0.26860741184E+02 -0.45140781824E+02 -0.19839397293E+03  0.24075034949E+03  0.12586251501E+03 0.  0.
          5    1    4    4  502    0  0.34043834361E+02 -0.14891984271E+02 -0.15855058679E+03  0.16291449421E+03  0.47000000000E+01 0. -1.
         -5    1    4    4    0  502 -0.60904575544E+02  0.60032766094E+02 -0.13014363408E+03  0.15579716242E+03  0.47000000000E+01 0. -1.
          5    1    5    5  503    0  0.58356053668E+02 -0.61677923016E+02 -0.18282744597E+03  0.20163719942E+03  0.47000000000E+01 0.  1.
         -5    1    5    5    0  503 -0.31495312485E+02  0.16537141192E+02 -0.15566526958E+02  0.39113150076E+02  0.47000000000E+01 0.  1.
<mgrwt>
<rscale>  0 0.27521415E+03</rscale>
<asrwt>0</asrwt>
<pdfrwt beam="1">  1        1 0.80503865E-01 0.27521415E+03</pdfrwt>
<pdfrwt beam="2">  1       -1 0.55672161E-02 0.27521415E+03</pdfrwt>
<totfact> 0.63271896E+03</totfact>
</mgrwt>
</event>
<event>
 9    1  0.8093459E-001  0.2724028E+03  0.7818608E-02  0.1099912E+00
          1   -1    0    0  501    0  0.00000000000E+00  0.00000000000E+00  0.46513493154E+02  0.46513493154E+02  0.00000000000E+00 0.  1.
         -1   -1    0    0    0  501 -0.00000000000E+00 -0.00000000000E+00 -0.39882676502E+03  0.39882676502E+03  0.00000000000E+00 0.  1.
         35    2    1    2    0    0 -0.14210854715E-13  0.35527136788E-14 -0.35231327187E+03  0.44534025818E+03  0.27240283409E+03 0.  0.
         25    2    3    3    0    0 -0.37753188758E+02  0.21931603001E+02 -0.23462739255E+03  0.26861985960E+03  0.12328956632E+03 0.  0.
         25    2    3    3    0    0  0.37753188758E+02 -0.21931603001E+02 -0.11768587932E+03  0.17672039858E+03  0.12439386887E+03 0.  0.
          5    1    4    4  502    0  0.21410888633E+02 -0.36362264722E+02 -0.11765533534E+03  0.12508200663E+03  0.47000000000E+01 0.  1.
         -5    1    4    4    0  502 -0.59164077390E+02  0.58293867723E+02 -0.11697205721E+03  0.14353785297E+03  0.47000000000E+01 0.  1.
          5    1    5    5  503    0 -0.17602521843E+02  0.26032078988E+02 -0.94579040382E+02  0.99773758029E+02  0.47000000000E+01 0.  1.
         -5    1    5    5    0  503  0.55355710601E+02 -0.47963681989E+02 -0.23106838934E+02  0.76946640548E+02  0.47000000000E+01 0.  1.
<mgrwt>
<rscale>  0 0.27240283E+03</rscale>
<asrwt>0</asrwt>
<pdfrwt beam="1">  1        1 0.71559222E-02 0.27240283E+03</pdfrwt>
<pdfrwt beam="2">  1       -1 0.61357963E-01 0.27240283E+03</pdfrwt>
<totfact> 0.28100649E+03</totfact>
</mgrwt>
</event>
<event>
 9    1  0.8093459E-001  0.2735709E+03  0.7818608E-02  0.1099253E+00
         -1   -1    0    0    0  501 -0.00000000000E+00  0.00000000000E+00  0.33415820500E+02  0.33415820500E+02  0.00000000000E+00 0. -1.
          1   -1    0    0  501    0  0.00000000000E+00 -0.00000000000E+00 -0.55992199006E+03  0.55992199006E+03  0.00000000000E+00 0. -1.
         35    2    1    2    0    0  0.71054273576E-14 -0.14210854715E-13 -0.52650616956E+03  0.59333781056E+03  0.27357085162E+03 0.  0.
         25    2    3    3    0    0 -0.22307560502E+02  0.50101468124E+02 -0.23104538302E+03  0.26806618054E+03  0.12437734428E+03 0.  0.
         25    2    3    3    0    0  0.22307560502E+02 -0.50101468124E+02 -0.29546078654E+03  0.32527163002E+03  0.12448603355E+03 0.  0.
          5    1    4    4  502    0  0.22944774003E+02 -0.78285697864E+00  0.35867608555E+01  0.23707179768E+02  0.47000000000E+01 0.  1.
         -5    1    4    4    0  502 -0.45252334505E+02  0.50884325103E+02 -0.23463214388E+03  0.24435900077E+03  0.47000000000E+01 0.  1.
          5    1    5    5  503    0  0.69161567731E+02 -0.44393559489E+02 -0.23107683157E+03  0.24530124880E+03  0.47000000000E+01 0. -1.
         -5    1    5    5    0  503 -0.46854007229E+02 -0.57079086353E+01 -0.64383954967E+02  0.79970381214E+02  0.47000000000E+01 0. -1.
<mgrwt>
<rscale>  0 0.27357085E+03</rscale>
<asrwt>0</asrwt>
<pdfrwt beam="1">  1        1 0.86141846E-01 0.27357085E+03</pdfrwt>
<pdfrwt beam="2">  1       -1 0.51408954E-02 0.27357085E+03</pdfrwt>
<totfact> 0.65063660E+03</totfact>
</mgrwt>
</event>
<event>
 9    1  0.8093459E-001  0.2668165E+03  0.7818608E-02  0.1103116E+00
          2   -1    0    0  501    0  0.00000000000E+00  0.00000000000E+00  0.39272296419E+02  0.39272296419E+02  0.00000000000E+00 0. -1.
         -2   -1    0    0    0  501 -0.00000000000E+00 -0.00000000000E+00 -0.45318868306E+03  0.45318868306E+03  0.00000000000E+00 0. -1.
         35    2    1    2    0    0  0.00000000000E+00 -0.71054273576E-14 -0.41391638664E+03  0.49246097948E+03  0.26681649346E+03 0.  0.
         25    2    3    3    0    0 -0.11416278945E+02  0.38926970320E+02 -0.15781663889E+03  0.20530338503E+03  0.12489094423E+03 0.  0.
         25    2    3    3    0    0  0.11416278945E+02 -0.38926970320E+02 -0.25609974775E+03  0.28715759445E+03  0.12339676985E+03 0.  0.
          5    1    4    4  502    0  0.45999429677E+02  0.51200048119E+02 -0.10803377097E+03  0.12818259682E+03  0.47000000000E+01 0.  1.
         -5    1    4    4    0  502 -0.57415708622E+02 -0.12273077799E+02 -0.49782867919E+02  0.77120788206E+02  0.47000000000E+01 0.  1.
          5    1    5    5  503    0  0.12103365301E+02 -0.56883386328E+02 -0.26140767128E+03  0.26784001138E+03  0.47000000000E+01 0.  1.
         -5    1    5    5    0  503 -0.68708635560E+00  0.17956416008E+02  0.53079235290E+01  0.19317583071E+02  0.47000000000E+01 0.  1.
<mgrwt>
<rscale>  0 0.26681649E+03</rscale>
<asrwt>0</asrwt>
<pdfrwt beam="1">  1        2 0.60418922E-02 0.26681649E+03</pdfrwt>
<pdfrwt beam="2">  1       -2 0.69721330E-01 0.26681649E+03</pdfrwt>
<totfact> 0.23460851E+03</totfact>
</mgrwt>
</event>
<event>
 9    1  0.8093459E-001  0.2670090E+03  0.7818608E-02  0.1103004E+00
          2   -1    0    0  501    0  0.00000000000E+00  0.00000000000E+00  0.85079091133E+02  0.85079091133E+02  0.00000000000E+00 0.  1.
         -2   -1    0    0    0  501 -0.00000000000E+00 -0.00000000000E+00 -0.20949272779E+03  0.20949272779E+03  0.00000000000E+00 0.  1.
         35    2    1    2    0    0  0.00000000000E+00 -0.71054273576E-14 -0.12441363666E+03  0.29457181893E+03  0.26700899520E+03 0.  0.
         25    2    3    3    0    0 -0.29663619953E+02 -0.32652680014E+02 -0.73697606637E+02  0.15154644230E+03  0.12485535267E+03 0.  0.
         25    2    3    3    0    0  0.29663619953E+02  0.32652680014E+02 -0.50716030024E+02  0.14302537663E+03  0.12624585061E+03 0.  0.
          5    1    4    4  502    0  0.24592950079E+02  0.63156749907E+00 -0.83316900183E+02  0.87000045558E+02  0.47000000000E+01 0. -1.
         -5    1    4    4    0  502 -0.54256570032E+02 -0.33284247513E+02  0.96192935453E+01  0.64546396743E+02  0.47000000000E+01 0. -1.
          5    1    5    5  503    0  0.38660611790E+02 -0.39289346804E+02 -0.42792766686E+02  0.69940021139E+02  0.47000000000E+01 0. -1.
         -5    1    5    5    0  503 -0.89969918374E+01  0.71942026818E+02 -0.79232633384E+01  0.73085355487E+02  0.47000000000E+01 0. -1.
<mgrwt>
<rscale>  0 0.26700900E+03</rscale>
<asrwt>0</asrwt>
<pdfrwt beam="1">  1        2 0.13089091E-01 0.26700900E+03</pdfrwt>
<pdfrwt beam="2">  1       -2 0.32229650E-01 0.26700900E+03</pdfrwt>
<totfact> 0.40877832E+03</totfact>
</mgrwt>
</event>
<event>
 9    1  0.8093459E-001  0.2791063E+03  0.7818608E-02  0.1096178E+00
         -2   -1    0    0    0  501 -0.00000000000E+00  0.00000000000E+00  0.26148120226E+02  0.26148120226E+02  0.00000000000E+00 0.  1.
          2   -1    0    0  501    0  0.00000000000E+00 -0.00000000000E+00 -0.74479836145E+03  0.74479836145E+03  0.00000000000E+00 0.  1.
         35    2    1    2    0    0  0.00000000000E+00  0.00000000000E+00 -0.71865024123E+03  0.77094648168E+03  0.27910626721E+03 0.  0.
         25    2    3    3    0    0 -0.46946616987E+02 -0.33055535563E+02 -0.45237116545E+03  0.47263125780E+03  0.12427381561E+03 0.  0.
         25    2    3    3    0    0  0.46946616987E+02  0.33055535563E+02 -0.26627907578E+03  0.29831522388E+03  0.12161732327E+03 0.  0.
          5    1    4    4  502    0 -0.80543934205E+02 -0.53882695289E+02 -0.32750612813E+03  0.34157433181E+03  0.47000000000E+01 0.  1.
         -5    1    4    4    0  502  0.33597317219E+02  0.20827159726E+02 -0.12486503732E+03  0.13105692599E+03  0.47000000000E+01 0.  1.
          5    1    5    5  503    0 -0.41261572232E+02  0.12397061037E+02 -0.97586055042E+02  0.10677702283E+03  0.47000000000E+01 0.  1.
         -5    1    5    5    0  503  0.88208189218E+02  0.20658474527E+02 -0.16869302074E+03  0.19153820105E+03  0.47000000000E+01 0.  1.
<mgrwt>
<rscale>  0 0.27910627E+03</rscale>
<asrwt>0</asrwt>
<pdfrwt beam="1">  1        2 0.11458436E+00 0.27910627E+03</pdfrwt>
<pdfrwt beam="2">  1       -2 0.40227880E-02 0.27910627E+03</pdfrwt>
<totfact> 0.10552108E+04</totfact>
</mgrwt>
</event>
<event>
 9    1  0.8093459E-001  0.2746731E+03  0.7818608E-02  0.1098634E+00
          2   -1    0    0  501    0  0.00000000000E+00  0.00000000000E+00  0.93447434137E+03  0.93447434137E+03  0.00000000000E+00 0.  1.
         -2   -1    0    0    0  501 -0.00000000000E+00 -0.00000000000E+00 -0.20183890255E+02  0.20183890255E+02  0.00000000000E+00 0.  1.
         35    2    1    2    0    0  0.00000000000E+00  0.71054273576E-14  0.91429045112E+03  0.95465823163E+03  0.27467309699E+03 0.  0.
         25    2    3    3    0    0 -0.10906647126E+02 -0.51497814514E+02  0.52842679122E+03  0.54552628432E+03  0.12487222808E+03 0.  0.
         25    2    3    3    0    0  0.10906647126E+02  0.51497814514E+02  0.38586365989E+03  0.40913194731E+03  0.12540815936E+03 0.  0.
          5    1    4    4  502    0  0.33943062846E+02  0.25352852674E+02  0.11600373573E+03  0.12358744013E+03  0.47000000000E+01 0. -1.
         -5    1    4    4    0  502 -0.44849709972E+02 -0.76850667188E+02  0.41242305549E+03  0.42193884419E+03  0.47000000000E+01 0. -1.
          5    1    5    5  503    0 -0.16568931021E+02 -0.38072516594E+02  0.13409564723E+03  0.14045561079E+03  0.47000000000E+01 0.  1.
         -5    1    5    5    0  503  0.27475578147E+02  0.89570331108E+02  0.25176801266E+03  0.26867633653E+03  0.47000000000E+01 0.  1.
<mgrwt>
<rscale>  0 0.27467310E+03</rscale>
<asrwt>0</asrwt>
<pdfrwt beam="1">  1        2 0.14376525E+00 0.27467310E+03</pdfrwt>
<pdfrwt beam="2">  1       -2 0.31052146E-02 0.27467310E+03</pdfrwt>
<totfact> 0.11578221E+04</totfact>
</mgrwt>
</event>
<event>
 9    1  0.8093459E-001  0.2761949E+03  0.7818608E-02  0.1097786E+00
          1   -1    0    0  501    0  0.00000000000E+00  0.00000000000E+00  0.13844012623E+03  0.13844012623E+03  0.00000000000E+00 0.  1.
         -1   -1    0    0    0  501 -0.00000000000E+00 -0.00000000000E+00 -0.13775560693E+03  0.13775560693E+03  0.00000000000E+00 0.  1.
         35    2    1    2    0    0  0.00000000000E+00 -0.71054273576E-14  0.68451929787E+00  0.27619573316E+03  0.27619488491E+03 0.  0.
         25    2    3    3    0    0 -0.56160564869E+01 -0.52203576769E+02 -0.24826340384E+02  0.13799905062E+03  0.12518241600E+03 0.  0.
         25    2    3    3    0    0  0.56160564869E+01  0.52203576769E+02  0.25510859682E+02  0.13819668254E+03  0.12526278612E+03 0.  0.
          5    1    4    4  502    0  0.50346862135E+02 -0.14222392088E+02  0.20564233608E+02  0.56409756846E+02  0.47000000000E+01 0. -1.
         -5    1    4    4    0  502 -0.55962918622E+02 -0.37981184681E+02 -0.45390573992E+02  0.81589293769E+02  0.47000000000E+01 0. -1.
          5    1    5    5  503    0  0.63274011358E+02  0.14767407864E+02  0.12866453112E+01  0.65156905271E+02  0.47000000000E+01 0. -1.
         -5    1    5    5    0  503 -0.57657954871E+02  0.37436168905E+02  0.24224214371E+02  0.73039777273E+02  0.47000000000E+01 0. -1.
<mgrwt>
<rscale>  0 0.27619488E+03</rscale>
<asrwt>0</asrwt>
<pdfrwt beam="1">  1        1 0.21298481E-01 0.27619488E+03</pdfrwt>
<pdfrwt beam="2">  1       -1 0.21193170E-01 0.27619488E+03</pdfrwt>
<totfact> 0.42873764E+03</totfact>
</mgrwt>
</event>
<event>
 9    1  0.8093459E-001  0.2744031E+03  0.7818608E-02  0.1098786E+00
          4   -1    0    0  501    0  0.00000000000E+00  0.00000000000E+00  0.29412057669E+03  0.29412057669E+03  0.00000000000E+00 0.  1.
         -4   -1    0    0    0  501 -0.00000000000E+00 -0.00000000000E+00 -0.64001857295E+02  0.64001857295E+02  0.00000000000E+00 0.  1.
         35    2    1    2    0    0  0.17763568394E-14  0.71054273576E-14  0.23011871940E+03  0.35812243399E+03  0.27440308436E+03 0.  0.
         25    2    3    3    0    0  0.10472814952E+02  0.53841435811E+02  0.13056266835E+03  0.18946824454E+03  0.12586907984E+03 0.  0.
         25    2    3    3    0    0 -0.10472814952E+02 -0.53841435811E+02  0.99556051047E+02  0.16865418945E+03  0.12459634126E+03 0.  0.
          5    1    4    4  502    0  0.16047101586E+02  0.50669946066E+02 -0.50742966223E+01  0.53598427121E+02  0.47000000000E+01 0. -1.
         -5    1    4    4    0  502 -0.55742866338E+01  0.31714897445E+01  0.13563696497E+03  0.13586981742E+03  0.47000000000E+01 0. -1.
          5    1    5    5  503    0 -0.67181393246E+02 -0.21814256772E+02  0.54020886909E+02  0.89048007386E+02  0.47000000000E+01 0.  1.
         -5    1    5    5    0  503  0.56708578294E+02 -0.32027179039E+02  0.45535164138E+02  0.79606182061E+02  0.47000000000E+01 0.  1.
<mgrwt>
<rscale>  0 0.27440308E+03</rscale>
<asrwt>0</asrwt>
<pdfrwt beam="1">  1        4 0.45249319E-01 0.27440308E+03</pdfrwt>
<pdfrwt beam="2">  1       -4 0.98464397E-02 0.27440308E+03</pdfrwt>
<totfact> 0.69385863E+02</totfact>
</mgrwt>
</event>
<event>
 9    1  0.8093459E-001  0.2768983E+03  0.7818608E-02  0.1097395E+00
         -2   -1    0    0    0  501 -0.00000000000E+00  0.00000000000E+00  0.69822387150E+02  0.69822387150E+02  0.00000000000E+00 0.  1.
          2   -1    0    0  501    0  0.00000000000E+00 -0.00000000000E+00 -0.27452746910E+03  0.27452746910E+03  0.00000000000E+00 0.  1.
         35    2    1    2    0    0  0.71054273576E-14  0.00000000000E+00 -0.20470508195E+03  0.34434985625E+03  0.27689827180E+03 0.  0.
         25    2    3    3    0    0  0.47550130347E+02  0.36136520027E+02 -0.10418356471E+03  0.17296674888E+03  0.12448460983E+03 0.  0.
         25    2    3    3    0    0 -0.47550130347E+02 -0.36136520027E+02 -0.10052151724E+03  0.17138310737E+03  0.12530255819E+03 0.  0.
          5    1    4    4  502    0  0.23984340730E+02 -0.44629900393E+02 -0.22594707699E+02  0.55674836554E+02  0.47000000000E+01 0. -1.
         -5    1    4    4    0  502  0.23565789617E+02  0.80766420420E+02 -0.81588857014E+02  0.11729191232E+03  0.47000000000E+01 0. -1.
          5    1    5    5  503    0 -0.33089773008E+02  0.41407800426E+02 -0.66962640753E+02  0.85531422709E+02  0.47000000000E+01 0.  1.
         -5    1    5    5    0  503 -0.14460357338E+02 -0.77544320453E+02 -0.33558876486E+02  0.85851684665E+02  0.47000000000E+01 0.  1.
<mgrwt>
<rscale>  0 0.27689827E+03</rscale>
<asrwt>0</asrwt>
<pdfrwt beam="1">  1        2 0.42234996E-01 0.27689827E+03</pdfrwt>
<pdfrwt beam="2">  1       -2 0.10741906E-01 0.27689827E+03</pdfrwt>
<totfact> 0.70724645E+03</totfact>
</mgrwt>
</event>
<event>
 9    1  0.8093459E-001  0.2755434E+03  0.7818608E-02  0.1098148E+00
         -2   -1    0    0    0  501 -0.00000000000E+00  0.00000000000E+00  0.13529579554E+02  0.13529579554E+02  0.00000000000E+00 0. -1.
          2   -1    0    0  501    0  0.00000000000E+00 -0.00000000000E+00 -0.14029290182E+04  0.14029290182E+04  0.00000000000E+00 0. -1.
         35    2    1    2    0    0  0.14210854715E-13  0.00000000000E+00 -0.13893994386E+04  0.14164585977E+04  0.27554338867E+03 0.  0.
         25    2    3    3    0    0  0.36638394975E+02 -0.25887847052E+01 -0.89121613563E+03  0.90132974943E+03  0.12953780533E+03 0.  0.
         25    2    3    3    0    0 -0.36638394975E+02  0.25887847052E+01 -0.49818330298E+03  0.51512884829E+03  0.12578574314E+03 0.  0.
          5    1    4    4  502    0  0.64022675148E+02 -0.53639772118E+01 -0.21274000310E+03  0.22227927052E+03  0.47000000000E+01 0.  1.
         -5    1    4    4    0  502 -0.27384280173E+02  0.27751925065E+01 -0.67847613253E+03  0.67905047891E+03  0.47000000000E+01 0.  1.
          5    1    5    5  503    0 -0.80324168606E+02 -0.10808793532E+02 -0.25387569553E+03  0.26654035503E+03  0.47000000000E+01 0. -1.
         -5    1    5    5    0  503  0.43685773631E+02  0.13397578237E+02 -0.24430760745E+03  0.24858849326E+03  0.47000000000E+01 0. -1.
<mgrwt>
<rscale>  0 0.27554339E+03</rscale>
<asrwt>0</asrwt>
<pdfrwt beam="1">  1        2 0.21583513E+00 0.27554339E+03</pdfrwt>
<pdfrwt beam="2">  1       -2 0.20814747E-02 0.27554339E+03</pdfrwt>
<totfact> 0.11219760E+04</totfact>
</mgrwt>
</event>
<event>
 9    1  0.8093459E-001  0.2741307E+03  0.7818608E-02  0.1098938E+00
         -2   -1    0    0    0  501 -0.00000000000E+00  0.00000000000E+00  0.27031414801E+03  0.27031414801E+03  0.00000000000E+00 0. -1.
          2   -1    0    0  501    0  0.00000000000E+00 -0.00000000000E+00 -0.69500295832E+02  0.69500295832E+02  0.00000000000E+00 0. -1.
         35    2    1    2    0    0 -0.71054273576E-14  0.00000000000E+00  0.20081385218E+03  0.33981444384E+03  0.27413072250E+03 0.  0.
         25    2    3    3    0    0  0.23165620834E+02 -0.25210319131E+02  0.15622718371E+03  0.20202382266E+03  0.12342805926E+03 0.  0.
         25    2    3    3    0    0 -0.23165620834E+02  0.25210319131E+02  0.44586668472E+02  0.13779062119E+03  0.12580174125E+03 0.  0.
          5    1    4    4  502    0  0.51974832861E+02 -0.23319851829E+02  0.16823882628E+02  0.59584660500E+02  0.47000000000E+01 0. -1.
         -5    1    4    4    0  502 -0.28809212027E+02 -0.18904673015E+01  0.13940330108E+03  0.14243916216E+03  0.47000000000E+01 0. -1.
          5    1    5    5  503    0  0.16882513497E+02  0.23831720156E+02 -0.36642734385E+02  0.47092994498E+02  0.47000000000E+01 0. -1.
         -5    1    5    5    0  503 -0.40048134330E+02  0.13785989746E+01  0.81229402857E+02  0.90697626689E+02  0.47000000000E+01 0. -1.
<mgrwt>
<rscale>  0 0.27413072E+03</rscale>
<asrwt>0</asrwt>
<pdfrwt beam="1">  1        2 0.10692353E-01 0.27413072E+03</pdfrwt>
<pdfrwt beam="2">  1       -2 0.41586791E-01 0.27413072E+03</pdfrwt>
<totfact> 0.32424935E+03</totfact>
</mgrwt>
</event>
<event>
 9    1  0.8093459E-001  0.2822517E+03  0.7818608E-02  0.1094465E+00
          1   -1    0    0  501    0  0.00000000000E+00  0.00000000000E+00  0.14134212788E+02  0.14134212788E+02  0.00000000000E+00 0. -1.
         -1   -1    0    0    0  501 -0.00000000000E+00 -0.00000000000E+00 -0.14090988405E+04  0.14090988405E+04  0.00000000000E+00 0. -1.
         35    2    1    2    0    0  0.00000000000E+00 -0.14210854715E-13 -0.13949646277E+04  0.14232330533E+04  0.28225168095E+03 0.  0.
         25    2    3    3    0    0 -0.43595655699E+02 -0.43788276386E+02 -0.79662276724E+03  0.80861299380E+03  0.12421411396E+03 0.  0.
         25    2    3    3    0    0  0.43595655699E+02  0.43788276386E+02 -0.59834186044E+03  0.61462005946E+03  0.12620158949E+03 0.  0.
          5    1    4    4  502    0 -0.10018453079E+02 -0.57576053561E+02 -0.15144396120E+03  0.16239684335E+03  0.47000000000E+01 0. -1.
         -5    1    4    4    0  502 -0.33577202620E+02  0.13787777175E+02 -0.64517880604E+03  0.64621615045E+03  0.47000000000E+01 0. -1.
          5    1    5    5  503    0  0.30804777654E+02  0.63629025052E+02 -0.58012117144E+03  0.58443156204E+03  0.47000000000E+01 0.  1.
         -5    1    5    5    0  503  0.12790878045E+02 -0.19840748666E+02 -0.18220688999E+02  0.30188497419E+02  0.47000000000E+01 0.  1.
<mgrwt>
<rscale>  0 0.28225168E+03</rscale>
<asrwt>0</asrwt>
<pdfrwt beam="1">  1        1 0.21744937E-02 0.28225168E+03</pdfrwt>
<pdfrwt beam="2">  1       -1 0.21678450E+00 0.28225168E+03</pdfrwt>
<totfact> 0.69536678E+02</totfact>
</mgrwt>
</event>
<event>
 9    1  0.8093459E-001  0.2760485E+03  0.7818608E-02  0.1097867E+00
          2   -1    0    0  501    0  0.00000000000E+00  0.00000000000E+00  0.84619388099E+03  0.84619388099E+03  0.00000000000E+00 0.  1.
         -2   -1    0    0    0  501 -0.00000000000E+00 -0.00000000000E+00 -0.22513384302E+02  0.22513384302E+02  0.00000000000E+00 0.  1.
         35    2    1    2    0    0  0.00000000000E+00 -0.35527136788E-14  0.82368049668E+03  0.86870726529E+03  0.27604845978E+03 0.  0.
         25    2    3    3    0    0 -0.52911800414E+02  0.12794767414E+02  0.34441688966E+03  0.37030253184E+03  0.12464993584E+03 0.  0.
         25    2    3    3    0    0  0.52911800414E+02 -0.12794767414E+02  0.47926360702E+03  0.49840473345E+03  0.12550023352E+03 0.  0.
          5    1    4    4  502    0 -0.58018102013E+02  0.62745642709E+02  0.21700300611E+03  0.23327132378E+03  0.47000000000E+01 0. -1.
         -5    1    4    4    0  502  0.51063015991E+01 -0.49950875295E+02  0.12741388355E+03  0.13703120806E+03  0.47000000000E+01 0. -1.
          5    1    5    5  503    0  0.33935521613E+02  0.19246854341E+02  0.44753367012E+03  0.44925553633E+03  0.47000000000E+01 0.  1.
         -5    1    5    5    0  503  0.18976278801E+02 -0.32041621755E+02  0.31729936898E+02  0.49149197119E+02  0.47000000000E+01 0.  1.
<mgrwt>
<rscale>  0 0.27604846E+03</rscale>
<asrwt>0</asrwt>
<pdfrwt beam="1">  1        2 0.13018365E+00 0.27604846E+03</pdfrwt>
<pdfrwt beam="2">  1       -2 0.34635982E-02 0.27604846E+03</pdfrwt>
<totfact> 0.11227832E+04</totfact>
</mgrwt>
</event>
<event>
 9    1  0.8093459E-001  0.2728149E+03  0.7818608E-02  0.1099679E+00
          1   -1    0    0  501    0  0.00000000000E+00  0.00000000000E+00  0.29406192131E+03  0.29406192131E+03  0.00000000000E+00 0. -1.
         -1   -1    0    0    0  501 -0.00000000000E+00 -0.00000000000E+00 -0.63275773276E+02  0.63275773276E+02  0.00000000000E+00 0. -1.
         35    2    1    2    0    0  0.71054273576E-14 -0.35527136788E-14  0.23078614804E+03  0.35733769459E+03  0.27281492233E+03 0.  0.
         25    2    3    3    0    0 -0.34862112986E+02  0.18050437985E+02  0.66207784544E+02  0.14710274496E+03  0.12535773453E+03 0.  0.
         25    2    3    3    0    0  0.34862112986E+02 -0.18050437985E+02  0.16457836349E+03  0.21023494963E+03  0.12478586091E+03 0.  0.
          5    1    4    4  502    0  0.35465205880E+02 -0.27165876751E+02  0.93495951181E+01  0.45883228054E+02  0.47000000000E+01 0.  1.
         -5    1    4    4    0  502 -0.70327318866E+02  0.45216314736E+02  0.56858189426E+02  0.10121951690E+03  0.47000000000E+01 0.  1.
          5    1    5    5  503    0  0.78549456608E+02  0.56505083945E+01  0.82381846618E+02  0.11406491148E+03  0.47000000000E+01 0.  1.
         -5    1    5    5    0  503 -0.43687343622E+02 -0.23700946379E+02  0.82196516873E+02  0.96170038152E+02  0.47000000000E+01 0.  1.
<mgrwt>
<rscale>  0 0.27281492E+03</rscale>
<asrwt>0</asrwt>
<pdfrwt beam="1">  1        1 0.45240295E-01 0.27281492E+03</pdfrwt>
<pdfrwt beam="2">  1       -1 0.97347345E-02 0.27281492E+03</pdfrwt>
<totfact> 0.56717641E+03</totfact>
</mgrwt>
</event>
<event>
 9    1  0.8093459E-001  0.2748540E+03  0.7818608E-02  0.1098533E+00
          2   -1    0    0  501    0  0.00000000000E+00  0.00000000000E+00  0.71846526892E+01  0.71846526892E+01  0.00000000000E+00 0.  1.
         -2   -1    0    0    0  501 -0.00000000000E+00 -0.00000000000E+00 -0.26286839927E+04  0.26286839927E+04  0.00000000000E+00 0.  1.
         35    2    1    2    0    0 -0.53290705182E-14  0.00000000000E+00 -0.26214993400E+04  0.26358686454E+04  0.27485400865E+03 0.  0.
         25    2    3    3    0    0  0.14593435319E+02 -0.52107201330E+02 -0.14895521945E+04  0.14957539185E+04  0.12484356517E+03 0.  0.
         25    2    3    3    0    0 -0.14593435319E+02  0.52107201330E+02 -0.11319471455E+04  0.11401147269E+04  0.12501648479E+03 0.  0.
          5    1    4    4  502    0  0.67814752255E+02 -0.11953243580E+02 -0.71511037019E+03  0.71843347097E+03  0.47000000000E+01 0.  1.
         -5    1    4    4    0  502 -0.53221316935E+02 -0.40153957750E+02 -0.77444182429E+03  0.77732044751E+03  0.47000000000E+01 0.  1.
          5    1    5    5  503    0 -0.36262232698E+01  0.12512411302E+02 -0.10300880526E+04  0.10301811472E+04  0.47000000000E+01 0. -1.
         -5    1    5    5    0  503 -0.10967212050E+02  0.39594790028E+02 -0.10185909297E+03  0.10993357976E+03  0.47000000000E+01 0. -1.
<mgrwt>
<rscale>  0 0.27485401E+03</rscale>
<asrwt>0</asrwt>
<pdfrwt beam="1">  1        2 0.11053300E-02 0.27485401E+03</pdfrwt>
<pdfrwt beam="2">  1       -2 0.40441337E+00 0.27485401E+03</pdfrwt>
<totfact> 0.10600255E+02</totfact>
</mgrwt>
</event>
<event>
 9    1  0.8093459E-001  0.2680849E+03  0.7818608E-02  0.1102381E+00
         -1   -1    0    0    0  501 -0.00000000000E+00  0.00000000000E+00  0.68573237602E+03  0.68573237602E+03  0.00000000000E+00 0.  1.
          1   -1    0    0  501    0  0.00000000000E+00 -0.00000000000E+00 -0.26201740251E+02  0.26201740251E+02  0.00000000000E+00 0.  1.
         35    2    1    2    0    0  0.00000000000E+00  0.00000000000E+00  0.65953063577E+03  0.71193411627E+03  0.26808492384E+03 0.  0.
         25    2    3    3    0    0 -0.15257693175E+02 -0.36588080141E+02  0.25500623196E+03  0.28690476463E+03  0.12535821002E+03 0.  0.
         25    2    3    3    0    0  0.15257693175E+02  0.36588080141E+02  0.40452440381E+03  0.42502935164E+03  0.12425164654E+03 0.  0.
          5    1    4    4  502    0 -0.29178423759E+02 -0.65396056749E+02  0.24136340260E+03  0.25180628818E+03  0.47000000000E+01 0. -1.
         -5    1    4    4    0  502  0.13920730585E+02  0.28807976608E+02  0.13642829355E+02  0.35098476449E+02  0.47000000000E+01 0. -1.
          5    1    5    5  503    0  0.72105494497E+01 -0.38552883770E+02  0.24830812657E+03  0.25143057211E+03  0.47000000000E+01 0. -1.
         -5    1    5    5    0  503  0.80471437248E+01  0.75140963912E+02  0.15621627724E+03  0.17359877953E+03  0.47000000000E+01 0. -1.
<mgrwt>
<rscale>  0 0.26808492E+03</rscale>
<asrwt>0</asrwt>
<pdfrwt beam="1">  1        1 0.40310375E-02 0.26808492E+03</pdfrwt>
<pdfrwt beam="2">  1       -1 0.10549728E+00 0.26808492E+03</pdfrwt>
<totfact> 0.20051888E+03</totfact>
</mgrwt>
</event>
<event>
 9    1  0.8093459E-001  0.2813300E+03  0.7818608E-02  0.1094965E+00
         -2   -1    0    0    0  501 -0.00000000000E+00  0.00000000000E+00  0.89002345341E+02  0.89002345341E+02  0.00000000000E+00 0. -1.
          2   -1    0    0  501    0  0.00000000000E+00 -0.00000000000E+00 -0.22231596190E+03  0.22231596190E+03  0.00000000000E+00 0. -1.
         35    2    1    2    0    0  0.00000000000E+00  0.00000000000E+00 -0.13331361656E+03  0.31131830724E+03  0.28132999852E+03 0.  0.
         25    2    3    3    0    0 -0.42803928462E+02 -0.46029172644E+02 -0.81066048161E+02  0.16197454612E+03  0.12535225725E+03 0.  0.
         25    2    3    3    0    0  0.42803928462E+02  0.46029172644E+02 -0.52247568402E+02  0.14934376113E+03  0.12499155795E+03 0.  0.
          5    1    4    4  502    0 -0.82063803242E+02 -0.21131623383E+02 -0.77800195556E+02  0.11513458967E+03  0.47000000000E+01 0. -1.
         -5    1    4    4    0  502  0.39259874779E+02 -0.24897549261E+02 -0.32658526053E+01  0.46839956449E+02  0.47000000000E+01 0. -1.
          5    1    5    5  503    0  0.76790239512E+02  0.54068973892E+02 -0.62178784912E+02  0.11273192146E+03  0.47000000000E+01 0.  1.
         -5    1    5    5    0  503 -0.33986311050E+02 -0.80398012477E+01  0.99312165094E+01  0.36611839673E+02  0.47000000000E+01 0.  1.
<mgrwt>
<rscale>  0 0.28133000E+03</rscale>
<asrwt>0</asrwt>
<pdfrwt beam="1">  1        2 0.34202456E-01 0.28133000E+03</pdfrwt>
<pdfrwt beam="2">  1       -2 0.13692669E-01 0.28133000E+03</pdfrwt>
<totfact> 0.60040193E+03</totfact>
</mgrwt>
</event>
<event>
 9    1  0.8093459E-001  0.2788292E+03  0.7818608E-02  0.1096330E+00
          4   -1    0    0  501    0  0.00000000000E+00  0.00000000000E+00  0.35880614302E+02  0.35880614302E+02  0.00000000000E+00 0.  1.
         -4   -1    0    0    0  501 -0.00000000000E+00 -0.00000000000E+00 -0.54169714500E+03  0.54169714500E+03  0.00000000000E+00 0.  1.
         35    2    1    2    0    0  0.00000000000E+00  0.14210854715E-13 -0.50581653070E+03  0.57757775931E+03  0.27882916869E+03 0.  0.
         25    2    3    3    0    0 -0.16494128223E+02 -0.49625055152E+02 -0.24138106797E+03  0.28025283055E+03  0.13244669379E+03 0.  0.
         25    2    3    3    0    0  0.16494128223E+02  0.49625055152E+02 -0.26443546274E+03  0.29732492875E+03  0.12546432537E+03 0.  0.
          5    1    4    4  502    0 -0.36743545257E+02 -0.51434955146E+01 -0.22560143114E+03  0.22868021208E+03  0.47000000000E+01 0.  1.
         -5    1    4    4    0  502  0.20249417035E+02 -0.44481559637E+02 -0.15779636829E+02  0.51572618476E+02  0.47000000000E+01 0.  1.
          5    1    5    5  503    0 -0.23950694188E+02  0.61480608748E+01  0.10965259612E+01  0.25193784428E+02  0.47000000000E+01 0.  1.
         -5    1    5    5    0  503  0.40444822410E+02  0.43476994277E+02 -0.26553198870E+03  0.27213114433E+03  0.47000000000E+01 0.  1.
<mgrwt>
<rscale>  0 0.27882917E+03</rscale>
<asrwt>0</asrwt>
<pdfrwt beam="1">  1        4 0.55200945E-02 0.27882917E+03</pdfrwt>
<pdfrwt beam="2">  1       -4 0.83338022E-01 0.27882917E+03</pdfrwt>
<totfact> 0.49465368E+02</totfact>
</mgrwt>
</event>
<event>
 9    1  0.8093459E-001  0.2840672E+03  0.7818608E-02  0.1093488E+00
         -2   -1    0    0    0  501 -0.00000000000E+00  0.00000000000E+00  0.26414142182E+03  0.26414142182E+03  0.00000000000E+00 0.  1.
          2   -1    0    0  501    0  0.00000000000E+00 -0.00000000000E+00 -0.76373999470E+02  0.76373999470E+02  0.00000000000E+00 0.  1.
         35    2    1    2    0    0  0.00000000000E+00  0.35527136788E-14  0.18776742235E+03  0.34051542129E+03  0.28406715270E+03 0.  0.
         25    2    3    3    0    0 -0.41743514173E+02 -0.22058068249E+02  0.33689751251E+02  0.13708370713E+03  0.12420895327E+03 0.  0.
         25    2    3    3    0    0  0.41743514173E+02  0.22058068249E+02  0.15407767110E+03  0.20343171416E+03  0.12415898777E+03 0.  0.
          5    1    4    4  502    0  0.15671428714E+02 -0.47028117270E+02 -0.20787911413E+02  0.53957990630E+02  0.47000000000E+01 0.  1.
         -5    1    4    4    0  502 -0.57414942888E+02  0.24970049021E+02  0.54477662664E+02  0.83125716504E+02  0.47000000000E+01 0.  1.
          5    1    5    5  503    0  0.36609879362E+02 -0.44842648847E+02  0.38418350398E+02  0.69636241066E+02  0.47000000000E+01 0. -1.
         -5    1    5    5    0  503  0.51336348114E+01  0.66900717096E+02  0.11565932070E+03  0.13379547309E+03  0.47000000000E+01 0. -1.
<mgrwt>
<rscale>  0 0.28406715E+03</rscale>
<asrwt>0</asrwt>
<pdfrwt beam="1">  1        2 0.11749846E-01 0.28406715E+03</pdfrwt>
<pdfrwt beam="2">  1       -2 0.40637141E-01 0.28406715E+03</pdfrwt>
<totfact> 0.30222173E+03</totfact>
</mgrwt>
</event>
<event>
 9    1  0.8093459E-001  0.2739493E+03  0.7818608E-02  0.1099040E+00
         -2   -1    0    0    0  501 -0.00000000000E+00  0.00000000000E+00  0.25954024487E+02  0.25954024487E+02  0.00000000000E+00 0. -1.
          2   -1    0    0  501    0  0.00000000000E+00 -0.00000000000E+00 -0.72289560484E+03  0.72289560484E+03  0.00000000000E+00 0. -1.
         35    2    1    2    0    0  0.71054273576E-14  0.00000000000E+00 -0.69694158035E+03  0.74884962932E+03  0.27394926705E+03 0.  0.
         25    2    3    3    0    0 -0.54986732694E+02 -0.65785927897E+01 -0.35979351286E+03  0.38490564751E+03  0.12503666238E+03 0.  0.
         25    2    3    3    0    0  0.54986732694E+02  0.65785927897E+01 -0.33714806750E+03  0.36394398181E+03  0.12537776448E+03 0.  0.
          5    1    4    4  502    0  0.23253961306E+02  0.36597032017E+02 -0.16277704052E+03  0.16851867668E+03  0.47000000000E+01 0.  1.
         -5    1    4    4    0  502 -0.78240694000E+02 -0.43175624806E+02 -0.19701647234E+03  0.21638697083E+03  0.47000000000E+01 0.  1.
          5    1    5    5  503    0  0.30423111463E+02  0.41368188509E+02 -0.44309637454E+02  0.67987695232E+02  0.47000000000E+01 0.  1.
         -5    1    5    5    0  503  0.24563621231E+02 -0.34789595719E+02 -0.29283843004E+03  0.29595628658E+03  0.47000000000E+01 0.  1.
<mgrwt>
<rscale>  0 0.27394927E+03</rscale>
<asrwt>0</asrwt>
<pdfrwt beam="1">  1        2 0.11121471E+00 0.27394927E+03</pdfrwt>
<pdfrwt beam="2">  1       -2 0.39929269E-02 0.27394927E+03</pdfrwt>
<totfact> 0.11063732E+04</totfact>
</mgrwt>
</event>
<event>
 9    1  0.8093459E-001  0.2734006E+03  0.7818608E-02  0.1099349E+00
          2   -1    0    0  501    0  0.00000000000E+00  0.00000000000E+00  0.53849965986E+03  0.53849965986E+03  0.00000000000E+00 0. -1.
         -2   -1    0    0    0  501 -0.00000000000E+00 -0.00000000000E+00 -0.34701921366E+02  0.34701921366E+02  0.00000000000E+00 0. -1.
         35    2    1    2    0    0  0.00000000000E+00  0.44408920985E-15  0.50379773849E+03  0.57320158122E+03  0.27340060609E+03 0.  0.
         25    2    3    3    0    0 -0.39345666750E+02  0.36811822885E+01  0.33263072732E+03  0.35781362387E+03  0.12580046132E+03 0.  0.
         25    2    3    3    0    0  0.39345666750E+02 -0.36811822885E+01  0.17116701117E+03  0.21538795736E+03  0.12462822260E+03 0.  0.
          5    1    4    4  502    0  0.49367911928E+01  0.59800574638E+02  0.14791051711E+03  0.15968748137E+03  0.47000000000E+01 0.  1.
         -5    1    4    4    0  502 -0.44282457943E+02 -0.56119392350E+02  0.18472021021E+03  0.19812614250E+03  0.47000000000E+01 0.  1.
          5    1    5    5  503    0 -0.43597024229E+02 -0.49810626059E+01  0.84485288586E+02  0.95317183623E+02  0.47000000000E+01 0. -1.
         -5    1    5    5    0  503  0.82942690979E+02  0.12998803174E+01  0.86681722582E+02  0.12007077374E+03  0.47000000000E+01 0. -1.
<mgrwt>
<rscale>  0 0.27340061E+03</rscale>
<asrwt>0</asrwt>
<pdfrwt beam="1">  1        2 0.82846096E-01 0.27340061E+03</pdfrwt>
<pdfrwt beam="2">  1       -2 0.53387575E-02 0.27340061E+03</pdfrwt>
<totfact> 0.10074135E+04</totfact>
</mgrwt>
</event>
<event>
 9    1  0.8093459E-001  0.2825034E+03  0.7818608E-02  0.1094329E+00
          1   -1    0    0  501    0  0.00000000000E+00  0.00000000000E+00  0.15707142376E+03  0.15707142376E+03  0.00000000000E+00 0. -1.
         -1   -1    0    0    0  501 -0.00000000000E+00 -0.00000000000E+00 -0.12702531561E+03  0.12702531561E+03  0.00000000000E+00 0. -1.
         35    2    1    2    0    0 -0.71054273576E-14  0.00000000000E+00  0.30046108154E+02  0.28409673937E+03  0.28250343132E+03 0.  0.
         25    2    3    3    0    0  0.60285361956E+01  0.65868725604E+02  0.76015801992E+00  0.14098603558E+03  0.12450482773E+03 0.  0.
         25    2    3    3    0    0 -0.60285361956E+01 -0.65868725604E+02  0.29285950134E+02  0.14311070379E+03  0.12348268867E+03 0.  0.
          5    1    4    4  502    0  0.64227547235E+02  0.34301781220E+02  0.11118875890E+02  0.73807245035E+02  0.47000000000E+01 0. -1.
         -5    1    4    4    0  502 -0.58199011039E+02  0.31566944385E+02 -0.10358717870E+02  0.67178790549E+02  0.47000000000E+01 0. -1.
          5    1    5    5  503    0  0.28141487386E+02 -0.79604179718E+02  0.52300995521E+02  0.99429637802E+02  0.47000000000E+01 0.  1.
         -5    1    5    5    0  503 -0.34170023582E+02  0.13735454114E+02 -0.23015045388E+02  0.43681065984E+02  0.47000000000E+01 0.  1.
<mgrwt>
<rscale>  0 0.28250343E+03</rscale>
<asrwt>0</asrwt>
<pdfrwt beam="1">  1        1 0.24164834E-01 0.28250343E+03</pdfrwt>
<pdfrwt beam="2">  1       -1 0.19542356E-01 0.28250343E+03</pdfrwt>
<totfact> 0.41655444E+03</totfact>
</mgrwt>
</event>
<event>
 9    1  0.8093459E-001  0.2763778E+03  0.7818608E-02  0.1097684E+00
         -1   -1    0    0    0  501 -0.00000000000E+00  0.00000000000E+00  0.15615509113E+03  0.15615509113E+03  0.00000000000E+00 0. -1.
          1   -1    0    0  501    0  0.00000000000E+00 -0.00000000000E+00 -0.12228979845E+03  0.12228979845E+03  0.00000000000E+00 0. -1.
         35    2    1    2    0    0  0.00000000000E+00 -0.71054273576E-14  0.33865292675E+02  0.27844488958E+03  0.27637781837E+03 0.  0.
         25    2    3    3    0    0 -0.28472010295E+02 -0.43342410441E+02 -0.87353717414E+01  0.13653493578E+03  0.12600103990E+03 0.  0.
         25    2    3    3    0    0  0.28472010295E+02  0.43342410441E+02  0.42600664416E+02  0.14190995380E+03  0.12503758821E+03 0.  0.
          5    1    4    4  502    0 -0.59033180786E+02  0.12497754446E+02 -0.32165986423E+02  0.68540870891E+02  0.47000000000E+01 0. -1.
         -5    1    4    4    0  502  0.30561170491E+02 -0.55840164887E+02  0.23430614682E+02  0.67994064893E+02  0.47000000000E+01 0. -1.
          5    1    5    5  503    0  0.70868334919E+02 -0.45566990697E+01  0.24431769585E+02  0.75246832263E+02  0.47000000000E+01 0.  1.
         -5    1    5    5    0  503 -0.42396324623E+02  0.47899109511E+02  0.18168894831E+02  0.66663121536E+02  0.47000000000E+01 0.  1.
<mgrwt>
<rscale>  0 0.27637782E+03</rscale>
<asrwt>0</asrwt>
<pdfrwt beam="1">  1        1 0.18813815E-01 0.27637782E+03</pdfrwt>
<pdfrwt beam="2">  1       -1 0.24023860E-01 0.27637782E+03</pdfrwt>
<totfact> 0.40929544E+03</totfact>
</mgrwt>
</event>
<event>
 9    1  0.8093459E-001  0.2666627E+03  0.7818608E-02  0.1103205E+00
          1   -1    0    0  501    0  0.00000000000E+00  0.00000000000E+00  0.61635416791E+03  0.61635416791E+03  0.00000000000E+00 0.  1.
         -1   -1    0    0    0  501 -0.00000000000E+00 -0.00000000000E+00 -0.28842591455E+02  0.28842591455E+02  0.00000000000E+00 0.  1.
         35    2    1    2    0    0  0.14210854715E-13  0.35527136788E-14  0.58751157646E+03  0.64519675937E+03  0.26666271923E+03 0.  0.
         25    2    3    3    0    0  0.25925371632E+02  0.17250624833E+02  0.37170397231E+03  0.39304453700E+03  0.12389695755E+03 0.  0.
         25    2    3    3    0    0 -0.25925371632E+02 -0.17250624833E+02  0.21580760415E+03  0.25215222236E+03  0.12664166882E+03 0.  0.
          5    1    4    4  502    0  0.73530444475E+02  0.27516876642E+02  0.23899722606E+03  0.25160617804E+03  0.47000000000E+01 0.  1.
         -5    1    4    4    0  502 -0.47605072843E+02 -0.10266251809E+02  0.13270674625E+03  0.14143835896E+03  0.47000000000E+01 0.  1.
          5    1    5    5  503    0 -0.32223697696E+02 -0.69535068303E+02  0.14092960557E+03  0.16048905303E+03  0.47000000000E+01 0. -1.
         -5    1    5    5    0  503  0.62983260638E+01  0.52284443470E+02  0.74877998580E+02  0.91663169330E+02  0.47000000000E+01 0. -1.
<mgrwt>
<rscale>  0 0.26666272E+03</rscale>
<asrwt>0</asrwt>
<pdfrwt beam="1">  1        1 0.94823708E-01 0.26666272E+03</pdfrwt>
<pdfrwt beam="2">  1       -1 0.44373222E-02 0.26666272E+03</pdfrwt>
<totfact> 0.70959761E+03</totfact>
</mgrwt>
</event>
<event>
 9    1  0.8093459E-001  0.2768171E+03  0.7818608E-02  0.1097440E+00
         -3   -1    0    0    0  501 -0.00000000000E+00  0.00000000000E+00  0.32506537066E+02  0.32506537066E+02  0.00000000000E+00 0. -1.
          3   -1    0    0  501    0  0.00000000000E+00 -0.00000000000E+00 -0.58932524006E+03  0.58932524006E+03  0.00000000000E+00 0. -1.
         35    2    1    2    0    0  0.00000000000E+00 -0.14210854715E-13 -0.55681870299E+03  0.62183177712E+03  0.27681707144E+03 0.  0.
         25    2    3    3    0    0  0.20036412831E+02  0.47675197940E+02 -0.35684009557E+03  0.37999621322E+03  0.11994951404E+03 0.  0.
         25    2    3    3    0    0 -0.20036412831E+02 -0.47675197940E+02 -0.19997860742E+03  0.24183556390E+03  0.12577207243E+03 0.  0.
          5    1    4    4  502    0 -0.38013844525E+02  0.32693615850E+02 -0.26816903984E+03  0.27285646193E+03  0.47000000000E+01 0. -1.
         -5    1    4    4    0  502  0.58050257356E+02  0.14981582090E+02 -0.88671055733E+02  0.10713975129E+03  0.47000000000E+01 0. -1.
          5    1    5    5  503    0 -0.66028366007E+02 -0.34204730231E+01 -0.13625458382E+03  0.15152176862E+03  0.47000000000E+01 0. -1.
         -5    1    5    5    0  503  0.45991953176E+02 -0.44254724916E+02 -0.63724023599E+02  0.90313795281E+02  0.47000000000E+01 0. -1.
<mgrwt>
<rscale>  0 0.27681707E+03</rscale>
<asrwt>0</asrwt>
<pdfrwt beam="1">  1        3 0.90665411E-01 0.27681707E+03</pdfrwt>
<pdfrwt beam="2">  1       -3 0.50010063E-02 0.27681707E+03</pdfrwt>
<totfact> 0.65525632E+02</totfact>
</mgrwt>
</event>
<event>
 9    1  0.8093459E-001  0.2723968E+03  0.7818608E-02  0.1099916E+00
         -3   -1    0    0    0  501 -0.00000000000E+00  0.00000000000E+00  0.11813561612E+03  0.11813561612E+03  0.00000000000E+00 0. -1.
          3   -1    0    0  501    0  0.00000000000E+00 -0.00000000000E+00 -0.15702292611E+03  0.15702292611E+03  0.00000000000E+00 0. -1.
         35    2    1    2    0    0  0.00000000000E+00 -0.35527136788E-14 -0.38887309984E+02  0.27515854223E+03  0.27239677033E+03 0.  0.
         25    2    3    3    0    0  0.27817623452E+02 -0.84906339561E+01 -0.35065022597E+02  0.13305179172E+03  0.12500924938E+03 0.  0.
         25    2    3    3    0    0 -0.27817623452E+02  0.84906339561E+01 -0.38222873869E+01  0.14210675051E+03  0.13904606294E+03 0.  0.
          5    1    4    4  502    0 -0.11877007635E+02  0.10763886857E+02  0.41402429026E+02  0.44644996359E+02  0.47000000000E+01 0.  1.
         -5    1    4    4    0  502  0.39694631087E+02 -0.19254520813E+02 -0.76467451623E+02  0.88406795364E+02  0.47000000000E+01 0.  1.
          5    1    5    5  503    0 -0.48729948304E+02 -0.36406942647E+02  0.42320849590E+02  0.74251044738E+02  0.47000000000E+01 0. -1.
         -5    1    5    5    0  503  0.20912324852E+02  0.44897576603E+02 -0.46143136977E+02  0.67855705771E+02  0.47000000000E+01 0. -1.
<mgrwt>
<rscale>  0 0.27239677E+03</rscale>
<asrwt>0</asrwt>
<pdfrwt beam="1">  1        3 0.24157373E-01 0.27239677E+03</pdfrwt>
<pdfrwt beam="2">  1       -3 0.18174710E-01 0.27239677E+03</pdfrwt>
<totfact> 0.10797482E+03</totfact>
</mgrwt>
</event>
<event>
 9    1  0.8093459E-001  0.2795290E+03  0.7818608E-02  0.1095946E+00
         -2   -1    0    0    0  501 -0.00000000000E+00  0.00000000000E+00  0.41136484655E+02  0.41136484655E+02  0.00000000000E+00 0.  1.
          2   -1    0    0  501    0  0.00000000000E+00 -0.00000000000E+00 -0.47486104390E+03  0.47486104390E+03  0.00000000000E+00 0.  1.
         35    2    1    2    0    0  0.00000000000E+00 -0.71054273576E-14 -0.43372455924E+03  0.51599752856E+03  0.27952898988E+03 0.  0.
         25    2    3    3    0    0  0.41992185631E+02 -0.34843494691E+02 -0.15847574934E+03  0.20868526203E+03  0.12432844679E+03 0.  0.
         25    2    3    3    0    0 -0.41992185631E+02  0.34843494691E+02 -0.27524880990E+03  0.30731226653E+03  0.12530566240E+03 0.  0.
          5    1    4    4  502    0  0.16541382852E+02 -0.52735744817E+02 -0.93188632943E+01  0.56245953998E+02  0.47000000000E+01 0.  1.
         -5    1    4    4    0  502  0.25450802779E+02  0.17892250126E+02 -0.14915688605E+03  0.15243930803E+03  0.47000000000E+01 0.  1.
          5    1    5    5  503    0  0.30896165483E+02  0.24625077654E+02 -0.26362689163E+02  0.47728910221E+02  0.47000000000E+01 0.  1.
         -5    1    5    5    0  503 -0.72888351115E+02  0.10218417037E+02 -0.24888612074E+03  0.25958335631E+03  0.47000000000E+01 0.  1.
<mgrwt>
<rscale>  0 0.27952899E+03</rscale>
<asrwt>0</asrwt>
<pdfrwt beam="1">  1        2 0.73055545E-01 0.27952899E+03</pdfrwt>
<pdfrwt beam="2">  1       -2 0.63286900E-02 0.27952899E+03</pdfrwt>
<totfact> 0.89468680E+03</totfact>
</mgrwt>
</event>
<event>
 9    1  0.8093459E-001  0.2754264E+03  0.7818608E-02  0.1098213E+00
          2   -1    0    0  501    0  0.00000000000E+00  0.00000000000E+00  0.27885350456E+04  0.27885350456E+04  0.00000000000E+00 0.  1.
         -2   -1    0    0    0  501 -0.00000000000E+00 -0.00000000000E+00 -0.68010348055E+01  0.68010348055E+01  0.00000000000E+00 0.  1.
         35    2    1    2    0    0  0.00000000000E+00 -0.71054273576E-14  0.27817340108E+04  0.27953360804E+04  0.27542638873E+03 0.  0.
         25    2    3    3    0    0 -0.17597424316E+02 -0.17231051024E+02  0.78168867834E+03  0.79149442183E+03  0.12173599093E+03 0.  0.
         25    2    3    3    0    0  0.17597424316E+02  0.17231051024E+02  0.20000453325E+04  0.20038416586E+04  0.12080348626E+03 0.  0.
          5    1    4    4  502    0 -0.41346427210E+02  0.14201189689E+02  0.10757055710E+03  0.11620979126E+03  0.47000000000E+01 0. -1.
         -5    1    4    4    0  502  0.23749002894E+02 -0.31432240714E+02  0.67411812124E+03  0.67528463057E+03  0.47000000000E+01 0. -1.
          5    1    5    5  503    0 -0.28918329394E+02  0.52245998088E+02  0.12934069657E+04  0.12947932588E+04  0.47000000000E+01 0. -1.
         -5    1    5    5    0  503  0.46515753710E+02 -0.35014947063E+02  0.70663836680E+03  0.70904839983E+03  0.47000000000E+01 0. -1.
<mgrwt>
<rscale>  0 0.27542639E+03</rscale>
<asrwt>0</asrwt>
<pdfrwt beam="1">  1        2 0.42900448E+00 0.27542639E+03</pdfrwt>
<pdfrwt beam="2">  1       -2 0.10463153E-02 0.27542639E+03</pdfrwt>
<totfact> 0.55214212E+03</totfact>
</mgrwt>
</event>
<event>
 9    1  0.8093459E-001  0.2759832E+03  0.7818608E-02  0.1097903E+00
          2   -1    0    0  501    0  0.00000000000E+00  0.00000000000E+00  0.31370640363E+03  0.31370640363E+03  0.00000000000E+00 0.  1.
         -2   -1    0    0    0  501 -0.00000000000E+00 -0.00000000000E+00 -0.60699034819E+02  0.60699034819E+02  0.00000000000E+00 0.  1.
         35    2    1    2    0    0  0.17763568394E-14 -0.35527136788E-14  0.25300736881E+03  0.37440543845E+03  0.27598315830E+03 0.  0.
         25    2    3    3    0    0  0.71969009485E+01  0.26336417100E+02  0.56091301833E+02  0.13962745483E+03  0.12491673127E+03 0.  0.
         25    2    3    3    0    0 -0.71969009485E+01 -0.26336417100E+02  0.19691606698E+03  0.23477798362E+03  0.12489740553E+03 0.  0.
          5    1    4    4  502    0 -0.16539376251E+02  0.44356439354E+02  0.85278326759E+02  0.97650026594E+02  0.47000000000E+01 0.  1.
         -5    1    4    4    0  502  0.23736277200E+02 -0.18020022255E+02 -0.29187024925E+02  0.41977428236E+02  0.47000000000E+01 0.  1.
          5    1    5    5  503    0 -0.23026972196E+02 -0.21919821430E+02  0.21050321496E+03  0.21294227746E+03  0.47000000000E+01 0.  1.
         -5    1    5    5    0  503  0.15830071247E+02 -0.44165956702E+01 -0.13587147986E+02  0.21835706158E+02  0.47000000000E+01 0.  1.
<mgrwt>
<rscale>  0 0.27598316E+03</rscale>
<asrwt>0</asrwt>
<pdfrwt beam="1">  1        2 0.48262523E-01 0.27598316E+03</pdfrwt>
<pdfrwt beam="2">  1       -2 0.93383132E-02 0.27598316E+03</pdfrwt>
<totfact> 0.76537833E+03</totfact>
</mgrwt>
</event>
<event>
 9    1  0.8093459E-001  0.2819876E+03  0.7818608E-02  0.1094608E+00
         -2   -1    0    0    0  501 -0.00000000000E+00  0.00000000000E+00  0.24384231478E+02  0.24384231478E+02  0.00000000000E+00 0.  1.
          2   -1    0    0  501    0  0.00000000000E+00 -0.00000000000E+00 -0.81525038157E+03  0.81525038157E+03  0.00000000000E+00 0.  1.
         35    2    1    2    0    0  0.35527136788E-14  0.71054273576E-14 -0.79086615010E+03  0.83963461305E+03  0.28198761687E+03 0.  0.
         25    2    3    3    0    0  0.18628952113E+02  0.53012267192E+02 -0.45720749482E+03  0.47781905864E+03  0.12694495323E+03 0.  0.
         25    2    3    3    0    0 -0.18628952113E+02 -0.53012267192E+02 -0.33365865527E+03  0.36181555441E+03  0.12816028575E+03 0.  0.
          5    1    4    4  502    0  0.45085189867E+02  0.85328844323E+02 -0.30737227681E+03  0.32220101268E+03  0.47000000000E+01 0.  1.
         -5    1    4    4    0  502 -0.26456237754E+02 -0.32316577131E+02 -0.14983521801E+03  0.15561804597E+03  0.47000000000E+01 0.  1.
          5    1    5    5  503    0 -0.39993344275E+02 -0.88289516834E+02 -0.20903705062E+03  0.23046276251E+03  0.47000000000E+01 0. -1.
         -5    1    5    5    0  503  0.21364392161E+02  0.35277249642E+02 -0.12462160465E+03  0.13135279190E+03  0.47000000000E+01 0. -1.
<mgrwt>
<rscale>  0 0.28198762E+03</rscale>
<asrwt>0</asrwt>
<pdfrwt beam="1">  1        2 0.12542315E+00 0.28198762E+03</pdfrwt>
<pdfrwt beam="2">  1       -2 0.37514198E-02 0.28198762E+03</pdfrwt>
<totfact> 0.10460990E+04</totfact>
</mgrwt>
</event>
<event>
 9    1  0.8093459E-001  0.2763991E+03  0.7818608E-02  0.1097672E+00
         -1   -1    0    0    0  501 -0.00000000000E+00  0.00000000000E+00  0.32086740502E+03  0.32086740502E+03  0.00000000000E+00 0.  1.
          1   -1    0    0  501    0  0.00000000000E+00 -0.00000000000E+00 -0.59523408993E+02  0.59523408993E+02  0.00000000000E+00 0.  1.
         35    2    1    2    0    0  0.00000000000E+00  0.71054273576E-14  0.26134399603E+03  0.38039081402E+03  0.27639914458E+03 0.  0.
         25    2    3    3    0    0  0.42406805096E+02 -0.40844509111E+02  0.12209922745E+03  0.18398565367E+03  0.12440212366E+03 0.  0.
         25    2    3    3    0    0 -0.42406805096E+02  0.40844509111E+02  0.13924476858E+03  0.19640516035E+03  0.12537651451E+03 0.  0.
          5    1    4    4  502    0  0.85117857466E+02 -0.38476894857E+02  0.72628076582E+02  0.11841642034E+03  0.47000000000E+01 0. -1.
         -5    1    4    4    0  502 -0.42711052371E+02 -0.23676142540E+01  0.49471150865E+02  0.65569233332E+02  0.47000000000E+01 0. -1.
          5    1    5    5  503    0  0.33116084378E+02 -0.86652755986E+01  0.83022124998E+02  0.89925109312E+02  0.47000000000E+01 0.  1.
         -5    1    5    5    0  503 -0.75522889474E+02  0.49509784710E+02  0.56222643584E+02  0.10648005103E+03  0.47000000000E+01 0.  1.
<mgrwt>
<rscale>  0 0.27639914E+03</rscale>
<asrwt>0</asrwt>
<pdfrwt beam="1">  1        1 0.91574477E-02 0.27639914E+03</pdfrwt>
<pdfrwt beam="2">  1       -1 0.49364215E-01 0.27639914E+03</pdfrwt>
<totfact> 0.30312460E+03</totfact>
</mgrwt>
</event>
<event>
 9    1  0.8093459E-001  0.2858986E+03  0.7818608E-02  0.1092510E+00
          2   -1    0    0  501    0  0.00000000000E+00  0.00000000000E+00  0.95161225199E+02  0.95161225199E+02  0.00000000000E+00 0.  1.
         -2   -1    0    0    0  501 -0.00000000000E+00 -0.00000000000E+00 -0.21473553373E+03  0.21473553373E+03  0.00000000000E+00 0.  1.
         35    2    1    2    0    0  0.00000000000E+00  0.00000000000E+00 -0.11957430853E+03  0.30989675893E+03  0.28589855882E+03 0.  0.
         25    2    3    3    0    0  0.17583308968E+02  0.45465640934E+02 -0.10570566596E+03  0.17403138946E+03  0.12937132388E+03 0.  0.
         25    2    3    3    0    0 -0.17583308968E+02 -0.45465640934E+02 -0.13868642570E+02  0.13586536946E+03  0.12605856620E+03 0.  0.
          5    1    4    4  502    0  0.64170016004E+02  0.48488022130E+02 -0.32064777871E+02  0.86712855010E+02  0.47000000000E+01 0. -1.
         -5    1    4    4    0  502 -0.46586707036E+02 -0.30223811959E+01 -0.73640888089E+02  0.87318534453E+02  0.47000000000E+01 0. -1.
          5    1    5    5  503    0  0.11631858808E+02  0.32093694010E+02 -0.36122028422E+02  0.49921901725E+02  0.47000000000E+01 0.  1.
         -5    1    5    5    0  503 -0.29215167777E+02 -0.77559334944E+02  0.22253385852E+02  0.85943467739E+02  0.47000000000E+01 0.  1.
<mgrwt>
<rscale>  0 0.28589856E+03</rscale>
<asrwt>0</asrwt>
<pdfrwt beam="1">  1        2 0.14640189E-01 0.28589856E+03</pdfrwt>
<pdfrwt beam="2">  1       -2 0.33036236E-01 0.28589856E+03</pdfrwt>
<totfact> 0.34230690E+03</totfact>
</mgrwt>
</event>
<event>
 9    1  0.8093459E-001  0.2739459E+03  0.7818608E-02  0.1099042E+00
          4   -1    0    0  501    0  0.00000000000E+00  0.00000000000E+00  0.84194037190E+03  0.84194037190E+03  0.00000000000E+00 0.  1.
         -4   -1    0    0    0  501 -0.00000000000E+00 -0.00000000000E+00 -0.22283751266E+02  0.22283751266E+02  0.00000000000E+00 0.  1.
         35    2    1    2    0    0  0.35527136788E-14 -0.71054273576E-14  0.81965662063E+03  0.86422412316E+03  0.27394590582E+03 0.  0.
         25    2    3    3    0    0  0.16811064959E+02 -0.53747762469E+02  0.41276265850E+03  0.43493081905E+03  0.12498148356E+03 0.  0.
         25    2    3    3    0    0 -0.16811064959E+02  0.53747762469E+02  0.40689396213E+03  0.42929330411E+03  0.12473415997E+03 0.  0.
          5    1    4    4  502    0  0.35473669568E+02  0.30760224205E+01  0.28057769960E+02  0.45575998088E+02  0.47000000000E+01 0. -1.
         -5    1    4    4    0  502 -0.18662604609E+02 -0.56823784890E+02  0.38470488854E+03  0.38935482097E+03  0.47000000000E+01 0. -1.
          5    1    5    5  503    0 -0.23675017909E+02  0.89257695880E+02  0.21619150769E+03  0.23513464387E+03  0.47000000000E+01 0.  1.
         -5    1    5    5    0  503  0.68639529504E+01 -0.35509933411E+02  0.19070245443E+03  0.19415866025E+03  0.47000000000E+01 0.  1.
<mgrwt>
<rscale>  0 0.27394591E+03</rscale>
<asrwt>0</asrwt>
<pdfrwt beam="1">  1        4 0.12952926E+00 0.27394591E+03</pdfrwt>
<pdfrwt beam="2">  1       -4 0.34282701E-02 0.27394591E+03</pdfrwt>
<totfact> 0.37478724E+02</totfact>
</mgrwt>
</event>
<event>
 9    1  0.8093459E-001  0.2752662E+03  0.7818608E-02  0.1098303E+00
         -2   -1    0    0    0  501 -0.00000000000E+00  0.00000000000E+00  0.15449185708E+02  0.15449185708E+02  0.00000000000E+00 0. -1.
          2   -1    0    0  501    0  0.00000000000E+00 -0.00000000000E+00 -0.12261399775E+04  0.12261399775E+04  0.00000000000E+00 0. -1.
         35    2    1    2    0    0 -0.71054273576E-14 -0.22204460493E-14 -0.12106907918E+04  0.12415891632E+04  0.27526615641E+03 0.  0.
         25    2    3    3    0    0 -0.50484459544E+02  0.38956766246E+01 -0.47764813208E+03  0.49638293794E+03  0.12523747860E+03 0.  0.
         25    2    3    3    0    0  0.50484459544E+02 -0.38956766246E+01 -0.73304265970E+03  0.74520622526E+03  0.12416489146E+03 0.  0.
          5    1    4    4  502    0 -0.12892711011E+02 -0.56036920891E+02 -0.14094582627E+03  0.15229633759E+03  0.47000000000E+01 0. -1.
         -5    1    4    4    0  502 -0.37591748533E+02  0.59932597516E+02 -0.33670230581E+03  0.34408660035E+03  0.47000000000E+01 0. -1.
          5    1    5    5  503    0  0.76074860170E+02 -0.63809064527E+01 -0.69412516276E+03  0.69832652241E+03  0.47000000000E+01 0. -1.
         -5    1    5    5    0  503 -0.25590400626E+02  0.24852298281E+01 -0.38917496939E+02  0.46879702852E+02  0.47000000000E+01 0. -1.
<mgrwt>
<rscale>  0 0.27526616E+03</rscale>
<asrwt>0</asrwt>
<pdfrwt beam="1">  1        2 0.18863692E+00 0.27526616E+03</pdfrwt>
<pdfrwt beam="2">  1       -2 0.23767978E-02 0.27526616E+03</pdfrwt>
<totfact> 0.11551687E+04</totfact>
</mgrwt>
</event>
<event>
 9    1  0.8093459E-001  0.2784976E+03  0.7818608E-02  0.1096512E+00
         -4   -1    0    0    0  501 -0.00000000000E+00  0.00000000000E+00  0.82879636847E+02  0.82879636847E+02  0.00000000000E+00 0. -1.
          4   -1    0    0  501    0  0.00000000000E+00 -0.00000000000E+00 -0.23395646042E+03  0.23395646042E+03  0.00000000000E+00 0. -1.
         35    2    1    2    0    0  0.00000000000E+00  0.00000000000E+00 -0.15107682357E+03  0.31683609726E+03  0.27849758690E+03 0.  0.
         25    2    3    3    0    0  0.53358568408E+02 -0.16812250647E+02 -0.41706771783E+02  0.14235745304E+03  0.12408223495E+03 0.  0.
         25    2    3    3    0    0 -0.53358568408E+02  0.16812250647E+02 -0.10937005179E+03  0.17447864422E+03  0.12389996153E+03 0.  0.
          5    1    4    4  502    0  0.13650074597E+02  0.52427635595E+02 -0.57302218694E+01  0.54680041636E+02  0.47000000000E+01 0.  1.
         -5    1    4    4    0  502  0.39708493811E+02 -0.69239886242E+02 -0.35976549914E+02  0.87677411408E+02  0.47000000000E+01 0.  1.
          5    1    5    5  503    0 -0.51392000290E+02  0.27910590619E+02 -0.13438936246E+03  0.14663809022E+03  0.47000000000E+01 0.  1.
         -5    1    5    5    0  503 -0.19665681179E+01 -0.11098339972E+02  0.25019310672E+02  0.27840553996E+02  0.47000000000E+01 0.  1.
<mgrwt>
<rscale>  0 0.27849759E+03</rscale>
<asrwt>0</asrwt>
<pdfrwt beam="1">  1        4 0.35993301E-01 0.27849759E+03</pdfrwt>
<pdfrwt beam="2">  1       -4 0.12750713E-01 0.27849759E+03</pdfrwt>
<totfact> 0.70355526E+02</totfact>
</mgrwt>
</event>
<event>
 9    1  0.8093459E-001  0.2747080E+03  0.7818608E-02  0.1098615E+00
         -1   -1    0    0    0  501 -0.00000000000E+00  0.00000000000E+00  0.97914524318E+03  0.97914524318E+03  0.00000000000E+00 0.  1.
          1   -1    0    0  501    0  0.00000000000E+00 -0.00000000000E+00 -0.19267948985E+02  0.19267948985E+02  0.00000000000E+00 0.  1.
         35    2    1    2    0    0  0.71054273576E-14  0.00000000000E+00  0.95987729419E+03  0.99841319216E+03  0.27470799474E+03 0.  0.
         25    2    3    3    0    0 -0.49565292851E+02  0.27049367157E+02  0.49513204828E+03  0.51385338753E+03  0.12530431808E+03 0.  0.
         25    2    3    3    0    0  0.49565292851E+02 -0.27049367157E+02  0.46474524592E+03  0.48455980463E+03  0.12498669586E+03 0.  0.
          5    1    4    4  502    0  0.23479117347E+02  0.49565508412E+02  0.28343332243E+03  0.28872919292E+03  0.47000000000E+01 0. -1.
         -5    1    4    4    0  502 -0.73044410199E+02 -0.22516141255E+02  0.21169872584E+03  0.22512419462E+03  0.47000000000E+01 0. -1.
          5    1    5    5  503    0 -0.38739013966E+02 -0.28384388954E+02  0.18339020500E+03  0.18963238655E+03  0.47000000000E+01 0.  1.
         -5    1    5    5    0  503  0.88304306817E+02  0.13350217975E+01  0.28135504092E+03  0.29492741808E+03  0.47000000000E+01 0.  1.
<mgrwt>
<rscale>  0 0.27470799E+03</rscale>
<asrwt>0</asrwt>
<pdfrwt beam="1">  1        1 0.29643006E-02 0.27470799E+03</pdfrwt>
<pdfrwt beam="2">  1       -1 0.15063769E+00 0.27470799E+03</pdfrwt>
<totfact> 0.12955901E+03</totfact>
</mgrwt>
</event>
<event>
 9    1  0.8093459E-001  0.2735295E+03  0.7818608E-02  0.1099276E+00
         -1   -1    0    0    0  501 -0.00000000000E+00  0.00000000000E+00  0.28450981611E+02  0.28450981611E+02  0.00000000000E+00 0. -1.
          1   -1    0    0  501    0  0.00000000000E+00 -0.00000000000E+00 -0.65743255164E+03  0.65743255164E+03  0.00000000000E+00 0. -1.
         35    2    1    2    0    0 -0.71054273576E-14  0.00000000000E+00 -0.62898157003E+03  0.68588353325E+03  0.27352953360E+03 0.  0.
         25    2    3    3    0    0 -0.37784293683E+02  0.11040711777E+02 -0.22143083747E+03  0.25766019104E+03  0.12572831063E+03 0.  0.
         25    2    3    3    0    0  0.37784293683E+02 -0.11040711777E+02 -0.40755073256E+03  0.42822334222E+03  0.12541164638E+03 0.  0.
          5    1    4    4  502    0  0.12171632530E+02 -0.46494007185E+02 -0.47607155113E+02  0.67811301127E+02  0.47000000000E+01 0. -1.
         -5    1    4    4    0  502 -0.49955926213E+02  0.57534718962E+02 -0.17382368236E+03  0.18984888991E+03  0.47000000000E+01 0. -1.
          5    1    5    5  503    0 -0.12508889202E+02 -0.57311344991E+02 -0.13639682427E+03  0.14855048383E+03  0.47000000000E+01 0.  1.
         -5    1    5    5    0  503  0.50293182884E+02  0.46270633213E+02 -0.27115390828E+03  0.27967285839E+03  0.47000000000E+01 0.  1.
<mgrwt>
<rscale>  0 0.27352953E+03</rscale>
<asrwt>0</asrwt>
<pdfrwt beam="1">  1        1 0.10114346E+00 0.27352953E+03</pdfrwt>
<pdfrwt beam="2">  1       -1 0.43770745E-02 0.27352953E+03</pdfrwt>
<totfact> 0.66161564E+03</totfact>
</mgrwt>
</event>
<event>
 9    1  0.8093459E-001  0.2764196E+03  0.7818608E-02  0.1097661E+00
          1   -1    0    0  501    0  0.00000000000E+00  0.00000000000E+00  0.11981959018E+04  0.11981959018E+04  0.00000000000E+00 0.  1.
         -1   -1    0    0    0  501 -0.00000000000E+00 -0.00000000000E+00 -0.15942253411E+02  0.15942253411E+02  0.00000000000E+00 0.  1.
         35    2    1    2    0    0 -0.35527136788E-14  0.00000000000E+00  0.11822536484E+04  0.12141381552E+04  0.27641955577E+03 0.  0.
         25    2    3    3    0    0 -0.31998301716E+02  0.47892615548E+02  0.60645311833E+03  0.62193439346E+03  0.12529729091E+03 0.  0.
         25    2    3    3    0    0  0.31998301716E+02 -0.47892615548E+02  0.57580053007E+03  0.59220376176E+03  0.12586282640E+03 0.  0.
          5    1    4    4  502    0 -0.28952908452E+02  0.47449070720E+02  0.92975886932E+02  0.10842643022E+03  0.47000000000E+01 0. -1.
         -5    1    4    4    0  502 -0.30453932633E+01  0.44354482832E+00  0.51347723139E+03  0.51350796324E+03  0.47000000000E+01 0. -1.
          5    1    5    5  503    0 -0.29303521283E+02  0.13596567482E+02  0.32740534576E+03  0.32902874257E+03  0.47000000000E+01 0.  1.
         -5    1    5    5    0  503  0.61301822999E+02 -0.61489183031E+02  0.24839518432E+03  0.26317501919E+03  0.47000000000E+01 0.  1.
<mgrwt>
<rscale>  0 0.27641956E+03</rscale>
<asrwt>0</asrwt>
<pdfrwt beam="1">  1        1 0.18433776E+00 0.27641956E+03</pdfrwt>
<pdfrwt beam="2">  1       -1 0.24526553E-02 0.27641956E+03</pdfrwt>
<totfact> 0.58331445E+03</totfact>
</mgrwt>
</event>
<event>
 9    1  0.8093459E-001  0.2671640E+03  0.7818608E-02  0.1102914E+00
         -2   -1    0    0    0  501 -0.00000000000E+00  0.00000000000E+00  0.77111126122E+02  0.77111126122E+02  0.00000000000E+00 0. -1.
          2   -1    0    0  501    0  0.00000000000E+00 -0.00000000000E+00 -0.23140817209E+03  0.23140817209E+03  0.00000000000E+00 0. -1.
         35    2    1    2    0    0  0.00000000000E+00  0.35527136788E-14 -0.15429704597E+03  0.30851929821E+03  0.26716395523E+03 0.  0.
         25    2    3    3    0    0  0.20065181946E+01  0.27385129318E+02 -0.11452954877E+03  0.17436885017E+03  0.12858268525E+03 0.  0.
         25    2    3    3    0    0 -0.20065181946E+01 -0.27385129318E+02 -0.39767497200E+02  0.13415044804E+03  0.12514358735E+03 0.  0.
          5    1    4    4  502    0  0.19664026982E+02  0.59543471106E+02 -0.10234847806E+02  0.63709818851E+02  0.47000000000E+01 0. -1.
         -5    1    4    4    0  502 -0.17657508788E+02 -0.32158341788E+02 -0.10429470096E+03  0.11065903132E+03  0.47000000000E+01 0. -1.
          5    1    5    5  503    0  0.28342080487E+02 -0.43978627118E+02 -0.70311060421E+02  0.87767467703E+02  0.47000000000E+01 0. -1.
         -5    1    5    5    0  503 -0.30348598681E+02  0.16593497800E+02  0.30543563221E+02  0.46382980342E+02  0.47000000000E+01 0. -1.
<mgrwt>
<rscale>  0 0.26716396E+03</rscale>
<asrwt>0</asrwt>
<pdfrwt beam="1">  1        2 0.35601257E-01 0.26716396E+03</pdfrwt>
<pdfrwt beam="2">  1       -2 0.11863250E-01 0.26716396E+03</pdfrwt>
<totfact> 0.72421658E+03</totfact>
</mgrwt>
</event>
<event>
 9    1  0.8093459E-001  0.2754504E+03  0.7818608E-02  0.1098200E+00
          1   -1    0    0  501    0  0.00000000000E+00  0.00000000000E+00  0.19505394267E+04  0.19505394267E+04  0.00000000000E+00 0.  1.
         -1   -1    0    0    0  501 -0.00000000000E+00 -0.00000000000E+00 -0.97246099011E+01  0.97246099011E+01  0.00000000000E+00 0.  1.
         35    2    1    2    0    0  0.00000000000E+00 -0.71054273576E-14  0.19408148168E+04  0.19602640366E+04  0.27545043127E+03 0.  0.
         25    2    3    3    0    0  0.19216326240E+02 -0.48330928868E+02  0.11317784789E+04  0.11399203304E+04  0.12566100580E+03 0.  0.
         25    2    3    3    0    0 -0.19216326240E+02  0.48330928868E+02  0.80903633788E+03  0.82034370622E+03  0.12537485575E+03 0.  0.
          5    1    4    4  502    0 -0.81457136456E+01  0.40146837534E+02  0.44571896511E+03  0.44762217000E+03  0.47000000000E+01 0. -1.
         -5    1    4    4    0  502  0.27362039886E+02 -0.88477766402E+02  0.68605951383E+03  0.69229816040E+03  0.47000000000E+01 0. -1.
          5    1    5    5  503    0 -0.34060221331E+02  0.78756712138E+02  0.36440197328E+03  0.37439765826E+03  0.47000000000E+01 0. -1.
         -5    1    5    5    0  503  0.14843895091E+02 -0.30425783270E+02  0.44463436460E+03  0.44594604796E+03  0.47000000000E+01 0. -1.
<mgrwt>
<rscale>  0 0.27545043E+03</rscale>
<asrwt>0</asrwt>
<pdfrwt beam="1">  1        1 0.30008268E+00 0.27545043E+03</pdfrwt>
<pdfrwt beam="2">  1       -1 0.14960954E-02 0.27545043E+03</pdfrwt>
<totfact> 0.38060486E+03</totfact>
</mgrwt>
</event>
<event>
 9    1  0.8093459E-001  0.2816533E+03  0.7818608E-02  0.1094789E+00
         -2   -1    0    0    0  501 -0.00000000000E+00  0.00000000000E+00  0.27257350449E+03  0.27257350449E+03  0.00000000000E+00 0.  1.
          2   -1    0    0  501    0  0.00000000000E+00 -0.00000000000E+00 -0.72758888046E+02  0.72758888046E+02  0.00000000000E+00 0.  1.
         35    2    1    2    0    0  0.00000000000E+00 -0.35527136788E-14  0.19981461644E+03  0.34533239253E+03  0.28165329820E+03 0.  0.
         25    2    3    3    0    0 -0.18568661500E+02 -0.28732206032E+02  0.31351777694E+02  0.13338818853E+03  0.12505654730E+03 0.  0.
         25    2    3    3    0    0  0.18568661500E+02  0.28732206032E+02  0.16846283875E+03  0.21194420400E+03  0.12397694430E+03 0.  0.
          5    1    4    4  502    0  0.53199358552E+02 -0.94224640340E+01  0.21211912854E+02  0.58232206086E+02  0.47000000000E+01 0.  1.
         -5    1    4    4    0  502 -0.71768020052E+02 -0.19309741998E+02  0.10139864840E+02  0.75155982444E+02  0.47000000000E+01 0.  1.
          5    1    5    5  503    0  0.23243838734E+01  0.27408546002E+02  0.18568575353E+03  0.18777092485E+03  0.47000000000E+01 0. -1.
         -5    1    5    5    0  503  0.16244277627E+02  0.13236600298E+01 -0.17222914783E+02  0.24173279155E+02  0.47000000000E+01 0. -1.
<mgrwt>
<rscale>  0 0.28165330E+03</rscale>
<asrwt>0</asrwt>
<pdfrwt beam="1">  1        2 0.11193675E-01 0.28165330E+03</pdfrwt>
<pdfrwt beam="2">  1       -2 0.41934385E-01 0.28165330E+03</pdfrwt>
<totfact> 0.30184292E+03</totfact>
</mgrwt>
</event>
<event>
 9    1  0.8093459E-001  0.2784462E+03  0.7818608E-02  0.1096541E+00
          1   -1    0    0  501    0  0.00000000000E+00  0.00000000000E+00  0.25702306295E+02  0.25702306295E+02  0.00000000000E+00 0. -1.
         -1   -1    0    0    0  501 -0.00000000000E+00 -0.00000000000E+00 -0.75413725785E+03  0.75413725785E+03  0.00000000000E+00 0. -1.
         35    2    1    2    0    0  0.14210854715E-13  0.00000000000E+00 -0.72843495155E+03  0.77983956414E+03  0.27844616564E+03 0.  0.
         25    2    3    3    0    0 -0.57089873431E+02 -0.11789778072E+02 -0.37627533515E+03  0.40083242020E+03  0.12524076304E+03 0.  0.
         25    2    3    3    0    0  0.57089873431E+02  0.11789778072E+02 -0.35215961640E+03  0.37900714394E+03  0.12740395291E+03 0.  0.
          5    1    4    4  502    0  0.26546875513E+02 -0.15359654060E+02 -0.23118674623E+03  0.23325963476E+03  0.47000000000E+01 0.  1.
         -5    1    4    4    0  502 -0.83636748943E+02  0.35698759888E+01 -0.14508858892E+03  0.16757278545E+03  0.47000000000E+01 0.  1.
          5    1    5    5  503    0 -0.33026999934E+02 -0.12128408941E+02 -0.17698417849E+03  0.18050864373E+03  0.47000000000E+01 0.  1.
         -5    1    5    5    0  503  0.90116873365E+02  0.23918187012E+02 -0.17517543792E+03  0.19849850021E+03  0.47000000000E+01 0.  1.
<mgrwt>
<rscale>  0 0.27844617E+03</rscale>
<asrwt>0</asrwt>
<pdfrwt beam="1">  1        1 0.39542009E-02 0.27844617E+03</pdfrwt>
<pdfrwt beam="2">  1       -1 0.11602112E+00 0.27844617E+03</pdfrwt>
<totfact> 0.16551168E+03</totfact>
</mgrwt>
</event>
<event>
 9    1  0.8093459E-001  0.2730663E+03  0.7818608E-02  0.1099537E+00
          1   -1    0    0  501    0  0.00000000000E+00  0.00000000000E+00  0.48840090618E+03  0.48840090618E+03  0.00000000000E+00 0.  1.
         -1   -1    0    0    0  501 -0.00000000000E+00 -0.00000000000E+00 -0.38168018272E+02  0.38168018272E+02  0.00000000000E+00 0.  1.
         35    2    1    2    0    0  0.00000000000E+00  0.00000000000E+00  0.45023288791E+03  0.52656892446E+03  0.27306625358E+03 0.  0.
         25    2    3    3    0    0 -0.34545914847E+02 -0.20001078871E+02  0.27042043023E+03  0.30054217822E+03  0.12491968786E+03 0.  0.
         25    2    3    3    0    0  0.34545914847E+02  0.20001078871E+02  0.17981245768E+03  0.22602674624E+03  0.13100422393E+03 0.  0.
          5    1    4    4  502    0  0.18297673149E+02 -0.46794337727E+01  0.23305871114E+03  0.23386995271E+03  0.47000000000E+01 0. -1.
         -5    1    4    4    0  502 -0.52843587995E+02 -0.15321645098E+02  0.37361719088E+02  0.66672225506E+02  0.47000000000E+01 0. -1.
          5    1    5    5  503    0 -0.81853054392E+01 -0.19534248683E+02  0.16412416825E+03  0.16555186106E+03  0.47000000000E+01 0.  1.
         -5    1    5    5    0  503  0.42731220286E+02  0.39535327554E+02  0.15688289435E+02  0.60474885179E+02  0.47000000000E+01 0.  1.
<mgrwt>
<rscale>  0 0.27306625E+03</rscale>
<asrwt>0</asrwt>
<pdfrwt beam="1">  1        1 0.75138596E-01 0.27306625E+03</pdfrwt>
<pdfrwt beam="2">  1       -1 0.58720032E-02 0.27306625E+03</pdfrwt>
<totfact> 0.63995158E+03</totfact>
</mgrwt>
</event>
<event>
 9    1  0.8093459E-001  0.2764396E+03  0.7818608E-02  0.1097650E+00
          1   -1    0    0  501    0  0.00000000000E+00  0.00000000000E+00  0.11069210117E+03  0.11069210117E+03  0.00000000000E+00 0. -1.
         -1   -1    0    0    0  501 -0.00000000000E+00 -0.00000000000E+00 -0.17259328234E+03  0.17259328234E+03  0.00000000000E+00 0. -1.
         35    2    1    2    0    0  0.00000000000E+00  0.35527136788E-14 -0.61901181164E+02  0.28328538351E+03  0.27643959970E+03 0.  0.
         25    2    3    3    0    0  0.79707446673E+01  0.10923257431E+02 -0.89942185461E+02  0.15455501640E+03  0.12495921753E+03 0.  0.
         25    2    3    3    0    0 -0.79707446673E+01 -0.10923257431E+02  0.28041004297E+02  0.12873036711E+03  0.12490940385E+03 0.  0.
          5    1    4    4  502    0  0.38667127466E+02  0.14177163442E+02 -0.10992719576E+03  0.11748283738E+03  0.47000000000E+01 0.  1.
         -5    1    4    4    0  502 -0.30696382799E+02 -0.32539060103E+01  0.19985010301E+02  0.37072179029E+02  0.47000000000E+01 0.  1.
          5    1    5    5  503    0 -0.26548469679E+02  0.28603061002E+02 -0.34502933833E+02  0.52301995986E+02  0.47000000000E+01 0.  1.
         -5    1    5    5    0  503  0.18577725012E+02 -0.39526318433E+02  0.62543938130E+02  0.76428371122E+02  0.47000000000E+01 0.  1.
<mgrwt>
<rscale>  0 0.27643960E+03</rscale>
<asrwt>0</asrwt>
<pdfrwt beam="1">  1        1 0.17029554E-01 0.27643960E+03</pdfrwt>
<pdfrwt beam="2">  1       -1 0.26552812E-01 0.27643960E+03</pdfrwt>
<totfact> 0.39428693E+03</totfact>
</mgrwt>
</event>
<event>
 9    1  0.8093459E-001  0.2759561E+03  0.7818608E-02  0.1097918E+00
          2   -1    0    0  501    0  0.00000000000E+00  0.00000000000E+00  0.22056026270E+02  0.22056026270E+02  0.00000000000E+00 0. -1.
         -2   -1    0    0    0  501 -0.00000000000E+00 -0.00000000000E+00 -0.86316306256E+03  0.86316306256E+03  0.00000000000E+00 0. -1.
         35    2    1    2    0    0 -0.71054273576E-14  0.00000000000E+00 -0.84110703629E+03  0.88521908883E+03  0.27595613553E+03 0.  0.
         25    2    3    3    0    0 -0.35513921233E+02  0.42776025901E+01 -0.56649282173E+03  0.58132961613E+03  0.12550087263E+03 0.  0.
         25    2    3    3    0    0  0.35513921233E+02 -0.42776025901E+01 -0.27461421456E+03  0.30388947271E+03  0.12512517052E+03 0.  0.
          5    1    4    4  502    0 -0.11081626823E+02  0.64193320644E+02 -0.26414383217E+03  0.27209858313E+03  0.47000000000E+01 0. -1.
         -5    1    4    4    0  502 -0.24432294410E+02 -0.59915718054E+02 -0.30234898956E+03  0.30923103300E+03  0.47000000000E+01 0. -1.
          5    1    5    5  503    0  0.18002974672E+02 -0.60702091641E+02 -0.91089368169E+02  0.11103249083E+03  0.47000000000E+01 0. -1.
         -5    1    5    5    0  503  0.17510946561E+02  0.56424489051E+02 -0.18352484639E+03  0.19285698187E+03  0.47000000000E+01 0. -1.
<mgrwt>
<rscale>  0 0.27595614E+03</rscale>
<asrwt>0</asrwt>
<pdfrwt beam="1">  1        2 0.33932347E-02 0.27595614E+03</pdfrwt>
<pdfrwt beam="2">  1       -2 0.13279432E+00 0.27595614E+03</pdfrwt>
<totfact> 0.11454778E+03</totfact>
</mgrwt>
</event>
<event>
 9    1  0.8093459E-001  0.2743186E+03  0.7818608E-02  0.1098833E+00
          2   -1    0    0  501    0  0.00000000000E+00  0.00000000000E+00  0.96205880297E+03  0.96205880297E+03  0.00000000000E+00 0. -1.
         -2   -1    0    0    0  501 -0.00000000000E+00 -0.00000000000E+00 -0.19554591883E+02  0.19554591883E+02  0.00000000000E+00 0. -1.
         35    2    1    2    0    0 -0.35527136788E-14 -0.71054273576E-14  0.94250421109E+03  0.98161339485E+03  0.27431855395E+03 0.  0.
         25    2    3    3    0    0  0.87266675841E+01 -0.32162012365E+02  0.63564005703E+03  0.64858607102E+03  0.12455946230E+03 0.  0.
         25    2    3    3    0    0 -0.87266675841E+01  0.32162012365E+02  0.30686415405E+03  0.33302732383E+03  0.12502415611E+03 0.  0.
          5    1    4    4  502    0  0.17017228333E+02  0.45600737655E+02  0.29724846911E+03  0.30124368163E+03  0.47000000000E+01 0.  1.
         -5    1    4    4    0  502 -0.82905607492E+01 -0.77762750021E+02  0.33839158792E+03  0.34734238938E+03  0.47000000000E+01 0.  1.
          5    1    5    5  503    0 -0.41722554116E+02 -0.34616320976E+02  0.14142415415E+03  0.15153198533E+03  0.47000000000E+01 0.  1.
         -5    1    5    5    0  503  0.32995886532E+02  0.66778333342E+02  0.16543999990E+03  0.18149533850E+03  0.47000000000E+01 0.  1.
<mgrwt>
<rscale>  0 0.27431855E+03</rscale>
<asrwt>0</asrwt>
<pdfrwt beam="1">  1        2 0.14800901E+00 0.27431855E+03</pdfrwt>
<pdfrwt beam="2">  1       -2 0.30083995E-02 0.27431855E+03</pdfrwt>
<totfact> 0.11661872E+04</totfact>
</mgrwt>
</event>
<event>
 9    1  0.8093459E-001  0.2776458E+03  0.7818608E-02  0.1096982E+00
         -3   -1    0    0    0  501 -0.00000000000E+00  0.00000000000E+00  0.96551410355E+03  0.96551410355E+03  0.00000000000E+00 0.  1.
          3   -1    0    0  501    0  0.00000000000E+00 -0.00000000000E+00 -0.19960138154E+02  0.19960138154E+02  0.00000000000E+00 0.  1.
         35    2    1    2    0    0  0.00000000000E+00  0.00000000000E+00  0.94555396540E+03  0.98547424171E+03  0.27764578079E+03 0.  0.
         25    2    3    3    0    0 -0.25787870034E+02 -0.42978578745E+00  0.28260458680E+03  0.31032392761E+03  0.12558020788E+03 0.  0.
         25    2    3    3    0    0  0.25787870034E+02  0.42978578745E+00  0.66294937860E+03  0.67515031410E+03  0.12514339409E+03 0.  0.
          5    1    4    4  502    0 -0.66126793897E+02  0.76023001043E+01  0.83128567335E+02  0.10659735712E+03  0.47000000000E+01 0. -1.
         -5    1    4    4    0  502  0.40338923863E+02 -0.80320858917E+01  0.19947601946E+03  0.20372657049E+03  0.47000000000E+01 0. -1.
          5    1    5    5  503    0  0.72008745731E+01 -0.27734616924E+02  0.31725655437E+02  0.43007775848E+02  0.47000000000E+01 0.  1.
         -5    1    5    5    0  503  0.18586995461E+02  0.28164402711E+02  0.63122372316E+03  0.63214253825E+03  0.47000000000E+01 0.  1.
<mgrwt>
<rscale>  0 0.27764578E+03</rscale>
<asrwt>0</asrwt>
<pdfrwt beam="1">  1        3 0.30707912E-02 0.27764578E+03</pdfrwt>
<pdfrwt beam="2">  1       -3 0.14854059E+00 0.27764578E+03</pdfrwt>
<totfact> 0.43691953E+02</totfact>
</mgrwt>
</event>
<event>
 9    1  0.8093459E-001  0.2758591E+03  0.7818608E-02  0.1097972E+00
          2   -1    0    0  501    0  0.00000000000E+00  0.00000000000E+00  0.20580793447E+04  0.20580793447E+04  0.00000000000E+00 0.  1.
         -2   -1    0    0    0  501 -0.00000000000E+00 -0.00000000000E+00 -0.92438436930E+01  0.92438436930E+01  0.00000000000E+00 0.  1.
         35    2    1    2    0    0  0.35527136788E-14  0.71054273576E-14  0.20488355010E+04  0.20673231884E+04  0.27585912180E+03 0.  0.
         25    2    3    3    0    0  0.15666895083E+02  0.49278973984E+02  0.82716893231E+03  0.83821222242E+03  0.12536912845E+03 0.  0.
         25    2    3    3    0    0 -0.15666895083E+02 -0.49278973984E+02  0.12216665687E+04  0.12291109660E+04  0.12478258174E+03 0.  0.
          5    1    4    4  502    0  0.32702049133E+02 -0.79746710875E+01  0.65561528278E+03  0.65649562711E+03  0.47000000000E+01 0.  1.
         -5    1    4    4    0  502 -0.17035154050E+02  0.57253645072E+02  0.17155364952E+03  0.18171659531E+03  0.47000000000E+01 0.  1.
          5    1    5    5  503    0 -0.46989230435E+02 -0.55454157743E+01  0.99368047743E+03  0.99481743081E+03  0.47000000000E+01 0. -1.
         -5    1    5    5    0  503  0.31322335352E+02 -0.43733558210E+02  0.22798609126E+03  0.23429353515E+03  0.47000000000E+01 0. -1.
<mgrwt>
<rscale>  0 0.27585912E+03</rscale>
<asrwt>0</asrwt>
<pdfrwt beam="1">  1        2 0.31662723E+00 0.27585912E+03</pdfrwt>
<pdfrwt beam="2">  1       -2 0.14221314E-02 0.27585912E+03</pdfrwt>
<totfact> 0.88319390E+03</totfact>
</mgrwt>
</event>
<event>
 9    1  0.8093459E-001  0.2704866E+03  0.7818608E-02  0.1101001E+00
         -2   -1    0    0    0  501 -0.00000000000E+00  0.00000000000E+00  0.30100535921E+03  0.30100535921E+03  0.00000000000E+00 0. -1.
          2   -1    0    0  501    0  0.00000000000E+00 -0.00000000000E+00 -0.60765542130E+02  0.60765542130E+02  0.00000000000E+00 0. -1.
         35    2    1    2    0    0  0.00000000000E+00 -0.71054273576E-14  0.24023981708E+03  0.36177090134E+03  0.27048662693E+03 0.  0.
         25    2    3    3    0    0  0.17630317702E+02 -0.22025158255E+02  0.17470406730E+03  0.21674086676E+03  0.12513655139E+03 0.  0.
         25    2    3    3    0    0 -0.17630317702E+02  0.22025158255E+02  0.65535749782E+02  0.14503003458E+03  0.12626496241E+03 0.  0.
          5    1    4    4  502    0  0.55868677252E+02 -0.49429335328E+02  0.72490640089E+02  0.10412276979E+03  0.47000000000E+01 0.  1.
         -5    1    4    4    0  502 -0.38238359549E+02  0.27404177073E+02  0.10221342721E+03  0.11261809696E+03  0.47000000000E+01 0.  1.
          5    1    5    5  503    0  0.26017877324E+02  0.19743162880E+02  0.89198524249E+02  0.95106199321E+02  0.47000000000E+01 0.  1.
         -5    1    5    5    0  503 -0.43648195026E+02  0.22819953754E+01 -0.23662774467E+02  0.49923835263E+02  0.47000000000E+01 0.  1.
<mgrwt>
<rscale>  0 0.27048663E+03</rscale>
<asrwt>0</asrwt>
<pdfrwt beam="1">  1        2 0.93485451E-02 0.27048663E+03</pdfrwt>
<pdfrwt beam="2">  1       -2 0.46308516E-01 0.27048663E+03</pdfrwt>
<totfact> 0.31071267E+03</totfact>
</mgrwt>
</event>
<event>
 9    1  0.8093459E-001  0.2762946E+03  0.7818608E-02  0.1097730E+00
         -1   -1    0    0    0  501 -0.00000000000E+00  0.00000000000E+00  0.23220343696E+02  0.23220343696E+02  0.00000000000E+00 0. -1.
          1   -1    0    0  501    0  0.00000000000E+00 -0.00000000000E+00 -0.82189466402E+03  0.82189466402E+03  0.00000000000E+00 0. -1.
         35    2    1    2    0    0  0.00000000000E+00  0.00000000000E+00 -0.79867432033E+03  0.84511500772E+03  0.27629460060E+03 0.  0.
         25    2    3    3    0    0  0.19535701047E+02 -0.43698650450E+01 -0.56592396780E+03  0.57991028358E+03  0.12500104130E+03 0.  0.
         25    2    3    3    0    0 -0.19535701047E+02  0.43698650450E+01 -0.23275035253E+03  0.26520472414E+03  0.12553915633E+03 0.  0.
          5    1    4    4  502    0 -0.11093271063E+02 -0.41290638230E+02 -0.47550021159E+03  0.47744163904E+03  0.47000000000E+01 0.  1.
         -5    1    4    4    0  502  0.30628972110E+02  0.36920773185E+02 -0.90423756214E+02  0.10246864454E+03  0.47000000000E+01 0.  1.
          5    1    5    5  503    0  0.14995937715E+02  0.39445917931E+02 -0.20277688203E+02  0.47054577123E+02  0.47000000000E+01 0. -1.
         -5    1    5    5    0  503 -0.34531638761E+02 -0.35076052886E+02 -0.21247266432E+03  0.21815014702E+03  0.47000000000E+01 0. -1.
<mgrwt>
<rscale>  0 0.27629460E+03</rscale>
<asrwt>0</asrwt>
<pdfrwt beam="1">  1        1 0.12644533E+00 0.27629460E+03</pdfrwt>
<pdfrwt beam="2">  1       -1 0.35723608E-02 0.27629460E+03</pdfrwt>
<totfact> 0.64198778E+03</totfact>
</mgrwt>
</event>
<event>
 9    1  0.8093459E-001  0.2735994E+03  0.7818608E-02  0.1099237E+00
          2   -1    0    0  501    0  0.00000000000E+00  0.00000000000E+00  0.15292903322E+03  0.15292903322E+03  0.00000000000E+00 0.  1.
         -2   -1    0    0    0  501 -0.00000000000E+00 -0.00000000000E+00 -0.12237153071E+03  0.12237153071E+03  0.00000000000E+00 0.  1.
         35    2    1    2    0    0 -0.71054273576E-14  0.00000000000E+00  0.30557502504E+02  0.27530056393E+03  0.27359941437E+03 0.  0.
         25    2    3    3    0    0  0.23715681142E+02 -0.47618682541E+02  0.27989375295E+02  0.13852303484E+03  0.12480085574E+03 0.  0.
         25    2    3    3    0    0 -0.23715681142E+02  0.47618682541E+02  0.25681272096E+01  0.13677752909E+03  0.12598223973E+03 0.  0.
          5    1    4    4  502    0 -0.23451105701E+02  0.15940698883E+02 -0.29037192121E+02  0.40857175205E+02  0.47000000000E+01 0. -1.
         -5    1    4    4    0  502  0.47166786843E+02 -0.63559381423E+02  0.57026567415E+02  0.97665859640E+02  0.47000000000E+01 0. -1.
          5    1    5    5  503    0 -0.37891667028E+02 -0.34294410389E+01 -0.49323428730E+02  0.62469433467E+02  0.47000000000E+01 0. -1.
         -5    1    5    5    0  503  0.14175985886E+02  0.51048123580E+02  0.51891555940E+02  0.74308095620E+02  0.47000000000E+01 0. -1.
<mgrwt>
<rscale>  0 0.27359941E+03</rscale>
<asrwt>0</asrwt>
<pdfrwt beam="1">  1        2 0.23527543E-01 0.27359941E+03</pdfrwt>
<pdfrwt beam="2">  1       -2 0.18826389E-01 0.27359941E+03</pdfrwt>
<totfact> 0.53351878E+03</totfact>
</mgrwt>
</event>
<event>
 9    1  0.8093459E-001  0.2746626E+03  0.7818608E-02  0.1098640E+00
          2   -1    0    0  501    0  0.00000000000E+00  0.00000000000E+00  0.14768519820E+04  0.14768519820E+04  0.00000000000E+00 0. -1.
         -2   -1    0    0    0  501 -0.00000000000E+00 -0.00000000000E+00 -0.12770326498E+02  0.12770326498E+02  0.00000000000E+00 0. -1.
         35    2    1    2    0    0  0.14210854715E-13 -0.35527136788E-14  0.14640816555E+04  0.14896223085E+04  0.27466257116E+03 0.  0.
         25    2    3    3    0    0 -0.53263544906E+02  0.11439292426E+02  0.83786387464E+03  0.84882664624E+03  0.12459109248E+03 0.  0.
         25    2    3    3    0    0  0.53263544906E+02 -0.11439292426E+02  0.62621778082E+03  0.64079566221E+03  0.12450907221E+03 0.  0.
          5    1    4    4  502    0 -0.70282028641E+02 -0.39943310830E+02  0.45924113884E+03  0.46632557858E+03  0.47000000000E+01 0. -1.
         -5    1    4    4    0  502  0.17018483735E+02  0.51382603257E+02  0.37862273579E+03  0.38250106767E+03  0.47000000000E+01 0. -1.
          5    1    5    5  503    0 -0.36137272888E+02 -0.53311642280E+00  0.90899757917E+02  0.97933868985E+02  0.47000000000E+01 0.  1.
         -5    1    5    5    0  503  0.89400817793E+02 -0.10906176004E+02  0.53531802290E+03  0.54286179322E+03  0.47000000000E+01 0.  1.
<mgrwt>
<rscale>  0 0.27466257E+03</rscale>
<asrwt>0</asrwt>
<pdfrwt beam="1">  1        2 0.22720786E+00 0.27466257E+03</pdfrwt>
<pdfrwt beam="2">  1       -2 0.19646668E-02 0.27466257E+03</pdfrwt>
<totfact> 0.11142161E+04</totfact>
</mgrwt>
</event>
<event>
 9    1  0.8093459E-001  0.2837428E+03  0.7818608E-02  0.1093662E+00
         -1   -1    0    0    0  501 -0.00000000000E+00  0.00000000000E+00  0.20202550887E+03  0.20202550887E+03  0.00000000000E+00 0.  1.
          1   -1    0    0  501    0  0.00000000000E+00 -0.00000000000E+00 -0.99628477471E+02  0.99628477471E+02  0.00000000000E+00 0.  1.
         35    2    1    2    0    0  0.71054273576E-14  0.00000000000E+00  0.10239703140E+03  0.30165398634E+03  0.28374279804E+03 0.  0.
         25    2    3    3    0    0  0.39426847654E+02  0.40006740703E+02  0.90789369446E+02  0.16399137828E+03  0.12448070906E+03 0.  0.
         25    2    3    3    0    0 -0.39426847654E+02 -0.40006740703E+02  0.11607661956E+02  0.13766260807E+03  0.12514487695E+03 0.  0.
          5    1    4    4  502    0 -0.15527240404E+02  0.62099785511E+02  0.11976375118E+02  0.65291669576E+02  0.47000000000E+01 0.  1.
         -5    1    4    4    0  502  0.54954088058E+02 -0.22093044808E+02  0.78812994328E+02  0.98699708703E+02  0.47000000000E+01 0.  1.
          5    1    5    5  503    0 -0.47534879280E+02 -0.42835204566E+01 -0.47799598513E+02  0.67711187507E+02  0.47000000000E+01 0.  1.
         -5    1    5    5    0  503  0.81080316257E+01 -0.35723220246E+02  0.59407260469E+02  0.69951420558E+02  0.47000000000E+01 0.  1.
<mgrwt>
<rscale>  0 0.28374280E+03</rscale>
<asrwt>0</asrwt>
<pdfrwt beam="1">  1        1 0.15327458E-01 0.28374280E+03</pdfrwt>
<pdfrwt beam="2">  1       -1 0.31080847E-01 0.28374280E+03</pdfrwt>
<totfact> 0.34684896E+03</totfact>
</mgrwt>
</event>
<event>
 9    1  0.8093459E-001  0.2770199E+03  0.7818608E-02  0.1097328E+00
         -2   -1    0    0    0  501 -0.00000000000E+00  0.00000000000E+00  0.76475024124E+02  0.76475024124E+02  0.00000000000E+00 0. -1.
          2   -1    0    0  501    0  0.00000000000E+00 -0.00000000000E+00 -0.25086627255E+03  0.25086627255E+03  0.00000000000E+00 0. -1.
         35    2    1    2    0    0 -0.35527136788E-14 -0.71054273576E-14 -0.17439124843E+03  0.32734129667E+03  0.27701988553E+03 0.  0.
         25    2    3    3    0    0  0.57103497308E+01  0.52338806265E+02 -0.98526525241E+02  0.16791078272E+03  0.12535787187E+03 0.  0.
         25    2    3    3    0    0 -0.57103497308E+01 -0.52338806265E+02 -0.75864723185E+02  0.15943051396E+03  0.12996412513E+03 0.  0.
          5    1    4    4  502    0  0.32858636639E+02  0.85540403977E+02 -0.56939808148E+02  0.10798649205E+03  0.47000000000E+01 0. -1.
         -5    1    4    4    0  502 -0.27148286909E+02 -0.33201597711E+02 -0.41586717093E+02  0.59924290661E+02  0.47000000000E+01 0. -1.
          5    1    5    5  503    0  0.37034031140E+02 -0.59622152055E+01  0.21377938874E+02  0.43430101809E+02  0.47000000000E+01 0.  1.
         -5    1    5    5    0  503 -0.42744380870E+02 -0.46376591060E+02 -0.97242662059E+02  0.11600041215E+03  0.47000000000E+01 0.  1.
<mgrwt>
<rscale>  0 0.27701989E+03</rscale>
<asrwt>0</asrwt>
<pdfrwt beam="1">  1        2 0.38594811E-01 0.27701989E+03</pdfrwt>
<pdfrwt beam="2">  1       -2 0.11765389E-01 0.27701989E+03</pdfrwt>
<totfact> 0.67346701E+03</totfact>
</mgrwt>
</event>
<event>
 9    1  0.8093459E-001  0.2747165E+03  0.7818608E-02  0.1098610E+00
          1   -1    0    0  501    0  0.00000000000E+00  0.00000000000E+00  0.61289469524E+03  0.61289469524E+03  0.00000000000E+00 0. -1.
         -1   -1    0    0    0  501 -0.00000000000E+00 -0.00000000000E+00 -0.30783899747E+02  0.30783899747E+02  0.00000000000E+00 0. -1.
         35    2    1    2    0    0  0.00000000000E+00  0.00000000000E+00  0.58211079549E+03  0.64367859499E+03  0.27471650008E+03 0.  0.
         25    2    3    3    0    0  0.50253113019E+02 -0.26451009616E+02  0.28233384363E+03  0.31392656531E+03  0.12494982141E+03 0.  0.
         25    2    3    3    0    0 -0.50253113019E+02  0.26451009616E+02  0.29977695186E+03  0.32975202968E+03  0.12508056975E+03 0.  0.
          5    1    4    4  502    0  0.89036095754E+02 -0.14466310186E+02  0.23282125794E+03  0.24972891028E+03  0.47000000000E+01 0. -1.
         -5    1    4    4    0  502 -0.38782982736E+02 -0.11984699430E+02  0.49512585687E+02  0.64197655033E+02  0.47000000000E+01 0. -1.
          5    1    5    5  503    0 -0.89815958486E+02  0.11863288795E+02  0.16298106659E+03  0.18652764430E+03  0.47000000000E+01 0. -1.
         -5    1    5    5    0  503  0.39562845468E+02  0.14587720821E+02  0.13679588527E+03  0.14322438538E+03  0.47000000000E+01 0. -1.
<mgrwt>
<rscale>  0 0.27471650E+03</rscale>
<asrwt>0</asrwt>
<pdfrwt beam="1">  1        1 0.94291483E-01 0.27471650E+03</pdfrwt>
<pdfrwt beam="2">  1       -1 0.47359850E-02 0.27471650E+03</pdfrwt>
<totfact> 0.64949218E+03</totfact>
</mgrwt>
</event>
<event>
 9    1  0.8093459E-001  0.2778427E+03  0.7818608E-02  0.1096873E+00
         -4   -1    0    0    0  501 -0.00000000000E+00  0.00000000000E+00  0.33007978993E+02  0.33007978993E+02  0.00000000000E+00 0. -1.
          4   -1    0    0  501    0  0.00000000000E+00 -0.00000000000E+00 -0.58468094218E+03  0.58468094218E+03  0.00000000000E+00 0. -1.
         35    2    1    2    0    0  0.00000000000E+00  0.44408920985E-15 -0.55167296319E+03  0.61768892117E+03  0.27784266236E+03 0.  0.
         25    2    3    3    0    0  0.20237187810E+02 -0.15615563961E+01 -0.40434664291E+03  0.42371382726E+03  0.12500087018E+03 0.  0.
         25    2    3    3    0    0 -0.20237187810E+02  0.15615563961E+01 -0.14732632027E+03  0.19397509391E+03  0.12453638097E+03 0.  0.
          5    1    4    4  502    0  0.54105011545E+02 -0.71328660192E+01 -0.76755334221E+02  0.94295818483E+02  0.47000000000E+01 0. -1.
         -5    1    4    4    0  502 -0.33867823735E+02  0.55713096231E+01 -0.32759130869E+03  0.32941800878E+03  0.47000000000E+01 0. -1.
          5    1    5    5  503    0 -0.72189885953E+02  0.39734062963E+01 -0.70580186102E+02  0.10114751733E+03  0.47000000000E+01 0. -1.
         -5    1    5    5    0  503  0.51952698143E+02 -0.24118499003E+01 -0.76746134168E+02  0.92827576582E+02  0.47000000000E+01 0. -1.
<mgrwt>
<rscale>  0 0.27784266E+03</rscale>
<asrwt>0</asrwt>
<pdfrwt beam="1">  1        4 0.89950927E-01 0.27784266E+03</pdfrwt>
<pdfrwt beam="2">  1       -4 0.50781499E-02 0.27784266E+03</pdfrwt>
<totfact> 0.47620777E+02</totfact>
</mgrwt>
</event>
<event>
 9    1  0.8093459E-001  0.2750825E+03  0.7818608E-02  0.1098405E+00
         -2   -1    0    0    0  501 -0.00000000000E+00  0.00000000000E+00  0.11777510042E+02  0.11777510042E+02  0.00000000000E+00 0.  1.
          2   -1    0    0  501    0  0.00000000000E+00 -0.00000000000E+00 -0.16062476006E+04  0.16062476006E+04  0.00000000000E+00 0.  1.
         35    2    1    2    0    0 -0.71054273576E-14  0.00000000000E+00 -0.15944700906E+04  0.16180251107E+04  0.27508251304E+03 0.  0.
         25    2    3    3    0    0  0.31065885876E+02  0.73852575662E+01 -0.51762861782E+03  0.53344744087E+03  0.12492859917E+03 0.  0.
         25    2    3    3    0    0 -0.31065885876E+02 -0.73852575662E+01 -0.10768414728E+04  0.10845776698E+04  0.12530575830E+03 0.  0.
          5    1    4    4  502    0 -0.17606314231E+02 -0.30813030518E+02 -0.38890420422E+03  0.39054832634E+03  0.47000000000E+01 0. -1.
         -5    1    4    4    0  502  0.48672200107E+02  0.38198288084E+02 -0.12872441360E+03  0.14289911453E+03  0.47000000000E+01 0. -1.
          5    1    5    5  503    0 -0.30469196401E+02  0.37406757055E+02 -0.92315526216E+03  0.92442704712E+03  0.47000000000E+01 0.  1.
         -5    1    5    5    0  503 -0.59668947545E+00 -0.44792014621E+02 -0.15368621060E+03  0.16015062266E+03  0.47000000000E+01 0.  1.
<mgrwt>
<rscale>  0 0.27508251E+03</rscale>
<asrwt>0</asrwt>
<pdfrwt beam="1">  1        2 0.24711480E+00 0.27508251E+03</pdfrwt>
<pdfrwt beam="2">  1       -2 0.18119262E-02 0.27508251E+03</pdfrwt>
<totfact> 0.10706889E+04</totfact>
</mgrwt>
</event>
<event>
 9    1  0.8093459E-001  0.2615970E+03  0.7818608E-02  0.1106187E+00
          2   -1    0    0  501    0  0.00000000000E+00  0.00000000000E+00  0.84613796599E+03  0.84613796599E+03  0.00000000000E+00 0.  1.
         -2   -1    0    0    0  501 -0.00000000000E+00 -0.00000000000E+00 -0.20219220476E+02  0.20219220476E+02  0.00000000000E+00 0.  1.
         35    2    1    2    0    0 -0.35527136788E-14  0.00000000000E+00  0.82591874551E+03  0.86635718646E+03  0.26159701900E+03 0.  0.
         25    2    3    3    0    0  0.94179390193E+01 -0.23720734271E+02  0.50481200907E+03  0.52088669195E+03  0.12584280093E+03 0.  0.
         25    2    3    3    0    0 -0.94179390193E+01  0.23720734271E+02  0.32110673645E+03  0.34547049451E+03  0.12485573907E+03 0.  0.
          5    1    4    4  502    0  0.41783530434E+02  0.32040977279E+02  0.12666372655E+03  0.13725260385E+03  0.47000000000E+01 0. -1.
         -5    1    4    4    0  502 -0.32365591415E+02 -0.55761711549E+02  0.37814828251E+03  0.38363408810E+03  0.47000000000E+01 0. -1.
          5    1    5    5  503    0 -0.38899963578E+02  0.49067704480E+02  0.28620428901E+03  0.29301165820E+03  0.47000000000E+01 0. -1.
         -5    1    5    5    0  503  0.29482024558E+02 -0.25346970210E+02  0.34902447433E+02  0.52458836317E+02  0.47000000000E+01 0. -1.
<mgrwt>
<rscale>  0 0.26159702E+03</rscale>
<asrwt>0</asrwt>
<pdfrwt beam="1">  1        2 0.13017504E+00 0.26159702E+03</pdfrwt>
<pdfrwt beam="2">  1       -2 0.31106500E-02 0.26159702E+03</pdfrwt>
<totfact> 0.13156389E+04</totfact>
</mgrwt>
</event>
<event>
 9    1  0.8093459E-001  0.2799435E+03  0.7818608E-02  0.1095720E+00
          1   -1    0    0  501    0  0.00000000000E+00  0.00000000000E+00  0.49262968484E+03  0.49262968484E+03  0.00000000000E+00 0.  1.
         -1   -1    0    0    0  501 -0.00000000000E+00 -0.00000000000E+00 -0.39770414299E+02  0.39770414299E+02  0.00000000000E+00 0.  1.
         35    2    1    2    0    0 -0.71054273576E-14  0.35527136788E-14  0.45285927054E+03  0.53240009914E+03  0.27994347045E+03 0.  0.
         25    2    3    3    0    0 -0.50729333498E+02  0.23082803744E+02  0.16612640350E+03  0.21505006050E+03  0.12466862266E+03 0.  0.
         25    2    3    3    0    0  0.50729333498E+02 -0.23082803744E+02  0.28673286704E+03  0.31735003864E+03  0.12405252467E+03 0.  0.
          5    1    4    4  502    0 -0.40032775240E+02 -0.95123594268E+01 -0.38399037000E+01  0.41592582701E+02  0.47000000000E+01 0. -1.
         -5    1    4    4    0  502 -0.10696558258E+02  0.32595163171E+02  0.16996630720E+03  0.17345747780E+03  0.47000000000E+01 0. -1.
          5    1    5    5  503    0  0.44779390688E+02 -0.15951955218E+02  0.29811994141E+03  0.30192258639E+03  0.47000000000E+01 0. -1.
         -5    1    5    5    0  503  0.59499428100E+01 -0.71308485266E+01 -0.11387074372E+02  0.15427452249E+02  0.47000000000E+01 0. -1.
<mgrwt>
<rscale>  0 0.27994347E+03</rscale>
<asrwt>0</asrwt>
<pdfrwt beam="1">  1        1 0.75789178E-01 0.27994347E+03</pdfrwt>
<pdfrwt beam="2">  1       -1 0.61185256E-02 0.27994347E+03</pdfrwt>
<totfact> 0.59508382E+03</totfact>
</mgrwt>
</event>
<event>
 9    1  0.8093459E-001  0.2727315E+03  0.7818608E-02  0.1099726E+00
          2   -1    0    0  501    0  0.00000000000E+00  0.00000000000E+00  0.33971638591E+02  0.33971638591E+02  0.00000000000E+00 0.  1.
         -2   -1    0    0    0  501 -0.00000000000E+00 -0.00000000000E+00 -0.54738651615E+03  0.54738651615E+03  0.00000000000E+00 0.  1.
         35    2    1    2    0    0  0.14210854715E-13  0.00000000000E+00 -0.51341487756E+03  0.58135815474E+03  0.27273149357E+03 0.  0.
         25    2    3    3    0    0  0.35290769878E+02  0.69956596706E+01 -0.16919284875E+03  0.21328624963E+03  0.12478151514E+03 0.  0.
         25    2    3    3    0    0 -0.35290769878E+02 -0.69956596706E+01 -0.34422202881E+03  0.36807190511E+03  0.12527467630E+03 0.  0.
          5    1    4    4  502    0  0.80608587199E+02  0.26653175301E+01 -0.12986353805E+03  0.15294272380E+03  0.47000000000E+01 0. -1.
         -5    1    4    4    0  502 -0.45317817321E+02  0.43303421405E+01 -0.39329310700E+02  0.60343525833E+02  0.47000000000E+01 0. -1.
          5    1    5    5  503    0 -0.76129178198E+02 -0.59206182689E+01 -0.29057506461E+03  0.30047739294E+03  0.47000000000E+01 0. -1.
         -5    1    5    5    0  503  0.40838408319E+02 -0.10750414017E+01 -0.53646964200E+02  0.67594512173E+02  0.47000000000E+01 0. -1.
<mgrwt>
<rscale>  0 0.27273149E+03</rscale>
<asrwt>0</asrwt>
<pdfrwt beam="1">  1        2 0.52264064E-02 0.27273149E+03</pdfrwt>
<pdfrwt beam="2">  1       -2 0.84213303E-01 0.27273149E+03</pdfrwt>
<totfact> 0.18791987E+03</totfact>
</mgrwt>
</event>
<event>
 9    1  0.8093459E-001  0.2743711E+03  0.7818608E-02  0.1098804E+00
          1   -1    0    0  501    0  0.00000000000E+00  0.00000000000E+00  0.10729111156E+03  0.10729111156E+03  0.00000000000E+00 0. -1.
         -1   -1    0    0    0  501 -0.00000000000E+00 -0.00000000000E+00 -0.17540939803E+03  0.17540939803E+03  0.00000000000E+00 0. -1.
         35    2    1    2    0    0  0.00000000000E+00 -0.62172489379E-14 -0.68118286478E+02  0.28270050959E+03  0.27437105746E+03 0.  0.
         25    2    3    3    0    0  0.27089153693E+02 -0.25808068469E+01 -0.83049129842E+02  0.15242214764E+03  0.12487942309E+03 0.  0.
         25    2    3    3    0    0 -0.27089153693E+02  0.25808068469E+01  0.14930843364E+02  0.13027836195E+03  0.12652682995E+03 0.  0.
          5    1    4    4  502    0 -0.22659785363E+02 -0.51377186660E+02 -0.25176710216E+02  0.61717403697E+02  0.47000000000E+01 0.  1.
         -5    1    4    4    0  502  0.49748939055E+02  0.48796379813E+02 -0.57872419627E+02  0.90704743941E+02  0.47000000000E+01 0.  1.
          5    1    5    5  503    0  0.41173461330E+02  0.96559783516E+01  0.38680926115E+02  0.57504746594E+02  0.47000000000E+01 0.  1.
         -5    1    5    5    0  503 -0.68262615023E+02 -0.70751715048E+01 -0.23750082750E+02  0.72773615357E+02  0.47000000000E+01 0.  1.
<mgrwt>
<rscale>  0 0.27437106E+03</rscale>
<asrwt>0</asrwt>
<pdfrwt beam="1">  1        1 0.16506325E-01 0.27437106E+03</pdfrwt>
<pdfrwt beam="2">  1       -1 0.26986061E-01 0.27437106E+03</pdfrwt>
<totfact> 0.39956986E+03</totfact>
</mgrwt>
</event>
<event>
 9    1  0.8093459E-001  0.2728540E+03  0.7818608E-02  0.1099657E+00
          1   -1    0    0  501    0  0.00000000000E+00  0.00000000000E+00  0.39891167494E+03  0.39891167494E+03  0.00000000000E+00 0. -1.
         -1   -1    0    0    0  501 -0.00000000000E+00 -0.00000000000E+00 -0.46657751270E+02  0.46657751270E+02  0.00000000000E+00 0. -1.
         35    2    1    2    0    0  0.35527136788E-14  0.71054273576E-14  0.35225392366E+03  0.44556942621E+03  0.27285396613E+03 0.  0.
         25    2    3    3    0    0  0.85557343538E+01 -0.52947943250E+02  0.15662625311E+03  0.20753464982E+03  0.12514856144E+03 0.  0.
         25    2    3    3    0    0 -0.85557343538E+01  0.52947943250E+02  0.19562767056E+03  0.23803477638E+03  0.12455394010E+03 0.  0.
          5    1    4    4  502    0  0.50253116476E+01  0.40742962296E+02  0.59660359928E+02  0.72571973106E+02  0.47000000000E+01 0.  1.
         -5    1    4    4    0  502  0.35304227063E+01 -0.93690905547E+02  0.96965893179E+02  0.13496267672E+03  0.47000000000E+01 0.  1.
          5    1    5    5  503    0  0.43970011316E+02  0.55582500617E+02  0.61734358273E+02  0.94106308297E+02  0.47000000000E+01 0.  1.
         -5    1    5    5    0  503 -0.52525745670E+02 -0.26345573662E+01  0.13389331229E+03  0.14392846809E+03  0.47000000000E+01 0.  1.
<mgrwt>
<rscale>  0 0.27285397E+03</rscale>
<asrwt>0</asrwt>
<pdfrwt beam="1">  1        1 0.61371025E-01 0.27285397E+03</pdfrwt>
<pdfrwt beam="2">  1       -1 0.71781158E-02 0.27285397E+03</pdfrwt>
<totfact> 0.61441403E+03</totfact>
</mgrwt>
</event>
<event>
 9    1  0.8093459E-001  0.2742432E+03  0.7818608E-02  0.1098875E+00
         -2   -1    0    0    0  501 -0.00000000000E+00  0.00000000000E+00  0.85299831461E+01  0.85299831461E+01  0.00000000000E+00 0.  1.
          2   -1    0    0  501    0  0.00000000000E+00 -0.00000000000E+00 -0.22042642396E+04  0.22042642396E+04  0.00000000000E+00 0.  1.
         35    2    1    2    0    0  0.00000000000E+00  0.71054273576E-14 -0.21957342565E+04  0.22127942228E+04  0.27424322645E+03 0.  0.
         25    2    3    3    0    0 -0.33257720133E+02  0.46114248472E+02 -0.12248965026E+04  0.12323202457E+04  0.12251182006E+03 0.  0.
         25    2    3    3    0    0  0.33257720133E+02 -0.46114248472E+02 -0.97083775393E+03  0.98047397711E+03  0.12478251267E+03 0.  0.
          5    1    4    4  502    0 -0.63602320972E+02  0.19899072692E+02 -0.33990970824E+03  0.34641294445E+03  0.47000000000E+01 0.  1.
         -5    1    4    4    0  502  0.30344600839E+02  0.26215175779E+02 -0.88498679432E+03  0.88590730122E+03  0.47000000000E+01 0.  1.
          5    1    5    5  503    0 -0.40464819442E+02 -0.26344062139E+02 -0.19777267110E+03  0.20363577941E+03  0.47000000000E+01 0. -1.
         -5    1    5    5    0  503  0.73722539575E+02 -0.19770186333E+02 -0.77306508283E+03  0.77683819770E+03  0.47000000000E+01 0. -1.
<mgrwt>
<rscale>  0 0.27424323E+03</rscale>
<asrwt>0</asrwt>
<pdfrwt beam="1">  1        2 0.33911810E+00 0.27424323E+03</pdfrwt>
<pdfrwt beam="2">  1       -2 0.13123031E-02 0.27424323E+03</pdfrwt>
<totfact> 0.83098981E+03</totfact>
</mgrwt>
</event>
<event>
 9    1  0.8093459E-001  0.2803967E+03  0.7818608E-02  0.1095472E+00
          2   -1    0    0  501    0  0.00000000000E+00  0.00000000000E+00  0.54676988155E+03  0.54676988155E+03  0.00000000000E+00 0.  1.
         -2   -1    0    0    0  501 -0.00000000000E+00 -0.00000000000E+00 -0.35948530294E+02  0.35948530294E+02  0.00000000000E+00 0.  1.
         35    2    1    2    0    0  0.00000000000E+00  0.00000000000E+00  0.51082135126E+03  0.58271841185E+03  0.28039667367E+03 0.  0.
         25    2    3    3    0    0  0.21767321793E+02  0.56948177586E+02  0.19224886130E+03  0.23740724714E+03  0.12524242530E+03 0.  0.
         25    2    3    3    0    0 -0.21767321793E+02 -0.56948177586E+02  0.31857248996E+03  0.34531116470E+03  0.11846711730E+03 0.  0.
          5    1    4    4  502    0  0.68841645039E+02  0.60532864588E+02  0.12998033903E+03  0.15912378302E+03  0.47000000000E+01 0.  1.
         -5    1    4    4    0  502 -0.47074323246E+02 -0.35846870018E+01  0.62268522264E+02  0.78283464122E+02  0.47000000000E+01 0.  1.
          5    1    5    5  503    0  0.13393619063E+02  0.43530298623E+01  0.23624397204E+03  0.23671003828E+03  0.47000000000E+01 0.  1.
         -5    1    5    5    0  503 -0.35160940856E+02 -0.61301207449E+02  0.82328517925E+02  0.10860112642E+03  0.47000000000E+01 0.  1.
<mgrwt>
<rscale>  0 0.28039667E+03</rscale>
<asrwt>0</asrwt>
<pdfrwt beam="1">  1        2 0.84118437E-01 0.28039667E+03</pdfrwt>
<pdfrwt beam="2">  1       -2 0.55305435E-02 0.28039667E+03</pdfrwt>
<totfact> 0.93909991E+03</totfact>
</mgrwt>
</event>
<event>
 9    1  0.8093459E-001  0.2743057E+03  0.7818608E-02  0.1098840E+00
         -2   -1    0    0    0  501 -0.00000000000E+00  0.00000000000E+00  0.26871760269E+02  0.26871760269E+02  0.00000000000E+00 0.  1.
          2   -1    0    0  501    0  0.00000000000E+00 -0.00000000000E+00 -0.70002500467E+03  0.70002500467E+03  0.00000000000E+00 0.  1.
         35    2    1    2    0    0 -0.71054273576E-14  0.00000000000E+00 -0.67315324440E+03  0.72689676494E+03  0.27430569887E+03 0.  0.
         25    2    3    3    0    0  0.43336186602E+02 -0.34683481930E+02 -0.35908837173E+03  0.38412703380E+03  0.12461199940E+03 0.  0.
         25    2    3    3    0    0 -0.43336186602E+02  0.34683481930E+02 -0.31406487267E+03  0.34276973114E+03  0.12559209908E+03 0.  0.
          5    1    4    4  502    0 -0.82481601332E+01 -0.28741928278E+02 -0.11077750847E+02  0.32232548000E+02  0.47000000000E+01 0.  1.
         -5    1    4    4    0  502  0.51584346735E+02 -0.59415536512E+01 -0.34801062088E+03  0.35189448580E+03  0.47000000000E+01 0.  1.
          5    1    5    5  503    0 -0.53210965824E+02 -0.13043180876E+02 -0.27411588500E+03  0.27957671552E+03  0.47000000000E+01 0. -1.
         -5    1    5    5    0  503  0.98747792221E+01  0.47726662806E+02 -0.39948987669E+02  0.63193015619E+02  0.47000000000E+01 0. -1.
<mgrwt>
<rscale>  0 0.27430570E+03</rscale>
<asrwt>0</asrwt>
<pdfrwt beam="1">  1        2 0.10769615E+00 0.27430570E+03</pdfrwt>
<pdfrwt beam="2">  1       -2 0.41341172E-02 0.27430570E+03</pdfrwt>
<totfact> 0.10920430E+04</totfact>
</mgrwt>
</event>
<event>
 9    1  0.8093459E-001  0.2791466E+03  0.7818608E-02  0.1096156E+00
          1   -1    0    0  501    0  0.00000000000E+00  0.00000000000E+00  0.87190792891E+03  0.87190792891E+03  0.00000000000E+00 0. -1.
         -1   -1    0    0    0  501 -0.00000000000E+00 -0.00000000000E+00 -0.22342612225E+02  0.22342612225E+02  0.00000000000E+00 0. -1.
         35    2    1    2    0    0  0.00000000000E+00  0.00000000000E+00  0.84956531668E+03  0.89425054113E+03  0.27914656187E+03 0.  0.
         25    2    3    3    0    0  0.32301564346E+02 -0.38705794190E+02  0.53730337348E+03  0.55405484066E+03  0.12546043894E+03 0.  0.
         25    2    3    3    0    0 -0.32301564346E+02  0.38705794190E+02  0.31226194320E+03  0.34019570047E+03  0.12523603270E+03 0.  0.
          5    1    4    4  502    0  0.39565544374E+02 -0.31176525825E+02  0.53992471990E+03  0.54228977606E+03  0.47000000000E+01 0. -1.
         -5    1    4    4    0  502 -0.72639800281E+01 -0.75292683657E+01 -0.26213464144E+01  0.11765064598E+02  0.47000000000E+01 0. -1.
          5    1    5    5  503    0  0.46510628411E+02  0.29886263487E+02  0.12287629428E+03  0.13482247956E+03  0.47000000000E+01 0.  1.
         -5    1    5    5    0  503 -0.78812192757E+02  0.88195307036E+01  0.18938564893E+03  0.20537322091E+03  0.47000000000E+01 0.  1.
<mgrwt>
<rscale>  0 0.27914656E+03</rscale>
<asrwt>0</asrwt>
<pdfrwt beam="1">  1        1 0.13413966E+00 0.27914656E+03</pdfrwt>
<pdfrwt beam="2">  1       -1 0.34373256E-02 0.27914656E+03</pdfrwt>
<totfact> 0.61927243E+03</totfact>
</mgrwt>
</event>
<event>
 9    1  0.8093459E-001  0.2746267E+03  0.7818608E-02  0.1098660E+00
         -2   -1    0    0    0  501 -0.00000000000E+00  0.00000000000E+00  0.14306661404E+03  0.14306661404E+03  0.00000000000E+00 0. -1.
          2   -1    0    0  501    0  0.00000000000E+00 -0.00000000000E+00 -0.13179148342E+03  0.13179148342E+03  0.00000000000E+00 0. -1.
         35    2    1    2    0    0  0.35527136788E-14 -0.35527136788E-14  0.11275130616E+02  0.27485809746E+03  0.27462673789E+03 0.  0.
         25    2    3    3    0    0 -0.19801517942E+02  0.88905847102E+01  0.59719576963E+02  0.13885802051E+03  0.12346651116E+03 0.  0.
         25    2    3    3    0    0  0.19801517942E+02 -0.88905847102E+01 -0.48444446347E+02  0.13600007695E+03  0.12521187619E+03 0.  0.
          5    1    4    4  502    0 -0.13692304301E+02 -0.48943625742E+02  0.62199083233E+02  0.80459764186E+02  0.47000000000E+01 0. -1.
         -5    1    4    4    0  502 -0.61092136412E+01  0.57834210452E+02 -0.24795062701E+01  0.58398256320E+02  0.47000000000E+01 0. -1.
          5    1    5    5  503    0  0.61844942062E+02  0.25699343686E+02 -0.71708887867E+01  0.67518625360E+02  0.47000000000E+01 0. -1.
         -5    1    5    5    0  503 -0.42043424120E+02 -0.34589928396E+02 -0.41273557560E+02  0.68481451590E+02  0.47000000000E+01 0. -1.
<mgrwt>
<rscale>  0 0.27462674E+03</rscale>
<asrwt>0</asrwt>
<pdfrwt beam="1">  1        2 0.20275613E-01 0.27462674E+03</pdfrwt>
<pdfrwt beam="2">  1       -2 0.22010248E-01 0.27462674E+03</pdfrwt>
<totfact> 0.48316337E+03</totfact>
</mgrwt>
</event>
<event>
 9    1  0.8093459E-001  0.2734017E+03  0.7818608E-02  0.1099348E+00
         -2   -1    0    0    0  501 -0.00000000000E+00  0.00000000000E+00  0.64284873253E+02  0.64284873253E+02  0.00000000000E+00 0. -1.
          2   -1    0    0  501    0  0.00000000000E+00 -0.00000000000E+00 -0.29069230182E+03  0.29069230182E+03  0.00000000000E+00 0. -1.
         35    2    1    2    0    0  0.00000000000E+00 -0.35527136788E-14 -0.22640742857E+03  0.35497717508E+03  0.27340166626E+03 0.  0.
         25    2    3    3    0    0  0.17698296768E+01 -0.14759020476E+02 -0.45747689130E+02  0.13413969140E+03  0.12521838829E+03 0.  0.
         25    2    3    3    0    0 -0.17698296768E+01  0.14759020476E+02 -0.18065973944E+03  0.22083748367E+03  0.12613600500E+03 0.  0.
          5    1    4    4  502    0 -0.35302932172E+02 -0.58544851604E+02 -0.25540800282E+02  0.73131519527E+02  0.47000000000E+01 0. -1.
         -5    1    4    4    0  502  0.37072761849E+02  0.43785831128E+02 -0.20206888848E+02  0.61008171876E+02  0.47000000000E+01 0. -1.
          5    1    5    5  503    0 -0.49223434624E+02  0.37770038834E+02 -0.49883913563E+02  0.79749715875E+02  0.47000000000E+01 0.  1.
         -5    1    5    5    0  503  0.47453604947E+02 -0.23011018359E+02 -0.13077582588E+03  0.14108776780E+03  0.47000000000E+01 0.  1.
<mgrwt>
<rscale>  0 0.27340167E+03</rscale>
<asrwt>0</asrwt>
<pdfrwt beam="1">  1        2 0.44721892E-01 0.27340167E+03</pdfrwt>
<pdfrwt beam="2">  1       -2 0.98899807E-02 0.27340167E+03</pdfrwt>
<totfact> 0.75825207E+03</totfact>
</mgrwt>
</event>
<event>
 9    1  0.8093459E-001  0.2744082E+03  0.7818608E-02  0.1098783E+00
         -1   -1    0    0    0  501 -0.00000000000E+00  0.00000000000E+00  0.10177240333E+02  0.10177240333E+02  0.00000000000E+00 0.  1.
          1   -1    0    0  501    0  0.00000000000E+00 -0.00000000000E+00 -0.18497125569E+04  0.18497125569E+04  0.00000000000E+00 0.  1.
         35    2    1    2    0    0 -0.71054273576E-14  0.35527136788E-14 -0.18395353166E+04  0.18598897972E+04  0.27440823048E+03 0.  0.
         25    2    3    3    0    0 -0.22353291649E+02 -0.28636404649E+02 -0.12264133210E+04  0.12329753907E+04  0.12173317834E+03 0.  0.
         25    2    3    3    0    0  0.22353291649E+02  0.28636404649E+02 -0.61312199552E+03  0.62691440654E+03  0.12563191637E+03 0.  0.
          5    1    4    4  502    0  0.46237416976E+02  0.46908949409E+01 -0.62211999053E+03  0.62387120133E+03  0.47000000000E+01 0.  1.
         -5    1    4    4    0  502 -0.68590708625E+02 -0.33327299589E+02 -0.60429333051E+03  0.60910418937E+03  0.47000000000E+01 0.  1.
          5    1    5    5  503    0  0.61644907572E+02  0.42933248124E+02 -0.24252672912E+03  0.25393830503E+03  0.47000000000E+01 0.  1.
         -5    1    5    5    0  503 -0.39291615923E+02 -0.14296843476E+02 -0.37059526640E+03  0.37297610150E+03  0.47000000000E+01 0.  1.
<mgrwt>
<rscale>  0 0.27440823E+03</rscale>
<asrwt>0</asrwt>
<pdfrwt beam="1">  1        1 0.28457134E+00 0.27440823E+03</pdfrwt>
<pdfrwt beam="2">  1       -1 0.15657283E-02 0.27440823E+03</pdfrwt>
<totfact> 0.41415140E+03</totfact>
</mgrwt>
</event>
<event>
 9    1  0.8093459E-001  0.2782490E+03  0.7818608E-02  0.1096649E+00
         -2   -1    0    0    0  501 -0.00000000000E+00  0.00000000000E+00  0.38500373262E+02  0.38500373262E+02  0.00000000000E+00 0. -1.
          2   -1    0    0  501    0  0.00000000000E+00 -0.00000000000E+00 -0.50273862656E+03  0.50273862656E+03  0.00000000000E+00 0. -1.
         35    2    1    2    0    0  0.00000000000E+00  0.00000000000E+00 -0.46423825330E+03  0.54123899983E+03  0.27824898761E+03 0.  0.
         25    2    3    3    0    0 -0.13596673086E+02 -0.41500793534E+02 -0.31458136683E+03  0.34119004427E+03  0.12466765649E+03 0.  0.
         25    2    3    3    0    0  0.13596673086E+02  0.41500793534E+02 -0.14965688648E+03  0.20004895555E+03  0.12536034287E+03 0.  0.
          5    1    4    4  502    0  0.17209449666E+02 -0.43326774217E+02 -0.30494024104E+03  0.30851906769E+03  0.47000000000E+01 0. -1.
         -5    1    4    4    0  502 -0.30806122752E+02  0.18259806834E+01 -0.96411257821E+01  0.32670976582E+02  0.47000000000E+01 0. -1.
          5    1    5    5  503    0 -0.42152051000E+02  0.36057089148E+02 -0.20733370893E+02  0.59404307504E+02  0.47000000000E+01 0. -1.
         -5    1    5    5    0  503  0.55748724086E+02  0.54437043855E+01 -0.12892351558E+03  0.14064464805E+03  0.47000000000E+01 0. -1.
<mgrwt>
<rscale>  0 0.27824899E+03</rscale>
<asrwt>0</asrwt>
<pdfrwt beam="1">  1        2 0.77344392E-01 0.27824899E+03</pdfrwt>
<pdfrwt beam="2">  1       -2 0.59231353E-02 0.27824899E+03</pdfrwt>
<totfact> 0.92931621E+03</totfact>
</mgrwt>
</event>
<event>
 9    1  0.8093459E-001  0.2740900E+03  0.7818608E-02  0.1098961E+00
          1   -1    0    0  501    0  0.00000000000E+00  0.00000000000E+00  0.92583523863E+02  0.92583523863E+02  0.00000000000E+00 0. -1.
         -1   -1    0    0    0  501 -0.00000000000E+00 -0.00000000000E+00 -0.20285827154E+03  0.20285827154E+03  0.00000000000E+00 0. -1.
         35    2    1    2    0    0  0.00000000000E+00  0.14210854715E-13 -0.11027474768E+03  0.29544179541E+03  0.27409001167E+03 0.  0.
         25    2    3    3    0    0 -0.14955414709E+02  0.48769183943E+02 -0.29877372468E+02  0.13816598092E+03  0.12488027533E+03 0.  0.
         25    2    3    3    0    0  0.14955414709E+02 -0.48769183943E+02 -0.80397375213E+02  0.15727581449E+03  0.12517925607E+03 0.  0.
          5    1    4    4  502    0  0.23012395510E+02 -0.23088317425E+01  0.38169292799E+02  0.44876340804E+02  0.47000000000E+01 0.  1.
         -5    1    4    4    0  502 -0.37967810219E+02  0.51078015685E+02 -0.68046665267E+02  0.93289640117E+02  0.47000000000E+01 0.  1.
          5    1    5    5  503    0 -0.54043775332E+02 -0.19389968186E+02 -0.49779356074E+02  0.76136553701E+02  0.47000000000E+01 0.  1.
         -5    1    5    5    0  503  0.68999190041E+02 -0.29379215757E+02 -0.30618019140E+02  0.81139260785E+02  0.47000000000E+01 0.  1.
<mgrwt>
<rscale>  0 0.27409001E+03</rscale>
<asrwt>0</asrwt>
<pdfrwt beam="1">  1        1 0.14243619E-01 0.27409001E+03</pdfrwt>
<pdfrwt beam="2">  1       -1 0.31208965E-01 0.27409001E+03</pdfrwt>
<totfact> 0.37889529E+03</totfact>
</mgrwt>
</event>
<event>
 9    1  0.8093459E-001  0.2765528E+03  0.7818608E-02  0.1097587E+00
          2   -1    0    0  501    0  0.00000000000E+00  0.00000000000E+00  0.13279038335E+04  0.13279038335E+04  0.00000000000E+00 0. -1.
         -2   -1    0    0    0  501 -0.00000000000E+00 -0.00000000000E+00 -0.14398901568E+02  0.14398901568E+02  0.00000000000E+00 0. -1.
         35    2    1    2    0    0  0.00000000000E+00  0.00000000000E+00  0.13135049319E+04  0.13423027350E+04  0.27655275511E+03 0.  0.
         25    2    3    3    0    0  0.35824108935E+02 -0.84318472237E+01  0.42680661666E+03  0.44623511518E+03  0.12492968890E+03 0.  0.
         25    2    3    3    0    0 -0.35824108935E+02  0.84318472237E+01  0.88669831525E+03  0.89606761987E+03  0.12389033163E+03 0.  0.
          5    1    4    4  502    0  0.36161038411E+02 -0.40511412642E+02  0.40129058062E+03  0.40497532684E+03  0.47000000000E+01 0.  1.
         -5    1    4    4    0  502 -0.33692947561E+00  0.32079565418E+02  0.25516036036E+02  0.41259788340E+02  0.47000000000E+01 0.  1.
          5    1    5    5  503    0 -0.30969428194E+02 -0.55853674255E+02  0.39949067818E+03  0.40459069486E+03  0.47000000000E+01 0. -1.
         -5    1    5    5    0  503 -0.48546807412E+01  0.64285521479E+02  0.48720763707E+03  0.49147692501E+03  0.47000000000E+01 0. -1.
<mgrwt>
<rscale>  0 0.27655276E+03</rscale>
<asrwt>0</asrwt>
<pdfrwt beam="1">  1        2 0.20429280E+00 0.27655276E+03</pdfrwt>
<pdfrwt beam="2">  1       -2 0.22152167E-02 0.27655276E+03</pdfrwt>
<totfact> 0.11250222E+04</totfact>
</mgrwt>
</event>
<event>
 9    1  0.8093459E-001  0.2797679E+03  0.7818608E-02  0.1095816E+00
         -2   -1    0    0    0  501 -0.00000000000E+00  0.00000000000E+00  0.65308688559E+02  0.65308688559E+02  0.00000000000E+00 0.  1.
          2   -1    0    0  501    0  0.00000000000E+00 -0.00000000000E+00 -0.29961578700E+03  0.29961578700E+03  0.00000000000E+00 0.  1.
         35    2    1    2    0    0  0.00000000000E+00  0.00000000000E+00 -0.23430709844E+03  0.36492447556E+03  0.27976786178E+03 0.  0.
         25    2    3    3    0    0 -0.15269685534E+02  0.53130791252E+02 -0.79977092905E+02  0.15884558837E+03  0.12561664411E+03 0.  0.
         25    2    3    3    0    0  0.15269685534E+02 -0.53130791252E+02 -0.15433000554E+03  0.20607888719E+03  0.12487879269E+03 0.  0.
          5    1    4    4  502    0 -0.60414383147E+02  0.64513716929E+02 -0.64644279247E+02  0.10960333116E+03  0.47000000000E+01 0. -1.
         -5    1    4    4    0  502  0.45144697613E+02 -0.11382925677E+02 -0.15332813658E+02  0.49242257200E+02  0.47000000000E+01 0. -1.
          5    1    5    5  503    0 -0.17778789657E+02  0.74152080424E+01  0.13887151929E+02  0.24207719031E+02  0.47000000000E+01 0. -1.
         -5    1    5    5    0  503  0.33048475191E+02 -0.60545999295E+02 -0.16821715747E+03  0.18187116816E+03  0.47000000000E+01 0. -1.
<mgrwt>
<rscale>  0 0.27976786E+03</rscale>
<asrwt>0</asrwt>
<pdfrwt beam="1">  1        2 0.46094737E-01 0.27976786E+03</pdfrwt>
<pdfrwt beam="2">  1       -2 0.10047490E-01 0.27976786E+03</pdfrwt>
<totfact> 0.71641353E+03</totfact>
</mgrwt>
</event>
<event>
 9    1  0.8093459E-001  0.2760818E+03  0.7818608E-02  0.1097848E+00
          2   -1    0    0  501    0  0.00000000000E+00  0.00000000000E+00  0.94188508758E+03  0.94188508758E+03  0.00000000000E+00 0.  1.
         -2   -1    0    0    0  501 -0.00000000000E+00 -0.00000000000E+00 -0.20231018744E+02  0.20231018744E+02  0.00000000000E+00 0.  1.
         35    2    1    2    0    0  0.00000000000E+00  0.17763568394E-14  0.92165406883E+03  0.96211610632E+03  0.27608183469E+03 0.  0.
         25    2    3    3    0    0  0.61284169415E+02 -0.12241596017E+02  0.49785638309E+03  0.51706581583E+03  0.12486181811E+03 0.  0.
         25    2    3    3    0    0 -0.61284169415E+02  0.12241596017E+02  0.42379768574E+03  0.44505029049E+03  0.12066348466E+03 0.  0.
          5    1    4    4  502    0  0.50988154503E+02  0.44982911895E+02  0.15558046772E+03  0.16985472086E+03  0.47000000000E+01 0.  1.
         -5    1    4    4    0  502  0.10296014912E+02 -0.57224507912E+02  0.34227591537E+03  0.34721109497E+03  0.47000000000E+01 0.  1.
          5    1    5    5  503    0  0.40607887557E+01 -0.14969075992E+02  0.88674602642E+00  0.16230821294E+02  0.47000000000E+01 0.  1.
         -5    1    5    5    0  503 -0.65344958171E+02  0.27210672009E+02  0.42291093971E+03  0.42881946919E+03  0.47000000000E+01 0.  1.
<mgrwt>
<rscale>  0 0.27608183E+03</rscale>
<asrwt>0</asrwt>
<pdfrwt beam="1">  1        2 0.14490536E+00 0.27608183E+03</pdfrwt>
<pdfrwt beam="2">  1       -2 0.31124652E-02 0.27608183E+03</pdfrwt>
<totfact> 0.11416166E+04</totfact>
</mgrwt>
</event>
<event>
 9    1  0.8093459E-001  0.2723130E+03  0.7818608E-02  0.1099963E+00
          2   -1    0    0  501    0  0.00000000000E+00  0.00000000000E+00  0.23718096887E+04  0.23718096887E+04  0.00000000000E+00 0.  1.
         -2   -1    0    0    0  501 -0.00000000000E+00 -0.00000000000E+00 -0.78162228074E+01  0.78162228074E+01  0.00000000000E+00 0.  1.
         35    2    1    2    0    0  0.71054273576E-14  0.00000000000E+00  0.23639934659E+04  0.23796259115E+04  0.27231300361E+03 0.  0.
         25    2    3    3    0    0 -0.43598699736E+02 -0.45901944960E+02  0.12673267996E+04  0.12748738492E+04  0.12320015906E+03 0.  0.
         25    2    3    3    0    0  0.43598699736E+02  0.45901944960E+02  0.10966666663E+04  0.11047520623E+04  0.11743724737E+03 0.  0.
          5    1    4    4  502    0 -0.57971953587E+02 -0.73879684377E+01  0.11282579298E+04  0.11297802334E+04  0.47000000000E+01 0. -1.
         -5    1    4    4    0  502  0.14373253851E+02 -0.38513976523E+02  0.13906886980E+03  0.14509361585E+03  0.47000000000E+01 0. -1.
          5    1    5    5  503    0  0.30877327789E+02 -0.96651411795E+01  0.88169843996E+03  0.88230439948E+03  0.47000000000E+01 0.  1.
         -5    1    5    5    0  503  0.12721371947E+02  0.55567086140E+02  0.21496822630E+03  0.22244766280E+03  0.47000000000E+01 0.  1.
<mgrwt>
<rscale>  0 0.27231300E+03</rscale>
<asrwt>0</asrwt>
<pdfrwt beam="1">  1        2 0.36489322E+00 0.27231300E+03</pdfrwt>
<pdfrwt beam="2">  1       -2 0.12024977E-02 0.27231300E+03</pdfrwt>
<totfact> 0.76762713E+03</totfact>
</mgrwt>
</event>
<event>
 9    1  0.8093459E-001  0.2737379E+03  0.7818608E-02  0.1099159E+00
         -2   -1    0    0    0  501 -0.00000000000E+00  0.00000000000E+00  0.18663513119E+02  0.18663513119E+02  0.00000000000E+00 0.  1.
          2   -1    0    0  501    0  0.00000000000E+00 -0.00000000000E+00 -0.10037291399E+04  0.10037291399E+04  0.00000000000E+00 0.  1.
         35    2    1    2    0    0 -0.35527136788E-14  0.14210854715E-13 -0.98506562675E+03  0.10223926530E+04  0.27373791823E+03 0.  0.
         25    2    3    3    0    0 -0.28883048272E+02  0.48832181838E+02 -0.53588700337E+03  0.55316207196E+03  0.12487828078E+03 0.  0.
         25    2    3    3    0    0  0.28883048272E+02 -0.48832181838E+02 -0.44917862338E+03  0.46923058103E+03  0.12327647793E+03 0.  0.
          5    1    4    4  502    0  0.43627116977E+01 -0.39407282447E+02 -0.21494341622E+03  0.21862005704E+03  0.47000000000E+01 0. -1.
         -5    1    4    4    0  502 -0.33245759969E+02  0.88239464285E+02 -0.32094358715E+03  0.33454201492E+03  0.47000000000E+01 0. -1.
          5    1    5    5  503    0  0.56995641222E+02 -0.41819907441E+02 -0.42594107772E+03  0.43179312114E+03  0.47000000000E+01 0. -1.
         -5    1    5    5    0  503 -0.28112592950E+02 -0.70122743970E+01 -0.23237545663E+02  0.37437459890E+02  0.47000000000E+01 0. -1.
<mgrwt>
<rscale>  0 0.27373792E+03</rscale>
<asrwt>0</asrwt>
<pdfrwt beam="1">  1        2 0.15441994E+00 0.27373792E+03</pdfrwt>
<pdfrwt beam="2">  1       -2 0.28713083E-02 0.27373792E+03</pdfrwt>
<totfact> 0.11779462E+04</totfact>
</mgrwt>
</event>
<event>
 9    1  0.8093459E-001  0.2748197E+03  0.7818608E-02  0.1098552E+00
          2   -1    0    0  501    0  0.00000000000E+00  0.00000000000E+00  0.19859740251E+03  0.19859740251E+03  0.00000000000E+00 0. -1.
         -2   -1    0    0    0  501 -0.00000000000E+00 -0.00000000000E+00 -0.95074060960E+02  0.95074060960E+02  0.00000000000E+00 0. -1.
         35    2    1    2    0    0  0.00000000000E+00  0.00000000000E+00  0.10352334155E+03  0.29367146347E+03  0.27481966125E+03 0.  0.
         25    2    3    3    0    0 -0.56795990937E+02 -0.38277288497E+01  0.50829580992E+02  0.14644573927E+03  0.12498908813E+03 0.  0.
         25    2    3    3    0    0  0.56795990937E+02  0.38277288497E+01  0.52693760559E+02  0.14722572420E+03  0.12513331039E+03 0.  0.
          5    1    4    4  502    0 -0.57606005809E+02  0.52908592786E+02  0.16876115028E+02  0.80154003982E+02  0.47000000000E+01 0. -1.
         -5    1    4    4    0  502  0.81001487224E+00 -0.56736321636E+02  0.33953465964E+02  0.66291735291E+02  0.47000000000E+01 0. -1.
          5    1    5    5  503    0  0.63383544871E+02 -0.44866589295E+02  0.40198961485E+01  0.77902080591E+02  0.47000000000E+01 0. -1.
         -5    1    5    5    0  503 -0.65875539338E+01  0.48694318144E+02  0.48673864411E+02  0.69323643608E+02  0.47000000000E+01 0. -1.
<mgrwt>
<rscale>  0 0.27481966E+03</rscale>
<asrwt>0</asrwt>
<pdfrwt beam="1">  1        2 0.30553447E-01 0.27481966E+03</pdfrwt>
<pdfrwt beam="2">  1       -2 0.14626779E-01 0.27481966E+03</pdfrwt>
<totfact> 0.60883553E+03</totfact>
</mgrwt>
</event>
<event>
 9    1  0.8093459E-001  0.2742513E+03  0.7818608E-02  0.1098871E+00
          1   -1    0    0  501    0  0.00000000000E+00  0.00000000000E+00  0.22816141096E+04  0.22816141096E+04  0.00000000000E+00 0. -1.
         -1   -1    0    0    0  501 -0.00000000000E+00 -0.00000000000E+00 -0.82412880213E+01  0.82412880213E+01  0.00000000000E+00 0. -1.
         35    2    1    2    0    0  0.00000000000E+00  0.00000000000E+00  0.22733728216E+04  0.22898553977E+04  0.27425126458E+03 0.  0.
         25    2    3    3    0    0 -0.30201468899E+02  0.73708312256E+01  0.73403889064E+03  0.74517939361E+03  0.12455030235E+03 0.  0.
         25    2    3    3    0    0  0.30201468899E+02 -0.73708312256E+01  0.15393339310E+04  0.15446760041E+04  0.12453332303E+03 0.  0.
          5    1    4    4  502    0 -0.35447294342E+02  0.48959466257E+02  0.18844601749E+03  0.19795840856E+03  0.47000000000E+01 0. -1.
         -5    1    4    4    0  502  0.52458254429E+01 -0.41588635031E+02  0.54559287315E+03  0.54722098505E+03  0.47000000000E+01 0. -1.
          5    1    5    5  503    0  0.23767607624E+02  0.55558635889E+02  0.55487117005E+03  0.55817180738E+03  0.47000000000E+01 0.  1.
         -5    1    5    5    0  503  0.64338612749E+01 -0.62929467114E+02  0.98446276093E+03  0.98650419668E+03  0.47000000000E+01 0.  1.
<mgrwt>
<rscale>  0 0.27425126E+03</rscale>
<asrwt>0</asrwt>
<pdfrwt beam="1">  1        1 0.35101705E+00 0.27425126E+03</pdfrwt>
<pdfrwt beam="2">  1       -1 0.12678923E-02 0.27425126E+03</pdfrwt>
<totfact> 0.29463913E+03</totfact>
</mgrwt>
</event>
<event>
 9    1  0.8093459E-001  0.2836329E+03  0.7818608E-02  0.1093721E+00
          2   -1    0    0  501    0  0.00000000000E+00  0.00000000000E+00  0.14440193093E+04  0.14440193093E+04  0.00000000000E+00 0.  1.
         -2   -1    0    0    0  501 -0.00000000000E+00 -0.00000000000E+00 -0.13927726366E+02  0.13927726366E+02  0.00000000000E+00 0.  1.
         35    2    1    2    0    0  0.00000000000E+00 -0.71054273576E-14  0.14300915829E+04  0.14579470357E+04  0.28363290223E+03 0.  0.
         25    2    3    3    0    0 -0.33856290842E+02 -0.24122058121E+02  0.44403462108E+03  0.46316433242E+03  0.12500532783E+03 0.  0.
         25    2    3    3    0    0  0.33856290842E+02  0.24122058121E+02  0.98605696185E+03  0.99478270325E+03  0.12472438635E+03 0.  0.
          5    1    4    4  502    0 -0.51195115400E+02 -0.66059637367E+02  0.32720311962E+03  0.33774070974E+03  0.47000000000E+01 0. -1.
         -5    1    4    4    0  502  0.17338824558E+02  0.41937579246E+02  0.11683150147E+03  0.12542362268E+03  0.47000000000E+01 0. -1.
          5    1    5    5  503    0 -0.13523907979E+02 -0.25031394447E+02  0.64079352153E+02  0.70268913236E+02  0.47000000000E+01 0. -1.
         -5    1    5    5    0  503  0.47380198821E+02  0.49153452568E+02  0.92197760970E+03  0.92451379001E+03  0.47000000000E+01 0. -1.
<mgrwt>
<rscale>  0 0.28363290E+03</rscale>
<asrwt>0</asrwt>
<pdfrwt beam="1">  1        2 0.22215670E+00 0.28363290E+03</pdfrwt>
<pdfrwt beam="2">  1       -2 0.21427283E-02 0.28363290E+03</pdfrwt>
<totfact> 0.10219704E+04</totfact>
</mgrwt>
</event>
<event>
 9    1  0.8093459E-001  0.2751428E+03  0.7818608E-02  0.1098372E+00
          1   -1    0    0  501    0  0.00000000000E+00  0.00000000000E+00  0.50181295806E+02  0.50181295806E+02  0.00000000000E+00 0. -1.
         -1   -1    0    0    0  501 -0.00000000000E+00 -0.00000000000E+00 -0.37715036241E+03  0.37715036241E+03  0.00000000000E+00 0. -1.
         35    2    1    2    0    0 -0.71054273576E-14 -0.17763568394E-14 -0.32696906660E+03  0.42733165821E+03  0.27514282763E+03 0.  0.
         25    2    3    3    0    0  0.41061865363E+02 -0.11107713694E+01 -0.22490256325E+03  0.26087881948E+03  0.12565542127E+03 0.  0.
         25    2    3    3    0    0 -0.41061865363E+02  0.11107713694E+01 -0.10206650335E+03  0.16645283874E+03  0.12490662840E+03 0.  0.
          5    1    4    4  502    0 -0.36583613283E+02  0.30633511139E+02 -0.89337424363E+02  0.10139052302E+03  0.47000000000E+01 0.  1.
         -5    1    4    4    0  502  0.77645478646E+02 -0.31744282509E+02 -0.13556513889E+03  0.15948829646E+03  0.47000000000E+01 0.  1.
          5    1    5    5  503    0 -0.25557575101E+02  0.52246849688E+01 -0.13066575372E+03  0.13332710217E+03  0.47000000000E+01 0.  1.
         -5    1    5    5    0  503 -0.15504290262E+02 -0.41139135994E+01  0.28599250367E+02  0.33125736568E+02  0.47000000000E+01 0.  1.
<mgrwt>
<rscale>  0 0.27514283E+03</rscale>
<asrwt>0</asrwt>
<pdfrwt beam="1">  1        1 0.77201997E-02 0.27514283E+03</pdfrwt>
<pdfrwt beam="2">  1       -1 0.58023130E-01 0.27514283E+03</pdfrwt>
<totfact> 0.28216443E+03</totfact>
</mgrwt>
</event>
<event>
 9    1  0.8093459E-001  0.2891162E+03  0.7818608E-02  0.1090811E+00
          3   -1    0    0  501    0  0.00000000000E+00  0.00000000000E+00  0.28444384894E+02  0.28444384894E+02  0.00000000000E+00 0.  1.
         -3   -1    0    0    0  501 -0.00000000000E+00 -0.00000000000E+00 -0.73466317954E+03  0.73466317954E+03  0.00000000000E+00 0.  1.
         35    2    1    2    0    0  0.00000000000E+00  0.00000000000E+00 -0.70621879465E+03  0.76310756443E+03  0.28911618596E+03 0.  0.
         25    2    3    3    0    0 -0.36198501538E+02 -0.35575753939E+02 -0.47750941949E+03  0.49621871436E+03  0.12506718593E+03 0.  0.
         25    2    3    3    0    0  0.36198501538E+02  0.35575753939E+02 -0.22870937515E+03  0.26688885007E+03  0.12785035873E+03 0.  0.
          5    1    4    4  502    0 -0.15602672002E+01 -0.23810182359E+02 -0.44885467960E+03  0.44951303943E+03  0.47000000000E+01 0.  1.
         -5    1    4    4    0  502 -0.34638234338E+02 -0.11765571580E+02 -0.28654739895E+02  0.46705674935E+02  0.47000000000E+01 0.  1.
          5    1    5    5  503    0  0.79534140296E+02  0.17368420631E+02 -0.18646494345E+03  0.20351561769E+03  0.47000000000E+01 0. -1.
         -5    1    5    5    0  503 -0.43335638758E+02  0.18207333308E+02 -0.42244431706E+02  0.63373232385E+02  0.47000000000E+01 0. -1.
<mgrwt>
<rscale>  0 0.28911619E+03</rscale>
<asrwt>0</asrwt>
<pdfrwt beam="1">  1        3 0.43760595E-02 0.28911619E+03</pdfrwt>
<pdfrwt beam="2">  1       -3 0.11302510E+00 0.28911619E+03</pdfrwt>
<totfact> 0.48866563E+02</totfact>
</mgrwt>
</event>
<event>
 9    1  0.8093459E-001  0.2760764E+03  0.7818608E-02  0.1097851E+00
         -4   -1    0    0    0  501 -0.00000000000E+00  0.00000000000E+00  0.12606761940E+03  0.12606761940E+03  0.00000000000E+00 0.  1.
          4   -1    0    0  501    0  0.00000000000E+00 -0.00000000000E+00 -0.15114544486E+03  0.15114544486E+03  0.00000000000E+00 0.  1.
         35    2    1    2    0    0 -0.35527136788E-14  0.00000000000E+00 -0.25077825453E+02  0.27721306426E+03  0.27607641273E+03 0.  0.
         25    2    3    3    0    0 -0.80537683164E+01  0.61279608171E+02 -0.19158150086E+02  0.13939875041E+03  0.12347033384E+03 0.  0.
         25    2    3    3    0    0  0.80537683164E+01 -0.61279608171E+02 -0.59196753675E+01  0.13781431385E+03  0.12303531600E+03 0.  0.
          5    1    4    4  502    0 -0.61199187418E+02  0.53642308467E+02  0.18888667350E+01  0.81538307659E+02  0.47000000000E+01 0.  1.
         -5    1    4    4    0  502  0.53145419101E+02  0.76372997040E+01 -0.21047016821E+02  0.57860442750E+02  0.47000000000E+01 0.  1.
          5    1    5    5  503    0  0.25324241777E+02 -0.28019360660E+02  0.54551941211E+02  0.66516209177E+02  0.47000000000E+01 0.  1.
         -5    1    5    5    0  503 -0.17270473461E+02 -0.33260247511E+02 -0.60471616579E+02  0.71298104671E+02  0.47000000000E+01 0.  1.
<mgrwt>
<rscale>  0 0.27607641E+03</rscale>
<asrwt>0</asrwt>
<pdfrwt beam="1">  1        4 0.23253145E-01 0.27607641E+03</pdfrwt>
<pdfrwt beam="2">  1       -4 0.19395018E-01 0.27607641E+03</pdfrwt>
<totfact> 0.76670658E+02</totfact>
</mgrwt>
</event>
<event>
 9    1  0.8093459E-001  0.2899320E+03  0.7818608E-02  0.1090385E+00
          2   -1    0    0  501    0  0.00000000000E+00  0.00000000000E+00  0.43161059680E+03  0.43161059680E+03  0.00000000000E+00 0.  1.
         -2   -1    0    0    0  501 -0.00000000000E+00 -0.00000000000E+00 -0.48690039038E+02  0.48690039038E+02  0.00000000000E+00 0.  1.
         35    2    1    2    0    0  0.71054273576E-14  0.14210854715E-13  0.38292055776E+03  0.48030063584E+03  0.28993197000E+03 0.  0.
         25    2    3    3    0    0  0.46212996404E+02 -0.55217376220E+02  0.21419774954E+03  0.25851044508E+03  0.12554829603E+03 0.  0.
         25    2    3    3    0    0 -0.46212996404E+02  0.55217376220E+02  0.16872280822E+03  0.22179019076E+03  0.12465513639E+03 0.  0.
          5    1    4    4  502    0  0.13826853272E+02  0.37749381665E+02  0.98698021841E+02  0.10667514801E+03  0.47000000000E+01 0. -1.
         -5    1    4    4    0  502  0.32386143131E+02 -0.92966757886E+02  0.11549972769E+03  0.15183529707E+03  0.47000000000E+01 0. -1.
          5    1    5    5  503    0 -0.49403916413E+02  0.86337236376E+02  0.16086564863E+03  0.18919490546E+03  0.47000000000E+01 0. -1.
         -5    1    5    5    0  503  0.31909200094E+01 -0.31119860156E+02  0.78571595887E+01  0.32595285295E+02  0.47000000000E+01 0. -1.
<mgrwt>
<rscale>  0 0.28993197E+03</rscale>
<asrwt>0</asrwt>
<pdfrwt beam="1">  1        2 0.66401628E-01 0.28993197E+03</pdfrwt>
<pdfrwt beam="2">  1       -2 0.74907755E-02 0.28993197E+03</pdfrwt>
<totfact> 0.76668514E+03</totfact>
</mgrwt>
</event>
<event>
 9    1  0.8093459E-001  0.2760349E+03  0.7818608E-02  0.1097875E+00
          1   -1    0    0  501    0  0.00000000000E+00  0.00000000000E+00  0.27011613738E+04  0.27011613738E+04  0.00000000000E+00 0. -1.
         -1   -1    0    0    0  501 -0.00000000000E+00 -0.00000000000E+00 -0.70520815759E+01  0.70520815759E+01  0.00000000000E+00 0. -1.
         35    2    1    2    0    0  0.14210854715E-13  0.17763568394E-14  0.26941092922E+04  0.27082134553E+04  0.27603485546E+03 0.  0.
         25    2    3    3    0    0  0.46492967885E+02  0.29358547910E+01  0.99848705807E+03  0.10073588456E+04  0.12500089389E+03 0.  0.
         25    2    3    3    0    0 -0.46492967885E+02 -0.29358547910E+01  0.16956222341E+04  0.17008546097E+04  0.12490567303E+03 0.  0.
          5    1    4    4  502    0  0.30743435567E+02  0.30930490097E+01  0.51586848637E+02  0.60315990707E+02  0.47000000000E+01 0. -1.
         -5    1    4    4    0  502  0.15749532318E+02 -0.15719421879E+00  0.94690020943E+03  0.94704285494E+03  0.47000000000E+01 0. -1.
          5    1    5    5  503    0  0.68294385425E+01 -0.53816138665E+02  0.95748340428E+03  0.95903043616E+03  0.47000000000E+01 0.  1.
         -5    1    5    5    0  503 -0.53322406428E+02  0.50880283874E+02  0.73813882983E+03  0.74182417352E+03  0.47000000000E+01 0.  1.
<mgrwt>
<rscale>  0 0.27603486E+03</rscale>
<asrwt>0</asrwt>
<pdfrwt beam="1">  1        1 0.41556246E+00 0.27603486E+03</pdfrwt>
<pdfrwt beam="2">  1       -1 0.10849378E-02 0.27603486E+03</pdfrwt>
<totfact> 0.19422226E+03</totfact>
</mgrwt>
</event>
<event>
 9    1  0.8093459E-001  0.2736648E+03  0.7818608E-02  0.1099200E+00
          1   -1    0    0  501    0  0.00000000000E+00  0.00000000000E+00  0.34818410627E+03  0.34818410627E+03  0.00000000000E+00 0.  1.
         -1   -1    0    0    0  501 -0.00000000000E+00 -0.00000000000E+00 -0.53773593163E+02  0.53773593163E+02  0.00000000000E+00 0.  1.
         35    2    1    2    0    0  0.35527136788E-14  0.71054273576E-14  0.29441051311E+03  0.40195769943E+03  0.27366483498E+03 0.  0.
         25    2    3    3    0    0 -0.85114033395E+01 -0.48755521929E+02  0.11836264028E+03  0.17983382188E+03  0.12601961741E+03 0.  0.
         25    2    3    3    0    0  0.85114033395E+01  0.48755521929E+02  0.17604787283E+03  0.22212387755E+03  0.12608179308E+03 0.  0.
          5    1    4    4  502    0  0.37007689055E+02 -0.65657051264E+02  0.10485226239E+03  0.12921495408E+03  0.47000000000E+01 0. -1.
         -5    1    4    4    0  502 -0.45519092395E+02  0.16901529335E+02  0.13510377885E+02  0.50618867795E+02  0.47000000000E+01 0. -1.
          5    1    5    5  503    0  0.95132757814E+01 -0.42427622903E+02  0.65223121370E+02  0.78528664591E+02  0.47000000000E+01 0. -1.
         -5    1    5    5    0  503 -0.10018724419E+01  0.91183144832E+02  0.11082475146E+03  0.14359521296E+03  0.47000000000E+01 0. -1.
<mgrwt>
<rscale>  0 0.27366483E+03</rscale>
<asrwt>0</asrwt>
<pdfrwt beam="1">  1        1 0.53566784E-01 0.27366483E+03</pdfrwt>
<pdfrwt beam="2">  1       -1 0.82728607E-02 0.27366483E+03</pdfrwt>
<totfact> 0.58855043E+03</totfact>
</mgrwt>
</event>
<event>
 9    1  0.8093459E-001  0.2750706E+03  0.7818608E-02  0.1098412E+00
         -2   -1    0    0    0  501 -0.00000000000E+00  0.00000000000E+00  0.23923021094E+02  0.23923021094E+02  0.00000000000E+00 0. -1.
          2   -1    0    0  501    0  0.00000000000E+00 -0.00000000000E+00 -0.79070106387E+03  0.79070106387E+03  0.00000000000E+00 0. -1.
         35    2    1    2    0    0  0.00000000000E+00 -0.71054273576E-14 -0.76677804278E+03  0.81462408497E+03  0.27507059625E+03 0.  0.
         25    2    3    3    0    0  0.25534302906E+02 -0.47745605398E+02 -0.32274919490E+03  0.35029394470E+03  0.12492862532E+03 0.  0.
         25    2    3    3    0    0 -0.25534302906E+02  0.47745605398E+02 -0.44402884788E+03  0.46433014027E+03  0.12453601067E+03 0.  0.
          5    1    4    4  502    0  0.48990196224E+02  0.15402946146E+02 -0.60528294564E+02  0.79517636527E+02  0.47000000000E+01 0. -1.
         -5    1    4    4    0  502 -0.23455893318E+02 -0.63148551544E+02 -0.26222090033E+03  0.27077630817E+03  0.47000000000E+01 0. -1.
          5    1    5    5  503    0 -0.73334299055E+02  0.28457940232E+02 -0.20195663320E+03  0.21678640518E+03  0.47000000000E+01 0. -1.
         -5    1    5    5    0  503  0.47799996148E+02  0.19287665166E+02 -0.24207221468E+03  0.24754373509E+03  0.47000000000E+01 0. -1.
<mgrwt>
<rscale>  0 0.27507060E+03</rscale>
<asrwt>0</asrwt>
<pdfrwt beam="1">  1        2 0.12164630E+00 0.27507060E+03</pdfrwt>
<pdfrwt beam="2">  1       -2 0.36804653E-02 0.27507060E+03</pdfrwt>
<totfact> 0.11183689E+04</totfact>
</mgrwt>
</event>
<event>
 9    1  0.8093459E-001  0.2720415E+03  0.7818608E-02  0.1100117E+00
         -1   -1    0    0    0  501 -0.00000000000E+00  0.00000000000E+00  0.46690952193E+01  0.46690952193E+01  0.00000000000E+00 0.  1.
          1   -1    0    0  501    0  0.00000000000E+00 -0.00000000000E+00 -0.39625765768E+04  0.39625765768E+04  0.00000000000E+00 0.  1.
         35    2    1    2    0    0 -0.71054273576E-14  0.00000000000E+00 -0.39579074816E+04  0.39672456720E+04  0.27204152147E+03 0.  0.
         25    2    3    3    0    0 -0.34645010895E+02  0.29337596607E+02 -0.23820688571E+04  0.23857986839E+04  0.12538879077E+03 0.  0.
         25    2    3    3    0    0  0.34645010895E+02 -0.29337596607E+02 -0.15758386245E+04  0.15814469881E+04  0.12508490886E+03 0.  0.
          5    1    4    4  502    0  0.38679514187E+02  0.81959190657E+01 -0.34406845847E+03  0.34636465181E+03  0.47000000000E+01 0. -1.
         -5    1    4    4    0  502 -0.73324525082E+02  0.21141677542E+02 -0.20380003987E+04  0.20394340321E+04  0.47000000000E+01 0. -1.
          5    1    5    5  503    0 -0.36462986429E+02 -0.18318723337E+02 -0.22728831748E+03  0.23097011553E+03  0.47000000000E+01 0. -1.
         -5    1    5    5    0  503  0.71107997324E+02 -0.11018873271E+02 -0.13485503070E+04  0.13504768726E+04  0.47000000000E+01 0. -1.
<mgrwt>
<rscale>  0 0.27204152E+03</rscale>
<asrwt>0</asrwt>
<pdfrwt beam="1">  1        1 0.60962407E+00 0.27204152E+03</pdfrwt>
<pdfrwt beam="2">  1       -1 0.71832599E-03 0.27204152E+03</pdfrwt>
<totfact> 0.40934074E+02</totfact>
</mgrwt>
</event>
<event>
 9    1  0.8093459E-001  0.2778922E+03  0.7818608E-02  0.1096846E+00
         -2   -1    0    0    0  501 -0.00000000000E+00  0.00000000000E+00  0.63110327088E+01  0.63110327088E+01  0.00000000000E+00 0.  1.
          2   -1    0    0  501    0  0.00000000000E+00 -0.00000000000E+00 -0.30590912635E+04  0.30590912635E+04  0.00000000000E+00 0.  1.
         35    2    1    2    0    0 -0.17763568394E-14  0.00000000000E+00 -0.30527802308E+04  0.30654022962E+04  0.27789224547E+03 0.  0.
         25    2    3    3    0    0 -0.77534996870E+01 -0.66834665683E+01 -0.88033463560E+03  0.88916196303E+03  0.12455978639E+03 0.  0.
         25    2    3    3    0    0  0.77534996870E+01  0.66834665683E+01 -0.21724455952E+04  0.21762403332E+04  0.12805209170E+03 0.  0.
          5    1    4    4  502    0  0.12487627526E+02  0.37572832244E+02 -0.72976301812E+03  0.73085142893E+03  0.47000000000E+01 0.  1.
         -5    1    4    4    0  502 -0.20241127213E+02 -0.44256298812E+02 -0.15057161748E+03  0.15831053410E+03  0.47000000000E+01 0.  1.
          5    1    5    5  503    0 -0.64031495037E+01  0.40231697602E+02 -0.19740634592E+04  0.19744893569E+04  0.47000000000E+01 0. -1.
         -5    1    5    5    0  503  0.14156649191E+02 -0.33548231034E+02 -0.19838213602E+03  0.20175097624E+03  0.47000000000E+01 0. -1.
<mgrwt>
<rscale>  0 0.27789225E+03</rscale>
<asrwt>0</asrwt>
<pdfrwt beam="1">  1        2 0.47062918E+00 0.27789225E+03</pdfrwt>
<pdfrwt beam="2">  1       -2 0.97092862E-03 0.27789225E+03</pdfrwt>
<totfact> 0.42746383E+03</totfact>
</mgrwt>
</event>
<event>
 9    1  0.8093459E-001  0.2741998E+03  0.7818608E-02  0.1098900E+00
         -1   -1    0    0    0  501 -0.00000000000E+00  0.00000000000E+00  0.20730906408E+02  0.20730906408E+02  0.00000000000E+00 0.  1.
          1   -1    0    0  501    0  0.00000000000E+00 -0.00000000000E+00 -0.90668418178E+03  0.90668418178E+03  0.00000000000E+00 0.  1.
         35    2    1    2    0    0  0.00000000000E+00  0.35527136788E-14 -0.88595327537E+03  0.92741508819E+03  0.27419981702E+03 0.  0.
         25    2    3    3    0    0  0.30658278155E+02 -0.72300278641E+00 -0.60335385733E+03  0.61680460597E+03  0.12438485452E+03 0.  0.
         25    2    3    3    0    0 -0.30658278155E+02  0.72300278641E+00 -0.28259941804E+03  0.31061048222E+03  0.12520378523E+03 0.  0.
          5    1    4    4  502    0  0.70554168477E+02 -0.30013520815E+02 -0.41185229643E+03  0.41895477822E+03  0.47000000000E+01 0. -1.
         -5    1    4    4    0  502 -0.39895890322E+02  0.29290518029E+02 -0.19150156090E+03  0.19784982775E+03  0.47000000000E+01 0. -1.
          5    1    5    5  503    0 -0.12989401863E+02 -0.59626925152E+02 -0.18063153925E+03  0.19071952636E+03  0.47000000000E+01 0.  1.
         -5    1    5    5    0  503 -0.17668876292E+02  0.60349927938E+02 -0.10196787880E+03  0.11989095586E+03  0.47000000000E+01 0.  1.
<mgrwt>
<rscale>  0 0.27419982E+03</rscale>
<asrwt>0</asrwt>
<pdfrwt beam="1">  1        1 0.13948986E+00 0.27419982E+03</pdfrwt>
<pdfrwt beam="2">  1       -1 0.31893707E-02 0.27419982E+03</pdfrwt>
<totfact> 0.64911250E+03</totfact>
</mgrwt>
</event>
<event>
 9    1  0.8093459E-001  0.2779481E+03  0.7818608E-02  0.1096815E+00
          1   -1    0    0  501    0  0.00000000000E+00  0.00000000000E+00  0.20214313870E+03  0.20214313870E+03  0.00000000000E+00 0. -1.
         -1   -1    0    0    0  501 -0.00000000000E+00 -0.00000000000E+00 -0.95545105722E+02  0.95545105722E+02  0.00000000000E+00 0. -1.
         35    2    1    2    0    0 -0.71054273576E-14  0.71054273576E-14  0.10659803298E+03  0.29768824442E+03  0.27794810708E+03 0.  0.
         25    2    3    3    0    0 -0.18316491175E+02  0.46386336636E+02  0.81274833223E+02  0.15677670665E+03  0.12444336525E+03 0.  0.
         25    2    3    3    0    0  0.18316491175E+02 -0.46386336636E+02  0.25323199753E+02  0.14091153777E+03  0.12933526571E+03 0.  0.
          5    1    4    4  502    0  0.32402788048E+02  0.70390638750E+02  0.43788828129E+02  0.89130994418E+02  0.47000000000E+01 0.  1.
         -5    1    4    4    0  502 -0.50719279223E+02 -0.24004302114E+02  0.37486005094E+02  0.67645712228E+02  0.47000000000E+01 0.  1.
          5    1    5    5  503    0 -0.50175362936E+02 -0.28149028469E+01  0.31281703068E+02  0.59381189536E+02  0.47000000000E+01 0.  1.
         -5    1    5    5    0  503  0.68491854112E+02 -0.43571433789E+02 -0.59585033149E+01  0.81530348238E+02  0.47000000000E+01 0.  1.
<mgrwt>
<rscale>  0 0.27794811E+03</rscale>
<asrwt>0</asrwt>
<pdfrwt beam="1">  1        1 0.31098944E-01 0.27794811E+03</pdfrwt>
<pdfrwt beam="2">  1       -1 0.14699247E-01 0.27794811E+03</pdfrwt>
<totfact> 0.47735674E+03</totfact>
</mgrwt>
</event>
<event>
 9    1  0.8093459E-001  0.2773660E+03  0.7818608E-02  0.1097136E+00
         -2   -1    0    0    0  501 -0.00000000000E+00  0.00000000000E+00  0.60783413078E+03  0.60783413078E+03  0.00000000000E+00 0.  1.
          2   -1    0    0  501    0  0.00000000000E+00 -0.00000000000E+00 -0.31641822456E+02  0.31641822456E+02  0.00000000000E+00 0.  1.
         35    2    1    2    0    0  0.00000000000E+00  0.14210854715E-13  0.57619230833E+03  0.63947595324E+03  0.27736603720E+03 0.  0.
         25    2    3    3    0    0  0.41189798371E+02  0.44264815799E+02  0.28879962014E+03  0.32077085884E+03  0.12582825549E+03 0.  0.
         25    2    3    3    0    0 -0.41189798371E+02 -0.44264815799E+02  0.28739268819E+03  0.31870509440E+03  0.12378370880E+03 0.  0.
          5    1    4    4  502    0  0.84739077930E+02  0.42639341702E+02  0.18113804719E+03  0.20452849907E+03  0.47000000000E+01 0.  1.
         -5    1    4    4    0  502 -0.43549279559E+02  0.16254740969E+01  0.10766157294E+03  0.11624235977E+03  0.47000000000E+01 0.  1.
          5    1    5    5  503    0  0.19372442021E+02  0.21288643299E+02  0.16269579274E+03  0.16528916728E+03  0.47000000000E+01 0. -1.
         -5    1    5    5    0  503 -0.60562240392E+02 -0.65553459098E+02  0.12469689544E+03  0.15341592712E+03  0.47000000000E+01 0. -1.
<mgrwt>
<rscale>  0 0.27736604E+03</rscale>
<asrwt>0</asrwt>
<pdfrwt beam="1">  1        2 0.48679731E-02 0.27736604E+03</pdfrwt>
<pdfrwt beam="2">  1       -2 0.93512935E-01 0.27736604E+03</pdfrwt>
<totfact> 0.16304439E+03</totfact>
</mgrwt>
</event>
<event>
 9    1  0.8093459E-001  0.2757980E+03  0.7818608E-02  0.1098006E+00
          2   -1    0    0  501    0  0.00000000000E+00  0.00000000000E+00  0.21652171943E+04  0.21652171943E+04  0.00000000000E+00 0.  1.
         -2   -1    0    0    0  501 -0.00000000000E+00 -0.00000000000E+00 -0.87825510792E+01  0.87825510792E+01  0.00000000000E+00 0.  1.
         35    2    1    2    0    0 -0.71054273576E-14 -0.71054273576E-14  0.21564346433E+04  0.21739997454E+04  0.27579797394E+03 0.  0.
         25    2    3    3    0    0  0.36008873822E+02  0.39153510075E+02  0.90295101969E+03  0.91325055969E+03  0.12600160507E+03 0.  0.
         25    2    3    3    0    0 -0.36008873822E+02 -0.39153510075E+02  0.12534836236E+04  0.12607491857E+04  0.12424845430E+03 0.  0.
          5    1    4    4  502    0 -0.13100852335E+02  0.65257210100E+01  0.73549567127E+03  0.73565629871E+03  0.47000000000E+01 0.  1.
         -5    1    4    4    0  502  0.49109726157E+02  0.32627789065E+02  0.16745534842E+03  0.17759426099E+03  0.47000000000E+01 0.  1.
          5    1    5    5  503    0 -0.19182393155E+02  0.16124875623E+02  0.52464893826E+02  0.58332074412E+02  0.47000000000E+01 0. -1.
         -5    1    5    5    0  503 -0.16826480667E+02 -0.55278385699E+02  0.12010187298E+04  0.12024171113E+04  0.47000000000E+01 0. -1.
<mgrwt>
<rscale>  0 0.27579797E+03</rscale>
<asrwt>0</asrwt>
<pdfrwt beam="1">  1        2 0.33310991E+00 0.27579797E+03</pdfrwt>
<pdfrwt beam="2">  1       -2 0.13511634E-02 0.27579797E+03</pdfrwt>
<totfact> 0.83533410E+03</totfact>
</mgrwt>
</event>
<event>
 9    1  0.8093459E-001  0.2782733E+03  0.7818608E-02  0.1096636E+00
          2   -1    0    0  501    0  0.00000000000E+00  0.00000000000E+00  0.54604844514E+02  0.54604844514E+02  0.00000000000E+00 0. -1.
         -2   -1    0    0    0  501 -0.00000000000E+00 -0.00000000000E+00 -0.35452910404E+03  0.35452910404E+03  0.00000000000E+00 0. -1.
         35    2    1    2    0    0  0.35527136788E-14  0.00000000000E+00 -0.29992425952E+03  0.40913394855E+03  0.27827329445E+03 0.  0.
         25    2    3    3    0    0  0.23693070614E+02  0.41543129551E+02 -0.93242538900E+02  0.16285900910E+03  0.12466632495E+03 0.  0.
         25    2    3    3    0    0 -0.23693070614E+02 -0.41543129551E+02 -0.20668172062E+03  0.24627493945E+03  0.12508724536E+03 0.  0.
          5    1    4    4  502    0 -0.16149977916E+02 -0.21691143359E+02 -0.82819631217E+02  0.87249692274E+02  0.47000000000E+01 0.  1.
         -5    1    4    4    0  502  0.39843048531E+02  0.63234272910E+02 -0.10422907683E+02  0.75609316828E+02  0.47000000000E+01 0.  1.
          5    1    5    5  503    0 -0.52965129491E+02  0.23787018112E+02 -0.12267548729E+03  0.13580313824E+03  0.47000000000E+01 0. -1.
         -5    1    5    5    0  503  0.29272058877E+02 -0.65330147663E+02 -0.84006233331E+02  0.11047180121E+03  0.47000000000E+01 0. -1.
<mgrwt>
<rscale>  0 0.27827329E+03</rscale>
<asrwt>0</asrwt>
<pdfrwt beam="1">  1        2 0.84007452E-02 0.27827329E+03</pdfrwt>
<pdfrwt beam="2">  1       -2 0.54542940E-01 0.27827329E+03</pdfrwt>
<totfact> 0.25655448E+03</totfact>
</mgrwt>
</event>
<event>
 9    1  0.8093459E-001  0.2767485E+03  0.7818608E-02  0.1097478E+00
          3   -1    0    0  501    0  0.00000000000E+00  0.00000000000E+00  0.80889472639E+02  0.80889472639E+02  0.00000000000E+00 0. -1.
         -3   -1    0    0    0  501 -0.00000000000E+00 -0.00000000000E+00 -0.23671108169E+03  0.23671108169E+03  0.00000000000E+00 0. -1.
         35    2    1    2    0    0  0.14210854715E-13 -0.35527136788E-14 -0.15582160905E+03  0.31760055433E+03  0.27674851086E+03 0.  0.
         25    2    3    3    0    0 -0.51612300781E+02 -0.20987296705E+02 -0.53523046738E+02  0.14665960626E+03  0.12465964609E+03 0.  0.
         25    2    3    3    0    0  0.51612300781E+02  0.20987296705E+02 -0.10229856231E+03  0.17094094806E+03  0.12510601768E+03 0.  0.
          5    1    4    4  502    0 -0.32673283808E+02 -0.33977412476E+02  0.32533363717E+02  0.57467536819E+02  0.47000000000E+01 0.  1.
         -5    1    4    4    0  502 -0.18939016973E+02  0.12990115771E+02 -0.86056410455E+02  0.89192069446E+02  0.47000000000E+01 0.  1.
          5    1    5    5  503    0 -0.41161452845E+02  0.27345290536E+01 -0.23101742363E+02  0.47513401791E+02  0.47000000000E+01 0. -1.
         -5    1    5    5    0  503  0.92773753626E+02  0.18252767651E+02 -0.79196819951E+02  0.12342754627E+03  0.47000000000E+01 0. -1.
<mgrwt>
<rscale>  0 0.27674851E+03</rscale>
<asrwt>0</asrwt>
<pdfrwt beam="1">  1        3 0.12444534E-01 0.27674851E+03</pdfrwt>
<pdfrwt beam="2">  1       -3 0.36417090E-01 0.27674851E+03</pdfrwt>
<totfact> 0.96747860E+02</totfact>
</mgrwt>
</event>
<event>
 9    1  0.8093459E-001  0.2757280E+03  0.7818608E-02  0.1098045E+00
         -1   -1    0    0    0  501 -0.00000000000E+00  0.00000000000E+00  0.47740168090E+02  0.47740168090E+02  0.00000000000E+00 0.  1.
          1   -1    0    0  501    0  0.00000000000E+00 -0.00000000000E+00 -0.39812353745E+03  0.39812353745E+03  0.00000000000E+00 0.  1.
         35    2    1    2    0    0  0.00000000000E+00 -0.71054273576E-14 -0.35038336936E+03  0.44586370554E+03  0.27572801525E+03 0.  0.
         25    2    3    3    0    0  0.11042157310E+02  0.43385798823E+02 -0.16333834698E+03  0.21634387219E+03  0.13461425876E+03 0.  0.
         25    2    3    3    0    0 -0.11042157310E+02 -0.43385798823E+02 -0.18704502238E+03  0.22951983336E+03  0.12525676320E+03 0.  0.
          5    1    4    4  502    0 -0.39778311298E+02  0.71425427886E+02 -0.78463988350E+02  0.11341337340E+03  0.47000000000E+01 0. -1.
         -5    1    4    4    0  502  0.50820468608E+02 -0.28039629063E+02 -0.84874358629E+02  0.10293049879E+03  0.47000000000E+01 0. -1.
          5    1    5    5  503    0 -0.54241352685E+02 -0.54125168171E+02 -0.68807909770E+02  0.10309353335E+03  0.47000000000E+01 0. -1.
         -5    1    5    5    0  503  0.43199195375E+02  0.10739369349E+02 -0.11823711261E+03  0.12642630001E+03  0.47000000000E+01 0. -1.
<mgrwt>
<rscale>  0 0.27572802E+03</rscale>
<asrwt>0</asrwt>
<pdfrwt beam="1">  1        1 0.61249775E-01 0.27572802E+03</pdfrwt>
<pdfrwt beam="2">  1       -1 0.73446412E-02 0.27572802E+03</pdfrwt>
<totfact> 0.59506389E+03</totfact>
</mgrwt>
</event>
<event>
 9    1  0.8093459E-001  0.2745208E+03  0.7818608E-02  0.1098720E+00
          1   -1    0    0  501    0  0.00000000000E+00  0.00000000000E+00  0.30545231772E+03  0.30545231772E+03  0.00000000000E+00 0. -1.
         -1   -1    0    0    0  501 -0.00000000000E+00 -0.00000000000E+00 -0.61680403857E+02  0.61680403857E+02  0.00000000000E+00 0. -1.
         35    2    1    2    0    0  0.71054273576E-14  0.71054273576E-14  0.24377191386E+03  0.36713272158E+03  0.27452083576E+03 0.  0.
         25    2    3    3    0    0 -0.49869836524E+02 -0.25434018883E+02  0.10431000520E+03  0.17276917425E+03  0.12583608574E+03 0.  0.
         25    2    3    3    0    0  0.49869836524E+02  0.25434018883E+02  0.13946190867E+03  0.19436354733E+03  0.12326262471E+03 0.  0.
          5    1    4    4  502    0 -0.73164340305E+02 -0.59055024641E+02  0.86725364433E+02  0.12799959165E+03  0.47000000000E+01 0. -1.
         -5    1    4    4    0  502  0.23294503781E+02  0.33621005758E+02  0.17584640763E+02  0.44769582591E+02  0.47000000000E+01 0. -1.
          5    1    5    5  503    0 -0.16851663236E+02 -0.26137669756E+02  0.92553060426E+02  0.97751293231E+02  0.47000000000E+01 0. -1.
         -5    1    5    5    0  503  0.66721499760E+02  0.51571688638E+02  0.46908848242E+02  0.96612254102E+02  0.47000000000E+01 0. -1.
<mgrwt>
<rscale>  0 0.27452084E+03</rscale>
<asrwt>0</asrwt>
<pdfrwt beam="1">  1        1 0.46992663E-01 0.27452084E+03</pdfrwt>
<pdfrwt beam="2">  1       -1 0.94892931E-02 0.27452084E+03</pdfrwt>
<totfact> 0.56254063E+03</totfact>
</mgrwt>
</event>
<event>
 9    1  0.8093459E-001  0.2755872E+03  0.7818608E-02  0.1098124E+00
         -1   -1    0    0    0  501 -0.00000000000E+00  0.00000000000E+00  0.10050814964E+02  0.10050814964E+02  0.00000000000E+00 0. -1.
          1   -1    0    0  501    0  0.00000000000E+00 -0.00000000000E+00 -0.18891085051E+04  0.18891085051E+04  0.00000000000E+00 0. -1.
         35    2    1    2    0    0  0.00000000000E+00 -0.14210854715E-13 -0.18790576901E+04  0.18991593201E+04  0.27558722780E+03 0.  0.
         25    2    3    3    0    0 -0.18989785089E+02  0.46602895195E+02 -0.71528441983E+03  0.72755822794E+03  0.12319387976E+03 0.  0.
         25    2    3    3    0    0  0.18989785089E+02 -0.46602895195E+02 -0.11637732703E+04  0.11716010921E+04  0.12549283890E+03 0.  0.
          5    1    4    4  502    0 -0.68763658393E+02  0.69689009304E+01 -0.37112682644E+03  0.37753704136E+03  0.47000000000E+01 0. -1.
         -5    1    4    4    0  502  0.49773873304E+02  0.39633994264E+02 -0.34415759339E+03  0.35002118658E+03  0.47000000000E+01 0. -1.
          5    1    5    5  503    0  0.54268395314E+02 -0.55662045152E+02 -0.43595390141E+03  0.44285575096E+03  0.47000000000E+01 0. -1.
         -5    1    5    5    0  503 -0.35278610224E+02  0.90591499572E+01 -0.72781936890E+03  0.72874534117E+03  0.47000000000E+01 0. -1.
<mgrwt>
<rscale>  0 0.27558723E+03</rscale>
<asrwt>0</asrwt>
<pdfrwt beam="1">  1        1 0.29063219E+00 0.27558723E+03</pdfrwt>
<pdfrwt beam="2">  1       -1 0.15462786E-02 0.27558723E+03</pdfrwt>
<totfact> 0.39763673E+03</totfact>
</mgrwt>
</event>
<event>
 9    1  0.8093459E-001  0.2749390E+03  0.7818608E-02  0.1098486E+00
          1   -1    0    0  501    0  0.00000000000E+00  0.00000000000E+00  0.24605627979E+02  0.24605627979E+02  0.00000000000E+00 0.  1.
         -1   -1    0    0    0  501 -0.00000000000E+00 -0.00000000000E+00 -0.76802987254E+03  0.76802987254E+03  0.00000000000E+00 0.  1.
         35    2    1    2    0    0 -0.17763568394E-14 -0.14210854715E-13 -0.74342424456E+03  0.79263550052E+03  0.27493895555E+03 0.  0.
         25    2    3    3    0    0  0.64856131523E+01 -0.42785281083E+02 -0.48283998170E+03  0.50057487289E+03  0.12477224044E+03 0.  0.
         25    2    3    3    0    0 -0.64856131523E+01  0.42785281083E+02 -0.26058426286E+03  0.29206062763E+03  0.12458976164E+03 0.  0.
          5    1    4    4  502    0  0.48774957701E+02 -0.60688748405E+02 -0.21339309547E+03  0.22720216521E+03  0.47000000000E+01 0. -1.
         -5    1    4    4    0  502 -0.42289344549E+02  0.17903467322E+02 -0.26944688623E+03  0.27337270768E+03  0.47000000000E+01 0. -1.
          5    1    5    5  503    0  0.12791493995E+02  0.77509319605E+02 -0.10382766584E+03  0.13028273538E+03  0.47000000000E+01 0.  1.
         -5    1    5    5    0  503 -0.19277107147E+02 -0.34724038522E+02 -0.15675659702E+03  0.16177789225E+03  0.47000000000E+01 0.  1.
<mgrwt>
<rscale>  0 0.27493896E+03</rscale>
<asrwt>0</asrwt>
<pdfrwt beam="1">  1        1 0.37854817E-02 0.27493896E+03</pdfrwt>
<pdfrwt beam="2">  1       -1 0.11815843E+00 0.27493896E+03</pdfrwt>
<totfact> 0.16847253E+03</totfact>
</mgrwt>
</event>
<event>
 9    1  0.8093459E-001  0.2753669E+03  0.7818608E-02  0.1098247E+00
         -2   -1    0    0    0  501 -0.00000000000E+00  0.00000000000E+00  0.48326742149E+02  0.48326742149E+02  0.00000000000E+00 0. -1.
          2   -1    0    0  501    0  0.00000000000E+00 -0.00000000000E+00 -0.39226180251E+03  0.39226180251E+03  0.00000000000E+00 0. -1.
         35    2    1    2    0    0  0.00000000000E+00 -0.71054273576E-14 -0.34393506036E+03  0.44058854466E+03  0.27536691875E+03 0.  0.
         25    2    3    3    0    0 -0.49816173065E+02  0.10383647651E+02 -0.14034919061E+03  0.19583417139E+03  0.12674247961E+03 0.  0.
         25    2    3    3    0    0  0.49816173065E+02 -0.10383647651E+02 -0.20358586975E+03  0.24475437328E+03  0.12596835174E+03 0.  0.
          5    1    4    4  502    0 -0.65477948622E+02  0.35858464963E+02 -0.14691283323E+03  0.16485952151E+03  0.47000000000E+01 0.  1.
         -5    1    4    4    0  502  0.15661775557E+02 -0.25474817312E+02  0.65636426131E+01  0.30974649877E+02  0.47000000000E+01 0.  1.
          5    1    5    5  503    0  0.69169011125E+02  0.18480307388E+02 -0.50590634137E+02  0.87791663178E+02  0.47000000000E+01 0.  1.
         -5    1    5    5    0  503 -0.19352838060E+02 -0.28863955039E+02 -0.15299523561E+03  0.15696271010E+03  0.47000000000E+01 0.  1.
<mgrwt>
<rscale>  0 0.27536692E+03</rscale>
<asrwt>0</asrwt>
<pdfrwt beam="1">  1        2 0.60347969E-01 0.27536692E+03</pdfrwt>
<pdfrwt beam="2">  1       -2 0.74348835E-02 0.27536692E+03</pdfrwt>
<totfact> 0.85937688E+03</totfact>
</mgrwt>
</event>
<event>
 9    1  0.8093459E-001  0.2673353E+03  0.7818608E-02  0.1102814E+00
         -1   -1    0    0    0  501 -0.00000000000E+00  0.00000000000E+00  0.19773913758E+03  0.19773913758E+03  0.00000000000E+00 0. -1.
          1   -1    0    0  501    0  0.00000000000E+00 -0.00000000000E+00 -0.90356612338E+02  0.90356612338E+02  0.00000000000E+00 0. -1.
         35    2    1    2    0    0  0.71054273576E-14  0.00000000000E+00  0.10738252524E+03  0.28809574991E+03  0.26733528460E+03 0.  0.
         25    2    3    3    0    0 -0.42689855972E+02  0.27563658878E+02  0.38650108822E+02  0.13638357618E+03  0.12051750846E+03 0.  0.
         25    2    3    3    0    0  0.42689855972E+02 -0.27563658878E+02  0.68732416418E+02  0.15171217374E+03  0.12534057404E+03 0.  0.
          5    1    4    4  502    0  0.13420633174E+01 -0.39934717849E+02 -0.10873285048E+02  0.41676146071E+02  0.47000000000E+01 0.  1.
         -5    1    4    4    0  502 -0.44031919289E+02  0.67498376727E+02  0.49523393870E+02  0.94707430107E+02  0.47000000000E+01 0.  1.
          5    1    5    5  503    0  0.14661717691E+02 -0.61551132503E+02  0.83627015301E+02  0.10497178462E+03  0.47000000000E+01 0. -1.
         -5    1    5    5    0  503  0.28028138281E+02  0.33987473625E+02 -0.14894598883E+02  0.46740389117E+02  0.47000000000E+01 0. -1.
<mgrwt>
<rscale>  0 0.26733528E+03</rscale>
<asrwt>0</asrwt>
<pdfrwt beam="1">  1        1 0.13901017E-01 0.26733528E+03</pdfrwt>
<pdfrwt beam="2">  1       -1 0.30421406E-01 0.26733528E+03</pdfrwt>
<totfact> 0.40837384E+03</totfact>
</mgrwt>
</event>
<event>
 9    1  0.8093459E-001  0.2771708E+03  0.7818608E-02  0.1097244E+00
          2   -1    0    0  501    0  0.00000000000E+00  0.00000000000E+00  0.79849219088E+02  0.79849219088E+02  0.00000000000E+00 0. -1.
         -2   -1    0    0    0  501 -0.00000000000E+00 -0.00000000000E+00 -0.24052719191E+03  0.24052719191E+03  0.00000000000E+00 0. -1.
         35    2    1    2    0    0  0.00000000000E+00  0.00000000000E+00 -0.16067797282E+03  0.32037641100E+03  0.27717076645E+03 0.  0.
         25    2    3    3    0    0  0.36305878878E+02  0.40452195220E+02 -0.11080360405E+03  0.17530293489E+03  0.12449571628E+03 0.  0.
         25    2    3    3    0    0 -0.36305878878E+02 -0.40452195220E+02 -0.49874368774E+02  0.14507347611E+03  0.12491742821E+03 0.  0.
          5    1    4    4  502    0 -0.30684390979E+01  0.11362122477E+02 -0.12379029479E+03  0.12443729437E+03  0.47000000000E+01 0. -1.
         -5    1    4    4    0  502  0.39374317976E+02  0.29090072743E+02  0.12986690748E+02  0.50865640513E+02  0.47000000000E+01 0. -1.
          5    1    5    5  503    0 -0.29085899604E+02  0.32284076183E+02 -0.56610317179E+02  0.71519711562E+02  0.47000000000E+01 0.  1.
         -5    1    5    5    0  503 -0.72199792745E+01 -0.72736271403E+02  0.67359484050E+01  0.73553764548E+02  0.47000000000E+01 0.  1.
<mgrwt>
<rscale>  0 0.27717077E+03</rscale>
<asrwt>0</asrwt>
<pdfrwt beam="1">  1        2 0.12284496E-01 0.27717077E+03</pdfrwt>
<pdfrwt beam="2">  1       -2 0.37004182E-01 0.27717077E+03</pdfrwt>
<totfact> 0.34178777E+03</totfact>
</mgrwt>
</event>
<event>
 9    1  0.8093459E-001  0.2757771E+03  0.7818608E-02  0.1098018E+00
         -2   -1    0    0    0  501 -0.00000000000E+00  0.00000000000E+00  0.13128007482E+02  0.13128007482E+02  0.00000000000E+00 0. -1.
          2   -1    0    0  501    0  0.00000000000E+00 -0.00000000000E+00 -0.14482965991E+04  0.14482965991E+04  0.00000000000E+00 0. -1.
         35    2    1    2    0    0 -0.35527136788E-14  0.17763568394E-14 -0.14351685916E+04  0.14614246066E+04  0.27577707366E+03 0.  0.
         25    2    3    3    0    0  0.81403414398E+01 -0.55256043038E+01 -0.41247612241E+03  0.43111124241E+03  0.12499421709E+03 0.  0.
         25    2    3    3    0    0 -0.81403414398E+01  0.55256043038E+01 -0.10226924692E+04  0.10303133642E+04  0.12469540638E+03 0.  0.
          5    1    4    4  502    0 -0.40701285113E+02  0.35692886288E+02 -0.26170472532E+03  0.26728641940E+03  0.47000000000E+01 0.  1.
         -5    1    4    4    0  502  0.48841626553E+02 -0.41218490592E+02 -0.15077139710E+03  0.16382482301E+03  0.47000000000E+01 0.  1.
          5    1    5    5  503    0  0.11690877877E+02  0.16845173016E+02 -0.26437296208E+02  0.33785457083E+02  0.47000000000E+01 0.  1.
         -5    1    5    5    0  503 -0.19831219317E+02 -0.11319568712E+02 -0.99625517299E+03  0.99652790708E+03  0.47000000000E+01 0.  1.
<mgrwt>
<rscale>  0 0.27577707E+03</rscale>
<asrwt>0</asrwt>
<pdfrwt beam="1">  1        2 0.22281487E+00 0.27577707E+03</pdfrwt>
<pdfrwt beam="2">  1       -2 0.20196934E-02 0.27577707E+03</pdfrwt>
<totfact> 0.11084590E+04</totfact>
</mgrwt>
</event>
<event>
 9    1  0.8093459E-001  0.2743580E+03  0.7818608E-02  0.1098811E+00
         -2   -1    0    0    0  501 -0.00000000000E+00  0.00000000000E+00  0.93720195195E+02  0.93720195195E+02  0.00000000000E+00 0. -1.
          2   -1    0    0  501    0  0.00000000000E+00 -0.00000000000E+00 -0.20078999738E+03  0.20078999738E+03  0.00000000000E+00 0. -1.
         35    2    1    2    0    0 -0.71054273576E-14  0.71054273576E-14 -0.10706980219E+03  0.29451019258E+03  0.27435799786E+03 0.  0.
         25    2    3    3    0    0  0.80335773300E+01  0.56108749280E+02 -0.86825694967E+02  0.15678386011E+03  0.11759994631E+03 0.  0.
         25    2    3    3    0    0 -0.80335773300E+01 -0.56108749280E+02 -0.20244107224E+02  0.13772633247E+03  0.12387892746E+03 0.  0.
          5    1    4    4  502    0 -0.39139824523E+02 -0.17331108666E+02 -0.26217076769E+02  0.50415457010E+02  0.47000000000E+01 0.  1.
         -5    1    4    4    0  502  0.47173401853E+02  0.73439857946E+02 -0.60608618198E+02  0.10636840310E+03  0.47000000000E+01 0.  1.
          5    1    5    5  503    0 -0.49309766374E+02  0.91194827921E+01  0.15267143826E+02  0.52628829617E+02  0.47000000000E+01 0. -1.
         -5    1    5    5    0  503  0.41276189044E+02 -0.65228232072E+02 -0.35511251049E+02  0.85097502856E+02  0.47000000000E+01 0. -1.
<mgrwt>
<rscale>  0 0.27435800E+03</rscale>
<asrwt>0</asrwt>
<pdfrwt beam="1">  1        2 0.30890768E-01 0.27435800E+03</pdfrwt>
<pdfrwt beam="2">  1       -2 0.14418492E-01 0.27435800E+03</pdfrwt>
<totfact> 0.61589215E+03</totfact>
</mgrwt>
</event>
<event>
 9    1  0.8093459E-001  0.2756832E+03  0.7818608E-02  0.1098070E+00
         -2   -1    0    0    0  501 -0.00000000000E+00  0.00000000000E+00  0.20676030072E+02  0.20676030072E+02  0.00000000000E+00 0.  1.
          2   -1    0    0  501    0  0.00000000000E+00 -0.00000000000E+00 -0.91895346623E+03  0.91895346623E+03  0.00000000000E+00 0.  1.
         35    2    1    2    0    0  0.35527136788E-14 -0.71054273576E-14 -0.89827743616E+03  0.93962949631E+03  0.27568322040E+03 0.  0.
         25    2    3    3    0    0  0.19599599402E+02 -0.50981927596E+02 -0.40271218190E+03  0.42516430987E+03  0.12491712333E+03 0.  0.
         25    2    3    3    0    0 -0.19599599402E+02  0.50981927596E+02 -0.49556525426E+03  0.51446518643E+03  0.12691022646E+03 0.  0.
          5    1    4    4  502    0 -0.83842074007E+01 -0.88553915708E+02 -0.25293114031E+03  0.26815730954E+03  0.47000000000E+01 0.  1.
         -5    1    4    4    0  502  0.27983806803E+02  0.37571988112E+02 -0.14978104159E+03  0.15700700033E+03  0.47000000000E+01 0.  1.
          5    1    5    5  503    0  0.26478378463E+02 -0.20781290665E+02 -0.28822092995E+03  0.29021778207E+03  0.47000000000E+01 0. -1.
         -5    1    5    5    0  503 -0.46077977865E+02  0.71763218261E+02 -0.20734432432E+03  0.22424740437E+03  0.47000000000E+01 0. -1.
<mgrwt>
<rscale>  0 0.27568322E+03</rscale>
<asrwt>0</asrwt>
<pdfrwt beam="1">  1        2 0.14137750E+00 0.27568322E+03</pdfrwt>
<pdfrwt beam="2">  1       -2 0.31809267E-02 0.27568322E+03</pdfrwt>
<totfact> 0.11428034E+04</totfact>
</mgrwt>
</event>
<event>
 9    1  0.8093459E-001  0.2939436E+03  0.7818608E-02  0.1088308E+00
          1   -1    0    0  501    0  0.00000000000E+00  0.00000000000E+00  0.74716777358E+02  0.74716777358E+02  0.00000000000E+00 0.  1.
         -1   -1    0    0    0  501 -0.00000000000E+00 -0.00000000000E+00 -0.28910115832E+03  0.28910115832E+03  0.00000000000E+00 0.  1.
         35    2    1    2    0    0 -0.71054273576E-14 -0.88817841970E-15 -0.21438438096E+03  0.36381793568E+03  0.29394357880E+03 0.  0.
         25    2    3    3    0    0  0.25724078111E+02 -0.68778580446E+01 -0.16555266860E+02  0.12996325004E+03  0.12612428939E+03 0.  0.
         25    2    3    3    0    0 -0.25724078111E+02  0.68778580446E+01 -0.19782911410E+03  0.23385468564E+03  0.12183030200E+03 0.  0.
          5    1    4    4  502    0 -0.41248577425E+02 -0.61586032556E+01  0.27025267817E+02  0.49918219462E+02  0.47000000000E+01 0.  1.
         -5    1    4    4    0  502  0.66972655536E+02 -0.71925478897E+00 -0.43580534677E+02  0.80045030575E+02  0.47000000000E+01 0.  1.
          5    1    5    5  503    0 -0.72524538825E+02  0.20231413988E+02 -0.12871896895E+03  0.14919712400E+03  0.47000000000E+01 0.  1.
         -5    1    5    5    0  503  0.46800460714E+02 -0.13353555944E+02 -0.69110145152E+02  0.84657561637E+02  0.47000000000E+01 0.  1.
<mgrwt>
<rscale>  0 0.29394358E+03</rscale>
<asrwt>0</asrwt>
<pdfrwt beam="1">  1        1 0.11494889E-01 0.29394358E+03</pdfrwt>
<pdfrwt beam="2">  1       -1 0.44477101E-01 0.29394358E+03</pdfrwt>
<totfact> 0.27060332E+03</totfact>
</mgrwt>
</event>
<event>
 9    1  0.8093459E-001  0.2799968E+03  0.7818608E-02  0.1095691E+00
          1   -1    0    0  501    0  0.00000000000E+00  0.00000000000E+00  0.27377506517E+04  0.27377506517E+04  0.00000000000E+00 0. -1.
         -1   -1    0    0    0  501 -0.00000000000E+00 -0.00000000000E+00 -0.71589978918E+01  0.71589978918E+01  0.00000000000E+00 0. -1.
         35    2    1    2    0    0  0.35527136788E-14  0.00000000000E+00  0.27305916538E+04  0.27449096496E+04  0.27999679386E+03 0.  0.
         25    2    3    3    0    0 -0.23579552331E+02 -0.57094643152E+02  0.11899597633E+04  0.11979544584E+04  0.12359147536E+03 0.  0.
         25    2    3    3    0    0  0.23579552331E+02  0.57094643152E+02  0.15406318905E+04  0.15469551911E+04  0.12533135145E+03 0.  0.
          5    1    4    4  502    0 -0.33080371525E+01  0.37983225319E+02  0.24468305009E+03  0.24768034544E+03  0.47000000000E+01 0. -1.
         -5    1    4    4    0  502 -0.20271515179E+02 -0.95077868471E+02  0.94527671317E+03  0.95027411301E+03  0.47000000000E+01 0. -1.
          5    1    5    5  503    0  0.74111786865E+02  0.20499718319E+02  0.88201991490E+03  0.88537789428E+03  0.47000000000E+01 0.  1.
         -5    1    5    5    0  503 -0.50532234533E+02  0.36594924833E+02  0.65861197564E+03  0.66157729685E+03  0.47000000000E+01 0.  1.
<mgrwt>
<rscale>  0 0.27999679E+03</rscale>
<asrwt>0</asrwt>
<pdfrwt beam="1">  1        1 0.42119157E+00 0.27999679E+03</pdfrwt>
<pdfrwt beam="2">  1       -1 0.11013865E-02 0.27999679E+03</pdfrwt>
<totfact> 0.17941147E+03</totfact>
</mgrwt>
</event>
<event>
 9    1  0.8093459E-001  0.2760562E+03  0.7818608E-02  0.1097863E+00
          2   -1    0    0  501    0  0.00000000000E+00  0.00000000000E+00  0.26866003319E+04  0.26866003319E+04  0.00000000000E+00 0. -1.
         -2   -1    0    0    0  501 -0.00000000000E+00 -0.00000000000E+00 -0.70913984931E+01  0.70913984931E+01  0.00000000000E+00 0. -1.
         35    2    1    2    0    0  0.00000000000E+00 -0.53290705182E-14  0.26795089334E+04  0.26936917304E+04  0.27605617939E+03 0.  0.
         25    2    3    3    0    0  0.15576781471E+02  0.13187980173E+02  0.18665381470E+04  0.18708564941E+04  0.12539062343E+03 0.  0.
         25    2    3    3    0    0 -0.15576781471E+02 -0.13187980173E+02  0.81297078645E+03  0.82283523632E+03  0.12537849720E+03 0.  0.
          5    1    4    4  502    0 -0.38147524219E+02 -0.36698699665E+02  0.70826022805E+03  0.71025113079E+03  0.47000000000E+01 0. -1.
         -5    1    4    4    0  502  0.53724305689E+02  0.49886679839E+02  0.11582779189E+04  0.11606053633E+04  0.47000000000E+01 0. -1.
          5    1    5    5  503    0  0.45096299502E+02  0.87277136055E+01  0.55356092279E+03  0.55548324408E+03  0.47000000000E+01 0. -1.
         -5    1    5    5    0  503 -0.60673080972E+02 -0.21915693779E+02  0.25940986367E+03  0.26735199224E+03  0.47000000000E+01 0. -1.
<mgrwt>
<rscale>  0 0.27605618E+03</rscale>
<asrwt>0</asrwt>
<pdfrwt beam="1">  1        2 0.41332231E+00 0.27605618E+03</pdfrwt>
<pdfrwt beam="2">  1       -2 0.10909865E-02 0.27605618E+03</pdfrwt>
<totfact> 0.59345953E+03</totfact>
</mgrwt>
</event>
<event>
 9    1  0.8093459E-001  0.2765592E+03  0.7818608E-02  0.1097583E+00
          2   -1    0    0  501    0  0.00000000000E+00  0.00000000000E+00  0.13836863907E+04  0.13836863907E+04  0.00000000000E+00 0. -1.
         -2   -1    0    0    0  501 -0.00000000000E+00 -0.00000000000E+00 -0.13819058524E+02  0.13819058524E+02  0.00000000000E+00 0. -1.
         35    2    1    2    0    0  0.35527136788E-14 -0.71054273576E-14  0.13698673322E+04  0.13975054492E+04  0.27655916700E+03 0.  0.
         25    2    3    3    0    0 -0.10234677664E+01 -0.45704830325E+02  0.56940981340E+03  0.58542877693E+03  0.12809893932E+03 0.  0.
         25    2    3    3    0    0  0.10234677664E+01  0.45704830325E+02  0.80045751877E+03  0.81207667229E+03  0.12902055389E+03 0.  0.
          5    1    4    4  502    0  0.25959934713E+02 -0.36356989782E+02  0.58778797516E+02  0.73978280284E+02  0.47000000000E+01 0.  1.
         -5    1    4    4    0  502 -0.26983402479E+02 -0.93478405434E+01  0.51063101589E+03  0.51145049664E+03  0.47000000000E+01 0.  1.
          5    1    5    5  503    0 -0.31876236612E+02 -0.34454102680E+02  0.36693788936E+03  0.36995767906E+03  0.47000000000E+01 0.  1.
         -5    1    5    5    0  503  0.32899704378E+02  0.80158933005E+02  0.43351962941E+03  0.44211899323E+03  0.47000000000E+01 0.  1.
<mgrwt>
<rscale>  0 0.27655917E+03</rscale>
<asrwt>0</asrwt>
<pdfrwt beam="1">  1        2 0.21287472E+00 0.27655917E+03</pdfrwt>
<pdfrwt beam="2">  1       -2 0.21260101E-02 0.27655917E+03</pdfrwt>
<totfact> 0.11141342E+04</totfact>
</mgrwt>
</event>
<event>
 9    1  0.8093459E-001  0.2776073E+03  0.7818608E-02  0.1097003E+00
         -2   -1    0    0    0  501 -0.00000000000E+00  0.00000000000E+00  0.12032973544E+02  0.12032973544E+02  0.00000000000E+00 0.  1.
          2   -1    0    0  501    0  0.00000000000E+00 -0.00000000000E+00 -0.16011384896E+04  0.16011384896E+04  0.00000000000E+00 0.  1.
         35    2    1    2    0    0  0.35527136788E-14  0.14210854715E-13 -0.15891055161E+04  0.16131714632E+04  0.27760732762E+03 0.  0.
         25    2    3    3    0    0  0.29676175292E+02  0.35993649687E+02 -0.10212759234E+04  0.10298643093E+04  0.12425685354E+03 0.  0.
         25    2    3    3    0    0 -0.29676175292E+02 -0.35993649687E+02 -0.56782959267E+03  0.58330715386E+03  0.12506226943E+03 0.  0.
          5    1    4    4  502    0  0.73463638363E+02  0.45536469526E+02 -0.73193897446E+03  0.73703950271E+03  0.47000000000E+01 0. -1.
         -5    1    4    4    0  502 -0.43787463071E+02 -0.95428198396E+01 -0.28933694894E+03  0.29282480659E+03  0.47000000000E+01 0. -1.
          5    1    5    5  503    0  0.20721959912E+02 -0.64955322456E+02 -0.39592668585E+03  0.40178181157E+03  0.47000000000E+01 0.  1.
         -5    1    5    5    0  503 -0.50398135204E+02  0.28961672769E+02 -0.17190290682E+03  0.18152534229E+03  0.47000000000E+01 0.  1.
<mgrwt>
<rscale>  0 0.27760733E+03</rscale>
<asrwt>0</asrwt>
<pdfrwt beam="1">  1        2 0.24632883E+00 0.27760733E+03</pdfrwt>
<pdfrwt beam="2">  1       -2 0.18512280E-02 0.27760733E+03</pdfrwt>
<totfact> 0.10441353E+04</totfact>
</mgrwt>
</event>
<event>
 9    1  0.8093459E-001  0.2735855E+03  0.7818608E-02  0.1099245E+00
         -2   -1    0    0    0  501 -0.00000000000E+00  0.00000000000E+00  0.95206507988E+02  0.95206507988E+02  0.00000000000E+00 0.  1.
          2   -1    0    0  501    0  0.00000000000E+00 -0.00000000000E+00 -0.19654391990E+03  0.19654391990E+03  0.00000000000E+00 0.  1.
         35    2    1    2    0    0 -0.71054273576E-14  0.35527136788E-14 -0.10133741191E+03  0.29175042789E+03  0.27358552798E+03 0.  0.
         25    2    3    3    0    0 -0.40534821642E+02 -0.14745720929E+02 -0.15121364198E+02  0.13444100501E+03  0.12643267031E+03 0.  0.
         25    2    3    3    0    0  0.40534821642E+02  0.14745720929E+02 -0.86216047716E+02  0.15730942288E+03  0.12430824426E+03 0.  0.
          5    1    4    4  502    0 -0.28583943283E+02 -0.39635861528E+02 -0.62455952298E+02  0.79441042983E+02  0.47000000000E+01 0. -1.
         -5    1    4    4    0  502 -0.11950878359E+02  0.24890140598E+02  0.47334588101E+02  0.54999962029E+02  0.47000000000E+01 0. -1.
          5    1    5    5  503    0 -0.34739778562E+02  0.33502794369E+02 -0.12238902612E+02  0.50011700453E+02  0.47000000000E+01 0. -1.
         -5    1    5    5    0  503  0.75274600204E+02 -0.18757073439E+02 -0.73977145104E+02  0.10729772243E+03  0.47000000000E+01 0. -1.
<mgrwt>
<rscale>  0 0.27358553E+03</rscale>
<asrwt>0</asrwt>
<pdfrwt beam="1">  1        2 0.30237526E-01 0.27358553E+03</pdfrwt>
<pdfrwt beam="2">  1       -2 0.14647155E-01 0.27358553E+03</pdfrwt>
<totfact> 0.61430023E+03</totfact>
</mgrwt>
</event>
<event>
 9    1  0.8093459E-001  0.2751999E+03  0.7818608E-02  0.1098340E+00
         -2   -1    0    0    0  501 -0.00000000000E+00  0.00000000000E+00  0.22264720292E+02  0.22264720292E+02  0.00000000000E+00 0.  1.
          2   -1    0    0  501    0  0.00000000000E+00 -0.00000000000E+00 -0.85039213860E+03  0.85039213860E+03  0.00000000000E+00 0.  1.
         35    2    1    2    0    0 -0.88817841970E-15  0.00000000000E+00 -0.82812741831E+03  0.87265685889E+03  0.27519987721E+03 0.  0.
         25    2    3    3    0    0 -0.80274238038E+00  0.54283852306E+02 -0.33998428453E+03  0.36594485391E+03  0.12401185976E+03 0.  0.
         25    2    3    3    0    0  0.80274238038E+00 -0.54283852306E+02 -0.48814313378E+03  0.50671200498E+03  0.12460319386E+03 0.  0.
          5    1    4    4  502    0 -0.55553436616E+02  0.18401494338E+01 -0.10370720359E+03  0.11775756683E+03  0.47000000000E+01 0.  1.
         -5    1    4    4    0  502  0.54750694236E+02  0.52443702873E+02 -0.23627708094E+03  0.24818728708E+03  0.47000000000E+01 0.  1.
          5    1    5    5  503    0  0.77222969020E+01  0.38916800040E+02 -0.19292356536E+03  0.19701711415E+03  0.47000000000E+01 0.  1.
         -5    1    5    5    0  503 -0.69195545217E+01 -0.93200652347E+02 -0.29521956841E+03  0.30969489083E+03  0.47000000000E+01 0.  1.
<mgrwt>
<rscale>  0 0.27519988E+03</rscale>
<asrwt>0</asrwt>
<pdfrwt beam="1">  1        2 0.13082954E+00 0.27519988E+03</pdfrwt>
<pdfrwt beam="2">  1       -2 0.34253421E-02 0.27519988E+03</pdfrwt>
<totfact> 0.11341264E+04</totfact>
</mgrwt>
</event>
<event>
 9    1  0.8093459E-001  0.2750427E+03  0.7818608E-02  0.1098428E+00
          1   -1    0    0  501    0  0.00000000000E+00  0.00000000000E+00  0.60398947386E+02  0.60398947386E+02  0.00000000000E+00 0. -1.
         -1   -1    0    0    0  501 -0.00000000000E+00 -0.00000000000E+00 -0.31312012859E+03  0.31312012859E+03  0.00000000000E+00 0. -1.
         35    2    1    2    0    0  0.00000000000E+00 -0.35527136788E-14 -0.25272118120E+03  0.37351907597E+03  0.27504273248E+03 0.  0.
         25    2    3    3    0    0 -0.44121274081E+02  0.23919474451E+02 -0.16348718010E+03  0.21176624382E+03  0.12489217702E+03 0.  0.
         25    2    3    3    0    0  0.44121274081E+02 -0.23919474451E+02 -0.89234001096E+02  0.16175283215E+03  0.12522956389E+03 0.  0.
          5    1    4    4  502    0 -0.49858198211E+02 -0.42575334002E+02 -0.99045935628E+02  0.11887256352E+03  0.47000000000E+01 0.  1.
         -5    1    4    4    0  502  0.57369241304E+01  0.66494808453E+02 -0.64441244476E+02  0.92893680298E+02  0.47000000000E+01 0.  1.
          5    1    5    5  503    0 -0.24699145446E+02 -0.17569914450E+02 -0.87214441129E+02  0.92451059600E+02  0.47000000000E+01 0. -1.
         -5    1    5    5    0  503  0.68820419527E+02 -0.63495600012E+01 -0.20195599669E+01  0.69301772550E+02  0.47000000000E+01 0. -1.
<mgrwt>
<rscale>  0 0.27504273E+03</rscale>
<asrwt>0</asrwt>
<pdfrwt beam="1">  1        1 0.92921459E-02 0.27504273E+03</pdfrwt>
<pdfrwt beam="2">  1       -1 0.48172327E-01 0.27504273E+03</pdfrwt>
<totfact> 0.31083854E+03</totfact>
</mgrwt>
</event>
<event>
 9    1  0.8093459E-001  0.2777573E+03  0.7818608E-02  0.1096920E+00
          1   -1    0    0  501    0  0.00000000000E+00  0.00000000000E+00  0.28884398183E+03  0.28884398183E+03  0.00000000000E+00 0.  1.
         -1   -1    0    0    0  501 -0.00000000000E+00 -0.00000000000E+00 -0.66774052298E+02  0.66774052298E+02  0.00000000000E+00 0.  1.
         35    2    1    2    0    0  0.35527136788E-14  0.00000000000E+00  0.22206992953E+03  0.35561803412E+03  0.27775732681E+03 0.  0.
         25    2    3    3    0    0  0.20535547402E+02  0.32851317968E+02  0.17452353343E+03  0.21627057292E+03  0.12171104795E+03 0.  0.
         25    2    3    3    0    0 -0.20535547402E+02 -0.32851317968E+02  0.47546396096E+02  0.13934746120E+03  0.12512448746E+03 0.  0.
          5    1    4    4  502    0 -0.19163257700E+02  0.64174168872E+02  0.56372418681E+02  0.87666949211E+02  0.47000000000E+01 0. -1.
         -5    1    4    4    0  502  0.39698805102E+02 -0.31322850904E+02  0.11815111475E+03  0.12860362371E+03  0.47000000000E+01 0. -1.
          5    1    5    5  503    0  0.79038029720E+00  0.46021950821E+02  0.31433876590E+02  0.55935885225E+02  0.47000000000E+01 0.  1.
         -5    1    5    5    0  503 -0.21325927699E+02 -0.78873268789E+02  0.16112519506E+02  0.83411575975E+02  0.47000000000E+01 0.  1.
<mgrwt>
<rscale>  0 0.27775733E+03</rscale>
<asrwt>0</asrwt>
<pdfrwt beam="1">  1        1 0.44437535E-01 0.27775733E+03</pdfrwt>
<pdfrwt beam="2">  1       -1 0.10272931E-01 0.27775733E+03</pdfrwt>
<totfact> 0.53410225E+03</totfact>
</mgrwt>
</event>
<event>
 9    1  0.8093459E-001  0.2837393E+03  0.7818608E-02  0.1093664E+00
          2   -1    0    0  501    0  0.00000000000E+00  0.00000000000E+00  0.49845609081E+03  0.49845609081E+03  0.00000000000E+00 0. -1.
         -2   -1    0    0    0  501 -0.00000000000E+00 -0.00000000000E+00 -0.40378671796E+02  0.40378671796E+02  0.00000000000E+00 0. -1.
         35    2    1    2    0    0 -0.35527136788E-14  0.00000000000E+00  0.45807741901E+03  0.53883476260E+03  0.28373928100E+03 0.  0.
         25    2    3    3    0    0  0.28790165418E+02  0.49816710284E+02  0.29606157420E+03  0.32647101097E+03  0.12498114674E+03 0.  0.
         25    2    3    3    0    0 -0.28790165418E+02 -0.49816710284E+02  0.16201584481E+03  0.21236375163E+03  0.12465412463E+03 0.  0.
          5    1    4    4  502    0  0.12831993753E+00  0.86450259913E+02  0.22813705839E+03  0.24401285072E+03  0.47000000000E+01 0.  1.
         -5    1    4    4    0  502  0.28661845480E+02 -0.36633549629E+02  0.67924515812E+02  0.82458160257E+02  0.47000000000E+01 0.  1.
          5    1    5    5  503    0  0.38429947959E+02 -0.57061067292E+02  0.91318254087E+02  0.11442875439E+03  0.47000000000E+01 0. -1.
         -5    1    5    5    0  503 -0.67220113376E+02  0.72443570081E+01  0.70697590722E+02  0.97934997241E+02  0.47000000000E+01 0. -1.
<mgrwt>
<rscale>  0 0.28373928E+03</rscale>
<asrwt>0</asrwt>
<pdfrwt beam="1">  1        2 0.76685548E-01 0.28373928E+03</pdfrwt>
<pdfrwt beam="2">  1       -2 0.62121037E-02 0.28373928E+03</pdfrwt>
<totfact> 0.87267783E+03</totfact>
</mgrwt>
</event>
<event>
 9    1  0.8093459E-001  0.2745090E+03  0.7818608E-02  0.1098726E+00
          2   -1    0    0  501    0  0.00000000000E+00  0.00000000000E+00  0.12685067533E+04  0.12685067533E+04  0.00000000000E+00 0. -1.
         -2   -1    0    0    0  501 -0.00000000000E+00 -0.00000000000E+00 -0.14851160719E+02  0.14851160719E+02  0.00000000000E+00 0. -1.
         35    2    1    2    0    0  0.71054273576E-14  0.00000000000E+00  0.12536555926E+04  0.12833579140E+04  0.27450899925E+03 0.  0.
         25    2    3    3    0    0  0.58525441464E+02  0.60237481742E+00  0.60718497591E+03  0.62265749592E+03  0.12491265785E+03 0.  0.
         25    2    3    3    0    0 -0.58525441464E+02 -0.60237481742E+00  0.64647061669E+03  0.66070041813E+03  0.12318763784E+03 0.  0.
          5    1    4    4  502    0 -0.14571020437E+02  0.36385158228E+02  0.80025854334E+02  0.89232402958E+02  0.47000000000E+01 0. -1.
         -5    1    4    4    0  502  0.73096461902E+02 -0.35782783410E+02  0.52715912158E+03  0.53342509296E+03  0.47000000000E+01 0. -1.
          5    1    5    5  503    0 -0.44142204815E+02  0.58722751201E+02  0.40166671813E+03  0.40835663115E+03  0.47000000000E+01 0. -1.
         -5    1    5    5    0  503 -0.14383236649E+02 -0.59325126019E+02  0.24480389856E+03  0.25234378697E+03  0.47000000000E+01 0. -1.
<mgrwt>
<rscale>  0 0.27450900E+03</rscale>
<asrwt>0</asrwt>
<pdfrwt beam="1">  1        2 0.19515480E+00 0.27450900E+03</pdfrwt>
<pdfrwt beam="2">  1       -2 0.22847950E-02 0.27450900E+03</pdfrwt>
<totfact> 0.11592383E+04</totfact>
</mgrwt>
</event>
<event>
 9    1  0.8093459E-001  0.2950906E+03  0.7818608E-02  0.1087721E+00
         -3   -1    0    0    0  501 -0.00000000000E+00  0.00000000000E+00  0.38538354739E+03  0.38538354739E+03  0.00000000000E+00 0.  1.
          3   -1    0    0  501    0  0.00000000000E+00 -0.00000000000E+00 -0.56488178887E+02  0.56488178887E+02  0.00000000000E+00 0.  1.
         35    2    1    2    0    0  0.35527136788E-14  0.14210854715E-13  0.32889536851E+03  0.44187172628E+03  0.29509059467E+03 0.  0.
         25    2    3    3    0    0  0.28886675285E+01 -0.73904425898E+02  0.21135285520E+03  0.25629859597E+03  0.12469455612E+03 0.  0.
         25    2    3    3    0    0 -0.28886675285E+01  0.73904425898E+02  0.11754251331E+03  0.18557313031E+03  0.12308913718E+03 0.  0.
          5    1    4    4  502    0 -0.55951674500E+02 -0.35857062402E+02  0.14549384318E+03  0.16002145858E+03  0.47000000000E+01 0.  1.
         -5    1    4    4    0  502  0.58840342029E+02 -0.38047363496E+02  0.65859012017E+02  0.96277137385E+02  0.47000000000E+01 0.  1.
          5    1    5    5  503    0  0.27526128699E+02  0.41154238185E+02 -0.96615444195E+01  0.50663542339E+02  0.47000000000E+01 0. -1.
         -5    1    5    5    0  503 -0.30414796228E+02  0.32750187714E+02  0.12720405773E+03  0.13490958798E+03  0.47000000000E+01 0. -1.
<mgrwt>
<rscale>  0 0.29509059E+03</rscale>
<asrwt>0</asrwt>
<pdfrwt beam="1">  1        3 0.86904893E-02 0.29509059E+03</pdfrwt>
<pdfrwt beam="2">  1       -3 0.59289775E-01 0.29509059E+03</pdfrwt>
<totfact> 0.67176918E+02</totfact>
</mgrwt>
</event>
<event>
 9    1  0.8093459E-001  0.2735065E+03  0.7818608E-02  0.1099289E+00
          2   -1    0    0  501    0  0.00000000000E+00  0.00000000000E+00  0.10134432151E+04  0.10134432151E+04  0.00000000000E+00 0. -1.
         -2   -1    0    0    0  501 -0.00000000000E+00 -0.00000000000E+00 -0.18453372698E+02  0.18453372698E+02  0.00000000000E+00 0. -1.
         35    2    1    2    0    0  0.00000000000E+00  0.00000000000E+00  0.99498984241E+03  0.10318965878E+04  0.27350645592E+03 0.  0.
         25    2    3    3    0    0 -0.44244028559E+02  0.14335436762E+02  0.57642963487E+03  0.59250677275E+03  0.12895779535E+03 0.  0.
         25    2    3    3    0    0  0.44244028559E+02 -0.14335436762E+02  0.41856020754E+03  0.43938981506E+03  0.12533045693E+03 0.  0.
          5    1    4    4  502    0 -0.15245012387E+02 -0.49432615954E+02  0.12072480500E+03  0.13142512114E+03  0.47000000000E+01 0. -1.
         -5    1    4    4    0  502 -0.28999016171E+02  0.63768052716E+02  0.45570482987E+03  0.46108165161E+03  0.47000000000E+01 0. -1.
          5    1    5    5  503    0  0.61759589639E+02  0.33699294207E+02  0.14722714926E+03  0.16324157810E+03  0.47000000000E+01 0. -1.
         -5    1    5    5    0  503 -0.17515561081E+02 -0.48034730969E+02  0.27133305828E+03  0.27614823696E+03  0.47000000000E+01 0. -1.
<mgrwt>
<rscale>  0 0.27350646E+03</rscale>
<asrwt>0</asrwt>
<pdfrwt beam="1">  1        2 0.15591430E+00 0.27350646E+03</pdfrwt>
<pdfrwt beam="2">  1       -2 0.28389812E-02 0.27350646E+03</pdfrwt>
<totfact> 0.11816627E+04</totfact>
</mgrwt>
</event>
<event>
 9    1  0.8093459E-001  0.2738261E+03  0.7818608E-02  0.1099110E+00
          3   -1    0    0  501    0  0.00000000000E+00  0.00000000000E+00  0.27408085872E+03  0.27408085872E+03  0.00000000000E+00 0. -1.
         -3   -1    0    0    0  501 -0.00000000000E+00 -0.00000000000E+00 -0.68392886498E+02  0.68392886498E+02  0.00000000000E+00 0. -1.
         35    2    1    2    0    0  0.00000000000E+00 -0.35527136788E-14  0.20568797223E+03  0.34247374522E+03  0.27382608394E+03 0.  0.
         25    2    3    3    0    0  0.53111247448E+02 -0.31124018630E+02  0.13106523264E+03  0.18416809464E+03  0.11379930902E+03 0.  0.
         25    2    3    3    0    0 -0.53111247448E+02  0.31124018630E+02  0.74622739586E+02  0.15830565059E+03  0.12531008181E+03 0.  0.
          5    1    4    4  502    0  0.21959863309E+02 -0.72766806825E+02  0.66265588824E+02  0.10094781837E+03  0.47000000000E+01 0.  1.
         -5    1    4    4    0  502  0.31151384139E+02  0.41642788196E+02  0.64799643815E+02  0.83220276262E+02  0.47000000000E+01 0.  1.
          5    1    5    5  503    0 -0.84464151703E+02  0.27899955938E+02  0.14485461610E+02  0.90246989214E+02  0.47000000000E+01 0. -1.
         -5    1    5    5    0  503  0.31352904255E+02  0.32240626916E+01  0.60137277976E+02  0.68058661372E+02  0.47000000000E+01 0. -1.
<mgrwt>
<rscale>  0 0.27382608E+03</rscale>
<asrwt>0</asrwt>
<pdfrwt beam="1">  1        3 0.42166285E-01 0.27382608E+03</pdfrwt>
<pdfrwt beam="2">  1       -3 0.10521983E-01 0.27382608E+03</pdfrwt>
<totfact> 0.96543749E+02</totfact>
</mgrwt>
</event>
<event>
 9    1  0.8093459E-001  0.2781701E+03  0.7818608E-02  0.1096693E+00
          1   -1    0    0  501    0  0.00000000000E+00  0.00000000000E+00  0.38626231813E+03  0.38626231813E+03  0.00000000000E+00 0. -1.
         -1   -1    0    0    0  501 -0.00000000000E+00 -0.00000000000E+00 -0.50081625244E+02  0.50081625244E+02  0.00000000000E+00 0. -1.
         35    2    1    2    0    0 -0.14210854715E-13 -0.35527136788E-14  0.33618069289E+03  0.43634394338E+03  0.27817005347E+03 0.  0.
         25    2    3    3    0    0 -0.44174673224E+02 -0.20789487822E+02  0.22152655572E+03  0.25924529181E+03  0.12550100349E+03 0.  0.
         25    2    3    3    0    0  0.44174673224E+02  0.20789487822E+02  0.11465413716E+03  0.17709865156E+03  0.12583622951E+03 0.  0.
          5    1    4    4  502    0  0.36567324585E+02 -0.10642849085E+02  0.23250381856E+02  0.44867691276E+02  0.47000000000E+01 0.  1.
         -5    1    4    4    0  502 -0.80741997809E+02 -0.10146638738E+02  0.19827617387E+03  0.21437760054E+03  0.47000000000E+01 0.  1.
          5    1    5    5  503    0  0.81045459539E+02 -0.30450705147E+01  0.40452050383E+02  0.90752946764E+02  0.47000000000E+01 0. -1.
         -5    1    5    5    0  503 -0.36870786315E+02  0.23834558337E+02  0.74202086780E+02  0.86345704798E+02  0.47000000000E+01 0. -1.
<mgrwt>
<rscale>  0 0.27817005E+03</rscale>
<asrwt>0</asrwt>
<pdfrwt beam="1">  1        1 0.59424970E-01 0.27817005E+03</pdfrwt>
<pdfrwt beam="2">  1       -1 0.77048657E-02 0.27817005E+03</pdfrwt>
<totfact> 0.57520805E+03</totfact>
</mgrwt>
</event>
<event>
 9    1  0.8093459E-001  0.2880034E+03  0.7818608E-02  0.1091396E+00
         -2   -1    0    0    0  501 -0.00000000000E+00  0.00000000000E+00  0.85243047255E+02  0.85243047255E+02  0.00000000000E+00 0. -1.
          2   -1    0    0  501    0  0.00000000000E+00 -0.00000000000E+00 -0.24326313953E+03  0.24326313953E+03  0.00000000000E+00 0. -1.
         35    2    1    2    0    0  0.00000000000E+00  0.00000000000E+00 -0.15802009227E+03  0.32850618678E+03  0.28800341177E+03 0.  0.
         25    2    3    3    0    0  0.13690922203E+02 -0.67691413271E+02 -0.10194939112E+03  0.17568853683E+03  0.12531246882E+03 0.  0.
         25    2    3    3    0    0 -0.13690922203E+02  0.67691413271E+02 -0.56070701156E+02  0.15281764995E+03  0.12425675768E+03 0.  0.
          5    1    4    4  502    0  0.37719550485E+02 -0.41156351632E+02  0.11013167652E+02  0.57096318884E+02  0.47000000000E+01 0. -1.
         -5    1    4    4    0  502 -0.24028628282E+02 -0.26535061639E+02 -0.11296255877E+03  0.11859221795E+03  0.47000000000E+01 0. -1.
          5    1    5    5  503    0  0.24683725522E+02 -0.24149940961E+02 -0.37970855031E+02  0.51540098815E+02  0.47000000000E+01 0. -1.
         -5    1    5    5    0  503 -0.38374647724E+02  0.91841354232E+02 -0.18099846124E+02  0.10127755114E+03  0.47000000000E+01 0. -1.
<mgrwt>
<rscale>  0 0.28800341E+03</rscale>
<asrwt>0</asrwt>
<pdfrwt beam="1">  1        2 0.37425099E-01 0.28800341E+03</pdfrwt>
<pdfrwt beam="2">  1       -2 0.13114315E-01 0.28800341E+03</pdfrwt>
<totfact> 0.58470297E+03</totfact>
</mgrwt>
</event>
<event>
 9    1  0.8093459E-001  0.2766837E+03  0.7818608E-02  0.1097514E+00
          2   -1    0    0  501    0  0.00000000000E+00  0.00000000000E+00  0.15608036696E+03  0.15608036696E+03  0.00000000000E+00 0. -1.
         -2   -1    0    0    0  501 -0.00000000000E+00 -0.00000000000E+00 -0.12261930051E+03  0.12261930051E+03  0.00000000000E+00 0. -1.
         35    2    1    2    0    0  0.00000000000E+00 -0.14210854715E-13  0.33461066451E+02  0.27869966747E+03  0.27668368524E+03 0.  0.
         25    2    3    3    0    0 -0.12303890099E+02 -0.29602192327E+02 -0.33345325661E+02  0.13306518074E+03  0.12476680680E+03 0.  0.
         25    2    3    3    0    0  0.12303890099E+02  0.29602192327E+02  0.66806392111E+02  0.14563448673E+03  0.12537397734E+03 0.  0.
          5    1    4    4  502    0 -0.51466404451E+02  0.26910473475E+02 -0.47786953383E+01  0.58462725723E+02  0.47000000000E+01 0.  1.
         -5    1    4    4    0  502  0.39162514353E+02 -0.56512665802E+02 -0.28566630322E+02  0.74602455016E+02  0.47000000000E+01 0.  1.
          5    1    5    5  503    0 -0.27181490407E+02  0.64127357432E+02  0.60907352241E+02  0.92644195441E+02  0.47000000000E+01 0.  1.
         -5    1    5    5    0  503  0.39485380505E+02 -0.34525165104E+02  0.58990398706E+01  0.52990291286E+02  0.47000000000E+01 0.  1.
<mgrwt>
<rscale>  0 0.27668369E+03</rscale>
<asrwt>0</asrwt>
<pdfrwt beam="1">  1        2 0.24012364E-01 0.27668369E+03</pdfrwt>
<pdfrwt beam="2">  1       -2 0.18864508E-01 0.27668369E+03</pdfrwt>
<totfact> 0.51985097E+03</totfact>
</mgrwt>
</event>
<event>
 9    1  0.8093459E-001  0.2790461E+03  0.7818608E-02  0.1096211E+00
         -2   -1    0    0    0  501 -0.00000000000E+00  0.00000000000E+00  0.89573145493E+02  0.89573145493E+02  0.00000000000E+00 0.  1.
          2   -1    0    0  501    0  0.00000000000E+00 -0.00000000000E+00 -0.21732714166E+03  0.21732714166E+03  0.00000000000E+00 0.  1.
         35    2    1    2    0    0 -0.71054273576E-14 -0.35527136788E-14 -0.12775399616E+03  0.30690028715E+03  0.27904605842E+03 0.  0.
         25    2    3    3    0    0 -0.61211714685E+02  0.49889741247E+00 -0.80663764758E+02  0.15987139804E+03  0.12371377471E+03 0.  0.
         25    2    3    3    0    0  0.61211714685E+02 -0.49889741247E+00 -0.47090231407E+02  0.14702888911E+03  0.12511147600E+03 0.  0.
          5    1    4    4  502    0 -0.48883221186E+02 -0.55790939930E+02 -0.67883755133E+02  0.10066028265E+03  0.47000000000E+01 0. -1.
         -5    1    4    4    0  502 -0.12328493499E+02  0.56289837343E+02 -0.12780009625E+02  0.59211115393E+02  0.47000000000E+01 0. -1.
          5    1    5    5  503    0 -0.32109273710E+02 -0.24462241261E+02 -0.23808297239E+01  0.40708292225E+02  0.47000000000E+01 0. -1.
         -5    1    5    5    0  503  0.93320988395E+02  0.23963343848E+02 -0.44709401683E+02  0.10632059689E+03  0.47000000000E+01 0. -1.
<mgrwt>
<rscale>  0 0.27904606E+03</rscale>
<asrwt>0</asrwt>
<pdfrwt beam="1">  1        2 0.33434944E-01 0.27904606E+03</pdfrwt>
<pdfrwt beam="2">  1       -2 0.13780484E-01 0.27904606E+03</pdfrwt>
<totfact> 0.60883663E+03</totfact>
</mgrwt>
</event>
<event>
 9    1  0.8093459E-001  0.2751161E+03  0.7818608E-02  0.1098387E+00
         -2   -1    0    0    0  501 -0.00000000000E+00  0.00000000000E+00  0.46510182167E+02  0.46510182167E+02  0.00000000000E+00 0.  1.
          2   -1    0    0  501    0  0.00000000000E+00 -0.00000000000E+00 -0.40684018409E+03  0.40684018409E+03  0.00000000000E+00 0.  1.
         35    2    1    2    0    0  0.00000000000E+00  0.71054273576E-14 -0.36033000193E+03  0.45335036626E+03  0.27511605606E+03 0.  0.
         25    2    3    3    0    0  0.37404159174E+02  0.48949539831E+02 -0.17313946142E+03  0.22275378910E+03  0.12588426783E+03 0.  0.
         25    2    3    3    0    0 -0.37404159174E+02 -0.48949539831E+02 -0.18719054051E+03  0.23059657716E+03  0.11974704324E+03 0.  0.
          5    1    4    4  502    0  0.72430428401E+02  0.13988743096E+02 -0.15143194102E+03  0.16850986515E+03  0.47000000000E+01 0. -1.
         -5    1    4    4    0  502 -0.35026269226E+02  0.34960796736E+02 -0.21707520397E+02  0.54243923956E+02  0.47000000000E+01 0. -1.
          5    1    5    5  503    0  0.24391898311E+02 -0.46462373556E+02 -0.14831754301E+03  0.15739726943E+03  0.47000000000E+01 0.  1.
         -5    1    5    5    0  503 -0.61796057486E+02 -0.24871662750E+01 -0.38872997504E+02  0.73199307728E+02  0.47000000000E+01 0.  1.
<mgrwt>
<rscale>  0 0.27511606E+03</rscale>
<asrwt>0</asrwt>
<pdfrwt beam="1">  1        2 0.62590795E-01 0.27511606E+03</pdfrwt>
<pdfrwt beam="2">  1       -2 0.71554129E-02 0.27511606E+03</pdfrwt>
<totfact> 0.87655476E+03</totfact>
</mgrwt>
</event>
<event>
 9    1  0.8093459E-001  0.2761798E+03  0.7818608E-02  0.1097794E+00
         -3   -1    0    0    0  501 -0.00000000000E+00  0.00000000000E+00  0.10993950339E+04  0.10993950339E+04  0.00000000000E+00 0.  1.
          3   -1    0    0  501    0  0.00000000000E+00 -0.00000000000E+00 -0.17344826785E+02  0.17344826785E+02  0.00000000000E+00 0.  1.
         35    2    1    2    0    0  0.00000000000E+00  0.00000000000E+00  0.10820502071E+04  0.11167398607E+04  0.27617977066E+03 0.  0.
         25    2    3    3    0    0  0.49995252233E+02  0.20517925493E+01  0.66513677672E+03  0.67846995828E+03  0.12414031353E+03 0.  0.
         25    2    3    3    0    0 -0.49995252233E+02 -0.20517925493E+01  0.41691343041E+03  0.43826990242E+03  0.12553869448E+03 0.  0.
          5    1    4    4  502    0  0.41921446957E+02  0.13774428663E+02  0.68331982742E+02  0.81476944379E+02  0.47000000000E+01 0.  1.
         -5    1    4    4    0  502  0.80738052761E+01 -0.11722636114E+02  0.59680479398E+03  0.59699301390E+03  0.47000000000E+01 0.  1.
          5    1    5    5  503    0  0.33312052718E+02  0.10069551906E+02  0.45879226363E+02  0.57776138184E+02  0.47000000000E+01 0. -1.
         -5    1    5    5    0  503 -0.83307304951E+02 -0.12121344456E+02  0.37103420405E+03  0.38049376424E+03  0.47000000000E+01 0. -1.
<mgrwt>
<rscale>  0 0.27617977E+03</rscale>
<asrwt>0</asrwt>
<pdfrwt beam="1">  1        3 0.26684358E-02 0.27617977E+03</pdfrwt>
<pdfrwt beam="2">  1       -3 0.16913764E+00 0.27617977E+03</pdfrwt>
<totfact> 0.38893326E+02</totfact>
</mgrwt>
</event>
<event>
 9    1  0.8093459E-001  0.2738801E+03  0.7818608E-02  0.1099079E+00
          2   -1    0    0  501    0  0.00000000000E+00  0.00000000000E+00  0.23865545596E+02  0.23865545596E+02  0.00000000000E+00 0.  1.
         -2   -1    0    0    0  501 -0.00000000000E+00 -0.00000000000E+00 -0.78575955751E+03  0.78575955751E+03  0.00000000000E+00 0.  1.
         35    2    1    2    0    0  0.21316282073E-13 -0.35527136788E-14 -0.76189401191E+03  0.80962510310E+03  0.27388012376E+03 0.  0.
         25    2    3    3    0    0 -0.52222913863E+02  0.84298348946E+01 -0.41967229013E+03  0.44142662362E+03  0.12623128807E+03 0.  0.
         25    2    3    3    0    0  0.52222913863E+02 -0.84298348946E+01 -0.34222172178E+03  0.36819847948E+03  0.12512441243E+03 0.  0.
          5    1    4    4  502    0  0.71738777778E+01  0.33450991298E+01  0.63786139182E+01  0.11199594907E+02  0.47000000000E+01 0.  1.
         -5    1    4    4    0  502 -0.59396791641E+02  0.50847357648E+01 -0.42605090405E+03  0.43022702872E+03  0.47000000000E+01 0.  1.
          5    1    5    5  503    0  0.32980108968E+02 -0.59874988416E+01 -0.34619726221E+03  0.34784791518E+03  0.47000000000E+01 0.  1.
         -5    1    5    5    0  503  0.19242804895E+02 -0.24423360530E+01  0.39755404359E+01  0.20350564301E+02  0.47000000000E+01 0.  1.
<mgrwt>
<rscale>  0 0.27388012E+03</rscale>
<asrwt>0</asrwt>
<pdfrwt beam="1">  1        2 0.36716223E-02 0.27388012E+03</pdfrwt>
<pdfrwt beam="2">  1       -2 0.12088609E+00 0.27388012E+03</pdfrwt>
<totfact> 0.12975858E+03</totfact>
</mgrwt>
</event>
<event>
 9    1  0.8093459E-001  0.2712084E+03  0.7818608E-02  0.1100590E+00
          2   -1    0    0  501    0  0.00000000000E+00  0.00000000000E+00  0.50059778396E+03  0.50059778396E+03  0.00000000000E+00 0. -1.
         -2   -1    0    0    0  501 -0.00000000000E+00 -0.00000000000E+00 -0.36733086114E+02  0.36733086114E+02  0.00000000000E+00 0. -1.
         35    2    1    2    0    0  0.00000000000E+00 -0.35527136788E-14  0.46386469785E+03  0.53733087008E+03  0.27120841806E+03 0.  0.
         25    2    3    3    0    0 -0.51892952717E+02 -0.13612183050E+02  0.23666297548E+03  0.27297623731E+03  0.12501396764E+03 0.  0.
         25    2    3    3    0    0  0.51892952717E+02  0.13612183050E+02  0.22720172237E+03  0.26435463277E+03  0.12403458852E+03 0.  0.
          5    1    4    4  502    0 -0.80109695592E+02  0.39967853625E+01  0.82362566679E+02  0.11506180952E+03  0.47000000000E+01 0. -1.
         -5    1    4    4    0  502  0.28216742875E+02 -0.17608968412E+02  0.15430040880E+03  0.15791442778E+03  0.47000000000E+01 0. -1.
          5    1    5    5  503    0 -0.14709439862E+02  0.47343551487E+02  0.43934878013E+02  0.66408907493E+02  0.47000000000E+01 0.  1.
         -5    1    5    5    0  503  0.66602392579E+02 -0.33731368437E+02  0.18326684436E+03  0.19794572528E+03  0.47000000000E+01 0.  1.
<mgrwt>
<rscale>  0 0.27120842E+03</rscale>
<asrwt>0</asrwt>
<pdfrwt beam="1">  1        2 0.77015039E-01 0.27120842E+03</pdfrwt>
<pdfrwt beam="2">  1       -2 0.56512444E-02 0.27120842E+03</pdfrwt>
<totfact> 0.10024265E+04</totfact>
</mgrwt>
</event>
<event>
 9    1  0.8093459E-001  0.2857713E+03  0.7818608E-02  0.1092578E+00
          2   -1    0    0  501    0  0.00000000000E+00  0.00000000000E+00  0.40089830186E+03  0.40089830186E+03  0.00000000000E+00 0. -1.
         -2   -1    0    0    0  501 -0.00000000000E+00 -0.00000000000E+00 -0.50926389088E+02  0.50926389088E+02  0.00000000000E+00 0. -1.
         35    2    1    2    0    0  0.35527136788E-14 -0.71054273576E-14  0.34997191277E+03  0.45182469095E+03  0.28577125752E+03 0.  0.
         25    2    3    3    0    0  0.24409593079E+02 -0.41776471590E+02  0.25528389078E+03  0.28943040684E+03  0.12751075916E+03 0.  0.
         25    2    3    3    0    0 -0.24409593079E+02  0.41776471590E+02  0.94688021994E+02  0.16239428411E+03  0.12273948097E+03 0.  0.
          5    1    4    4  502    0 -0.51195746416E+02 -0.30502799384E+02  0.11422724346E+03  0.12892392474E+03  0.47000000000E+01 0.  1.
         -5    1    4    4    0  502  0.75605339495E+02 -0.11273672206E+02  0.14105664732E+03  0.16050648211E+03  0.47000000000E+01 0.  1.
          5    1    5    5  503    0 -0.16132427716E+02 -0.42796607271E+02  0.24614830499E+02  0.52151555091E+02  0.47000000000E+01 0.  1.
         -5    1    5    5    0  503 -0.82771653625E+01  0.84573078861E+02  0.70073191495E+02  0.11024272902E+03  0.47000000000E+01 0.  1.
<mgrwt>
<rscale>  0 0.28577126E+03</rscale>
<asrwt>0</asrwt>
<pdfrwt beam="1">  1        2 0.61676660E-01 0.28577126E+03</pdfrwt>
<pdfrwt beam="2">  1       -2 0.78348293E-02 0.28577126E+03</pdfrwt>
<totfact> 0.77451947E+03</totfact>
</mgrwt>
</event>
<event>
 9    1  0.8093459E-001  0.2772308E+03  0.7818608E-02  0.1097211E+00
         -1   -1    0    0    0  501 -0.00000000000E+00  0.00000000000E+00  0.34249494488E+02  0.34249494488E+02  0.00000000000E+00 0. -1.
          1   -1    0    0  501    0  0.00000000000E+00 -0.00000000000E+00 -0.56100748278E+03  0.56100748278E+03  0.00000000000E+00 0. -1.
         35    2    1    2    0    0  0.00000000000E+00  0.00000000000E+00 -0.52675798829E+03  0.59525697726E+03  0.27723075362E+03 0.  0.
         25    2    3    3    0    0 -0.40217834394E+02 -0.40660175919E+02 -0.29632598565E+03  0.32647208790E+03  0.12451590381E+03 0.  0.
         25    2    3    3    0    0  0.40217834394E+02  0.40660175919E+02 -0.23043200264E+03  0.26878488936E+03  0.12599874919E+03 0.  0.
          5    1    4    4  502    0 -0.15434967777E+02 -0.83115918856E+02 -0.15282452193E+03  0.17471095759E+03  0.47000000000E+01 0. -1.
         -5    1    4    4    0  502 -0.24782866617E+02  0.42455742937E+02 -0.14350146372E+03  0.15176113032E+03  0.47000000000E+01 0. -1.
          5    1    5    5  503    0  0.20609758146E+02  0.33527238032E+02 -0.24148063281E+03  0.24471171579E+03  0.47000000000E+01 0.  1.
         -5    1    5    5    0  503  0.19608076247E+02  0.71329378870E+01  0.11048630173E+02  0.24073173570E+02  0.47000000000E+01 0.  1.
<mgrwt>
<rscale>  0 0.27723075E+03</rscale>
<asrwt>0</asrwt>
<pdfrwt beam="1">  1        1 0.86308831E-01 0.27723075E+03</pdfrwt>
<pdfrwt beam="2">  1       -1 0.52691537E-02 0.27723075E+03</pdfrwt>
<totfact> 0.62561279E+03</totfact>
</mgrwt>
</event>
<event>
 9    1  0.8093459E-001  0.2837380E+03  0.7818608E-02  0.1093665E+00
          1   -1    0    0  501    0  0.00000000000E+00  0.00000000000E+00  0.49945208037E+03  0.49945208037E+03  0.00000000000E+00 0.  1.
         -1   -1    0    0    0  501 -0.00000000000E+00 -0.00000000000E+00 -0.40297794831E+02  0.40297794831E+02  0.00000000000E+00 0.  1.
         35    2    1    2    0    0 -0.71054273576E-14 -0.71054273576E-14  0.45915428554E+03  0.53974987520E+03  0.28373803032E+03 0.  0.
         25    2    3    3    0    0 -0.91077921426E+01 -0.54462280443E+02  0.31145317926E+03  0.34002257311E+03  0.12475245683E+03 0.  0.
         25    2    3    3    0    0  0.91077921426E+01  0.54462280443E+02  0.14770110628E+03  0.19972730209E+03  0.12258175450E+03 0.  0.
          5    1    4    4  502    0 -0.52036782948E+02 -0.19151017445E+02  0.57513922409E+02  0.80028304491E+02  0.47000000000E+01 0.  1.
         -5    1    4    4    0  502  0.42928990806E+02 -0.35311262998E+02  0.25393925685E+03  0.25999426862E+03  0.47000000000E+01 0.  1.
          5    1    5    5  503    0 -0.60396917859E+01 -0.33374160772E+02  0.82106068399E+02  0.88959591681E+02  0.47000000000E+01 0. -1.
         -5    1    5    5    0  503  0.15147483928E+02  0.87836441215E+02  0.65595037883E+02  0.11076771041E+03  0.47000000000E+01 0. -1.
<mgrwt>
<rscale>  0 0.28373803E+03</rscale>
<asrwt>0</asrwt>
<pdfrwt beam="1">  1        1 0.76838777E-01 0.28373803E+03</pdfrwt>
<pdfrwt beam="2">  1       -1 0.61996611E-02 0.28373803E+03</pdfrwt>
<totfact> 0.57301242E+03</totfact>
</mgrwt>
</event>
<event>
 9    1  0.8093459E-001  0.2737832E+03  0.7818608E-02  0.1099134E+00
          1   -1    0    0  501    0  0.00000000000E+00  0.00000000000E+00  0.62944520272E+03  0.62944520272E+03  0.00000000000E+00 0.  1.
         -1   -1    0    0    0  501 -0.00000000000E+00 -0.00000000000E+00 -0.29771145451E+02  0.29771145451E+02  0.00000000000E+00 0.  1.
         35    2    1    2    0    0  0.00000000000E+00 -0.71054273576E-14  0.59967405727E+03  0.65921634817E+03  0.27378316007E+03 0.  0.
         25    2    3    3    0    0 -0.93907862438E+01 -0.39943768683E+02  0.20767274909E+03  0.24580041782E+03  0.12492470996E+03 0.  0.
         25    2    3    3    0    0  0.93907862438E+01  0.39943768683E+02  0.39200130818E+03  0.41341593036E+03  0.12475581886E+03 0.  0.
          5    1    4    4  502    0 -0.17785152931E+02 -0.78982535798E+02  0.88543498685E+02  0.12006912087E+03  0.47000000000E+01 0.  1.
         -5    1    4    4    0  502  0.83943666869E+01  0.39038767115E+02  0.11912925041E+03  0.12573129695E+03  0.47000000000E+01 0.  1.
          5    1    5    5  503    0 -0.33957031474E+02 -0.18762524524E+02  0.48844257781E+02  0.62553687591E+02  0.47000000000E+01 0.  1.
         -5    1    5    5    0  503  0.43347817718E+02  0.58706293207E+02  0.34315705040E+03  0.35086224277E+03  0.47000000000E+01 0.  1.
<mgrwt>
<rscale>  0 0.27378316E+03</rscale>
<asrwt>0</asrwt>
<pdfrwt beam="1">  1        1 0.96837714E-01 0.27378316E+03</pdfrwt>
<pdfrwt beam="2">  1       -1 0.45801767E-02 0.27378316E+03</pdfrwt>
<totfact> 0.65767399E+03</totfact>
</mgrwt>
</event>
<event>
 9    1  0.8093459E-001  0.2752069E+03  0.7818608E-02  0.1098336E+00
         -1   -1    0    0    0  501 -0.00000000000E+00  0.00000000000E+00  0.24486848808E+02  0.24486848808E+02  0.00000000000E+00 0.  1.
          1   -1    0    0  501    0  0.00000000000E+00 -0.00000000000E+00 -0.77326060221E+03  0.77326060221E+03  0.00000000000E+00 0.  1.
         35    2    1    2    0    0  0.00000000000E+00 -0.17763568394E-14 -0.74877375340E+03  0.79774745102E+03  0.27520694363E+03 0.  0.
         25    2    3    3    0    0  0.42265121694E+02  0.64940154249E+01 -0.25538138655E+03  0.28830013638E+03  0.12676278354E+03 0.  0.
         25    2    3    3    0    0 -0.42265121694E+02 -0.64940154249E+01 -0.49339236685E+03  0.50944731464E+03  0.11946558491E+03 0.  0.
          5    1    4    4  502    0  0.36455826099E+02  0.10138009695E+02 -0.57861894713E+01  0.38566520270E+02  0.47000000000E+01 0.  1.
         -5    1    4    4    0  502  0.58092955948E+01 -0.36439942698E+01 -0.24959519708E+03  0.24973361611E+03  0.47000000000E+01 0.  1.
          5    1    5    5  503    0  0.37030484344E+02  0.31595116495E+01 -0.26076610092E+03  0.26344314125E+03  0.47000000000E+01 0. -1.
         -5    1    5    5    0  503 -0.79295606038E+02 -0.96535270744E+01 -0.23262626593E+03  0.24600417339E+03  0.47000000000E+01 0. -1.
<mgrwt>
<rscale>  0 0.27520694E+03</rscale>
<asrwt>0</asrwt>
<pdfrwt beam="1">  1        1 0.11896317E+00 0.27520694E+03</pdfrwt>
<pdfrwt beam="2">  1       -1 0.37672076E-02 0.27520694E+03</pdfrwt>
<totfact> 0.65164436E+03</totfact>
</mgrwt>
</event>
<event>
 9    1  0.8093459E-001  0.2771133E+03  0.7818608E-02  0.1097276E+00
         -4   -1    0    0    0  501 -0.00000000000E+00  0.00000000000E+00  0.96377112848E+02  0.96377112848E+02  0.00000000000E+00 0.  1.
          4   -1    0    0  501    0  0.00000000000E+00 -0.00000000000E+00 -0.19919604629E+03  0.19919604629E+03  0.00000000000E+00 0.  1.
         35    2    1    2    0    0  0.00000000000E+00 -0.71054273576E-14 -0.10281893344E+03  0.29557315914E+03  0.27711326083E+03 0.  0.
         25    2    3    3    0    0  0.16639347852E+02  0.50520530364E+02 -0.90310536041E+02  0.15877697563E+03  0.11926836623E+03 0.  0.
         25    2    3    3    0    0 -0.16639347852E+02 -0.50520530364E+02 -0.12508397399E+02  0.13679618351E+03  0.12540950495E+03 0.  0.
          5    1    4    4  502    0  0.58650882913E+02  0.29394690897E+02 -0.90056468394E+02  0.11151785247E+03  0.47000000000E+01 0. -1.
         -5    1    4    4    0  502 -0.42011535061E+02  0.21125839467E+02 -0.25406764692E+00  0.47259123159E+02  0.47000000000E+01 0. -1.
          5    1    5    5  503    0 -0.60826789694E+02 -0.39644192910E+02  0.25728498491E+02  0.77172572917E+02  0.47000000000E+01 0. -1.
         -5    1    5    5    0  503  0.44187441841E+02 -0.10876337453E+02 -0.38236895891E+02  0.59623610594E+02  0.47000000000E+01 0. -1.
<mgrwt>
<rscale>  0 0.27711326E+03</rscale>
<asrwt>0</asrwt>
<pdfrwt beam="1">  1        4 0.30645545E-01 0.27711326E+03</pdfrwt>
<pdfrwt beam="2">  1       -4 0.14827248E-01 0.27711326E+03</pdfrwt>
<totfact> 0.73724385E+02</totfact>
</mgrwt>
</event>
<event>
 9    1  0.8093459E-001  0.2751985E+03  0.7818608E-02  0.1098341E+00
         -2   -1    0    0    0  501 -0.00000000000E+00  0.00000000000E+00  0.44064745180E+02  0.44064745180E+02  0.00000000000E+00 0.  1.
          2   -1    0    0  501    0  0.00000000000E+00 -0.00000000000E+00 -0.42967574411E+03  0.42967574411E+03  0.00000000000E+00 0.  1.
         35    2    1    2    0    0  0.00000000000E+00 -0.71054273576E-14 -0.38561099892E+03  0.47374048929E+03  0.27519848963E+03 0.  0.
         25    2    3    3    0    0 -0.44638434565E+02  0.32994481454E+02 -0.16563213507E+03  0.21469825494E+03  0.12482031429E+03 0.  0.
         25    2    3    3    0    0  0.44638434565E+02 -0.32994481454E+02 -0.21997886386E+03  0.25904223435E+03  0.12502380967E+03 0.  0.
          5    1    4    4  502    0 -0.30098742352E+02  0.80155132195E+02 -0.90384997658E+02  0.12458859221E+03  0.47000000000E+01 0.  1.
         -5    1    4    4    0  502 -0.14539692213E+02 -0.47160650741E+02 -0.75247137408E+02  0.90109662723E+02  0.47000000000E+01 0.  1.
          5    1    5    5  503    0 -0.67145634675E+00  0.24579567824E+02 -0.16610409553E+03  0.16797995880E+03  0.47000000000E+01 0.  1.
         -5    1    5    5    0  503  0.45309890911E+02 -0.57574049277E+02 -0.53874768328E+02  0.91062275543E+02  0.47000000000E+01 0.  1.
<mgrwt>
<rscale>  0 0.27519849E+03</rscale>
<asrwt>0</asrwt>
<pdfrwt beam="1">  1        2 0.66103960E-01 0.27519849E+03</pdfrwt>
<pdfrwt beam="2">  1       -2 0.67791917E-02 0.27519849E+03</pdfrwt>
<totfact> 0.89785561E+03</totfact>
</mgrwt>
</event>
<event>
 9    1  0.8093459E-001  0.2752248E+03  0.7818608E-02  0.1098326E+00
         -2   -1    0    0    0  501 -0.00000000000E+00  0.00000000000E+00  0.46669357239E+02  0.46669357239E+02  0.00000000000E+00 0.  1.
          2   -1    0    0  501    0  0.00000000000E+00 -0.00000000000E+00 -0.40577314688E+03  0.40577314688E+03  0.00000000000E+00 0.  1.
         35    2    1    2    0    0  0.00000000000E+00  0.00000000000E+00 -0.35910378964E+03  0.45244250411E+03  0.27522479503E+03 0.  0.
         25    2    3    3    0    0  0.26496732510E+02  0.22485984964E+02 -0.25793200662E+03  0.28817476767E+03  0.12372582725E+03 0.  0.
         25    2    3    3    0    0 -0.26496732510E+02 -0.22485984964E+02 -0.10117178302E+03  0.16426773645E+03  0.12466139421E+03 0.  0.
          5    1    4    4  502    0 -0.26024008451E+02 -0.27383381965E+02 -0.28549605058E+02  0.47584331167E+02  0.47000000000E+01 0.  1.
         -5    1    4    4    0  502  0.52520740960E+02  0.49869366929E+02 -0.22938240156E+03  0.24059043650E+03  0.47000000000E+01 0.  1.
          5    1    5    5  503    0  0.13964133905E+01 -0.49322042440E+02 -0.11310744761E+03  0.12349088446E+03  0.47000000000E+01 0.  1.
         -5    1    5    5    0  503 -0.27893145900E+02  0.26836057476E+02  0.11935664587E+02  0.40776851990E+02  0.47000000000E+01 0.  1.
<mgrwt>
<rscale>  0 0.27522480E+03</rscale>
<asrwt>0</asrwt>
<pdfrwt beam="1">  1        2 0.62426640E-01 0.27522480E+03</pdfrwt>
<pdfrwt beam="2">  1       -2 0.71799009E-02 0.27522480E+03</pdfrwt>
<totfact> 0.87443191E+03</totfact>
</mgrwt>
</event>
<event>
 9    1  0.8093459E-001  0.2772174E+03  0.7818608E-02  0.1097219E+00
         -1   -1    0    0    0  501 -0.00000000000E+00  0.00000000000E+00  0.12640105053E+02  0.12640105053E+02  0.00000000000E+00 0. -1.
          1   -1    0    0  501    0  0.00000000000E+00 -0.00000000000E+00 -0.15199531367E+04  0.15199531367E+04  0.00000000000E+00 0. -1.
         35    2    1    2    0    0  0.71054273576E-14  0.00000000000E+00 -0.15073130316E+04  0.15325932417E+04  0.27721736831E+03 0.  0.
         25    2    3    3    0    0  0.76843479893E+01 -0.57075330500E+02 -0.59950350246E+03  0.61440462366E+03  0.12153990931E+03 0.  0.
         25    2    3    3    0    0 -0.76843479893E+01  0.57075330500E+02 -0.90780952917E+03  0.91818861808E+03  0.12504221111E+03 0.  0.
          5    1    4    4  502    0 -0.49464827066E+02  0.21475371327E+01 -0.17296065105E+03  0.17996904690E+03  0.47000000000E+01 0.  1.
         -5    1    4    4    0  502  0.57149175055E+02 -0.59222867632E+02 -0.42654285141E+03  0.43443557676E+03  0.47000000000E+01 0.  1.
          5    1    5    5  503    0 -0.51180623802E+02  0.74428515059E+02 -0.57632845153E+03  0.58338292240E+03  0.47000000000E+01 0. -1.
         -5    1    5    5    0  503  0.43496275812E+02 -0.17353184559E+02 -0.33148107764E+03  0.33480569568E+03  0.47000000000E+01 0. -1.
<mgrwt>
<rscale>  0 0.27721737E+03</rscale>
<asrwt>0</asrwt>
<pdfrwt beam="1">  1        1 0.23383871E+00 0.27721737E+03</pdfrwt>
<pdfrwt beam="2">  1       -1 0.19446335E-02 0.27721737E+03</pdfrwt>
<totfact> 0.49600815E+03</totfact>
</mgrwt>
</event>
<event>
 9    1  0.8093459E-001  0.2728891E+03  0.7818608E-02  0.1099637E+00
          2   -1    0    0  501    0  0.00000000000E+00  0.00000000000E+00  0.12553503571E+04  0.12553503571E+04  0.00000000000E+00 0. -1.
         -2   -1    0    0    0  501 -0.00000000000E+00 -0.00000000000E+00 -0.14830217135E+02  0.14830217135E+02  0.00000000000E+00 0. -1.
         35    2    1    2    0    0  0.71054273576E-14  0.71054273576E-14  0.12405201399E+04  0.12701805742E+04  0.27288912309E+03 0.  0.
         25    2    3    3    0    0  0.21025999392E+02  0.17779569880E+02  0.83801723925E+03  0.84778930479E+03  0.12536190124E+03 0.  0.
         25    2    3    3    0    0 -0.21025999392E+02 -0.17779569880E+02  0.40250290068E+03  0.42239126941E+03  0.12509034200E+03 0.  0.
          5    1    4    4  502    0  0.23241493246E+02  0.70252337116E+02  0.55129897213E+03  0.55626271181E+03  0.47000000000E+01 0.  1.
         -5    1    4    4    0  502 -0.22154938540E+01 -0.52472767236E+02  0.28671826711E+03  0.29152659297E+03  0.47000000000E+01 0.  1.
          5    1    5    5  503    0  0.43415533006E+02 -0.81576418723E+01  0.65687111725E+02  0.79299068556E+02  0.47000000000E+01 0. -1.
         -5    1    5    5    0  503 -0.64441532398E+02 -0.96219280075E+01  0.33681578896E+03  0.34309220086E+03  0.47000000000E+01 0. -1.
<mgrwt>
<rscale>  0 0.27288912E+03</rscale>
<asrwt>0</asrwt>
<pdfrwt beam="1">  1        2 0.19313074E+00 0.27288912E+03</pdfrwt>
<pdfrwt beam="2">  1       -2 0.22815729E-02 0.27288912E+03</pdfrwt>
<totfact> 0.11812983E+04</totfact>
</mgrwt>
</event>
<event>
 9    1  0.8093459E-001  0.2770988E+03  0.7818608E-02  0.1097284E+00
          1   -1    0    0  501    0  0.00000000000E+00  0.00000000000E+00  0.74608168158E+02  0.74608168158E+02  0.00000000000E+00 0. -1.
         -1   -1    0    0    0  501 -0.00000000000E+00 -0.00000000000E+00 -0.25729002070E+03  0.25729002070E+03  0.00000000000E+00 0. -1.
         35    2    1    2    0    0  0.00000000000E+00  0.00000000000E+00 -0.18268185254E+03  0.33189818886E+03  0.27709880642E+03 0.  0.
         25    2    3    3    0    0  0.21255386098E+01 -0.55887409915E+02 -0.11754579061E+03  0.17947567215E+03  0.12355801674E+03 0.  0.
         25    2    3    3    0    0 -0.21255386098E+01  0.55887409915E+02 -0.65136061931E+02  0.15242251671E+03  0.12594441843E+03 0.  0.
          5    1    4    4  502    0 -0.46301357593E+02  0.61637994954E+01 -0.13350443934E+02  0.48807094693E+02  0.47000000000E+01 0. -1.
         -5    1    4    4    0  502  0.48426896202E+02 -0.62051209410E+02 -0.10419534668E+03  0.13066857745E+03  0.47000000000E+01 0. -1.
          5    1    5    5  503    0  0.19819670920E+02 -0.35709218626E+02 -0.33244081030E+02  0.52869902343E+02  0.47000000000E+01 0. -1.
         -5    1    5    5    0  503 -0.21945209530E+02  0.91596628541E+02 -0.31891980901E+02  0.99552614366E+02  0.47000000000E+01 0. -1.
<mgrwt>
<rscale>  0 0.27709881E+03</rscale>
<asrwt>0</asrwt>
<pdfrwt beam="1">  1        1 0.11478180E-01 0.27709881E+03</pdfrwt>
<pdfrwt beam="2">  1       -1 0.39583079E-01 0.27709881E+03</pdfrwt>
<totfact> 0.33365786E+03</totfact>
</mgrwt>
</event>
<event>
 9    1  0.8093459E-001  0.2916365E+03  0.7818608E-02  0.1089498E+00
         -1   -1    0    0    0  501 -0.00000000000E+00  0.00000000000E+00  0.59387822358E+02  0.59387822358E+02  0.00000000000E+00 0.  1.
          1   -1    0    0  501    0  0.00000000000E+00 -0.00000000000E+00 -0.35803571834E+03  0.35803571834E+03  0.00000000000E+00 0.  1.
         35    2    1    2    0    0  0.71054273576E-14  0.00000000000E+00 -0.29864789598E+03  0.41742354070E+03  0.29163649730E+03 0.  0.
         25    2    3    3    0    0 -0.20400879983E+02 -0.72718333166E+02 -0.14391554001E+03  0.20490428771E+03  0.12477953590E+03 0.  0.
         25    2    3    3    0    0  0.20400879983E+02  0.72718333166E+02 -0.15473235597E+03  0.21251925299E+03  0.12457198331E+03 0.  0.
          5    1    4    4  502    0 -0.63705425512E+02 -0.41821595182E+02 -0.35819619354E+02  0.84336007695E+02  0.47000000000E+01 0. -1.
         -5    1    4    4    0  502  0.43304545529E+02 -0.30896737984E+02 -0.10809592066E+03  0.12056828001E+03  0.47000000000E+01 0. -1.
          5    1    5    5  503    0  0.37345761388E+02  0.83647485290E+02 -0.47478973185E+02  0.10328577145E+03  0.47000000000E+01 0. -1.
         -5    1    5    5    0  503 -0.16944881405E+02 -0.10929152124E+02 -0.10725338278E+03  0.10923348154E+03  0.47000000000E+01 0. -1.
<mgrwt>
<rscale>  0 0.29163650E+03</rscale>
<asrwt>0</asrwt>
<pdfrwt beam="1">  1        1 0.55082418E-01 0.29163650E+03</pdfrwt>
<pdfrwt beam="2">  1       -1 0.91365881E-02 0.29163650E+03</pdfrwt>
<totfact> 0.48865496E+03</totfact>
</mgrwt>
</event>
<event>
 9    1  0.8093459E-001  0.2777426E+03  0.7818608E-02  0.1096928E+00
          2   -1    0    0  501    0  0.00000000000E+00  0.00000000000E+00  0.10036480365E+03  0.10036480365E+03  0.00000000000E+00 0.  1.
         -2   -1    0    0    0  501 -0.00000000000E+00 -0.00000000000E+00 -0.19215133712E+03  0.19215133712E+03  0.00000000000E+00 0.  1.
         35    2    1    2    0    0  0.71054273576E-14  0.00000000000E+00 -0.91786533474E+02  0.29251614077E+03  0.27774255144E+03 0.  0.
         25    2    3    3    0    0  0.46438567505E+02  0.93290887723E+01 -0.83823180721E+02  0.15765045622E+03  0.12483496413E+03 0.  0.
         25    2    3    3    0    0 -0.46438567505E+02 -0.93290887723E+01 -0.79633527532E+01  0.13486568455E+03  0.12602287662E+03 0.  0.
          5    1    4    4  502    0  0.34736600630E+02  0.64297347284E+02 -0.65782788744E+02  0.98439045028E+02  0.47000000000E+01 0. -1.
         -5    1    4    4    0  502  0.11701966875E+02 -0.54968258512E+02 -0.18040391977E+02  0.59211411191E+02  0.47000000000E+01 0. -1.
          5    1    5    5  503    0  0.14442441721E+02  0.92139461406E+01 -0.53563375634E+02  0.56432314640E+02  0.47000000000E+01 0.  1.
         -5    1    5    5    0  503 -0.60881009226E+02 -0.18543034913E+02  0.45600022881E+02  0.78433369906E+02  0.47000000000E+01 0.  1.
<mgrwt>
<rscale>  0 0.27774255E+03</rscale>
<asrwt>0</asrwt>
<pdfrwt beam="1">  1        2 0.15440739E-01 0.27774255E+03</pdfrwt>
<pdfrwt beam="2">  1       -2 0.29561744E-01 0.27774255E+03</pdfrwt>
<totfact> 0.39347998E+03</totfact>
</mgrwt>
</event>
<event>
 9    1  0.8093459E-001  0.2763555E+03  0.7818608E-02  0.1097696E+00
         -3   -1    0    0    0  501 -0.00000000000E+00  0.00000000000E+00  0.62716555460E+02  0.62716555460E+02  0.00000000000E+00 0. -1.
          3   -1    0    0  501    0  0.00000000000E+00 -0.00000000000E+00 -0.30443472296E+03  0.30443472296E+03  0.00000000000E+00 0. -1.
         35    2    1    2    0    0  0.71054273576E-14 -0.71054273576E-14 -0.24171816750E+03  0.36715127842E+03  0.27635554770E+03 0.  0.
         25    2    3    3    0    0  0.60026379664E+02  0.10764984914E+02 -0.13064120709E+03  0.18993135063E+03  0.12364360803E+03 0.  0.
         25    2    3    3    0    0 -0.60026379664E+02 -0.10764984914E+02 -0.11107696041E+03  0.17721992779E+03  0.12389415045E+03 0.  0.
          5    1    4    4  502    0  0.40746837444E+01  0.60813411009E+02 -0.72699831947E+02  0.94985417678E+02  0.47000000000E+01 0. -1.
         -5    1    4    4    0  502  0.55951695919E+02 -0.50048426096E+02 -0.57941375138E+02  0.94945932950E+02  0.47000000000E+01 0. -1.
          5    1    5    5  503    0 -0.17242499021E+02 -0.64458318345E+02 -0.71172603456E+02  0.97671941002E+02  0.47000000000E+01 0.  1.
         -5    1    5    5    0  503 -0.42783880643E+02  0.53693333431E+02 -0.39904356957E+02  0.79547986788E+02  0.47000000000E+01 0.  1.
<mgrwt>
<rscale>  0 0.27635555E+03</rscale>
<asrwt>0</asrwt>
<pdfrwt beam="1">  1        3 0.46836112E-01 0.27635555E+03</pdfrwt>
<pdfrwt beam="2">  1       -3 0.96487007E-02 0.27635555E+03</pdfrwt>
<totfact> 0.90736691E+02</totfact>
</mgrwt>
</event>
<event>
 9    1  0.8093459E-001  0.2754193E+03  0.7818608E-02  0.1098217E+00
          3   -1    0    0  501    0  0.00000000000E+00  0.00000000000E+00  0.27243611487E+02  0.27243611487E+02  0.00000000000E+00 0.  1.
         -3   -1    0    0    0  501 -0.00000000000E+00 -0.00000000000E+00 -0.69608767472E+03  0.69608767472E+03  0.00000000000E+00 0.  1.
         35    2    1    2    0    0  0.00000000000E+00  0.00000000000E+00 -0.66884406324E+03  0.72333128621E+03  0.27541925983E+03 0.  0.
         25    2    3    3    0    0  0.51127995813E+02 -0.19462377491E+02 -0.37659982960E+03  0.40085481574E+03  0.12595354521E+03 0.  0.
         25    2    3    3    0    0 -0.51127995813E+02  0.19462377491E+02 -0.29224423364E+03  0.32247647048E+03  0.12486603150E+03 0.  0.
          5    1    4    4  502    0 -0.15055557515E+02  0.41673597240E+02 -0.16303958121E+03  0.16901879647E+03  0.47000000000E+01 0.  1.
         -5    1    4    4    0  502  0.66183553328E+02 -0.61135974731E+02 -0.21356024838E+03  0.23183601926E+03  0.47000000000E+01 0.  1.
          5    1    5    5  503    0  0.29107256580E+02 -0.16481750249E+01 -0.18221788045E+03  0.18459521885E+03  0.47000000000E+01 0.  1.
         -5    1    5    5    0  503 -0.80235252393E+02  0.21110552516E+02 -0.11002635319E+03  0.13788125163E+03  0.47000000000E+01 0.  1.
<mgrwt>
<rscale>  0 0.27541926E+03</rscale>
<asrwt>0</asrwt>
<pdfrwt beam="1">  1        3 0.41913245E-02 0.27541926E+03</pdfrwt>
<pdfrwt beam="2">  1       -3 0.10709042E+00 0.27541926E+03</pdfrwt>
<totfact> 0.59116971E+02</totfact>
</mgrwt>
</event>
<event>
 9    1  0.8093459E-001  0.2736512E+03  0.7818608E-02  0.1099208E+00
          1   -1    0    0  501    0  0.00000000000E+00  0.00000000000E+00  0.37519142937E+03  0.37519142937E+03  0.00000000000E+00 0. -1.
         -1   -1    0    0    0  501 -0.00000000000E+00 -0.00000000000E+00 -0.49897844380E+02  0.49897844380E+02  0.00000000000E+00 0. -1.
         35    2    1    2    0    0  0.00000000000E+00 -0.35527136788E-14  0.32529358499E+03  0.42508927375E+03  0.27365119079E+03 0.  0.
         25    2    3    3    0    0 -0.46024214450E+02 -0.24389711725E+02  0.15654826397E+03  0.20712283154E+03  0.12521749894E+03 0.  0.
         25    2    3    3    0    0  0.46024214450E+02  0.24389711725E+02  0.16874532102E+03  0.21796644221E+03  0.12775484416E+03 0.  0.
          5    1    4    4  502    0  0.92262989829E+01 -0.24710482695E+01 -0.18970406133E+02  0.21753091305E+02  0.47000000000E+01 0. -1.
         -5    1    4    4    0  502 -0.55250513433E+02 -0.21918663455E+02  0.17551867010E+03  0.18536974024E+03  0.47000000000E+01 0. -1.
          5    1    5    5  503    0  0.30502588545E+02  0.76468571704E+02  0.11388097597E+03  0.14060162536E+03  0.47000000000E+01 0. -1.
         -5    1    5    5    0  503  0.15521625905E+02 -0.52078859979E+02  0.54864345048E+02  0.77364816842E+02  0.47000000000E+01 0. -1.
<mgrwt>
<rscale>  0 0.27365119E+03</rscale>
<asrwt>0</asrwt>
<pdfrwt beam="1">  1        1 0.57721757E-01 0.27365119E+03</pdfrwt>
<pdfrwt beam="2">  1       -1 0.76765917E-02 0.27365119E+03</pdfrwt>
<totfact> 0.59999946E+03</totfact>
</mgrwt>
</event>
<event>
 9    1  0.8093459E-001  0.2751813E+03  0.7818608E-02  0.1098350E+00
          1   -1    0    0  501    0  0.00000000000E+00  0.00000000000E+00  0.64280062775E+03  0.64280062775E+03  0.00000000000E+00 0.  1.
         -1   -1    0    0    0  501 -0.00000000000E+00 -0.00000000000E+00 -0.29451091843E+02  0.29451091843E+02  0.00000000000E+00 0.  1.
         35    2    1    2    0    0  0.00000000000E+00  0.53290705182E-14  0.61334953591E+03  0.67225171960E+03  0.27518125172E+03 0.  0.
         25    2    3    3    0    0 -0.50897871723E+02  0.10257120131E+02  0.25549028349E+03  0.28952120578E+03  0.12590250902E+03 0.  0.
         25    2    3    3    0    0  0.50897871723E+02 -0.10257120131E+02  0.35785925242E+03  0.38273051382E+03  0.12539377898E+03 0.  0.
          5    1    4    4  502    0 -0.25582632784E+02  0.15549652154E+02  0.26092516542E+03  0.26267907174E+03  0.47000000000E+01 0.  1.
         -5    1    4    4    0  502 -0.25315238939E+02 -0.52925320232E+01 -0.54348819305E+01  0.26842134032E+02  0.47000000000E+01 0.  1.
          5    1    5    5  503    0 -0.23928688201E+02  0.38109610575E+02  0.14602754513E+03  0.15287595780E+03  0.47000000000E+01 0.  1.
         -5    1    5    5    0  503  0.74826559924E+02 -0.48366730706E+02  0.21183170729E+03  0.22985455602E+03  0.47000000000E+01 0.  1.
<mgrwt>
<rscale>  0 0.27518125E+03</rscale>
<asrwt>0</asrwt>
<pdfrwt beam="1">  1        1 0.98892394E-01 0.27518125E+03</pdfrwt>
<pdfrwt beam="2">  1       -1 0.45309377E-02 0.27518125E+03</pdfrwt>
<totfact> 0.64893323E+03</totfact>
</mgrwt>
</event>
<event>
 9    1  0.8093459E-001  0.2796288E+03  0.7818608E-02  0.1095892E+00
          3   -1    0    0  501    0  0.00000000000E+00  0.00000000000E+00  0.24649701765E+02  0.24649701765E+02  0.00000000000E+00 0. -1.
         -3   -1    0    0    0  501 -0.00000000000E+00 -0.00000000000E+00 -0.79303438697E+03  0.79303438697E+03  0.00000000000E+00 0. -1.
         35    2    1    2    0    0 -0.71054273576E-14  0.71054273576E-14 -0.76838468521E+03  0.81768408874E+03  0.27962876196E+03 0.  0.
         25    2    3    3    0    0  0.25388756356E+02 -0.56713358365E+02 -0.41220099978E+03  0.43517302769E+03  0.12491959752E+03 0.  0.
         25    2    3    3    0    0 -0.25388756356E+02  0.56713358365E+02 -0.35618368543E+03  0.38251106104E+03  0.12484750735E+03 0.  0.
          5    1    4    4  502    0  0.44981326539E+02  0.24587144132E+02 -0.21192192291E+03  0.21808447630E+03  0.47000000000E+01 0.  1.
         -5    1    4    4    0  502 -0.19592570184E+02 -0.81300502498E+02 -0.20027907687E+03  0.21708855139E+03  0.47000000000E+01 0.  1.
          5    1    5    5  503    0  0.21668678130E+02  0.28441678455E+02 -0.18821560644E+02  0.40679255528E+02  0.47000000000E+01 0.  1.
         -5    1    5    5    0  503 -0.47057434486E+02  0.28271679910E+02 -0.33736212478E+03  0.34183180552E+03  0.47000000000E+01 0.  1.
<mgrwt>
<rscale>  0 0.27962876E+03</rscale>
<asrwt>0</asrwt>
<pdfrwt beam="1">  1        3 0.37922618E-02 0.27962876E+03</pdfrwt>
<pdfrwt beam="2">  1       -3 0.12200529E+00 0.27962876E+03</pdfrwt>
<totfact> 0.50952439E+02</totfact>
</mgrwt>
</event>
<event>
 9    1  0.8093459E-001  0.2759772E+03  0.7818608E-02  0.1097907E+00
          2   -1    0    0  501    0  0.00000000000E+00  0.00000000000E+00  0.14638462197E+04  0.14638462197E+04  0.00000000000E+00 0. -1.
         -2   -1    0    0    0  501 -0.00000000000E+00 -0.00000000000E+00 -0.13007416592E+02  0.13007416592E+02  0.00000000000E+00 0. -1.
         35    2    1    2    0    0  0.00000000000E+00 -0.71054273576E-14  0.14508388031E+04  0.14768536363E+04  0.27597722810E+03 0.  0.
         25    2    3    3    0    0 -0.16306742081E+02  0.54455468514E+02  0.75627992031E+03  0.76851068084E+03  0.12416940372E+03 0.  0.
         25    2    3    3    0    0  0.16306742081E+02 -0.54455468514E+02  0.69455888283E+03  0.70834295548E+03  0.12691096474E+03 0.  0.
          5    1    4    4  502    0 -0.11053750023E+02 -0.16597115998E+02  0.54704164136E+03  0.54742515199E+03  0.47000000000E+01 0. -1.
         -5    1    4    4    0  502 -0.52529920577E+01  0.71052584513E+02  0.20923827895E+03  0.22108552885E+03  0.47000000000E+01 0. -1.
          5    1    5    5  503    0  0.48755391815E+02 -0.16782563815E+02  0.10915369072E+03  0.12081126139E+03  0.47000000000E+01 0. -1.
         -5    1    5    5    0  503 -0.32448649734E+02 -0.37672904699E+02  0.58540519211E+03  0.58753169409E+03  0.47000000000E+01 0. -1.
<mgrwt>
<rscale>  0 0.27597723E+03</rscale>
<asrwt>0</asrwt>
<pdfrwt beam="1">  1        2 0.22520698E+00 0.27597723E+03</pdfrwt>
<pdfrwt beam="2">  1       -2 0.20011422E-02 0.27597723E+03</pdfrwt>
<totfact> 0.11021775E+04</totfact>
</mgrwt>
</event>
<event>
 9    1  0.8093459E-001  0.2730821E+03  0.7818608E-02  0.1099529E+00
         -1   -1    0    0    0  501 -0.00000000000E+00  0.00000000000E+00  0.22201374951E+02  0.22201374951E+02  0.00000000000E+00 0. -1.
          1   -1    0    0  501    0  0.00000000000E+00 -0.00000000000E+00 -0.83974317905E+03  0.83974317905E+03  0.00000000000E+00 0. -1.
         35    2    1    2    0    0 -0.71054273576E-14 -0.22204460493E-14 -0.81754180410E+03  0.86194455400E+03  0.27308206225E+03 0.  0.
         25    2    3    3    0    0  0.33390996634E+02  0.28301353889E+01 -0.27347231335E+03  0.30271188604E+03  0.12539701535E+03 0.  0.
         25    2    3    3    0    0 -0.33390996634E+02 -0.28301353889E+01 -0.54406949075E+03  0.55923266796E+03  0.12492636962E+03 0.  0.
          5    1    4    4  502    0  0.33491951623E+02  0.61848876560E+02 -0.14269727849E+03  0.15915903256E+03  0.47000000000E+01 0. -1.
         -5    1    4    4    0  502 -0.10095498913E+00 -0.59018741172E+02 -0.13077503486E+03  0.14355285348E+03  0.47000000000E+01 0. -1.
          5    1    5    5  503    0 -0.17277521383E+02 -0.29797032139E+01 -0.36032185074E+01  0.18505798010E+02  0.47000000000E+01 0.  1.
         -5    1    5    5    0  503 -0.16113475251E+02  0.14956782493E+00 -0.54046627224E+03  0.54072686995E+03  0.47000000000E+01 0.  1.
<mgrwt>
<rscale>  0 0.27308206E+03</rscale>
<asrwt>0</asrwt>
<pdfrwt beam="1">  1        1 0.12919123E+00 0.27308206E+03</pdfrwt>
<pdfrwt beam="2">  1       -1 0.34155968E-02 0.27308206E+03</pdfrwt>
<totfact> 0.66322198E+03</totfact>
</mgrwt>
</event>
<event>
 9    1  0.8093459E-001  0.2759038E+03  0.7818608E-02  0.1097947E+00
         -2   -1    0    0    0  501 -0.00000000000E+00  0.00000000000E+00  0.49484742838E+03  0.49484742838E+03  0.00000000000E+00 0.  1.
          2   -1    0    0  501    0  0.00000000000E+00 -0.00000000000E+00 -0.38457779520E+02  0.38457779520E+02  0.00000000000E+00 0.  1.
         35    2    1    2    0    0  0.00000000000E+00  0.00000000000E+00  0.45638964886E+03  0.53330520790E+03  0.27590384772E+03 0.  0.
         25    2    3    3    0    0 -0.54589839396E+02  0.12270486000E+02  0.19749280826E+03  0.24036861236E+03  0.12507215958E+03 0.  0.
         25    2    3    3    0    0  0.54589839396E+02 -0.12270486000E+02  0.25889684061E+03  0.29293659555E+03  0.12511458565E+03 0.  0.
          5    1    4    4  502    0 -0.45372903709E+02 -0.23423946049E+02  0.14006970457E+02  0.53157001993E+02  0.47000000000E+01 0. -1.
         -5    1    4    4    0  502 -0.92169356873E+01  0.35694432048E+02  0.18348583780E+03  0.18721161036E+03  0.47000000000E+01 0. -1.
          5    1    5    5  503    0  0.36920801768E+02  0.41679709260E+02  0.45478181745E+02  0.72046504301E+02  0.47000000000E+01 0.  1.
         -5    1    5    5    0  503  0.17669037628E+02 -0.53950195260E+02  0.21341865886E+03  0.22089009125E+03  0.47000000000E+01 0.  1.
<mgrwt>
<rscale>  0 0.27590385E+03</rscale>
<asrwt>0</asrwt>
<pdfrwt beam="1">  1        2 0.59165818E-02 0.27590385E+03</pdfrwt>
<pdfrwt beam="2">  1       -2 0.76130369E-01 0.27590385E+03</pdfrwt>
<totfact> 0.19958861E+03</totfact>
</mgrwt>
</event>
<event>
 9    1  0.8093459E-001  0.2860328E+03  0.7818608E-02  0.1092439E+00
         -2   -1    0    0    0  501 -0.00000000000E+00  0.00000000000E+00  0.18778022787E+02  0.18778022787E+02  0.00000000000E+00 0.  1.
          2   -1    0    0  501    0  0.00000000000E+00 -0.00000000000E+00 -0.10892355196E+04  0.10892355196E+04  0.00000000000E+00 0.  1.
         35    2    1    2    0    0 -0.71054273576E-14  0.14210854715E-13 -0.10704574968E+04  0.11080135424E+04  0.28603279118E+03 0.  0.
         25    2    3    3    0    0 -0.46711367133E+02  0.52087279006E+02 -0.49721711848E+03  0.51719583567E+03  0.12398239016E+03 0.  0.
         25    2    3    3    0    0  0.46711367133E+02 -0.52087279006E+02 -0.57324037834E+03  0.59081770672E+03  0.12476375582E+03 0.  0.
          5    1    4    4  502    0 -0.33261901466E+02  0.81975709265E+02 -0.20787824333E+03  0.22596863731E+03  0.47000000000E+01 0. -1.
         -5    1    4    4    0  502 -0.13449465667E+02 -0.29888430258E+02 -0.28933887515E+03  0.29122719836E+03  0.47000000000E+01 0. -1.
          5    1    5    5  503    0 -0.39866713464E+02 -0.36872317809E+02 -0.19558220431E+03  0.20303549272E+03  0.47000000000E+01 0.  1.
         -5    1    5    5    0  503  0.86578080597E+02 -0.15214961198E+02 -0.37765817403E+03  0.38778221400E+03  0.47000000000E+01 0.  1.
<mgrwt>
<rscale>  0 0.28603279E+03</rscale>
<asrwt>0</asrwt>
<pdfrwt beam="1">  1        2 0.16757470E+00 0.28603279E+03</pdfrwt>
<pdfrwt beam="2">  1       -2 0.28889265E-02 0.28603279E+03</pdfrwt>
<totfact> 0.10384122E+04</totfact>
</mgrwt>
</event>
<event>
 9    1  0.8093459E-001  0.2748925E+03  0.7818608E-02  0.1098512E+00
         -2   -1    0    0    0  501 -0.00000000000E+00  0.00000000000E+00  0.79732990327E+02  0.79732990327E+02  0.00000000000E+00 0. -1.
          2   -1    0    0  501    0  0.00000000000E+00 -0.00000000000E+00 -0.23693418053E+03  0.23693418053E+03  0.00000000000E+00 0. -1.
         35    2    1    2    0    0  0.35527136788E-14 -0.35527136788E-14 -0.15720119020E+03  0.31666717085E+03  0.27489249334E+03 0.  0.
         25    2    3    3    0    0  0.11510383867E+02 -0.15357030279E+02 -0.15756484297E+02  0.12676187875E+03  0.12430599258E+03 0.  0.
         25    2    3    3    0    0 -0.11510383867E+02  0.15357030279E+02 -0.14144470590E+03  0.18990529210E+03  0.12525608897E+03 0.  0.
          5    1    4    4  502    0  0.23789083187E+02  0.12746851947E+02 -0.63878145173E+02  0.69504749077E+02  0.47000000000E+01 0. -1.
         -5    1    4    4    0  502 -0.12278699320E+02 -0.28103882225E+02  0.48121660877E+02  0.57257129675E+02  0.47000000000E+01 0. -1.
          5    1    5    5  503    0  0.33219160078E+02  0.40368308538E+02 -0.16894277871E+02  0.55141813130E+02  0.47000000000E+01 0. -1.
         -5    1    5    5    0  503 -0.44729543945E+02 -0.25011278260E+02 -0.12455042803E+03  0.13476347897E+03  0.47000000000E+01 0. -1.
<mgrwt>
<rscale>  0 0.27489249E+03</rscale>
<asrwt>0</asrwt>
<pdfrwt beam="1">  1        2 0.36451412E-01 0.27489249E+03</pdfrwt>
<pdfrwt beam="2">  1       -2 0.12266614E-01 0.27489249E+03</pdfrwt>
<totfact> 0.66955118E+03</totfact>
</mgrwt>
</event>
<event>
 9    1  0.8093459E-001  0.2779327E+03  0.7818608E-02  0.1096823E+00
         -2   -1    0    0    0  501 -0.00000000000E+00  0.00000000000E+00  0.56402812384E+02  0.56402812384E+02  0.00000000000E+00 0.  1.
          2   -1    0    0  501    0  0.00000000000E+00 -0.00000000000E+00 -0.34238795430E+03  0.34238795430E+03  0.00000000000E+00 0.  1.
         35    2    1    2    0    0 -0.14210854715E-13  0.00000000000E+00 -0.28598514191E+03  0.39879076668E+03  0.27793267925E+03 0.  0.
         25    2    3    3    0    0  0.35911050803E+02 -0.55374494316E+02 -0.13449453528E+03  0.19487187074E+03  0.12462073581E+03 0.  0.
         25    2    3    3    0    0 -0.35911050803E+02  0.55374494316E+02 -0.15149060663E+03  0.20391889594E+03  0.11948880297E+03 0.  0.
          5    1    4    4  502    0  0.16437788947E+02  0.39700486399E+02 -0.50148183102E+02  0.66206191510E+02  0.47000000000E+01 0. -1.
         -5    1    4    4    0  502  0.19473261855E+02 -0.95074980715E+02 -0.84346352182E+02  0.12866567923E+03  0.47000000000E+01 0. -1.
          5    1    5    5  503    0 -0.46181033041E+02 -0.57465406039E+01 -0.78780111100E+01  0.47432727106E+02  0.47000000000E+01 0.  1.
         -5    1    5    5    0  503  0.10269982239E+02  0.61121034920E+02 -0.14361259552E+03  0.15648616884E+03  0.47000000000E+01 0.  1.
<mgrwt>
<rscale>  0 0.27793268E+03</rscale>
<asrwt>0</asrwt>
<pdfrwt beam="1">  1        2 0.52675069E-01 0.27793268E+03</pdfrwt>
<pdfrwt beam="2">  1       -2 0.86773559E-02 0.27793268E+03</pdfrwt>
<totfact> 0.78220554E+03</totfact>
</mgrwt>
</event>
<event>
 9    1  0.8093459E-001  0.2852277E+03  0.7818608E-02  0.1092867E+00
         -1   -1    0    0    0  501 -0.00000000000E+00  0.00000000000E+00  0.10673295467E+02  0.10673295467E+02  0.00000000000E+00 0.  1.
          1   -1    0    0  501    0  0.00000000000E+00 -0.00000000000E+00 -0.19055694325E+04  0.19055694325E+04  0.00000000000E+00 0.  1.
         35    2    1    2    0    0  0.00000000000E+00 -0.17763568394E-14 -0.18948961370E+04  0.19162427280E+04  0.28522766757E+03 0.  0.
         25    2    3    3    0    0  0.60206585671E+02  0.29538538948E+01 -0.71302898394E+03  0.72641353892E+03  0.12503095368E+03 0.  0.
         25    2    3    3    0    0 -0.60206585671E+02 -0.29538538948E+01 -0.11818671531E+04  0.11898291891E+04  0.12349078240E+03 0.  0.
          5    1    4    4  502    0  0.55184732718E+02 -0.55965264094E+02 -0.36887036118E+03  0.37718019416E+03  0.47000000000E+01 0.  1.
         -5    1    4    4    0  502  0.50218529533E+01  0.58919117989E+02 -0.34415862275E+03  0.34923334475E+03  0.47000000000E+01 0.  1.
          5    1    5    5  503    0 -0.92771309501E+02  0.34462972209E+01 -0.10359375834E+04  0.10400995912E+04  0.47000000000E+01 0. -1.
         -5    1    5    5    0  503  0.32564723830E+02 -0.64001511157E+01 -0.14592956966E+03  0.14972959786E+03  0.47000000000E+01 0. -1.
<mgrwt>
<rscale>  0 0.28522767E+03</rscale>
<asrwt>0</asrwt>
<pdfrwt beam="1">  1        1 0.29316452E+00 0.28522767E+03</pdfrwt>
<pdfrwt beam="2">  1       -1 0.16420455E-02 0.28522767E+03</pdfrwt>
<totfact> 0.35540190E+03</totfact>
</mgrwt>
</event>
<event>
 9    1  0.8093459E-001  0.2775475E+03  0.7818608E-02  0.1097036E+00
          2   -1    0    0  501    0  0.00000000000E+00  0.00000000000E+00  0.64303728246E+03  0.64303728246E+03  0.00000000000E+00 0.  1.
         -2   -1    0    0    0  501 -0.00000000000E+00 -0.00000000000E+00 -0.29948738358E+02  0.29948738358E+02  0.00000000000E+00 0.  1.
         35    2    1    2    0    0 -0.53290705182E-14 -0.71054273576E-14  0.61308854410E+03  0.67298602082E+03  0.27754751180E+03 0.  0.
         25    2    3    3    0    0  0.42864574987E+01  0.63221175044E+02  0.28234335959E+03  0.31442419462E+03  0.12300207628E+03 0.  0.
         25    2    3    3    0    0 -0.42864574987E+01 -0.63221175044E+02  0.33074518451E+03  0.35856182619E+03  0.12312154740E+03 0.  0.
          5    1    4    4  502    0  0.19761056967E+02 -0.29467835141E+02  0.36177229625E+02  0.50889435286E+02  0.47000000000E+01 0.  1.
         -5    1    4    4    0  502 -0.15474599469E+02  0.92689010184E+02  0.24616612996E+03  0.26353475934E+03  0.47000000000E+01 0.  1.
          5    1    5    5  503    0 -0.58209827827E+02 -0.25256127195E+02  0.22522678226E+03  0.23404155500E+03  0.47000000000E+01 0.  1.
         -5    1    5    5    0  503  0.53923370329E+02 -0.37965047849E+02  0.10551840225E+03  0.12452027120E+03  0.47000000000E+01 0.  1.
<mgrwt>
<rscale>  0 0.27754751E+03</rscale>
<asrwt>0</asrwt>
<pdfrwt beam="1">  1        2 0.98928803E-01 0.27754751E+03</pdfrwt>
<pdfrwt beam="2">  1       -2 0.46074987E-02 0.27754751E+03</pdfrwt>
<totfact> 0.10268454E+04</totfact>
</mgrwt>
</event>
<event>
 9    1  0.8093459E-001  0.2762639E+03  0.7818608E-02  0.1097747E+00
         -1   -1    0    0    0  501 -0.00000000000E+00  0.00000000000E+00  0.16908003231E+03  0.16908003231E+03  0.00000000000E+00 0.  1.
          1   -1    0    0  501    0  0.00000000000E+00 -0.00000000000E+00 -0.11284851077E+03  0.11284851077E+03  0.00000000000E+00 0.  1.
         35    2    1    2    0    0  0.00000000000E+00  0.71054273576E-14  0.56231521543E+02  0.28192854308E+03  0.27626385828E+03 0.  0.
         25    2    3    3    0    0 -0.16169022533E+02 -0.44088737942E+02  0.60696262761E+02  0.14633345548E+03  0.12459610659E+03 0.  0.
         25    2    3    3    0    0  0.16169022533E+02  0.44088737942E+02 -0.44647412184E+01  0.13559508760E+03  0.12712529160E+03 0.  0.
          5    1    4    4  502    0  0.17203535263E+02  0.13137906997E+02  0.75166349367E+02  0.78362212213E+02  0.47000000000E+01 0. -1.
         -5    1    4    4    0  502 -0.33372557796E+02 -0.57226644939E+02 -0.14470086606E+02  0.67971243266E+02  0.47000000000E+01 0. -1.
          5    1    5    5  503    0  0.58085812911E+02  0.71660465213E+01 -0.38315253152E+02  0.70110359494E+02  0.47000000000E+01 0.  1.
         -5    1    5    5    0  503 -0.41916790378E+02  0.36922691421E+02  0.33850511933E+02  0.65484728109E+02  0.47000000000E+01 0.  1.
<mgrwt>
<rscale>  0 0.27626386E+03</rscale>
<asrwt>0</asrwt>
<pdfrwt beam="1">  1        1 0.17361309E-01 0.27626386E+03</pdfrwt>
<pdfrwt beam="2">  1       -1 0.26012313E-01 0.27626386E+03</pdfrwt>
<totfact> 0.39796412E+03</totfact>
</mgrwt>
</event>
<event>
 9    1  0.8093459E-001  0.2757652E+03  0.7818608E-02  0.1098025E+00
         -2   -1    0    0    0  501 -0.00000000000E+00  0.00000000000E+00  0.51302991441E+02  0.51302991441E+02  0.00000000000E+00 0. -1.
          2   -1    0    0  501    0  0.00000000000E+00 -0.00000000000E+00 -0.37057513385E+03  0.37057513385E+03  0.00000000000E+00 0. -1.
         35    2    1    2    0    0  0.71054273576E-14  0.00000000000E+00 -0.31927214240E+03  0.42187812529E+03  0.27576521115E+03 0.  0.
         25    2    3    3    0    0  0.12122952109E+02  0.18648668501E+02 -0.23908508900E+03  0.27075608754E+03  0.12510971325E+03 0.  0.
         25    2    3    3    0    0 -0.12122952109E+02 -0.18648668501E+02 -0.80187053399E+02  0.15112203775E+03  0.12614740566E+03 0.  0.
          5    1    4    4  502    0  0.49997520068E+02  0.54753222281E+02 -0.13178423206E+03  0.15128397530E+03  0.47000000000E+01 0.  1.
         -5    1    4    4    0  502 -0.37874567959E+02 -0.36104553780E+02 -0.10730085694E+03  0.11947211224E+03  0.47000000000E+01 0.  1.
          5    1    5    5  503    0 -0.66706767196E+02  0.45564358385E+01 -0.54189948363E+02  0.86192774644E+02  0.47000000000E+01 0.  1.
         -5    1    5    5    0  503  0.54583815087E+02 -0.23205104339E+02 -0.25997105037E+02  0.64929263103E+02  0.47000000000E+01 0.  1.
<mgrwt>
<rscale>  0 0.27576521E+03</rscale>
<asrwt>0</asrwt>
<pdfrwt beam="1">  1        2 0.57011558E-01 0.27576521E+03</pdfrwt>
<pdfrwt beam="2">  1       -2 0.78927680E-02 0.27576521E+03</pdfrwt>
<totfact> 0.83277576E+03</totfact>
</mgrwt>
</event>
<event>
 9    1  0.8093459E-001  0.2766154E+03  0.7818608E-02  0.1097552E+00
          2   -1    0    0  501    0  0.00000000000E+00  0.00000000000E+00  0.34716878181E+03  0.34716878181E+03  0.00000000000E+00 0. -1.
         -2   -1    0    0    0  501 -0.00000000000E+00 -0.00000000000E+00 -0.55100048755E+02  0.55100048755E+02  0.00000000000E+00 0. -1.
         35    2    1    2    0    0  0.71054273576E-14  0.00000000000E+00  0.29206873306E+03  0.40226883057E+03  0.27661537777E+03 0.  0.
         25    2    3    3    0    0 -0.10692013349E+02 -0.40425707446E+02  0.20604067062E+03  0.24478964906E+03  0.12538204561E+03 0.  0.
         25    2    3    3    0    0  0.10692013349E+02  0.40425707446E+02  0.86028062433E+02  0.15747918151E+03  0.12510119149E+03 0.  0.
          5    1    4    4  502    0 -0.46293664125E+02 -0.27796658716E+02  0.24820620501E+02  0.59614685909E+02  0.47000000000E+01 0.  1.
         -5    1    4    4    0  502  0.35601650776E+02 -0.12629048730E+02  0.18122005012E+03  0.18517496315E+03  0.47000000000E+01 0.  1.
          5    1    5    5  503    0  0.27538341485E+02 -0.32198213854E+01 -0.24543474240E+02  0.37325589470E+02  0.47000000000E+01 0.  1.
         -5    1    5    5    0  503 -0.16846328136E+02  0.43645528832E+02  0.11057153667E+03  0.12015359204E+03  0.47000000000E+01 0.  1.
<mgrwt>
<rscale>  0 0.27661538E+03</rscale>
<asrwt>0</asrwt>
<pdfrwt beam="1">  1        2 0.53410581E-01 0.27661538E+03</pdfrwt>
<pdfrwt beam="2">  1       -2 0.84769307E-02 0.27661538E+03</pdfrwt>
<totfact> 0.79924803E+03</totfact>
</mgrwt>
</event>
<event>
 9    1  0.8093459E-001  0.2800932E+03  0.7818608E-02  0.1095638E+00
         -2   -1    0    0    0  501 -0.00000000000E+00  0.00000000000E+00  0.86188617368E+01  0.86188617368E+01  0.00000000000E+00 0. -1.
          2   -1    0    0  501    0  0.00000000000E+00 -0.00000000000E+00 -0.22755959819E+04  0.22755959819E+04  0.00000000000E+00 0. -1.
         35    2    1    2    0    0  0.00000000000E+00  0.00000000000E+00 -0.22669771202E+04  0.22842148436E+04  0.28009317833E+03 0.  0.
         25    2    3    3    0    0  0.60698998476E+02  0.44810748846E+01 -0.98516322053E+03  0.99488906001E+03  0.12471255826E+03 0.  0.
         25    2    3    3    0    0 -0.60698998476E+02 -0.44810748846E+01 -0.12818138996E+04  0.12893257836E+04  0.12493860329E+03 0.  0.
          5    1    4    4  502    0  0.55431936953E+02 -0.38720790228E+02 -0.85249987463E+03  0.85519011072E+03  0.47000000000E+01 0.  1.
         -5    1    4    4    0  502  0.52670615234E+01  0.43201865113E+02 -0.13266334590E+03  0.13969894929E+03  0.47000000000E+01 0.  1.
          5    1    5    5  503    0 -0.35557562026E+02  0.57212764260E+02 -0.80980987987E+03  0.81262031241E+03  0.47000000000E+01 0.  1.
         -5    1    5    5    0  503 -0.25141436450E+02 -0.61693839145E+02 -0.47200401976E+03  0.47670547121E+03  0.47000000000E+01 0.  1.
<mgrwt>
<rscale>  0 0.28009318E+03</rscale>
<asrwt>0</asrwt>
<pdfrwt beam="1">  1        2 0.35009168E+00 0.28009318E+03</pdfrwt>
<pdfrwt beam="2">  1       -2 0.13259788E-02 0.28009318E+03</pdfrwt>
<totfact> 0.74983910E+03</totfact>
</mgrwt>
</event>
<event>
 9    1  0.8093459E-001  0.3247138E+03  0.7818608E-02  0.1073500E+00
         -2   -1    0    0    0  501 -0.00000000000E+00  0.00000000000E+00  0.55146688551E+02  0.55146688551E+02  0.00000000000E+00 0.  1.
          2   -1    0    0  501    0  0.00000000000E+00 -0.00000000000E+00 -0.47799347011E+03  0.47799347011E+03  0.00000000000E+00 0.  1.
         35    2    1    2    0    0  0.71054273576E-14 -0.14210854715E-13 -0.42284678156E+03  0.53314015867E+03  0.32471376334E+03 0.  0.
         25    2    3    3    0    0  0.35838037011E+02 -0.90929286827E+02 -0.15570747701E+03  0.22232027628E+03  0.12501594599E+03 0.  0.
         25    2    3    3    0    0 -0.35838037011E+02  0.90929286827E+02 -0.26713930456E+03  0.31081988238E+03  0.12527206850E+03 0.  0.
          5    1    4    4  502    0 -0.39910739936E+02 -0.93160191835E+01 -0.71838035634E+02  0.82839898234E+02  0.47000000000E+01 0.  1.
         -5    1    4    4    0  502  0.75748776947E+02 -0.81613267643E+02 -0.83869441371E+02  0.13948037805E+03  0.47000000000E+01 0.  1.
          5    1    5    5  503    0 -0.46309307669E+02  0.91653301197E+02 -0.10042226641E+03  0.14370664977E+03  0.47000000000E+01 0. -1.
         -5    1    5    5    0  503  0.10471270658E+02 -0.72401437039E+00 -0.16671703815E+03  0.16711323261E+03  0.47000000000E+01 0. -1.
<mgrwt>
<rscale>  0 0.32471376E+03</rscale>
<asrwt>0</asrwt>
<pdfrwt beam="1">  1        2 0.73537455E-01 0.32471376E+03</pdfrwt>
<pdfrwt beam="2">  1       -2 0.84841061E-02 0.32471376E+03</pdfrwt>
<totfact> 0.56529594E+03</totfact>
</mgrwt>
</event>
<event>
 9    1  0.8093459E-001  0.2716594E+03  0.7818608E-02  0.1100334E+00
          2   -1    0    0  501    0  0.00000000000E+00  0.00000000000E+00  0.39772281362E+03  0.39772281362E+03  0.00000000000E+00 0. -1.
         -2   -1    0    0    0  501 -0.00000000000E+00 -0.00000000000E+00 -0.46388345138E+02  0.46388345138E+02  0.00000000000E+00 0. -1.
         35    2    1    2    0    0  0.71054273576E-14  0.88817841970E-15  0.35133446849E+03  0.44411115876E+03  0.27165936868E+03 0.  0.
         25    2    3    3    0    0 -0.83696663772E+01 -0.16357804178E+01  0.89577723549E+02  0.15439978157E+03  0.12546870884E+03 0.  0.
         25    2    3    3    0    0  0.83696663772E+01  0.16357804178E+01  0.26175674494E+03  0.28971137720E+03  0.12386832308E+03 0.  0.
          5    1    4    4  502    0 -0.40893807482E+02  0.33058609685E+02 -0.88303213475E-01  0.52794630050E+02  0.47000000000E+01 0.  1.
         -5    1    4    4    0  502  0.32524141105E+02 -0.34694390103E+02  0.89666026763E+02  0.10160515152E+03  0.47000000000E+01 0.  1.
          5    1    5    5  503    0 -0.39060167299E+02 -0.34582573203E+01  0.22723233393E+03  0.23063885145E+03  0.47000000000E+01 0.  1.
         -5    1    5    5    0  503  0.47429833676E+02  0.50940377381E+01  0.34524411006E+02  0.59072525748E+02  0.47000000000E+01 0.  1.
<mgrwt>
<rscale>  0 0.27165937E+03</rscale>
<asrwt>0</asrwt>
<pdfrwt beam="1">  1        2 0.61188123E-01 0.27165937E+03</pdfrwt>
<pdfrwt beam="2">  1       -2 0.71366688E-02 0.27165937E+03</pdfrwt>
<totfact> 0.90164048E+03</totfact>
</mgrwt>
</event>
<event>
 9    1  0.8093459E-001  0.2756012E+03  0.7818608E-02  0.1098116E+00
         -2   -1    0    0    0  501 -0.00000000000E+00  0.00000000000E+00  0.23549681243E+03  0.23549681243E+03  0.00000000000E+00 0.  1.
          2   -1    0    0  501    0  0.00000000000E+00 -0.00000000000E+00 -0.80633831124E+02  0.80633831124E+02  0.00000000000E+00 0.  1.
         35    2    1    2    0    0  0.35527136788E-14 -0.71054273576E-14  0.15486298130E+03  0.31613064355E+03  0.27560123515E+03 0.  0.
         25    2    3    3    0    0 -0.89587714464E+01 -0.53788402612E+02  0.99921473035E+02  0.16868995100E+03  0.12449316027E+03 0.  0.
         25    2    3    3    0    0  0.89587714464E+01  0.53788402612E+02  0.54941508268E+02  0.14744069255E+03  0.12548600180E+03 0.  0.
          5    1    4    4  502    0 -0.14332972981E+02  0.21055758437E+01 -0.26339590558E+02  0.30425837620E+02  0.47000000000E+01 0.  1.
         -5    1    4    4    0  502  0.53742015345E+01 -0.55893978456E+02  0.12626106359E+03  0.13826411338E+03  0.47000000000E+01 0.  1.
          5    1    5    5  503    0  0.65970851124E+02  0.35160905741E+02  0.18686769933E+02  0.77199273709E+02  0.47000000000E+01 0. -1.
         -5    1    5    5    0  503 -0.57012079678E+02  0.18627496871E+02  0.36254738336E+02  0.70241418840E+02  0.47000000000E+01 0. -1.
<mgrwt>
<rscale>  0 0.27560124E+03</rscale>
<asrwt>0</asrwt>
<pdfrwt beam="1">  1        2 0.12405205E-01 0.27560124E+03</pdfrwt>
<pdfrwt beam="2">  1       -2 0.36230279E-01 0.27560124E+03</pdfrwt>
<totfact> 0.35138082E+03</totfact>
</mgrwt>
</event>
<event>
 9    1  0.8093459E-001  0.2787143E+03  0.7818608E-02  0.1096393E+00
         -2   -1    0    0    0  501 -0.00000000000E+00  0.00000000000E+00  0.99208578603E+02  0.99208578603E+02  0.00000000000E+00 0.  1.
          2   -1    0    0  501    0  0.00000000000E+00 -0.00000000000E+00 -0.19575342060E+03  0.19575342060E+03  0.00000000000E+00 0.  1.
         35    2    1    2    0    0 -0.71054273576E-14  0.14210854715E-13 -0.96544841999E+02  0.29496199920E+03  0.27871432410E+03 0.  0.
         25    2    3    3    0    0  0.28301287079E+02  0.39231991628E+02 -0.88150266217E+01  0.13468822824E+03  0.12539179445E+03 0.  0.
         25    2    3    3    0    0 -0.28301287079E+02 -0.39231991628E+02 -0.87729815377E+02  0.16027377096E+03  0.12510415315E+03 0.  0.
          5    1    4    4  502    0 -0.42553524916E+02 -0.13911250827E+02  0.34596914905E+01  0.45148475584E+02  0.47000000000E+01 0.  1.
         -5    1    4    4    0  502  0.70854811995E+02  0.53143242455E+02 -0.12274718112E+02  0.89539752659E+02  0.47000000000E+01 0.  1.
          5    1    5    5  503    0 -0.72864777803E+02  0.22086929140E+01 -0.49884789014E+02  0.88457539778E+02  0.47000000000E+01 0.  1.
         -5    1    5    5    0  503  0.44563490724E+02 -0.41440684542E+02 -0.37845026363E+02  0.71816231183E+02  0.47000000000E+01 0.  1.
<mgrwt>
<rscale>  0 0.27871432E+03</rscale>
<asrwt>0</asrwt>
<pdfrwt beam="1">  1        2 0.30115911E-01 0.27871432E+03</pdfrwt>
<pdfrwt beam="2">  1       -2 0.15262858E-01 0.27871432E+03</pdfrwt>
<totfact> 0.57684083E+03</totfact>
</mgrwt>
</event>
<event>
 9    1  0.8093459E-001  0.2757463E+03  0.7818608E-02  0.1098035E+00
          2   -1    0    0  501    0  0.00000000000E+00  0.00000000000E+00  0.16504707420E+02  0.16504707420E+02  0.00000000000E+00 0. -1.
         -2   -1    0    0    0  501 -0.00000000000E+00 -0.00000000000E+00 -0.11517319346E+04  0.11517319346E+04  0.00000000000E+00 0. -1.
         35    2    1    2    0    0  0.00000000000E+00 -0.17763568394E-14 -0.11352272272E+04  0.11682366420E+04  0.27574625007E+03 0.  0.
         25    2    3    3    0    0  0.16042246013E+02 -0.13585699310E+02 -0.79963823674E+03  0.80961173561E+03  0.12493169290E+03 0.  0.
         25    2    3    3    0    0 -0.16042246013E+02  0.13585699310E+02 -0.33558899045E+03  0.35862490643E+03  0.12469935090E+03 0.  0.
          5    1    4    4  502    0  0.29183853627E+02  0.79417944238E+01 -0.44343597333E+02  0.53881481379E+02  0.47000000000E+01 0. -1.
         -5    1    4    4    0  502 -0.13141607613E+02 -0.21527493734E+02 -0.75529463941E+03  0.75573025423E+03  0.47000000000E+01 0. -1.
          5    1    5    5  503    0 -0.65797371856E+02  0.79759439938E+01 -0.25596752207E+03  0.26445107711E+03  0.47000000000E+01 0. -1.
         -5    1    5    5    0  503  0.49755125842E+02  0.56097553163E+01 -0.79621468381E+02  0.94173829323E+02  0.47000000000E+01 0. -1.
<mgrwt>
<rscale>  0 0.27574625E+03</rscale>
<asrwt>0</asrwt>
<pdfrwt beam="1">  1        2 0.25391859E-02 0.27574625E+03</pdfrwt>
<pdfrwt beam="2">  1       -2 0.17718952E+00 0.27574625E+03</pdfrwt>
<totfact> 0.80066899E+02</totfact>
</mgrwt>
</event>
<event>
 9    1  0.8093459E-001  0.2598755E+03  0.7818608E-02  0.1107218E+00
         -2   -1    0    0    0  501 -0.00000000000E+00  0.00000000000E+00  0.80729347927E+02  0.80729347927E+02  0.00000000000E+00 0. -1.
          2   -1    0    0  501    0  0.00000000000E+00 -0.00000000000E+00 -0.20914104270E+03  0.20914104270E+03  0.00000000000E+00 0. -1.
         35    2    1    2    0    0  0.00000000000E+00  0.71054273576E-14 -0.12841169477E+03  0.28987039062E+03  0.25987550867E+03 0.  0.
         25    2    3    3    0    0  0.11688488990E+02  0.16120591157E+02 -0.33833745059E+02  0.13123207634E+03  0.12522236750E+03 0.  0.
         25    2    3    3    0    0 -0.11688488990E+02 -0.16120591157E+02 -0.94577949711E+02  0.15863831428E+03  0.12579599339E+03 0.  0.
          5    1    4    4  502    0  0.66575038689E+02  0.13528600463E+02 -0.32606458981E+01  0.68176100054E+02  0.47000000000E+01 0. -1.
         -5    1    4    4    0  502 -0.54886549698E+02  0.25919906931E+01 -0.30573099160E+02  0.63055976290E+02  0.47000000000E+01 0. -1.
          5    1    5    5  503    0  0.49019263266E+02  0.21112494482E+02 -0.56021353025E+02  0.77518433867E+02  0.47000000000E+01 0.  1.
         -5    1    5    5    0  503 -0.60707752256E+02 -0.37233085639E+02 -0.38556596686E+02  0.81119880413E+02  0.47000000000E+01 0.  1.
<mgrwt>
<rscale>  0 0.25987551E+03</rscale>
<asrwt>0</asrwt>
<pdfrwt beam="1">  1        2 0.32175545E-01 0.25987551E+03</pdfrwt>
<pdfrwt beam="2">  1       -2 0.12419900E-01 0.25987551E+03</pdfrwt>
<totfact> 0.74986180E+03</totfact>
</mgrwt>
</event>
<event>
 9    1  0.8093459E-001  0.2787069E+03  0.7818608E-02  0.1096397E+00
          1   -1    0    0  501    0  0.00000000000E+00  0.00000000000E+00  0.14064042570E+04  0.14064042570E+04  0.00000000000E+00 0. -1.
         -1   -1    0    0    0  501 -0.00000000000E+00 -0.00000000000E+00 -0.13807829662E+02  0.13807829662E+02  0.00000000000E+00 0. -1.
         35    2    1    2    0    0  0.71054273576E-14  0.53290705182E-14  0.13925964273E+04  0.14202120867E+04  0.27870694585E+03 0.  0.
         25    2    3    3    0    0 -0.31810327289E+02  0.39345421384E+01  0.95546673389E+03  0.96411266131E+03  0.12477646647E+03 0.  0.
         25    2    3    3    0    0  0.31810327289E+02 -0.39345421384E+01  0.43712969346E+03  0.45609942536E+03  0.12616235321E+03 0.  0.
          5    1    4    4  502    0 -0.11223350880E+02  0.61182850021E+02  0.62101635434E+03  0.62414157617E+03  0.47000000000E+01 0. -1.
         -5    1    4    4    0  502 -0.20586976409E+02 -0.57248307882E+02  0.33445037954E+03  0.33997108514E+03  0.47000000000E+01 0. -1.
          5    1    5    5  503    0 -0.44179646733E+02  0.71188545405E+01  0.24574839424E+03  0.24983370979E+03  0.47000000000E+01 0. -1.
         -5    1    5    5    0  503  0.75989974022E+02 -0.11053396679E+02  0.19138129922E+03  0.20626571557E+03  0.47000000000E+01 0. -1.
<mgrwt>
<rscale>  0 0.27870695E+03</rscale>
<asrwt>0</asrwt>
<pdfrwt beam="1">  1        1 0.21636977E+00 0.27870695E+03</pdfrwt>
<pdfrwt beam="2">  1       -1 0.21242826E-02 0.27870695E+03</pdfrwt>
<totfact> 0.51881194E+03</totfact>
</mgrwt>
</event>
<event>
 9    1  0.8093459E-001  0.2745932E+03  0.7818608E-02  0.1098679E+00
         -1   -1    0    0    0  501 -0.00000000000E+00  0.00000000000E+00  0.33528629099E+02  0.33528629099E+02  0.00000000000E+00 0.  1.
          1   -1    0    0  501    0  0.00000000000E+00 -0.00000000000E+00 -0.56221657744E+03  0.56221657744E+03  0.00000000000E+00 0.  1.
         35    2    1    2    0    0  0.00000000000E+00  0.71054273576E-14 -0.52868794835E+03  0.59574520654E+03  0.27459316159E+03 0.  0.
         25    2    3    3    0    0  0.36077179919E+02 -0.37577036322E+02 -0.27415312465E+03  0.30769400358E+03  0.12962278934E+03 0.  0.
         25    2    3    3    0    0 -0.36077179919E+02  0.37577036322E+02 -0.25453482369E+03  0.28805120296E+03  0.12438618285E+03 0.  0.
          5    1    4    4  502    0  0.34333406255E+02 -0.40209517878E+02 -0.25346242255E+02  0.58822700631E+02  0.47000000000E+01 0.  1.
         -5    1    4    4    0  502  0.17437736640E+01  0.26324815565E+01 -0.24880688240E+03  0.24887130295E+03  0.47000000000E+01 0.  1.
          5    1    5    5  503    0  0.36538528127E+02  0.45427570099E+02 -0.14460763456E+03  0.15598777560E+03  0.47000000000E+01 0. -1.
         -5    1    5    5    0  503 -0.72615708045E+02 -0.78505337772E+01 -0.10992718913E+03  0.13206342736E+03  0.47000000000E+01 0. -1.
<mgrwt>
<rscale>  0 0.27459316E+03</rscale>
<asrwt>0</asrwt>
<pdfrwt beam="1">  1        1 0.86494859E-01 0.27459316E+03</pdfrwt>
<pdfrwt beam="2">  1       -1 0.51582506E-02 0.27459316E+03</pdfrwt>
<totfact> 0.64382724E+03</totfact>
</mgrwt>
</event>
<event>
 9    1  0.8093459E-001  0.2889074E+03  0.7818608E-02  0.1090921E+00
         -2   -1    0    0    0  501 -0.00000000000E+00  0.00000000000E+00  0.63605082319E+02  0.63605082319E+02  0.00000000000E+00 0. -1.
          2   -1    0    0  501    0  0.00000000000E+00 -0.00000000000E+00 -0.32806923818E+03  0.32806923818E+03  0.00000000000E+00 0. -1.
         35    2    1    2    0    0 -0.71054273576E-14  0.00000000000E+00 -0.26446415586E+03  0.39167432050E+03  0.28890739624E+03 0.  0.
         25    2    3    3    0    0  0.38436637428E+02  0.50125275274E+02 -0.17962309153E+03  0.22788678679E+03  0.12521187748E+03 0.  0.
         25    2    3    3    0    0 -0.38436637428E+02 -0.50125275274E+02 -0.84841064327E+02  0.16378753371E+03  0.12505371520E+03 0.  0.
          5    1    4    4  502    0  0.34191845930E+02 -0.37518188644E+02 -0.50968504587E+02  0.72087275348E+02  0.47000000000E+01 0. -1.
         -5    1    4    4    0  502  0.42447914976E+01  0.87643463918E+02 -0.12865458695E+03  0.15579951144E+03  0.47000000000E+01 0. -1.
          5    1    5    5  503    0 -0.48998666169E+02 -0.36709740403E+02  0.14324068115E+02  0.63053495178E+02  0.47000000000E+01 0. -1.
         -5    1    5    5    0  503  0.10562028741E+02 -0.13415534871E+02 -0.99165132442E+02  0.10073403853E+03  0.47000000000E+01 0. -1.
<mgrwt>
<rscale>  0 0.28890740E+03</rscale>
<asrwt>0</asrwt>
<pdfrwt beam="1">  1        2 0.50472191E-01 0.28890740E+03</pdfrwt>
<pdfrwt beam="2">  1       -2 0.97853972E-02 0.28890740E+03</pdfrwt>
<totfact> 0.67833587E+03</totfact>
</mgrwt>
</event>
<event>
 9    1  0.8093459E-001  0.2859972E+03  0.7818608E-02  0.1092458E+00
         -2   -1    0    0    0  501 -0.00000000000E+00  0.00000000000E+00  0.23867477099E+03  0.23867477099E+03  0.00000000000E+00 0. -1.
          2   -1    0    0  501    0  0.00000000000E+00 -0.00000000000E+00 -0.85675569331E+02  0.85675569331E+02  0.00000000000E+00 0. -1.
         35    2    1    2    0    0 -0.35527136788E-14 -0.44408920985E-15  0.15299920165E+03  0.32435034032E+03  0.28599718103E+03 0.  0.
         25    2    3    3    0    0  0.18300154581E+02 -0.14538778834E+01  0.17634667681E+01  0.12756931493E+03  0.12622919978E+03 0.  0.
         25    2    3    3    0    0 -0.18300154581E+02  0.14538778834E+01  0.15123573489E+03  0.19678102539E+03  0.12455326181E+03 0.  0.
          5    1    4    4  502    0  0.54152175555E+02 -0.19829003620E+01 -0.43490512334E+02  0.69641256983E+02  0.47000000000E+01 0.  1.
         -5    1    4    4    0  502 -0.35852020973E+02  0.52902247855E+00  0.45253979102E+02  0.57928057944E+02  0.47000000000E+01 0.  1.
          5    1    5    5  503    0  0.58672552486E+00 -0.20851101979E+02 -0.16151131939E+02  0.26796674485E+02  0.47000000000E+01 0.  1.
         -5    1    5    5    0  503 -0.18886880106E+02  0.22304979862E+02  0.16738686682E+03  0.16998435090E+03  0.47000000000E+01 0.  1.
<mgrwt>
<rscale>  0 0.28599718E+03</rscale>
<asrwt>0</asrwt>
<pdfrwt beam="1">  1        2 0.13180857E-01 0.28599718E+03</pdfrwt>
<pdfrwt beam="2">  1       -2 0.36719195E-01 0.28599718E+03</pdfrwt>
<totfact> 0.31875721E+03</totfact>
</mgrwt>
</event>
<event>
 9    1  0.8093459E-001  0.2772416E+03  0.7818608E-02  0.1097205E+00
          2   -1    0    0  501    0  0.00000000000E+00  0.00000000000E+00  0.13258124744E+04  0.13258124744E+04  0.00000000000E+00 0. -1.
         -2   -1    0    0    0  501 -0.00000000000E+00 -0.00000000000E+00 -0.14493550526E+02  0.14493550526E+02  0.00000000000E+00 0. -1.
         35    2    1    2    0    0  0.00000000000E+00  0.71054273576E-14  0.13113189238E+04  0.13403060249E+04  0.27724162808E+03 0.  0.
         25    2    3    3    0    0 -0.40316911878E+02 -0.41828532362E+02  0.58889848372E+03  0.60478839316E+03  0.12486991981E+03 0.  0.
         25    2    3    3    0    0  0.40316911878E+02  0.41828532362E+02  0.72242044012E+03  0.73551763174E+03  0.12537868551E+03 0.  0.
          5    1    4    4  502    0  0.42540022690E+01 -0.73127502431E+02  0.44189779430E+03  0.44795254074E+03  0.47000000000E+01 0.  1.
         -5    1    4    4    0  502 -0.44570914147E+02  0.31298970069E+02  0.14700068942E+03  0.15683585242E+03  0.47000000000E+01 0.  1.
          5    1    5    5  503    0 -0.22874830819E+02  0.24875330985E+01  0.25691688841E+02  0.34808024670E+02  0.47000000000E+01 0. -1.
         -5    1    5    5    0  503  0.63191742698E+02  0.39340999264E+02  0.69672875128E+03  0.70070960706E+03  0.47000000000E+01 0. -1.
<mgrwt>
<rscale>  0 0.27724163E+03</rscale>
<asrwt>0</asrwt>
<pdfrwt beam="1">  1        2 0.20397105E+00 0.27724163E+03</pdfrwt>
<pdfrwt beam="2">  1       -2 0.22297780E-02 0.27724163E+03</pdfrwt>
<totfact> 0.11172253E+04</totfact>
</mgrwt>
</event>
<event>
 9    1  0.8093459E-001  0.2747596E+03  0.7818608E-02  0.1098586E+00
         -4   -1    0    0    0  501 -0.00000000000E+00  0.00000000000E+00  0.12491883298E+03  0.12491883298E+03  0.00000000000E+00 0.  1.
          4   -1    0    0  501    0  0.00000000000E+00 -0.00000000000E+00 -0.15108373984E+03  0.15108373984E+03  0.00000000000E+00 0.  1.
         35    2    1    2    0    0  0.00000000000E+00 -0.71054273576E-14 -0.26164906864E+02  0.27600257282E+03  0.27475956372E+03 0.  0.
         25    2    3    3    0    0 -0.68796798230E+01 -0.57703269771E+02 -0.11769379703E+02  0.13764539408E+03  0.12422052519E+03 0.  0.
         25    2    3    3    0    0  0.68796798230E+01  0.57703269771E+02 -0.14395527161E+02  0.13835717874E+03  0.12473363768E+03 0.  0.
          5    1    4    4  502    0 -0.44158724291E+02 -0.13248159084E+02  0.38876269246E+02  0.60489345844E+02  0.47000000000E+01 0. -1.
         -5    1    4    4    0  502  0.37279044468E+02 -0.44455110687E+02 -0.50645648949E+02  0.77156048241E+02  0.47000000000E+01 0. -1.
          5    1    5    5  503    0 -0.57436101077E+02  0.41503993186E+02 -0.10033997554E+02  0.71723484747E+02  0.47000000000E+01 0.  1.
         -5    1    5    5    0  503  0.64315780900E+02  0.16199276585E+02 -0.43615296069E+01  0.66633693993E+02  0.47000000000E+01 0.  1.
<mgrwt>
<rscale>  0 0.27475956E+03</rscale>
<asrwt>0</asrwt>
<pdfrwt beam="1">  1        4 0.23243652E-01 0.27475956E+03</pdfrwt>
<pdfrwt beam="2">  1       -4 0.19218282E-01 0.27475956E+03</pdfrwt>
<totfact> 0.77956946E+02</totfact>
</mgrwt>
</event>
<event>
 9    1  0.8093459E-001  0.2745927E+03  0.7818608E-02  0.1098679E+00
         -1   -1    0    0    0  501 -0.00000000000E+00  0.00000000000E+00  0.16024582152E+02  0.16024582152E+02  0.00000000000E+00 0.  1.
          1   -1    0    0  501    0  0.00000000000E+00 -0.00000000000E+00 -0.11763360779E+04  0.11763360779E+04  0.00000000000E+00 0.  1.
         35    2    1    2    0    0 -0.71054273576E-14 -0.35527136788E-14 -0.11603114957E+04  0.11923606600E+04  0.27459274658E+03 0.  0.
         25    2    3    3    0    0  0.44692195182E+02 -0.24375546978E+02 -0.66945161559E+03  0.68289609965E+03  0.12486015261E+03 0.  0.
         25    2    3    3    0    0 -0.44692195182E+02  0.24375546978E+02 -0.49085988015E+03  0.50946456038E+03  0.12656680745E+03 0.  0.
          5    1    4    4  502    0  0.58875318943E+02 -0.61065774380E+02 -0.31562581603E+03  0.32685941585E+03  0.47000000000E+01 0.  1.
         -5    1    4    4    0  502 -0.14183123761E+02  0.36690227402E+02 -0.35382579955E+03  0.35603668381E+03  0.47000000000E+01 0.  1.
          5    1    5    5  503    0 -0.85476635423E+02  0.20863514345E+02 -0.40161364703E+03  0.41116560279E+03  0.47000000000E+01 0. -1.
         -5    1    5    5    0  503  0.40784440241E+02  0.35120326337E+01 -0.89246233116E+02  0.98298957595E+02  0.47000000000E+01 0. -1.
<mgrwt>
<rscale>  0 0.27459275E+03</rscale>
<asrwt>0</asrwt>
<pdfrwt beam="1">  1        1 0.18097480E+00 0.27459275E+03</pdfrwt>
<pdfrwt beam="2">  1       -1 0.24653201E-02 0.27459275E+03</pdfrwt>
<totfact> 0.59968022E+03</totfact>
</mgrwt>
</event>
<event>
 9    1  0.8093459E-001  0.2748112E+03  0.7818608E-02  0.1098557E+00
          1   -1    0    0  501    0  0.00000000000E+00  0.00000000000E+00  0.28847411839E+02  0.28847411839E+02  0.00000000000E+00 0. -1.
         -1   -1    0    0    0  501 -0.00000000000E+00 -0.00000000000E+00 -0.65448848203E+03  0.65448848203E+03  0.00000000000E+00 0. -1.
         35    2    1    2    0    0  0.00000000000E+00  0.35527136788E-14 -0.62564107019E+03  0.68333589387E+03  0.27481119908E+03 0.  0.
         25    2    3    3    0    0 -0.32104126240E+02 -0.30300972384E+02 -0.41066638323E+03  0.43118508945E+03  0.12379369612E+03 0.  0.
         25    2    3    3    0    0  0.32104126240E+02  0.30300972384E+02 -0.21497468696E+03  0.25215080442E+03  0.12416556804E+03 0.  0.
          5    1    4    4  502    0  0.20864164891E+02  0.98794049622E+01 -0.30725090253E+03  0.30815275940E+03  0.47000000000E+01 0. -1.
         -5    1    4    4    0  502 -0.52968291130E+02 -0.40180377346E+02 -0.10341548069E+03  0.12303233004E+03  0.47000000000E+01 0. -1.
          5    1    5    5  503    0  0.54678950735E+02 -0.28760765374E+02 -0.67509353378E+02  0.91632811110E+02  0.47000000000E+01 0.  1.
         -5    1    5    5    0  503 -0.22574824496E+02  0.59061737758E+02 -0.14746533358E+03  0.16051799331E+03  0.47000000000E+01 0.  1.
<mgrwt>
<rscale>  0 0.27481120E+03</rscale>
<asrwt>0</asrwt>
<pdfrwt beam="1">  1        1 0.44380631E-02 0.27481120E+03</pdfrwt>
<pdfrwt beam="2">  1       -1 0.10069054E+00 0.27481120E+03</pdfrwt>
<totfact> 0.19491367E+03</totfact>
</mgrwt>
</event>
<event>
 9    1  0.8093459E-001  0.2763950E+03  0.7818608E-02  0.1097674E+00
         -1   -1    0    0    0  501 -0.00000000000E+00  0.00000000000E+00  0.19361949773E+02  0.19361949773E+02  0.00000000000E+00 0.  1.
          1   -1    0    0  501    0  0.00000000000E+00 -0.00000000000E+00 -0.98639608784E+03  0.98639608784E+03  0.00000000000E+00 0.  1.
         35    2    1    2    0    0  0.00000000000E+00  0.00000000000E+00 -0.96703413807E+03  0.10057580376E+04  0.27639501811E+03 0.  0.
         25    2    3    3    0    0  0.53343837471E+02 -0.21954645794E+02 -0.44188955414E+03  0.46303444146E+03  0.12572567140E+03 0.  0.
         25    2    3    3    0    0 -0.53343837471E+02  0.21954645794E+02 -0.52514458393E+03  0.54272359616E+03  0.12427588797E+03 0.  0.
          5    1    4    4  502    0 -0.23933007445E+02 -0.49978180338E+02 -0.16154908089E+03  0.17085316178E+03  0.47000000000E+01 0.  1.
         -5    1    4    4    0  502  0.77276844916E+02  0.28023534544E+02 -0.28034047325E+03  0.29218127967E+03  0.47000000000E+01 0.  1.
          5    1    5    5  503    0 -0.45919920151E+02  0.56024443199E+02 -0.15777892009E+03  0.17367686930E+03  0.47000000000E+01 0.  1.
         -5    1    5    5    0  503 -0.74239173201E+01 -0.34069797405E+02 -0.36736566384E+03  0.36904672687E+03  0.47000000000E+01 0.  1.
<mgrwt>
<rscale>  0 0.27639502E+03</rscale>
<asrwt>0</asrwt>
<pdfrwt beam="1">  1        1 0.15175325E+00 0.27639502E+03</pdfrwt>
<pdfrwt beam="2">  1       -1 0.29787613E-02 0.27639502E+03</pdfrwt>
<totfact> 0.62378584E+03</totfact>
</mgrwt>
</event>
<event>
 9    1  0.8093459E-001  0.2736513E+03  0.7818608E-02  0.1099208E+00
         -4   -1    0    0    0  501 -0.00000000000E+00  0.00000000000E+00  0.12133198027E+04  0.12133198027E+04  0.00000000000E+00 0.  1.
          4   -1    0    0  501    0  0.00000000000E+00 -0.00000000000E+00 -0.15429775255E+02  0.15429775255E+02  0.00000000000E+00 0.  1.
         35    2    1    2    0    0 -0.35527136788E-14  0.53290705182E-14  0.11978900275E+04  0.12287495780E+04  0.27365125155E+03 0.  0.
         25    2    3    3    0    0 -0.18954441293E+02  0.12444896788E+02  0.39463909739E+03  0.41522930744E+03  0.12712676456E+03 0.  0.
         25    2    3    3    0    0  0.18954441293E+02 -0.12444896788E+02  0.80325093008E+03  0.81352027055E+03  0.12684253074E+03 0.  0.
          5    1    4    4  502    0 -0.12915084523E+02  0.63876598544E+02  0.12961301198E+03  0.14515041207E+03  0.47000000000E+01 0. -1.
         -5    1    4    4    0  502 -0.60393567698E+01 -0.51431701756E+02  0.26502608541E+03  0.27007889537E+03  0.47000000000E+01 0. -1.
          5    1    5    5  503    0 -0.51776192129E+02  0.47462824810E+01  0.43445024958E+03  0.43757560562E+03  0.47000000000E+01 0. -1.
         -5    1    5    5    0  503  0.70730633422E+02 -0.17191179269E+02  0.36880068050E+03  0.37594466493E+03  0.47000000000E+01 0. -1.
<mgrwt>
<rscale>  0 0.27365125E+03</rscale>
<asrwt>0</asrwt>
<pdfrwt beam="1">  1        4 0.23738125E-02 0.27365125E+03</pdfrwt>
<pdfrwt beam="2">  1       -4 0.18666451E+00 0.27365125E+03</pdfrwt>
<totfact> 0.25540164E+02</totfact>
</mgrwt>
</event>
<event>
 8    1  0.8093459E-001  0.3951842E+03  0.7818608E-02  0.1045460E+00
          2   -1    0    0  501    0  0.00000000000E+00  0.00000000000E+00  0.32001876635E+03  0.32001876635E+03  0.00000000000E+00 0.  1.
         -2   -1    0    0    0  501 -0.00000000000E+00 -0.00000000000E+00 -0.12200106086E+03  0.12200106086E+03  0.00000000000E+00 0.  1.
         25    2    1    2    0    0 -0.91162738147E+02  0.79051051588E+02 -0.57376784439E+01  0.17445192845E+03  0.12586040205E+03 0.  0.
         25    2    1    2    0    0  0.91162738147E+02 -0.79051051588E+02  0.20375538393E+03  0.26756789875E+03  0.12456568699E+03 0.  0.
          5    1    3    3  502    0 -0.52054115566E+02  0.28113096086E+02 -0.64236850633E+02  0.87455360603E+02  0.47000000000E+01 0. -1.
         -5    1    3    3    0  502 -0.39108622581E+02  0.50937955502E+02  0.58499172189E+02  0.86996567850E+02  0.47000000000E+01 0. -1.
          5    1    4    4  503    0  0.11370499232E+03 -0.77759788986E+02  0.20185884219E+03  0.24442686479E+03  0.47000000000E+01 0.  1.
         -5    1    4    4    0  503 -0.22542254172E+02 -0.12912626019E+01  0.18965417462E+01  0.23141033962E+02  0.47000000000E+01 0.  1.
<mgrwt>
<rscale>  0 0.39518415E+03</rscale>
<asrwt>0</asrwt>
<pdfrwt beam="1">  1        2 0.49233656E-01 0.39518415E+03</pdfrwt>
<pdfrwt beam="2">  1       -2 0.18769394E-01 0.39518415E+03</pdfrwt>
<totfact> 0.24039371E+03</totfact>
</mgrwt>
</event>
<event>
 9    1  0.8093459E-001  0.2691595E+03  0.7818608E-02  0.1101762E+00
          1   -1    0    0  501    0  0.00000000000E+00  0.00000000000E+00  0.25219529554E+03  0.25219529554E+03  0.00000000000E+00 0.  1.
         -1   -1    0    0    0  501 -0.00000000000E+00 -0.00000000000E+00 -0.71816178627E+02  0.71816178627E+02  0.00000000000E+00 0.  1.
         35    2    1    2    0    0  0.00000000000E+00  0.00000000000E+00  0.18037911691E+03  0.32401147417E+03  0.26915945009E+03 0.  0.
         25    2    3    3    0    0  0.24367575145E+02 -0.41295327078E+01  0.39645964824E+02  0.13378410085E+03  0.12536168217E+03 0.  0.
         25    2    3    3    0    0 -0.24367575145E+02  0.41295327078E+01  0.14073315209E+03  0.19022737331E+03  0.12557787107E+03 0.  0.
          5    1    4    4  502    0 -0.27165515860E+02 -0.75494202206E+01  0.68651046403E+02  0.74364071767E+02  0.47000000000E+01 0. -1.
         -5    1    4    4    0  502  0.51533091005E+02  0.34198875127E+01 -0.29005081580E+02  0.59420029086E+02  0.47000000000E+01 0. -1.
          5    1    5    5  503    0  0.36162543014E+02 -0.19545874757E+02  0.11126546857E+03  0.11870916238E+03  0.47000000000E+01 0.  1.
         -5    1    5    5    0  503 -0.60530118159E+02  0.23675407465E+02  0.29467683521E+02  0.71518210933E+02  0.47000000000E+01 0.  1.
<mgrwt>
<rscale>  0 0.26915945E+03</rscale>
<asrwt>0</asrwt>
<pdfrwt beam="1">  1        1 0.38799276E-01 0.26915945E+03</pdfrwt>
<pdfrwt beam="2">  1       -1 0.11048643E-01 0.26915945E+03</pdfrwt>
<totfact> 0.56504644E+03</totfact>
</mgrwt>
</event>
<event>
 9    1  0.8093459E-001  0.2722754E+03  0.7818608E-02  0.1099984E+00
         -2   -1    0    0    0  501 -0.00000000000E+00  0.00000000000E+00  0.59103093458E+01  0.59103093458E+01  0.00000000000E+00 0.  1.
          2   -1    0    0  501    0  0.00000000000E+00 -0.00000000000E+00 -0.31357865171E+04  0.31357865171E+04  0.00000000000E+00 0.  1.
         35    2    1    2    0    0  0.71054273576E-14 -0.71054273576E-14 -0.31298762078E+04  0.31416968264E+04  0.27227536325E+03 0.  0.
         25    2    3    3    0    0 -0.33896690829E+02  0.37734297636E+02 -0.13687261122E+04  0.13754027011E+04  0.12549325549E+03 0.  0.
         25    2    3    3    0    0  0.33896690829E+02 -0.37734297636E+02 -0.17611500955E+04  0.17662941253E+04  0.12478948356E+03 0.  0.
          5    1    4    4  502    0  0.27335638399E+02 -0.22295639154E+02 -0.17444265034E+03  0.17803556080E+03  0.47000000000E+01 0.  1.
         -5    1    4    4    0  502 -0.61232329228E+02  0.60029936790E+02 -0.11942834619E+04  0.11973671403E+04  0.47000000000E+01 0.  1.
          5    1    5    5  503    0  0.64647364555E+02  0.18625372317E+02 -0.71831956555E+03  0.72147853363E+03  0.47000000000E+01 0.  1.
         -5    1    5    5    0  503 -0.30750673726E+02 -0.56359669953E+02 -0.10428305300E+04  0.10448155917E+04  0.47000000000E+01 0.  1.
<mgrwt>
<rscale>  0 0.27227536E+03</rscale>
<asrwt>0</asrwt>
<pdfrwt beam="1">  1        2 0.48242903E+00 0.27227536E+03</pdfrwt>
<pdfrwt beam="2">  1       -2 0.90927772E-03 0.27227536E+03</pdfrwt>
<totfact> 0.42278367E+03</totfact>
</mgrwt>
</event>
<event>
 9    1  0.8093459E-001  0.2796388E+03  0.7818608E-02  0.1095886E+00
         -2   -1    0    0    0  501 -0.00000000000E+00  0.00000000000E+00  0.42046354219E+02  0.42046354219E+02  0.00000000000E+00 0. -1.
          2   -1    0    0  501    0  0.00000000000E+00 -0.00000000000E+00 -0.46495016856E+03  0.46495016856E+03  0.00000000000E+00 0. -1.
         35    2    1    2    0    0  0.00000000000E+00  0.35527136788E-14 -0.42290381434E+03  0.50699652278E+03  0.27963876328E+03 0.  0.
         25    2    3    3    0    0 -0.23132275896E+02 -0.66483749011E+01 -0.10354422510E+03  0.16341387031E+03  0.12411036773E+03 0.  0.
         25    2    3    3    0    0  0.23132275896E+02  0.66483749011E+01 -0.31935958924E+03  0.34358265248E+03  0.12441538798E+03 0.  0.
          5    1    4    4  502    0  0.35950858984E+02 -0.31248878847E+02 -0.83168516029E+01  0.48582061622E+02  0.47000000000E+01 0. -1.
         -5    1    4    4    0  502 -0.59083134880E+02  0.24600503946E+02 -0.95227373501E+02  0.11483180868E+03  0.47000000000E+01 0. -1.
          5    1    5    5  503    0 -0.33174761823E+02 -0.40057741643E+02 -0.15653107902E+03  0.16501289704E+03  0.47000000000E+01 0. -1.
         -5    1    5    5    0  503  0.56307037719E+02  0.46706116544E+02 -0.16282851021E+03  0.17856975544E+03  0.47000000000E+01 0. -1.
<mgrwt>
<rscale>  0 0.27963876E+03</rscale>
<asrwt>0</asrwt>
<pdfrwt beam="1">  1        2 0.71530790E-01 0.27963876E+03</pdfrwt>
<pdfrwt beam="2">  1       -2 0.64686703E-02 0.27963876E+03</pdfrwt>
<totfact> 0.88550606E+03</totfact>
</mgrwt>
</event>
<event>
 9    1  0.8093459E-001  0.2734028E+03  0.7818608E-02  0.1099348E+00
          2   -1    0    0  501    0  0.00000000000E+00  0.00000000000E+00  0.27116343200E+03  0.27116343200E+03  0.00000000000E+00 0.  1.
         -2   -1    0    0    0  501 -0.00000000000E+00 -0.00000000000E+00 -0.68915152886E+02  0.68915152886E+02  0.00000000000E+00 0.  1.
         35    2    1    2    0    0  0.35527136788E-14  0.00000000000E+00  0.20224827911E+03  0.34007858488E+03  0.27340277521E+03 0.  0.
         25    2    3    3    0    0 -0.18706684996E+02 -0.37446742070E+02  0.13548632917E+03  0.19196301131E+03  0.12938722411E+03 0.  0.
         25    2    3    3    0    0  0.18706684996E+02  0.37446742070E+02  0.66761949941E+02  0.14811557357E+03  0.12541477832E+03 0.  0.
          5    1    4    4  502    0  0.54889020091E+02 -0.94610805005E+01  0.69021876646E+02  0.88816811621E+02  0.47000000000E+01 0. -1.
         -5    1    4    4    0  502 -0.73595705087E+02 -0.27985661569E+02  0.66464452524E+02  0.10314619969E+03  0.47000000000E+01 0. -1.
          5    1    5    5  503    0  0.48961684434E+02 -0.27355493740E+01 -0.15444784131E+02  0.51627135596E+02  0.47000000000E+01 0. -1.
         -5    1    5    5    0  503 -0.30254999438E+02  0.40182291444E+02  0.82206734072E+02  0.96488437978E+02  0.47000000000E+01 0. -1.
<mgrwt>
<rscale>  0 0.27340278E+03</rscale>
<asrwt>0</asrwt>
<pdfrwt beam="1">  1        2 0.41717450E-01 0.27340278E+03</pdfrwt>
<pdfrwt beam="2">  1       -2 0.10602331E-01 0.27340278E+03</pdfrwt>
<totfact> 0.73147805E+03</totfact>
</mgrwt>
</event>
<event>
 9    1  0.8093459E-001  0.2729955E+03  0.7818608E-02  0.1099577E+00
          1   -1    0    0  501    0  0.00000000000E+00  0.00000000000E+00  0.20300749549E+04  0.20300749549E+04  0.00000000000E+00 0.  1.
         -1   -1    0    0    0  501 -0.00000000000E+00 -0.00000000000E+00 -0.91778093566E+01  0.91778093566E+01  0.00000000000E+00 0.  1.
         35    2    1    2    0    0  0.00000000000E+00  0.00000000000E+00  0.20208971456E+04  0.20392527643E+04  0.27299553781E+03 0.  0.
         25    2    3    3    0    0 -0.15157281242E+02 -0.25238875748E+02  0.66457420888E+03  0.67683266255E+03  0.12480717112E+03 0.  0.
         25    2    3    3    0    0  0.15157281242E+02  0.25238875748E+02  0.13563229367E+04  0.13624201017E+04  0.12533906410E+03 0.  0.
          5    1    4    4  502    0 -0.55904530435E+02 -0.40063736256E+02  0.54884955337E+03  0.55316212969E+03  0.47000000000E+01 0. -1.
         -5    1    4    4    0  502  0.40747249193E+02  0.14824860507E+02  0.11572465551E+03  0.12367053286E+03  0.47000000000E+01 0. -1.
          5    1    5    5  503    0  0.52919230335E+02  0.13986966836E+01  0.11518077225E+04  0.11530331829E+04  0.47000000000E+01 0.  1.
         -5    1    5    5    0  503 -0.37761949093E+02  0.23840179065E+02  0.20451521425E+03  0.20938691887E+03  0.47000000000E+01 0.  1.
<mgrwt>
<rscale>  0 0.27299554E+03</rscale>
<asrwt>0</asrwt>
<pdfrwt beam="1">  1        1 0.31231887E+00 0.27299554E+03</pdfrwt>
<pdfrwt beam="2">  1       -1 0.14119723E-02 0.27299554E+03</pdfrwt>
<totfact> 0.36763227E+03</totfact>
</mgrwt>
</event>
<event>
 9    1  0.8093459E-001  0.2731169E+03  0.7818608E-02  0.1099509E+00
         -1   -1    0    0    0  501 -0.00000000000E+00  0.00000000000E+00  0.10632875876E+04  0.10632875876E+04  0.00000000000E+00 0. -1.
          1   -1    0    0  501    0  0.00000000000E+00 -0.00000000000E+00 -0.17538256843E+02  0.17538256843E+02  0.00000000000E+00 0. -1.
         35    2    1    2    0    0  0.00000000000E+00  0.00000000000E+00  0.10457493308E+04  0.10808258445E+04  0.27311690398E+03 0.  0.
         25    2    3    3    0    0 -0.28528817850E+02  0.20576286953E+02  0.69195737438E+03  0.70411705818E+03  0.12545336438E+03 0.  0.
         25    2    3    3    0    0  0.28528817850E+02 -0.20576286953E+02  0.35379195639E+03  0.37670878627E+03  0.12451298814E+03 0.  0.
          5    1    4    4  502    0 -0.60072330700E+02  0.53161921133E+02  0.34835292779E+03  0.35750066724E+03  0.47000000000E+01 0. -1.
         -5    1    4    4    0  502  0.31543512850E+02 -0.32585634180E+02  0.34360444659E+03  0.34661639094E+03  0.47000000000E+01 0. -1.
          5    1    5    5  503    0  0.22555007354E+02 -0.43600135666E+02  0.34839706420E+03  0.35186972665E+03  0.47000000000E+01 0. -1.
         -5    1    5    5    0  503  0.59738104961E+01  0.23023848714E+02  0.53948921924E+01  0.24839059628E+02  0.47000000000E+01 0. -1.
<mgrwt>
<rscale>  0 0.27311690E+03</rscale>
<asrwt>0</asrwt>
<pdfrwt beam="1">  1        1 0.26981942E-02 0.27311690E+03</pdfrwt>
<pdfrwt beam="2">  1       -1 0.16358266E+00 0.27311690E+03</pdfrwt>
<totfact> 0.11851086E+03</totfact>
</mgrwt>
</event>
<event>
 9    1  0.8093459E-001  0.2796223E+03  0.7818608E-02  0.1095895E+00
          1   -1    0    0  501    0  0.00000000000E+00  0.00000000000E+00  0.57529359516E+02  0.57529359516E+02  0.00000000000E+00 0. -1.
         -1   -1    0    0    0  501 -0.00000000000E+00 -0.00000000000E+00 -0.33977715131E+03  0.33977715131E+03  0.00000000000E+00 0. -1.
         35    2    1    2    0    0 -0.28421709430E-13 -0.35527136788E-14 -0.28224779179E+03  0.39730651083E+03  0.27962233025E+03 0.  0.
         25    2    3    3    0    0 -0.64231462977E+02 -0.21634885249E+02 -0.16714014595E+03  0.21386048651E+03  0.11492053867E+03 0.  0.
         25    2    3    3    0    0  0.64231462977E+02  0.21634885249E+02 -0.11510764585E+03  0.18344602431E+03  0.12573354607E+03 0.  0.
          5    1    4    4  502    0  0.12910154321E+02 -0.30342212764E+02 -0.11622380035E+03  0.12090237272E+03  0.47000000000E+01 0.  1.
         -5    1    4    4    0  502 -0.77141617299E+02  0.87073275148E+01 -0.50916345595E+02  0.92958113797E+02  0.47000000000E+01 0.  1.
          5    1    5    5  503    0 -0.22685615512E+02  0.54871643457E+01 -0.87546092983E+02  0.90725710360E+02  0.47000000000E+01 0.  1.
         -5    1    5    5    0  503  0.86917078490E+02  0.16147720904E+02 -0.27561552864E+02  0.92720313955E+02  0.47000000000E+01 0.  1.
<mgrwt>
<rscale>  0 0.27962233E+03</rscale>
<asrwt>0</asrwt>
<pdfrwt beam="1">  1        1 0.88506706E-02 0.27962233E+03</pdfrwt>
<pdfrwt beam="2">  1       -1 0.52273408E-01 0.27962233E+03</pdfrwt>
<totfact> 0.28550817E+03</totfact>
</mgrwt>
</event>
<event>
 9    1  0.8093459E-001  0.2660352E+03  0.7818608E-02  0.1103570E+00
         -3   -1    0    0    0  501 -0.00000000000E+00  0.00000000000E+00  0.18253672597E+04  0.18253672597E+04  0.00000000000E+00 0.  1.
          3   -1    0    0  501    0  0.00000000000E+00 -0.00000000000E+00 -0.96932200312E+01  0.96932200312E+01  0.00000000000E+00 0.  1.
         35    2    1    2    0    0  0.00000000000E+00 -0.35527136788E-14  0.18156740397E+04  0.18350604798E+04  0.26603523440E+03 0.  0.
         25    2    3    3    0    0  0.39586245146E+01  0.29529897138E+02  0.98987779757E+03  0.99931021315E+03  0.13369802714E+03 0.  0.
         25    2    3    3    0    0 -0.39586245146E+01 -0.29529897138E+02  0.82579624212E+03  0.83575026660E+03  0.12510551181E+03 0.  0.
          5    1    4    4  502    0  0.63734276961E+02 -0.53714329058E+01  0.36484623753E+03  0.37043997813E+03  0.47000000000E+01 0. -1.
         -5    1    4    4    0  502 -0.59775652447E+02  0.34901330044E+02  0.62503156003E+03  0.62887023502E+03  0.47000000000E+01 0. -1.
          5    1    5    5  503    0 -0.49970661880E+02 -0.74296107926E+01  0.66608057490E+03  0.66801024575E+03  0.47000000000E+01 0.  1.
         -5    1    5    5    0  503  0.46012037365E+02 -0.22100286345E+02  0.15971566722E+03  0.16774002085E+03  0.47000000000E+01 0.  1.
<mgrwt>
<rscale>  0 0.26603523E+03</rscale>
<asrwt>0</asrwt>
<pdfrwt beam="1">  1        3 0.14912661E-02 0.26603523E+03</pdfrwt>
<pdfrwt beam="2">  1       -3 0.28082546E+00 0.26603523E+03</pdfrwt>
<totfact> 0.20958414E+02</totfact>
</mgrwt>
</event>
<event>
 9    1  0.8093459E-001  0.2746429E+03  0.7818608E-02  0.1098651E+00
         -1   -1    0    0    0  501 -0.00000000000E+00  0.00000000000E+00  0.78078258118E+01  0.78078258118E+01  0.00000000000E+00 0.  1.
          1   -1    0    0  501    0  0.00000000000E+00 -0.00000000000E+00 -0.24151643848E+04  0.24151643848E+04  0.00000000000E+00 0.  1.
         35    2    1    2    0    0 -0.14210854715E-13  0.71054273576E-14 -0.24073565590E+04  0.24229722106E+04  0.27464291597E+03 0.  0.
         25    2    3    3    0    0 -0.55959792183E+02  0.18957922513E+02 -0.12401249023E+04  0.12477141501E+04  0.12405613959E+03 0.  0.
         25    2    3    3    0    0  0.55959792183E+02 -0.18957922513E+02 -0.11672316566E+04  0.11752580605E+04  0.12373708970E+03 0.  0.
          5    1    4    4  502    0 -0.71493610747E+02  0.58957141114E+02 -0.75718436082E+03  0.76284829890E+03  0.47000000000E+01 0.  1.
         -5    1    4    4    0  502  0.15533818564E+02 -0.39999218601E+02 -0.48294054150E+03  0.48486585117E+03  0.47000000000E+01 0.  1.
          5    1    5    5  503    0  0.19590224385E+02 -0.70603938757E+02 -0.58420232792E+03  0.58879804942E+03  0.47000000000E+01 0.  1.
         -5    1    5    5    0  503  0.36369567798E+02  0.51646016244E+02 -0.58302932873E+03  0.58646001109E+03  0.47000000000E+01 0.  1.
<mgrwt>
<rscale>  0 0.27464292E+03</rscale>
<asrwt>0</asrwt>
<pdfrwt beam="1">  1        1 0.37156370E+00 0.27464292E+03</pdfrwt>
<pdfrwt beam="2">  1       -1 0.12012042E-02 0.27464292E+03</pdfrwt>
<totfact> 0.26027694E+03</totfact>
</mgrwt>
</event>
<event>
 9    1  0.8093459E-001  0.2740670E+03  0.7818608E-02  0.1098974E+00
          1   -1    0    0  501    0  0.00000000000E+00  0.00000000000E+00  0.13193691973E+03  0.13193691973E+03  0.00000000000E+00 0.  1.
         -1   -1    0    0    0  501 -0.00000000000E+00 -0.00000000000E+00 -0.14232696475E+03  0.14232696475E+03  0.00000000000E+00 0.  1.
         35    2    1    2    0    0  0.00000000000E+00  0.00000000000E+00 -0.10390045026E+02  0.27426388448E+03  0.27406700877E+03 0.  0.
         25    2    3    3    0    0 -0.39570114071E+02  0.15970018670E+02 -0.37143782122E+02  0.13916814947E+03  0.12715061090E+03 0.  0.
         25    2    3    3    0    0  0.39570114071E+02 -0.15970018670E+02  0.26753737096E+02  0.13509573501E+03  0.12535653052E+03 0.  0.
          5    1    4    4  502    0 -0.76171145478E+02  0.14712834471E+02 -0.57801928462E+02  0.96858989441E+02  0.47000000000E+01 0. -1.
         -5    1    4    4    0  502  0.36601031408E+02  0.12571841982E+01  0.20658146340E+02  0.42309160030E+02  0.47000000000E+01 0. -1.
          5    1    5    5  503    0  0.65024878696E+02 -0.24615132647E+02 -0.27061197853E+02  0.74756525026E+02  0.47000000000E+01 0. -1.
         -5    1    5    5    0  503 -0.25454764625E+02  0.86451139773E+01  0.53814934949E+02  0.60339209983E+02  0.47000000000E+01 0. -1.
<mgrwt>
<rscale>  0 0.27406701E+03</rscale>
<asrwt>0</asrwt>
<pdfrwt beam="1">  1        1 0.20297988E-01 0.27406701E+03</pdfrwt>
<pdfrwt beam="2">  1       -1 0.21896456E-01 0.27406701E+03</pdfrwt>
<totfact> 0.43225208E+03</totfact>
</mgrwt>
</event>
<event>
 9    1  0.8093459E-001  0.2746958E+03  0.7818608E-02  0.1098622E+00
         -2   -1    0    0    0  501 -0.00000000000E+00  0.00000000000E+00  0.67921135416E+02  0.67921135416E+02  0.00000000000E+00 0. -1.
          2   -1    0    0  501    0  0.00000000000E+00 -0.00000000000E+00 -0.27774050753E+03  0.27774050753E+03  0.00000000000E+00 0. -1.
         35    2    1    2    0    0  0.00000000000E+00  0.00000000000E+00 -0.20981937212E+03  0.34566164295E+03  0.27469583632E+03 0.  0.
         25    2    3    3    0    0  0.25316719882E+01  0.26363084814E+02 -0.15534317818E+03  0.20679770696E+03  0.13391178810E+03 0.  0.
         25    2    3    3    0    0 -0.25316719882E+01 -0.26363084814E+02 -0.54476193937E+02  0.13886393599E+03  0.12495645405E+03 0.  0.
          5    1    4    4  502    0  0.64343089557E+02  0.26143491599E+01 -0.47486685018E+02  0.80149505609E+02  0.47000000000E+01 0. -1.
         -5    1    4    4    0  502 -0.61811417569E+02  0.23748735654E+02 -0.10785649316E+03  0.12664820135E+03  0.47000000000E+01 0. -1.
          5    1    5    5  503    0  0.57433311912E+02 -0.30286559348E+02 -0.14983033925E+02  0.66801514204E+02  0.47000000000E+01 0. -1.
         -5    1    5    5    0  503 -0.59964983900E+02  0.39234745342E+01 -0.39493160012E+02  0.72062421791E+02  0.47000000000E+01 0. -1.
<mgrwt>
<rscale>  0 0.27469584E+03</rscale>
<asrwt>0</asrwt>
<pdfrwt beam="1">  1        2 0.42729309E-01 0.27469584E+03</pdfrwt>
<pdfrwt beam="2">  1       -2 0.10449405E-01 0.27469584E+03</pdfrwt>
<totfact> 0.72971161E+03</totfact>
</mgrwt>
</event>
<event>
 9    1  0.8093459E-001  0.2765155E+03  0.7818608E-02  0.1097607E+00
          1   -1    0    0  501    0  0.00000000000E+00  0.00000000000E+00  0.41290052512E+04  0.41290052512E+04  0.00000000000E+00 0. -1.
         -1   -1    0    0    0  501 -0.00000000000E+00 -0.00000000000E+00 -0.46294930965E+01  0.46294930965E+01  0.00000000000E+00 0. -1.
         35    2    1    2    0    0  0.00000000000E+00  0.35527136788E-14  0.41243757581E+04  0.41336347443E+04  0.27651547013E+03 0.  0.
         25    2    3    3    0    0  0.49079406951E+02 -0.29867832790E+02  0.19887299752E+04  0.19934813357E+04  0.12498018216E+03 0.  0.
         25    2    3    3    0    0 -0.49079406951E+02  0.29867832790E+02  0.21356457829E+04  0.21401534086E+04  0.12638364862E+03 0.  0.
          5    1    4    4  502    0 -0.80406934176E+00 -0.64584791886E+02  0.14238398929E+04  0.14253118860E+04  0.47000000000E+01 0.  1.
         -5    1    4    4    0  502  0.49883476293E+02  0.34716959096E+02  0.56489008228E+03  0.56816944965E+03  0.47000000000E+01 0.  1.
          5    1    5    5  503    0  0.40716712817E+02  0.10582947651E+02  0.44520672894E+03  0.44721468109E+03  0.47000000000E+01 0.  1.
         -5    1    5    5    0  503 -0.89796119768E+02  0.19284885139E+02  0.16904390539E+04  0.16929387275E+04  0.47000000000E+01 0.  1.
<mgrwt>
<rscale>  0 0.27651547E+03</rscale>
<asrwt>0</asrwt>
<pdfrwt beam="1">  1        1 0.63522863E+00 0.27651547E+03</pdfrwt>
<pdfrwt beam="2">  1       -1 0.71223301E-03 0.27651547E+03</pdfrwt>
<totfact> 0.29849793E+02</totfact>
</mgrwt>
</event>
<event>
 9    1  0.8093459E-001  0.2760748E+03  0.7818608E-02  0.1097852E+00
         -2   -1    0    0    0  501 -0.00000000000E+00  0.00000000000E+00  0.44718750995E+02  0.44718750995E+02  0.00000000000E+00 0.  1.
          2   -1    0    0  501    0  0.00000000000E+00 -0.00000000000E+00 -0.42609236217E+03  0.42609236217E+03  0.00000000000E+00 0.  1.
         35    2    1    2    0    0  0.00000000000E+00  0.00000000000E+00 -0.38137361118E+03  0.47081111317E+03  0.27607475977E+03 0.  0.
         25    2    3    3    0    0 -0.19381670434E+02 -0.36777666281E+02 -0.11975110801E+03  0.17812953293E+03  0.12514614155E+03 0.  0.
         25    2    3    3    0    0  0.19381670434E+02  0.36777666281E+02 -0.26162250316E+03  0.29268158024E+03  0.12445050167E+03 0.  0.
          5    1    4    4  502    0 -0.83347017860E+00  0.28068129304E+02  0.11327343342E+02  0.30641691571E+02  0.47000000000E+01 0. -1.
         -5    1    4    4    0  502 -0.18548200256E+02 -0.64845795584E+02 -0.13107845136E+03  0.14748784136E+03  0.47000000000E+01 0. -1.
          5    1    5    5  503    0  0.85520303891E+01  0.33205763419E+02 -0.40864955718E+01  0.34850385853E+02  0.47000000000E+01 0. -1.
         -5    1    5    5    0  503  0.10829640045E+02  0.35719028615E+01 -0.25753600759E+03  0.25783119439E+03  0.47000000000E+01 0. -1.
<mgrwt>
<rscale>  0 0.27607476E+03</rscale>
<asrwt>0</asrwt>
<pdfrwt beam="1">  1        2 0.65552675E-01 0.27607476E+03</pdfrwt>
<pdfrwt beam="2">  1       -2 0.68798074E-02 0.27607476E+03</pdfrwt>
<totfact> 0.88582200E+03</totfact>
</mgrwt>
</event>
<event>
 9    1  0.8093459E-001  0.2800980E+03  0.7818608E-02  0.1095635E+00
          2   -1    0    0  501    0  0.00000000000E+00  0.00000000000E+00  0.19354061811E+04  0.19354061811E+04  0.00000000000E+00 0.  1.
         -2   -1    0    0    0  501 -0.00000000000E+00 -0.00000000000E+00 -0.10134161343E+02  0.10134161343E+02  0.00000000000E+00 0.  1.
         35    2    1    2    0    0  0.00000000000E+00  0.28421709430E-13  0.19252720197E+04  0.19455403424E+04  0.28009797216E+03 0.  0.
         25    2    3    3    0    0  0.23970159505E+02 -0.47489505187E+02  0.12101939976E+04  0.12176831994E+04  0.12390738736E+03 0.  0.
         25    2    3    3    0    0 -0.23970159505E+02  0.47489505187E+02  0.71507802210E+03  0.72785714297E+03  0.12493846983E+03 0.  0.
          5    1    4    4  502    0 -0.17763099426E+02  0.35883018302E+02  0.44297411011E+03  0.44480475597E+03  0.47000000000E+01 0. -1.
         -5    1    4    4    0  502  0.41733258931E+02 -0.83372523489E+02  0.76721988750E+03  0.77287844345E+03  0.47000000000E+01 0. -1.
          5    1    5    5  503    0 -0.53016134982E+02  0.73073905003E+02  0.58870247740E+03  0.59560322619E+03  0.47000000000E+01 0.  1.
         -5    1    5    5    0  503  0.29045975477E+02 -0.25584399816E+02  0.12637554470E+03  0.13225391678E+03  0.47000000000E+01 0.  1.
<mgrwt>
<rscale>  0 0.28009797E+03</rscale>
<asrwt>0</asrwt>
<pdfrwt beam="1">  1        2 0.29775450E+00 0.28009797E+03</pdfrwt>
<pdfrwt beam="2">  1       -2 0.15591033E-02 0.28009797E+03</pdfrwt>
<totfact> 0.89588769E+03</totfact>
</mgrwt>
</event>
<event>
 9    1  0.8093459E-001  0.2789676E+03  0.7818608E-02  0.1096254E+00
          2   -1    0    0  501    0  0.00000000000E+00  0.00000000000E+00  0.17293160626E+04  0.17293160626E+04  0.00000000000E+00 0. -1.
         -2   -1    0    0    0  501 -0.00000000000E+00 -0.00000000000E+00 -0.11250534468E+02  0.11250534468E+02  0.00000000000E+00 0. -1.
         35    2    1    2    0    0  0.71054273576E-14  0.71054273576E-14  0.17180655281E+04  0.17405665971E+04  0.27896759646E+03 0.  0.
         25    2    3    3    0    0  0.34925568012E+02 -0.18575489506E+02  0.11561694923E+04  0.11636396448E+04  0.12555669600E+03 0.  0.
         25    2    3    3    0    0 -0.34925568012E+02  0.18575489506E+02  0.56189603587E+03  0.57692695231E+03  0.12471050101E+03 0.  0.
          5    1    4    4  502    0  0.36116547607E+02 -0.68602060261E+02  0.82919526129E+03  0.83282502306E+03  0.47000000000E+01 0.  1.
         -5    1    4    4    0  502 -0.11909795957E+01  0.50026570755E+02  0.32697423096E+03  0.33081462170E+03  0.47000000000E+01 0.  1.
          5    1    5    5  503    0 -0.80711740545E+02  0.14255574539E+02  0.41056104535E+03  0.41868851003E+03  0.47000000000E+01 0.  1.
         -5    1    5    5    0  503  0.45786172534E+02  0.43199149675E+01  0.15133499052E+03  0.15823844228E+03  0.47000000000E+01 0.  1.
<mgrwt>
<rscale>  0 0.27896760E+03</rscale>
<asrwt>0</asrwt>
<pdfrwt beam="1">  1        2 0.26604841E+00 0.27896760E+03</pdfrwt>
<pdfrwt beam="2">  1       -2 0.17308528E-02 0.27896760E+03</pdfrwt>
<totfact> 0.98625463E+03</totfact>
</mgrwt>
</event>
<event>
 9    1  0.8093459E-001  0.2784151E+03  0.7818608E-02  0.1096558E+00
          2   -1    0    0  501    0  0.00000000000E+00  0.00000000000E+00  0.17063493359E+04  0.17063493359E+04  0.00000000000E+00 0. -1.
         -2   -1    0    0    0  501 -0.00000000000E+00 -0.00000000000E+00 -0.11356841675E+02  0.11356841675E+02  0.00000000000E+00 0. -1.
         35    2    1    2    0    0  0.35527136788E-14 -0.26645352591E-14  0.16949924942E+04  0.17177061776E+04  0.27841508041E+03 0.  0.
         25    2    3    3    0    0  0.62318391554E+00 -0.36763881628E+01  0.46410938726E+03  0.48051907102E+03  0.12444737879E+03 0.  0.
         25    2    3    3    0    0 -0.62318391554E+00  0.36763881628E+01  0.12308831070E+04  0.12371871065E+04  0.12467882504E+03 0.  0.
          5    1    4    4  502    0 -0.19187991789E+02 -0.63990265975E+00  0.42731086293E+01  0.20222214559E+02  0.47000000000E+01 0.  1.
         -5    1    4    4    0  502  0.19811175704E+02 -0.30364855031E+01  0.45983627863E+03  0.46029685646E+03  0.47000000000E+01 0.  1.
          5    1    5    5  503    0 -0.21301906940E+02 -0.49954832486E+02  0.33104814141E+03  0.33550591420E+03  0.47000000000E+01 0.  1.
         -5    1    5    5    0  503  0.20678723024E+02  0.53631220649E+02  0.89983496554E+03  0.90168119234E+03  0.47000000000E+01 0.  1.
<mgrwt>
<rscale>  0 0.27841508E+03</rscale>
<asrwt>0</asrwt>
<pdfrwt beam="1">  1        2 0.26251508E+00 0.27841508E+03</pdfrwt>
<pdfrwt beam="2">  1       -2 0.17472078E-02 0.27841508E+03</pdfrwt>
<totfact> 0.10001740E+04</totfact>
</mgrwt>
</event>
<event>
 9    1  0.8093459E-001  0.2791389E+03  0.7818608E-02  0.1096160E+00
          1   -1    0    0  501    0  0.00000000000E+00  0.00000000000E+00  0.10808707721E+03  0.10808707721E+03  0.00000000000E+00 0. -1.
         -1   -1    0    0    0  501 -0.00000000000E+00 -0.00000000000E+00 -0.18022166196E+03  0.18022166196E+03  0.00000000000E+00 0. -1.
         35    2    1    2    0    0  0.00000000000E+00  0.00000000000E+00 -0.72134584757E+02  0.28830873917E+03  0.27913890944E+03 0.  0.
         25    2    3    3    0    0 -0.57564108541E+02  0.84752505621E+00 -0.44412343241E+02  0.14553727213E+03  0.12607258408E+03 0.  0.
         25    2    3    3    0    0  0.57564108541E+02 -0.84752505621E+00 -0.27722241516E+02  0.14277146703E+03  0.12767468126E+03 0.  0.
          5    1    4    4  502    0 -0.56718008817E+02 -0.51441397435E+02  0.79437112647E-01  0.76715358335E+02  0.47000000000E+01 0.  1.
         -5    1    4    4    0  502 -0.84609972485E+00  0.52288922491E+02 -0.44491780353E+02  0.68821913800E+02  0.47000000000E+01 0.  1.
          5    1    5    5  503    0  0.14596299370E+02  0.53506773862E+02  0.19290808206E+02  0.58908845564E+02  0.47000000000E+01 0. -1.
         -5    1    5    5    0  503  0.42967809171E+02 -0.54354298918E+02 -0.47013049722E+02  0.83862621471E+02  0.47000000000E+01 0. -1.
<mgrwt>
<rscale>  0 0.27913891E+03</rscale>
<asrwt>0</asrwt>
<pdfrwt beam="1">  1        1 0.16628781E-01 0.27913891E+03</pdfrwt>
<pdfrwt beam="2">  1       -1 0.27726410E-01 0.27913891E+03</pdfrwt>
<totfact> 0.37831983E+03</totfact>
</mgrwt>
</event>
<event>
 9    1  0.8093459E-001  0.2751067E+03  0.7818608E-02  0.1098392E+00
         -1   -1    0    0    0  501 -0.00000000000E+00  0.00000000000E+00  0.48207279009E+02  0.48207279009E+02  0.00000000000E+00 0.  1.
          1   -1    0    0  501    0  0.00000000000E+00 -0.00000000000E+00 -0.39249108140E+03  0.39249108140E+03  0.00000000000E+00 0.  1.
         35    2    1    2    0    0 -0.71054273576E-14  0.00000000000E+00 -0.34428380239E+03  0.44069836041E+03  0.27510672162E+03 0.  0.
         25    2    3    3    0    0  0.37103384831E+02  0.86017019546E+01 -0.24105647644E+03  0.27413688091E+03  0.12486854768E+03 0.  0.
         25    2    3    3    0    0 -0.37103384831E+02 -0.86017019546E+01 -0.10322732595E+03  0.16656147950E+03  0.12504477273E+03 0.  0.
          5    1    4    4  502    0  0.62671438522E+02  0.24160872402E+02 -0.58839321207E+02  0.89418189882E+02  0.47000000000E+01 0. -1.
         -5    1    4    4    0  502 -0.25568053691E+02 -0.15559170448E+02 -0.18221715523E+03  0.18471869103E+03  0.47000000000E+01 0. -1.
          5    1    5    5  503    0 -0.34570894844E+02  0.26617848373E+01 -0.13128063449E+03  0.13586363332E+03  0.47000000000E+01 0.  1.
         -5    1    5    5    0  503 -0.25324899866E+01 -0.11263486792E+02  0.28053308532E+02  0.30697846176E+02  0.47000000000E+01 0.  1.
<mgrwt>
<rscale>  0 0.27510672E+03</rscale>
<asrwt>0</asrwt>
<pdfrwt beam="1">  1        1 0.60383243E-01 0.27510672E+03</pdfrwt>
<pdfrwt beam="2">  1       -1 0.74165044E-02 0.27510672E+03</pdfrwt>
<totfact> 0.59707011E+03</totfact>
</mgrwt>
</event>
<event>
 9    1  0.8093459E-001  0.2818140E+03  0.7818608E-02  0.1094702E+00
          1   -1    0    0  501    0  0.00000000000E+00  0.00000000000E+00  0.96904548440E+03  0.96904548440E+03  0.00000000000E+00 0.  1.
         -1   -1    0    0    0  501 -0.00000000000E+00 -0.00000000000E+00 -0.20489009980E+02  0.20489009980E+02  0.00000000000E+00 0.  1.
         35    2    1    2    0    0 -0.71054273576E-14  0.00000000000E+00  0.94855647442E+03  0.98953449438E+03  0.28181399966E+03 0.  0.
         25    2    3    3    0    0  0.53014918081E+02 -0.11633933662E+02  0.60471594002E+03  0.61985961961E+03  0.12489455535E+03 0.  0.
         25    2    3    3    0    0 -0.53014918081E+02  0.11633933662E+02  0.34384053440E+03  0.36967487477E+03  0.12444786052E+03 0.  0.
          5    1    4    4  502    0  0.54023460907E+02  0.35702129467E+02  0.50738044515E+03  0.51151752902E+03  0.47000000000E+01 0.  1.
         -5    1    4    4    0  502 -0.10085428255E+01 -0.47336063129E+02  0.97335494869E+02  0.10834209059E+03  0.47000000000E+01 0.  1.
          5    1    5    5  503    0 -0.48449978259E+02 -0.23989817106E+02  0.50575381633E+02  0.74181338256E+02  0.47000000000E+01 0. -1.
         -5    1    5    5    0  503 -0.45649398220E+01  0.35623750768E+02  0.29326515277E+03  0.29549353652E+03  0.47000000000E+01 0. -1.
<mgrwt>
<rscale>  0 0.28181400E+03</rscale>
<asrwt>0</asrwt>
<pdfrwt beam="1">  1        1 0.14908388E+00 0.28181400E+03</pdfrwt>
<pdfrwt beam="2">  1       -1 0.31521561E-02 0.28181400E+03</pdfrwt>
<totfact> 0.59161111E+03</totfact>
</mgrwt>
</event>
<event>
 9    1  0.8093459E-001  0.2790517E+03  0.7818608E-02  0.1096208E+00
          1   -1    0    0  501    0  0.00000000000E+00  0.00000000000E+00  0.82545010748E+03  0.82545010748E+03  0.00000000000E+00 0. -1.
         -1   -1    0    0    0  501 -0.00000000000E+00 -0.00000000000E+00 -0.23584065740E+02  0.23584065740E+02  0.00000000000E+00 0. -1.
         35    2    1    2    0    0  0.71054273576E-14  0.00000000000E+00  0.80186604174E+03  0.84903417322E+03  0.27905174861E+03 0.  0.
         25    2    3    3    0    0  0.43606884241E+02  0.11936537928E+02  0.53641140548E+03  0.55231907995E+03  0.12359259225E+03 0.  0.
         25    2    3    3    0    0 -0.43606884241E+02 -0.11936537928E+02  0.26545463626E+03  0.29671509327E+03  0.12461798173E+03 0.  0.
          5    1    4    4  502    0  0.80470631345E+01  0.15504474297E+01  0.50024365175E+03  0.50033284944E+03  0.47000000000E+01 0.  1.
         -5    1    4    4    0  502  0.35559821106E+02  0.10386090499E+02  0.36167753728E+02  0.51986230511E+02  0.47000000000E+01 0.  1.
          5    1    5    5  503    0 -0.23991228967E+02  0.25137778315E+02  0.24893264158E+03  0.25139020866E+03  0.47000000000E+01 0. -1.
         -5    1    5    5    0  503 -0.19615655273E+02 -0.37074316244E+02  0.16521994682E+02  0.45324884611E+02  0.47000000000E+01 0. -1.
<mgrwt>
<rscale>  0 0.27905175E+03</rscale>
<asrwt>0</asrwt>
<pdfrwt beam="1">  1        1 0.12699230E+00 0.27905175E+03</pdfrwt>
<pdfrwt beam="2">  1       -1 0.36283184E-02 0.27905175E+03</pdfrwt>
<totfact> 0.62329601E+03</totfact>
</mgrwt>
</event>
<event>
 9    1  0.8093459E-001  0.2738923E+03  0.7818608E-02  0.1099072E+00
          2   -1    0    0  501    0  0.00000000000E+00  0.00000000000E+00  0.24001260397E+04  0.24001260397E+04  0.00000000000E+00 0. -1.
         -2   -1    0    0    0  501 -0.00000000000E+00 -0.00000000000E+00 -0.78138601428E+01  0.78138601428E+01  0.00000000000E+00 0. -1.
         35    2    1    2    0    0  0.71054273576E-14  0.00000000000E+00  0.23923121796E+04  0.24079398999E+04  0.27389230876E+03 0.  0.
         25    2    3    3    0    0 -0.36539237924E+02 -0.16884725321E+02  0.81131572381E+03  0.82162093669E+03  0.12331889573E+03 0.  0.
         25    2    3    3    0    0  0.36539237924E+02  0.16884725321E+02  0.15809964558E+04  0.15863189632E+04  0.12344168633E+03 0.  0.
          5    1    4    4  502    0 -0.24083639115E+02  0.26685466467E+02  0.69313615867E+02  0.78221500485E+02  0.47000000000E+01 0. -1.
         -5    1    4    4    0  502 -0.12455598809E+02 -0.43570191789E+02  0.74200210795E+03  0.74339943621E+03  0.47000000000E+01 0. -1.
          5    1    5    5  503    0  0.12843016669E+01  0.15029784245E+02  0.22934750571E+02  0.27850253661E+02  0.47000000000E+01 0.  1.
         -5    1    5    5    0  503  0.35254936257E+02  0.18549410762E+01  0.15580617052E+04  0.15584687095E+04  0.47000000000E+01 0.  1.
<mgrwt>
<rscale>  0 0.27389231E+03</rscale>
<asrwt>0</asrwt>
<pdfrwt beam="1">  1        2 0.36924957E+00 0.27389231E+03</pdfrwt>
<pdfrwt beam="2">  1       -2 0.12021342E-02 0.27389231E+03</pdfrwt>
<totfact> 0.74135233E+03</totfact>
</mgrwt>
</event>
<event>
 9    1  0.8093459E-001  0.2732379E+03  0.7818608E-02  0.1099441E+00
          2   -1    0    0  501    0  0.00000000000E+00  0.00000000000E+00  0.17939307402E+04  0.17939307402E+04  0.00000000000E+00 0. -1.
         -2   -1    0    0    0  501 -0.00000000000E+00 -0.00000000000E+00 -0.10404382266E+02  0.10404382266E+02  0.00000000000E+00 0. -1.
         35    2    1    2    0    0 -0.71054273576E-14 -0.17763568394E-14  0.17835263579E+04  0.18043351224E+04  0.27323792694E+03 0.  0.
         25    2    3    3    0    0  0.54718714806E+02  0.25234608658E+01  0.83600989355E+03  0.84708542752E+03  0.12506267949E+03 0.  0.
         25    2    3    3    0    0 -0.54718714806E+02 -0.25234608658E+01  0.94751646435E+03  0.95724969491E+03  0.12465561594E+03 0.  0.
          5    1    4    4  502    0  0.71351991757E+01 -0.27645479916E+02  0.68856411861E+03  0.68917183566E+03  0.47000000000E+01 0. -1.
         -5    1    4    4    0  502  0.47583515630E+02  0.30168940782E+02  0.14744577493E+03  0.15791359186E+03  0.47000000000E+01 0. -1.
          5    1    5    5  503    0 -0.90690403946E+02 -0.11585345401E+02  0.79329505206E+03  0.79856001604E+03  0.47000000000E+01 0. -1.
         -5    1    5    5    0  503  0.35971689140E+02  0.90618845352E+01  0.15422141230E+03  0.15868967888E+03  0.47000000000E+01 0. -1.
<mgrwt>
<rscale>  0 0.27323793E+03</rscale>
<asrwt>0</asrwt>
<pdfrwt beam="1">  1        2 0.27598910E+00 0.27323793E+03</pdfrwt>
<pdfrwt beam="2">  1       -2 0.16006756E-02 0.27323793E+03</pdfrwt>
<totfact> 0.10225155E+04</totfact>
</mgrwt>
</event>
<event>
 9    1  0.8093459E-001  0.2744125E+03  0.7818608E-02  0.1098780E+00
          2   -1    0    0  501    0  0.00000000000E+00  0.00000000000E+00  0.24308541519E+04  0.24308541519E+04  0.00000000000E+00 0.  1.
         -2   -1    0    0    0  501 -0.00000000000E+00 -0.00000000000E+00 -0.77444176983E+01  0.77444176983E+01  0.00000000000E+00 0.  1.
         35    2    1    2    0    0  0.14210854715E-13  0.35527136788E-14  0.24231097342E+04  0.24385985696E+04  0.27441246266E+03 0.  0.
         25    2    3    3    0    0  0.32677275868E+02  0.17432402035E+02  0.15742856126E+04  0.15798662073E+04  0.12739839014E+03 0.  0.
         25    2    3    3    0    0 -0.32677275868E+02 -0.17432402035E+02  0.84882412157E+03  0.85873236231E+03  0.12468836237E+03 0.  0.
          5    1    4    4  502    0 -0.39482932895E+02  0.39265708951E+02  0.77876497712E+03  0.78076736451E+03  0.47000000000E+01 0.  1.
         -5    1    4    4    0  502  0.72160208763E+02 -0.21833306916E+02  0.79552063551E+03  0.79909884279E+03  0.47000000000E+01 0.  1.
          5    1    5    5  503    0 -0.72114002467E+02 -0.29216085389E+02  0.37013080616E+03  0.37824980193E+03  0.47000000000E+01 0. -1.
         -5    1    5    5    0  503  0.39436726599E+02  0.11783683354E+02  0.47869331542E+03  0.48048256038E+03  0.47000000000E+01 0. -1.
<mgrwt>
<rscale>  0 0.27441246E+03</rscale>
<asrwt>0</asrwt>
<pdfrwt beam="1">  1        2 0.37397695E+00 0.27441246E+03</pdfrwt>
<pdfrwt beam="2">  1       -2 0.11914508E-02 0.27441246E+03</pdfrwt>
<totfact> 0.72276322E+03</totfact>
</mgrwt>
</event>
<event>
 9    1  0.8093459E-001  0.2778706E+03  0.7818608E-02  0.1096858E+00
         -1   -1    0    0    0  501 -0.00000000000E+00  0.00000000000E+00  0.13035584657E+02  0.13035584657E+02  0.00000000000E+00 0. -1.
          1   -1    0    0  501    0  0.00000000000E+00 -0.00000000000E+00 -0.14807937564E+04  0.14807937564E+04  0.00000000000E+00 0. -1.
         35    2    1    2    0    0 -0.28421709430E-13 -0.17763568394E-14 -0.14677581717E+04  0.14938293411E+04  0.27787056246E+03 0.  0.
         25    2    3    3    0    0  0.56883953424E+02 -0.85954061597E+00 -0.91731828379E+03  0.92748992128E+03  0.12461218776E+03 0.  0.
         25    2    3    3    0    0 -0.56883953424E+02  0.85954061597E+00 -0.55043988795E+03  0.56633941977E+03  0.12049790526E+03 0.  0.
          5    1    4    4  502    0 -0.22990365038E+02  0.34087346387E+02 -0.46386380205E+03  0.46570615297E+03  0.47000000000E+01 0.  1.
         -5    1    4    4    0  502  0.79874318462E+02 -0.34946887003E+02 -0.45345448174E+03  0.46178376831E+03  0.47000000000E+01 0.  1.
          5    1    5    5  503    0 -0.88124530736E+02 -0.84910209578E+01 -0.48540618993E+03  0.49343620619E+03  0.47000000000E+01 0. -1.
         -5    1    5    5    0  503  0.31240577312E+02  0.93505615737E+01 -0.65033698017E+02  0.72903213580E+02  0.47000000000E+01 0. -1.
<mgrwt>
<rscale>  0 0.27787056E+03</rscale>
<asrwt>0</asrwt>
<pdfrwt beam="1">  1        1 0.22781440E+00 0.27787056E+03</pdfrwt>
<pdfrwt beam="2">  1       -1 0.20054748E-02 0.27787056E+03</pdfrwt>
<totfact> 0.50338444E+03</totfact>
</mgrwt>
</event>
<event>
 9    1  0.8093459E-001  0.2814414E+03  0.7818608E-02  0.1094904E+00
          1   -1    0    0  501    0  0.00000000000E+00  0.00000000000E+00  0.63700629360E+03  0.63700629360E+03  0.00000000000E+00 0. -1.
         -1   -1    0    0    0  501 -0.00000000000E+00 -0.00000000000E+00 -0.31086530540E+02  0.31086530540E+02  0.00000000000E+00 0. -1.
         35    2    1    2    0    0  0.35527136788E-14  0.00000000000E+00  0.60591976306E+03  0.66809282414E+03  0.28144140136E+03 0.  0.
         25    2    3    3    0    0 -0.21515973321E+02  0.49838731401E+02  0.22401770355E+03  0.26263218112E+03  0.12587650616E+03 0.  0.
         25    2    3    3    0    0  0.21515973321E+02 -0.49838731401E+02  0.38190205951E+03  0.40546064301E+03  0.12490922192E+03 0.  0.
          5    1    4    4  502    0 -0.59795921923E+02  0.63464214029E+02  0.19117801290E+03  0.21017702386E+03  0.47000000000E+01 0.  1.
         -5    1    4    4    0  502  0.38279948601E+02 -0.13625482629E+02  0.32839690646E+02  0.52455157263E+02  0.47000000000E+01 0.  1.
          5    1    5    5  503    0  0.11763713182E+02  0.35387803531E+02  0.20942819105E+03  0.21277438472E+03  0.47000000000E+01 0.  1.
         -5    1    5    5    0  503  0.97522601398E+01 -0.85226534931E+02  0.17247386846E+03  0.19268625829E+03  0.47000000000E+01 0.  1.
<mgrwt>
<rscale>  0 0.28144140E+03</rscale>
<asrwt>0</asrwt>
<pdfrwt beam="1">  1        1 0.98000959E-01 0.28144140E+03</pdfrwt>
<pdfrwt beam="2">  1       -1 0.47825436E-02 0.28144140E+03</pdfrwt>
<totfact> 0.60666422E+03</totfact>
</mgrwt>
</event>
<event>
 9    1  0.8093459E-001  0.2765619E+03  0.7818608E-02  0.1097582E+00
         -2   -1    0    0    0  501 -0.00000000000E+00  0.00000000000E+00  0.53915581598E+02  0.53915581598E+02  0.00000000000E+00 0. -1.
          2   -1    0    0  501    0  0.00000000000E+00 -0.00000000000E+00 -0.35465864950E+03  0.35465864950E+03  0.00000000000E+00 0. -1.
         35    2    1    2    0    0  0.35527136788E-14 -0.71054273576E-14 -0.30074306791E+03  0.40857423110E+03  0.27656194501E+03 0.  0.
         25    2    3    3    0    0 -0.13451458980E+02  0.12705921486E+02 -0.73651369849E+02  0.14933745011E+03  0.12858758702E+03 0.  0.
         25    2    3    3    0    0  0.13451458980E+02 -0.12705921486E+02 -0.22709169806E+03  0.25923678099E+03  0.12365551789E+03 0.  0.
          5    1    4    4  502    0  0.24390264895E+02  0.38492213450E+02  0.16027931012E+02  0.48533700564E+02  0.47000000000E+01 0. -1.
         -5    1    4    4    0  502 -0.37841723875E+02 -0.25786291964E+02 -0.89679300861E+02  0.10080374954E+03  0.47000000000E+01 0. -1.
          5    1    5    5  503    0 -0.33638742187E+02 -0.52821923661E+02 -0.12143890695E+03  0.13671583199E+03  0.47000000000E+01 0.  1.
         -5    1    5    5    0  503  0.47090201168E+02  0.40116002175E+02 -0.10565279111E+03  0.12252094901E+03  0.47000000000E+01 0.  1.
<mgrwt>
<rscale>  0 0.27656195E+03</rscale>
<asrwt>0</asrwt>
<pdfrwt beam="1">  1        2 0.54562868E-01 0.27656195E+03</pdfrwt>
<pdfrwt beam="2">  1       -2 0.82947050E-02 0.27656195E+03</pdfrwt>
<totfact> 0.80809905E+03</totfact>
</mgrwt>
</event>
<event>
 9    1  0.8093459E-001  0.2675751E+03  0.7818608E-02  0.1102676E+00
         -2   -1    0    0    0  501 -0.00000000000E+00  0.00000000000E+00  0.82123742555E+01  0.82123742555E+01  0.00000000000E+00 0.  1.
          2   -1    0    0  501    0  0.00000000000E+00 -0.00000000000E+00 -0.21795290194E+04  0.21795290194E+04  0.00000000000E+00 0.  1.
         35    2    1    2    0    0 -0.17763568394E-14 -0.71054273576E-14 -0.21713166452E+04  0.21877413937E+04  0.26757509606E+03 0.  0.
         25    2    3    3    0    0  0.11767172693E+02  0.32786849256E+02 -0.81326802981E+03  0.82358175600E+03  0.12517418531E+03 0.  0.
         25    2    3    3    0    0 -0.11767172693E+02 -0.32786849256E+02 -0.13580486154E+04  0.13641596377E+04  0.12418547241E+03 0.  0.
          5    1    4    4  502    0  0.28676920823E+02  0.68460415906E+02 -0.69149362289E+03  0.69548164234E+03  0.47000000000E+01 0. -1.
         -5    1    4    4    0  502 -0.16909748130E+02 -0.35673566650E+02 -0.12177440692E+03  0.12810011367E+03  0.47000000000E+01 0. -1.
          5    1    5    5  503    0 -0.33670875476E+01 -0.78686548421E+02 -0.98919924763E+03  0.99234074374E+03  0.47000000000E+01 0.  1.
         -5    1    5    5    0  503 -0.84000851454E+01  0.45899699165E+02 -0.36884936776E+03  0.37181889396E+03  0.47000000000E+01 0.  1.
<mgrwt>
<rscale>  0 0.26757510E+03</rscale>
<asrwt>0</asrwt>
<pdfrwt beam="1">  1        2 0.33531172E+00 0.26757510E+03</pdfrwt>
<pdfrwt beam="2">  1       -2 0.12634439E-02 0.26757510E+03</pdfrwt>
<totfact> 0.90513160E+03</totfact>
</mgrwt>
</event>
<event>
 9    1  0.8093459E-001  0.2742778E+03  0.7818608E-02  0.1098856E+00
          1   -1    0    0  501    0  0.00000000000E+00  0.00000000000E+00  0.78194492582E+02  0.78194492582E+02  0.00000000000E+00 0. -1.
         -1   -1    0    0    0  501 -0.00000000000E+00 -0.00000000000E+00 -0.24051663340E+03  0.24051663340E+03  0.00000000000E+00 0. -1.
         35    2    1    2    0    0  0.00000000000E+00  0.00000000000E+00 -0.16232214082E+03  0.31871112599E+03  0.27427778697E+03 0.  0.
         25    2    3    3    0    0 -0.38534270529E+02 -0.30870759187E+02 -0.11947298239E+03  0.17964970627E+03  0.12474906678E+03 0.  0.
         25    2    3    3    0    0  0.38534270529E+02  0.30870759187E+02 -0.42849158432E+02  0.13906141972E+03  0.12273603504E+03 0.  0.
          5    1    4    4  502    0  0.45795626993E+02 -0.10198704525E+02 -0.44562586960E+02  0.64878094780E+02  0.47000000000E+01 0. -1.
         -5    1    4    4    0  502 -0.84329897522E+02 -0.20672054662E+02 -0.74910395429E+02  0.11477161149E+03  0.47000000000E+01 0. -1.
          5    1    5    5  503    0  0.11422727031E+02  0.38942116193E+02 -0.81363564641E+02  0.91044421891E+02  0.47000000000E+01 0. -1.
         -5    1    5    5    0  503  0.27111543498E+02 -0.80713570061E+01  0.38514406209E+02  0.48016997828E+02  0.47000000000E+01 0. -1.
<mgrwt>
<rscale>  0 0.27427779E+03</rscale>
<asrwt>0</asrwt>
<pdfrwt beam="1">  1        1 0.12029922E-01 0.27427779E+03</pdfrwt>
<pdfrwt beam="2">  1       -1 0.37002559E-01 0.27427779E+03</pdfrwt>
<totfact> 0.35286366E+03</totfact>
</mgrwt>
</event>
<event>
 9    1  0.8093459E-001  0.2760107E+03  0.7818608E-02  0.1097888E+00
         -2   -1    0    0    0  501 -0.00000000000E+00  0.00000000000E+00  0.11295092750E+03  0.11295092750E+03  0.00000000000E+00 0.  1.
          2   -1    0    0  501    0  0.00000000000E+00 -0.00000000000E+00 -0.16861720942E+03  0.16861720942E+03  0.00000000000E+00 0.  1.
         35    2    1    2    0    0 -0.71054273576E-14  0.00000000000E+00 -0.55666281913E+02  0.28156813692E+03  0.27601065339E+03 0.  0.
         25    2    3    3    0    0  0.52188049119E+02  0.19798106521E+02 -0.35572478933E+02  0.14125491768E+03  0.12478779195E+03 0.  0.
         25    2    3    3    0    0 -0.52188049119E+02 -0.19798106521E+02 -0.20093802980E+02  0.14031321924E+03  0.12715534232E+03 0.  0.
          5    1    4    4  502    0  0.69538438181E+02 -0.19854366929E+02 -0.57497992027E+02  0.92508915018E+02  0.47000000000E+01 0.  1.
         -5    1    4    4    0  502 -0.17350389062E+02  0.39652473450E+02  0.21925513094E+02  0.48746002664E+02  0.47000000000E+01 0.  1.
          5    1    5    5  503    0 -0.41799087794E+02 -0.47369367126E+02  0.38804248671E+02  0.74289167429E+02  0.47000000000E+01 0.  1.
         -5    1    5    5    0  503 -0.10388961325E+02  0.27571260605E+02 -0.58898051651E+02  0.66024051807E+02  0.47000000000E+01 0.  1.
<mgrwt>
<rscale>  0 0.27601065E+03</rscale>
<asrwt>0</asrwt>
<pdfrwt beam="1">  1        2 0.25941109E-01 0.27601065E+03</pdfrwt>
<pdfrwt beam="2">  1       -2 0.17377066E-01 0.27601065E+03</pdfrwt>
<totfact> 0.54772502E+03</totfact>
</mgrwt>
</event>
<event>
 9    1  0.8093459E-001  0.2763462E+03  0.7818608E-02  0.1097701E+00
         -1   -1    0    0    0  501 -0.00000000000E+00  0.00000000000E+00  0.58625355124E+02  0.58625355124E+02  0.00000000000E+00 0.  1.
          1   -1    0    0  501    0  0.00000000000E+00 -0.00000000000E+00 -0.32565778823E+03  0.32565778823E+03  0.00000000000E+00 0.  1.
         35    2    1    2    0    0  0.00000000000E+00 -0.71054273576E-14 -0.26703243311E+03  0.38428314336E+03  0.27634618495E+03 0.  0.
         25    2    3    3    0    0  0.37220008243E+02 -0.32267411585E+02 -0.91957403080E+02  0.16328173732E+03  0.12561149189E+03 0.  0.
         25    2    3    3    0    0 -0.37220008243E+02  0.32267411585E+02 -0.17507503003E+03  0.22100140604E+03  0.12555413362E+03 0.  0.
          5    1    4    4  502    0  0.11372844036E+02 -0.56236122802E+02 -0.10943824769E+03  0.12365542102E+03  0.47000000000E+01 0.  1.
         -5    1    4    4    0  502  0.25847164207E+02  0.23968711216E+02  0.17480844613E+02  0.39626316298E+02  0.47000000000E+01 0.  1.
          5    1    5    5  503    0 -0.59319832436E+02  0.51571410819E+02 -0.17431355177E+03  0.19127403709E+03  0.47000000000E+01 0. -1.
         -5    1    5    5    0  503  0.22099824193E+02 -0.19303999233E+02 -0.76147826263E+00  0.29727368954E+02  0.47000000000E+01 0. -1.
<mgrwt>
<rscale>  0 0.27634618E+03</rscale>
<asrwt>0</asrwt>
<pdfrwt beam="1">  1        1 0.50101197E-01 0.27634618E+03</pdfrwt>
<pdfrwt beam="2">  1       -1 0.90192856E-02 0.27634618E+03</pdfrwt>
<totfact> 0.56122880E+03</totfact>
</mgrwt>
</event>
<event>
 9    1  0.8093459E-001  0.2750632E+03  0.7818608E-02  0.1098416E+00
          2   -1    0    0  501    0  0.00000000000E+00  0.00000000000E+00  0.16214605941E+04  0.16214605941E+04  0.00000000000E+00 0.  1.
         -2   -1    0    0    0  501 -0.00000000000E+00 -0.00000000000E+00 -0.11665370830E+02  0.11665370830E+02  0.00000000000E+00 0.  1.
         35    2    1    2    0    0  0.00000000000E+00  0.00000000000E+00  0.16097952233E+04  0.16331259650E+04  0.27506318632E+03 0.  0.
         25    2    3    3    0    0  0.22541612557E+02  0.16826911404E+02  0.11099581142E+04  0.11173482982E+04  0.12517561611E+03 0.  0.
         25    2    3    3    0    0 -0.22541612557E+02 -0.16826911404E+02  0.49983710909E+03  0.51577766679E+03  0.12408947053E+03 0.  0.
          5    1    4    4  502    0 -0.30408280885E+02  0.54778824638E+02  0.57148792689E+03  0.57493123393E+03  0.47000000000E+01 0. -1.
         -5    1    4    4    0  502  0.52949893443E+02 -0.37951913235E+02  0.53847018734E+03  0.54241706425E+03  0.47000000000E+01 0. -1.
          5    1    5    5  503    0  0.69759245476E+01 -0.66611719199E+02  0.31320981809E+03  0.32032524847E+03  0.47000000000E+01 0. -1.
         -5    1    5    5    0  503 -0.29517537105E+02  0.49784807796E+02  0.18662729100E+03  0.19545241833E+03  0.47000000000E+01 0. -1.
<mgrwt>
<rscale>  0 0.27506319E+03</rscale>
<asrwt>0</asrwt>
<pdfrwt beam="1">  1        2 0.24945530E+00 0.27506319E+03</pdfrwt>
<pdfrwt beam="2">  1       -2 0.17946737E-02 0.27506319E+03</pdfrwt>
<totfact> 0.10658803E+04</totfact>
</mgrwt>
</event>
<event>
 9    1  0.8093459E-001  0.2745170E+03  0.7818608E-02  0.1098722E+00
         -2   -1    0    0    0  501 -0.00000000000E+00  0.00000000000E+00  0.91172365020E+02  0.91172365020E+02  0.00000000000E+00 0. -1.
          2   -1    0    0  501    0  0.00000000000E+00 -0.00000000000E+00 -0.20664046174E+03  0.20664046174E+03  0.00000000000E+00 0. -1.
         35    2    1    2    0    0  0.00000000000E+00  0.14210854715E-13 -0.11546809672E+03  0.29781282676E+03  0.27451702756E+03 0.  0.
         25    2    3    3    0    0 -0.34807279528E+02 -0.48037240707E+02 -0.49265801265E+02  0.14534437751E+03  0.12320205233E+03 0.  0.
         25    2    3    3    0    0  0.34807279528E+02  0.48037240707E+02 -0.66202295456E+02  0.15246844925E+03  0.12387397180E+03 0.  0.
          5    1    4    4  502    0  0.44558179889E+02 -0.20984580909E+02 -0.32494079196E+01  0.49582584471E+02  0.47000000000E+01 0.  1.
         -5    1    4    4    0  502 -0.79365459416E+02 -0.27052659798E+02 -0.46016393345E+02  0.95761793044E+02  0.47000000000E+01 0.  1.
          5    1    5    5  503    0 -0.40354472364E+02 -0.93655592797E+01 -0.12109482157E+02  0.43415742519E+02  0.47000000000E+01 0.  1.
         -5    1    5    5    0  503  0.75161751891E+02  0.57402799987E+02 -0.54092813299E+02  0.10905270673E+03  0.47000000000E+01 0.  1.
<mgrwt>
<rscale>  0 0.27451703E+03</rscale>
<asrwt>0</asrwt>
<pdfrwt beam="1">  1        2 0.31790840E-01 0.27451703E+03</pdfrwt>
<pdfrwt beam="2">  1       -2 0.14026518E-01 0.27451703E+03</pdfrwt>
<totfact> 0.62450303E+03</totfact>
</mgrwt>
</event>
<event>
 9    1  0.8093459E-001  0.2795932E+03  0.7818608E-02  0.1095911E+00
         -1   -1    0    0    0  501 -0.00000000000E+00  0.00000000000E+00  0.13226049023E+02  0.13226049023E+02  0.00000000000E+00 0. -1.
          1   -1    0    0  501    0  0.00000000000E+00 -0.00000000000E+00 -0.14776212073E+04  0.14776212073E+04  0.00000000000E+00 0. -1.
         35    2    1    2    0    0  0.00000000000E+00  0.00000000000E+00 -0.14643951583E+04  0.14908472563E+04  0.27959320826E+03 0.  0.
         25    2    3    3    0    0  0.17116016249E+01  0.56461886546E+02 -0.63919813137E+03  0.65429140346E+03  0.12779716465E+03 0.  0.
         25    2    3    3    0    0 -0.17116016249E+01 -0.56461886546E+02 -0.82519702693E+03  0.83655585288E+03  0.12523852251E+03 0.  0.
          5    1    4    4  502    0  0.19189196120E+02 -0.37407917366E+02 -0.15061309727E+03  0.15644159485E+03  0.47000000000E+01 0. -1.
         -5    1    4    4    0  502 -0.17477594495E+02  0.93869803912E+02 -0.48858503409E+03  0.49784980861E+03  0.47000000000E+01 0. -1.
          5    1    5    5  503    0 -0.62100522869E+02 -0.18660486763E+02 -0.34385799837E+03  0.34995014181E+03  0.47000000000E+01 0. -1.
         -5    1    5    5    0  503  0.60388921244E+02 -0.37801399782E+02 -0.48133902855E+03  0.48660571107E+03  0.47000000000E+01 0. -1.
<mgrwt>
<rscale>  0 0.27959321E+03</rscale>
<asrwt>0</asrwt>
<pdfrwt beam="1">  1        1 0.22732629E+00 0.27959321E+03</pdfrwt>
<pdfrwt beam="2">  1       -1 0.20347773E-02 0.27959321E+03</pdfrwt>
<totfact> 0.49523603E+03</totfact>
</mgrwt>
</event>
<event>
 9    1  0.8093459E-001  0.2767842E+03  0.7818608E-02  0.1097458E+00
         -2   -1    0    0    0  501 -0.00000000000E+00  0.00000000000E+00  0.18734889703E+02  0.18734889703E+02  0.00000000000E+00 0. -1.
          2   -1    0    0  501    0  0.00000000000E+00 -0.00000000000E+00 -0.10222840703E+04  0.10222840703E+04  0.00000000000E+00 0. -1.
         35    2    1    2    0    0 -0.14210854715E-13 -0.71054273576E-14 -0.10035491806E+04  0.10410189600E+04  0.27678424306E+03 0.  0.
         25    2    3    3    0    0 -0.48158657577E+02 -0.15319542937E+02 -0.39168105927E+03  0.41430231867E+03  0.12521347519E+03 0.  0.
         25    2    3    3    0    0  0.48158657577E+02  0.15319542937E+02 -0.61186812129E+03  0.62671664130E+03  0.12584596112E+03 0.  0.
          5    1    4    4  502    0 -0.84661407974E+02 -0.36361185715E+02 -0.28227140573E+03  0.29696620401E+03  0.47000000000E+01 0. -1.
         -5    1    4    4    0  502  0.36502750397E+02  0.21041642778E+02 -0.10940965354E+03  0.11733611466E+03  0.47000000000E+01 0. -1.
          5    1    5    5  503    0  0.45336507444E+02 -0.21231807322E+02 -0.56401538951E+03  0.56625227430E+03  0.47000000000E+01 0.  1.
         -5    1    5    5    0  503  0.28221501326E+01  0.36551350259E+02 -0.47852731785E+02  0.60464366997E+02  0.47000000000E+01 0.  1.
<mgrwt>
<rscale>  0 0.27678424E+03</rscale>
<asrwt>0</asrwt>
<pdfrwt beam="1">  1        2 0.15727452E+00 0.27678424E+03</pdfrwt>
<pdfrwt beam="2">  1       -2 0.28822899E-02 0.27678424E+03</pdfrwt>
<totfact> 0.11415997E+04</totfact>
</mgrwt>
</event>
<event>
 9    1  0.8093459E-001  0.2795214E+03  0.7818608E-02  0.1095951E+00
         -4   -1    0    0    0  501 -0.00000000000E+00  0.00000000000E+00  0.54174414392E+03  0.54174414392E+03  0.00000000000E+00 0. -1.
          4   -1    0    0  501    0  0.00000000000E+00 -0.00000000000E+00 -0.36055862636E+02  0.36055862636E+02  0.00000000000E+00 0. -1.
         35    2    1    2    0    0 -0.71054273576E-14  0.35527136788E-14  0.50568828129E+03  0.57780000656E+03  0.27952139408E+03 0.  0.
         25    2    3    3    0    0 -0.61304472001E+02 -0.27450009189E+01  0.24395271441E+03  0.28091707620E+03  0.12504280675E+03 0.  0.
         25    2    3    3    0    0  0.61304472001E+02  0.27450009189E+01  0.26173556688E+03  0.29688293036E+03  0.12596902020E+03 0.  0.
          5    1    4    4  502    0  0.29786989413E+02  0.29448926722E+02  0.84256967097E+02  0.94211626288E+02  0.47000000000E+01 0. -1.
         -5    1    4    4    0  502 -0.91091461414E+02 -0.32193927641E+02  0.15969574731E+03  0.18670544992E+03  0.47000000000E+01 0. -1.
          5    1    5    5  503    0 -0.13258350797E+02 -0.36144356298E+02  0.26369292205E+02  0.46900191145E+02  0.47000000000E+01 0.  1.
         -5    1    5    5    0  503  0.74562822798E+02  0.38889357217E+02  0.23536627468E+03  0.24998273921E+03  0.47000000000E+01 0.  1.
<mgrwt>
<rscale>  0 0.27952139E+03</rscale>
<asrwt>0</asrwt>
<pdfrwt beam="1">  1        4 0.55470562E-02 0.27952139E+03</pdfrwt>
<pdfrwt beam="2">  1       -4 0.83345247E-01 0.27952139E+03</pdfrwt>
<totfact> 0.49080069E+02</totfact>
</mgrwt>
</event>
<event>
 9    1  0.8093459E-001  0.2749510E+03  0.7818608E-02  0.1098479E+00
         -2   -1    0    0    0  501 -0.00000000000E+00  0.00000000000E+00  0.77503855434E+01  0.77503855434E+01  0.00000000000E+00 0.  1.
          2   -1    0    0  501    0  0.00000000000E+00 -0.00000000000E+00 -0.24385249542E+04  0.24385249542E+04  0.00000000000E+00 0.  1.
         35    2    1    2    0    0  0.00000000000E+00  0.71054273576E-14 -0.24307745687E+04  0.24462753397E+04  0.27495096692E+03 0.  0.
         25    2    3    3    0    0 -0.10801593755E+02  0.51843844019E+02 -0.14017694347E+04  0.14083328126E+04  0.12505720509E+03 0.  0.
         25    2    3    3    0    0  0.10801593755E+02 -0.51843844019E+02 -0.10290051340E+04  0.10379425271E+04  0.12517453912E+03 0.  0.
          5    1    4    4  502    0 -0.12470568182E+02 -0.40723469202E+02 -0.40376498187E+03  0.40603222360E+03  0.47000000000E+01 0. -1.
         -5    1    4    4    0  502  0.16689744274E+01  0.92567313220E+02 -0.99800445282E+03  0.10023005890E+04  0.47000000000E+01 0. -1.
          5    1    5    5  503    0 -0.42441166464E+02  0.59558135307E+01 -0.17169554203E+03  0.17702591188E+03  0.47000000000E+01 0. -1.
         -5    1    5    5    0  503  0.53242760219E+02 -0.57799657549E+02 -0.85730959195E+03  0.86091661522E+03  0.47000000000E+01 0. -1.
<mgrwt>
<rscale>  0 0.27495097E+03</rscale>
<asrwt>0</asrwt>
<pdfrwt beam="1">  1        2 0.37515761E+00 0.27495097E+03</pdfrwt>
<pdfrwt beam="2">  1       -2 0.11923673E-02 0.27495097E+03</pdfrwt>
<totfact> 0.71504488E+03</totfact>
</mgrwt>
</event>
<event>
 9    1  0.8093459E-001  0.2766372E+03  0.7818608E-02  0.1097540E+00
          3   -1    0    0  501    0  0.00000000000E+00  0.00000000000E+00  0.40425688284E+03  0.40425688284E+03  0.00000000000E+00 0. -1.
         -3   -1    0    0    0  501 -0.00000000000E+00 -0.00000000000E+00 -0.47326439707E+02  0.47326439707E+02  0.00000000000E+00 0. -1.
         35    2    1    2    0    0 -0.71054273576E-14  0.00000000000E+00  0.35693044314E+03  0.45158332255E+03  0.27663722810E+03 0.  0.
         25    2    3    3    0    0  0.50892559541E+02 -0.77172288441E+01  0.23170978654E+03  0.26771322998E+03  0.12381978877E+03 0.  0.
         25    2    3    3    0    0 -0.50892559541E+02  0.77172288441E+01  0.12522065660E+03  0.18387009257E+03  0.12441217732E+03 0.  0.
          5    1    4    4  502    0  0.81806211669E+01  0.80301775354E+01 -0.13468609448E+02  0.18300266511E+02  0.47000000000E+01 0.  1.
         -5    1    4    4    0  502  0.42711938374E+02 -0.15747406379E+02  0.24517839599E+03  0.24941296347E+03  0.47000000000E+01 0.  1.
          5    1    5    5  503    0 -0.32066445885E+01  0.10565022902E+02 -0.24154943421E+02  0.26971347206E+02  0.47000000000E+01 0.  1.
         -5    1    5    5    0  503 -0.47685914953E+02 -0.28477940578E+01  0.14937560002E+03  0.15689874537E+03  0.47000000000E+01 0.  1.
<mgrwt>
<rscale>  0 0.27663723E+03</rscale>
<asrwt>0</asrwt>
<pdfrwt beam="1">  1        3 0.62193364E-01 0.27663723E+03</pdfrwt>
<pdfrwt beam="2">  1       -3 0.72809910E-02 0.27663723E+03</pdfrwt>
<totfact> 0.80879015E+02</totfact>
</mgrwt>
</event>
<event>
 8    1  0.8093459E-001  0.3503599E+03  0.7818608E-02  0.1062467E+00
          1   -1    0    0  501    0  0.00000000000E+00  0.00000000000E+00  0.17407766852E+04  0.17407766852E+04  0.00000000000E+00 0. -1.
         -1   -1    0    0    0  501 -0.00000000000E+00 -0.00000000000E+00 -0.17628919221E+02  0.17628919221E+02  0.00000000000E+00 0. -1.
         25    2    1    2    0    0 -0.14549363645E+02 -0.12075668652E+03  0.92526347745E+03  0.94156330242E+03  0.12504034722E+03 0.  0.
         25    2    1    2    0    0  0.14549363645E+02  0.12075668652E+03  0.79788428853E+03  0.81684230201E+03  0.12577021563E+03 0.  0.
          5    1    3    3  502    0 -0.53343044400E+02 -0.29874710462E+02  0.55263692267E+03  0.55602844982E+03  0.47000000000E+01 0.  1.
         -5    1    3    3    0  502  0.38793680755E+02 -0.90881976062E+02  0.37262655478E+03  0.38553485260E+03  0.47000000000E+01 0.  1.
          5    1    4    4  503    0 -0.51894773232E+02  0.48762990586E+02  0.44049746407E+03  0.44624096920E+03  0.47000000000E+01 0.  1.
         -5    1    4    4    0  503  0.66444136877E+02  0.71993695938E+02  0.35738682446E+03  0.37060133281E+03  0.47000000000E+01 0.  1.
<mgrwt>
<rscale>  0 0.35035988E+03</rscale>
<asrwt>0</asrwt>
<pdfrwt beam="1">  1        1 0.26781166E+00 0.35035988E+03</pdfrwt>
<pdfrwt beam="2">  1       -1 0.27121428E-02 0.35035988E+03</pdfrwt>
<totfact> 0.21733565E+03</totfact>
</mgrwt>
</event>
<event>
 9    1  0.8093459E-001  0.2642325E+03  0.7818608E-02  0.1104627E+00
         -2   -1    0    0    0  501 -0.00000000000E+00  0.00000000000E+00  0.27938944131E+03  0.27938944131E+03  0.00000000000E+00 0.  1.
          2   -1    0    0  501    0  0.00000000000E+00 -0.00000000000E+00 -0.62474456437E+02  0.62474456437E+02  0.00000000000E+00 0.  1.
         35    2    1    2    0    0  0.00000000000E+00  0.53290705182E-14  0.21691498487E+03  0.34186389775E+03  0.26423249974E+03 0.  0.
         25    2    3    3    0    0  0.14062362092E+02 -0.31488811033E+01  0.16145920122E+03  0.20445141062E+03  0.12459390099E+03 0.  0.
         25    2    3    3    0    0 -0.14062362092E+02  0.31488811033E+01  0.55455783651E+02  0.13741248713E+03  0.12489668610E+03 0.  0.
          5    1    4    4  502    0  0.50568274782E+01  0.38352953652E+02  0.15668524435E+03  0.16145859021E+03  0.47000000000E+01 0.  1.
         -5    1    4    4    0  502  0.90055346141E+01 -0.41501834755E+02  0.47739568757E+01  0.42992820401E+02  0.47000000000E+01 0.  1.
          5    1    5    5  503    0 -0.41132586904E+02  0.82152971684E+01  0.86133744701E+02  0.95919199273E+02  0.47000000000E+01 0.  1.
         -5    1    5    5    0  503  0.27070224812E+02 -0.50664160651E+01 -0.30677961050E+02  0.41493287859E+02  0.47000000000E+01 0.  1.
<mgrwt>
<rscale>  0 0.26423250E+03</rscale>
<asrwt>0</asrwt>
<pdfrwt beam="1">  1        2 0.96114550E-02 0.26423250E+03</pdfrwt>
<pdfrwt beam="2">  1       -2 0.42982990E-01 0.26423250E+03</pdfrwt>
<totfact> 0.34680347E+03</totfact>
</mgrwt>
</event>
<event>
 9    1  0.8093459E-001  0.2776124E+03  0.7818608E-02  0.1097000E+00
         -1   -1    0    0    0  501 -0.00000000000E+00  0.00000000000E+00  0.16273523929E+02  0.16273523929E+02  0.00000000000E+00 0. -1.
          1   -1    0    0  501    0  0.00000000000E+00 -0.00000000000E+00 -0.11839576134E+04  0.11839576134E+04  0.00000000000E+00 0. -1.
         35    2    1    2    0    0  0.00000000000E+00  0.00000000000E+00 -0.11676840894E+04  0.12002311373E+04  0.27761241004E+03 0.  0.
         25    2    3    3    0    0  0.38381111998E+02  0.43516086776E+02 -0.67651769188E+03  0.69035281018E+03  0.12467580167E+03 0.  0.
         25    2    3    3    0    0 -0.38381111998E+02 -0.43516086776E+02 -0.49116639755E+03  0.50987832712E+03  0.12395450299E+03 0.  0.
          5    1    4    4  502    0 -0.36922363983E+02  0.48963160744E+02 -0.27852343298E+03  0.28523331641E+03  0.47000000000E+01 0. -1.
         -5    1    4    4    0  502  0.75303475982E+02 -0.54470739678E+01 -0.39799425891E+03  0.40511949377E+03  0.47000000000E+01 0. -1.
          5    1    5    5  503    0 -0.80995927999E+02 -0.40893359911E+02 -0.37978963479E+03  0.39050590767E+03  0.47000000000E+01 0. -1.
         -5    1    5    5    0  503  0.42614816001E+02 -0.26227268658E+01 -0.11137676277E+03  0.11937241944E+03  0.47000000000E+01 0. -1.
<mgrwt>
<rscale>  0 0.27761241E+03</rscale>
<asrwt>0</asrwt>
<pdfrwt beam="1">  1        1 0.18214728E+00 0.27761241E+03</pdfrwt>
<pdfrwt beam="2">  1       -1 0.25036196E-02 0.27761241E+03</pdfrwt>
<totfact> 0.57916108E+03</totfact>
</mgrwt>
</event>
<event>
 9    1  0.8093459E-001  0.2769779E+03  0.7818608E-02  0.1097351E+00
          1   -1    0    0  501    0  0.00000000000E+00  0.00000000000E+00  0.15613833211E+04  0.15613833211E+04  0.00000000000E+00 0.  1.
         -1   -1    0    0    0  501 -0.00000000000E+00 -0.00000000000E+00 -0.12283457916E+02  0.12283457916E+02  0.00000000000E+00 0.  1.
         35    2    1    2    0    0 -0.14210854715E-13 -0.71054273576E-14  0.15490998632E+04  0.15736667790E+04  0.27697787865E+03 0.  0.
         25    2    3    3    0    0 -0.25798815074E+02 -0.47332686216E+02  0.91112931025E+03  0.92130958004E+03  0.12549406453E+03 0.  0.
         25    2    3    3    0    0  0.25798815074E+02  0.47332686216E+02  0.63797055293E+03  0.65235719897E+03  0.12513003876E+03 0.  0.
          5    1    4    4  502    0  0.44161765430E+02  0.56023927173E+01  0.21146450343E+03  0.21615035170E+03  0.47000000000E+01 0. -1.
         -5    1    4    4    0  502 -0.69960580504E+02 -0.52935078933E+02  0.69966480682E+03  0.70515922834E+03  0.47000000000E+01 0. -1.
          5    1    5    5  503    0  0.41818534031E+02  0.29196139595E+02  0.87891977517E+02  0.10172656520E+03  0.47000000000E+01 0.  1.
         -5    1    5    5    0  503 -0.16019718957E+02  0.18136546621E+02  0.55007857541E+03  0.55063063377E+03  0.47000000000E+01 0.  1.
<mgrwt>
<rscale>  0 0.27697788E+03</rscale>
<asrwt>0</asrwt>
<pdfrwt beam="1">  1        1 0.24021266E+00 0.27697788E+03</pdfrwt>
<pdfrwt beam="2">  1       -1 0.18897640E-02 0.27697788E+03</pdfrwt>
<totfact> 0.48561757E+03</totfact>
</mgrwt>
</event>
<event>
 9    1  0.8093459E-001  0.2737293E+03  0.7818608E-02  0.1099164E+00
         -2   -1    0    0    0  501 -0.00000000000E+00  0.00000000000E+00  0.84234626336E+02  0.84234626336E+02  0.00000000000E+00 0.  1.
          2   -1    0    0  501    0  0.00000000000E+00 -0.00000000000E+00 -0.22237801598E+03  0.22237801598E+03  0.00000000000E+00 0.  1.
         35    2    1    2    0    0  0.00000000000E+00 -0.71054273576E-14 -0.13814338965E+03  0.30661264232E+03  0.27372927561E+03 0.  0.
         25    2    3    3    0    0  0.12827660410E+02  0.48187205893E+02 -0.63544323859E+02  0.14892616649E+03  0.12511820926E+03 0.  0.
         25    2    3    3    0    0 -0.12827660410E+02 -0.48187205893E+02 -0.74599065788E+02  0.15768647583E+03  0.12966668176E+03 0.  0.
          5    1    4    4  502    0  0.68993498063E+02  0.25940594826E+02 -0.30506156807E+02  0.79910780487E+02  0.47000000000E+01 0. -1.
         -5    1    4    4    0  502 -0.56165837652E+02  0.22246611067E+02 -0.33038167051E+02  0.69015386004E+02  0.47000000000E+01 0. -1.
          5    1    5    5  503    0 -0.31789443907E+02  0.37265523875E+02 -0.40126857452E+02  0.63494430485E+02  0.47000000000E+01 0.  1.
         -5    1    5    5    0  503  0.18961783497E+02 -0.85452729769E+02 -0.34472208337E+02  0.94192045343E+02  0.47000000000E+01 0.  1.
<mgrwt>
<rscale>  0 0.27372928E+03</rscale>
<asrwt>0</asrwt>
<pdfrwt beam="1">  1        2 0.34212002E-01 0.27372928E+03</pdfrwt>
<pdfrwt beam="2">  1       -2 0.12959174E-01 0.27372928E+03</pdfrwt>
<totfact> 0.65599988E+03</totfact>
</mgrwt>
</event>
<event>
 9    1  0.8093459E-001  0.2728957E+03  0.7818608E-02  0.1099634E+00
         -1   -1    0    0    0  501 -0.00000000000E+00  0.00000000000E+00  0.13291375946E+03  0.13291375946E+03  0.00000000000E+00 0. -1.
          1   -1    0    0  501    0  0.00000000000E+00 -0.00000000000E+00 -0.14007590125E+03  0.14007590125E+03  0.00000000000E+00 0. -1.
         35    2    1    2    0    0  0.71054273576E-14 -0.71054273576E-14 -0.71621417892E+01  0.27298966071E+03  0.27289569175E+03 0.  0.
         25    2    3    3    0    0 -0.34848079848E+02 -0.38868123813E+02  0.12223566353E+02  0.13570074256E+03  0.12466016300E+03 0.  0.
         25    2    3    3    0    0  0.34848079848E+02  0.38868123813E+02 -0.19385708142E+02  0.13728891815E+03  0.12548833272E+03 0.  0.
          5    1    4    4  502    0 -0.23125520048E+02 -0.69589637125E+02  0.47302620328E+02  0.87390704097E+02  0.47000000000E+01 0.  1.
         -5    1    4    4    0  502 -0.11722559801E+02  0.30721513311E+02 -0.35079053975E+02  0.48310038462E+02  0.47000000000E+01 0.  1.
          5    1    5    5  503    0 -0.13437421801E+02 -0.36889580587E+02 -0.25615940176E+02  0.47113393548E+02  0.47000000000E+01 0. -1.
         -5    1    5    5    0  503  0.48285501649E+02  0.75757704400E+02  0.62302320341E+01  0.90175524599E+02  0.47000000000E+01 0. -1.
<mgrwt>
<rscale>  0 0.27289569E+03</rscale>
<asrwt>0</asrwt>
<pdfrwt beam="1">  1        1 0.21550139E-01 0.27289569E+03</pdfrwt>
<pdfrwt beam="2">  1       -1 0.20448271E-01 0.27289569E+03</pdfrwt>
<totfact> 0.44755118E+03</totfact>
</mgrwt>
</event>
<event>
 9    1  0.8093459E-001  0.2770148E+03  0.7818608E-02  0.1097331E+00
          1   -1    0    0  501    0  0.00000000000E+00  0.00000000000E+00  0.78981395791E+02  0.78981395791E+02  0.00000000000E+00 0. -1.
         -1   -1    0    0    0  501 -0.00000000000E+00 -0.00000000000E+00 -0.24289642284E+03  0.24289642284E+03  0.00000000000E+00 0. -1.
         35    2    1    2    0    0  0.14210854715E-13  0.00000000000E+00 -0.16391502705E+03  0.32187781863E+03  0.27701479028E+03 0.  0.
         25    2    3    3    0    0 -0.65249671708E+02  0.21336806220E+02 -0.78970923928E+02  0.15813555782E+03  0.11856504065E+03 0.  0.
         25    2    3    3    0    0  0.65249671708E+02 -0.21336806220E+02 -0.84944103120E+02  0.16374226081E+03  0.12199691947E+03 0.  0.
          5    1    4    4  502    0 -0.20960694400E+02  0.68572322740E+02 -0.46011063119E+02  0.85326561428E+02  0.47000000000E+01 0.  1.
         -5    1    4    4    0  502 -0.44288977307E+02 -0.47235516520E+02 -0.32959860809E+02  0.72808996397E+02  0.47000000000E+01 0.  1.
          5    1    5    5  503    0 -0.14644352265E+02 -0.23830908410E+02 -0.78436674393E+02  0.83407260707E+02  0.47000000000E+01 0. -1.
         -5    1    5    5    0  503  0.79894023972E+02  0.24941021893E+01 -0.65074287272E+01  0.80335000098E+02  0.47000000000E+01 0. -1.
<mgrwt>
<rscale>  0 0.27701479E+03</rscale>
<asrwt>0</asrwt>
<pdfrwt beam="1">  1        1 0.12150984E-01 0.27701479E+03</pdfrwt>
<pdfrwt beam="2">  1       -1 0.37368680E-01 0.27701479E+03</pdfrwt>
<totfact> 0.34233053E+03</totfact>
</mgrwt>
</event>
<event>
 9    1  0.8093459E-001  0.2759603E+03  0.7818608E-02  0.1097916E+00
         -2   -1    0    0    0  501 -0.00000000000E+00  0.00000000000E+00  0.13472913426E+02  0.13472913426E+02  0.00000000000E+00 0.  1.
          2   -1    0    0  501    0  0.00000000000E+00 -0.00000000000E+00 -0.14130965940E+04  0.14130965940E+04  0.00000000000E+00 0.  1.
         35    2    1    2    0    0  0.00000000000E+00 -0.71054273576E-14 -0.13996236806E+04  0.14265695074E+04  0.27596034551E+03 0.  0.
         25    2    3    3    0    0 -0.39653195837E+02 -0.37728593919E+02 -0.79532880862E+03  0.80705619273E+03  0.12568198621E+03 0.  0.
         25    2    3    3    0    0  0.39653195837E+02  0.37728593919E+02 -0.60429487193E+03  0.61951331467E+03  0.12501452748E+03 0.  0.
          5    1    4    4  502    0  0.19288069983E+02  0.15165982244E+02 -0.37338256438E+02  0.44925182859E+02  0.47000000000E+01 0. -1.
         -5    1    4    4    0  502 -0.58941265820E+02 -0.52894576163E+02 -0.75799055219E+03  0.76213100987E+03  0.47000000000E+01 0. -1.
          5    1    5    5  503    0  0.53118951093E+02  0.46611233005E+02 -0.59701539373E+03  0.60120187987E+03  0.47000000000E+01 0.  1.
         -5    1    5    5    0  503 -0.13465755256E+02 -0.88826390860E+01 -0.72794781965E+01  0.18311434804E+02  0.47000000000E+01 0.  1.
<mgrwt>
<rscale>  0 0.27596035E+03</rscale>
<asrwt>0</asrwt>
<pdfrwt beam="1">  1        2 0.21739945E+00 0.27596035E+03</pdfrwt>
<pdfrwt beam="2">  1       -2 0.20727562E-02 0.27596035E+03</pdfrwt>
<totfact> 0.11147265E+04</totfact>
</mgrwt>
</event>
<event>
 9    1  0.8093459E-001  0.2844030E+03  0.7818608E-02  0.1093308E+00
         -1   -1    0    0    0  501 -0.00000000000E+00  0.00000000000E+00  0.23633754800E+02  0.23633754800E+02  0.00000000000E+00 0.  1.
          1   -1    0    0  501    0  0.00000000000E+00 -0.00000000000E+00 -0.85560931886E+03  0.85560931886E+03  0.00000000000E+00 0.  1.
         35    2    1    2    0    0 -0.71054273576E-14  0.00000000000E+00 -0.83197556406E+03  0.87924307366E+03  0.28440295952E+03 0.  0.
         25    2    3    3    0    0  0.41263167336E+02 -0.44795461143E+02 -0.50802436019E+03  0.52658124837E+03  0.12445793777E+03 0.  0.
         25    2    3    3    0    0 -0.41263167336E+02  0.44795461143E+02 -0.32395120386E+03  0.35266182528E+03  0.12536625626E+03 0.  0.
          5    1    4    4  502    0 -0.32496072720E+02 -0.53944816275E+02 -0.20294746829E+03  0.21254600168E+03  0.47000000000E+01 0.  1.
         -5    1    4    4    0  502  0.73759240056E+02  0.91493551318E+01 -0.30507689190E+03  0.31403524669E+03  0.47000000000E+01 0.  1.
          5    1    5    5  503    0 -0.31075802923E+01  0.84149377149E+02 -0.19925487894E+03  0.21636860103E+03  0.47000000000E+01 0. -1.
         -5    1    5    5    0  503 -0.38155587044E+02 -0.39353916006E+02 -0.12469632492E+03  0.13629322425E+03  0.47000000000E+01 0. -1.
<mgrwt>
<rscale>  0 0.28440296E+03</rscale>
<asrwt>0</asrwt>
<pdfrwt beam="1">  1        1 0.13163221E+00 0.28440296E+03</pdfrwt>
<pdfrwt beam="2">  1       -1 0.36359622E-02 0.28440296E+03</pdfrwt>
<totfact> 0.58743162E+03</totfact>
</mgrwt>
</event>
<event>
 9    1  0.8093459E-001  0.2942637E+03  0.7818608E-02  0.1088144E+00
          1   -1    0    0  501    0  0.00000000000E+00  0.00000000000E+00  0.23980890314E+03  0.23980890314E+03  0.00000000000E+00 0. -1.
         -1   -1    0    0    0  501 -0.00000000000E+00 -0.00000000000E+00 -0.90270951224E+02  0.90270951224E+02  0.00000000000E+00 0. -1.
         35    2    1    2    0    0 -0.14210854715E-13  0.14210854715E-13  0.14953795191E+03  0.33007985436E+03  0.29426367631E+03 0.  0.
         25    2    3    3    0    0 -0.65472984711E+02  0.25580829380E+02  0.51037378609E+02  0.15513013268E+03  0.12852802609E+03 0.  0.
         25    2    3    3    0    0  0.65472984711E+02 -0.25580829380E+02  0.98500573306E+02  0.17494972168E+03  0.12634853231E+03 0.  0.
          5    1    4    4  502    0 -0.29919301019E+02 -0.41742151231E+02  0.59086226217E+02  0.78427315977E+02  0.47000000000E+01 0. -1.
         -5    1    4    4    0  502 -0.35553683692E+02  0.67322980612E+02 -0.80488476079E+01  0.76702816704E+02  0.47000000000E+01 0. -1.
          5    1    5    5  503    0 -0.32990182556E+02 -0.31130303429E+02  0.35989829766E+02  0.58093078618E+02  0.47000000000E+01 0. -1.
         -5    1    5    5    0  503  0.98463167267E+02  0.55494740490E+01  0.62510743540E+02  0.11685664306E+03  0.47000000000E+01 0. -1.
<mgrwt>
<rscale>  0 0.29426368E+03</rscale>
<asrwt>0</asrwt>
<pdfrwt beam="1">  1        1 0.36893677E-01 0.29426368E+03</pdfrwt>
<pdfrwt beam="2">  1       -1 0.13887839E-01 0.29426368E+03</pdfrwt>
<totfact> 0.42180758E+03</totfact>
</mgrwt>
</event>
<event>
 9    1  0.8093459E-001  0.2744589E+03  0.7818608E-02  0.1098754E+00
          1   -1    0    0  501    0  0.00000000000E+00  0.00000000000E+00  0.89243274664E+03  0.89243274664E+03  0.00000000000E+00 0. -1.
         -1   -1    0    0    0  501 -0.00000000000E+00 -0.00000000000E+00 -0.21101775533E+02  0.21101775533E+02  0.00000000000E+00 0. -1.
         35    2    1    2    0    0  0.71054273576E-14  0.00000000000E+00  0.87133097111E+03  0.91353452217E+03  0.27445885300E+03 0.  0.
         25    2    3    3    0    0  0.31169719202E+02  0.43443350997E+02  0.36220981246E+03  0.38673964066E+03  0.12455009143E+03 0.  0.
         25    2    3    3    0    0 -0.31169719202E+02 -0.43443350997E+02  0.50912115865E+03  0.52679488151E+03  0.12429648773E+03 0.  0.
          5    1    4    4  502    0 -0.50118144502E+01  0.81724857987E+02  0.23824577866E+03  0.25196668777E+03  0.47000000000E+01 0.  1.
         -5    1    4    4    0  502  0.36181533652E+02 -0.38281506990E+02  0.12396403380E+03  0.13477295289E+03  0.47000000000E+01 0.  1.
          5    1    5    5  503    0 -0.64331718183E+02 -0.64542672943E+02  0.28645704924E+03  0.30063941467E+03  0.47000000000E+01 0.  1.
         -5    1    5    5    0  503  0.33161998981E+02  0.21099321945E+02  0.22266410941E+03  0.22615546684E+03  0.47000000000E+01 0.  1.
<mgrwt>
<rscale>  0 0.27445885E+03</rscale>
<asrwt>0</asrwt>
<pdfrwt beam="1">  1        1 0.13729732E+00 0.27445885E+03</pdfrwt>
<pdfrwt beam="2">  1       -1 0.32464277E-02 0.27445885E+03</pdfrwt>
<totfact> 0.64885479E+03</totfact>
</mgrwt>
</event>
<event>
 9    1  0.8093459E-001  0.2745483E+03  0.7818608E-02  0.1098704E+00
         -1   -1    0    0    0  501 -0.00000000000E+00  0.00000000000E+00  0.43882630656E+02  0.43882630656E+02  0.00000000000E+00 0.  1.
          1   -1    0    0  501    0  0.00000000000E+00 -0.00000000000E+00 -0.42942262997E+03  0.42942262997E+03  0.00000000000E+00 0.  1.
         35    2    1    2    0    0  0.00000000000E+00  0.00000000000E+00 -0.38553999931E+03  0.47330526062E+03  0.27454831754E+03 0.  0.
         25    2    3    3    0    0  0.48479757029E+02 -0.67417751270E+01 -0.24029529482E+03  0.27525194852E+03  0.12500427224E+03 0.  0.
         25    2    3    3    0    0 -0.48479757029E+02  0.67417751270E+01 -0.14524470450E+03  0.19805331211E+03  0.12543265874E+03 0.  0.
          5    1    4    4  502    0  0.26229461125E+02  0.44729277592E+02 -0.35874995916E+02  0.63228144341E+02  0.47000000000E+01 0.  1.
         -5    1    4    4    0  502  0.22250295904E+02 -0.51471052719E+02 -0.20442029890E+03  0.21202380418E+03  0.47000000000E+01 0.  1.
          5    1    5    5  503    0 -0.23720111733E+02 -0.48288004099E+02 -0.12163633270E+03  0.13308592140E+03  0.47000000000E+01 0.  1.
         -5    1    5    5    0  503 -0.24759645296E+02  0.55029779226E+02 -0.23608371793E+02  0.64967390709E+02  0.47000000000E+01 0.  1.
<mgrwt>
<rscale>  0 0.27454832E+03</rscale>
<asrwt>0</asrwt>
<pdfrwt beam="1">  1        1 0.66065022E-01 0.27454832E+03</pdfrwt>
<pdfrwt beam="2">  1       -1 0.67511738E-02 0.27454832E+03</pdfrwt>
<totfact> 0.61338737E+03</totfact>
</mgrwt>
</event>
<event>
 9    1  0.8093459E-001  0.2722401E+03  0.7818608E-02  0.1100004E+00
          2   -1    0    0  501    0  0.00000000000E+00  0.00000000000E+00  0.16358041927E+03  0.16358041927E+03  0.00000000000E+00 0.  1.
         -2   -1    0    0    0  501 -0.00000000000E+00 -0.00000000000E+00 -0.11326945547E+03  0.11326945547E+03  0.00000000000E+00 0.  1.
         35    2    1    2    0    0  0.00000000000E+00  0.00000000000E+00  0.50310963800E+02  0.27684987474E+03  0.27224007799E+03 0.  0.
         25    2    3    3    0    0 -0.23629507859E+02  0.14849550973E+02 -0.25078107152E+02  0.13043400600E+03  0.12492099767E+03 0.  0.
         25    2    3    3    0    0  0.23629507859E+02 -0.14849550973E+02  0.75389070952E+02  0.14641586874E+03  0.12237332958E+03 0.  0.
          5    1    4    4  502    0  0.20479906947E+02 -0.42810633800E+02  0.11427576588E+02  0.49039335860E+02  0.47000000000E+01 0. -1.
         -5    1    4    4    0  502 -0.44109414806E+02  0.57660184773E+02 -0.36505683740E+02  0.81394670144E+02  0.47000000000E+01 0. -1.
          5    1    5    5  503    0 -0.49966667417E+02 -0.76679966457E+01  0.38041088426E+02  0.63440369119E+02  0.47000000000E+01 0. -1.
         -5    1    5    5    0  503  0.73596175276E+02 -0.71815543270E+01  0.37347982525E+02  0.82975499616E+02  0.47000000000E+01 0. -1.
<mgrwt>
<rscale>  0 0.27224008E+03</rscale>
<asrwt>0</asrwt>
<pdfrwt beam="1">  1        2 0.25166218E-01 0.27224008E+03</pdfrwt>
<pdfrwt beam="2">  1       -2 0.17426070E-01 0.27224008E+03</pdfrwt>
<totfact> 0.56360931E+03</totfact>
</mgrwt>
</event>
<event>
 9    1  0.8093459E-001  0.2779720E+03  0.7818608E-02  0.1096802E+00
          1   -1    0    0  501    0  0.00000000000E+00  0.00000000000E+00  0.35475196711E+03  0.35475196711E+03  0.00000000000E+00 0.  1.
         -1   -1    0    0    0  501 -0.00000000000E+00 -0.00000000000E+00 -0.54452442246E+02  0.54452442246E+02  0.00000000000E+00 0.  1.
         35    2    1    2    0    0 -0.71054273576E-14  0.00000000000E+00  0.30029952486E+03  0.40920440936E+03  0.27797202018E+03 0.  0.
         25    2    3    3    0    0 -0.48796372568E+02  0.28075544309E+02  0.12972040299E+03  0.18942620211E+03  0.12603801383E+03 0.  0.
         25    2    3    3    0    0  0.48796372568E+02 -0.28075544309E+02  0.17057912187E+03  0.21977820724E+03  0.12663293962E+03 0.  0.
          5    1    4    4  502    0  0.99056564955E+00  0.63252423640E+02  0.10662612985E+03  0.12406881915E+03  0.47000000000E+01 0. -1.
         -5    1    4    4    0  502 -0.49786938218E+02 -0.35176879332E+02  0.23094273137E+02  0.65357382968E+02  0.47000000000E+01 0. -1.
          5    1    5    5  503    0  0.73084833413E+02 -0.59543627983E+02  0.14234112811E+03  0.17079204683E+03  0.47000000000E+01 0.  1.
         -5    1    5    5    0  503 -0.24288460845E+02  0.31468083674E+02  0.28237993763E+02  0.48986160414E+02  0.47000000000E+01 0.  1.
<mgrwt>
<rscale>  0 0.27797202E+03</rscale>
<asrwt>0</asrwt>
<pdfrwt beam="1">  1        1 0.54577224E-01 0.27797202E+03</pdfrwt>
<pdfrwt beam="2">  1       -1 0.83772990E-02 0.27797202E+03</pdfrwt>
<totfact> 0.56411391E+03</totfact>
</mgrwt>
</event>
<event>
 9    1  0.8093459E-001  0.2593411E+03  0.7818608E-02  0.1107540E+00
         -1   -1    0    0    0  501 -0.00000000000E+00  0.00000000000E+00  0.18181064501E+02  0.18181064501E+02  0.00000000000E+00 0.  1.
          1   -1    0    0  501    0  0.00000000000E+00 -0.00000000000E+00 -0.92483335267E+03  0.92483335267E+03  0.00000000000E+00 0.  1.
         35    2    1    2    0    0 -0.35527136788E-14 -0.53290705182E-14 -0.90665228816E+03  0.94301441717E+03  0.25934112545E+03 0.  0.
         25    2    3    3    0    0  0.26958939030E+02  0.15483215759E+02 -0.32885965019E+03  0.35257631575E+03  0.12326749181E+03 0.  0.
         25    2    3    3    0    0 -0.26958939030E+02 -0.15483215759E+02 -0.57779263797E+03  0.59043810142E+03  0.11750023298E+03 0.  0.
          5    1    4    4  502    0  0.68846050865E+02  0.94432553826E+01 -0.11443111190E+03  0.13396090162E+03  0.47000000000E+01 0.  1.
         -5    1    4    4    0  502 -0.41887111835E+02  0.60399603764E+01 -0.21442853829E+03  0.21861541413E+03  0.47000000000E+01 0.  1.
          5    1    5    5  503    0  0.54818804718E+01  0.38145481559E+02 -0.82556381826E+02  0.91229243980E+02  0.47000000000E+01 0. -1.
         -5    1    5    5    0  503 -0.32440819501E+02 -0.53628697318E+02 -0.49523625615E+03  0.49920885744E+03  0.47000000000E+01 0. -1.
<mgrwt>
<rscale>  0 0.25934113E+03</rscale>
<asrwt>0</asrwt>
<pdfrwt beam="1">  1        1 0.14228210E+00 0.25934113E+03</pdfrwt>
<pdfrwt beam="2">  1       -1 0.27970860E-02 0.25934113E+03</pdfrwt>
<totfact> 0.76140089E+03</totfact>
</mgrwt>
</event>
<event>
 9    1  0.8093459E-001  0.2777731E+03  0.7818608E-02  0.1096911E+00
         -2   -1    0    0    0  501 -0.00000000000E+00  0.00000000000E+00  0.42030980676E+02  0.42030980676E+02  0.00000000000E+00 0. -1.
          2   -1    0    0  501    0  0.00000000000E+00 -0.00000000000E+00 -0.45893472324E+03  0.45893472324E+03  0.00000000000E+00 0. -1.
         35    2    1    2    0    0  0.35527136788E-14 -0.71054273576E-14 -0.41690374256E+03  0.50096570391E+03  0.27777311953E+03 0.  0.
         25    2    3    3    0    0  0.13526347037E+02  0.47537831123E+02 -0.28170895927E+03  0.31143704398E+03  0.12324888306E+03 0.  0.
         25    2    3    3    0    0 -0.13526347037E+02 -0.47537831123E+02 -0.13519478329E+03  0.18952865994E+03  0.12329102180E+03 0.  0.
          5    1    4    4  502    0 -0.31542309060E+02 -0.28768926369E+02 -0.73957566158E+02  0.85524148504E+02  0.47000000000E+01 0. -1.
         -5    1    4    4    0  502  0.45068656098E+02  0.76306757492E+02 -0.20775139311E+03  0.22591289547E+03  0.47000000000E+01 0. -1.
          5    1    5    5  503    0  0.20866558446E+02 -0.81347150595E+02 -0.91416988584E+02  0.12422531132E+03  0.47000000000E+01 0. -1.
         -5    1    5    5    0  503 -0.34392905483E+02  0.33809319472E+02 -0.43777794707E+02  0.65303348614E+02  0.47000000000E+01 0. -1.
<mgrwt>
<rscale>  0 0.27777312E+03</rscale>
<asrwt>0</asrwt>
<pdfrwt beam="1">  1        2 0.70605339E-01 0.27777312E+03</pdfrwt>
<pdfrwt beam="2">  1       -2 0.64663050E-02 0.27777312E+03</pdfrwt>
<totfact> 0.89862681E+03</totfact>
</mgrwt>
</event>
<event>
 9    1  0.8093459E-001  0.2759356E+03  0.7818608E-02  0.1097930E+00
          1   -1    0    0  501    0  0.00000000000E+00  0.00000000000E+00  0.77764388676E+03  0.77764388676E+03  0.00000000000E+00 0. -1.
         -1   -1    0    0    0  501 -0.00000000000E+00 -0.00000000000E+00 -0.24477938601E+02  0.24477938601E+02  0.00000000000E+00 0. -1.
         35    2    1    2    0    0  0.35527136788E-14 -0.88817841970E-15  0.75316594816E+03  0.80212182536E+03  0.27593563969E+03 0.  0.
         25    2    3    3    0    0 -0.35500158171E+01 -0.29278334046E+01  0.20838308838E+03  0.24304477354E+03  0.12500430233E+03 0.  0.
         25    2    3    3    0    0  0.35500158171E+01  0.29278334046E+01  0.54478285977E+03  0.55907705182E+03  0.12552932226E+03 0.  0.
          5    1    4    4  502    0 -0.62008684280E+02  0.94822227748E+01  0.83735850397E+02  0.10473190592E+03  0.47000000000E+01 0. -1.
         -5    1    4    4    0  502  0.58458668463E+02 -0.12410056179E+02  0.12464723799E+03  0.13831286762E+03  0.47000000000E+01 0. -1.
          5    1    5    5  503    0  0.17446066736E+02 -0.27108853111E+00  0.54372558013E+03  0.54402576706E+03  0.47000000000E+01 0.  1.
         -5    1    5    5    0  503 -0.13896050919E+02  0.31989219357E+01  0.10572796418E+01  0.15051284761E+02  0.47000000000E+01 0.  1.
<mgrwt>
<rscale>  0 0.27593564E+03</rscale>
<asrwt>0</asrwt>
<pdfrwt beam="1">  1        1 0.11963750E+00 0.27593564E+03</pdfrwt>
<pdfrwt beam="2">  1       -1 0.37658373E-02 0.27593564E+03</pdfrwt>
<totfact> 0.64646310E+03</totfact>
</mgrwt>
</event>
<event>
 9    1  0.8093459E-001  0.2741858E+03  0.7818608E-02  0.1098908E+00
         -2   -1    0    0    0  501 -0.00000000000E+00  0.00000000000E+00  0.25768697739E+02  0.25768697739E+02  0.00000000000E+00 0.  1.
          2   -1    0    0  501    0  0.00000000000E+00 -0.00000000000E+00 -0.72935231507E+03  0.72935231507E+03  0.00000000000E+00 0.  1.
         35    2    1    2    0    0  0.71054273576E-14 -0.35527136788E-14 -0.70358361733E+03  0.75512101281E+03  0.27418577171E+03 0.  0.
         25    2    3    3    0    0 -0.55774936980E+02 -0.96948923281E-01 -0.35544109595E+03  0.38086511740E+03  0.12493603148E+03 0.  0.
         25    2    3    3    0    0  0.55774936980E+02  0.96948923281E-01 -0.34814252138E+03  0.37425589542E+03  0.12551257732E+03 0.  0.
          5    1    4    4  502    0 -0.83089182340E+02 -0.27909499865E+02 -0.17012443585E+03  0.19143449553E+03  0.47000000000E+01 0.  1.
         -5    1    4    4    0  502  0.27314245359E+02  0.27812550942E+02 -0.18531666010E+03  0.18943062186E+03  0.47000000000E+01 0.  1.
          5    1    5    5  503    0  0.16612167216E+02 -0.32268914846E+02 -0.30571399575E+03  0.30789671022E+03  0.47000000000E+01 0. -1.
         -5    1    5    5    0  503  0.39162769764E+02  0.32365863769E+02 -0.42428525629E+02  0.66359185198E+02  0.47000000000E+01 0. -1.
<mgrwt>
<rscale>  0 0.27418577E+03</rscale>
<asrwt>0</asrwt>
<pdfrwt beam="1">  1        2 0.11220805E+00 0.27418577E+03</pdfrwt>
<pdfrwt beam="2">  1       -2 0.39644151E-02 0.27418577E+03</pdfrwt>
<totfact> 0.11062481E+04</totfact>
</mgrwt>
</event>
<event>
 9    1  0.8093459E-001  0.2789944E+03  0.7818608E-02  0.1096239E+00
         -2   -1    0    0    0  501 -0.00000000000E+00  0.00000000000E+00  0.41396002196E+02  0.41396002196E+02  0.00000000000E+00 0. -1.
          2   -1    0    0  501    0  0.00000000000E+00 -0.00000000000E+00 -0.47008086398E+03  0.47008086398E+03  0.00000000000E+00 0. -1.
         35    2    1    2    0    0  0.00000000000E+00  0.00000000000E+00 -0.42868486179E+03  0.51147686618E+03  0.27899439763E+03 0.  0.
         25    2    3    3    0    0 -0.49867004486E+02  0.25283327885E+02 -0.16647323177E+03  0.21534448416E+03  0.12463524845E+03 0.  0.
         25    2    3    3    0    0  0.49867004486E+02 -0.25283327885E+02 -0.26221163002E+03  0.29613238202E+03  0.12575167577E+03 0.  0.
          5    1    4    4  502    0 -0.56001316058E+02 -0.26664818636E+02 -0.14649338069E+03  0.15915263284E+03  0.47000000000E+01 0.  1.
         -5    1    4    4    0  502  0.61343115725E+01  0.51948146521E+02 -0.19979851072E+02  0.56191851316E+02  0.47000000000E+01 0.  1.
          5    1    5    5  503    0  0.10836577130E+02 -0.73043004133E+02 -0.11893459191E+03  0.14007226352E+03  0.47000000000E+01 0. -1.
         -5    1    5    5    0  503  0.39030427356E+02  0.47759676248E+02 -0.14327703811E+03  0.15606011850E+03  0.47000000000E+01 0. -1.
<mgrwt>
<rscale>  0 0.27899440E+03</rscale>
<asrwt>0</asrwt>
<pdfrwt beam="1">  1        2 0.72320132E-01 0.27899440E+03</pdfrwt>
<pdfrwt beam="2">  1       -2 0.63686158E-02 0.27899440E+03</pdfrwt>
<totfact> 0.89599957E+03</totfact>
</mgrwt>
</event>
<event>
 9    1  0.8093459E-001  0.2708480E+03  0.7818608E-02  0.1100795E+00
         -2   -1    0    0    0  501 -0.00000000000E+00  0.00000000000E+00  0.31069551936E+02  0.31069551936E+02  0.00000000000E+00 0. -1.
          2   -1    0    0  501    0  0.00000000000E+00 -0.00000000000E+00 -0.59027750548E+03  0.59027750548E+03  0.00000000000E+00 0. -1.
         35    2    1    2    0    0 -0.14210854715E-13  0.35527136788E-14 -0.55920795354E+03  0.62134705742E+03  0.27084798403E+03 0.  0.
         25    2    3    3    0    0 -0.46794185648E+02 -0.69077457800E+01 -0.32673775904E+03  0.35321071161E+03  0.12555011292E+03 0.  0.
         25    2    3    3    0    0  0.46794185648E+02  0.69077457800E+01 -0.23247019451E+03  0.26813634581E+03  0.12496917958E+03 0.  0.
          5    1    4    4  502    0 -0.82579424060E+02 -0.31468728963E+02 -0.24586322727E+03  0.26130529788E+03  0.47000000000E+01 0.  1.
         -5    1    4    4    0  502  0.35785238411E+02  0.24560983183E+02 -0.80874531770E+02  0.91905413726E+02  0.47000000000E+01 0.  1.
          5    1    5    5  503    0  0.12587933995E+02 -0.56034222665E+02 -0.71104909447E+02  0.91522064768E+02  0.47000000000E+01 0. -1.
         -5    1    5    5    0  503  0.34206251654E+02  0.62941968445E+02 -0.16136528506E+03  0.17661428104E+03  0.47000000000E+01 0. -1.
<mgrwt>
<rscale>  0 0.27084798E+03</rscale>
<asrwt>0</asrwt>
<pdfrwt beam="1">  1        2 0.90811918E-01 0.27084798E+03</pdfrwt>
<pdfrwt beam="2">  1       -2 0.47799314E-02 0.27084798E+03</pdfrwt>
<totfact> 0.10725332E+04</totfact>
</mgrwt>
</event>
<event>
 9    1  0.8093459E-001  0.2707564E+03  0.7818608E-02  0.1100848E+00
         -2   -1    0    0    0  501 -0.00000000000E+00  0.00000000000E+00  0.82687366289E+02  0.82687366289E+02  0.00000000000E+00 0. -1.
          2   -1    0    0  501    0  0.00000000000E+00 -0.00000000000E+00 -0.22164511209E+03  0.22164511209E+03  0.00000000000E+00 0. -1.
         35    2    1    2    0    0 -0.35527136788E-14 -0.71054273576E-14 -0.13895774580E+03  0.30433247838E+03  0.27075635224E+03 0.  0.
         25    2    3    3    0    0  0.22086042375E+02  0.50005147837E+02 -0.58414547308E+02  0.14787824709E+03  0.12436803667E+03 0.  0.
         25    2    3    3    0    0 -0.22086042375E+02 -0.50005147837E+02 -0.80543198493E+02  0.15645423129E+03  0.12248433201E+03 0.  0.
          5    1    4    4  502    0  0.23296485475E+02  0.66038463148E+02  0.15678903168E+02  0.71914691510E+02  0.47000000000E+01 0.  1.
         -5    1    4    4    0  502 -0.12104430998E+01 -0.16033315312E+02 -0.74093450476E+02  0.75963555577E+02  0.47000000000E+01 0.  1.
          5    1    5    5  503    0  0.34800403019E+02  0.36272111256E+00  0.11552052783E+02  0.36969440629E+02  0.47000000000E+01 0.  1.
         -5    1    5    5    0  503 -0.56886445395E+02 -0.50367868949E+02 -0.92095251276E+02  0.11948479066E+03  0.47000000000E+01 0.  1.
<mgrwt>
<rscale>  0 0.27075635E+03</rscale>
<asrwt>0</asrwt>
<pdfrwt beam="1">  1        2 0.34099247E-01 0.27075635E+03</pdfrwt>
<pdfrwt beam="2">  1       -2 0.12721134E-01 0.27075635E+03</pdfrwt>
<totfact> 0.67821382E+03</totfact>
</mgrwt>
</event>
<event>
 9    1  0.8093459E-001  0.2754809E+03  0.7818608E-02  0.1098183E+00
          1   -1    0    0  501    0  0.00000000000E+00  0.00000000000E+00  0.35122877243E+03  0.35122877243E+03  0.00000000000E+00 0. -1.
         -1   -1    0    0    0  501 -0.00000000000E+00 -0.00000000000E+00 -0.54017291720E+02  0.54017291720E+02  0.00000000000E+00 0. -1.
         35    2    1    2    0    0 -0.14210854715E-13 -0.14210854715E-13  0.29721148071E+03  0.40524606415E+03  0.27548086729E+03 0.  0.
         25    2    3    3    0    0 -0.43475864346E+02 -0.40051211524E+02  0.12142099091E+03  0.18426117975E+03  0.12535898454E+03 0.  0.
         25    2    3    3    0    0  0.43475864346E+02  0.40051211524E+02  0.17579048980E+03  0.22098488440E+03  0.12015728235E+03 0.  0.
          5    1    4    4  502    0 -0.68762424880E+02 -0.42277759956E+02  0.25282718187E+02  0.84717093323E+02  0.47000000000E+01 0. -1.
         -5    1    4    4    0  502  0.25286560534E+02  0.22265484323E+01  0.96138272720E+02  0.99544086429E+02  0.47000000000E+01 0. -1.
          5    1    5    5  503    0 -0.59395132735E+01  0.35479948974E+02  0.16633766564E+03  0.17024809428E+03  0.47000000000E+01 0. -1.
         -5    1    5    5    0  503  0.49415377619E+02  0.45712625497E+01  0.94528241669E+01  0.50736790116E+02  0.47000000000E+01 0. -1.
<mgrwt>
<rscale>  0 0.27548087E+03</rscale>
<asrwt>0</asrwt>
<pdfrwt beam="1">  1        1 0.54035194E-01 0.27548087E+03</pdfrwt>
<pdfrwt beam="2">  1       -1 0.83103528E-02 0.27548087E+03</pdfrwt>
<totfact> 0.57819965E+03</totfact>
</mgrwt>
</event>
<event>
 9    1  0.8093459E-001  0.2744798E+03  0.7818608E-02  0.1098743E+00
         -1   -1    0    0    0  501 -0.00000000000E+00  0.00000000000E+00  0.68168663330E+02  0.68168663330E+02  0.00000000000E+00 0. -1.
          1   -1    0    0  501    0  0.00000000000E+00 -0.00000000000E+00 -0.27629699060E+03  0.27629699060E+03  0.00000000000E+00 0. -1.
         35    2    1    2    0    0  0.00000000000E+00  0.00000000000E+00 -0.20812832727E+03  0.34446565393E+03  0.27447984648E+03 0.  0.
         25    2    3    3    0    0  0.29256275529E+02 -0.44764741112E+02 -0.12646908646E+03  0.18569671377E+03  0.12501611085E+03 0.  0.
         25    2    3    3    0    0 -0.29256275529E+02  0.44764741112E+02 -0.81659240806E+02  0.15876894015E+03  0.12521794218E+03 0.  0.
          5    1    4    4  502    0 -0.39089403434E+02 -0.44177277577E+02 -0.27311663067E+02  0.65173846399E+02  0.47000000000E+01 0.  1.
         -5    1    4    4    0  502  0.68345678963E+02 -0.58746353472E+00 -0.99157423394E+02  0.12052286738E+03  0.47000000000E+01 0.  1.
          5    1    5    5  503    0 -0.78642433364E+02  0.26494632837E+02 -0.53802707876E+02  0.99012217779E+02  0.47000000000E+01 0. -1.
         -5    1    5    5    0  503  0.49386157835E+02  0.18270108275E+02 -0.27856532929E+02  0.59756722374E+02  0.47000000000E+01 0. -1.
<mgrwt>
<rscale>  0 0.27447985E+03</rscale>
<asrwt>0</asrwt>
<pdfrwt beam="1">  1        1 0.42507229E-01 0.27447985E+03</pdfrwt>
<pdfrwt beam="2">  1       -1 0.10487487E-01 0.27447985E+03</pdfrwt>
<totfact> 0.54672958E+03</totfact>
</mgrwt>
</event>
<event>
 9    1  0.8093459E-001  0.2705087E+03  0.7818608E-02  0.1100989E+00
          2   -1    0    0  501    0  0.00000000000E+00  0.00000000000E+00  0.36001612626E+02  0.36001612626E+02  0.00000000000E+00 0.  1.
         -2   -1    0    0    0  501 -0.00000000000E+00 -0.00000000000E+00 -0.50813678329E+03  0.50813678329E+03  0.00000000000E+00 0.  1.
         35    2    1    2    0    0  0.00000000000E+00  0.00000000000E+00 -0.47213517066E+03  0.54413839591E+03  0.27050873282E+03 0.  0.
         25    2    3    3    0    0 -0.27342117605E+01 -0.10029655872E+01 -0.33873683028E+03  0.36160082711E+03  0.12650705957E+03 0.  0.
         25    2    3    3    0    0  0.27342117605E+01  0.10029655872E+01 -0.13339834038E+03  0.18253756881E+03  0.12456470189E+03 0.  0.
          5    1    4    4  502    0 -0.24116553334E+02 -0.51312906731E+02 -0.25655042847E+03  0.26278286643E+03  0.47000000000E+01 0.  1.
         -5    1    4    4    0  502  0.21382341573E+02  0.50309941144E+02 -0.82186401812E+02  0.98817960674E+02  0.47000000000E+01 0.  1.
          5    1    5    5  503    0  0.51663943488E+02 -0.27774551187E+02 -0.10131511895E+03  0.11716412454E+03  0.47000000000E+01 0.  1.
         -5    1    5    5    0  503 -0.48929731728E+02  0.28777516774E+02 -0.32083221427E+02  0.65373444270E+02  0.47000000000E+01 0.  1.
<mgrwt>
<rscale>  0 0.27050873E+03</rscale>
<asrwt>0</asrwt>
<pdfrwt beam="1">  1        2 0.55387097E-02 0.27050873E+03</pdfrwt>
<pdfrwt beam="2">  1       -2 0.78174889E-01 0.27050873E+03</pdfrwt>
<totfact> 0.20521881E+03</totfact>
</mgrwt>
</event>
<event>
 9    1  0.8093459E-001  0.2767287E+03  0.7818608E-02  0.1097489E+00
          1   -1    0    0  501    0  0.00000000000E+00  0.00000000000E+00  0.11244184259E+04  0.11244184259E+04  0.00000000000E+00 0.  1.
         -1   -1    0    0    0  501 -0.00000000000E+00 -0.00000000000E+00 -0.17026301395E+02  0.17026301395E+02  0.00000000000E+00 0.  1.
         35    2    1    2    0    0  0.00000000000E+00  0.00000000000E+00  0.11073921245E+04  0.11414447272E+04  0.27672865419E+03 0.  0.
         25    2    3    3    0    0 -0.50122425203E+02 -0.17302595373E+02  0.45667970562E+03  0.47656526876E+03  0.12548491759E+03 0.  0.
         25    2    3    3    0    0  0.50122425203E+02  0.17302595373E+02  0.65071241883E+03  0.66487945849E+03  0.12580304043E+03 0.  0.
          5    1    4    4  502    0 -0.53155525223E+02 -0.41202993229E+02  0.44371100310E+03  0.44880367733E+03  0.47000000000E+01 0. -1.
         -5    1    4    4    0  502  0.30331000203E+01  0.23900397856E+02  0.12968702522E+02  0.27761591427E+02  0.47000000000E+01 0. -1.
          5    1    5    5  503    0 -0.20688325142E+00  0.26204215839E+02  0.56016093072E+03  0.56079324357E+03  0.47000000000E+01 0. -1.
         -5    1    5    5    0  503  0.50329308454E+02 -0.89016204667E+01  0.90551488107E+02  0.10408621491E+03  0.47000000000E+01 0. -1.
<mgrwt>
<rscale>  0 0.27672865E+03</rscale>
<asrwt>0</asrwt>
<pdfrwt beam="1">  1        1 0.17298739E+00 0.27672865E+03</pdfrwt>
<pdfrwt beam="2">  1       -1 0.26194319E-02 0.27672865E+03</pdfrwt>
<totfact> 0.59719256E+03</totfact>
</mgrwt>
</event>
<event>
 9    1  0.8093459E-001  0.2771508E+03  0.7818608E-02  0.1097255E+00
          2   -1    0    0  501    0  0.00000000000E+00  0.00000000000E+00  0.61654992637E+03  0.61654992637E+03  0.00000000000E+00 0.  1.
         -2   -1    0    0    0  501 -0.00000000000E+00 -0.00000000000E+00 -0.31146125154E+02  0.31146125154E+02  0.00000000000E+00 0.  1.
         35    2    1    2    0    0 -0.17763568394E-14  0.14210854715E-13  0.58540380122E+03  0.64769605153E+03  0.27715079773E+03 0.  0.
         25    2    3    3    0    0  0.12552065696E+02 -0.58542293102E+02  0.28873476517E+03  0.32031332395E+03  0.12509239166E+03 0.  0.
         25    2    3    3    0    0 -0.12552065696E+02  0.58542293102E+02  0.29666903605E+03  0.32738272757E+03  0.12482859819E+03 0.  0.
          5    1    4    4  502    0 -0.11251364610E+02  0.20753393369E+02  0.48358201644E+01  0.24551409299E+02  0.47000000000E+01 0. -1.
         -5    1    4    4    0  502  0.23803430306E+02 -0.79295686471E+02  0.28389894500E+03  0.29576191465E+03  0.47000000000E+01 0. -1.
          5    1    5    5  503    0  0.53638345378E+02  0.94026235889E+01  0.97495938550E+02  0.11177222132E+03  0.47000000000E+01 0. -1.
         -5    1    5    5    0  503 -0.66190411074E+02  0.49139669513E+02  0.19917309750E+03  0.21561050625E+03  0.47000000000E+01 0. -1.
<mgrwt>
<rscale>  0 0.27715080E+03</rscale>
<asrwt>0</asrwt>
<pdfrwt beam="1">  1        2 0.94853826E-01 0.27715080E+03</pdfrwt>
<pdfrwt beam="2">  1       -2 0.47917120E-02 0.27715080E+03</pdfrwt>
<totfact> 0.10166575E+04</totfact>
</mgrwt>
</event>
<event>
 9    1  0.8093459E-001  0.2630612E+03  0.7818608E-02  0.1105318E+00
         -3   -1    0    0    0  501 -0.00000000000E+00  0.00000000000E+00  0.34705203151E+03  0.34705203151E+03  0.00000000000E+00 0. -1.
          3   -1    0    0  501    0  0.00000000000E+00 -0.00000000000E+00 -0.49849303251E+02  0.49849303251E+02  0.00000000000E+00 0. -1.
         35    2    1    2    0    0  0.00000000000E+00  0.00000000000E+00  0.29720272826E+03  0.39690133477E+03  0.26306122453E+03 0.  0.
         25    2    3    3    0    0 -0.10059686055E+02 -0.15418148713E+02  0.92532011226E+02  0.15631985739E+03  0.12463871035E+03 0.  0.
         25    2    3    3    0    0  0.10059686055E+02  0.15418148713E+02  0.20467071704E+03  0.24058147738E+03  0.12510167166E+03 0.  0.
          5    1    4    4  502    0 -0.53758217384E+01 -0.64246873339E+02  0.84502728285E+02  0.10639248696E+03  0.47000000000E+01 0. -1.
         -5    1    4    4    0  502 -0.46838643169E+01  0.48828724626E+02  0.80292829410E+01  0.49927370430E+02  0.47000000000E+01 0. -1.
          5    1    5    5  503    0  0.32308922955E+02  0.58471216843E+02  0.67754456164E+02  0.95265450357E+02  0.47000000000E+01 0.  1.
         -5    1    5    5    0  503 -0.22249236900E+02 -0.43053068130E+02  0.13691626087E+03  0.14531602702E+03  0.47000000000E+01 0.  1.
<mgrwt>
<rscale>  0 0.26306122E+03</rscale>
<asrwt>0</asrwt>
<pdfrwt beam="1">  1        3 0.76691238E-02 0.26306122E+03</pdfrwt>
<pdfrwt beam="2">  1       -3 0.53392619E-01 0.26306122E+03</pdfrwt>
<totfact> 0.10119276E+03</totfact>
</mgrwt>
</event>
<event>
 9    1  0.8093459E-001  0.2761680E+03  0.7818608E-02  0.1097800E+00
          2   -1    0    0  501    0  0.00000000000E+00  0.00000000000E+00  0.13066182577E+04  0.13066182577E+04  0.00000000000E+00 0. -1.
         -2   -1    0    0    0  501 -0.00000000000E+00 -0.00000000000E+00 -0.14592777677E+02  0.14592777677E+02  0.00000000000E+00 0. -1.
         35    2    1    2    0    0 -0.71054273576E-14 -0.71054273576E-14  0.12920254800E+04  0.13212110353E+04  0.27616799049E+03 0.  0.
         25    2    3    3    0    0  0.21430974842E+02  0.26546935877E+02  0.86993845650E+03  0.87953168224E+03  0.12497613961E+03 0.  0.
         25    2    3    3    0    0 -0.21430974842E+02 -0.26546935877E+02  0.42208702349E+03  0.44167935311E+03  0.12553552914E+03 0.  0.
          5    1    4    4  502    0  0.61464280221E+02  0.50897554627E+02  0.62655109063E+03  0.63163025417E+03  0.47000000000E+01 0.  1.
         -5    1    4    4    0  502 -0.40033305379E+02 -0.24350618751E+02  0.24338736587E+03  0.24790142807E+03  0.47000000000E+01 0.  1.
          5    1    5    5  503    0 -0.57312987454E+02  0.27399210990E+02  0.24167416732E+03  0.24992796651E+03  0.47000000000E+01 0.  1.
         -5    1    5    5    0  503  0.35882012612E+02 -0.53946146867E+02  0.18041285617E+03  0.19175138660E+03  0.47000000000E+01 0.  1.
<mgrwt>
<rscale>  0 0.27616799E+03</rscale>
<asrwt>0</asrwt>
<pdfrwt beam="1">  1        2 0.20101810E+00 0.27616799E+03</pdfrwt>
<pdfrwt beam="2">  1       -2 0.22450437E-02 0.27616799E+03</pdfrwt>
<totfact> 0.11332395E+04</totfact>
</mgrwt>
</event>
<event>
 9    1  0.8093459E-001  0.2730466E+03  0.7818608E-02  0.1099549E+00
         -2   -1    0    0    0  501 -0.00000000000E+00  0.00000000000E+00  0.10281299075E+02  0.10281299075E+02  0.00000000000E+00 0.  1.
          2   -1    0    0  501    0  0.00000000000E+00 -0.00000000000E+00 -0.18128654220E+04  0.18128654220E+04  0.00000000000E+00 0.  1.
         35    2    1    2    0    0  0.00000000000E+00  0.71054273576E-14 -0.18025841229E+04  0.18231467210E+04  0.27304660105E+03 0.  0.
         25    2    3    3    0    0 -0.45466341668E+01 -0.37350676014E+00 -0.12766205944E+04  0.12827323906E+04  0.12498572958E+03 0.  0.
         25    2    3    3    0    0  0.45466341668E+01  0.37350676014E+00 -0.52596352852E+03  0.54041433042E+03  0.12405322969E+03 0.  0.
          5    1    4    4  502    0  0.46175949605E+02 -0.36147450732E+02 -0.46072978968E+03  0.46447054333E+03  0.47000000000E+01 0.  1.
         -5    1    4    4    0  502 -0.50722583772E+02  0.35773943972E+02 -0.81589080469E+03  0.81826184730E+03  0.47000000000E+01 0.  1.
          5    1    5    5  503    0 -0.37729655520E+02 -0.35230728459E+02 -0.39212002450E+03  0.39553120578E+03  0.47000000000E+01 0. -1.
         -5    1    5    5    0  503  0.42276289687E+02  0.35604235220E+02 -0.13384350403E+03  0.14488312464E+03  0.47000000000E+01 0. -1.
<mgrwt>
<rscale>  0 0.27304660E+03</rscale>
<asrwt>0</asrwt>
<pdfrwt beam="1">  1        2 0.27890219E+00 0.27304660E+03</pdfrwt>
<pdfrwt beam="2">  1       -2 0.15817393E-02 0.27304660E+03</pdfrwt>
<totfact> 0.10169358E+04</totfact>
</mgrwt>
</event>
<event>
 9    1  0.8093459E-001  0.2739782E+03  0.7818608E-02  0.1099024E+00
         -1   -1    0    0    0  501 -0.00000000000E+00  0.00000000000E+00  0.64012173821E+02  0.64012173821E+02  0.00000000000E+00 0. -1.
          1   -1    0    0  501    0  0.00000000000E+00 -0.00000000000E+00 -0.29316316482E+03  0.29316316482E+03  0.00000000000E+00 0. -1.
         35    2    1    2    0    0  0.00000000000E+00  0.00000000000E+00 -0.22915099100E+03  0.35717533864E+03  0.27397818500E+03 0.  0.
         25    2    3    3    0    0  0.78877647694E+01  0.51094341840E+02 -0.13969439549E+03  0.19451587744E+03  0.12509617837E+03 0.  0.
         25    2    3    3    0    0 -0.78877647694E+01 -0.51094341840E+02 -0.89456595514E+02  0.16265946121E+03  0.12562949191E+03 0.  0.
          5    1    4    4  502    0  0.25968446966E+02 -0.32582582192E+02 -0.79106032088E+02  0.89531219208E+02  0.47000000000E+01 0. -1.
         -5    1    4    4    0  502 -0.18080682197E+02  0.83676924032E+02 -0.60588363398E+02  0.10498465823E+03  0.47000000000E+01 0. -1.
          5    1    5    5  503    0 -0.45123244206E+02 -0.27635092304E+02 -0.10340683163E+03  0.11625346585E+03  0.47000000000E+01 0.  1.
         -5    1    5    5    0  503  0.37235479437E+02 -0.23459249536E+02  0.13950236112E+02  0.46405995359E+02  0.47000000000E+01 0.  1.
<mgrwt>
<rscale>  0 0.27397819E+03</rscale>
<asrwt>0</asrwt>
<pdfrwt beam="1">  1        1 0.45102026E-01 0.27397819E+03</pdfrwt>
<pdfrwt beam="2">  1       -1 0.98480267E-02 0.27397819E+03</pdfrwt>
<totfact> 0.55936318E+03</totfact>
</mgrwt>
</event>
<event>
 9    1  0.8093459E-001  0.2636901E+03  0.7818608E-02  0.1104946E+00
         -3   -1    0    0    0  501 -0.00000000000E+00  0.00000000000E+00  0.45197321679E+03  0.45197321679E+03  0.00000000000E+00 0.  1.
          3   -1    0    0  501    0  0.00000000000E+00 -0.00000000000E+00 -0.38460510637E+02  0.38460510637E+02  0.00000000000E+00 0.  1.
         35    2    1    2    0    0  0.71054273576E-14  0.00000000000E+00  0.41351270615E+03  0.49043372742E+03  0.26369012657E+03 0.  0.
         25    2    3    3    0    0 -0.41985932551E+02  0.30510899973E+01  0.20104823967E+03  0.24038540570E+03  0.12487041650E+03 0.  0.
         25    2    3    3    0    0  0.41985932551E+02 -0.30510899973E+01  0.21246446648E+03  0.25004832172E+03  0.12494353123E+03 0.  0.
          5    1    4    4  502    0  0.34657749994E+02 -0.48543246447E+01  0.13258263578E+03  0.13720411587E+03  0.47000000000E+01 0.  1.
         -5    1    4    4    0  502 -0.76643682545E+02  0.79054146420E+01  0.68465603893E+02  0.10318128983E+03  0.47000000000E+01 0.  1.
          5    1    5    5  503    0  0.69666892963E+02  0.27853640959E+01  0.52164894619E+02  0.87203786953E+02  0.47000000000E+01 0.  1.
         -5    1    5    5    0  503 -0.27680960412E+02 -0.58364540932E+01  0.16029957186E+03  0.16284453477E+03  0.47000000000E+01 0.  1.
<mgrwt>
<rscale>  0 0.26369013E+03</rscale>
<asrwt>0</asrwt>
<pdfrwt beam="1">  1        3 0.59170020E-02 0.26369013E+03</pdfrwt>
<pdfrwt beam="2">  1       -3 0.69534337E-01 0.26369013E+03</pdfrwt>
<totfact> 0.88896821E+02</totfact>
</mgrwt>
</event>
<event>
 9    1  0.8093459E-001  0.2754490E+03  0.7818608E-02  0.1098201E+00
         -1   -1    0    0    0  501 -0.00000000000E+00  0.00000000000E+00  0.20771191563E+02  0.20771191563E+02  0.00000000000E+00 0. -1.
          1   -1    0    0  501    0  0.00000000000E+00 -0.00000000000E+00 -0.91318989376E+03  0.91318989376E+03  0.00000000000E+00 0. -1.
         35    2    1    2    0    0  0.71054273576E-14  0.00000000000E+00 -0.89241870219E+03  0.93396108532E+03  0.27544903134E+03 0.  0.
         25    2    3    3    0    0 -0.52264276442E+02  0.21987712122E+02 -0.44938647444E+03  0.46995151576E+03  0.12526455874E+03 0.  0.
         25    2    3    3    0    0  0.52264276442E+02 -0.21987712122E+02 -0.44303222775E+03  0.46400956956E+03  0.12574701484E+03 0.  0.
          5    1    4    4  502    0 -0.66669366050E+02  0.40354817339E+02 -0.43538424098E+03  0.44232888549E+03  0.47000000000E+01 0.  1.
         -5    1    4    4    0  502  0.14405089609E+02 -0.18367105217E+02 -0.14002233463E+02  0.27622630263E+02  0.47000000000E+01 0.  1.
          5    1    5    5  503    0  0.19594395357E+02  0.27762710474E+02 -0.36059709861E+03  0.36222515918E+03  0.47000000000E+01 0.  1.
         -5    1    5    5    0  503  0.32669881085E+02 -0.49750422596E+02 -0.82435129145E+02  0.10178441038E+03  0.47000000000E+01 0.  1.
<mgrwt>
<rscale>  0 0.27544903E+03</rscale>
<asrwt>0</asrwt>
<pdfrwt beam="1">  1        1 0.14049074E+00 0.27544903E+03</pdfrwt>
<pdfrwt beam="2">  1       -1 0.31955683E-02 0.27544903E+03</pdfrwt>
<totfact> 0.63978576E+03</totfact>
</mgrwt>
</event>
<event>
 9    1  0.8093459E-001  0.2775873E+03  0.7818608E-02  0.1097014E+00
          2   -1    0    0  501    0  0.00000000000E+00  0.00000000000E+00  0.96051580907E+03  0.96051580907E+03  0.00000000000E+00 0.  1.
         -2   -1    0    0    0  501 -0.00000000000E+00 -0.00000000000E+00 -0.20055549115E+02  0.20055549115E+02  0.00000000000E+00 0.  1.
         35    2    1    2    0    0 -0.26645352591E-14  0.00000000000E+00  0.94046025996E+03  0.98057135819E+03  0.27758726185E+03 0.  0.
         25    2    3    3    0    0 -0.19457545294E+00  0.34893596351E+02  0.30324818655E+03  0.33020159736E+03  0.12592073430E+03 0.  0.
         25    2    3    3    0    0  0.19457545294E+00 -0.34893596351E+02  0.63721207340E+03  0.65036976082E+03  0.12539536824E+03 0.  0.
          5    1    4    4  502    0  0.67816949749E+01 -0.28766268758E+02  0.23344471673E+03  0.23535508359E+03  0.47000000000E+01 0. -1.
         -5    1    4    4    0  502 -0.69762704279E+01  0.63659865109E+02  0.69803469825E+02  0.94846513770E+02  0.47000000000E+01 0. -1.
          5    1    5    5  503    0 -0.40886393794E+02  0.19870403026E+02  0.42236159473E+03  0.42482694926E+03  0.47000000000E+01 0.  1.
         -5    1    5    5    0  503  0.41080969247E+02 -0.54763999376E+02  0.21485047867E+03  0.22554281156E+03  0.47000000000E+01 0.  1.
<mgrwt>
<rscale>  0 0.27758726E+03</rscale>
<asrwt>0</asrwt>
<pdfrwt beam="1">  1        2 0.14777163E+00 0.27758726E+03</pdfrwt>
<pdfrwt beam="2">  1       -2 0.30854698E-02 0.27758726E+03</pdfrwt>
<totfact> 0.11259934E+04</totfact>
</mgrwt>
</event>
<event>
 9    1  0.8093459E-001  0.2766596E+03  0.7818608E-02  0.1097528E+00
         -2   -1    0    0    0  501 -0.00000000000E+00  0.00000000000E+00  0.17898087387E+03  0.17898087387E+03  0.00000000000E+00 0.  1.
          2   -1    0    0  501    0  0.00000000000E+00 -0.00000000000E+00 -0.10691157310E+03  0.10691157310E+03  0.00000000000E+00 0.  1.
         35    2    1    2    0    0  0.00000000000E+00 -0.71054273576E-14  0.72069300766E+02  0.28589244696E+03  0.27665955093E+03 0.  0.
         25    2    3    3    0    0 -0.38761154923E+02  0.47575926301E+02  0.30395468680E+02  0.14243168948E+03  0.12488797282E+03 0.  0.
         25    2    3    3    0    0  0.38761154923E+02 -0.47575926301E+02  0.41673832087E+02  0.14346075749E+03  0.12279407463E+03 0.  0.
          5    1    4    4  502    0 -0.13209854732E+02  0.87596038026E+02  0.61826217341E+01  0.88926266937E+02  0.47000000000E+01 0. -1.
         -5    1    4    4    0  502 -0.25551300190E+02 -0.40020111724E+02  0.24212846945E+02  0.53505422539E+02  0.47000000000E+01 0. -1.
          5    1    5    5  503    0  0.65391335620E+02  0.61677623600E+01  0.50057695450E+02  0.82715965451E+02  0.47000000000E+01 0. -1.
         -5    1    5    5    0  503 -0.26630180697E+02 -0.53743688661E+02 -0.83838633634E+01  0.60744792038E+02  0.47000000000E+01 0. -1.
<mgrwt>
<rscale>  0 0.27665955E+03</rscale>
<asrwt>0</asrwt>
<pdfrwt beam="1">  1        2 0.16447934E-01 0.27665955E+03</pdfrwt>
<pdfrwt beam="2">  1       -2 0.27535519E-01 0.27665955E+03</pdfrwt>
<totfact> 0.41507414E+03</totfact>
</mgrwt>
</event>
<event>
 9    1  0.8093459E-001  0.2776735E+03  0.7818608E-02  0.1096966E+00
         -4   -1    0    0    0  501 -0.00000000000E+00  0.00000000000E+00  0.24711286012E+03  0.24711286012E+03  0.00000000000E+00 0. -1.
          4   -1    0    0  501    0  0.00000000000E+00 -0.00000000000E+00 -0.78003378567E+02  0.78003378567E+02  0.00000000000E+00 0. -1.
         35    2    1    2    0    0 -0.71054273576E-14 -0.71054273576E-14  0.16910948155E+03  0.32511623869E+03  0.27767346273E+03 0.  0.
         25    2    3    3    0    0 -0.36483663532E+02 -0.45814825478E+02  0.69193456026E+02  0.15457136793E+03  0.12519791328E+03 0.  0.
         25    2    3    3    0    0  0.36483663532E+02  0.45814825478E+02  0.99916025528E+02  0.17054487075E+03  0.12518899650E+03 0.  0.
          5    1    4    4  502    0 -0.54164835211E+02  0.27838022169E+02  0.41222986344E+02  0.73689954912E+02  0.47000000000E+01 0.  1.
         -5    1    4    4    0  502  0.17681171678E+02 -0.73652847647E+02  0.27970469682E+02  0.80881413023E+02  0.47000000000E+01 0.  1.
          5    1    5    5  503    0  0.57864241441E+01  0.81486531832E+02  0.91066331484E+02  0.12242836397E+03  0.47000000000E+01 0.  1.
         -5    1    5    5    0  503  0.30697239388E+02 -0.35671706354E+02  0.88496940440E+01  0.48116506782E+02  0.47000000000E+01 0.  1.
<mgrwt>
<rscale>  0 0.27767346E+03</rscale>
<asrwt>0</asrwt>
<pdfrwt beam="1">  1        4 0.12000520E-01 0.27767346E+03</pdfrwt>
<pdfrwt beam="2">  1       -4 0.38017363E-01 0.27767346E+03</pdfrwt>
<totfact> 0.70149582E+02</totfact>
</mgrwt>
</event>
<event>
 9    1  0.8093459E-001  0.2767298E+03  0.7818608E-02  0.1097489E+00
          1   -1    0    0  501    0  0.00000000000E+00  0.00000000000E+00  0.16051843933E+03  0.16051843933E+03  0.00000000000E+00 0.  1.
         -1   -1    0    0    0  501 -0.00000000000E+00 -0.00000000000E+00 -0.11926886407E+03  0.11926886407E+03  0.00000000000E+00 0.  1.
         35    2    1    2    0    0  0.17763568394E-14 -0.14210854715E-13  0.41249575268E+02  0.27978730340E+03  0.27672984603E+03 0.  0.
         25    2    3    3    0    0 -0.98348327192E+00  0.58967339647E+02  0.29197634567E+02  0.14162850367E+03  0.12541139025E+03 0.  0.
         25    2    3    3    0    0  0.98348327192E+00 -0.58967339647E+02  0.12051940700E+02  0.13815879973E+03  0.12435630375E+03 0.  0.
          5    1    4    4  502    0 -0.52294145938E+02  0.67220457803E+02  0.26737814081E+02  0.89388300960E+02  0.47000000000E+01 0.  1.
         -5    1    4    4    0  502  0.51310662666E+02 -0.82531181564E+01  0.24598204865E+01  0.52240202712E+02  0.47000000000E+01 0.  1.
          5    1    5    5  503    0 -0.10611458866E+02 -0.17897506266E+02  0.65913801718E+02  0.69279456166E+02  0.47000000000E+01 0.  1.
         -5    1    5    5    0  503  0.11594942137E+02 -0.41069833380E+02 -0.53861861018E+02  0.68879343561E+02  0.47000000000E+01 0.  1.
<mgrwt>
<rscale>  0 0.27672985E+03</rscale>
<asrwt>0</asrwt>
<pdfrwt beam="1">  1        1 0.24695145E-01 0.27672985E+03</pdfrwt>
<pdfrwt beam="2">  1       -1 0.18349056E-01 0.27672985E+03</pdfrwt>
<totfact> 0.44840139E+03</totfact>
</mgrwt>
</event>
<event>
 9    1  0.8093459E-001  0.2741532E+03  0.7818608E-02  0.1098926E+00
          2   -1    0    0  501    0  0.00000000000E+00  0.00000000000E+00  0.55084109231E+03  0.55084109231E+03  0.00000000000E+00 0.  1.
         -2   -1    0    0    0  501 -0.00000000000E+00 -0.00000000000E+00 -0.34111457536E+02  0.34111457536E+02  0.00000000000E+00 0.  1.
         35    2    1    2    0    0  0.71054273576E-14  0.44408920985E-15  0.51672963477E+03  0.58495254984E+03  0.27415318732E+03 0.  0.
         25    2    3    3    0    0 -0.55908490701E+02  0.36445372891E+01  0.25312124967E+03  0.28791272447E+03  0.12523708675E+03 0.  0.
         25    2    3    3    0    0  0.55908490701E+02 -0.36445372891E+01  0.26360838510E+03  0.29703982537E+03  0.12491691308E+03 0.  0.
          5    1    4    4  502    0 -0.43896376112E+02 -0.15681878056E+01  0.26558506716E+03  0.26923385550E+03  0.47000000000E+01 0. -1.
         -5    1    4    4    0  502 -0.12012114589E+02  0.52127250947E+01 -0.12463817491E+02  0.18678868977E+02  0.47000000000E+01 0. -1.
          5    1    5    5  503    0  0.47848046555E+02  0.53504721282E+02  0.19146593839E+03  0.20453236009E+03  0.47000000000E+01 0.  1.
         -5    1    5    5    0  503  0.80604441461E+01 -0.57149258571E+02  0.72142446712E+02  0.92507465281E+02  0.47000000000E+01 0.  1.
<mgrwt>
<rscale>  0 0.27415319E+03</rscale>
<asrwt>0</asrwt>
<pdfrwt beam="1">  1        2 0.84744777E-01 0.27415319E+03</pdfrwt>
<pdfrwt beam="2">  1       -2 0.52479169E-02 0.27415319E+03</pdfrwt>
<totfact> 0.10079307E+04</totfact>
</mgrwt>
</event>
<event>
 9    1  0.8093459E-001  0.2769262E+03  0.7818608E-02  0.1097380E+00
          4   -1    0    0  501    0  0.00000000000E+00  0.00000000000E+00  0.50211540014E+02  0.50211540014E+02  0.00000000000E+00 0. -1.
         -4   -1    0    0    0  501 -0.00000000000E+00 -0.00000000000E+00 -0.38182510951E+03  0.38182510951E+03  0.00000000000E+00 0. -1.
         35    2    1    2    0    0  0.14210854715E-13  0.00000000000E+00 -0.33161356949E+03  0.43203664952E+03  0.27692617619E+03 0.  0.
         25    2    3    3    0    0 -0.34192122566E+02  0.48717616748E+02 -0.15307754596E+03  0.20628115581E+03  0.12480654125E+03 0.  0.
         25    2    3    3    0    0  0.34192122566E+02 -0.48717616748E+02 -0.17853602354E+03  0.22575549371E+03  0.12469131411E+03 0.  0.
          5    1    4    4  502    0  0.39911011824E+02 -0.59519676515E+01 -0.22531684104E+02  0.46455156574E+02  0.47000000000E+01 0.  1.
         -5    1    4    4    0  502 -0.74103134389E+02  0.54669584400E+02 -0.13054586185E+03  0.15982599924E+03  0.47000000000E+01 0.  1.
          5    1    5    5  503    0  0.63478191742E+02 -0.13476805370E+02 -0.32699985673E+02  0.72818158263E+02  0.47000000000E+01 0. -1.
         -5    1    5    5    0  503 -0.29286069176E+02 -0.35240811378E+02 -0.14583603786E+03  0.15293733545E+03  0.47000000000E+01 0. -1.
<mgrwt>
<rscale>  0 0.27692618E+03</rscale>
<asrwt>0</asrwt>
<pdfrwt beam="1">  1        4 0.77248522E-02 0.27692618E+03</pdfrwt>
<pdfrwt beam="2">  1       -4 0.58742326E-01 0.27692618E+03</pdfrwt>
<totfact> 0.60910389E+02</totfact>
</mgrwt>
</event>
<event>
 9    1  0.8093459E-001  0.2757872E+03  0.7818608E-02  0.1098012E+00
          2   -1    0    0  501    0  0.00000000000E+00  0.00000000000E+00  0.13570040919E+03  0.13570040919E+03  0.00000000000E+00 0.  1.
         -2   -1    0    0    0  501 -0.00000000000E+00 -0.00000000000E+00 -0.14012226556E+03  0.14012226556E+03  0.00000000000E+00 0.  1.
         35    2    1    2    0    0 -0.71054273576E-14  0.00000000000E+00 -0.44218563715E+01  0.27582267475E+03  0.27578722794E+03 0.  0.
         25    2    3    3    0    0 -0.36308612284E+02  0.13634283779E+02 -0.46583076775E+02  0.13866801303E+03  0.12471818543E+03 0.  0.
         25    2    3    3    0    0  0.36308612284E+02 -0.13634283779E+02  0.42161220403E+02  0.13715466172E+03  0.12461791085E+03 0.  0.
          5    1    4    4  502    0 -0.52821447897E+01  0.42196821324E+02 -0.75875008592E+02  0.87106714507E+02  0.47000000000E+01 0. -1.
         -5    1    4    4    0  502 -0.31026467494E+02 -0.28562537545E+02  0.29291931817E+02  0.51561298527E+02  0.47000000000E+01 0. -1.
          5    1    5    5  503    0  0.15479011677E+02 -0.15115652419E+02  0.85767124401E+02  0.88578622582E+02  0.47000000000E+01 0.  1.
         -5    1    5    5    0  503  0.20829600607E+02  0.14813686404E+01 -0.43605903998E+02  0.48576039134E+02  0.47000000000E+01 0.  1.
<mgrwt>
<rscale>  0 0.27578723E+03</rscale>
<asrwt>0</asrwt>
<pdfrwt beam="1">  1        2 0.20876986E-01 0.27578723E+03</pdfrwt>
<pdfrwt beam="2">  1       -2 0.21557271E-01 0.27578723E+03</pdfrwt>
<totfact> 0.48450163E+03</totfact>
</mgrwt>
</event>
<event>
 9    1  0.8093459E-001  0.2664948E+03  0.7818608E-02  0.1103303E+00
         -2   -1    0    0    0  501 -0.00000000000E+00  0.00000000000E+00  0.13151632511E+03  0.13151632511E+03  0.00000000000E+00 0. -1.
          2   -1    0    0  501    0  0.00000000000E+00 -0.00000000000E+00 -0.13500122387E+03  0.13500122387E+03  0.00000000000E+00 0. -1.
         35    2    1    2    0    0  0.00000000000E+00  0.00000000000E+00 -0.34848987591E+01  0.26651754898E+03  0.26649476429E+03 0.  0.
         25    2    3    3    0    0  0.18286403667E+02  0.34719953761E+02  0.19329966279E+02  0.13217768961E+03  0.12472941227E+03 0.  0.
         25    2    3    3    0    0 -0.18286403667E+02 -0.34719953761E+02 -0.22814865038E+02  0.13433985937E+03  0.12643896551E+03 0.  0.
          5    1    4    4  502    0  0.60838757637E+02  0.41038138633E+02 -0.17228670080E+02  0.75527480601E+02  0.47000000000E+01 0.  1.
         -5    1    4    4    0  502 -0.42552353970E+02 -0.63181848722E+01  0.36558636358E+02  0.56650209009E+02  0.47000000000E+01 0.  1.
          5    1    5    5  503    0 -0.62107019394E+02  0.13291382003E+02  0.41219474813E+01  0.63820240869E+02  0.47000000000E+01 0.  1.
         -5    1    5    5    0  503  0.43820615727E+02 -0.48011335764E+02 -0.26936812519E+02  0.70519618499E+02  0.47000000000E+01 0.  1.
<mgrwt>
<rscale>  0 0.26649476E+03</rscale>
<asrwt>0</asrwt>
<pdfrwt beam="1">  1        2 0.20769419E-01 0.26649476E+03</pdfrwt>
<pdfrwt beam="2">  1       -2 0.20233281E-01 0.26649476E+03</pdfrwt>
<totfact> 0.54283423E+03</totfact>
</mgrwt>
</event>
<event>
 9    1  0.8093459E-001  0.2823443E+03  0.7818608E-02  0.1094415E+00
         -2   -1    0    0    0  501 -0.00000000000E+00  0.00000000000E+00  0.15776815805E+03  0.15776815805E+03  0.00000000000E+00 0.  1.
          2   -1    0    0  501    0  0.00000000000E+00 -0.00000000000E+00 -0.12632192546E+03  0.12632192546E+03  0.00000000000E+00 0.  1.
         35    2    1    2    0    0  0.00000000000E+00  0.00000000000E+00  0.31446232587E+02  0.28409008351E+03  0.28234431109E+03 0.  0.
         25    2    3    3    0    0  0.60178559862E+02  0.19178150212E+02 -0.22933209144E+01  0.14014021779E+03  0.12507901826E+03 0.  0.
         25    2    3    3    0    0 -0.60178559862E+02 -0.19178150212E+02  0.33739553502E+02  0.14394986572E+03  0.12487572165E+03 0.  0.
          5    1    4    4  502    0  0.95956584660E+01  0.39929071157E+02 -0.51774588328E+02  0.66250323633E+02  0.47000000000E+01 0. -1.
         -5    1    4    4    0  502  0.50582901396E+02 -0.20750920945E+02  0.49481267414E+02  0.73889894157E+02  0.47000000000E+01 0. -1.
          5    1    5    5  503    0 -0.34287502898E+02  0.46136880554E+02 -0.13400877315E+02  0.59210793906E+02  0.47000000000E+01 0.  1.
         -5    1    5    5    0  503 -0.25891056964E+02 -0.65315030766E+02  0.47140430817E+02  0.84739071817E+02  0.47000000000E+01 0.  1.
<mgrwt>
<rscale>  0 0.28234431E+03</rscale>
<asrwt>0</asrwt>
<pdfrwt beam="1">  1        2 0.19434142E-01 0.28234431E+03</pdfrwt>
<pdfrwt beam="2">  1       -2 0.24272024E-01 0.28234431E+03</pdfrwt>
<totfact> 0.42801823E+03</totfact>
</mgrwt>
</event>
<event>
 9    1  0.8093459E-001  0.2719668E+03  0.7818608E-02  0.1100159E+00
          1   -1    0    0  501    0  0.00000000000E+00  0.00000000000E+00  0.13563281189E+04  0.13563281189E+04  0.00000000000E+00 0. -1.
         -1   -1    0    0    0  501 -0.00000000000E+00 -0.00000000000E+00 -0.13633493222E+02  0.13633493222E+02  0.00000000000E+00 0. -1.
         35    2    1    2    0    0  0.00000000000E+00 -0.35527136788E-14  0.13426946256E+04  0.13699616121E+04  0.27196683779E+03 0.  0.
         25    2    3    3    0    0 -0.53418915923E+02  0.82672260329E+01  0.71196444137E+03  0.72474134799E+03  0.12423658116E+03 0.  0.
         25    2    3    3    0    0  0.53418915923E+02 -0.82672260329E+01  0.63073018428E+03  0.64522026410E+03  0.12476656703E+03 0.  0.
          5    1    4    4  502    0 -0.53090519739E+02 -0.76354428175E+01  0.10923492793E+03  0.12178367195E+03  0.47000000000E+01 0.  1.
         -5    1    4    4    0  502 -0.32839618379E+00  0.15902668850E+02  0.60272951344E+03  0.60295767604E+03  0.47000000000E+01 0.  1.
          5    1    5    5  503    0  0.62064447137E+02  0.47295187862E+02  0.41043830354E+03  0.41781637283E+03  0.47000000000E+01 0. -1.
         -5    1    5    5    0  503 -0.86455312148E+01 -0.55562413895E+02  0.22029188074E+03  0.22740389127E+03  0.47000000000E+01 0. -1.
<mgrwt>
<rscale>  0 0.27196684E+03</rscale>
<asrwt>0</asrwt>
<pdfrwt beam="1">  1        1 0.20866576E+00 0.27196684E+03</pdfrwt>
<pdfrwt beam="2">  1       -1 0.20974616E-02 0.27196684E+03</pdfrwt>
<totfact> 0.57109677E+03</totfact>
</mgrwt>
</event>
<event>
 9    1  0.8093459E-001  0.2649635E+03  0.7818608E-02  0.1104197E+00
         -2   -1    0    0    0  501 -0.00000000000E+00  0.00000000000E+00  0.18355309945E+03  0.18355309945E+03  0.00000000000E+00 0. -1.
          2   -1    0    0  501    0  0.00000000000E+00 -0.00000000000E+00 -0.95620391788E+02  0.95620391788E+02  0.00000000000E+00 0. -1.
         35    2    1    2    0    0  0.00000000000E+00  0.00000000000E+00  0.87932707662E+02  0.27917349124E+03  0.26496353925E+03 0.  0.
         25    2    3    3    0    0  0.32947236548E+02 -0.17325142234E+02  0.27592695182E+02  0.13532592695E+03  0.12714585611E+03 0.  0.
         25    2    3    3    0    0 -0.32947236548E+02  0.17325142234E+02  0.60340012480E+02  0.14384756429E+03  0.12516198983E+03 0.  0.
          5    1    4    4  502    0  0.15932344458E+02 -0.59566322336E+01 -0.51005347682E+02  0.53971812640E+02  0.47000000000E+01 0. -1.
         -5    1    4    4    0  502  0.17014892090E+02 -0.11368510000E+02  0.78598042864E+02  0.81354114306E+02  0.47000000000E+01 0. -1.
          5    1    5    5  503    0 -0.62509344579E+01 -0.66189958850E+01  0.93930360729E+02  0.94487501580E+02  0.47000000000E+01 0. -1.
         -5    1    5    5    0  503 -0.26696302090E+02  0.23944138119E+02 -0.33590348249E+02  0.49360062713E+02  0.47000000000E+01 0. -1.
<mgrwt>
<rscale>  0 0.26496354E+03</rscale>
<asrwt>0</asrwt>
<pdfrwt beam="1">  1        2 0.14710829E-01 0.26496354E+03</pdfrwt>
<pdfrwt beam="2">  1       -2 0.28238938E-01 0.26496354E+03</pdfrwt>
<totfact> 0.45188375E+03</totfact>
</mgrwt>
</event>
<event>
 9    1  0.8093459E-001  0.2757472E+03  0.7818608E-02  0.1098035E+00
         -1   -1    0    0    0  501 -0.00000000000E+00  0.00000000000E+00  0.58484731479E+03  0.58484731479E+03  0.00000000000E+00 0. -1.
          1   -1    0    0  501    0  0.00000000000E+00 -0.00000000000E+00 -0.32502730821E+02  0.32502730821E+02  0.00000000000E+00 0. -1.
         35    2    1    2    0    0  0.14210854715E-13  0.35527136788E-14  0.55234458397E+03  0.61735004561E+03  0.27574723820E+03 0.  0.
         25    2    3    3    0    0  0.41535857688E+02 -0.43564095300E+01  0.18327889898E+03  0.22550421196E+03  0.12456640408E+03 0.  0.
         25    2    3    3    0    0 -0.41535857688E+02  0.43564095300E+01  0.36906568499E+03  0.39184583364E+03  0.12485780605E+03 0.  0.
          5    1    4    4  502    0 -0.17725393746E+02 -0.24223977188E+02  0.15282934915E+03  0.15582005845E+03  0.47000000000E+01 0. -1.
         -5    1    4    4    0  502  0.59261251435E+02  0.19867567658E+02  0.30449549832E+02  0.69684153516E+02  0.47000000000E+01 0. -1.
          5    1    5    5  503    0  0.24402343336E+02 -0.39953448890E+02  0.19262155071E+03  0.19828490673E+03  0.47000000000E+01 0. -1.
         -5    1    5    5    0  503 -0.65938201025E+02  0.44309858420E+02  0.17644413428E+03  0.19356092692E+03  0.47000000000E+01 0. -1.
<mgrwt>
<rscale>  0 0.27574724E+03</rscale>
<asrwt>0</asrwt>
<pdfrwt beam="1">  1        1 0.50004206E-02 0.27574724E+03</pdfrwt>
<pdfrwt beam="2">  1       -1 0.89976502E-01 0.27574724E+03</pdfrwt>
<totfact> 0.21130469E+03</totfact>
</mgrwt>
</event>
<event>
 9    1  0.8093459E-001  0.2754052E+03  0.7818608E-02  0.1098225E+00
          2   -1    0    0  501    0  0.00000000000E+00  0.00000000000E+00  0.27672844339E+04  0.27672844339E+04  0.00000000000E+00 0.  1.
         -2   -1    0    0    0  501 -0.00000000000E+00 -0.00000000000E+00 -0.68522060919E+01  0.68522060919E+01  0.00000000000E+00 0.  1.
         35    2    1    2    0    0  0.00000000000E+00  0.00000000000E+00  0.27604322278E+04  0.27741366400E+04  0.27540517973E+03 0.  0.
         25    2    3    3    0    0 -0.44864472193E+02  0.18227110433E+02  0.17032593265E+04  0.17084994954E+04  0.12463203504E+03 0.  0.
         25    2    3    3    0    0  0.44864472193E+02 -0.18227110433E+02  0.10571729013E+04  0.10656371446E+04  0.12499172848E+03 0.  0.
          5    1    4    4  502    0 -0.27425113489E+02  0.51944699582E+02  0.36765254122E+03  0.37234509495E+03  0.47000000000E+01 0.  1.
         -5    1    4    4    0  502 -0.17439358705E+02 -0.33717589150E+02  0.13356067853E+04  0.13361544005E+04  0.47000000000E+01 0.  1.
          5    1    5    5  503    0 -0.65411559420E+01  0.29156804157E+02  0.74849966896E+03  0.74911063961E+03  0.47000000000E+01 0. -1.
         -5    1    5    5    0  503  0.51405628135E+02 -0.47383914590E+02  0.30867323236E+03  0.31652650496E+03  0.47000000000E+01 0. -1.
<mgrwt>
<rscale>  0 0.27540518E+03</rscale>
<asrwt>0</asrwt>
<pdfrwt beam="1">  1        2 0.42573517E+00 0.27540518E+03</pdfrwt>
<pdfrwt beam="2">  1       -2 0.10541878E-02 0.27540518E+03</pdfrwt>
<totfact> 0.56161138E+03</totfact>
</mgrwt>
</event>
<event>
 9    1  0.8093459E-001  0.2780486E+03  0.7818608E-02  0.1096760E+00
          1   -1    0    0  501    0  0.00000000000E+00  0.00000000000E+00  0.41786972728E+02  0.41786972728E+02  0.00000000000E+00 0. -1.
         -1   -1    0    0    0  501 -0.00000000000E+00 -0.00000000000E+00 -0.46253056030E+03  0.46253056030E+03  0.00000000000E+00 0. -1.
         35    2    1    2    0    0 -0.71054273576E-14 -0.35527136788E-14 -0.42074358757E+03  0.50431753302E+03  0.27804857064E+03 0.  0.
         25    2    3    3    0    0 -0.22209898469E+02 -0.98112107928E+01 -0.30846651113E+03  0.33369667622E+03  0.12494936488E+03 0.  0.
         25    2    3    3    0    0  0.22209898469E+02  0.98112107928E+01 -0.11227707644E+03  0.17062085680E+03  0.12615781956E+03 0.  0.
          5    1    4    4  502    0 -0.22386979424E+02  0.32648490576E+02 -0.27892121899E+03  0.28175563382E+03  0.47000000000E+01 0. -1.
         -5    1    4    4    0  502  0.17708095455E+00 -0.42459701369E+02 -0.29545292138E+02  0.51941042399E+02  0.47000000000E+01 0. -1.
          5    1    5    5  503    0 -0.36139487219E+02 -0.89175107097E+01  0.53558166583E+01  0.37899331205E+02  0.47000000000E+01 0.  1.
         -5    1    5    5    0  503  0.58349385689E+02  0.18728721503E+02 -0.11763289309E+03  0.13272152560E+03  0.47000000000E+01 0.  1.
<mgrwt>
<rscale>  0 0.27804857E+03</rscale>
<asrwt>0</asrwt>
<pdfrwt beam="1">  1        1 0.64287649E-02 0.27804857E+03</pdfrwt>
<pdfrwt beam="2">  1       -1 0.71158549E-01 0.27804857E+03</pdfrwt>
<totfact> 0.24316660E+03</totfact>
</mgrwt>
</event>
<event>
 9    1  0.8093459E-001  0.2765447E+03  0.7818608E-02  0.1097591E+00
          1   -1    0    0  501    0  0.00000000000E+00  0.00000000000E+00  0.12927101891E+04  0.12927101891E+04  0.00000000000E+00 0.  1.
         -1   -1    0    0    0  501 -0.00000000000E+00 -0.00000000000E+00 -0.14790043856E+02  0.14790043856E+02  0.00000000000E+00 0.  1.
         35    2    1    2    0    0  0.71054273576E-14  0.00000000000E+00  0.12779201453E+04  0.13075002330E+04  0.27654468276E+03 0.  0.
         25    2    3    3    0    0 -0.45609671315E+02 -0.33379963378E+02  0.58341268268E+03  0.59927829530E+03  0.12477841495E+03 0.  0.
         25    2    3    3    0    0  0.45609671315E+02  0.33379963378E+02  0.69450746258E+03  0.70822193767E+03  0.12666188592E+03 0.  0.
          5    1    4    4  502    0 -0.33342637159E+02 -0.52950847567E+02  0.56722187411E+03  0.57068228305E+03  0.47000000000E+01 0.  1.
         -5    1    4    4    0  502 -0.12267034156E+02  0.19570884190E+02  0.16190808567E+02  0.28596012257E+02  0.47000000000E+01 0.  1.
          5    1    5    5  503    0 -0.29250662576E+02  0.23302771467E+02  0.73319226042E+02  0.82440398631E+02  0.47000000000E+01 0. -1.
         -5    1    5    5    0  503  0.74860333890E+02  0.10077191911E+02  0.62118823654E+03  0.62578153904E+03  0.47000000000E+01 0. -1.
<mgrwt>
<rscale>  0 0.27654468E+03</rscale>
<asrwt>0</asrwt>
<pdfrwt beam="1">  1        1 0.19887840E+00 0.27654468E+03</pdfrwt>
<pdfrwt beam="2">  1       -1 0.22753924E-02 0.27654468E+03</pdfrwt>
<totfact> 0.56013714E+03</totfact>
</mgrwt>
</event>
<event>
 9    1  0.8093459E-001  0.2742792E+03  0.7818608E-02  0.1098855E+00
         -1   -1    0    0    0  501 -0.00000000000E+00  0.00000000000E+00  0.80691664167E+02  0.80691664167E+02  0.00000000000E+00 0. -1.
          1   -1    0    0  501    0  0.00000000000E+00 -0.00000000000E+00 -0.23307569928E+03  0.23307569928E+03  0.00000000000E+00 0. -1.
         35    2    1    2    0    0  0.00000000000E+00  0.71054273576E-14 -0.15238403511E+03  0.31376736345E+03  0.27427917203E+03 0.  0.
         25    2    3    3    0    0 -0.40179814305E+02  0.39764999340E+02 -0.81359253410E+02  0.15950379876E+03  0.12500584408E+03 0.  0.
         25    2    3    3    0    0  0.40179814305E+02 -0.39764999340E+02 -0.71024781704E+02  0.15426356469E+03  0.12472792440E+03 0.  0.
          5    1    4    4  502    0 -0.29984418163E+02  0.50351099185E+02  0.15999965647E+02  0.60929364205E+02  0.47000000000E+01 0. -1.
         -5    1    4    4    0  502 -0.10195396142E+02 -0.10586099845E+02 -0.97359219057E+02  0.98574434555E+02  0.47000000000E+01 0. -1.
          5    1    5    5  503    0  0.28153451690E+02 -0.38616307944E+02 -0.10632094806E+03  0.11666220501E+03  0.47000000000E+01 0. -1.
         -5    1    5    5    0  503  0.12026362614E+02 -0.11486913960E+01  0.35296166361E+02  0.37601359675E+02  0.47000000000E+01 0. -1.
<mgrwt>
<rscale>  0 0.27427917E+03</rscale>
<asrwt>0</asrwt>
<pdfrwt beam="1">  1        1 0.35857800E-01 0.27427917E+03</pdfrwt>
<pdfrwt beam="2">  1       -1 0.12414102E-01 0.27427917E+03</pdfrwt>
<totfact> 0.52050858E+03</totfact>
</mgrwt>
</event>
<event>
 9    1  0.8093459E-001  0.2758542E+03  0.7818608E-02  0.1097975E+00
         -4   -1    0    0    0  501 -0.00000000000E+00  0.00000000000E+00  0.13827788137E+03  0.13827788137E+03  0.00000000000E+00 0. -1.
          4   -1    0    0  501    0  0.00000000000E+00 -0.00000000000E+00 -0.13757721003E+03  0.13757721003E+03  0.00000000000E+00 0. -1.
         35    2    1    2    0    0  0.14210854715E-13  0.00000000000E+00  0.70067134404E+00  0.27585509140E+03  0.27585420154E+03 0.  0.
         25    2    3    3    0    0  0.54174466147E+02 -0.17344566715E+02 -0.23523504590E+02  0.13629588928E+03  0.12160389545E+03 0.  0.
         25    2    3    3    0    0 -0.54174466147E+02  0.17344566715E+02  0.24224175934E+02  0.13955920211E+03  0.12511695896E+03 0.  0.
          5    1    4    4  502    0  0.62606035844E+02 -0.10465647728E+02  0.37672944784E+02  0.73962059701E+02  0.47000000000E+01 0.  1.
         -5    1    4    4    0  502 -0.84315696970E+01 -0.68789189876E+01 -0.61196449375E+02  0.62333829580E+02  0.47000000000E+01 0.  1.
          5    1    5    5  503    0 -0.61718715034E+02  0.53777905539E+02 -0.17094808645E+02  0.83759091400E+02  0.47000000000E+01 0.  1.
         -5    1    5    5    0  503  0.75442488873E+01 -0.36433338823E+02  0.41318984579E+02  0.55800110714E+02  0.47000000000E+01 0.  1.
<mgrwt>
<rscale>  0 0.27585420E+03</rscale>
<asrwt>0</asrwt>
<pdfrwt beam="1">  1        4 0.21165725E-01 0.27585420E+03</pdfrwt>
<pdfrwt beam="2">  1       -4 0.21273520E-01 0.27585420E+03</pdfrwt>
<totfact> 0.77019196E+02</totfact>
</mgrwt>
</event>
<event>
 9    1  0.8093459E-001  0.2752647E+03  0.7818608E-02  0.1098304E+00
          1   -1    0    0  501    0  0.00000000000E+00  0.00000000000E+00  0.27030339257E+03  0.27030339257E+03  0.00000000000E+00 0. -1.
         -1   -1    0    0    0  501 -0.00000000000E+00 -0.00000000000E+00 -0.70079269124E+02  0.70079269124E+02  0.00000000000E+00 0. -1.
         35    2    1    2    0    0 -0.17763568394E-14  0.00000000000E+00  0.20022412345E+03  0.34038266170E+03  0.27526470310E+03 0.  0.
         25    2    3    3    0    0 -0.49334005262E+01 -0.50124807316E+02  0.13241158392E+03  0.18904018145E+03  0.12516600137E+03 0.  0.
         25    2    3    3    0    0  0.49334005262E+01  0.50124807316E+02  0.67812539528E+02  0.15134248024E+03  0.12557536008E+03 0.  0.
          5    1    4    4  502    0 -0.62229584024E+02 -0.12266329133E+02  0.45643538189E+02  0.78284139752E+02  0.47000000000E+01 0. -1.
         -5    1    4    4    0  502  0.57296183498E+02 -0.37858478183E+02  0.86768045730E+02  0.11075604170E+03  0.47000000000E+01 0. -1.
          5    1    5    5  503    0  0.81160020873E+01  0.84838864430E+02  0.77035346645E+02  0.11497841989E+03  0.47000000000E+01 0.  1.
         -5    1    5    5    0  503 -0.31826015611E+01 -0.34714057115E+02 -0.92228071178E+01  0.36364060351E+02  0.47000000000E+01 0.  1.
<mgrwt>
<rscale>  0 0.27526470E+03</rscale>
<asrwt>0</asrwt>
<pdfrwt beam="1">  1        1 0.41585137E-01 0.27526470E+03</pdfrwt>
<pdfrwt beam="2">  1       -1 0.10781426E-01 0.27526470E+03</pdfrwt>
<totfact> 0.53845271E+03</totfact>
</mgrwt>
</event>
<event>
 9    1  0.8093459E-001  0.2764683E+03  0.7818608E-02  0.1097634E+00
          2   -1    0    0  501    0  0.00000000000E+00  0.00000000000E+00  0.88022282978E+02  0.88022282978E+02  0.00000000000E+00 0. -1.
         -2   -1    0    0    0  501 -0.00000000000E+00 -0.00000000000E+00 -0.21708906903E+03  0.21708906903E+03  0.00000000000E+00 0. -1.
         35    2    1    2    0    0  0.71054273576E-14  0.17763568394E-14 -0.12906678606E+03  0.30511135201E+03  0.27646826556E+03 0.  0.
         25    2    3    3    0    0 -0.38104521396E+02 -0.99199218701E+01 -0.67860112577E+02  0.14868917162E+03  0.12630564309E+03 0.  0.
         25    2    3    3    0    0  0.38104521396E+02  0.99199218701E+01 -0.61206673479E+02  0.15642218039E+03  0.13846039954E+03 0.  0.
          5    1    4    4  502    0  0.33810539503E+02  0.15633254377E+02 -0.61377557246E+02  0.71950300607E+02  0.47000000000E+01 0.  1.
         -5    1    4    4    0  502 -0.71915060899E+02 -0.25553176247E+02 -0.64825553305E+01  0.76738871011E+02  0.47000000000E+01 0.  1.
          5    1    5    5  503    0  0.74695325011E+02  0.22892559074E+02  0.61810482861E+01  0.78509593028E+02  0.47000000000E+01 0.  1.
         -5    1    5    5    0  503 -0.36590803616E+02 -0.12972637204E+02 -0.67387721765E+02  0.77912587365E+02  0.47000000000E+01 0.  1.
<mgrwt>
<rscale>  0 0.27646827E+03</rscale>
<asrwt>0</asrwt>
<pdfrwt beam="1">  1        2 0.13541890E-01 0.27646827E+03</pdfrwt>
<pdfrwt beam="2">  1       -2 0.33398318E-01 0.27646827E+03</pdfrwt>
<totfact> 0.36788960E+03</totfact>
</mgrwt>
</event>
<event>
 9    1  0.8093459E-001  0.2788360E+03  0.7818608E-02  0.1096326E+00
          2   -1    0    0  501    0  0.00000000000E+00  0.00000000000E+00  0.12357467501E+04  0.12357467501E+04  0.00000000000E+00 0.  1.
         -2   -1    0    0    0  501 -0.00000000000E+00 -0.00000000000E+00 -0.15729262519E+02  0.15729262519E+02  0.00000000000E+00 0.  1.
         35    2    1    2    0    0  0.00000000000E+00 -0.71054273576E-14  0.12200174876E+04  0.12514760126E+04  0.27883604530E+03 0.  0.
         25    2    3    3    0    0 -0.99835785246E+01  0.56661269688E+02  0.70876144258E+03  0.72197532726E+03  0.12488162138E+03 0.  0.
         25    2    3    3    0    0  0.99835785246E+01 -0.56661269688E+02  0.51125604500E+03  0.52950068536E+03  0.12521206381E+03 0.  0.
          5    1    4    4  502    0 -0.28001062795E+02  0.90581736434E+02  0.57288241834E+03  0.58069395186E+03  0.47000000000E+01 0.  1.
         -5    1    4    4    0  502  0.18017484270E+02 -0.33920466747E+02  0.13587902424E+03  0.14128137539E+03  0.47000000000E+01 0.  1.
          5    1    5    5  503    0 -0.50828993754E+02 -0.26744839669E+02  0.12945049382E+03  0.14169824772E+03  0.47000000000E+01 0.  1.
         -5    1    5    5    0  503  0.60812572279E+02 -0.29916430018E+02  0.38180555118E+03  0.38780243764E+03  0.47000000000E+01 0.  1.
<mgrwt>
<rscale>  0 0.27883605E+03</rscale>
<asrwt>0</asrwt>
<pdfrwt beam="1">  1        2 0.19011481E+00 0.27883605E+03</pdfrwt>
<pdfrwt beam="2">  1       -2 0.24198875E-02 0.27883605E+03</pdfrwt>
<totfact> 0.11113293E+04</totfact>
</mgrwt>
</event>
<event>
 9    1  0.8093459E-001  0.2760842E+03  0.7818608E-02  0.1097847E+00
         -3   -1    0    0    0  501 -0.00000000000E+00  0.00000000000E+00  0.19686898290E+04  0.19686898290E+04  0.00000000000E+00 0. -1.
          3   -1    0    0  501    0  0.00000000000E+00 -0.00000000000E+00 -0.96793393501E+01  0.96793393501E+01  0.00000000000E+00 0. -1.
         35    2    1    2    0    0  0.00000000000E+00  0.35527136788E-14  0.19590104896E+04  0.19783691683E+04  0.27608416782E+03 0.  0.
         25    2    3    3    0    0 -0.36181952363E+00  0.16404583018E+02  0.59179452629E+03  0.60530236520E+03  0.12609897187E+03 0.  0.
         25    2    3    3    0    0  0.36181952363E+00 -0.16404583018E+02  0.13672159634E+04  0.13730668032E+04  0.12555363079E+03 0.  0.
          5    1    4    4  502    0  0.34923155257E+02 -0.34667293873E+02  0.12572659896E+03  0.13509520985E+03  0.47000000000E+01 0.  1.
         -5    1    4    4    0  502 -0.35284974781E+02  0.51071876891E+02  0.46606792733E+03  0.47020715535E+03  0.47000000000E+01 0.  1.
          5    1    5    5  503    0 -0.50061720699E+02 -0.43312786891E+01  0.27381775956E+03  0.27842986784E+03  0.47000000000E+01 0.  1.
         -5    1    5    5    0  503  0.50423540222E+02 -0.12073304329E+02  0.10933982038E+04  0.10946369353E+04  0.47000000000E+01 0.  1.
<mgrwt>
<rscale>  0 0.27608417E+03</rscale>
<asrwt>0</asrwt>
<pdfrwt beam="1">  1        3 0.14891307E-02 0.27608417E+03</pdfrwt>
<pdfrwt beam="2">  1       -3 0.30287504E+00 0.27608417E+03</pdfrwt>
<totfact> 0.16018854E+02</totfact>
</mgrwt>
</event>
<event>
 9    1  0.8093459E-001  0.2726365E+03  0.7818608E-02  0.1099780E+00
         -3   -1    0    0    0  501 -0.00000000000E+00  0.00000000000E+00  0.55685659824E+03  0.55685659824E+03  0.00000000000E+00 0. -1.
          3   -1    0    0  501    0  0.00000000000E+00 -0.00000000000E+00 -0.33370639448E+02  0.33370639448E+02  0.00000000000E+00 0. -1.
         35    2    1    2    0    0  0.00000000000E+00  0.71054273576E-14  0.52348595879E+03  0.59022723769E+03  0.27263646685E+03 0.  0.
         25    2    3    3    0    0 -0.52456361953E+02 -0.13421273576E+02  0.23603230639E+03  0.27231739786E+03  0.12455406467E+03 0.  0.
         25    2    3    3    0    0  0.52456361953E+02  0.13421273576E+02  0.28745365241E+03  0.31790983983E+03  0.12452013285E+03 0.  0.
          5    1    4    4  502    0 -0.65390856695E+02  0.36679464302E+02  0.18418982800E+03  0.19892041117E+03  0.47000000000E+01 0. -1.
         -5    1    4    4    0  502  0.12934494742E+02 -0.50100737878E+02  0.51842478386E+02  0.73396986691E+02  0.47000000000E+01 0. -1.
          5    1    5    5  503    0  0.82634172509E+02  0.42903620253E+02  0.20326956816E+03  0.22362856355E+03  0.47000000000E+01 0.  1.
         -5    1    5    5    0  503 -0.30177810556E+02 -0.29482346677E+02  0.84184084253E+02  0.94281276281E+02  0.47000000000E+01 0.  1.
<mgrwt>
<rscale>  0 0.27263647E+03</rscale>
<asrwt>0</asrwt>
<pdfrwt beam="1">  1        3 0.51339449E-02 0.27263647E+03</pdfrwt>
<pdfrwt beam="2">  1       -3 0.85670239E-01 0.27263647E+03</pdfrwt>
<totfact> 0.71092015E+02</totfact>
</mgrwt>
</event>
<event>
 9    1  0.8093459E-001  0.2787574E+03  0.7818608E-02  0.1096370E+00
          1   -1    0    0  501    0  0.00000000000E+00  0.00000000000E+00  0.85009890811E+03  0.85009890811E+03  0.00000000000E+00 0. -1.
         -1   -1    0    0    0  501 -0.00000000000E+00 -0.00000000000E+00 -0.22851955499E+02  0.22851955499E+02  0.00000000000E+00 0. -1.
         35    2    1    2    0    0  0.14210854715E-13 -0.14210854715E-13  0.82724695261E+03  0.87295086361E+03  0.27875740290E+03 0.  0.
         25    2    3    3    0    0 -0.44112938359E+02  0.33234628622E+02  0.50699765432E+03  0.52485212818E+03  0.12398646337E+03 0.  0.
         25    2    3    3    0    0  0.44112938359E+02 -0.33234628622E+02  0.32024929829E+03  0.34809873543E+03  0.12475024922E+03 0.  0.
          5    1    4    4  502    0  0.27194375209E+02 -0.14913448923E+02  0.28494319822E+03  0.28666471916E+03  0.47000000000E+01 0.  1.
         -5    1    4    4    0  502 -0.71307313568E+02  0.48148077545E+02  0.22205445610E+03  0.23818740901E+03  0.47000000000E+01 0.  1.
          5    1    5    5  503    0 -0.90097106833E+01 -0.23716489365E+02  0.26785064466E+01  0.25940531050E+02  0.47000000000E+01 0. -1.
         -5    1    5    5    0  503  0.53122649042E+02 -0.95181392569E+01  0.31757079185E+03  0.32215820438E+03  0.47000000000E+01 0. -1.
<mgrwt>
<rscale>  0 0.27875740E+03</rscale>
<asrwt>0</asrwt>
<pdfrwt beam="1">  1        1 0.13078442E+00 0.27875740E+03</pdfrwt>
<pdfrwt beam="2">  1       -1 0.35156861E-02 0.27875740E+03</pdfrwt>
<totfact> 0.62357838E+03</totfact>
</mgrwt>
</event>
<event>
 9    1  0.8093459E-001  0.2760627E+03  0.7818608E-02  0.1097859E+00
          2   -1    0    0  501    0  0.00000000000E+00  0.00000000000E+00  0.16895702984E+04  0.16895702984E+04  0.00000000000E+00 0. -1.
         -2   -1    0    0    0  501 -0.00000000000E+00 -0.00000000000E+00 -0.11276625070E+02  0.11276625070E+02  0.00000000000E+00 0. -1.
         35    2    1    2    0    0 -0.21316282073E-13  0.00000000000E+00  0.16782936733E+04  0.17008469234E+04  0.27606267973E+03 0.  0.
         25    2    3    3    0    0 -0.48578735249E+02 -0.18478173381E+02  0.67340385721E+03  0.68681153807E+03  0.12464348166E+03 0.  0.
         25    2    3    3    0    0  0.48578735249E+02  0.18478173381E+02  0.10048898161E+04  0.10140353854E+04  0.12555032408E+03 0.  0.
          5    1    4    4  502    0 -0.75054336391E+02 -0.48847518592E+02  0.37017553617E+03  0.38088220103E+03  0.47000000000E+01 0. -1.
         -5    1    4    4    0  502  0.26475601142E+02  0.30369345212E+02  0.30322832104E+03  0.30592933704E+03  0.47000000000E+01 0. -1.
          5    1    5    5  503    0  0.68524988643E+02 -0.34072557025E+02  0.67718828937E+03  0.68151499064E+03  0.47000000000E+01 0. -1.
         -5    1    5    5    0  503 -0.19946253394E+02  0.52550730406E+02  0.32770152671E+03  0.33252039471E+03  0.47000000000E+01 0. -1.
<mgrwt>
<rscale>  0 0.27606268E+03</rscale>
<asrwt>0</asrwt>
<pdfrwt beam="1">  1        2 0.25993369E+00 0.27606268E+03</pdfrwt>
<pdfrwt beam="2">  1       -2 0.17348667E-02 0.27606268E+03</pdfrwt>
<totfact> 0.10312751E+04</totfact>
</mgrwt>
</event>
<event>
 9    1  0.8093459E-001  0.2756173E+03  0.7818608E-02  0.1098107E+00
          2   -1    0    0  501    0  0.00000000000E+00  0.00000000000E+00  0.10449160986E+04  0.10449160986E+04  0.00000000000E+00 0.  1.
         -2   -1    0    0    0  501 -0.00000000000E+00 -0.00000000000E+00 -0.18174884679E+02  0.18174884679E+02  0.00000000000E+00 0.  1.
         35    2    1    2    0    0  0.35527136788E-14 -0.71054273576E-14  0.10267412139E+04  0.10630909832E+04  0.27561734046E+03 0.  0.
         25    2    3    3    0    0  0.74420859981E+00 -0.47063442358E+02  0.63382280087E+03  0.64788480555E+03  0.12572930011E+03 0.  0.
         25    2    3    3    0    0 -0.74420859981E+00  0.47063442358E+02  0.39291841301E+03  0.41520617769E+03  0.12568122078E+03 0.  0.
          5    1    4    4  502    0  0.14501671690E+02 -0.77531324964E+02  0.57212023628E+03  0.57755091516E+03  0.47000000000E+01 0. -1.
         -5    1    4    4    0  502 -0.13757463091E+02  0.30467882607E+02  0.61702564587E+02  0.70333890393E+02  0.47000000000E+01 0. -1.
          5    1    5    5  503    0  0.33522719586E+02  0.74522665832E+02  0.31681346532E+03  0.32721592605E+03  0.47000000000E+01 0. -1.
         -5    1    5    5    0  503 -0.34266928185E+02 -0.27459223474E+02  0.76104947696E+02  0.87990251646E+02  0.47000000000E+01 0. -1.
<mgrwt>
<rscale>  0 0.27561734E+03</rscale>
<asrwt>0</asrwt>
<pdfrwt beam="1">  1        2 0.16075628E+00 0.27561734E+03</pdfrwt>
<pdfrwt beam="2">  1       -2 0.27961369E-02 0.27561734E+03</pdfrwt>
<totfact> 0.11571264E+04</totfact>
</mgrwt>
</event>
<event>
 9    1  0.8093459E-001  0.2744153E+03  0.7818608E-02  0.1098779E+00
         -2   -1    0    0    0  501 -0.00000000000E+00  0.00000000000E+00  0.11289043190E+02  0.11289043190E+02  0.00000000000E+00 0.  1.
          2   -1    0    0  501    0  0.00000000000E+00 -0.00000000000E+00 -0.16676290193E+04  0.16676290193E+04  0.00000000000E+00 0.  1.
         35    2    1    2    0    0 -0.17763568394E-14  0.00000000000E+00 -0.16563399762E+04  0.16789180625E+04  0.27441527672E+03 0.  0.
         25    2    3    3    0    0  0.12744308059E+02  0.43312154683E+01 -0.49300093238E+03  0.50881885057E+03  0.12516200124E+03 0.  0.
         25    2    3    3    0    0 -0.12744308059E+02 -0.43312154683E+01 -0.11633390438E+04  0.11700992120E+04  0.12487296844E+03 0.  0.
          5    1    4    4  502    0  0.57191957210E+02 -0.23555441207E+02 -0.36766827491E+03  0.37286435758E+03  0.47000000000E+01 0.  1.
         -5    1    4    4    0  502 -0.44447649152E+02  0.27886656675E+02 -0.12533265747E+03  0.13595449299E+03  0.47000000000E+01 0.  1.
          5    1    5    5  503    0  0.25016240238E+01 -0.62895302384E+02 -0.49465775911E+03  0.49866869345E+03  0.47000000000E+01 0.  1.
         -5    1    5    5    0  503 -0.15245932082E+02  0.58564086915E+02 -0.66868128467E+03  0.67143051851E+03  0.47000000000E+01 0.  1.
<mgrwt>
<rscale>  0 0.27441528E+03</rscale>
<asrwt>0</asrwt>
<pdfrwt beam="1">  1        2 0.25655846E+00 0.27441528E+03</pdfrwt>
<pdfrwt beam="2">  1       -2 0.17367749E-02 0.27441528E+03</pdfrwt>
<totfact> 0.10572977E+04</totfact>
</mgrwt>
</event>
<event>
 9    1  0.8093459E-001  0.2769192E+03  0.7818608E-02  0.1097384E+00
          2   -1    0    0  501    0  0.00000000000E+00  0.00000000000E+00  0.27388858516E+03  0.27388858516E+03  0.00000000000E+00 0. -1.
         -2   -1    0    0    0  501 -0.00000000000E+00 -0.00000000000E+00 -0.69995827551E+02  0.69995827551E+02  0.00000000000E+00 0. -1.
         35    2    1    2    0    0 -0.44408920985E-14  0.35527136788E-14  0.20389275761E+03  0.34388441272E+03  0.27691918081E+03 0.  0.
         25    2    3    3    0    0 -0.19461687370E+01  0.18929712701E+02  0.31947888670E+02  0.13037708969E+03  0.12496157942E+03 0.  0.
         25    2    3    3    0    0  0.19461687370E+01 -0.18929712701E+02  0.17194486894E+03  0.21350732302E+03  0.12513279919E+03 0.  0.
          5    1    4    4  502    0  0.53926396267E+01  0.43776086289E+02 -0.36242142576E+02  0.57280094198E+02  0.47000000000E+01 0. -1.
         -5    1    4    4    0  502 -0.73388083637E+01 -0.24846373588E+02  0.68190031246E+02  0.73096995493E+02  0.47000000000E+01 0. -1.
          5    1    5    5  503    0  0.58957644452E+02  0.19017141125E+01  0.11868332200E+03  0.13261765070E+03  0.47000000000E+01 0. -1.
         -5    1    5    5    0  503 -0.57011475715E+02 -0.20831426813E+02  0.53261546945E+02  0.80889672328E+02  0.47000000000E+01 0. -1.
<mgrwt>
<rscale>  0 0.27691918E+03</rscale>
<asrwt>0</asrwt>
<pdfrwt beam="1">  1        2 0.42136705E-01 0.27691918E+03</pdfrwt>
<pdfrwt beam="2">  1       -2 0.10768589E-01 0.27691918E+03</pdfrwt>
<totfact> 0.70621655E+03</totfact>
</mgrwt>
</event>
<event>
 9    1  0.8093459E-001  0.2724039E+03  0.7818608E-02  0.1099912E+00
         -2   -1    0    0    0  501 -0.00000000000E+00  0.00000000000E+00  0.86597690917E+02  0.86597690917E+02  0.00000000000E+00 0. -1.
          2   -1    0    0  501    0  0.00000000000E+00 -0.00000000000E+00 -0.21422018751E+03  0.21422018751E+03  0.00000000000E+00 0. -1.
         35    2    1    2    0    0 -0.71054273576E-14  0.35527136788E-14 -0.12762249659E+03  0.30081787842E+03  0.27240391764E+03 0.  0.
         25    2    3    3    0    0 -0.27914583711E+02  0.62549510939E+01 -0.12880201500E+02  0.12889563309E+03  0.12501934347E+03 0.  0.
         25    2    3    3    0    0  0.27914583711E+02 -0.62549510939E+01 -0.11474229509E+03  0.17192224534E+03  0.12479229048E+03 0.  0.
          5    1    4    4  502    0 -0.91190005255E+01  0.20535938913E+02 -0.66376619621E+02  0.70234084246E+02  0.47000000000E+01 0.  1.
         -5    1    4    4    0  502 -0.18795583185E+02 -0.14280987819E+02  0.53496418121E+02  0.58661548839E+02  0.47000000000E+01 0.  1.
          5    1    5    5  503    0  0.75799724379E+02 -0.16334107280E+02 -0.58646260718E+02  0.97333833649E+02  0.47000000000E+01 0. -1.
         -5    1    5    5    0  503 -0.47885140668E+02  0.10079156186E+02 -0.56096034371E+02  0.74588411690E+02  0.47000000000E+01 0. -1.
<mgrwt>
<rscale>  0 0.27240392E+03</rscale>
<asrwt>0</asrwt>
<pdfrwt beam="1">  1        2 0.32956952E-01 0.27240392E+03</pdfrwt>
<pdfrwt beam="2">  1       -2 0.13322722E-01 0.27240392E+03</pdfrwt>
<totfact> 0.65300037E+03</totfact>
</mgrwt>
</event>
<event>
 9    1  0.8093459E-001  0.2732195E+03  0.7818608E-02  0.1099451E+00
          2   -1    0    0  501    0  0.00000000000E+00  0.00000000000E+00  0.19192948742E+04  0.19192948742E+04  0.00000000000E+00 0. -1.
         -2   -1    0    0    0  501 -0.00000000000E+00 -0.00000000000E+00 -0.97234813210E+01  0.97234813210E+01  0.00000000000E+00 0. -1.
         35    2    1    2    0    0  0.00000000000E+00  0.71054273576E-14  0.19095713929E+04  0.19290183555E+04  0.27321952975E+03 0.  0.
         25    2    3    3    0    0  0.40625050770E+02  0.30842337392E+02  0.80809348869E+03  0.81928061814E+03  0.12491597283E+03 0.  0.
         25    2    3    3    0    0 -0.40625050770E+02 -0.30842337392E+02  0.11014779042E+04  0.11097377374E+04  0.12515042082E+03 0.  0.
          5    1    4    4  502    0  0.71300673631E+02  0.15973774887E+01  0.69059343219E+03  0.69428215897E+03  0.47000000000E+01 0.  1.
         -5    1    4    4    0  502 -0.30675622861E+02  0.29244959904E+02  0.11750005650E+03  0.12499845917E+03  0.47000000000E+01 0.  1.
          5    1    5    5  503    0  0.42224515068E+02  0.42071081581E+01  0.26409950425E+03  0.26752803138E+03  0.47000000000E+01 0.  1.
         -5    1    5    5    0  503 -0.82849565838E+02 -0.35049445550E+02  0.83737839997E+03  0.84220970603E+03  0.47000000000E+01 0.  1.
<mgrwt>
<rscale>  0 0.27321953E+03</rscale>
<asrwt>0</asrwt>
<pdfrwt beam="1">  1        2 0.29527583E+00 0.27321953E+03</pdfrwt>
<pdfrwt beam="2">  1       -2 0.14959217E-02 0.27321953E+03</pdfrwt>
<totfact> 0.97027931E+03</totfact>
</mgrwt>
</event>
<event>
 9    1  0.8093459E-001  0.2776799E+03  0.7818608E-02  0.1096963E+00
         -4   -1    0    0    0  501 -0.00000000000E+00  0.00000000000E+00  0.13708363982E+03  0.13708363982E+03  0.00000000000E+00 0.  1.
          4   -1    0    0  501    0  0.00000000000E+00 -0.00000000000E+00 -0.14061877757E+03  0.14061877757E+03  0.00000000000E+00 0.  1.
         35    2    1    2    0    0  0.35527136788E-14  0.00000000000E+00 -0.35351377446E+01  0.27770241739E+03  0.27767991541E+03 0.  0.
         25    2    3    3    0    0  0.81680308484E+01  0.41460434579E+02 -0.33272099496E+02  0.13573466336E+03  0.12462416246E+03 0.  0.
         25    2    3    3    0    0 -0.81680308484E+01 -0.41460434579E+02  0.29736961751E+02  0.14196775403E+03  0.13223037444E+03 0.  0.
          5    1    4    4  502    0 -0.23126668378E+01  0.44630086322E+02  0.40809010512E+02  0.60701386904E+02  0.47000000000E+01 0. -1.
         -5    1    4    4    0  502  0.10480697686E+02 -0.31696517430E+01 -0.74081110008E+02  0.75033276459E+02  0.47000000000E+01 0. -1.
          5    1    5    5  503    0 -0.47632157407E+02  0.26317569290E+02  0.32110849434E+02  0.63361135753E+02  0.47000000000E+01 0.  1.
         -5    1    5    5    0  503  0.39464126559E+02 -0.67778003870E+02 -0.23738876823E+01  0.78606618273E+02  0.47000000000E+01 0.  1.
<mgrwt>
<rscale>  0 0.27767992E+03</rscale>
<asrwt>0</asrwt>
<pdfrwt beam="1">  1        4 0.21633658E-01 0.27767992E+03</pdfrwt>
<pdfrwt beam="2">  1       -4 0.21089791E-01 0.27767992E+03</pdfrwt>
<totfact> 0.75250610E+02</totfact>
</mgrwt>
</event>
<event>
 9    1  0.8093459E-001  0.2720896E+03  0.7818608E-02  0.1100090E+00
          2   -1    0    0  501    0  0.00000000000E+00  0.00000000000E+00  0.87009056380E+02  0.87009056380E+02  0.00000000000E+00 0.  1.
         -2   -1    0    0    0  501 -0.00000000000E+00 -0.00000000000E+00 -0.21271567792E+03  0.21271567792E+03  0.00000000000E+00 0.  1.
         35    2    1    2    0    0  0.71054273576E-14  0.00000000000E+00 -0.12570662154E+03  0.29972473430E+03  0.27208962063E+03 0.  0.
         25    2    3    3    0    0  0.27202628042E+02  0.43064520137E+02 -0.44264083043E+02  0.14224150426E+03  0.12521501755E+03 0.  0.
         25    2    3    3    0    0 -0.27202628042E+02 -0.43064520137E+02 -0.81442538499E+02  0.15748323004E+03  0.12479400947E+03 0.  0.
          5    1    4    4  502    0 -0.43219130435E+02  0.43945007180E+02 -0.35044049798E+02  0.71057950419E+02  0.47000000000E+01 0.  1.
         -5    1    4    4    0  502  0.70421758477E+02 -0.88048704300E+00 -0.92200332459E+01  0.71183553842E+02  0.47000000000E+01 0.  1.
          5    1    5    5  503    0  0.29024580257E+02 -0.55143161721E+01 -0.84499006373E+02  0.89638195095E+02  0.47000000000E+01 0. -1.
         -5    1    5    5    0  503 -0.56227208300E+02 -0.37550203964E+02  0.30564678735E+01  0.67845034946E+02  0.47000000000E+01 0. -1.
<mgrwt>
<rscale>  0 0.27208962E+03</rscale>
<asrwt>0</asrwt>
<pdfrwt beam="1">  1        2 0.13386009E-01 0.27208962E+03</pdfrwt>
<pdfrwt beam="2">  1       -2 0.32725489E-01 0.27208962E+03</pdfrwt>
<totfact> 0.38712119E+03</totfact>
</mgrwt>
</event>
<event>
 9    1  0.8093459E-001  0.2762606E+03  0.7818608E-02  0.1097749E+00
         -2   -1    0    0    0  501 -0.00000000000E+00  0.00000000000E+00  0.14493023513E+02  0.14493023513E+02  0.00000000000E+00 0.  1.
          2   -1    0    0  501    0  0.00000000000E+00 -0.00000000000E+00 -0.13164939860E+04  0.13164939860E+04  0.00000000000E+00 0.  1.
         35    2    1    2    0    0  0.35527136788E-14  0.00000000000E+00 -0.13020009625E+04  0.13309870095E+04  0.27626058926E+03 0.  0.
         25    2    3    3    0    0  0.31097565371E+02  0.49507319918E+02 -0.66856593994E+03  0.68279732549E+03  0.12575268726E+03 0.  0.
         25    2    3    3    0    0 -0.31097565371E+02 -0.49507319918E+02 -0.63343502257E+03  0.64818968405E+03  0.12446648298E+03 0.  0.
          5    1    4    4  502    0 -0.75459813207E+01  0.84491590590E+02 -0.45886052076E+03  0.46665923137E+03  0.47000000000E+01 0.  1.
         -5    1    4    4    0  502  0.38643546692E+02 -0.34984270672E+02 -0.20970541918E+03  0.21613809412E+03  0.47000000000E+01 0.  1.
          5    1    5    5  503    0  0.18685674273E+00 -0.20372992309E+02 -0.57629049562E+03  0.57666967935E+03  0.47000000000E+01 0. -1.
         -5    1    5    5    0  503 -0.31284422114E+02 -0.29134327609E+02 -0.57144526949E+02  0.71520004701E+02  0.47000000000E+01 0. -1.
<mgrwt>
<rscale>  0 0.27626059E+03</rscale>
<asrwt>0</asrwt>
<pdfrwt beam="1">  1        2 0.20253753E+00 0.27626059E+03</pdfrwt>
<pdfrwt beam="2">  1       -2 0.22296960E-02 0.27626059E+03</pdfrwt>
<totfact> 0.11304850E+04</totfact>
</mgrwt>
</event>
<event>
 9    1  0.8093459E-001  0.2912739E+03  0.7818608E-02  0.1089686E+00
          2   -1    0    0  501    0  0.00000000000E+00  0.00000000000E+00  0.15533148901E+03  0.15533148901E+03  0.00000000000E+00 0. -1.
         -2   -1    0    0    0  501 -0.00000000000E+00 -0.00000000000E+00 -0.13654748282E+03  0.13654748282E+03  0.00000000000E+00 0. -1.
         35    2    1    2    0    0  0.00000000000E+00  0.14210854715E-13  0.18784006188E+02  0.29187897183E+03  0.29127391800E+03 0.  0.
         25    2    3    3    0    0  0.56826467806E+02  0.50192107272E+02 -0.82976684531E+00  0.14596080237E+03  0.12472117799E+03 0.  0.
         25    2    3    3    0    0 -0.56826467806E+02 -0.50192107272E+02  0.19613773033E+02  0.14591816946E+03  0.12312155380E+03 0.  0.
          5    1    4    4  502    0  0.56755097031E+02  0.18558535411E+02 -0.56124981198E+02  0.82083273510E+02  0.47000000000E+01 0. -1.
         -5    1    4    4    0  502  0.71370774648E-01  0.31633571862E+02  0.55295214352E+02  0.63877528856E+02  0.47000000000E+01 0. -1.
          5    1    5    5  503    0  0.20245915359E+02 -0.53377032133E+02 -0.17900858878E+02  0.60012793608E+02  0.47000000000E+01 0.  1.
         -5    1    5    5    0  503 -0.77072383165E+02  0.31849248605E+01  0.37514631911E+02  0.85905375854E+02  0.47000000000E+01 0.  1.
<mgrwt>
<rscale>  0 0.29127392E+03</rscale>
<asrwt>0</asrwt>
<pdfrwt beam="1">  1        2 0.23897152E-01 0.29127392E+03</pdfrwt>
<pdfrwt beam="2">  1       -2 0.21007305E-01 0.29127392E+03</pdfrwt>
<totfact> 0.43549470E+03</totfact>
</mgrwt>
</event>
<event>
 9    1  0.8093459E-001  0.2756121E+03  0.7818608E-02  0.1098110E+00
          2   -1    0    0  501    0  0.00000000000E+00  0.00000000000E+00  0.90677013819E+03  0.90677013819E+03  0.00000000000E+00 0.  1.
         -2   -1    0    0    0  501 -0.00000000000E+00 -0.00000000000E+00 -0.20943027788E+02  0.20943027788E+02  0.00000000000E+00 0.  1.
         35    2    1    2    0    0  0.00000000000E+00  0.14210854715E-13  0.88582711040E+03  0.92771316598E+03  0.27561213472E+03 0.  0.
         25    2    3    3    0    0 -0.20683326447E+02 -0.42005165961E+02  0.54653157808E+03  0.56290561837E+03  0.12638724379E+03 0.  0.
         25    2    3    3    0    0  0.20683326447E+02  0.42005165961E+02  0.33929553232E+03  0.36480754761E+03  0.12558206313E+03 0.  0.
          5    1    4    4  502    0 -0.31780383048E+02 -0.37562959957E+01  0.50175365768E+03  0.50279511284E+03  0.47000000000E+01 0.  1.
         -5    1    4    4    0  502  0.11097056601E+02 -0.38248869966E+02  0.44777920401E+02  0.60110505523E+02  0.47000000000E+01 0.  1.
          5    1    5    5  503    0 -0.29623888016E+02 -0.10930940273E+02  0.21008912241E+02  0.38216810306E+02  0.47000000000E+01 0.  1.
         -5    1    5    5    0  503  0.50307214463E+02  0.52936106235E+02  0.31828662008E+03  0.32659073730E+03  0.47000000000E+01 0.  1.
<mgrwt>
<rscale>  0 0.27561213E+03</rscale>
<asrwt>0</asrwt>
<pdfrwt beam="1">  1        2 0.13950307E+00 0.27561213E+03</pdfrwt>
<pdfrwt beam="2">  1       -2 0.32220050E-02 0.27561213E+03</pdfrwt>
<totfact> 0.11414784E+04</totfact>
</mgrwt>
</event>
<event>
 9    1  0.8093459E-001  0.2734963E+03  0.7818608E-02  0.1099295E+00
          3   -1    0    0  501    0  0.00000000000E+00  0.00000000000E+00  0.41150338182E+03  0.41150338182E+03  0.00000000000E+00 0.  1.
         -3   -1    0    0    0  501 -0.00000000000E+00 -0.00000000000E+00 -0.45443271281E+02  0.45443271281E+02  0.00000000000E+00 0.  1.
         35    2    1    2    0    0  0.00000000000E+00  0.00000000000E+00  0.36606011054E+03  0.45694665310E+03  0.27349632402E+03 0.  0.
         25    2    3    3    0    0  0.19014425692E+02 -0.35868624900E+02  0.24622551186E+03  0.27944227266E+03  0.12574925218E+03 0.  0.
         25    2    3    3    0    0 -0.19014425692E+02  0.35868624900E+02  0.11983459868E+03  0.17750438043E+03  0.12449645536E+03 0.  0.
          5    1    4    4  502    0  0.61827543844E+02 -0.93125795786E+01  0.20437948797E+03  0.21378127706E+03  0.47000000000E+01 0. -1.
         -5    1    4    4    0  502 -0.42813118151E+02 -0.26556045321E+02  0.41846023888E+02  0.65660995607E+02  0.47000000000E+01 0. -1.
          5    1    5    5  503    0 -0.55742120243E+02  0.40934343309E+02  0.12173195760E+03  0.14008413163E+03  0.47000000000E+01 0.  1.
         -5    1    5    5    0  503  0.36727694550E+02 -0.50657184091E+01 -0.18973589272E+01  0.37420248809E+02  0.47000000000E+01 0.  1.
<mgrwt>
<rscale>  0 0.27349632E+03</rscale>
<asrwt>0</asrwt>
<pdfrwt beam="1">  1        3 0.63308210E-01 0.27349632E+03</pdfrwt>
<pdfrwt beam="2">  1       -3 0.69912728E-02 0.27349632E+03</pdfrwt>
<totfact> 0.83157278E+02</totfact>
</mgrwt>
</event>
<event>
 9    1  0.8093459E-001  0.2710361E+03  0.7818608E-02  0.1100688E+00
          1   -1    0    0  501    0  0.00000000000E+00  0.00000000000E+00  0.50879062761E+03  0.50879062761E+03  0.00000000000E+00 0.  1.
         -1   -1    0    0    0  501 -0.00000000000E+00 -0.00000000000E+00 -0.36095663763E+02  0.36095663763E+02  0.00000000000E+00 0.  1.
         35    2    1    2    0    0 -0.35527136788E-14  0.00000000000E+00  0.47269496385E+03  0.54488629137E+03  0.27103605236E+03 0.  0.
         25    2    3    3    0    0 -0.29018655230E+02 -0.27615949809E+02  0.20073763733E+03  0.24268109081E+03  0.13036023074E+03 0.  0.
         25    2    3    3    0    0  0.29018655230E+02  0.27615949809E+02  0.27195732652E+03  0.30220520057E+03  0.12554868685E+03 0.  0.
          5    1    4    4  502    0  0.18729683516E+02  0.45198416555E+02  0.74610734975E+02  0.89345115575E+02  0.47000000000E+01 0.  1.
         -5    1    4    4    0  502 -0.47748338745E+02 -0.72814366363E+02  0.12612690236E+03  0.15333597523E+03  0.47000000000E+01 0.  1.
          5    1    5    5  503    0 -0.10301454781E+02  0.71662638046E+02  0.14882963976E+03  0.16557175282E+03  0.47000000000E+01 0.  1.
         -5    1    5    5    0  503  0.39320110011E+02 -0.44046688238E+02  0.12312768676E+03  0.13663344775E+03  0.47000000000E+01 0.  1.
<mgrwt>
<rscale>  0 0.27103605E+03</rscale>
<asrwt>0</asrwt>
<pdfrwt beam="1">  1        1 0.78275476E-01 0.27103605E+03</pdfrwt>
<pdfrwt beam="2">  1       -1 0.55531794E-02 0.27103605E+03</pdfrwt>
<totfact> 0.65910522E+03</totfact>
</mgrwt>
</event>
<event>
 9    1  0.8093459E-001  0.2751018E+03  0.7818608E-02  0.1098395E+00
          1   -1    0    0  501    0  0.00000000000E+00  0.00000000000E+00  0.20971821254E+04  0.20971821254E+04  0.00000000000E+00 0.  1.
         -1   -1    0    0    0  501 -0.00000000000E+00 -0.00000000000E+00 -0.90217457535E+01  0.90217457535E+01  0.00000000000E+00 0.  1.
         35    2    1    2    0    0  0.35527136788E-14  0.00000000000E+00  0.20881603797E+04  0.21062038712E+04  0.27510175524E+03 0.  0.
         25    2    3    3    0    0  0.13598928633E+02 -0.16095074821E+02  0.14422359009E+04  0.14477612552E+04  0.12459645175E+03 0.  0.
         25    2    3    3    0    0 -0.13598928633E+02  0.16095074821E+02  0.64592447872E+03  0.65844261598E+03  0.12603278948E+03 0.  0.
          5    1    4    4  502    0  0.56580376071E+02 -0.30082946140E+02  0.11696299027E+04  0.11713934104E+04  0.47000000000E+01 0.  1.
         -5    1    4    4    0  502 -0.42981447438E+02  0.13987871319E+02  0.27260599822E+03  0.27636784479E+03  0.47000000000E+01 0.  1.
          5    1    5    5  503    0 -0.93113418668E+01 -0.35702953666E+02  0.53010735892E+03  0.53141067355E+03  0.47000000000E+01 0.  1.
         -5    1    5    5    0  503 -0.42875867658E+01  0.51798028487E+02  0.11581711980E+03  0.12703194242E+03  0.47000000000E+01 0.  1.
<mgrwt>
<rscale>  0 0.27510176E+03</rscale>
<asrwt>0</asrwt>
<pdfrwt beam="1">  1        1 0.32264302E+00 0.27510176E+03</pdfrwt>
<pdfrwt beam="2">  1       -1 0.13879626E-02 0.27510176E+03</pdfrwt>
<totfact> 0.34088047E+03</totfact>
</mgrwt>
</event>
<event>
 9    1  0.8093459E-001  0.3091387E+03  0.7818608E-02  0.1080759E+00
         -2   -1    0    0    0  501 -0.00000000000E+00  0.00000000000E+00  0.23514723886E+02  0.23514723886E+02  0.00000000000E+00 0. -1.
          2   -1    0    0  501    0  0.00000000000E+00 -0.00000000000E+00 -0.10160306902E+04  0.10160306902E+04  0.00000000000E+00 0. -1.
         35    2    1    2    0    0  0.00000000000E+00  0.00000000000E+00 -0.99251596631E+03  0.10395454141E+04  0.30913868176E+03 0.  0.
         25    2    3    3    0    0 -0.39339488123E+02  0.78997528020E+02 -0.43648730286E+03  0.46292256406E+03  0.12644338655E+03 0.  0.
         25    2    3    3    0    0  0.39339488123E+02 -0.78997528020E+02 -0.55602866345E+03  0.57662285002E+03  0.12465083965E+03 0.  0.
          5    1    4    4  502    0 -0.18847060069E+02 -0.31623607424E+02 -0.16280647023E+03  0.16698293616E+03  0.47000000000E+01 0.  1.
         -5    1    4    4    0  502 -0.20492428054E+02  0.11062113544E+03 -0.27368083263E+03  0.29593962790E+03  0.47000000000E+01 0.  1.
          5    1    5    5  503    0  0.48323740415E+02 -0.91346440496E+02 -0.54984199316E+03  0.55948875191E+03  0.47000000000E+01 0.  1.
         -5    1    5    5    0  503 -0.89842522919E+01  0.12348912476E+02 -0.61866702951E+01  0.17134098107E+02  0.47000000000E+01 0.  1.
<mgrwt>
<rscale>  0 0.30913868E+03</rscale>
<asrwt>0</asrwt>
<pdfrwt beam="1">  1        2 0.15631240E+00 0.30913868E+03</pdfrwt>
<pdfrwt beam="2">  1       -2 0.36176501E-02 0.30913868E+03</pdfrwt>
<totfact> 0.82233564E+03</totfact>
</mgrwt>
</event>
<event>
 9    1  0.8093459E-001  0.2720579E+03  0.7818608E-02  0.1100108E+00
          2   -1    0    0  501    0  0.00000000000E+00  0.00000000000E+00  0.24002729540E+03  0.24002729540E+03  0.00000000000E+00 0.  1.
         -2   -1    0    0    0  501 -0.00000000000E+00 -0.00000000000E+00 -0.77090717247E+02  0.77090717247E+02  0.00000000000E+00 0.  1.
         35    2    1    2    0    0  0.00000000000E+00  0.35527136788E-14  0.16293657815E+03  0.31711801265E+03  0.27205790826E+03 0.  0.
         25    2    3    3    0    0  0.45226880059E+02 -0.49820153552E+01  0.11905528920E+03  0.17836496424E+03  0.12477823298E+03 0.  0.
         25    2    3    3    0    0 -0.45226880059E+02  0.49820153552E+01  0.43881288949E+02  0.13875304841E+03  0.12351740673E+03 0.  0.
          5    1    4    4  502    0 -0.38860475126E+02  0.16263094913E+02  0.20777668619E+02  0.47206210358E+02  0.47000000000E+01 0. -1.
         -5    1    4    4    0  502  0.84087355184E+02 -0.21245110268E+02  0.98277620585E+02  0.13115875388E+03  0.47000000000E+01 0. -1.
          5    1    5    5  503    0  0.14411569473E+02 -0.45880382510E+02  0.35137991645E+02  0.59745052437E+02  0.47000000000E+01 0.  1.
         -5    1    5    5    0  503 -0.59638449532E+02  0.50862397865E+02  0.87432973035E+01  0.79007995968E+02  0.47000000000E+01 0.  1.
<mgrwt>
<rscale>  0 0.27205791E+03</rscale>
<asrwt>0</asrwt>
<pdfrwt beam="1">  1        2 0.36927276E-01 0.27205791E+03</pdfrwt>
<pdfrwt beam="2">  1       -2 0.11860110E-01 0.27205791E+03</pdfrwt>
<totfact> 0.69687556E+03</totfact>
</mgrwt>
</event>
<event>
 9    1  0.8093459E-001  0.2756061E+03  0.7818608E-02  0.1098113E+00
          2   -1    0    0  501    0  0.00000000000E+00  0.00000000000E+00  0.12341485444E+02  0.12341485444E+02  0.00000000000E+00 0. -1.
         -2   -1    0    0    0  501 -0.00000000000E+00 -0.00000000000E+00 -0.15386870790E+04  0.15386870790E+04  0.00000000000E+00 0. -1.
         35    2    1    2    0    0  0.00000000000E+00 -0.71054273576E-14 -0.15263455936E+04  0.15510285645E+04  0.27560612611E+03 0.  0.
         25    2    3    3    0    0  0.36713662012E+02  0.34618295079E+02 -0.90554647035E+03  0.91556774819E+03  0.12531389474E+03 0.  0.
         25    2    3    3    0    0 -0.36713662012E+02 -0.34618295079E+02 -0.62079912322E+03  0.63546081627E+03  0.12598642108E+03 0.  0.
          5    1    4    4  502    0 -0.15564681326E+01  0.70654493527E+02 -0.69121140336E+03  0.69483075218E+03  0.47000000000E+01 0.  1.
         -5    1    4    4    0  502  0.38270130145E+02 -0.36036198448E+02 -0.21433506700E+03  0.22073699600E+03  0.47000000000E+01 0.  1.
          5    1    5    5  503    0 -0.25377483271E+02  0.38098912406E+02 -0.40074537159E+03  0.40337883761E+03  0.47000000000E+01 0.  1.
         -5    1    5    5    0  503 -0.11336178741E+02 -0.72717207485E+02 -0.22005375163E+03  0.23208197866E+03  0.47000000000E+01 0.  1.
<mgrwt>
<rscale>  0 0.27560613E+03</rscale>
<asrwt>0</asrwt>
<pdfrwt beam="1">  1        2 0.18986918E-02 0.27560613E+03</pdfrwt>
<pdfrwt beam="2">  1       -2 0.23672088E+00 0.27560613E+03</pdfrwt>
<totfact> 0.50595377E+02</totfact>
</mgrwt>
</event>
<event>
 9    1  0.8093459E-001  0.2587475E+03  0.7818608E-02  0.1107898E+00
          2   -1    0    0  501    0  0.00000000000E+00  0.00000000000E+00  0.17037891933E+04  0.17037891933E+04  0.00000000000E+00 0. -1.
         -2   -1    0    0    0  501 -0.00000000000E+00 -0.00000000000E+00 -0.98237335197E+01  0.98237335197E+01  0.00000000000E+00 0. -1.
         35    2    1    2    0    0 -0.35527136788E-14  0.71054273576E-14  0.16939654598E+04  0.17136129268E+04  0.25874752952E+03 0.  0.
         25    2    3    3    0    0  0.21391847208E+02 -0.22975036805E+02  0.81911441930E+03  0.82925023530E+03  0.12538762852E+03 0.  0.
         25    2    3    3    0    0 -0.21391847208E+02  0.22975036805E+02  0.87485104047E+03  0.88436269151E+03  0.12548929712E+03 0.  0.
          5    1    4    4  502    0 -0.11756747825E+02 -0.12229081662E+02  0.76184066542E+03  0.76204400204E+03  0.47000000000E+01 0.  1.
         -5    1    4    4    0  502  0.33148595033E+02 -0.10745955144E+02  0.57273753880E+02  0.67206233253E+02  0.47000000000E+01 0.  1.
          5    1    5    5  503    0  0.22038016375E+02  0.64145733569E+02  0.52743953419E+03  0.53180344257E+03  0.47000000000E+01 0.  1.
         -5    1    5    5    0  503 -0.43429863583E+02 -0.41170696764E+02  0.34741150628E+03  0.35255924895E+03  0.47000000000E+01 0.  1.
<mgrwt>
<rscale>  0 0.25874753E+03</rscale>
<asrwt>0</asrwt>
<pdfrwt beam="1">  1        2 0.26212118E+00 0.25874753E+03</pdfrwt>
<pdfrwt beam="2">  1       -2 0.15113450E-02 0.25874753E+03</pdfrwt>
<totfact> 0.12388903E+04</totfact>
</mgrwt>
</event>
<event>
 9    1  0.8093459E-001  0.2718282E+03  0.7818608E-02  0.1100238E+00
          2   -1    0    0  501    0  0.00000000000E+00  0.00000000000E+00  0.23063336855E+04  0.23063336855E+04  0.00000000000E+00 0.  1.
         -2   -1    0    0    0  501 -0.00000000000E+00 -0.00000000000E+00 -0.80095249193E+01  0.80095249193E+01  0.00000000000E+00 0.  1.
         35    2    1    2    0    0  0.00000000000E+00  0.00000000000E+00  0.22983241605E+04  0.23143432104E+04  0.27182815988E+03 0.  0.
         25    2    3    3    0    0 -0.28392383448E+02  0.46484298415E+02  0.12807985567E+04  0.12878819515E+04  0.12340202886E+03 0.  0.
         25    2    3    3    0    0  0.28392383448E+02 -0.46484298415E+02  0.10175256038E+04  0.10264612588E+04  0.12368283658E+03 0.  0.
          5    1    4    4  502    0  0.21851672419E+02  0.88580409293E+01  0.99251663798E+03  0.99280779970E+03  0.47000000000E+01 0.  1.
         -5    1    4    4    0  502 -0.50244055867E+02  0.37626257486E+02  0.28828191875E+03  0.29507415183E+03  0.47000000000E+01 0.  1.
          5    1    5    5  503    0  0.70719940835E+02 -0.55954598957E+02  0.74736481864E+03  0.75280043126E+03  0.47000000000E+01 0. -1.
         -5    1    5    5    0  503 -0.42327557387E+02  0.94703005415E+01  0.27016078517E+03  0.27366082757E+03  0.47000000000E+01 0. -1.
<mgrwt>
<rscale>  0 0.27182816E+03</rscale>
<asrwt>0</asrwt>
<pdfrwt beam="1">  1        2 0.35482004E+00 0.27182816E+03</pdfrwt>
<pdfrwt beam="2">  1       -2 0.12322364E-02 0.27182816E+03</pdfrwt>
<totfact> 0.80339652E+03</totfact>
</mgrwt>
</event>
<event>
 9    1  0.8093459E-001  0.2809096E+03  0.7818608E-02  0.1095193E+00
         -2   -1    0    0    0  501 -0.00000000000E+00  0.00000000000E+00  0.80710168154E+01  0.80710168154E+01  0.00000000000E+00 0.  1.
          2   -1    0    0  501    0  0.00000000000E+00 -0.00000000000E+00 -0.24442460106E+04  0.24442460106E+04  0.00000000000E+00 0.  1.
         35    2    1    2    0    0  0.00000000000E+00  0.00000000000E+00 -0.24361749938E+04  0.24523170274E+04  0.28090959864E+03 0.  0.
         25    2    3    3    0    0  0.23583038777E+02  0.60737730812E+02 -0.11549493592E+04  0.11633631470E+04  0.12353362966E+03 0.  0.
         25    2    3    3    0    0 -0.23583038777E+02 -0.60737730812E+02 -0.12812256346E+04  0.12889538805E+04  0.12497098718E+03 0.  0.
          5    1    4    4  502    0 -0.15516488010E+02  0.74211648090E+02 -0.39276782676E+03  0.40004597967E+03  0.47000000000E+01 0.  1.
         -5    1    4    4    0  502  0.39099526787E+02 -0.13473917279E+02 -0.76218153246E+03  0.76331716728E+03  0.47000000000E+01 0.  1.
          5    1    5    5  503    0 -0.14780194176E+02 -0.23224346558E+01 -0.16222537836E+02  0.22563434500E+02  0.47000000000E+01 0. -1.
         -5    1    5    5    0  503 -0.88028446016E+01 -0.58415296156E+02 -0.12650030967E+04  0.12663904460E+04  0.47000000000E+01 0. -1.
<mgrwt>
<rscale>  0 0.28090960E+03</rscale>
<asrwt>0</asrwt>
<pdfrwt beam="1">  1        2 0.37603826E+00 0.28090960E+03</pdfrwt>
<pdfrwt beam="2">  1       -2 0.12416935E-02 0.28090960E+03</pdfrwt>
<totfact> 0.66913506E+03</totfact>
</mgrwt>
</event>
<event>
 9    1  0.8093459E-001  0.2740199E+03  0.7818608E-02  0.1099001E+00
         -1   -1    0    0    0  501 -0.00000000000E+00  0.00000000000E+00  0.39144098024E+02  0.39144098024E+02  0.00000000000E+00 0.  1.
          1   -1    0    0  501    0  0.00000000000E+00 -0.00000000000E+00 -0.47955442750E+03  0.47955442750E+03  0.00000000000E+00 0.  1.
         35    2    1    2    0    0  0.00000000000E+00  0.35527136788E-14 -0.44041032947E+03  0.51869852552E+03  0.27401989357E+03 0.  0.
         25    2    3    3    0    0 -0.29104424901E+02 -0.26790772061E+02 -0.29770099662E+03  0.32530476396E+03  0.12502996860E+03 0.  0.
         25    2    3    3    0    0  0.29104424901E+02  0.26790772061E+02 -0.14270933285E+03  0.19339376156E+03  0.12437998357E+03 0.  0.
          5    1    4    4  502    0 -0.62356012268E+02 -0.21716128169E+02 -0.75024797246E+02  0.10005334922E+03  0.47000000000E+01 0. -1.
         -5    1    4    4    0  502  0.33251587366E+02 -0.50746438918E+01 -0.22267619937E+03  0.22525141474E+03  0.47000000000E+01 0. -1.
          5    1    5    5  503    0  0.17724051050E+02  0.40767386623E+02  0.45762915798E+01  0.44935000192E+02  0.47000000000E+01 0. -1.
         -5    1    5    5    0  503  0.11380373851E+02 -0.13976614562E+02 -0.14728562443E+03  0.14845876137E+03  0.47000000000E+01 0. -1.
<mgrwt>
<rscale>  0 0.27401989E+03</rscale>
<asrwt>0</asrwt>
<pdfrwt beam="1">  1        1 0.73777600E-01 0.27401989E+03</pdfrwt>
<pdfrwt beam="2">  1       -1 0.60221692E-02 0.27401989E+03</pdfrwt>
<totfact> 0.63116188E+03</totfact>
</mgrwt>
</event>
<event>
 9    1  0.8093459E-001  0.2750939E+03  0.7818608E-02  0.1098399E+00
          1   -1    0    0  501    0  0.00000000000E+00  0.00000000000E+00  0.17438038255E+03  0.17438038255E+03  0.00000000000E+00 0.  1.
         -1   -1    0    0    0  501 -0.00000000000E+00 -0.00000000000E+00 -0.10849364044E+03  0.10849364044E+03  0.00000000000E+00 0.  1.
         35    2    1    2    0    0  0.35527136788E-14 -0.17763568394E-14  0.65886742111E+02  0.28287402298E+03  0.27509389323E+03 0.  0.
         25    2    3    3    0    0  0.16070719572E+02 -0.14962723360E+02  0.81515385001E+02  0.15530423540E+03  0.13035527002E+03 0.  0.
         25    2    3    3    0    0 -0.16070719572E+02  0.14962723360E+02 -0.15628642890E+02  0.12756978759E+03  0.12469019652E+03 0.  0.
          5    1    4    4  502    0 -0.34321017922E+02 -0.30783363827E+02 -0.11937896440E+02  0.47855523517E+02  0.47000000000E+01 0.  1.
         -5    1    4    4    0  502  0.50391737494E+02  0.15820640467E+02  0.93453281440E+02  0.10744871188E+03  0.47000000000E+01 0.  1.
          5    1    5    5  503    0  0.10499469905E+02 -0.67372285019E+01 -0.65507558702E+02  0.66850275715E+02  0.47000000000E+01 0.  1.
         -5    1    5    5    0  503 -0.26570189477E+02  0.21699951861E+02  0.49878915812E+02  0.60719511874E+02  0.47000000000E+01 0.  1.
<mgrwt>
<rscale>  0 0.27509389E+03</rscale>
<asrwt>0</asrwt>
<pdfrwt beam="1">  1        1 0.26827751E-01 0.27509389E+03</pdfrwt>
<pdfrwt beam="2">  1       -1 0.16691329E-01 0.27509389E+03</pdfrwt>
<totfact> 0.46980492E+03</totfact>
</mgrwt>
</event>
<event>
 9    1  0.8093459E-001  0.2755235E+03  0.7818608E-02  0.1098159E+00
         -2   -1    0    0    0  501 -0.00000000000E+00  0.00000000000E+00  0.25884469347E+02  0.25884469347E+02  0.00000000000E+00 0. -1.
          2   -1    0    0  501    0  0.00000000000E+00 -0.00000000000E+00 -0.73319261905E+03  0.73319261905E+03  0.00000000000E+00 0. -1.
         35    2    1    2    0    0  0.35527136788E-14  0.71054273576E-14 -0.70730814970E+03  0.75907708839E+03  0.27552351531E+03 0.  0.
         25    2    3    3    0    0 -0.22728158626E+02  0.43766271011E+02 -0.44505113445E+03  0.46492072424E+03  0.12509481154E+03 0.  0.
         25    2    3    3    0    0  0.22728158626E+02 -0.43766271011E+02 -0.26225701524E+03  0.29415636415E+03  0.12376255029E+03 0.  0.
          5    1    4    4  502    0  0.18071522843E+02 -0.33190232698E+02 -0.68262428342E+02  0.78166620802E+02  0.47000000000E+01 0. -1.
         -5    1    4    4    0  502 -0.40799681469E+02  0.76956503709E+02 -0.37678870611E+03  0.38675410344E+03  0.47000000000E+01 0. -1.
          5    1    5    5  503    0  0.54976248396E+02 -0.69775659253E+02 -0.20365100140E+03  0.22223152540E+03  0.47000000000E+01 0. -1.
         -5    1    5    5    0  503 -0.32248089770E+02  0.26009388242E+02 -0.58606013846E+02  0.71924838752E+02  0.47000000000E+01 0. -1.
<mgrwt>
<rscale>  0 0.27552352E+03</rscale>
<asrwt>0</asrwt>
<pdfrwt beam="1">  1        2 0.11279886E+00 0.27552352E+03</pdfrwt>
<pdfrwt beam="2">  1       -2 0.39822262E-02 0.27552352E+03</pdfrwt>
<totfact> 0.10919265E+04</totfact>
</mgrwt>
</event>
<event>
 9    1  0.8093459E-001  0.2772151E+03  0.7818608E-02  0.1097220E+00
         -2   -1    0    0    0  501 -0.00000000000E+00  0.00000000000E+00  0.13002685720E+02  0.13002685720E+02  0.00000000000E+00 0. -1.
          2   -1    0    0  501    0  0.00000000000E+00 -0.00000000000E+00 -0.14775444647E+04  0.14775444647E+04  0.00000000000E+00 0. -1.
         35    2    1    2    0    0 -0.71054273576E-14  0.00000000000E+00 -0.14645417790E+04  0.14905471504E+04  0.27721505234E+03 0.  0.
         25    2    3    3    0    0  0.30544904893E+02  0.30811641109E+02 -0.95689001736E+03  0.96596861007E+03  0.12479784407E+03 0.  0.
         25    2    3    3    0    0 -0.30544904893E+02 -0.30811641109E+02 -0.50765176165E+03  0.52457854037E+03  0.12485986333E+03 0.  0.
          5    1    4    4  502    0  0.17658680623E+02  0.61623100766E+02 -0.24534441066E+03  0.25362414198E+03  0.47000000000E+01 0. -1.
         -5    1    4    4    0  502  0.12886224270E+02 -0.30811459657E+02 -0.71154560669E+03  0.71234446810E+03  0.47000000000E+01 0. -1.
          5    1    5    5  503    0 -0.37124880009E+02 -0.76631919932E+02 -0.30918113626E+03  0.32072694443E+03  0.47000000000E+01 0.  1.
         -5    1    5    5    0  503  0.65799751158E+01  0.45820278822E+02 -0.19847062539E+03  0.20385159594E+03  0.47000000000E+01 0.  1.
<mgrwt>
<rscale>  0 0.27721505E+03</rscale>
<asrwt>0</asrwt>
<pdfrwt beam="1">  1        2 0.22731446E+00 0.27721505E+03</pdfrwt>
<pdfrwt beam="2">  1       -2 0.20004138E-02 0.27721505E+03</pdfrwt>
<totfact> 0.10843337E+04</totfact>
</mgrwt>
</event>
<event>
 9    1  0.8093459E-001  0.2661235E+03  0.7818608E-02  0.1103519E+00
         -2   -1    0    0    0  501 -0.00000000000E+00  0.00000000000E+00  0.31107812449E+02  0.31107812449E+02  0.00000000000E+00 0.  1.
          2   -1    0    0  501    0  0.00000000000E+00 -0.00000000000E+00 -0.56916342263E+03  0.56916342263E+03  0.00000000000E+00 0.  1.
         35    2    1    2    0    0 -0.35527136788E-14 -0.71054273576E-14 -0.53805561018E+03  0.60027123508E+03  0.26612349768E+03 0.  0.
         25    2    3    3    0    0 -0.31583952985E+02 -0.22407897850E+02 -0.32503820429E+03  0.35047819380E+03  0.12524164687E+03 0.  0.
         25    2    3    3    0    0  0.31583952985E+02  0.22407897850E+02 -0.21301740589E+03  0.24979304128E+03  0.12458125174E+03 0.  0.
          5    1    4    4  502    0  0.30585765589E+02 -0.22124264171E+01 -0.24534460020E+03  0.24729829505E+03  0.47000000000E+01 0.  1.
         -5    1    4    4    0  502 -0.62169718574E+02 -0.20195471433E+02 -0.79693604094E+02  0.10317989876E+03  0.47000000000E+01 0.  1.
          5    1    5    5  503    0  0.16546472279E+01 -0.50872409326E+02 -0.86867923012E+02  0.10079119970E+03  0.47000000000E+01 0. -1.
         -5    1    5    5    0  503  0.29929305757E+02  0.73280307177E+02 -0.12614948288E+03  0.14900184158E+03  0.47000000000E+01 0. -1.
<mgrwt>
<rscale>  0 0.26612350E+03</rscale>
<asrwt>0</asrwt>
<pdfrwt beam="1">  1        2 0.87563603E-01 0.26612350E+03</pdfrwt>
<pdfrwt beam="2">  1       -2 0.47858174E-02 0.26612350E+03</pdfrwt>
<totfact> 0.11155880E+04</totfact>
</mgrwt>
</event>
<event>
 9    1  0.8093459E-001  0.2770553E+03  0.7818608E-02  0.1097308E+00
          2   -1    0    0  501    0  0.00000000000E+00  0.00000000000E+00  0.16442130028E+04  0.16442130028E+04  0.00000000000E+00 0.  1.
         -2   -1    0    0    0  501 -0.00000000000E+00 -0.00000000000E+00 -0.11671182321E+02  0.11671182321E+02  0.00000000000E+00 0.  1.
         35    2    1    2    0    0  0.00000000000E+00  0.00000000000E+00  0.16325418205E+04  0.16558841851E+04  0.27705529939E+03 0.  0.
         25    2    3    3    0    0 -0.28136793229E+02  0.35970869943E+02  0.10643272959E+04  0.10726588807E+04  0.12537503336E+03 0.  0.
         25    2    3    3    0    0  0.28136793229E+02 -0.35970869943E+02  0.56821452457E+03  0.58322530438E+03  0.12328190104E+03 0.  0.
          5    1    4    4  502    0  0.24791420363E+02  0.57320519086E+02  0.31617125483E+03  0.32231445641E+03  0.47000000000E+01 0. -1.
         -5    1    4    4    0  502 -0.52928213592E+02 -0.21349649143E+02  0.74815604106E+03  0.75034442431E+03  0.47000000000E+01 0. -1.
          5    1    5    5  503    0 -0.42474963221E+02 -0.64547982053E+01  0.10247250994E+03  0.11121372313E+03  0.47000000000E+01 0. -1.
         -5    1    5    5    0  503  0.70611756450E+02 -0.29516071738E+02  0.46574201463E+03  0.47201158125E+03  0.47000000000E+01 0. -1.
<mgrwt>
<rscale>  0 0.27705530E+03</rscale>
<asrwt>0</asrwt>
<pdfrwt beam="1">  1        2 0.25295566E+00 0.27705530E+03</pdfrwt>
<pdfrwt beam="2">  1       -2 0.17955678E-02 0.27705530E+03</pdfrwt>
<totfact> 0.10361349E+04</totfact>
</mgrwt>
</event>
<event>
 9    1  0.8093459E-001  0.2721609E+03  0.7818608E-02  0.1100049E+00
         -1   -1    0    0    0  501 -0.00000000000E+00  0.00000000000E+00  0.56786192384E+02  0.56786192384E+02  0.00000000000E+00 0.  1.
          1   -1    0    0  501    0  0.00000000000E+00 -0.00000000000E+00 -0.32609834959E+03  0.32609834959E+03  0.00000000000E+00 0.  1.
         35    2    1    2    0    0  0.00000000000E+00  0.00000000000E+00 -0.26931215721E+03  0.38288454198E+03  0.27216086137E+03 0.  0.
         25    2    3    3    0    0 -0.53624999570E+02  0.67457448733E+01 -0.13763306157E+03  0.19372532239E+03  0.12516187616E+03 0.  0.
         25    2    3    3    0    0  0.53624999570E+02 -0.67457448733E+01 -0.13167909564E+03  0.18915921959E+03  0.12458202308E+03 0.  0.
          5    1    4    4  502    0  0.16992564928E+02  0.26812711864E+02 -0.11090873522E+03  0.11545781189E+03  0.47000000000E+01 0. -1.
         -5    1    4    4    0  502 -0.70617564498E+02 -0.20066966991E+02 -0.26724326356E+02  0.78267510494E+02  0.47000000000E+01 0. -1.
          5    1    5    5  503    0 -0.64004048698E+01  0.24626010701E+02 -0.11683176134E+03  0.11966267606E+03  0.47000000000E+01 0. -1.
         -5    1    5    5    0  503  0.60025404440E+02 -0.31371755574E+02 -0.14847334300E+02  0.69496543524E+02  0.47000000000E+01 0. -1.
<mgrwt>
<rscale>  0 0.27216086E+03</rscale>
<asrwt>0</asrwt>
<pdfrwt beam="1">  1        1 0.50168977E-01 0.27216086E+03</pdfrwt>
<pdfrwt beam="2">  1       -1 0.87363372E-02 0.27216086E+03</pdfrwt>
<totfact> 0.58807838E+03</totfact>
</mgrwt>
</event>
<event>
 9    1  0.8093459E-001  0.2755235E+03  0.7818608E-02  0.1098159E+00
          2   -1    0    0  501    0  0.00000000000E+00  0.00000000000E+00  0.11657118400E+04  0.11657118400E+04  0.00000000000E+00 0. -1.
         -2   -1    0    0    0  501 -0.00000000000E+00 -0.00000000000E+00 -0.16280436867E+02  0.16280436867E+02  0.00000000000E+00 0. -1.
         35    2    1    2    0    0 -0.14210854715E-13  0.17763568394E-14  0.11494314032E+04  0.11819922769E+04  0.27552348732E+03 0.  0.
         25    2    3    3    0    0  0.45058891126E+02 -0.12052808484E+02  0.74980674627E+03  0.76141866630E+03  0.12398651050E+03 0.  0.
         25    2    3    3    0    0 -0.45058891126E+02  0.12052808484E+02  0.39962465691E+03  0.42057361061E+03  0.12250192516E+03 0.  0.
          5    1    4    4  502    0 -0.81189562541E+00 -0.22470984974E+02  0.65573171161E+03  0.65613395884E+03  0.47000000000E+01 0. -1.
         -5    1    4    4    0  502  0.45870786751E+02  0.10418176490E+02  0.94075034659E+02  0.10528470746E+03  0.47000000000E+01 0. -1.
          5    1    5    5  503    0 -0.44763913103E+02 -0.31495915448E+02  0.35040646256E+03  0.35468659350E+03  0.47000000000E+01 0. -1.
         -5    1    5    5    0  503 -0.29497802238E+00  0.43548723932E+02  0.49218194354E+02  0.65887017109E+02  0.47000000000E+01 0. -1.
<mgrwt>
<rscale>  0 0.27552349E+03</rscale>
<asrwt>0</asrwt>
<pdfrwt beam="1">  1        2 0.17934022E+00 0.27552349E+03</pdfrwt>
<pdfrwt beam="2">  1       -2 0.25046835E-02 0.27552349E+03</pdfrwt>
<totfact> 0.11571288E+04</totfact>
</mgrwt>
</event>
<event>
 9    1  0.8093459E-001  0.2774612E+03  0.7818608E-02  0.1097084E+00
          2   -1    0    0  501    0  0.00000000000E+00  0.00000000000E+00  0.28180689109E+03  0.28180689109E+03  0.00000000000E+00 0.  1.
         -2   -1    0    0    0  501 -0.00000000000E+00 -0.00000000000E+00 -0.68295608080E+02  0.68295608080E+02  0.00000000000E+00 0.  1.
         35    2    1    2    0    0  0.00000000000E+00 -0.71054273576E-14  0.21351128301E+03  0.35010249917E+03  0.27746115395E+03 0.  0.
         25    2    3    3    0    0 -0.26887760421E+02 -0.54114875264E+02  0.11574632872E+03  0.18064903982E+03  0.12484186634E+03 0.  0.
         25    2    3    3    0    0  0.26887760421E+02  0.54114875264E+02  0.97764954290E+02  0.16945345935E+03  0.12451954551E+03 0.  0.
          5    1    4    4  502    0 -0.60901222837E+01 -0.35080763417E+02  0.13914858202E+03  0.14370861988E+03  0.47000000000E+01 0.  1.
         -5    1    4    4    0  502 -0.20797638138E+02 -0.19034111847E+02 -0.23402253295E+02  0.36940419938E+02  0.47000000000E+01 0.  1.
          5    1    5    5  503    0 -0.17775153491E+02  0.74667730086E+02  0.23766835056E+02  0.80487132179E+02  0.47000000000E+01 0.  1.
         -5    1    5    5    0  503  0.44662913913E+02 -0.20552854822E+02  0.73998119234E+02  0.88966327173E+02  0.47000000000E+01 0.  1.
<mgrwt>
<rscale>  0 0.27746115E+03</rscale>
<asrwt>0</asrwt>
<pdfrwt beam="1">  1        2 0.43354906E-01 0.27746115E+03</pdfrwt>
<pdfrwt beam="2">  1       -2 0.10507017E-01 0.27746115E+03</pdfrwt>
<totfact> 0.71238377E+03</totfact>
</mgrwt>
</event>
<event>
 9    1  0.8093459E-001  0.2738775E+03  0.7818608E-02  0.1099081E+00
         -2   -1    0    0    0  501 -0.00000000000E+00  0.00000000000E+00  0.14550199132E+02  0.14550199132E+02  0.00000000000E+00 0. -1.
          2   -1    0    0  501    0  0.00000000000E+00 -0.00000000000E+00 -0.12887948110E+04  0.12887948110E+04  0.00000000000E+00 0. -1.
         35    2    1    2    0    0 -0.71054273576E-14  0.00000000000E+00 -0.12742446118E+04  0.13033450101E+04  0.27387749919E+03 0.  0.
         25    2    3    3    0    0  0.45808005265E+02 -0.14129334442E+02 -0.78948644613E+03  0.80047480337E+03  0.12317893802E+03 0.  0.
         25    2    3    3    0    0 -0.45808005265E+02  0.14129334442E+02 -0.48475816570E+03  0.50287020672E+03  0.12485973794E+03 0.  0.
          5    1    4    4  502    0  0.74613115161E+02 -0.87202419199E+01 -0.27445858366E+03  0.28459227628E+03  0.47000000000E+01 0.  1.
         -5    1    4    4    0  502 -0.28805109897E+02 -0.54090925220E+01 -0.51502786247E+03  0.51588252709E+03  0.47000000000E+01 0.  1.
          5    1    5    5  503    0  0.43309847469E+02  0.15146393322E+01 -0.16275730642E+03  0.16849352454E+03  0.47000000000E+01 0.  1.
         -5    1    5    5    0  503 -0.89117852734E+02  0.12614695110E+02 -0.32200085928E+03  0.33437668218E+03  0.47000000000E+01 0.  1.
<mgrwt>
<rscale>  0 0.27387750E+03</rscale>
<asrwt>0</asrwt>
<pdfrwt beam="1">  1        2 0.19827614E+00 0.27387750E+03</pdfrwt>
<pdfrwt beam="2">  1       -2 0.22384920E-02 0.27387750E+03</pdfrwt>
<totfact> 0.11640677E+04</totfact>
</mgrwt>
</event>
<event>
 9    1  0.8093459E-001  0.2706062E+03  0.7818608E-02  0.1100933E+00
          2   -1    0    0  501    0  0.00000000000E+00  0.00000000000E+00  0.11159525056E+03  0.11159525056E+03  0.00000000000E+00 0.  1.
         -2   -1    0    0    0  501 -0.00000000000E+00 -0.00000000000E+00 -0.16404752159E+03  0.16404752159E+03  0.00000000000E+00 0.  1.
         35    2    1    2    0    0  0.00000000000E+00  0.00000000000E+00 -0.52452271033E+02  0.27564277215E+03  0.27060616604E+03 0.  0.
         25    2    3    3    0    0 -0.23948627128E+02 -0.34157128720E+02 -0.53703804335E+02  0.14277347220E+03  0.12553851831E+03 0.  0.
         25    2    3    3    0    0  0.23948627128E+02  0.34157128720E+02  0.12515333019E+01  0.13286929995E+03  0.12614451375E+03 0.  0.
          5    1    4    4  502    0 -0.61222196579E+02  0.19109173429E+02 -0.12071428687E+02  0.65430323655E+02  0.47000000000E+01 0.  1.
         -5    1    4    4    0  502  0.37273569451E+02 -0.53266302150E+02 -0.41632375648E+02  0.77343148542E+02  0.47000000000E+01 0.  1.
          5    1    5    5  503    0  0.33175494277E+01  0.78723542101E+02  0.17646359229E+02  0.80881927581E+02  0.47000000000E+01 0. -1.
         -5    1    5    5    0  503  0.20631077700E+02 -0.44566413381E+02 -0.16394825927E+02  0.51987372370E+02  0.47000000000E+01 0. -1.
<mgrwt>
<rscale>  0 0.27060617E+03</rscale>
<asrwt>0</asrwt>
<pdfrwt beam="1">  1        2 0.17168500E-01 0.27060617E+03</pdfrwt>
<pdfrwt beam="2">  1       -2 0.25238080E-01 0.27060617E+03</pdfrwt>
<totfact> 0.46059810E+03</totfact>
</mgrwt>
</event>
<event>
 9    1  0.8093459E-001  0.2789154E+03  0.7818608E-02  0.1096283E+00
          1   -1    0    0  501    0  0.00000000000E+00  0.00000000000E+00  0.30412841577E+03  0.30412841577E+03  0.00000000000E+00 0.  1.
         -1   -1    0    0    0  501 -0.00000000000E+00 -0.00000000000E+00 -0.63948145445E+02  0.63948145445E+02  0.00000000000E+00 0.  1.
         35    2    1    2    0    0  0.00000000000E+00  0.00000000000E+00  0.24018027032E+03  0.36807656121E+03  0.27891538621E+03 0.  0.
         25    2    3    3    0    0 -0.59936713073E+02 -0.19469956154E+02  0.12580377193E+03  0.18781829637E+03  0.12440914215E+03 0.  0.
         25    2    3    3    0    0  0.59936713073E+02  0.19469956154E+02  0.11437649839E+03  0.18025826484E+03  0.12425606582E+03 0.  0.
          5    1    4    4  502    0 -0.91865753099E+02 -0.40664013973E+02  0.85496243967E+02  0.13200218315E+03  0.47000000000E+01 0. -1.
         -5    1    4    4    0  502  0.31929040025E+02  0.21194057819E+02  0.40307527967E+02  0.55816113216E+02  0.47000000000E+01 0. -1.
          5    1    5    5  503    0  0.49389428275E+02 -0.34925780854E+02  0.93094778397E+01  0.61383077238E+02  0.47000000000E+01 0.  1.
         -5    1    5    5    0  503  0.10547284799E+02  0.54395737008E+02  0.10506702055E+03  0.11887518761E+03  0.47000000000E+01 0.  1.
<mgrwt>
<rscale>  0 0.27891539E+03</rscale>
<asrwt>0</asrwt>
<pdfrwt beam="1">  1        1 0.46788986E-01 0.27891539E+03</pdfrwt>
<pdfrwt beam="2">  1       -1 0.98381763E-02 0.27891539E+03</pdfrwt>
<totfact> 0.53525278E+03</totfact>
</mgrwt>
</event>
<event>
 9    1  0.8093459E-001  0.2723234E+03  0.7818608E-02  0.1099957E+00
         -2   -1    0    0    0  501 -0.00000000000E+00  0.00000000000E+00  0.55998213241E+01  0.55998213241E+01  0.00000000000E+00 0.  1.
          2   -1    0    0  501    0  0.00000000000E+00 -0.00000000000E+00 -0.33108212100E+04  0.33108212100E+04  0.00000000000E+00 0.  1.
         35    2    1    2    0    0  0.00000000000E+00  0.00000000000E+00 -0.33052213887E+04  0.33164210314E+04  0.27232339020E+03 0.  0.
         25    2    3    3    0    0 -0.47503744046E+02  0.21297740698E+02 -0.15355696930E+04  0.15415657099E+04  0.12546057681E+03 0.  0.
         25    2    3    3    0    0  0.47503744046E+02 -0.21297740698E+02 -0.17696516957E+04  0.17748553215E+04  0.12543559552E+03 0.  0.
          5    1    4    4  502    0 -0.75492670225E+02  0.37578694932E+02 -0.13805299163E+04  0.13831110734E+04  0.47000000000E+01 0. -1.
         -5    1    4    4    0  502  0.27988926179E+02 -0.16280954234E+02 -0.15503977676E+03  0.15845463653E+03  0.47000000000E+01 0. -1.
          5    1    5    5  503    0  0.11088535292E+02 -0.23269322202E+02 -0.69016398392E+02  0.73822559003E+02  0.47000000000E+01 0. -1.
         -5    1    5    5    0  503  0.36415208754E+02  0.19715815040E+01 -0.17006352973E+04  0.17010327625E+04  0.47000000000E+01 0. -1.
<mgrwt>
<rscale>  0 0.27232339E+03</rscale>
<asrwt>0</asrwt>
<pdfrwt beam="1">  1        2 0.50935843E+00 0.27232339E+03</pdfrwt>
<pdfrwt beam="2">  1       -2 0.86150873E-03 0.27232339E+03</pdfrwt>
<totfact> 0.35603361E+03</totfact>
</mgrwt>
</event>
<event>
 9    1  0.8093459E-001  0.2780374E+03  0.7818608E-02  0.1096766E+00
          2   -1    0    0  501    0  0.00000000000E+00  0.00000000000E+00  0.57775331574E+02  0.57775331574E+02  0.00000000000E+00 0.  1.
         -2   -1    0    0    0  501 -0.00000000000E+00 -0.00000000000E+00 -0.33450611682E+03  0.33450611682E+03  0.00000000000E+00 0.  1.
         35    2    1    2    0    0  0.00000000000E+00  0.53290705182E-14 -0.27673078525E+03  0.39228144840E+03  0.27803742060E+03 0.  0.
         25    2    3    3    0    0 -0.52289630328E+02 -0.87860310248E+01 -0.97906974565E+02  0.16772659720E+03  0.12543937164E+03 0.  0.
         25    2    3    3    0    0  0.52289630328E+02  0.87860310248E+01 -0.17882381068E+03  0.22455485120E+03  0.12504209751E+03 0.  0.
          5    1    4    4  502    0  0.10487120580E+02 -0.14561211210E+02  0.24041819849E+02  0.30366225837E+02  0.47000000000E+01 0.  1.
         -5    1    4    4    0  502 -0.62776750908E+02  0.57751801848E+01 -0.12194879441E+03  0.13736037136E+03  0.47000000000E+01 0.  1.
          5    1    5    5  503    0  0.78089685128E+02 -0.32082768487E+02 -0.91131682642E+02  0.12431563272E+03  0.47000000000E+01 0. -1.
         -5    1    5    5    0  503 -0.25800054800E+02  0.40868799512E+02 -0.87692128040E+02  0.10023921848E+03  0.47000000000E+01 0. -1.
<mgrwt>
<rscale>  0 0.27803742E+03</rscale>
<asrwt>0</asrwt>
<pdfrwt beam="1">  1        2 0.88885127E-02 0.27803742E+03</pdfrwt>
<pdfrwt beam="2">  1       -2 0.51462479E-01 0.27803742E+03</pdfrwt>
<totfact> 0.26867017E+03</totfact>
</mgrwt>
</event>
<event>
 9    1  0.8093459E-001  0.2690365E+03  0.7818608E-02  0.1101832E+00
         -2   -1    0    0    0  501 -0.00000000000E+00  0.00000000000E+00  0.34011447221E+03  0.34011447221E+03  0.00000000000E+00 0. -1.
          2   -1    0    0  501    0  0.00000000000E+00 -0.00000000000E+00 -0.53203164184E+02  0.53203164184E+02  0.00000000000E+00 0. -1.
         35    2    1    2    0    0 -0.71054273576E-14 -0.35527136788E-14  0.28691130803E+03  0.39331763639E+03  0.26903654849E+03 0.  0.
         25    2    3    3    0    0  0.27475331752E+02 -0.22294116854E+02  0.82457564041E+02  0.15120402711E+03  0.12170245045E+03 0.  0.
         25    2    3    3    0    0 -0.27475331752E+02  0.22294116854E+02  0.20445374398E+03  0.24211360928E+03  0.12476275434E+03 0.  0.
          5    1    4    4  502    0  0.34667990849E+02  0.15308079918E+02  0.10131268891E+03  0.10827076168E+03  0.47000000000E+01 0.  1.
         -5    1    4    4    0  502 -0.71926590970E+01 -0.37602196772E+02 -0.18855124867E+02  0.42933265433E+02  0.47000000000E+01 0.  1.
          5    1    5    5  503    0 -0.61958502698E+02  0.44454672624E+02  0.78360436116E+02  0.10944186549E+03  0.47000000000E+01 0.  1.
         -5    1    5    5    0  503  0.34483170946E+02 -0.22160555770E+02  0.12609330787E+03  0.13267174379E+03  0.47000000000E+01 0.  1.
<mgrwt>
<rscale>  0 0.26903655E+03</rscale>
<asrwt>0</asrwt>
<pdfrwt beam="1">  1        2 0.81851024E-02 0.26903655E+03</pdfrwt>
<pdfrwt beam="2">  1       -2 0.52325302E-01 0.26903655E+03</pdfrwt>
<totfact> 0.28807095E+03</totfact>
</mgrwt>
</event>
<event>
 9    1  0.8093459E-001  0.2722789E+03  0.7818608E-02  0.1099982E+00
          1   -1    0    0  501    0  0.00000000000E+00  0.00000000000E+00  0.10584943299E+03  0.10584943299E+03  0.00000000000E+00 0. -1.
         -1   -1    0    0    0  501 -0.00000000000E+00 -0.00000000000E+00 -0.17509725360E+03  0.17509725360E+03  0.00000000000E+00 0. -1.
         35    2    1    2    0    0 -0.35527136788E-14  0.00000000000E+00 -0.69247820610E+02  0.28094668659E+03  0.27227886449E+03 0.  0.
         25    2    3    3    0    0 -0.18162952058E+02  0.52319675887E+02 -0.40915365580E+02  0.14096294920E+03  0.12300099428E+03 0.  0.
         25    2    3    3    0    0  0.18162952058E+02 -0.52319675887E+02 -0.28332455030E+02  0.13998373739E+03  0.12540126560E+03 0.  0.
          5    1    4    4  502    0  0.25214721365E+02  0.46669914191E+02  0.27259111845E+02  0.59824846366E+02  0.47000000000E+01 0.  1.
         -5    1    4    4    0  502 -0.43377673423E+02  0.56497616960E+01 -0.68174477425E+02  0.81138102831E+02  0.47000000000E+01 0.  1.
          5    1    5    5  503    0 -0.25484655106E+02 -0.79494226601E+02 -0.28555266656E+02  0.88353228365E+02  0.47000000000E+01 0.  1.
         -5    1    5    5    0  503  0.43647607163E+02  0.27174550713E+02  0.22281162580E+00  0.51630509029E+02  0.47000000000E+01 0.  1.
<mgrwt>
<rscale>  0 0.27227886E+03</rscale>
<asrwt>0</asrwt>
<pdfrwt beam="1">  1        1 0.16284528E-01 0.27227886E+03</pdfrwt>
<pdfrwt beam="2">  1       -1 0.26938039E-01 0.27227886E+03</pdfrwt>
<totfact> 0.40780789E+03</totfact>
</mgrwt>
</event>
<event>
 9    1  0.8093459E-001  0.2767642E+03  0.7818608E-02  0.1097469E+00
          1   -1    0    0  501    0  0.00000000000E+00  0.00000000000E+00  0.21513217020E+03  0.21513217020E+03  0.00000000000E+00 0.  1.
         -1   -1    0    0    0  501 -0.00000000000E+00 -0.00000000000E+00 -0.89013226234E+02  0.89013226234E+02  0.00000000000E+00 0.  1.
         35    2    1    2    0    0  0.71054273576E-14 -0.35527136788E-14  0.12611894396E+03  0.30414539643E+03  0.27676422121E+03 0.  0.
         25    2    3    3    0    0 -0.47512698232E+02  0.24183926890E+02  0.91031031156E+02  0.16345110028E+03  0.12484908785E+03 0.  0.
         25    2    3    3    0    0  0.47512698232E+02 -0.24183926890E+02  0.35087912806E+02  0.14069429615E+03  0.12538502515E+03 0.  0.
          5    1    4    4  502    0  0.57980180001E+01 -0.22829057610E+02  0.89004076672E+02  0.92187843821E+02  0.47000000000E+01 0. -1.
         -5    1    4    4    0  502 -0.53310716232E+02  0.47012984500E+02  0.20269544838E+01  0.71263256460E+02  0.47000000000E+01 0. -1.
          5    1    5    5  503    0  0.79782527568E+02 -0.49645986109E+02  0.17316359501E+02  0.95665678006E+02  0.47000000000E+01 0.  1.
         -5    1    5    5    0  503 -0.32269829336E+02  0.25462059219E+02  0.17771553306E+02  0.45028618144E+02  0.47000000000E+01 0.  1.
<mgrwt>
<rscale>  0 0.27676422E+03</rscale>
<asrwt>0</asrwt>
<pdfrwt beam="1">  1        1 0.33097257E-01 0.27676422E+03</pdfrwt>
<pdfrwt beam="2">  1       -1 0.13694343E-01 0.27676422E+03</pdfrwt>
<totfact> 0.49354897E+03</totfact>
</mgrwt>
</event>
<event>
 9    1  0.8093459E-001  0.2705131E+03  0.7818608E-02  0.1100986E+00
         -2   -1    0    0    0  501 -0.00000000000E+00  0.00000000000E+00  0.55563137289E+01  0.55563137289E+01  0.00000000000E+00 0.  1.
          2   -1    0    0  501    0  0.00000000000E+00 -0.00000000000E+00 -0.32925304876E+04  0.32925304876E+04  0.00000000000E+00 0.  1.
         35    2    1    2    0    0  0.00000000000E+00  0.00000000000E+00 -0.32869741739E+04  0.32980868014E+04  0.27051308546E+03 0.  0.
         25    2    3    3    0    0  0.38405777830E+02 -0.30049502712E+02 -0.14237721825E+04  0.14300654121E+04  0.12482739567E+03 0.  0.
         25    2    3    3    0    0 -0.38405777830E+02  0.30049502712E+02 -0.18632019914E+04  0.18680213893E+04  0.12491706750E+03 0.  0.
          5    1    4    4  502    0  0.58258956942E+01 -0.44818656080E+02 -0.17598039848E+03  0.18175214893E+03  0.47000000000E+01 0.  1.
         -5    1    4    4    0  502  0.32579882136E+02  0.14769153368E+02 -0.12477917841E+04  0.12483132632E+04  0.47000000000E+01 0.  1.
          5    1    5    5  503    0 -0.47017034831E+02 -0.44278440041E+01 -0.17108920962E+04  0.17115501927E+04  0.47000000000E+01 0.  1.
         -5    1    5    5    0  503  0.86112570008E+01  0.34477346716E+02 -0.15230989519E+03  0.15647119657E+03  0.47000000000E+01 0.  1.
<mgrwt>
<rscale>  0 0.27051309E+03</rscale>
<asrwt>0</asrwt>
<pdfrwt beam="1">  1        2 0.50654246E+00 0.27051309E+03</pdfrwt>
<pdfrwt beam="2">  1       -2 0.85481866E-03 0.27051309E+03</pdfrwt>
<totfact> 0.36986090E+03</totfact>
</mgrwt>
</event>
<event>
 9    1  0.8093459E-001  0.2757977E+03  0.7818608E-02  0.1098007E+00
          2   -1    0    0  501    0  0.00000000000E+00  0.00000000000E+00  0.95245572603E+02  0.95245572603E+02  0.00000000000E+00 0. -1.
         -2   -1    0    0    0  501 -0.00000000000E+00 -0.00000000000E+00 -0.19965336386E+03  0.19965336386E+03  0.00000000000E+00 0. -1.
         35    2    1    2    0    0 -0.71054273576E-14 -0.35527136788E-14 -0.10440779126E+03  0.29489893646E+03  0.27579774446E+03 0.  0.
         25    2    3    3    0    0  0.52348623722E+02  0.19060845983E+02 -0.34617091999E+02  0.14107877660E+03  0.12490469924E+03 0.  0.
         25    2    3    3    0    0 -0.52348623722E+02 -0.19060845983E+02 -0.69790699257E+02  0.15382015986E+03  0.12524458321E+03 0.  0.
          5    1    4    4  502    0  0.15033634884E+02  0.32936250937E+02 -0.75473532149E+02  0.83840031361E+02  0.47000000000E+01 0. -1.
         -5    1    4    4    0  502  0.37314988838E+02 -0.13875404954E+02  0.40856440150E+02  0.57238745238E+02  0.47000000000E+01 0. -1.
          5    1    5    5  503    0 -0.36436915989E+02 -0.32788460715E+02 -0.10304271219E+03  0.11420430175E+03  0.47000000000E+01 0. -1.
         -5    1    5    5    0  503 -0.15911707733E+02  0.13727614732E+02  0.33252012938E+02  0.39615858108E+02  0.47000000000E+01 0. -1.
<mgrwt>
<rscale>  0 0.27579774E+03</rscale>
<asrwt>0</asrwt>
<pdfrwt beam="1">  1        2 0.14653165E-01 0.27579774E+03</pdfrwt>
<pdfrwt beam="2">  1       -2 0.30715902E-01 0.27579774E+03</pdfrwt>
<totfact> 0.39042582E+03</totfact>
</mgrwt>
</event>
<event>
 9    1  0.8093459E-001  0.2832191E+03  0.7818608E-02  0.1093944E+00
         -1   -1    0    0    0  501 -0.00000000000E+00  0.00000000000E+00  0.23519682828E+02  0.23519682828E+02  0.00000000000E+00 0. -1.
          1   -1    0    0  501    0  0.00000000000E+00 -0.00000000000E+00 -0.85261632300E+03  0.85261632300E+03  0.00000000000E+00 0. -1.
         35    2    1    2    0    0  0.00000000000E+00  0.00000000000E+00 -0.82909664018E+03  0.87613600583E+03  0.28321910593E+03 0.  0.
         25    2    3    3    0    0 -0.79845222042E+01 -0.62182188302E+02 -0.45593327604E+03  0.47771669505E+03  0.12809258913E+03 0.  0.
         25    2    3    3    0    0  0.79845222042E+01  0.62182188302E+02 -0.37316336414E+03  0.39841931078E+03  0.12472639551E+03 0.  0.
          5    1    4    4  502    0  0.51948518426E+02  0.49242122351E+01 -0.15818987742E+03  0.16664040251E+03  0.47000000000E+01 0. -1.
         -5    1    4    4    0  502 -0.59933040631E+02 -0.67106400537E+02 -0.29774339863E+03  0.31107629253E+03  0.47000000000E+01 0. -1.
          5    1    5    5  503    0  0.58253572020E+02  0.77618304726E+00 -0.12858210479E+03  0.14124280083E+03  0.47000000000E+01 0. -1.
         -5    1    5    5    0  503 -0.50269049816E+02  0.61406005255E+02 -0.24458125934E+03  0.25717650996E+03  0.47000000000E+01 0. -1.
<mgrwt>
<rscale>  0 0.28321911E+03</rscale>
<asrwt>0</asrwt>
<pdfrwt beam="1">  1        1 0.13117174E+00 0.28321911E+03</pdfrwt>
<pdfrwt beam="2">  1       -1 0.36184127E-02 0.28321911E+03</pdfrwt>
<totfact> 0.59491654E+03</totfact>
</mgrwt>
</event>
<event>
 9    1  0.8093459E-001  0.2722638E+03  0.7818608E-02  0.1099991E+00
          3   -1    0    0  501    0  0.00000000000E+00  0.00000000000E+00  0.16384620001E+04  0.16384620001E+04  0.00000000000E+00 0. -1.
         -3   -1    0    0    0  501 -0.00000000000E+00 -0.00000000000E+00 -0.11310539897E+02  0.11310539897E+02  0.00000000000E+00 0. -1.
         35    2    1    2    0    0  0.35527136788E-14  0.00000000000E+00  0.16271514603E+04  0.16497725400E+04  0.27226376786E+03 0.  0.
         25    2    3    3    0    0 -0.17998059621E+02 -0.50326691875E+02  0.80481873651E+03  0.81607028014E+03  0.12401934301E+03 0.  0.
         25    2    3    3    0    0  0.17998059621E+02  0.50326691875E+02  0.82233272375E+03  0.83370225990E+03  0.12637896800E+03 0.  0.
          5    1    4    4  502    0 -0.47555922200E+02 -0.38843633053E+02  0.75031756448E+03  0.75284057485E+03  0.47000000000E+01 0.  1.
         -5    1    4    4    0  502  0.29557862579E+02 -0.11483058822E+02  0.54501172022E+02  0.63229705297E+02  0.47000000000E+01 0.  1.
          5    1    5    5  503    0 -0.30633227911E+02 -0.12719205594E+02  0.75203779629E+02  0.82327828306E+02  0.47000000000E+01 0. -1.
         -5    1    5    5    0  503  0.48631287532E+02  0.63045897470E+02  0.74712894412E+03  0.75137443160E+03  0.47000000000E+01 0. -1.
<mgrwt>
<rscale>  0 0.27226377E+03</rscale>
<asrwt>0</asrwt>
<pdfrwt beam="1">  1        3 0.25207089E+00 0.27226377E+03</pdfrwt>
<pdfrwt beam="2">  1       -3 0.17400844E-02 0.27226377E+03</pdfrwt>
<totfact> 0.24056659E+02</totfact>
</mgrwt>
</event>
<event>
 9    1  0.8093459E-001  0.2728050E+03  0.7818608E-02  0.1099685E+00
         -2   -1    0    0    0  501 -0.00000000000E+00  0.00000000000E+00  0.94490602073E+01  0.94490602073E+01  0.00000000000E+00 0. -1.
          2   -1    0    0  501    0  0.00000000000E+00 -0.00000000000E+00 -0.19690461751E+04  0.19690461751E+04  0.00000000000E+00 0. -1.
         35    2    1    2    0    0  0.00000000000E+00  0.17763568394E-14 -0.19595971149E+04  0.19784952354E+04  0.27280495494E+03 0.  0.
         25    2    3    3    0    0  0.56067911588E+02 -0.98246064209E+01 -0.99768248501E+03  0.10067781258E+04  0.12244068004E+03 0.  0.
         25    2    3    3    0    0 -0.56067911588E+02  0.98246064209E+01 -0.96191462993E+03  0.97171710953E+03  0.12535650000E+03 0.  0.
          5    1    4    4  502    0 -0.38931810571E+02 -0.72186831566E+01 -0.29575355028E+03  0.29842930111E+03  0.47000000000E+01 0. -1.
         -5    1    4    4    0  502  0.94999722159E+02 -0.26059232643E+01 -0.70192893474E+03  0.70834882471E+03  0.47000000000E+01 0. -1.
          5    1    5    5  503    0 -0.73089540483E+02 -0.18580883698E+02 -0.87998741564E+03  0.88322549321E+03  0.47000000000E+01 0.  1.
         -5    1    5    5    0  503  0.17021628895E+02  0.28405490119E+02 -0.81927214283E+02  0.88491616322E+02  0.47000000000E+01 0.  1.
<mgrwt>
<rscale>  0 0.27280495E+03</rscale>
<asrwt>0</asrwt>
<pdfrwt beam="1">  1        2 0.30293036E+00 0.27280495E+03</pdfrwt>
<pdfrwt beam="2">  1       -2 0.14537007E-02 0.27280495E+03</pdfrwt>
<totfact> 0.95266014E+03</totfact>
</mgrwt>
</event>
<event>
 9    1  0.8093459E-001  0.2726364E+03  0.7818608E-02  0.1099780E+00
         -2   -1    0    0    0  501 -0.00000000000E+00  0.00000000000E+00  0.15573942929E+02  0.15573942929E+02  0.00000000000E+00 0.  1.
          2   -1    0    0  501    0  0.00000000000E+00 -0.00000000000E+00 -0.11931884824E+04  0.11931884824E+04  0.00000000000E+00 0.  1.
         35    2    1    2    0    0  0.00000000000E+00 -0.71054273576E-14 -0.11776145394E+04  0.12087624253E+04  0.27263638295E+03 0.  0.
         25    2    3    3    0    0  0.25046200543E+01  0.50636207617E+02 -0.66831363987E+03  0.68184138412E+03  0.12527670658E+03 0.  0.
         25    2    3    3    0    0 -0.25046200543E+01 -0.50636207617E+02 -0.50930089955E+03  0.52692104117E+03  0.12525206064E+03 0.  0.
          5    1    4    4  502    0  0.73090161605E+01  0.17346886798E+01 -0.58453779431E+03  0.58460495537E+03  0.47000000000E+01 0. -1.
         -5    1    4    4    0  502 -0.48043961062E+01  0.48901518937E+02 -0.83775845562E+02  0.97236428750E+02  0.47000000000E+01 0. -1.
          5    1    5    5  503    0  0.50327790586E+01 -0.40416587691E+02 -0.39520334187E+02  0.56945379443E+02  0.47000000000E+01 0.  1.
         -5    1    5    5    0  503 -0.75373991129E+01 -0.10219619926E+02 -0.46978056536E+03  0.46997566172E+03  0.47000000000E+01 0.  1.
<mgrwt>
<rscale>  0 0.27263638E+03</rscale>
<asrwt>0</asrwt>
<pdfrwt beam="1">  1        2 0.18356747E+00 0.27263638E+03</pdfrwt>
<pdfrwt beam="2">  1       -2 0.23959910E-02 0.27263638E+03</pdfrwt>
<totfact> 0.11913491E+04</totfact>
</mgrwt>
</event>
<event>
 9    1  0.8093459E-001  0.2748991E+03  0.7818608E-02  0.1098508E+00
         -2   -1    0    0    0  501 -0.00000000000E+00  0.00000000000E+00  0.60546011779E+02  0.60546011779E+02  0.00000000000E+00 0.  1.
          2   -1    0    0  501    0  0.00000000000E+00 -0.00000000000E+00 -0.31203334640E+03  0.31203334640E+03  0.00000000000E+00 0.  1.
         35    2    1    2    0    0 -0.71054273576E-14  0.17763568394E-14 -0.25148733462E+03  0.37257935818E+03  0.27489906996E+03 0.  0.
         25    2    3    3    0    0 -0.16071250375E+02  0.11510114290E+02 -0.20032565110E+03  0.23676161591E+03  0.12463919312E+03 0.  0.
         25    2    3    3    0    0  0.16071250375E+02 -0.11510114290E+02 -0.51161683525E+02  0.13581774227E+03  0.12425044641E+03 0.  0.
          5    1    4    4  502    0  0.52629284970E+02 -0.24549899441E+01 -0.61135537864E+02  0.80842517291E+02  0.47000000000E+01 0.  1.
         -5    1    4    4    0  502 -0.68700535344E+02  0.13965104234E+02 -0.13919011323E+03  0.15591909862E+03  0.47000000000E+01 0.  1.
          5    1    5    5  503    0 -0.25504230375E+02 -0.26536372151E+02  0.27006329161E+02  0.45892010510E+02  0.47000000000E+01 0. -1.
         -5    1    5    5    0  503  0.41575480749E+02  0.15026257861E+02 -0.78168012686E+02  0.89925731758E+02  0.47000000000E+01 0. -1.
<mgrwt>
<rscale>  0 0.27489907E+03</rscale>
<asrwt>0</asrwt>
<pdfrwt beam="1">  1        2 0.48005130E-01 0.27489907E+03</pdfrwt>
<pdfrwt beam="2">  1       -2 0.93147711E-02 0.27489907E+03</pdfrwt>
<totfact> 0.77275526E+03</totfact>
</mgrwt>
</event>
<event>
 9    1  0.8093459E-001  0.2758267E+03  0.7818608E-02  0.1097990E+00
         -2   -1    0    0    0  501 -0.00000000000E+00  0.00000000000E+00  0.15873865637E+02  0.15873865637E+02  0.00000000000E+00 0.  1.
          2   -1    0    0  501    0  0.00000000000E+00 -0.00000000000E+00 -0.11982016425E+04  0.11982016425E+04  0.00000000000E+00 0.  1.
         35    2    1    2    0    0 -0.35527136788E-14 -0.14210854715E-13 -0.11823277768E+04  0.12140755081E+04  0.27582669834E+03 0.  0.
         25    2    3    3    0    0 -0.11188831007E+02 -0.46468941228E+02 -0.73393283748E+03  0.74597811833E+03  0.12466511401E+03 0.  0.
         25    2    3    3    0    0  0.11188831007E+02  0.46468941228E+02 -0.44839493936E+03  0.46809738979E+03  0.12558898139E+03 0.  0.
          5    1    4    4  502    0  0.34088500641E+02 -0.37187152804E+02 -0.11957183598E+03  0.12986309780E+03  0.47000000000E+01 0. -1.
         -5    1    4    4    0  502 -0.45277331649E+02 -0.92817884237E+01 -0.61436100150E+03  0.61611502053E+03  0.47000000000E+01 0. -1.
          5    1    5    5  503    0  0.14942846000E+02 -0.25364088880E+01  0.10927634735E+01  0.15906167000E+02  0.47000000000E+01 0. -1.
         -5    1    5    5    0  503 -0.37540149929E+01  0.49005350116E+02 -0.44948770284E+03  0.45219122279E+03  0.47000000000E+01 0. -1.
<mgrwt>
<rscale>  0 0.27582670E+03</rscale>
<asrwt>0</asrwt>
<pdfrwt beam="1">  1        2 0.18433876E+00 0.27582670E+03</pdfrwt>
<pdfrwt beam="2">  1       -2 0.24421326E-02 0.27582670E+03</pdfrwt>
<totfact> 0.11510135E+04</totfact>
</mgrwt>
</event>
<event>
 9    1  0.8093459E-001  0.2783314E+03  0.7818608E-02  0.1096604E+00
          1   -1    0    0  501    0  0.00000000000E+00  0.00000000000E+00  0.10509458566E+04  0.10509458566E+04  0.00000000000E+00 0.  1.
         -1   -1    0    0    0  501 -0.00000000000E+00 -0.00000000000E+00 -0.18428252267E+02  0.18428252267E+02  0.00000000000E+00 0.  1.
         35    2    1    2    0    0 -0.71054273576E-14  0.00000000000E+00  0.10325176044E+04  0.10693741089E+04  0.27833142378E+03 0.  0.
         25    2    3    3    0    0  0.45113613943E+02  0.38853611417E+02  0.47451455795E+03  0.49446990950E+03  0.12566457102E+03 0.  0.
         25    2    3    3    0    0 -0.45113613943E+02 -0.38853611417E+02  0.55800304643E+03  0.57490419941E+03  0.12491035745E+03 0.  0.
          5    1    4    4  502    0 -0.35055363562E+02  0.23458350909E+02  0.70706982064E+02  0.82466599629E+02  0.47000000000E+01 0.  1.
         -5    1    4    4    0  502  0.80168977505E+02  0.15395260508E+02  0.40380757589E+03  0.41200330987E+03  0.47000000000E+01 0.  1.
          5    1    5    5  503    0 -0.68888291542E+02 -0.44585892088E+02  0.53409405852E+03  0.54038139478E+03  0.47000000000E+01 0. -1.
         -5    1    5    5    0  503  0.23774677599E+02  0.57322806713E+01  0.23908987911E+02  0.34522804630E+02  0.47000000000E+01 0. -1.
<mgrwt>
<rscale>  0 0.27833142E+03</rscale>
<asrwt>0</asrwt>
<pdfrwt beam="1">  1        1 0.16168393E+00 0.27833142E+03</pdfrwt>
<pdfrwt beam="2">  1       -1 0.28351165E-02 0.27833142E+03</pdfrwt>
<totfact> 0.60086356E+03</totfact>
</mgrwt>
</event>
<event>
 9    1  0.8093459E-001  0.2770551E+03  0.7818608E-02  0.1097308E+00
          1   -1    0    0  501    0  0.00000000000E+00  0.00000000000E+00  0.26132840364E+03  0.26132840364E+03  0.00000000000E+00 0. -1.
         -1   -1    0    0    0  501 -0.00000000000E+00 -0.00000000000E+00 -0.73432074730E+02  0.73432074730E+02  0.00000000000E+00 0. -1.
         35    2    1    2    0    0 -0.35527136788E-14  0.35527136788E-14  0.18789632891E+03  0.33476047837E+03  0.27705513434E+03 0.  0.
         25    2    3    3    0    0 -0.25491116474E+02 -0.30325782442E+02  0.13584951518E+03  0.19075879916E+03  0.12792333088E+03 0.  0.
         25    2    3    3    0    0  0.25491116474E+02  0.30325782442E+02  0.52046813733E+02  0.14400167921E+03  0.12828937094E+03 0.  0.
          5    1    4    4  502    0  0.44572444055E+02 -0.32809216912E+02  0.93395200640E+02  0.10866416606E+03  0.47000000000E+01 0.  1.
         -5    1    4    4    0  502 -0.70063560529E+02  0.24834344692E+01  0.42454314542E+02  0.82094633101E+02  0.47000000000E+01 0.  1.
          5    1    5    5  503    0  0.37107003763E+02  0.91783195781E+01 -0.35920527740E+02  0.52664462322E+02  0.47000000000E+01 0.  1.
         -5    1    5    5    0  503 -0.11615887289E+02  0.21147462864E+02  0.87967341473E+02  0.91337216888E+02  0.47000000000E+01 0.  1.
<mgrwt>
<rscale>  0 0.27705513E+03</rscale>
<asrwt>0</asrwt>
<pdfrwt beam="1">  1        1 0.40204369E-01 0.27705513E+03</pdfrwt>
<pdfrwt beam="2">  1       -1 0.11297242E-01 0.27705513E+03</pdfrwt>
<totfact> 0.52250377E+03</totfact>
</mgrwt>
</event>
<event>
 9    1  0.8093459E-001  0.2740287E+03  0.7818608E-02  0.1098996E+00
          2   -1    0    0  501    0  0.00000000000E+00  0.00000000000E+00  0.11865040889E+02  0.11865040889E+02  0.00000000000E+00 0.  1.
         -2   -1    0    0    0  501 -0.00000000000E+00 -0.00000000000E+00 -0.15822052371E+04  0.15822052371E+04  0.00000000000E+00 0.  1.
         35    2    1    2    0    0  0.00000000000E+00  0.00000000000E+00 -0.15703401962E+04  0.15940702780E+04  0.27402868341E+03 0.  0.
         25    2    3    3    0    0 -0.52799597682E+02 -0.11152559338E+02 -0.68625202890E+03  0.69960906707E+03  0.12489524595E+03 0.  0.
         25    2    3    3    0    0  0.52799597682E+02  0.11152559338E+02 -0.88408816731E+03  0.89446121092E+03  0.12464667329E+03 0.  0.
          5    1    4    4  502    0  0.32751127841E+02 -0.33558732695E+02 -0.26338614465E+03  0.26756901186E+03  0.47000000000E+01 0.  1.
         -5    1    4    4    0  502 -0.85550725523E+02  0.22406173357E+02 -0.42286588426E+03  0.43204005522E+03  0.47000000000E+01 0.  1.
          5    1    5    5  503    0  0.46805399280E+02  0.57495729825E+02 -0.71885077097E+03  0.72267906105E+03  0.47000000000E+01 0. -1.
         -5    1    5    5    0  503  0.59941984020E+01 -0.46343170487E+02 -0.16523739634E+03  0.17178214987E+03  0.47000000000E+01 0. -1.
<mgrwt>
<rscale>  0 0.27402868E+03</rscale>
<asrwt>0</asrwt>
<pdfrwt beam="1">  1        2 0.18253912E-02 0.27402868E+03</pdfrwt>
<pdfrwt beam="2">  1       -2 0.24341615E+00 0.27402868E+03</pdfrwt>
<totfact> 0.48763765E+02</totfact>
</mgrwt>
</event>
<event>
 9    1  0.8093459E-001  0.2747927E+03  0.7818608E-02  0.1098568E+00
          1   -1    0    0  501    0  0.00000000000E+00  0.00000000000E+00  0.60469332405E+03  0.60469332405E+03  0.00000000000E+00 0. -1.
         -1   -1    0    0    0  501 -0.00000000000E+00 -0.00000000000E+00 -0.31218725340E+02  0.31218725340E+02  0.00000000000E+00 0. -1.
         35    2    1    2    0    0  0.00000000000E+00 -0.71054273576E-14  0.57347459871E+03  0.63591204939E+03  0.27479268403E+03 0.  0.
         25    2    3    3    0    0 -0.22348804629E+02 -0.46594530634E+02  0.23407542782E+03  0.27047947704E+03  0.12528895495E+03 0.  0.
         25    2    3    3    0    0  0.22348804629E+02  0.46594530634E+02  0.33939917089E+03  0.36543257235E+03  0.12521440966E+03 0.  0.
          5    1    4    4  502    0  0.86785368659E+01  0.33162981661E+02  0.20190097094E+02  0.40060334191E+02  0.47000000000E+01 0.  1.
         -5    1    4    4    0  502 -0.31027341495E+02 -0.79757512295E+02  0.21388533073E+03  0.23041914285E+03  0.47000000000E+01 0.  1.
          5    1    5    5  503    0  0.66635989452E+02  0.55385040730E+01  0.23856980570E+03  0.24780773255E+03  0.47000000000E+01 0. -1.
         -5    1    5    5    0  503 -0.44287184823E+02  0.41056026561E+02  0.10082936518E+03  0.11762483981E+03  0.47000000000E+01 0. -1.
<mgrwt>
<rscale>  0 0.27479268E+03</rscale>
<asrwt>0</asrwt>
<pdfrwt beam="1">  1        1 0.93029734E-01 0.27479268E+03</pdfrwt>
<pdfrwt beam="2">  1       -1 0.48028813E-02 0.27479268E+03</pdfrwt>
<totfact> 0.64807495E+03</totfact>
</mgrwt>
</event>
<event>
 9    1  0.8093459E-001  0.2734779E+03  0.7818608E-02  0.1099305E+00
          1   -1    0    0  501    0  0.00000000000E+00  0.00000000000E+00  0.14721824683E+04  0.14721824683E+04  0.00000000000E+00 0.  1.
         -1   -1    0    0    0  501 -0.00000000000E+00 -0.00000000000E+00 -0.12700558091E+02  0.12700558091E+02  0.00000000000E+00 0.  1.
         35    2    1    2    0    0  0.00000000000E+00  0.71054273576E-14  0.14594819102E+04  0.14848830264E+04  0.27347788912E+03 0.  0.
         25    2    3    3    0    0  0.45793156416E+02  0.28457084216E+02  0.68770390731E+03  0.70104025471E+03  0.12495581529E+03 0.  0.
         25    2    3    3    0    0 -0.45793156416E+02 -0.28457084216E+02  0.77177800287E+03  0.78384277166E+03  0.12594199516E+03 0.  0.
          5    1    4    4  502    0  0.87785375262E+02  0.30203053944E+02  0.43485210801E+03  0.44467622200E+03  0.47000000000E+01 0. -1.
         -5    1    4    4    0  502 -0.41992218846E+02 -0.17459697281E+01  0.25285179930E+03  0.25636403271E+03  0.47000000000E+01 0. -1.
          5    1    5    5  503    0 -0.26506605587E+02 -0.75383977658E+02  0.57633067213E+03  0.58186293735E+03  0.47000000000E+01 0.  1.
         -5    1    5    5    0  503 -0.19286550829E+02  0.46926893441E+02  0.19544733074E+03  0.20197983430E+03  0.47000000000E+01 0.  1.
<mgrwt>
<rscale>  0 0.27347789E+03</rscale>
<asrwt>0</asrwt>
<pdfrwt beam="1">  1        1 0.22648948E+00 0.27347789E+03</pdfrwt>
<pdfrwt beam="2">  1       -1 0.19539332E-02 0.27347789E+03</pdfrwt>
<totfact> 0.52978162E+03</totfact>
</mgrwt>
</event>
<event>
 9    1  0.8093459E-001  0.2836704E+03  0.7818608E-02  0.1093701E+00
          2   -1    0    0  501    0  0.00000000000E+00  0.00000000000E+00  0.18149260271E+04  0.18149260271E+04  0.00000000000E+00 0. -1.
         -2   -1    0    0    0  501 -0.00000000000E+00 -0.00000000000E+00 -0.11084323243E+02  0.11084323243E+02  0.00000000000E+00 0. -1.
         35    2    1    2    0    0  0.35527136788E-14  0.00000000000E+00  0.18038417039E+04  0.18260103504E+04  0.28367041965E+03 0.  0.
         25    2    3    3    0    0 -0.28508302241E+02 -0.33747996810E+02  0.54888705036E+03  0.56415162076E+03  0.12263118105E+03 0.  0.
         25    2    3    3    0    0  0.28508302241E+02  0.33747996810E+02  0.12549546535E+04  0.12618587296E+04  0.12419589569E+03 0.  0.
          5    1    4    4  502    0  0.50334452143E+01 -0.74205912752E+02  0.25930087410E+03  0.26979786205E+03  0.47000000000E+01 0.  1.
         -5    1    4    4    0  502 -0.33541747455E+02  0.40457915943E+02  0.28958617626E+03  0.29435375871E+03  0.47000000000E+01 0.  1.
          5    1    5    5  503    0  0.16990246024E+02 -0.25984874661E+02  0.90239619535E+02  0.95546643609E+02  0.47000000000E+01 0.  1.
         -5    1    5    5    0  503  0.11518056217E+02  0.59732871471E+02  0.11647150340E+04  0.11663120860E+04  0.47000000000E+01 0.  1.
<mgrwt>
<rscale>  0 0.28367042E+03</rscale>
<asrwt>0</asrwt>
<pdfrwt beam="1">  1        2 0.27921915E+00 0.28367042E+03</pdfrwt>
<pdfrwt beam="2">  1       -2 0.17052819E-02 0.28367042E+03</pdfrwt>
<totfact> 0.90897650E+03</totfact>
</mgrwt>
</event>
<event>
 9    1  0.8093459E-001  0.2747238E+03  0.7818608E-02  0.1098606E+00
          2   -1    0    0  501    0  0.00000000000E+00  0.00000000000E+00  0.17476938100E+03  0.17476938100E+03  0.00000000000E+00 0. -1.
         -2   -1    0    0    0  501 -0.00000000000E+00 -0.00000000000E+00 -0.10796108002E+03  0.10796108002E+03  0.00000000000E+00 0. -1.
         35    2    1    2    0    0 -0.14210854715E-13  0.17763568394E-14  0.66808300979E+02  0.28273046103E+03  0.27472379677E+03 0.  0.
         25    2    3    3    0    0 -0.33506556677E+02  0.11171576534E+02  0.79640746228E+02  0.15278621809E+03  0.12551289382E+03 0.  0.
         25    2    3    3    0    0  0.33506556677E+02 -0.11171576534E+02 -0.12832445249E+02  0.12994424294E+03  0.12439188543E+03 0.  0.
          5    1    4    4  502    0  0.27328856735E+02  0.40023979571E+02  0.69011677779E+02  0.84459972893E+02  0.47000000000E+01 0.  1.
         -5    1    4    4    0  502 -0.60835413412E+02 -0.28852403037E+02  0.10629068449E+02  0.68326245192E+02  0.47000000000E+01 0.  1.
          5    1    5    5  503    0  0.70325803345E+02 -0.19942449040E+02 -0.39675828627E+02  0.83304749367E+02  0.47000000000E+01 0.  1.
         -5    1    5    5    0  503 -0.36819246668E+02  0.87708725062E+01  0.26843383378E+02  0.46639493575E+02  0.47000000000E+01 0.  1.
<mgrwt>
<rscale>  0 0.27472380E+03</rscale>
<asrwt>0</asrwt>
<pdfrwt beam="1">  1        2 0.26887597E-01 0.27472380E+03</pdfrwt>
<pdfrwt beam="2">  1       -2 0.16609397E-01 0.27472380E+03</pdfrwt>
<totfact> 0.56763536E+03</totfact>
</mgrwt>
</event>
<event>
 9    1  0.8093459E-001  0.2755387E+03  0.7818608E-02  0.1098151E+00
         -2   -1    0    0    0  501 -0.00000000000E+00  0.00000000000E+00  0.37966632033E+03  0.37966632033E+03  0.00000000000E+00 0.  1.
          2   -1    0    0  501    0  0.00000000000E+00 -0.00000000000E+00 -0.49992290603E+02  0.49992290603E+02  0.00000000000E+00 0.  1.
         35    2    1    2    0    0  0.14210854715E-13 -0.35527136788E-14  0.32967402973E+03  0.42965861094E+03  0.27553866530E+03 0.  0.
         25    2    3    3    0    0 -0.53442578686E+02  0.14730998111E+02  0.17721344513E+03  0.22533853499E+03  0.12767042999E+03 0.  0.
         25    2    3    3    0    0  0.53442578686E+02 -0.14730998111E+02  0.15246058460E+03  0.20432007594E+03  0.12421494297E+03 0.  0.
          5    1    4    4  502    0 -0.83746340138E+02  0.19104082937E+02  0.62017119786E+02  0.10605012314E+03  0.47000000000E+01 0. -1.
         -5    1    4    4    0  502  0.30303761451E+02 -0.43730848260E+01  0.11519632534E+03  0.11928841185E+03  0.47000000000E+01 0. -1.
          5    1    5    5  503    0  0.17710514719E+02 -0.59197010266E+02  0.29376698905E+02  0.68578632201E+02  0.47000000000E+01 0.  1.
         -5    1    5    5    0  503  0.35732063967E+02  0.44466012155E+02  0.12308388569E+03  0.13574144374E+03  0.47000000000E+01 0.  1.
<mgrwt>
<rscale>  0 0.27553867E+03</rscale>
<asrwt>0</asrwt>
<pdfrwt beam="1">  1        2 0.76911219E-02 0.27553867E+03</pdfrwt>
<pdfrwt beam="2">  1       -2 0.58410201E-01 0.27553867E+03</pdfrwt>
<totfact> 0.24940755E+03</totfact>
</mgrwt>
</event>
<event>
 9    1  0.8093459E-001  0.2769353E+03  0.7818608E-02  0.1097375E+00
          2   -1    0    0  501    0  0.00000000000E+00  0.00000000000E+00  0.16619763222E+04  0.16619763222E+04  0.00000000000E+00 0.  1.
         -2   -1    0    0    0  501 -0.00000000000E+00 -0.00000000000E+00 -0.11536438963E+02  0.11536438963E+02  0.00000000000E+00 0.  1.
         35    2    1    2    0    0  0.00000000000E+00 -0.14210854715E-13  0.16504398832E+04  0.16735127611E+04  0.27693528774E+03 0.  0.
         25    2    3    3    0    0  0.29808542047E+02  0.49489780723E+02  0.72692422283E+03  0.73978422324E+03  0.12459568070E+03 0.  0.
         25    2    3    3    0    0 -0.29808542047E+02 -0.49489780723E+02  0.92351566038E+03  0.93372853789E+03  0.12502007811E+03 0.  0.
          5    1    4    4  502    0 -0.78425623882E+01  0.55464357094E+02  0.13009365852E+03  0.14171891433E+03  0.47000000000E+01 0. -1.
         -5    1    4    4    0  502  0.37651104436E+02 -0.59745763714E+01  0.59683056431E+03  0.59806530891E+03  0.47000000000E+01 0. -1.
          5    1    5    5  503    0 -0.77678341320E+02 -0.40877096649E+02  0.53908605168E+03  0.54620575139E+03  0.47000000000E+01 0. -1.
         -5    1    5    5    0  503  0.47869799273E+02 -0.86126840736E+01  0.38442960870E+03  0.38752278650E+03  0.47000000000E+01 0. -1.
<mgrwt>
<rscale>  0 0.27693529E+03</rscale>
<asrwt>0</asrwt>
<pdfrwt beam="1">  1        2 0.25568848E+00 0.27693529E+03</pdfrwt>
<pdfrwt beam="2">  1       -2 0.17748381E-02 0.27693529E+03</pdfrwt>
<totfact> 0.10314181E+04</totfact>
</mgrwt>
</event>
<event>
 9    1  0.8093459E-001  0.2713978E+03  0.7818608E-02  0.1100482E+00
         -2   -1    0    0    0  501 -0.00000000000E+00  0.00000000000E+00  0.81634555216E+01  0.81634555216E+01  0.00000000000E+00 0.  1.
          2   -1    0    0  501    0  0.00000000000E+00 -0.00000000000E+00 -0.22556862335E+04  0.22556862335E+04  0.00000000000E+00 0.  1.
         35    2    1    2    0    0 -0.71054273576E-14  0.35527136788E-14 -0.22475227780E+04  0.22638496890E+04  0.27139782046E+03 0.  0.
         25    2    3    3    0    0  0.33792858855E+02 -0.18936770827E+02 -0.65490012111E+03  0.66590913234E+03  0.11419389346E+03 0.  0.
         25    2    3    3    0    0 -0.33792858855E+02  0.18936770827E+02 -0.15926226569E+04  0.15979405567E+04  0.12436453241E+03 0.  0.
          5    1    4    4  502    0  0.73574917135E+02 -0.16265854954E+02 -0.32933482263E+03  0.33787773213E+03  0.47000000000E+01 0.  1.
         -5    1    4    4    0  502 -0.39782058281E+02 -0.26709158738E+01 -0.32556529848E+03  0.32803140021E+03  0.47000000000E+01 0.  1.
          5    1    5    5  503    0 -0.11980249787E+02 -0.25438448695E+02 -0.88089370896E+02  0.92587625101E+02  0.47000000000E+01 0. -1.
         -5    1    5    5    0  503 -0.21812609068E+02  0.44375219522E+02 -0.15045332860E+04  0.15053529316E+04  0.47000000000E+01 0. -1.
<mgrwt>
<rscale>  0 0.27139782E+03</rscale>
<asrwt>0</asrwt>
<pdfrwt beam="1">  1        2 0.34702903E+00 0.27139782E+03</pdfrwt>
<pdfrwt beam="2">  1       -2 0.12559149E-02 0.27139782E+03</pdfrwt>
<totfact> 0.83173876E+03</totfact>
</mgrwt>
</event>
<event>
 9    1  0.8093459E-001  0.2763659E+03  0.7818608E-02  0.1097691E+00
         -2   -1    0    0    0  501 -0.00000000000E+00  0.00000000000E+00  0.15947609416E+02  0.15947609416E+02  0.00000000000E+00 0.  1.
          2   -1    0    0  501    0  0.00000000000E+00 -0.00000000000E+00 -0.11973287131E+04  0.11973287131E+04  0.00000000000E+00 0.  1.
         35    2    1    2    0    0 -0.35527136788E-14  0.00000000000E+00 -0.11813811037E+04  0.12132763225E+04  0.27636592162E+03 0.  0.
         25    2    3    3    0    0  0.17739144800E+02 -0.51529991295E+02 -0.46844547773E+03  0.48778126825E+03  0.12457681482E+03 0.  0.
         25    2    3    3    0    0 -0.17739144800E+02  0.51529991295E+02 -0.71293562592E+03  0.72549505423E+03  0.12286516896E+03 0.  0.
          5    1    4    4  502    0  0.63917211357E+01 -0.76862566146E+02 -0.15618538252E+03  0.17425461798E+03  0.47000000000E+01 0. -1.
         -5    1    4    4    0  502  0.11347423664E+02  0.25332574851E+02 -0.31226009521E+03  0.31352665027E+03  0.47000000000E+01 0. -1.
          5    1    5    5  503    0  0.24695993049E+02 -0.53015451869E+01 -0.32845404285E+02  0.41700228257E+02  0.47000000000E+01 0.  1.
         -5    1    5    5    0  503 -0.42435137849E+02  0.56831536482E+02 -0.68009022164E+03  0.68379482598E+03  0.47000000000E+01 0.  1.
<mgrwt>
<rscale>  0 0.27636592E+03</rscale>
<asrwt>0</asrwt>
<pdfrwt beam="1">  1        2 0.18420439E+00 0.27636592E+03</pdfrwt>
<pdfrwt beam="2">  1       -2 0.24534787E-02 0.27636592E+03</pdfrwt>
<totfact> 0.11445180E+04</totfact>
</mgrwt>
</event>
<event>
 9    1  0.8093459E-001  0.2744837E+03  0.7818608E-02  0.1098741E+00
          4   -1    0    0  501    0  0.00000000000E+00  0.00000000000E+00  0.37026819547E+02  0.37026819547E+02  0.00000000000E+00 0.  1.
         -4   -1    0    0    0  501 -0.00000000000E+00 -0.00000000000E+00 -0.50869404781E+03  0.50869404781E+03  0.00000000000E+00 0.  1.
         35    2    1    2    0    0  0.00000000000E+00  0.71054273576E-14 -0.47166722827E+03  0.54572086736E+03  0.27448368048E+03 0.  0.
         25    2    3    3    0    0 -0.20255486958E+02 -0.52460681318E+02 -0.27543745682E+03  0.30747668898E+03  0.12455405979E+03 0.  0.
         25    2    3    3    0    0  0.20255486958E+02  0.52460681318E+02 -0.19622977144E+03  0.23824417838E+03  0.12284851442E+03 0.  0.
          5    1    4    4  502    0  0.45840295606E+02 -0.53051672187E+02 -0.13517756849E+03  0.15235116555E+03  0.47000000000E+01 0.  1.
         -5    1    4    4    0  502 -0.66095782563E+02  0.59099086964E+00 -0.14025988834E+03  0.15512552343E+03  0.47000000000E+01 0.  1.
          5    1    5    5  503    0  0.56204635430E+02 -0.60080594208E+01 -0.46062441196E+02  0.73067751510E+02  0.47000000000E+01 0.  1.
         -5    1    5    5    0  503 -0.35949148473E+02  0.58468740738E+02 -0.15016733025E+03  0.16517642687E+03  0.47000000000E+01 0.  1.
<mgrwt>
<rscale>  0 0.27448368E+03</rscale>
<asrwt>0</asrwt>
<pdfrwt beam="1">  1        4 0.56964337E-02 0.27448368E+03</pdfrwt>
<pdfrwt beam="2">  1       -4 0.78260623E-01 0.27448368E+03</pdfrwt>
<totfact> 0.53983211E+02</totfact>
</mgrwt>
</event>
<event>
 9    1  0.8093459E-001  0.2762786E+03  0.7818608E-02  0.1097739E+00
          2   -1    0    0  501    0  0.00000000000E+00  0.00000000000E+00  0.19413202595E+03  0.19413202595E+03  0.00000000000E+00 0.  1.
         -2   -1    0    0    0  501 -0.00000000000E+00 -0.00000000000E+00 -0.98296311630E+02  0.98296311630E+02  0.00000000000E+00 0.  1.
         35    2    1    2    0    0  0.71054273576E-14 -0.35527136788E-14  0.95835714321E+02  0.29242833758E+03  0.27627857043E+03 0.  0.
         25    2    3    3    0    0 -0.22581044395E+02  0.24176053261E+02  0.98094747949E+02  0.16310797257E+03  0.12604461918E+03 0.  0.
         25    2    3    3    0    0  0.22581044395E+02 -0.24176053261E+02 -0.22590336284E+01  0.12932036501E+03  0.12499707379E+03 0.  0.
          5    1    4    4  502    0  0.51124696304E+02  0.22942730361E+02  0.47055806083E+02  0.73324227475E+02  0.47000000000E+01 0.  1.
         -5    1    4    4    0  502 -0.73705740699E+02  0.12333229007E+01  0.51038941866E+02  0.89783745100E+02  0.47000000000E+01 0.  1.
          5    1    5    5  503    0 -0.28712283015E+02 -0.50633455209E+01  0.47015399882E+02  0.55520901378E+02  0.47000000000E+01 0.  1.
         -5    1    5    5    0  503  0.51293327410E+02 -0.19112707740E+02 -0.49274433510E+02  0.73799463627E+02  0.47000000000E+01 0.  1.
<mgrwt>
<rscale>  0 0.27627857E+03</rscale>
<asrwt>0</asrwt>
<pdfrwt beam="1">  1        2 0.29866466E-01 0.27627857E+03</pdfrwt>
<pdfrwt beam="2">  1       -2 0.15122509E-01 0.27627857E+03</pdfrwt>
<totfact> 0.59091339E+03</totfact>
</mgrwt>
</event>
<event>
 9    1  0.8093459E-001  0.2732463E+03  0.7818608E-02  0.1099436E+00
         -3   -1    0    0    0  501 -0.00000000000E+00  0.00000000000E+00  0.12067892593E+03  0.12067892593E+03  0.00000000000E+00 0.  1.
          3   -1    0    0  501    0  0.00000000000E+00 -0.00000000000E+00 -0.15467398545E+03  0.15467398545E+03  0.00000000000E+00 0.  1.
         35    2    1    2    0    0 -0.35527136788E-14  0.71054273576E-14 -0.33995059520E+02  0.27535291139E+03  0.27324633893E+03 0.  0.
         25    2    3    3    0    0  0.36544838754E+01 -0.51591044172E+02 -0.30383804846E+02  0.13920851344E+03  0.12562182743E+03 0.  0.
         25    2    3    3    0    0 -0.36544838754E+01  0.51591044172E+02 -0.36112546741E+01  0.13614439795E+03  0.12588591995E+03 0.  0.
          5    1    4    4  502    0  0.16256107535E+02  0.24356133240E+02  0.29295417206E+02  0.41686853178E+02  0.47000000000E+01 0. -1.
         -5    1    4    4    0  502 -0.12601623660E+02 -0.75947177412E+02 -0.59679222052E+02  0.97521660263E+02  0.47000000000E+01 0. -1.
          5    1    5    5  503    0  0.18464306160E+02  0.17206757339E+02 -0.60620818089E+02  0.65832945293E+02  0.47000000000E+01 0.  1.
         -5    1    5    5    0  503 -0.22118790036E+02  0.34384286833E+02  0.57009563415E+02  0.70311452655E+02  0.47000000000E+01 0.  1.
<mgrwt>
<rscale>  0 0.27324634E+03</rscale>
<asrwt>0</asrwt>
<pdfrwt beam="1">  1        3 0.23795998E-01 0.27324634E+03</pdfrwt>
<pdfrwt beam="2">  1       -3 0.18565989E-01 0.27324634E+03</pdfrwt>
<totfact> 0.10691846E+03</totfact>
</mgrwt>
</event>
<event>
 9    1  0.8093459E-001  0.2745862E+03  0.7818608E-02  0.1098683E+00
         -1   -1    0    0    0  501 -0.00000000000E+00  0.00000000000E+00  0.14622799935E+02  0.14622799935E+02  0.00000000000E+00 0. -1.
          1   -1    0    0  501    0  0.00000000000E+00 -0.00000000000E+00 -0.12890415114E+04  0.12890415114E+04  0.00000000000E+00 0. -1.
         35    2    1    2    0    0  0.00000000000E+00  0.00000000000E+00 -0.12744187115E+04  0.13036643113E+04  0.27458620598E+03 0.  0.
         25    2    3    3    0    0 -0.37027064261E+02  0.21586458334E+02 -0.80970176771E+03  0.82054815493E+03  0.12587828747E+03 0.  0.
         25    2    3    3    0    0  0.37027064261E+02 -0.21586458334E+02 -0.46471694376E+03  0.48311615641E+03  0.12490958368E+03 0.  0.
          5    1    4    4  502    0  0.19677278094E+02 -0.37757239301E+02 -0.42536928467E+03  0.42752066936E+03  0.47000000000E+01 0. -1.
         -5    1    4    4    0  502 -0.56704342354E+02  0.59343697635E+02 -0.38433248304E+03  0.39302748557E+03  0.47000000000E+01 0. -1.
          5    1    5    5  503    0  0.14241283119E+01 -0.70847048660E+02 -0.25842487579E+03  0.26800529635E+03  0.47000000000E+01 0. -1.
         -5    1    5    5    0  503  0.35602935949E+02  0.49260590326E+02 -0.20629206797E+03  0.21511086005E+03  0.47000000000E+01 0. -1.
<mgrwt>
<rscale>  0 0.27458621E+03</rscale>
<asrwt>0</asrwt>
<pdfrwt beam="1">  1        1 0.19831413E+00 0.27458621E+03</pdfrwt>
<pdfrwt beam="2">  1       -1 0.22496609E-02 0.27458621E+03</pdfrwt>
<totfact> 0.57280478E+03</totfact>
</mgrwt>
</event>
<event>
 9    1  0.8093459E-001  0.2753632E+03  0.7818608E-02  0.1098249E+00
          2   -1    0    0  501    0  0.00000000000E+00  0.00000000000E+00  0.12088089324E+04  0.12088089324E+04  0.00000000000E+00 0.  1.
         -2   -1    0    0    0  501 -0.00000000000E+00 -0.00000000000E+00 -0.15681738953E+02  0.15681738953E+02  0.00000000000E+00 0.  1.
         35    2    1    2    0    0  0.35527136788E-14  0.00000000000E+00  0.11931271934E+04  0.12244906713E+04  0.27536322283E+03 0.  0.
         25    2    3    3    0    0 -0.22495421503E+02  0.53778217777E+02  0.57411418870E+03  0.59028115250E+03  0.12420385111E+03 0.  0.
         25    2    3    3    0    0  0.22495421503E+02 -0.53778217777E+02  0.61901300473E+03  0.63420951884E+03  0.12508586278E+03 0.  0.
          5    1    4    4  502    0 -0.26543190364E+02  0.80904639917E+01  0.20668169627E+02  0.34917900825E+02  0.47000000000E+01 0.  1.
         -5    1    4    4    0  502  0.40477688610E+01  0.45687753785E+02  0.55344601908E+03  0.55536325167E+03  0.47000000000E+01 0.  1.
          5    1    5    5  503    0  0.20837731833E+01 -0.51773106852E+02  0.60844104184E+03  0.61066143492E+03  0.47000000000E+01 0.  1.
         -5    1    5    5    0  503  0.20411648319E+02 -0.20051109250E+01  0.10571962890E+02  0.23548083920E+02  0.47000000000E+01 0.  1.
<mgrwt>
<rscale>  0 0.27536322E+03</rscale>
<asrwt>0</asrwt>
<pdfrwt beam="1">  1        2 0.18597053E+00 0.27536322E+03</pdfrwt>
<pdfrwt beam="2">  1       -2 0.24125762E-02 0.27536322E+03</pdfrwt>
<totfact> 0.11557360E+04</totfact>
</mgrwt>
</event>
<event>
 9    1  0.8093459E-001  0.2754135E+03  0.7818608E-02  0.1098221E+00
          1   -1    0    0  501    0  0.00000000000E+00  0.00000000000E+00  0.32241031229E+03  0.32241031229E+03  0.00000000000E+00 0.  1.
         -1   -1    0    0    0  501 -0.00000000000E+00 -0.00000000000E+00 -0.58816835659E+02  0.58816835659E+02  0.00000000000E+00 0.  1.
         35    2    1    2    0    0  0.71054273576E-14  0.17763568394E-14  0.26359347663E+03  0.38122714795E+03  0.27541353890E+03 0.  0.
         25    2    3    3    0    0 -0.54750100997E+02  0.15062598826E+02  0.13452440118E+03  0.19256385835E+03  0.12553712434E+03 0.  0.
         25    2    3    3    0    0  0.54750100997E+02 -0.15062598826E+02  0.12906907546E+03  0.18866328961E+03  0.12534175347E+03 0.  0.
          5    1    4    4  502    0  0.19119209058E+02 -0.36722835026E+02  0.70314640065E+02  0.81733404277E+02  0.47000000000E+01 0.  1.
         -5    1    4    4    0  502 -0.73869310055E+02  0.51785433852E+02  0.64209761112E+02  0.11083045407E+03  0.47000000000E+01 0.  1.
          5    1    5    5  503    0  0.23839301189E+02 -0.27059520369E+02 -0.16034233297E+02  0.39745648331E+02  0.47000000000E+01 0.  1.
         -5    1    5    5    0  503  0.30910799808E+02  0.11996921543E+02  0.14510330876E+03  0.14891764128E+03  0.47000000000E+01 0.  1.
<mgrwt>
<rscale>  0 0.27541354E+03</rscale>
<asrwt>0</asrwt>
<pdfrwt beam="1">  1        1 0.49601586E-01 0.27541354E+03</pdfrwt>
<pdfrwt beam="2">  1       -1 0.90487441E-02 0.27541354E+03</pdfrwt>
<totfact> 0.56546907E+03</totfact>
</mgrwt>
</event>
<event>
 9    1  0.8093459E-001  0.2740132E+03  0.7818608E-02  0.1099004E+00
          1   -1    0    0  501    0  0.00000000000E+00  0.00000000000E+00  0.17145379549E+04  0.17145379549E+04  0.00000000000E+00 0.  1.
         -1   -1    0    0    0  501 -0.00000000000E+00 -0.00000000000E+00 -0.10948024879E+02  0.10948024879E+02  0.00000000000E+00 0.  1.
         35    2    1    2    0    0  0.35527136788E-14 -0.21316282073E-13  0.17035899300E+04  0.17254859797E+04  0.27401316892E+03 0.  0.
         25    2    3    3    0    0 -0.17333606281E+02  0.41143138660E+02  0.64928114595E+03  0.66284504402E+03  0.12571528997E+03 0.  0.
         25    2    3    3    0    0  0.17333606281E+02 -0.41143138660E+02  0.10543087840E+04  0.10626409357E+04  0.12508211069E+03 0.  0.
          5    1    4    4  502    0 -0.21593369130E+01 -0.29453110790E+02  0.43677229518E+02  0.52933343457E+02  0.47000000000E+01 0. -1.
         -5    1    4    4    0  502 -0.15174269368E+02  0.70596249451E+02  0.60560391644E+03  0.60991170057E+03  0.47000000000E+01 0. -1.
          5    1    5    5  503    0  0.36763575340E+02 -0.80024276507E+02  0.64423671157E+03  0.65024493527E+03  0.47000000000E+01 0.  1.
         -5    1    5    5    0  503 -0.19429969059E+02  0.38881137847E+02  0.41007207246E+03  0.41239600046E+03  0.47000000000E+01 0.  1.
<mgrwt>
<rscale>  0 0.27401317E+03</rscale>
<asrwt>0</asrwt>
<pdfrwt beam="1">  1        1 0.26377486E+00 0.27401317E+03</pdfrwt>
<pdfrwt beam="2">  1       -1 0.16843129E-02 0.27401317E+03</pdfrwt>
<totfact> 0.45591665E+03</totfact>
</mgrwt>
</event>
<event>
 9    1  0.8093459E-001  0.2749926E+03  0.7818608E-02  0.1098456E+00
         -2   -1    0    0    0  501 -0.00000000000E+00  0.00000000000E+00  0.15812045361E+03  0.15812045361E+03  0.00000000000E+00 0.  1.
          2   -1    0    0  501    0  0.00000000000E+00 -0.00000000000E+00 -0.11956221227E+03  0.11956221227E+03  0.00000000000E+00 0.  1.
         35    2    1    2    0    0  0.14210854715E-13 -0.71054273576E-14  0.38558241334E+02  0.27768266588E+03  0.27499259073E+03 0.  0.
         25    2    3    3    0    0  0.53873759339E+02 -0.71881509718E+01 -0.12708199377E+02  0.13334348966E+03  0.12109887053E+03 0.  0.
         25    2    3    3    0    0 -0.53873759339E+02  0.71881509718E+01  0.51266440711E+02  0.14433917622E+03  0.12349695700E+03 0.  0.
          5    1    4    4  502    0  0.61178919906E+01 -0.58101443338E+02  0.10675704017E+02  0.59575724726E+02  0.47000000000E+01 0.  1.
         -5    1    4    4    0  502  0.47755867348E+02  0.50913292366E+02 -0.23383903394E+02  0.73767764936E+02  0.47000000000E+01 0.  1.
          5    1    5    5  503    0 -0.61964151044E+02 -0.18784039044E+02 -0.19985899373E+02  0.67925858929E+02  0.47000000000E+01 0. -1.
         -5    1    5    5    0  503  0.80903917052E+01  0.25972190016E+02  0.71252340085E+02  0.76413317293E+02  0.47000000000E+01 0. -1.
<mgrwt>
<rscale>  0 0.27499259E+03</rscale>
<asrwt>0</asrwt>
<pdfrwt beam="1">  1        2 0.18394186E-01 0.27499259E+03</pdfrwt>
<pdfrwt beam="2">  1       -2 0.24326224E-01 0.27499259E+03</pdfrwt>
<totfact> 0.45386935E+03</totfact>
</mgrwt>
</event>
<event>
 9    1  0.8093459E-001  0.2760204E+03  0.7818608E-02  0.1097883E+00
         -4   -1    0    0    0  501 -0.00000000000E+00  0.00000000000E+00  0.23697034531E+03  0.23697034531E+03  0.00000000000E+00 0. -1.
          4   -1    0    0  501    0  0.00000000000E+00 -0.00000000000E+00 -0.80376388358E+02  0.80376388358E+02  0.00000000000E+00 0. -1.
         35    2    1    2    0    0  0.71054273576E-14  0.00000000000E+00  0.15659395695E+03  0.31734673367E+03  0.27602043768E+03 0.  0.
         25    2    3    3    0    0  0.58107569060E+02 -0.10801837039E+02  0.66843210636E+02  0.15240206690E+03  0.12355244200E+03 0.  0.
         25    2    3    3    0    0 -0.58107569060E+02  0.10801837039E+02  0.89750746314E+02  0.16494466676E+03  0.12513343823E+03 0.  0.
          5    1    4    4  502    0  0.40668124447E+02 -0.44957385447E+02  0.89056834634E+02  0.10783446874E+03  0.47000000000E+01 0.  1.
         -5    1    4    4    0  502  0.17439444613E+02  0.34155548408E+02 -0.22213623998E+02  0.44567598170E+02  0.47000000000E+01 0.  1.
          5    1    5    5  503    0 -0.35074776832E+01  0.28670761385E+02 -0.23721609501E+02  0.37671205389E+02  0.47000000000E+01 0. -1.
         -5    1    5    5    0  503 -0.54600091377E+02 -0.17868924346E+02  0.11347235581E+03  0.12727346137E+03  0.47000000000E+01 0. -1.
<mgrwt>
<rscale>  0 0.27602044E+03</rscale>
<asrwt>0</asrwt>
<pdfrwt beam="1">  1        4 0.12365598E-01 0.27602044E+03</pdfrwt>
<pdfrwt beam="2">  1       -4 0.36456976E-01 0.27602044E+03</pdfrwt>
<totfact> 0.72269115E+02</totfact>
</mgrwt>
</event>
<event>
 9    1  0.8093459E-001  0.2821387E+03  0.7818608E-02  0.1094527E+00
          2   -1    0    0  501    0  0.00000000000E+00  0.00000000000E+00  0.56199309343E+02  0.56199309343E+02  0.00000000000E+00 0. -1.
         -2   -1    0    0    0  501 -0.00000000000E+00 -0.00000000000E+00 -0.35410687124E+03  0.35410687124E+03  0.00000000000E+00 0. -1.
         35    2    1    2    0    0  0.17763568394E-14  0.71054273576E-14 -0.29790756190E+03  0.41030618058E+03  0.28213870062E+03 0.  0.
         25    2    3    3    0    0  0.31650621081E+01  0.60552934167E+02 -0.11653893087E+03  0.18182256108E+03  0.12570380207E+03 0.  0.
         25    2    3    3    0    0 -0.31650621081E+01 -0.60552934167E+02 -0.18136863102E+03  0.22848361950E+03  0.12503402980E+03 0.  0.
          5    1    4    4  502    0  0.38039578463E+02  0.65253381395E+02 -0.19004117671E+02  0.78027301642E+02  0.47000000000E+01 0. -1.
         -5    1    4    4    0  502 -0.34874516355E+02 -0.47004472277E+01 -0.97534813200E+02  0.10379525943E+03  0.47000000000E+01 0. -1.
          5    1    5    5  503    0  0.11849152255E+02 -0.37440427793E+02 -0.19386552843E+03  0.19785884149E+03  0.47000000000E+01 0.  1.
         -5    1    5    5    0  503 -0.15014214363E+02 -0.23112506375E+02  0.12496897404E+02  0.30624778017E+02  0.47000000000E+01 0.  1.
<mgrwt>
<rscale>  0 0.28213870E+03</rscale>
<asrwt>0</asrwt>
<pdfrwt beam="1">  1        2 0.86460475E-02 0.28213870E+03</pdfrwt>
<pdfrwt beam="2">  1       -2 0.54477980E-01 0.28213870E+03</pdfrwt>
<totfact> 0.24808297E+03</totfact>
</mgrwt>
</event>
<event>
 9    1  0.8093459E-001  0.2704217E+03  0.7818608E-02  0.1101038E+00
         -1   -1    0    0    0  501 -0.00000000000E+00  0.00000000000E+00  0.29526578159E+02  0.29526578159E+02  0.00000000000E+00 0. -1.
          1   -1    0    0  501    0  0.00000000000E+00 -0.00000000000E+00 -0.61917028181E+03  0.61917028181E+03  0.00000000000E+00 0. -1.
         35    2    1    2    0    0  0.00000000000E+00  0.00000000000E+00 -0.58964370365E+03  0.64869685997E+03  0.27042174261E+03 0.  0.
         25    2    3    3    0    0 -0.38412337693E+02 -0.11477327391E+02 -0.37271820692E+03  0.39527453979E+03  0.12536292637E+03 0.  0.
         25    2    3    3    0    0  0.38412337693E+02  0.11477327391E+02 -0.21692549673E+03  0.25342232017E+03  0.12473557833E+03 0.  0.
          5    1    4    4  502    0 -0.59178335589E+02 -0.52927421057E+02 -0.28571577699E+03  0.29657879648E+03  0.47000000000E+01 0. -1.
         -5    1    4    4    0  502  0.20765997896E+02  0.41450093666E+02 -0.87002429928E+02  0.98695743307E+02  0.47000000000E+01 0. -1.
          5    1    5    5  503    0 -0.50678230166E+01 -0.31765607323E+02 -0.51715200900E+01  0.32917643579E+02  0.47000000000E+01 0. -1.
         -5    1    5    5    0  503  0.43480160709E+02  0.43242934715E+02 -0.21175397664E+03  0.22050467660E+03  0.47000000000E+01 0. -1.
<mgrwt>
<rscale>  0 0.27042174E+03</rscale>
<asrwt>0</asrwt>
<pdfrwt beam="1">  1        1 0.95256963E-01 0.27042174E+03</pdfrwt>
<pdfrwt beam="2">  1       -1 0.45425507E-02 0.27042174E+03</pdfrwt>
<totfact> 0.68114735E+03</totfact>
</mgrwt>
</event>
<event>
 9    1  0.8093459E-001  0.2722883E+03  0.7818608E-02  0.1099977E+00
          1   -1    0    0  501    0  0.00000000000E+00  0.00000000000E+00  0.23126634702E+04  0.23126634702E+04  0.00000000000E+00 0. -1.
         -1   -1    0    0    0  501 -0.00000000000E+00 -0.00000000000E+00 -0.80146696908E+01  0.80146696908E+01  0.00000000000E+00 0. -1.
         35    2    1    2    0    0 -0.71054273576E-14  0.71054273576E-14  0.23046488005E+04  0.23206781399E+04  0.27228833115E+03 0.  0.
         25    2    3    3    0    0 -0.41073915351E+02  0.46571303226E+01  0.81872737908E+03  0.82893730031E+03  0.12293807872E+03 0.  0.
         25    2    3    3    0    0  0.41073915351E+02 -0.46571303226E+01  0.14859214214E+04  0.14917408396E+04  0.12497802381E+03 0.  0.
          5    1    4    4  502    0 -0.71425561084E+02 -0.30687696115E+02  0.39299631524E+03  0.40063891381E+03  0.47000000000E+01 0. -1.
         -5    1    4    4    0  502  0.30351645733E+02  0.35344826437E+02  0.42573106384E+03  0.42829838650E+03  0.47000000000E+01 0. -1.
          5    1    5    5  503    0 -0.86439441406E+01 -0.57662518396E+02  0.71359094100E+03  0.71598450044E+03  0.47000000000E+01 0.  1.
         -5    1    5    5    0  503  0.49717859491E+02  0.53005388073E+02  0.77233048040E+03  0.77575633911E+03  0.47000000000E+01 0.  1.
<mgrwt>
<rscale>  0 0.27228833E+03</rscale>
<asrwt>0</asrwt>
<pdfrwt beam="1">  1        1 0.35579385E+00 0.27228833E+03</pdfrwt>
<pdfrwt beam="2">  1       -1 0.12330280E-02 0.27228833E+03</pdfrwt>
<totfact> 0.29277230E+03</totfact>
</mgrwt>
</event>
<event>
 9    1  0.8093459E-001  0.2717332E+03  0.7818608E-02  0.1100292E+00
         -2   -1    0    0    0  501 -0.00000000000E+00  0.00000000000E+00  0.46043387041E+02  0.46043387041E+02  0.00000000000E+00 0. -1.
          2   -1    0    0  501    0  0.00000000000E+00 -0.00000000000E+00 -0.40092043826E+03  0.40092043826E+03  0.00000000000E+00 0. -1.
         35    2    1    2    0    0  0.35527136788E-14  0.00000000000E+00 -0.35487705121E+03  0.44696382530E+03  0.27173321410E+03 0.  0.
         25    2    3    3    0    0 -0.20230107252E+02 -0.50486568860E+02 -0.18864290155E+03  0.23186362084E+03  0.12335494918E+03 0.  0.
         25    2    3    3    0    0  0.20230107252E+02  0.50486568860E+02 -0.16623414966E+03  0.21510020446E+03  0.12520445108E+03 0.  0.
          5    1    4    4  502    0 -0.57899843720E+02  0.13798934730E+02 -0.93292567739E+02  0.11076279022E+03  0.47000000000E+01 0. -1.
         -5    1    4    4    0  502  0.37669736468E+02 -0.64285503590E+02 -0.95350333813E+02  0.12110083062E+03  0.47000000000E+01 0. -1.
          5    1    5    5  503    0  0.58718454016E+01 -0.40071791773E+02 -0.29183412159E+02  0.50139690960E+02  0.47000000000E+01 0.  1.
         -5    1    5    5    0  503  0.14358261851E+02  0.90558360633E+02 -0.13705073750E+03  0.16496051350E+03  0.47000000000E+01 0.  1.
<mgrwt>
<rscale>  0 0.27173321E+03</rscale>
<asrwt>0</asrwt>
<pdfrwt beam="1">  1        2 0.61680067E-01 0.27173321E+03</pdfrwt>
<pdfrwt beam="2">  1       -2 0.70835981E-02 0.27173321E+03</pdfrwt>
<totfact> 0.90423939E+03</totfact>
</mgrwt>
</event>
<event>
 9    1  0.8093459E-001  0.2732283E+03  0.7818608E-02  0.1099446E+00
          1   -1    0    0  501    0  0.00000000000E+00  0.00000000000E+00  0.40736561028E+03  0.40736561028E+03  0.00000000000E+00 0.  1.
         -1   -1    0    0    0  501 -0.00000000000E+00 -0.00000000000E+00 -0.45814928074E+02  0.45814928074E+02  0.00000000000E+00 0.  1.
         35    2    1    2    0    0 -0.71054273576E-14  0.35527136788E-14  0.36155068221E+03  0.45318053836E+03  0.27322830113E+03 0.  0.
         25    2    3    3    0    0 -0.50083880506E+02 -0.22729302084E+02  0.18958478003E+03  0.23342896301E+03  0.12458601723E+03 0.  0.
         25    2    3    3    0    0  0.50083880506E+02  0.22729302084E+02  0.17196590218E+03  0.21975157535E+03  0.12527356903E+03 0.  0.
          5    1    4    4  502    0  0.10750391148E+01 -0.62033523166E+02  0.13553517370E+03  0.14913479478E+03  0.47000000000E+01 0.  1.
         -5    1    4    4    0  502 -0.51158919621E+02  0.39304221082E+02  0.54049606336E+02  0.84294168225E+02  0.47000000000E+01 0.  1.
          5    1    5    5  503    0 -0.32680162890E+02 -0.24214737758E+02  0.42524296353E+02  0.59031791024E+02  0.47000000000E+01 0. -1.
         -5    1    5    5    0  503  0.82764043396E+02  0.46944039842E+02  0.12944160582E+03  0.16071978433E+03  0.47000000000E+01 0. -1.
<mgrwt>
<rscale>  0 0.27322830E+03</rscale>
<asrwt>0</asrwt>
<pdfrwt beam="1">  1        1 0.62671630E-01 0.27322830E+03</pdfrwt>
<pdfrwt beam="2">  1       -1 0.70484508E-02 0.27322830E+03</pdfrwt>
<totfact> 0.61491377E+03</totfact>
</mgrwt>
</event>
<event>
 9    1  0.8093459E-001  0.2753385E+03  0.7818608E-02  0.1098263E+00
          1   -1    0    0  501    0  0.00000000000E+00  0.00000000000E+00  0.14602310857E+03  0.14602310857E+03  0.00000000000E+00 0.  1.
         -1   -1    0    0    0  501 -0.00000000000E+00 -0.00000000000E+00 -0.12979332447E+03  0.12979332447E+03  0.00000000000E+00 0.  1.
         35    2    1    2    0    0  0.00000000000E+00  0.00000000000E+00  0.16229784098E+02  0.27581643304E+03  0.27533851681E+03 0.  0.
         25    2    3    3    0    0  0.21314665062E+02 -0.49307060258E+02 -0.15881287024E+02  0.13703621088E+03  0.12506480991E+03 0.  0.
         25    2    3    3    0    0 -0.21314665062E+02  0.49307060258E+02  0.32111071122E+02  0.13878022216E+03  0.12386818815E+03 0.  0.
          5    1    4    4  502    0 -0.37249242344E+02  0.19147440513E+02  0.97445285895E+01  0.43257096191E+02  0.47000000000E+01 0. -1.
         -5    1    4    4    0  502  0.58563907407E+02 -0.68454500771E+02 -0.25625815614E+02  0.93779114692E+02  0.47000000000E+01 0. -1.
          5    1    5    5  503    0  0.18691731986E+02 -0.20182611117E+02 -0.27172440976E+02  0.38950612123E+02  0.47000000000E+01 0. -1.
         -5    1    5    5    0  503 -0.40006397049E+02  0.69489671375E+02  0.59283512098E+02  0.99829610032E+02  0.47000000000E+01 0. -1.
<mgrwt>
<rscale>  0 0.27533852E+03</rscale>
<asrwt>0</asrwt>
<pdfrwt beam="1">  1        1 0.22465094E-01 0.27533852E+03</pdfrwt>
<pdfrwt beam="2">  1       -1 0.19968204E-01 0.27533852E+03</pdfrwt>
<totfact> 0.44117752E+03</totfact>
</mgrwt>
</event>
<event>
 9    1  0.8093459E-001  0.2753247E+03  0.7818608E-02  0.1098270E+00
          1   -1    0    0  501    0  0.00000000000E+00  0.00000000000E+00  0.85100485430E+02  0.85100485430E+02  0.00000000000E+00 0. -1.
         -1   -1    0    0    0  501 -0.00000000000E+00 -0.00000000000E+00 -0.22268883748E+03  0.22268883748E+03  0.00000000000E+00 0. -1.
         35    2    1    2    0    0  0.00000000000E+00  0.00000000000E+00 -0.13758835205E+03  0.30778932291E+03  0.27532474040E+03 0.  0.
         25    2    3    3    0    0  0.35051538353E+02  0.10999883924E+02 -0.20767442597E+02  0.13211075221E+03  0.12518928225E+03 0.  0.
         25    2    3    3    0    0 -0.35051538353E+02 -0.10999883924E+02 -0.11682090945E+03  0.17567857070E+03  0.12596121439E+03 0.  0.
          5    1    4    4  502    0 -0.19653686147E+02  0.30655138991E+02 -0.53763523075E+02  0.65104618416E+02  0.47000000000E+01 0.  1.
         -5    1    4    4    0  502  0.54705224500E+02 -0.19655255067E+02  0.32996080478E+02  0.67006133796E+02  0.47000000000E+01 0.  1.
          5    1    5    5  503    0  0.38095892257E+02  0.23999590193E+01 -0.87545324759E+02  0.95620764990E+02  0.47000000000E+01 0. -1.
         -5    1    5    5    0  503 -0.73147430610E+02 -0.13399842943E+02 -0.29275584695E+02  0.80057805709E+02  0.47000000000E+01 0. -1.
<mgrwt>
<rscale>  0 0.27532474E+03</rscale>
<asrwt>0</asrwt>
<pdfrwt beam="1">  1        1 0.13092382E-01 0.27532474E+03</pdfrwt>
<pdfrwt beam="2">  1       -1 0.34259821E-01 0.27532474E+03</pdfrwt>
<totfact> 0.36071741E+03</totfact>
</mgrwt>
</event>
<event>
 9    1  0.8093459E-001  0.2771375E+03  0.7818608E-02  0.1097263E+00
         -2   -1    0    0    0  501 -0.00000000000E+00  0.00000000000E+00  0.22396266777E+02  0.22396266777E+02  0.00000000000E+00 0. -1.
          2   -1    0    0  501    0  0.00000000000E+00 -0.00000000000E+00 -0.85734340707E+03  0.85734340707E+03  0.00000000000E+00 0. -1.
         35    2    1    2    0    0  0.00000000000E+00  0.17763568394E-14 -0.83494714030E+03  0.87973967385E+03  0.27713745084E+03 0.  0.
         25    2    3    3    0    0  0.30382501461E+02  0.86078852440E+01 -0.57827150444E+03  0.59253260791E+03  0.12529870914E+03 0.  0.
         25    2    3    3    0    0 -0.30382501461E+02 -0.86078852440E+01 -0.25667563586E+03  0.28720706594E+03  0.12493328058E+03 0.  0.
          5    1    4    4  502    0 -0.84891469700E+01  0.58873823555E+02 -0.36844749336E+03  0.37324768999E+03  0.47000000000E+01 0. -1.
         -5    1    4    4    0  502  0.38871648431E+02 -0.50265938311E+02 -0.20982401107E+03  0.21928491792E+03  0.47000000000E+01 0. -1.
          5    1    5    5  503    0  0.36028520075E+02 -0.13071000777E+02 -0.18617094194E+03  0.19013315056E+03  0.47000000000E+01 0.  1.
         -5    1    5    5    0  503 -0.66411021536E+02  0.44631155332E+01 -0.70504693923E+02  0.97073915378E+02  0.47000000000E+01 0.  1.
<mgrwt>
<rscale>  0 0.27713745E+03</rscale>
<asrwt>0</asrwt>
<pdfrwt beam="1">  1        2 0.13189900E+00 0.27713745E+03</pdfrwt>
<pdfrwt beam="2">  1       -2 0.34455791E-02 0.27713745E+03</pdfrwt>
<totfact> 0.11125374E+04</totfact>
</mgrwt>
</event>
<event>
 9    1  0.8093459E-001  0.2764303E+03  0.7818608E-02  0.1097655E+00
          2   -1    0    0  501    0  0.00000000000E+00  0.00000000000E+00  0.89655844878E+03  0.89655844878E+03  0.00000000000E+00 0.  1.
         -2   -1    0    0    0  501 -0.00000000000E+00 -0.00000000000E+00 -0.21307512850E+02  0.21307512850E+02  0.00000000000E+00 0.  1.
         35    2    1    2    0    0  0.14210854715E-13  0.00000000000E+00  0.87525093593E+03  0.91786596163E+03  0.27643032155E+03 0.  0.
         25    2    3    3    0    0  0.68901385731E+02 -0.47976835837E+01  0.44211575646E+03  0.46473123836E+03  0.12545263277E+03 0.  0.
         25    2    3    3    0    0 -0.68901385731E+02  0.47976835837E+01  0.43313517947E+03  0.45313472327E+03  0.11381816647E+03 0.  0.
          5    1    4    4  502    0  0.55313394761E+02  0.26426814437E+02  0.41857809923E+03  0.42306933630E+03  0.47000000000E+01 0.  1.
         -5    1    4    4    0  502  0.13587990970E+02 -0.31224498021E+02  0.23537657237E+02  0.41661902062E+02  0.47000000000E+01 0.  1.
          5    1    5    5  503    0 -0.50693201974E+02  0.42249179846E+02  0.37870627809E+03  0.38444158073E+03  0.47000000000E+01 0.  1.
         -5    1    5    5    0  503 -0.18208183757E+02 -0.37451496262E+02  0.54428901372E+02  0.68693142544E+02  0.47000000000E+01 0.  1.
<mgrwt>
<rscale>  0 0.27643032E+03</rscale>
<asrwt>0</asrwt>
<pdfrwt beam="1">  1        2 0.13793204E+00 0.27643032E+03</pdfrwt>
<pdfrwt beam="2">  1       -2 0.32780796E-02 0.27643032E+03</pdfrwt>
<totfact> 0.11295818E+04</totfact>
</mgrwt>
</event>
<event>
 9    1  0.8093459E-001  0.2778101E+03  0.7818608E-02  0.1096891E+00
          2   -1    0    0  501    0  0.00000000000E+00  0.00000000000E+00  0.24817582316E+04  0.24817582316E+04  0.00000000000E+00 0. -1.
         -2   -1    0    0    0  501 -0.00000000000E+00 -0.00000000000E+00 -0.77745745954E+01  0.77745745954E+01  0.00000000000E+00 0. -1.
         35    2    1    2    0    0  0.00000000000E+00  0.00000000000E+00  0.24739836570E+04  0.24895328062E+04  0.27781011140E+03 0.  0.
         25    2    3    3    0    0 -0.15191139439E+02 -0.54260618230E+01  0.70741366918E+03  0.71849932236E+03  0.12468746541E+03 0.  0.
         25    2    3    3    0    0  0.15191139439E+02  0.54260618230E+01  0.17665699878E+04  0.17710334838E+04  0.12461888343E+03 0.  0.
          5    1    4    4  502    0 -0.42099991836E+02  0.39273625971E+02  0.19393543885E+03  0.20235580410E+03  0.47000000000E+01 0. -1.
         -5    1    4    4    0  502  0.26908852398E+02 -0.44699687794E+02  0.51347823033E+03  0.51614351826E+03  0.47000000000E+01 0. -1.
          5    1    5    5  503    0 -0.75031196183E+00  0.27874397147E+02  0.16763575313E+04  0.16765960180E+04  0.47000000000E+01 0. -1.
         -5    1    5    5    0  503  0.15941451400E+02 -0.22448335324E+02  0.90212456507E+02  0.94437465767E+02  0.47000000000E+01 0. -1.
<mgrwt>
<rscale>  0 0.27781011E+03</rscale>
<asrwt>0</asrwt>
<pdfrwt beam="1">  1        2 0.38180833E+00 0.27781011E+03</pdfrwt>
<pdfrwt beam="2">  1       -2 0.11960904E-02 0.27781011E+03</pdfrwt>
<totfact> 0.67415089E+03</totfact>
</mgrwt>
</event>
<event>
 9    1  0.8093459E-001  0.2722272E+03  0.7818608E-02  0.1100012E+00
          2   -1    0    0  501    0  0.00000000000E+00  0.00000000000E+00  0.10042422625E+03  0.10042422625E+03  0.00000000000E+00 0.  1.
         -2   -1    0    0    0  501 -0.00000000000E+00 -0.00000000000E+00 -0.18448645041E+03  0.18448645041E+03  0.00000000000E+00 0.  1.
         35    2    1    2    0    0  0.17763568394E-14  0.35527136788E-14 -0.84062224163E+02  0.28491067666E+03  0.27222717745E+03 0.  0.
         25    2    3    3    0    0 -0.54705809468E+01 -0.60016663608E+01  0.18100397266E+02  0.12683678922E+03  0.12527569383E+03 0.  0.
         25    2    3    3    0    0  0.54705809468E+01  0.60016663608E+01 -0.10216262143E+03  0.15807388744E+03  0.12035034448E+03 0.  0.
          5    1    4    4  502    0 -0.14166077549E+02  0.31881459567E+02 -0.42191526909E+02  0.54948340832E+02  0.47000000000E+01 0. -1.
         -5    1    4    4    0  502  0.86954966023E+01 -0.37883125928E+02  0.60291924175E+02  0.71888448390E+02  0.47000000000E+01 0. -1.
          5    1    5    5  503    0 -0.30979919466E+02  0.47667361992E+02 -0.23330043949E+02  0.61630461300E+02  0.47000000000E+01 0.  1.
         -5    1    5    5    0  503  0.36450500413E+02 -0.41665695631E+02 -0.78832577479E+02  0.96443426136E+02  0.47000000000E+01 0.  1.
<mgrwt>
<rscale>  0 0.27222718E+03</rscale>
<asrwt>0</asrwt>
<pdfrwt beam="1">  1        2 0.15449881E-01 0.27222718E+03</pdfrwt>
<pdfrwt beam="2">  1       -2 0.28382530E-01 0.27222718E+03</pdfrwt>
<totfact> 0.42292277E+03</totfact>
</mgrwt>
</event>
<event>
 9    1  0.8093459E-001  0.2656414E+03  0.7818608E-02  0.1103800E+00
         -2   -1    0    0    0  501 -0.00000000000E+00  0.00000000000E+00  0.73171395878E+02  0.73171395878E+02  0.00000000000E+00 0.  1.
          2   -1    0    0  501    0  0.00000000000E+00 -0.00000000000E+00 -0.24109608261E+03  0.24109608261E+03  0.00000000000E+00 0.  1.
         35    2    1    2    0    0  0.00000000000E+00  0.00000000000E+00 -0.16792468674E+03  0.31426747849E+03  0.26564138914E+03 0.  0.
         25    2    3    3    0    0  0.17686220132E+02  0.32667871845E+02 -0.11511544066E+03  0.17405486193E+03  0.12515405727E+03 0.  0.
         25    2    3    3    0    0 -0.17686220132E+02 -0.32667871845E+02 -0.52809246079E+02  0.14021261656E+03  0.12446191843E+03 0.  0.
          5    1    4    4  502    0 -0.33079264310E+02  0.62573059240E+02 -0.55098386633E+02  0.89819528386E+02  0.47000000000E+01 0. -1.
         -5    1    4    4    0  502  0.50765484442E+02 -0.29905187395E+02 -0.60017054025E+02  0.84235333546E+02  0.47000000000E+01 0. -1.
          5    1    5    5  503    0  0.26371116176E+02  0.52237771834E+01 -0.73457899561E+02  0.78363745599E+02  0.47000000000E+01 0. -1.
         -5    1    5    5    0  503 -0.44057336307E+02 -0.37891649028E+02  0.20648653483E+02  0.61848870962E+02  0.47000000000E+01 0. -1.
<mgrwt>
<rscale>  0 0.26564139E+03</rscale>
<asrwt>0</asrwt>
<pdfrwt beam="1">  1        2 0.37091705E-01 0.26564139E+03</pdfrwt>
<pdfrwt beam="2">  1       -2 0.11257138E-01 0.26564139E+03</pdfrwt>
<totfact> 0.75354742E+03</totfact>
</mgrwt>
</event>
<event>
 9    1  0.8093459E-001  0.2805540E+03  0.7818608E-02  0.1095387E+00
          2   -1    0    0  501    0  0.00000000000E+00  0.00000000000E+00  0.34962927386E+03  0.34962927386E+03  0.00000000000E+00 0.  1.
         -2   -1    0    0    0  501 -0.00000000000E+00 -0.00000000000E+00 -0.56281419838E+02  0.56281419838E+02  0.00000000000E+00 0.  1.
         35    2    1    2    0    0  0.00000000000E+00 -0.71054273576E-14  0.29334785402E+03  0.40591069369E+03  0.28055396593E+03 0.  0.
         25    2    3    3    0    0  0.33616805942E+02  0.49634901201E+02  0.11383361968E+03  0.17914794347E+03  0.12466827832E+03 0.  0.
         25    2    3    3    0    0 -0.33616805942E+02 -0.49634901201E+02  0.17951423434E+03  0.22676275023E+03  0.12490905292E+03 0.  0.
          5    1    4    4  502    0  0.67706218405E+02 -0.62843523008E+01  0.80603387496E+02  0.10555861486E+03  0.47000000000E+01 0.  1.
         -5    1    4    4    0  502 -0.34089412464E+02  0.55919253502E+02  0.33230232183E+02  0.73589328610E+02  0.47000000000E+01 0.  1.
          5    1    5    5  503    0 -0.70386988840E+01  0.16551500640E+02 -0.12147075831E+02  0.22206686080E+02  0.47000000000E+01 0.  1.
         -5    1    5    5    0  503 -0.26578107058E+02 -0.66186401841E+02  0.19166131017E+03  0.20455606415E+03  0.47000000000E+01 0.  1.
<mgrwt>
<rscale>  0 0.28055397E+03</rscale>
<asrwt>0</asrwt>
<pdfrwt beam="1">  1        2 0.53789118E-01 0.28055397E+03</pdfrwt>
<pdfrwt beam="2">  1       -2 0.86586802E-02 0.28055397E+03</pdfrwt>
<totfact> 0.76759772E+03</totfact>
</mgrwt>
</event>
<event>
 9    1  0.8093459E-001  0.2748749E+03  0.7818608E-02  0.1098522E+00
         -2   -1    0    0    0  501 -0.00000000000E+00  0.00000000000E+00  0.17856076853E+03  0.17856076853E+03  0.00000000000E+00 0. -1.
          2   -1    0    0  501    0  0.00000000000E+00 -0.00000000000E+00 -0.10578497777E+03  0.10578497777E+03  0.00000000000E+00 0. -1.
         35    2    1    2    0    0 -0.71054273576E-14  0.14210854715E-13  0.72775790767E+02  0.28434574630E+03  0.27487485829E+03 0.  0.
         25    2    3    3    0    0  0.40741048092E+02 -0.39742827458E+02  0.27629006849E+02  0.13977060201E+03  0.12463199361E+03 0.  0.
         25    2    3    3    0    0 -0.40741048092E+02  0.39742827458E+02  0.45146783918E+02  0.14457514430E+03  0.12499765964E+03 0.  0.
          5    1    4    4  502    0  0.55292660929E+01 -0.24793441685E+02 -0.48212649769E+02  0.54697688542E+02  0.47000000000E+01 0. -1.
         -5    1    4    4    0  502  0.35211781999E+02 -0.14949385773E+02  0.75841656618E+02  0.85072913464E+02  0.47000000000E+01 0. -1.
          5    1    5    5  503    0  0.35428688230E+02 -0.19161374012E+02  0.18394466303E+02  0.44528604226E+02  0.47000000000E+01 0.  1.
         -5    1    5    5    0  503 -0.76169736322E+02  0.58904201471E+02  0.26752317615E+02  0.10004654007E+03  0.47000000000E+01 0.  1.
<mgrwt>
<rscale>  0 0.27487486E+03</rscale>
<asrwt>0</asrwt>
<pdfrwt beam="1">  1        2 0.16274612E-01 0.27487486E+03</pdfrwt>
<pdfrwt beam="2">  1       -2 0.27470887E-01 0.27487486E+03</pdfrwt>
<totfact> 0.42194873E+03</totfact>
</mgrwt>
</event>
<event>
 9    1  0.8093459E-001  0.2770311E+03  0.7818608E-02  0.1097322E+00
         -2   -1    0    0    0  501 -0.00000000000E+00  0.00000000000E+00  0.24539975527E+02  0.24539975527E+02  0.00000000000E+00 0. -1.
          2   -1    0    0  501    0  0.00000000000E+00 -0.00000000000E+00 -0.78184892535E+03  0.78184892535E+03  0.00000000000E+00 0. -1.
         35    2    1    2    0    0  0.00000000000E+00  0.71054273576E-14 -0.75730894983E+03  0.80638890088E+03  0.27703107042E+03 0.  0.
         25    2    3    3    0    0 -0.18618847919E+02 -0.56592526641E+02 -0.33556306066E+03  0.36304835166E+03  0.12510860240E+03 0.  0.
         25    2    3    3    0    0  0.18618847919E+02  0.56592526641E+02 -0.42174588917E+03  0.44334054922E+03  0.12301167418E+03 0.  0.
          5    1    4    4  502    0  0.14442662317E+00 -0.92541023978E+02 -0.18304871638E+03  0.20516526155E+03  0.47000000000E+01 0. -1.
         -5    1    4    4    0  502 -0.18763274542E+02  0.35948497337E+02 -0.15251434428E+03  0.15788309011E+03  0.47000000000E+01 0. -1.
          5    1    5    5  503    0  0.57481281452E+02  0.64750940489E+02 -0.35584139033E+03  0.36625396528E+03  0.47000000000E+01 0.  1.
         -5    1    5    5    0  503 -0.38862433533E+02 -0.81584138473E+01 -0.65904498842E+02  0.77086583945E+02  0.47000000000E+01 0.  1.
<mgrwt>
<rscale>  0 0.27703107E+03</rscale>
<asrwt>0</asrwt>
<pdfrwt beam="1">  1        2 0.12028444E+00 0.27703107E+03</pdfrwt>
<pdfrwt beam="2">  1       -2 0.37753812E-02 0.27703107E+03</pdfrwt>
<totfact> 0.10921648E+04</totfact>
</mgrwt>
</event>
<event>
 9    1  0.8093459E-001  0.2748569E+03  0.7818608E-02  0.1098532E+00
         -2   -1    0    0    0  501 -0.00000000000E+00  0.00000000000E+00  0.47888995776E+02  0.47888995776E+02  0.00000000000E+00 0. -1.
          2   -1    0    0  501    0  0.00000000000E+00 -0.00000000000E+00 -0.39438257394E+03  0.39438257394E+03  0.00000000000E+00 0. -1.
         35    2    1    2    0    0  0.00000000000E+00  0.00000000000E+00 -0.34649357816E+03  0.44227156971E+03  0.27485694765E+03 0.  0.
         25    2    3    3    0    0 -0.81090951310E+01  0.35551262205E+02 -0.24881623908E+03  0.28071043122E+03  0.12473642490E+03 0.  0.
         25    2    3    3    0    0  0.81090951310E+01 -0.35551262205E+02 -0.97677339080E+02  0.16156113849E+03  0.12341591969E+03 0.  0.
          5    1    4    4  502    0  0.91335614373E+01  0.15548986777E+01 -0.24136269702E+03  0.24158617751E+03  0.47000000000E+01 0. -1.
         -5    1    4    4    0  502 -0.17242656568E+02  0.33996363528E+02 -0.74535420645E+01  0.39124253705E+02  0.47000000000E+01 0. -1.
          5    1    5    5  503    0  0.13874702327E+02  0.38145768788E+02 -0.24741018848E+01  0.40936758803E+02  0.47000000000E+01 0.  1.
         -5    1    5    5    0  503 -0.57656071961E+01 -0.73697030994E+02 -0.95203237195E+02  0.12062437969E+03  0.47000000000E+01 0.  1.
<mgrwt>
<rscale>  0 0.27485695E+03</rscale>
<asrwt>0</asrwt>
<pdfrwt beam="1">  1        2 0.60674242E-01 0.27485695E+03</pdfrwt>
<pdfrwt beam="2">  1       -2 0.73675378E-02 0.27485695E+03</pdfrwt>
<totfact> 0.86646775E+03</totfact>
</mgrwt>
</event>
<event>
 9    1  0.8093459E-001  0.2733757E+03  0.7818608E-02  0.1099363E+00
          1   -1    0    0  501    0  0.00000000000E+00  0.00000000000E+00  0.54762266368E+02  0.54762266368E+02  0.00000000000E+00 0. -1.
         -1   -1    0    0    0  501 -0.00000000000E+00 -0.00000000000E+00 -0.34117598326E+03  0.34117598326E+03  0.00000000000E+00 0. -1.
         35    2    1    2    0    0  0.71054273576E-14  0.71054273576E-14 -0.28641371689E+03  0.39593824963E+03  0.27337571270E+03 0.  0.
         25    2    3    3    0    0  0.20879412822E+02 -0.48486948952E+02 -0.12629692496E+03  0.18549414425E+03  0.12518079005E+03 0.  0.
         25    2    3    3    0    0 -0.20879412822E+02  0.48486948952E+02 -0.16011679193E+03  0.21044410538E+03  0.12594602151E+03 0.  0.
          5    1    4    4  502    0 -0.22476052814E+02 -0.75971185639E+02 -0.99875314611E+02  0.12756944174E+03  0.47000000000E+01 0. -1.
         -5    1    4    4    0  502  0.43355465636E+02  0.27484236687E+02 -0.26421610349E+02  0.57924702504E+02  0.47000000000E+01 0. -1.
          5    1    5    5  503    0  0.50654602060E+02  0.28253668434E+01 -0.50516424276E+02  0.71748662212E+02  0.47000000000E+01 0.  1.
         -5    1    5    5    0  503 -0.71534014882E+02  0.45661582109E+02 -0.10960036766E+03  0.13869544317E+03  0.47000000000E+01 0.  1.
<mgrwt>
<rscale>  0 0.27337571E+03</rscale>
<asrwt>0</asrwt>
<pdfrwt beam="1">  1        1 0.84249639E-02 0.27337571E+03</pdfrwt>
<pdfrwt beam="2">  1       -1 0.52488614E-01 0.27337571E+03</pdfrwt>
<totfact> 0.30271685E+03</totfact>
</mgrwt>
</event>
<event>
 9    1  0.8093459E-001  0.2830627E+03  0.7818608E-02  0.1094028E+00
         -1   -1    0    0    0  501 -0.00000000000E+00  0.00000000000E+00  0.10210906262E+04  0.10210906262E+04  0.00000000000E+00 0. -1.
          1   -1    0    0  501    0  0.00000000000E+00 -0.00000000000E+00 -0.19617381539E+02  0.19617381539E+02  0.00000000000E+00 0. -1.
         35    2    1    2    0    0  0.00000000000E+00 -0.71054273576E-14  0.10014732446E+04  0.10407080077E+04  0.28306270965E+03 0.  0.
         25    2    3    3    0    0  0.52370573542E+02 -0.34432347283E+02  0.54332157441E+03  0.56099405162E+03  0.12485082789E+03 0.  0.
         25    2    3    3    0    0 -0.52370573542E+02  0.34432347283E+02  0.45815167022E+03  0.47971395608E+03  0.12764898442E+03 0.  0.
          5    1    4    4  502    0  0.80020439421E+02 -0.19655452680E+02  0.20209630397E+03  0.21829936698E+03  0.47000000000E+01 0.  1.
         -5    1    4    4    0  502 -0.27649865879E+02 -0.14776894603E+02  0.34122527044E+03  0.34269468465E+03  0.47000000000E+01 0.  1.
          5    1    5    5  503    0 -0.31828127055E+02  0.69517854637E+02  0.40728582745E+03  0.41442682952E+03  0.47000000000E+01 0. -1.
         -5    1    5    5    0  503 -0.20542446487E+02 -0.35085507354E+02  0.50865842768E+02  0.65287126560E+02  0.47000000000E+01 0. -1.
<mgrwt>
<rscale>  0 0.28306271E+03</rscale>
<asrwt>0</asrwt>
<pdfrwt beam="1">  1        1 0.30180595E-02 0.28306271E+03</pdfrwt>
<pdfrwt beam="2">  1       -1 0.15709082E+00 0.28306271E+03</pdfrwt>
<totfact> 0.11304246E+03</totfact>
</mgrwt>
</event>
<event>
 9    1  0.8093459E-001  0.2770100E+03  0.7818608E-02  0.1097333E+00
         -1   -1    0    0    0  501 -0.00000000000E+00  0.00000000000E+00  0.11196512152E+03  0.11196512152E+03  0.00000000000E+00 0. -1.
          1   -1    0    0  501    0  0.00000000000E+00 -0.00000000000E+00 -0.17133583783E+03  0.17133583783E+03  0.00000000000E+00 0. -1.
         35    2    1    2    0    0  0.00000000000E+00  0.17763568394E-14 -0.59370716312E+02  0.28330095934E+03  0.27701002077E+03 0.  0.
         25    2    3    3    0    0 -0.13018441884E+02 -0.73002769063E+01 -0.86630424170E+02  0.15308450654E+03  0.12532861556E+03 0.  0.
         25    2    3    3    0    0  0.13018441884E+02  0.73002769063E+01  0.27259707858E+02  0.13021645280E+03  0.12645338681E+03 0.  0.
          5    1    4    4  502    0 -0.26732614336E+01 -0.47809596909E+02 -0.98282689518E+02  0.10942797148E+03  0.47000000000E+01 0. -1.
         -5    1    4    4    0  502 -0.10345180450E+02  0.40509320003E+02  0.11652265348E+02  0.43656535059E+02  0.47000000000E+01 0. -1.
          5    1    5    5  503    0 -0.23794281095E+02 -0.73910325614E+01  0.68368491638E+02  0.72918693241E+02  0.47000000000E+01 0. -1.
         -5    1    5    5    0  503  0.36812722979E+02  0.14691309468E+02 -0.41108783780E+02  0.57297759562E+02  0.47000000000E+01 0. -1.
<mgrwt>
<rscale>  0 0.27701002E+03</rscale>
<asrwt>0</asrwt>
<pdfrwt beam="1">  1        1 0.26359360E-01 0.27701002E+03</pdfrwt>
<pdfrwt beam="2">  1       -1 0.17225403E-01 0.27701002E+03</pdfrwt>
<totfact> 0.45688415E+03</totfact>
</mgrwt>
</event>
<event>
 9    1  0.8093459E-001  0.2724802E+03  0.7818608E-02  0.1099868E+00
          2   -1    0    0  501    0  0.00000000000E+00  0.00000000000E+00  0.36355208912E+03  0.36355208912E+03  0.00000000000E+00 0.  1.
         -2   -1    0    0    0  501 -0.00000000000E+00 -0.00000000000E+00 -0.51055573365E+02  0.51055573365E+02  0.00000000000E+00 0.  1.
         35    2    1    2    0    0  0.00000000000E+00  0.00000000000E+00  0.31249651575E+03  0.41460766248E+03  0.27248016704E+03 0.  0.
         25    2    3    3    0    0 -0.34407969659E+02 -0.98839860057E+01  0.93563340059E+02  0.16003497315E+03  0.12480181277E+03 0.  0.
         25    2    3    3    0    0  0.34407969659E+02  0.98839860057E+01  0.21893317569E+03  0.25457268933E+03  0.12487560683E+03 0.  0.
          5    1    4    4  502    0 -0.60453367976E+02  0.20106887622E+02  0.64868917390E+01  0.64211108026E+02  0.47000000000E+01 0.  1.
         -5    1    4    4    0  502  0.26045398317E+02 -0.29990873628E+02  0.87076448320E+02  0.95823865120E+02  0.47000000000E+01 0.  1.
          5    1    5    5  503    0 -0.44428920669E+02  0.21756900587E+02  0.75046605316E+02  0.90007636812E+02  0.47000000000E+01 0.  1.
         -5    1    5    5    0  503  0.78836890328E+02 -0.11872914581E+02  0.14388657038E+03  0.16456505252E+03  0.47000000000E+01 0.  1.
<mgrwt>
<rscale>  0 0.27248017E+03</rscale>
<asrwt>0</asrwt>
<pdfrwt beam="1">  1        2 0.55931089E-01 0.27248017E+03</pdfrwt>
<pdfrwt beam="2">  1       -2 0.78547038E-02 0.27248017E+03</pdfrwt>
<totfact> 0.85623464E+03</totfact>
</mgrwt>
</event>
<event>
 9    1  0.8093459E-001  0.2749632E+03  0.7818608E-02  0.1098472E+00
         -2   -1    0    0    0  501 -0.00000000000E+00  0.00000000000E+00  0.14865151863E+02  0.14865151863E+02  0.00000000000E+00 0. -1.
          2   -1    0    0  501    0  0.00000000000E+00 -0.00000000000E+00 -0.12715097994E+04  0.12715097994E+04  0.00000000000E+00 0. -1.
         35    2    1    2    0    0  0.35527136788E-14  0.00000000000E+00 -0.12566446476E+04  0.12863749513E+04  0.27496317036E+03 0.  0.
         25    2    3    3    0    0  0.15370791308E+02 -0.48941323682E+02 -0.74415648936E+03  0.75622689915E+03  0.12441353609E+03 0.  0.
         25    2    3    3    0    0 -0.15370791308E+02  0.48941323682E+02 -0.51248815820E+03  0.53014805213E+03  0.12562376563E+03 0.  0.
          5    1    4    4  502    0  0.42028311095E+02 -0.56154320711E+02 -0.21235741852E+03  0.22369052252E+03  0.47000000000E+01 0.  1.
         -5    1    4    4    0  502 -0.26657519787E+02  0.72129970282E+01 -0.53179907084E+03  0.53253637663E+03  0.47000000000E+01 0.  1.
          5    1    5    5  503    0  0.27040692368E+02  0.19857203132E+02 -0.43914088143E+03  0.44044558268E+03  0.47000000000E+01 0.  1.
         -5    1    5    5    0  503 -0.42411483676E+02  0.29084120550E+02 -0.73347276778E+02  0.89702469456E+02  0.47000000000E+01 0.  1.
<mgrwt>
<rscale>  0 0.27496317E+03</rscale>
<asrwt>0</asrwt>
<pdfrwt beam="1">  1        2 0.19561685E+00 0.27496317E+03</pdfrwt>
<pdfrwt beam="2">  1       -2 0.22869469E-02 0.27496317E+03</pdfrwt>
<totfact> 0.11532222E+04</totfact>
</mgrwt>
</event>
<event>
 9    1  0.8093459E-001  0.2760522E+03  0.7818608E-02  0.1097865E+00
         -1   -1    0    0    0  501 -0.00000000000E+00  0.00000000000E+00  0.16137231923E+03  0.16137231923E+03  0.00000000000E+00 0.  1.
          1   -1    0    0  501    0  0.00000000000E+00 -0.00000000000E+00 -0.11805742581E+03  0.11805742581E+03  0.00000000000E+00 0.  1.
         35    2    1    2    0    0  0.71054273576E-14 -0.88817841970E-15  0.43314893413E+02  0.27942974504E+03  0.27605217337E+03 0.  0.
         25    2    3    3    0    0  0.21124948095E+02 -0.36188153596E+01 -0.32734160324E+02  0.13129843097E+03  0.12533312996E+03 0.  0.
         25    2    3    3    0    0 -0.21124948095E+02  0.36188153596E+01  0.76049053737E+02  0.14813131407E+03  0.12529991372E+03 0.  0.
          5    1    4    4  502    0  0.24922701093E+01 -0.61109239835E+02 -0.35029830022E+02  0.70638018056E+02  0.47000000000E+01 0.  1.
         -5    1    4    4    0  502  0.18632677986E+02  0.57490424475E+02  0.22956696972E+01  0.60660412912E+02  0.47000000000E+01 0.  1.
          5    1    5    5  503    0  0.45040447417E+02  0.10802044796E+01 -0.24059732178E+01  0.45361739962E+02  0.47000000000E+01 0.  1.
         -5    1    5    5    0  503 -0.66165395513E+02  0.25386108800E+01  0.78455026955E+02  0.10276957411E+03  0.47000000000E+01 0.  1.
<mgrwt>
<rscale>  0 0.27605217E+03</rscale>
<asrwt>0</asrwt>
<pdfrwt beam="1">  1        1 0.18162681E-01 0.27605217E+03</pdfrwt>
<pdfrwt beam="2">  1       -1 0.24826511E-01 0.27605217E+03</pdfrwt>
<totfact> 0.40565314E+03</totfact>
</mgrwt>
</event>
<event>
 9    1  0.8093459E-001  0.2657469E+03  0.7818608E-02  0.1103739E+00
         -2   -1    0    0    0  501 -0.00000000000E+00  0.00000000000E+00  0.65119946967E+03  0.65119946967E+03  0.00000000000E+00 0. -1.
          2   -1    0    0  501    0  0.00000000000E+00 -0.00000000000E+00 -0.27112042962E+02  0.27112042962E+02  0.00000000000E+00 0. -1.
         35    2    1    2    0    0  0.35527136788E-14  0.35527136788E-14  0.62408742671E+03  0.67831151264E+03  0.26574685698E+03 0.  0.
         25    2    3    3    0    0 -0.15146663217E+02 -0.28891401988E+02  0.39337270931E+03  0.41416666187E+03  0.12541052932E+03 0.  0.
         25    2    3    3    0    0  0.15146663217E+02  0.28891401988E+02  0.23071471740E+03  0.26414485076E+03  0.12441497836E+03 0.  0.
          5    1    4    4  502    0  0.15879908576E+02  0.12078259437E+02  0.33799842938E+01  0.20774266322E+02  0.47000000000E+01 0. -1.
         -5    1    4    4    0  502 -0.31026571793E+02 -0.40969661424E+02  0.38999272501E+03  0.39339239555E+03  0.47000000000E+01 0. -1.
          5    1    5    5  503    0  0.27090642620E+02 -0.26626436201E+02  0.15130187401E+02  0.41156804943E+02  0.47000000000E+01 0.  1.
         -5    1    5    5    0  503 -0.11943979403E+02  0.55517838189E+02  0.21558453000E+03  0.22298804582E+03  0.47000000000E+01 0.  1.
<mgrwt>
<rscale>  0 0.26574686E+03</rscale>
<asrwt>0</asrwt>
<pdfrwt beam="1">  1        2 0.41710840E-02 0.26574686E+03</pdfrwt>
<pdfrwt beam="2">  1       -2 0.10018452E+00 0.26574686E+03</pdfrwt>
<totfact> 0.17068251E+03</totfact>
</mgrwt>
</event>
<event>
 9    1  0.8093459E-001  0.2728577E+03  0.7818608E-02  0.1099655E+00
         -2   -1    0    0    0  501 -0.00000000000E+00  0.00000000000E+00  0.20247336930E+02  0.20247336930E+02  0.00000000000E+00 0. -1.
          2   -1    0    0  501    0  0.00000000000E+00 -0.00000000000E+00 -0.91927282386E+03  0.91927282386E+03  0.00000000000E+00 0. -1.
         35    2    1    2    0    0  0.35527136788E-14  0.00000000000E+00 -0.89902548693E+03  0.93952016079E+03  0.27285766689E+03 0.  0.
         25    2    3    3    0    0  0.24459697715E+02 -0.30179745151E+02 -0.31054508010E+03  0.33688356588E+03  0.12467235602E+03 0.  0.
         25    2    3    3    0    0 -0.24459697715E+02  0.30179745151E+02 -0.58848040683E+03  0.60263659490E+03  0.12390553850E+03 0.  0.
          5    1    4    4  502    0 -0.51095837647E+02 -0.11233125554E+02 -0.12791668214E+03  0.13828136282E+03  0.47000000000E+01 0.  1.
         -5    1    4    4    0  502  0.75555535362E+02 -0.18946619597E+02 -0.18262839796E+03  0.19860220306E+03  0.47000000000E+01 0.  1.
          5    1    5    5  503    0  0.15765681151E+02 -0.36245343309E+02 -0.33844260839E+03  0.34077524967E+03  0.47000000000E+01 0. -1.
         -5    1    5    5    0  503 -0.40225378866E+02  0.66425088460E+02 -0.25003779843E+03  0.26186134523E+03  0.47000000000E+01 0. -1.
<mgrwt>
<rscale>  0 0.27285767E+03</rscale>
<asrwt>0</asrwt>
<pdfrwt beam="1">  1        2 0.14142657E+00 0.27285767E+03</pdfrwt>
<pdfrwt beam="2">  1       -2 0.31149753E-02 0.27285767E+03</pdfrwt>
<totfact> 0.11781014E+04</totfact>
</mgrwt>
</event>
<event>
 9    1  0.8093459E-001  0.2841936E+03  0.7818608E-02  0.1093420E+00
          4   -1    0    0  501    0  0.00000000000E+00  0.00000000000E+00  0.40964332824E+02  0.40964332824E+02  0.00000000000E+00 0.  1.
         -4   -1    0    0    0  501 -0.00000000000E+00 -0.00000000000E+00 -0.49290425231E+03  0.49290425231E+03  0.00000000000E+00 0.  1.
         35    2    1    2    0    0  0.00000000000E+00 -0.71054273576E-14 -0.45193991948E+03  0.53386858513E+03  0.28419355265E+03 0.  0.
         25    2    3    3    0    0  0.35812232636E+01 -0.18710694663E+02 -0.34730458924E+03  0.36971890937E+03  0.12533426898E+03 0.  0.
         25    2    3    3    0    0 -0.35812232636E+01  0.18710694663E+02 -0.10463533025E+03  0.16414967577E+03  0.12503458907E+03 0.  0.
          5    1    4    4  502    0 -0.36662810376E+02  0.38984940394E+02 -0.18769751447E+03  0.19523430585E+03  0.47000000000E+01 0. -1.
         -5    1    4    4    0  502  0.40244033640E+02 -0.57695635057E+02 -0.15960707477E+03  0.17448460352E+03  0.47000000000E+01 0. -1.
          5    1    5    5  503    0  0.54809011566E+02 -0.14568323439E+02 -0.63249353170E+02  0.85081340335E+02  0.47000000000E+01 0.  1.
         -5    1    5    5    0  503 -0.58390234830E+02  0.33279018102E+02 -0.41385977075E+02  0.79068335431E+02  0.47000000000E+01 0.  1.
<mgrwt>
<rscale>  0 0.28419355E+03</rscale>
<asrwt>0</asrwt>
<pdfrwt beam="1">  1        4 0.63022052E-02 0.28419355E+03</pdfrwt>
<pdfrwt beam="2">  1       -4 0.75831422E-01 0.28419355E+03</pdfrwt>
<totfact> 0.49279763E+02</totfact>
</mgrwt>
</event>
<event>
 9    1  0.8093459E-001  0.2726783E+03  0.7818608E-02  0.1099756E+00
          2   -1    0    0  501    0  0.00000000000E+00  0.00000000000E+00  0.99024636397E+03  0.99024636397E+03  0.00000000000E+00 0. -1.
         -2   -1    0    0    0  501 -0.00000000000E+00 -0.00000000000E+00 -0.18771447922E+02  0.18771447922E+02  0.00000000000E+00 0. -1.
         35    2    1    2    0    0  0.00000000000E+00 -0.35527136788E-14  0.97147491605E+03  0.10090178119E+04  0.27267825767E+03 0.  0.
         25    2    3    3    0    0 -0.29251288421E+02  0.17109988709E+02  0.63940206044E+03  0.65221710804E+03  0.12411193148E+03 0.  0.
         25    2    3    3    0    0  0.29251288421E+02 -0.17109988709E+02  0.33207285561E+03  0.35680070386E+03  0.12603956224E+03 0.  0.
          5    1    4    4  502    0 -0.70532191271E+02 -0.83756132004E+01  0.48795753013E+03  0.49312227907E+03  0.47000000000E+01 0. -1.
         -5    1    4    4    0  502  0.41280902850E+02  0.25485601909E+02  0.15144453031E+03  0.15909482897E+03  0.47000000000E+01 0. -1.
          5    1    5    5  503    0  0.53291086115E+02  0.39338314030E+02  0.13685434580E+03  0.15211392038E+03  0.47000000000E+01 0.  1.
         -5    1    5    5    0  503 -0.24039797694E+02 -0.56448302739E+02  0.19521850982E+03  0.20468678348E+03  0.47000000000E+01 0.  1.
<mgrwt>
<rscale>  0 0.27267826E+03</rscale>
<asrwt>0</asrwt>
<pdfrwt beam="1">  1        2 0.15234555E+00 0.27267826E+03</pdfrwt>
<pdfrwt beam="2">  1       -2 0.28879158E-02 0.27267826E+03</pdfrwt>
<totfact> 0.11901975E+04</totfact>
</mgrwt>
</event>
<event>
 9    1  0.8093459E-001  0.2786522E+03  0.7818608E-02  0.1096427E+00
         -1   -1    0    0    0  501 -0.00000000000E+00  0.00000000000E+00  0.26479383033E+03  0.26479383033E+03  0.00000000000E+00 0. -1.
          1   -1    0    0  501    0  0.00000000000E+00 -0.00000000000E+00 -0.73308989318E+02  0.73308989318E+02  0.00000000000E+00 0. -1.
         35    2    1    2    0    0  0.35527136788E-14  0.00000000000E+00  0.19148484101E+03  0.33810281965E+03  0.27865224262E+03 0.  0.
         25    2    3    3    0    0  0.72700234417E+01 -0.67788163054E+01  0.22068684196E+02  0.12747462704E+03  0.12515569553E+03 0.  0.
         25    2    3    3    0    0 -0.72700234417E+01  0.67788163054E+01  0.16941615682E+03  0.21062819261E+03  0.12475414118E+03 0.  0.
          5    1    4    4  502    0 -0.30667689128E+02 -0.19187542252E+02  0.61285187765E+02  0.71320636379E+02  0.47000000000E+01 0. -1.
         -5    1    4    4    0  502  0.37937712569E+02  0.12408725947E+02 -0.39216503569E+02  0.56153990658E+02  0.47000000000E+01 0. -1.
          5    1    5    5  503    0 -0.19893308725E+02 -0.35541741003E+02  0.61868719948E+01  0.41464761794E+02  0.47000000000E+01 0.  1.
         -5    1    5    5    0  503  0.12623285283E+02  0.42320557309E+02  0.16322928482E+03  0.16916343082E+03  0.47000000000E+01 0.  1.
<mgrwt>
<rscale>  0 0.27865224E+03</rscale>
<asrwt>0</asrwt>
<pdfrwt beam="1">  1        1 0.11278306E-01 0.27865224E+03</pdfrwt>
<pdfrwt beam="2">  1       -1 0.40737512E-01 0.27865224E+03</pdfrwt>
<totfact> 0.32460927E+03</totfact>
</mgrwt>
</event>
<event>
 9    1  0.8093459E-001  0.2760437E+03  0.7818608E-02  0.1097870E+00
          2   -1    0    0  501    0  0.00000000000E+00  0.00000000000E+00  0.40243884103E+03  0.40243884103E+03  0.00000000000E+00 0. -1.
         -2   -1    0    0    0  501 -0.00000000000E+00 -0.00000000000E+00 -0.47336470146E+02  0.47336470146E+02  0.00000000000E+00 0. -1.
         35    2    1    2    0    0  0.00000000000E+00 -0.35527136788E-14  0.35510237089E+03  0.44977531118E+03  0.27604372251E+03 0.  0.
         25    2    3    3    0    0  0.39936617839E+02 -0.31930679100E+02  0.13074822570E+03  0.18793727330E+03  0.12494326096E+03 0.  0.
         25    2    3    3    0    0 -0.39936617839E+02  0.31930679100E+02  0.22435414519E+03  0.26183803788E+03  0.12493948097E+03 0.  0.
          5    1    4    4  502    0  0.75858598568E+02 -0.45517083011E+02  0.11725563401E+03  0.14696021751E+03  0.47000000000E+01 0. -1.
         -5    1    4    4    0  502 -0.35921980729E+02  0.13586403911E+02  0.13492591688E+02  0.40977055790E+02  0.47000000000E+01 0. -1.
          5    1    5    5  503    0 -0.63565723643E+02 -0.16408998396E+01  0.20773463124E+03  0.21729947260E+03  0.47000000000E+01 0.  1.
         -5    1    5    5    0  503  0.23629105804E+02  0.33571578940E+02  0.16619513948E+02  0.44538565283E+02  0.47000000000E+01 0.  1.
<mgrwt>
<rscale>  0 0.27604372E+03</rscale>
<asrwt>0</asrwt>
<pdfrwt beam="1">  1        2 0.61913666E-01 0.27604372E+03</pdfrwt>
<pdfrwt beam="2">  1       -2 0.72825341E-02 0.27604372E+03</pdfrwt>
<totfact> 0.86319496E+03</totfact>
</mgrwt>
</event>
<event>
 9    1  0.8093459E-001  0.2712809E+03  0.7818608E-02  0.1100549E+00
          2   -1    0    0  501    0  0.00000000000E+00  0.00000000000E+00  0.46451563117E+03  0.46451563117E+03  0.00000000000E+00 0. -1.
         -2   -1    0    0    0  501 -0.00000000000E+00 -0.00000000000E+00 -0.39607569475E+02  0.39607569475E+02  0.00000000000E+00 0. -1.
         35    2    1    2    0    0  0.00000000000E+00  0.00000000000E+00  0.42490806170E+03  0.50412320065E+03  0.27128092549E+03 0.  0.
         25    2    3    3    0    0 -0.19359644517E+02 -0.48961117769E+02  0.22098362748E+03  0.25923980070E+03  0.12489805347E+03 0.  0.
         25    2    3    3    0    0  0.19359644517E+02  0.48961117769E+02  0.20392443422E+03  0.24488339995E+03  0.12494285819E+03 0.  0.
          5    1    4    4  502    0 -0.30165753543E+01  0.41791976481E+02  0.54983090011E+02  0.69288521504E+02  0.47000000000E+01 0. -1.
         -5    1    4    4    0  502 -0.16343069163E+02 -0.90753094250E+02  0.16600053747E+03  0.18995127919E+03  0.47000000000E+01 0. -1.
          5    1    5    5  503    0 -0.27904581709E+02  0.36207634214E+01 -0.21412250577E+01  0.28608573066E+02  0.47000000000E+01 0.  1.
         -5    1    5    5    0  503  0.47264226226E+02  0.45340354347E+02  0.20606565927E+03  0.21627482689E+03  0.47000000000E+01 0.  1.
<mgrwt>
<rscale>  0 0.27128093E+03</rscale>
<asrwt>0</asrwt>
<pdfrwt beam="1">  1        2 0.71463940E-01 0.27128093E+03</pdfrwt>
<pdfrwt beam="2">  1       -2 0.60934725E-02 0.27128093E+03</pdfrwt>
<totfact> 0.97063741E+03</totfact>
</mgrwt>
</event>
<event>
 9    1  0.8093459E-001  0.2800324E+03  0.7818608E-02  0.1095671E+00
         -1   -1    0    0    0  501 -0.00000000000E+00  0.00000000000E+00  0.49504403454E+02  0.49504403454E+02  0.00000000000E+00 0. -1.
          1   -1    0    0  501    0  0.00000000000E+00 -0.00000000000E+00 -0.39601586806E+03  0.39601586806E+03  0.00000000000E+00 0. -1.
         35    2    1    2    0    0  0.00000000000E+00  0.71054273576E-14 -0.34651146461E+03  0.44552027152E+03  0.28003235032E+03 0.  0.
         25    2    3    3    0    0  0.41862065649E+02 -0.33986086067E+02 -0.11753049549E+03  0.17959179468E+03  0.12462868354E+03 0.  0.
         25    2    3    3    0    0 -0.41862065649E+02  0.33986086067E+02 -0.22898096912E+03  0.26592847683E+03  0.12400880608E+03 0.  0.
          5    1    4    4  502    0 -0.15117082335E+02 -0.27647377339E+02  0.14927415472E+02  0.35182685866E+02  0.47000000000E+01 0.  1.
         -5    1    4    4    0  502  0.56979147985E+02 -0.63387087279E+01 -0.13245791096E+03  0.14440910882E+03  0.47000000000E+01 0.  1.
          5    1    5    5  503    0  0.92165446832E+00 -0.41718125531E+02 -0.40679932780E+02  0.58465360478E+02  0.47000000000E+01 0. -1.
         -5    1    5    5    0  503 -0.42783720118E+02  0.75704211598E+02 -0.18830103634E+03  0.20746311636E+03  0.47000000000E+01 0. -1.
<mgrwt>
<rscale>  0 0.28003235E+03</rscale>
<asrwt>0</asrwt>
<pdfrwt beam="1">  1        1 0.60925519E-01 0.28003235E+03</pdfrwt>
<pdfrwt beam="2">  1       -1 0.76160619E-02 0.28003235E+03</pdfrwt>
<totfact> 0.56718702E+03</totfact>
</mgrwt>
</event>
<event>
 9    1  0.8093459E-001  0.2767226E+03  0.7818608E-02  0.1097493E+00
         -2   -1    0    0    0  501 -0.00000000000E+00  0.00000000000E+00  0.63640606984E+02  0.63640606984E+02  0.00000000000E+00 0. -1.
          2   -1    0    0  501    0  0.00000000000E+00 -0.00000000000E+00 -0.30081195432E+03  0.30081195432E+03  0.00000000000E+00 0. -1.
         35    2    1    2    0    0  0.00000000000E+00  0.00000000000E+00 -0.23717134734E+03  0.36445256131E+03  0.27672264353E+03 0.  0.
         25    2    3    3    0    0  0.93508226865E+01  0.55785421853E+02 -0.14062354040E+03  0.19644123722E+03  0.12495890681E+03 0.  0.
         25    2    3    3    0    0 -0.93508226865E+01 -0.55785421853E+02 -0.96547806941E+02  0.16801132408E+03  0.12532707137E+03 0.  0.
          5    1    4    4  502    0 -0.40703105391E+02  0.21296118773E+02 -0.12535703215E+03  0.13359170248E+03  0.47000000000E+01 0. -1.
         -5    1    4    4    0  502  0.50053928077E+02  0.34489303081E+02 -0.15266508249E+02  0.62849534740E+02  0.47000000000E+01 0. -1.
          5    1    5    5  503    0  0.66354448423E+01 -0.79116468469E+02 -0.11048410851E+03  0.13613329110E+03  0.47000000000E+01 0. -1.
         -5    1    5    5    0  503 -0.15986267529E+02  0.23331046616E+02  0.13936301570E+02  0.31878032987E+02  0.47000000000E+01 0. -1.
<mgrwt>
<rscale>  0 0.27672264E+03</rscale>
<asrwt>0</asrwt>
<pdfrwt beam="1">  1        2 0.46278762E-01 0.27672264E+03</pdfrwt>
<pdfrwt beam="2">  1       -2 0.97908627E-02 0.27672264E+03</pdfrwt>
<totfact> 0.74297885E+03</totfact>
</mgrwt>
</event>
<event>
 9    1  0.8093459E-001  0.2749398E+03  0.7818608E-02  0.1098485E+00
          4   -1    0    0  501    0  0.00000000000E+00  0.00000000000E+00  0.62359117592E+03  0.62359117592E+03  0.00000000000E+00 0. -1.
         -4   -1    0    0    0  501 -0.00000000000E+00 -0.00000000000E+00 -0.30305060562E+02  0.30305060562E+02  0.00000000000E+00 0. -1.
         35    2    1    2    0    0  0.00000000000E+00 -0.71054273576E-14  0.59328611536E+03  0.65389623649E+03  0.27493976324E+03 0.  0.
         25    2    3    3    0    0 -0.85548344432E+01  0.36503022790E+02  0.40007178606E+03  0.42072727546E+03  0.12469302488E+03 0.  0.
         25    2    3    3    0    0  0.85548344432E+01 -0.36503022790E+02  0.19321432931E+03  0.23316896103E+03  0.12502132407E+03 0.  0.
          5    1    4    4  502    0  0.53450760862E+02 -0.69790009805E+01  0.17871666195E+03  0.18672821305E+03  0.47000000000E+01 0.  1.
         -5    1    4    4    0  502 -0.62005595305E+02  0.43482023771E+02  0.22135512410E+03  0.23399906241E+03  0.47000000000E+01 0.  1.
          5    1    5    5  503    0  0.51714014638E+02 -0.32078200493E+02  0.17595485880E+03  0.18624057719E+03  0.47000000000E+01 0. -1.
         -5    1    5    5    0  503 -0.43159180195E+02 -0.44248222969E+01  0.17259470511E+02  0.46928383840E+02  0.47000000000E+01 0. -1.
<mgrwt>
<rscale>  0 0.27493976E+03</rscale>
<asrwt>0</asrwt>
<pdfrwt beam="1">  1        4 0.95937095E-01 0.27493976E+03</pdfrwt>
<pdfrwt beam="2">  1       -4 0.46623175E-02 0.27493976E+03</pdfrwt>
<totfact> 0.47082943E+02</totfact>
</mgrwt>
</event>
<event>
 9    1  0.8093459E-001  0.2754881E+03  0.7818608E-02  0.1098179E+00
         -1   -1    0    0    0  501 -0.00000000000E+00  0.00000000000E+00  0.13520506393E+04  0.13520506393E+04  0.00000000000E+00 0.  1.
          1   -1    0    0  501    0  0.00000000000E+00 -0.00000000000E+00 -0.14033070341E+02  0.14033070341E+02  0.00000000000E+00 0.  1.
         35    2    1    2    0    0 -0.71054273576E-14 -0.71054273576E-14  0.13380175689E+04  0.13660837096E+04  0.27548808849E+03 0.  0.
         25    2    3    3    0    0 -0.44683373140E+02 -0.33722760434E+02  0.73251309741E+03  0.74534571901E+03  0.12582120074E+03 0.  0.
         25    2    3    3    0    0  0.44683373140E+02  0.33722760434E+02  0.60550447150E+03  0.62073799058E+03  0.12468423936E+03 0.  0.
          5    1    4    4  502    0 -0.86168506424E+02 -0.48194134009E+01  0.49145748488E+03  0.49899978726E+03  0.47000000000E+01 0. -1.
         -5    1    4    4    0  502  0.41485133284E+02 -0.28903347033E+02  0.24105561253E+03  0.24634593174E+03  0.47000000000E+01 0. -1.
          5    1    5    5  503    0  0.67024893316E+01 -0.20366655105E+02  0.15136141662E+02  0.26663022856E+02  0.47000000000E+01 0.  1.
         -5    1    5    5    0  503  0.37980883809E+02  0.54089415539E+02  0.59036832984E+03  0.59407496773E+03  0.47000000000E+01 0.  1.
<mgrwt>
<rscale>  0 0.27548809E+03</rscale>
<asrwt>0</asrwt>
<pdfrwt beam="1">  1        1 0.21589350E-02 0.27548809E+03</pdfrwt>
<pdfrwt beam="2">  1       -1 0.20800769E+00 0.27548809E+03</pdfrwt>
<totfact> 0.80184580E+02</totfact>
</mgrwt>
</event>
<event>
 9    1  0.8093459E-001  0.2666299E+03  0.7818608E-02  0.1103224E+00
         -1   -1    0    0    0  501 -0.00000000000E+00  0.00000000000E+00  0.43579423785E+02  0.43579423785E+02  0.00000000000E+00 0.  1.
          1   -1    0    0  501    0  0.00000000000E+00 -0.00000000000E+00 -0.40782726790E+03  0.40782726790E+03  0.00000000000E+00 0.  1.
         35    2    1    2    0    0  0.14210854715E-13  0.00000000000E+00 -0.36424784412E+03  0.45140669169E+03  0.26662991084E+03 0.  0.
         25    2    3    3    0    0  0.20663542252E+02 -0.34292718065E+02 -0.21505810658E+03  0.25232293915E+03  0.12575334558E+03 0.  0.
         25    2    3    3    0    0 -0.20663542252E+02  0.34292718065E+02 -0.14918973754E+03  0.19908375254E+03  0.12559375083E+03 0.  0.
          5    1    4    4  502    0 -0.50856317276E+02 -0.27939811394E+02 -0.11715191995E+03  0.13081918978E+03  0.47000000000E+01 0.  1.
         -5    1    4    4    0  502  0.71519859528E+02 -0.63529066708E+01 -0.97906186628E+02  0.12150374937E+03  0.47000000000E+01 0.  1.
          5    1    5    5  503    0 -0.53788018396E+02  0.50812543989E+02 -0.41181179438E+02  0.84811821638E+02  0.47000000000E+01 0. -1.
         -5    1    5    5    0  503  0.33124476144E+02 -0.16519825923E+02 -0.10800855810E+03  0.11427193090E+03  0.47000000000E+01 0. -1.
<mgrwt>
<rscale>  0 0.26662991E+03</rscale>
<asrwt>0</asrwt>
<pdfrwt beam="1">  1        1 0.62742656E-01 0.26662991E+03</pdfrwt>
<pdfrwt beam="2">  1       -1 0.67045268E-02 0.26662991E+03</pdfrwt>
<totfact> 0.66187128E+03</totfact>
</mgrwt>
</event>
<event>
 9    1  0.8093459E-001  0.2965775E+03  0.7818608E-02  0.1086964E+00
          1   -1    0    0  501    0  0.00000000000E+00  0.00000000000E+00  0.13884874825E+03  0.13884874825E+03  0.00000000000E+00 0.  1.
         -1   -1    0    0    0  501 -0.00000000000E+00 -0.00000000000E+00 -0.15837060637E+03  0.15837060637E+03  0.00000000000E+00 0.  1.
         35    2    1    2    0    0 -0.71054273576E-14 -0.14210854715E-13 -0.19521858116E+02  0.29721935462E+03  0.29657754773E+03 0.  0.
         25    2    3    3    0    0 -0.31879515072E+02  0.71207719876E+02 -0.30612313682E+02  0.14976089481E+03  0.12411433847E+03 0.  0.
         25    2    3    3    0    0  0.31879515072E+02 -0.71207719876E+02  0.11090455566E+02  0.14745845981E+03  0.12463609555E+03 0.  0.
          5    1    4    4  502    0  0.26302987315E+02  0.47998282974E+02  0.29895267899E+02  0.62541980724E+02  0.47000000000E+01 0. -1.
         -5    1    4    4    0  502 -0.58182502387E+02  0.23209436902E+02 -0.60507581581E+02  0.87218914085E+02  0.47000000000E+01 0. -1.
          5    1    5    5  503    0  0.45384396888E+02 -0.56636889566E+02  0.60111977015E+02  0.94355818693E+02  0.47000000000E+01 0.  1.
         -5    1    5    5    0  503 -0.13504881816E+02 -0.14570830311E+02 -0.49021521449E+02  0.53102641120E+02  0.47000000000E+01 0.  1.
<mgrwt>
<rscale>  0 0.29657755E+03</rscale>
<asrwt>0</asrwt>
<pdfrwt beam="1">  1        1 0.21361346E-01 0.29657755E+03</pdfrwt>
<pdfrwt beam="2">  1       -1 0.24364709E-01 0.29657755E+03</pdfrwt>
<totfact> 0.34003832E+03</totfact>
</mgrwt>
</event>
<event>
 9    1  0.8093459E-001  0.2854892E+03  0.7818608E-02  0.1092728E+00
         -2   -1    0    0    0  501 -0.00000000000E+00  0.00000000000E+00  0.26705691249E+03  0.26705691249E+03  0.00000000000E+00 0. -1.
          2   -1    0    0  501    0  0.00000000000E+00 -0.00000000000E+00 -0.76298423196E+02  0.76298423196E+02  0.00000000000E+00 0. -1.
         35    2    1    2    0    0  0.71054273576E-14 -0.14210854715E-13  0.19075848930E+03  0.34335533569E+03  0.28548920349E+03 0.  0.
         25    2    3    3    0    0  0.24412072672E+02 -0.63564864408E+02  0.84967141617E+02  0.16606147780E+03  0.12538164927E+03 0.  0.
         25    2    3    3    0    0 -0.24412072672E+02  0.63564864408E+02  0.10579134768E+03  0.17729385789E+03  0.12491942012E+03 0.  0.
          5    1    4    4  502    0  0.45477060196E+02  0.86649669323E+01  0.77381568870E+02  0.90295303626E+02  0.47000000000E+01 0.  1.
         -5    1    4    4    0  502 -0.21064987524E+02 -0.72229831341E+02  0.75855727461E+01  0.75766174173E+02  0.47000000000E+01 0.  1.
          5    1    5    5  503    0 -0.63753234786E+02 -0.18228185797E+01  0.62558115133E+02  0.89461753740E+02  0.47000000000E+01 0. -1.
         -5    1    5    5    0  503  0.39341162114E+02  0.65387682988E+02  0.43233232547E+02  0.87832104150E+02  0.47000000000E+01 0. -1.
<mgrwt>
<rscale>  0 0.28548920E+03</rscale>
<asrwt>0</asrwt>
<pdfrwt beam="1">  1        2 0.11738219E-01 0.28548920E+03</pdfrwt>
<pdfrwt beam="2">  1       -2 0.41085679E-01 0.28548920E+03</pdfrwt>
<totfact> 0.29631788E+03</totfact>
</mgrwt>
</event>
<event>
 9    1  0.8093459E-001  0.2828836E+03  0.7818608E-02  0.1094124E+00
         -2   -1    0    0    0  501 -0.00000000000E+00  0.00000000000E+00  0.23231657574E+02  0.23231657574E+02  0.00000000000E+00 0.  1.
          2   -1    0    0  501    0  0.00000000000E+00 -0.00000000000E+00 -0.86114339657E+03  0.86114339657E+03  0.00000000000E+00 0.  1.
         35    2    1    2    0    0  0.00000000000E+00  0.35527136788E-14 -0.83791173900E+03  0.88437505415E+03  0.28288364047E+03 0.  0.
         25    2    3    3    0    0 -0.21751854892E+02  0.14122777067E+02 -0.60819678457E+03  0.62145202494E+03  0.12500677787E+03 0.  0.
         25    2    3    3    0    0  0.21751854892E+02 -0.14122777067E+02 -0.22971495443E+03  0.26292302921E+03  0.12524760667E+03 0.  0.
          5    1    4    4  502    0  0.26092088987E+02 -0.18793191956E+00 -0.51442604682E+03  0.51510880411E+03  0.47000000000E+01 0.  1.
         -5    1    4    4    0  502 -0.47843943878E+02  0.14310708986E+02 -0.93770737750E+02  0.10634322083E+03  0.47000000000E+01 0.  1.
          5    1    5    5  503    0 -0.45732376322E+02 -0.33753024952E+02 -0.11360642387E+03  0.12711894619E+03  0.47000000000E+01 0. -1.
         -5    1    5    5    0  503  0.67484231213E+02  0.19630247886E+02 -0.11610853056E+03  0.13580408301E+03  0.47000000000E+01 0. -1.
<mgrwt>
<rscale>  0 0.28288364E+03</rscale>
<asrwt>0</asrwt>
<pdfrwt beam="1">  1        2 0.13248359E+00 0.28288364E+03</pdfrwt>
<pdfrwt beam="2">  1       -2 0.35741013E-02 0.28288364E+03</pdfrwt>
<totfact> 0.10477785E+04</totfact>
</mgrwt>
</event>
<event>
 9    1  0.8093459E-001  0.2754576E+03  0.7818608E-02  0.1098196E+00
         -2   -1    0    0    0  501 -0.00000000000E+00  0.00000000000E+00  0.31020761619E+02  0.31020761619E+02  0.00000000000E+00 0. -1.
          2   -1    0    0  501    0  0.00000000000E+00 -0.00000000000E+00 -0.61150099317E+03  0.61150099317E+03  0.00000000000E+00 0. -1.
         35    2    1    2    0    0  0.35527136788E-14  0.71054273576E-14 -0.58048023155E+03  0.64252175479E+03  0.27545763042E+03 0.  0.
         25    2    3    3    0    0  0.21223683271E+01 -0.56841812851E+02 -0.27160225721E+03  0.30451827365E+03  0.12541170889E+03 0.  0.
         25    2    3    3    0    0 -0.21223683271E+01  0.56841812851E+02 -0.30887797434E+03  0.33800348114E+03  0.12492099142E+03 0.  0.
          5    1    4    4  502    0  0.57359311986E+02 -0.50498937981E+02 -0.19701168998E+03  0.21136681243E+03  0.47000000000E+01 0.  1.
         -5    1    4    4    0  502 -0.55236943659E+02 -0.63428748695E+01 -0.74590567234E+02  0.93151461216E+02  0.47000000000E+01 0.  1.
          5    1    5    5  503    0  0.30354046585E+02  0.26090530368E+02 -0.18818060356E+02  0.44478009337E+02  0.47000000000E+01 0.  1.
         -5    1    5    5    0  503 -0.32476414912E+02  0.30751282483E+02 -0.29005991398E+03  0.29352547181E+03  0.47000000000E+01 0.  1.
<mgrwt>
<rscale>  0 0.27545763E+03</rscale>
<asrwt>0</asrwt>
<pdfrwt beam="1">  1        2 0.94077067E-01 0.27545763E+03</pdfrwt>
<pdfrwt beam="2">  1       -2 0.47724253E-02 0.27545763E+03</pdfrwt>
<totfact> 0.10325353E+04</totfact>
</mgrwt>
</event>
<event>
 9    1  0.8093459E-001  0.2560315E+03  0.7818608E-02  0.1109551E+00
         -1   -1    0    0    0  501 -0.00000000000E+00  0.00000000000E+00  0.74380419222E+01  0.74380419222E+01  0.00000000000E+00 0.  1.
          1   -1    0    0  501    0  0.00000000000E+00 -0.00000000000E+00 -0.22032715604E+04  0.22032715604E+04  0.00000000000E+00 0.  1.
         35    2    1    2    0    0  0.00000000000E+00 -0.35527136788E-14 -0.21958335184E+04  0.22107096023E+04  0.25603145301E+03 0.  0.
         25    2    3    3    0    0 -0.10551976053E+02  0.19471885626E+02 -0.94709613211E+03  0.95563938045E+03  0.12555892437E+03 0.  0.
         25    2    3    3    0    0  0.10551976053E+02 -0.19471885626E+02 -0.12487373863E+04  0.12550702218E+04  0.12395847360E+03 0.  0.
          5    1    4    4  502    0 -0.62013766225E+02 -0.32096213082E+01 -0.66788755336E+03  0.67078452785E+03  0.47000000000E+01 0.  1.
         -5    1    4    4    0  502  0.51461790172E+02  0.22681506934E+02 -0.27920857875E+03  0.28485485260E+03  0.47000000000E+01 0.  1.
          5    1    5    5  503    0  0.35519404821E+02 -0.60686291231E+02 -0.93120703334E+03  0.93386994973E+03  0.47000000000E+01 0.  1.
         -5    1    5    5    0  503 -0.24967428769E+02  0.41214405605E+02 -0.31753035299E+03  0.32120027210E+03  0.47000000000E+01 0.  1.
<mgrwt>
<rscale>  0 0.25603145E+03</rscale>
<asrwt>0</asrwt>
<pdfrwt beam="1">  1        1 0.33896514E+00 0.25603145E+03</pdfrwt>
<pdfrwt beam="2">  1       -1 0.11443132E-02 0.25603145E+03</pdfrwt>
<totfact> 0.38482077E+03</totfact>
</mgrwt>
</event>
<event>
 9    1  0.8093459E-001  0.2752839E+03  0.7818608E-02  0.1098293E+00
          2   -1    0    0  501    0  0.00000000000E+00  0.00000000000E+00  0.14731848971E+04  0.14731848971E+04  0.00000000000E+00 0.  1.
         -2   -1    0    0    0  501 -0.00000000000E+00 -0.00000000000E+00 -0.12860099929E+02  0.12860099929E+02  0.00000000000E+00 0.  1.
         35    2    1    2    0    0  0.00000000000E+00  0.00000000000E+00  0.14603247971E+04  0.14860449970E+04  0.27528388976E+03 0.  0.
         25    2    3    3    0    0 -0.43331368259E+01  0.47484621963E+02  0.57155679448E+03  0.58707784024E+03  0.12533816574E+03 0.  0.
         25    2    3    3    0    0  0.43331368259E+01 -0.47484621963E+02  0.88876800265E+03  0.89896715674E+03  0.12633218502E+03 0.  0.
          5    1    4    4  502    0  0.44883394862E+02  0.26694131217E+02  0.10414721892E+03  0.11660115344E+03  0.47000000000E+01 0.  1.
         -5    1    4    4    0  502 -0.49216531688E+02  0.20790490747E+02  0.46740957556E+03  0.47047668680E+03  0.47000000000E+01 0.  1.
          5    1    5    5  503    0  0.48926556165E+02 -0.53816727023E+02  0.31096215716E+03  0.31938941935E+03  0.47000000000E+01 0.  1.
         -5    1    5    5    0  503 -0.44593419339E+02  0.63321050598E+01  0.57780584548E+03  0.57957773739E+03  0.47000000000E+01 0.  1.
<mgrwt>
<rscale>  0 0.27528389E+03</rscale>
<asrwt>0</asrwt>
<pdfrwt beam="1">  1        2 0.22664370E+00 0.27528389E+03</pdfrwt>
<pdfrwt beam="2">  1       -2 0.19784781E-02 0.27528389E+03</pdfrwt>
<totfact> 0.11078614E+04</totfact>
</mgrwt>
</event>
<event>
 9    1  0.8093459E-001  0.2743572E+03  0.7818608E-02  0.1098811E+00
         -1   -1    0    0    0  501 -0.00000000000E+00  0.00000000000E+00  0.39322972196E+02  0.39322972196E+02  0.00000000000E+00 0. -1.
          1   -1    0    0  501    0  0.00000000000E+00 -0.00000000000E+00 -0.47854910584E+03  0.47854910584E+03  0.00000000000E+00 0. -1.
         35    2    1    2    0    0  0.35527136788E-14 -0.14210854715E-13 -0.43922613365E+03  0.51787207804E+03  0.27435723562E+03 0.  0.
         25    2    3    3    0    0  0.31908502918E+02 -0.32535566316E+02 -0.15740561015E+03  0.20593614443E+03  0.12472551400E+03 0.  0.
         25    2    3    3    0    0 -0.31908502918E+02  0.32535566316E+02 -0.28182052349E+03  0.31193593361E+03  0.12571596390E+03 0.  0.
          5    1    4    4  502    0 -0.43195738727E+02 -0.30892775653E+02 -0.91462633808E+02  0.10586660859E+03  0.47000000000E+01 0.  1.
         -5    1    4    4    0  502  0.75104241644E+02 -0.16427906626E+01 -0.65942976345E+02  0.10006953584E+03  0.47000000000E+01 0.  1.
          5    1    5    5  503    0 -0.29683037595E+02  0.17976950739E+02 -0.29156572525E+03  0.29366122593E+03  0.47000000000E+01 0.  1.
         -5    1    5    5    0  503 -0.22254653230E+01  0.14558615577E+02  0.97452017511E+01  0.18274707674E+02  0.47000000000E+01 0.  1.
<mgrwt>
<rscale>  0 0.27435724E+03</rscale>
<asrwt>0</asrwt>
<pdfrwt beam="1">  1        1 0.73622936E-01 0.27435724E+03</pdfrwt>
<pdfrwt beam="2">  1       -1 0.60496883E-02 0.27435724E+03</pdfrwt>
<totfact> 0.62859565E+03</totfact>
</mgrwt>
</event>
<event>
 9    1  0.8093459E-001  0.2763263E+03  0.7818608E-02  0.1097713E+00
         -3   -1    0    0    0  501 -0.00000000000E+00  0.00000000000E+00  0.79831355759E+02  0.79831355759E+02  0.00000000000E+00 0.  1.
          3   -1    0    0  501    0  0.00000000000E+00 -0.00000000000E+00 -0.23911719960E+03  0.23911719960E+03  0.00000000000E+00 0.  1.
         35    2    1    2    0    0 -0.17763568394E-14 -0.14210854715E-13 -0.15928584384E+03  0.31894855536E+03  0.27632625810E+03 0.  0.
         25    2    3    3    0    0 -0.63462370956E+01 -0.23880538643E+02 -0.18612340130E+02  0.12910402038E+03  0.12534302542E+03 0.  0.
         25    2    3    3    0    0  0.63462370956E+01  0.23880538643E+02 -0.14067350371E+03  0.18984453497E+03  0.12506541473E+03 0.  0.
          5    1    4    4  502    0  0.78036121328E+01  0.46267951660E+02 -0.30851215601E+02  0.56351638993E+02  0.47000000000E+01 0.  1.
         -5    1    4    4    0  502 -0.14149849228E+02 -0.70148490303E+02  0.12238875470E+02  0.72752381389E+02  0.47000000000E+01 0.  1.
          5    1    5    5  503    0  0.29769867895E+02  0.69628884168E+02 -0.83995489316E+02  0.11318903998E+03  0.47000000000E+01 0. -1.
         -5    1    5    5    0  503 -0.23423630800E+02 -0.45748345525E+02 -0.56678014393E+02  0.76655494999E+02  0.47000000000E+01 0. -1.
<mgrwt>
<rscale>  0 0.27632626E+03</rscale>
<asrwt>0</asrwt>
<pdfrwt beam="1">  1        3 0.36787262E-01 0.27632626E+03</pdfrwt>
<pdfrwt beam="2">  1       -3 0.12281747E-01 0.27632626E+03</pdfrwt>
<totfact> 0.97041766E+02</totfact>
</mgrwt>
</event>
<event>
 9    1  0.8093459E-001  0.2797555E+03  0.7818608E-02  0.1095823E+00
         -2   -1    0    0    0  501 -0.00000000000E+00  0.00000000000E+00  0.38251342980E+02  0.38251342980E+02  0.00000000000E+00 0. -1.
          2   -1    0    0  501    0  0.00000000000E+00 -0.00000000000E+00 -0.51150577531E+03  0.51150577531E+03  0.00000000000E+00 0. -1.
         35    2    1    2    0    0  0.00000000000E+00  0.00000000000E+00 -0.47325443233E+03  0.54975711829E+03  0.27975548501E+03 0.  0.
         25    2    3    3    0    0  0.27367869919E+02 -0.39705362537E+02 -0.15416276324E+03  0.20313541622E+03  0.12317598643E+03 0.  0.
         25    2    3    3    0    0 -0.27367869919E+02  0.39705362537E+02 -0.31909166909E+03  0.34662170208E+03  0.12649741084E+03 0.  0.
          5    1    4    4  502    0  0.68952662437E+02  0.51072093871E+01 -0.97702327187E+02  0.11978475689E+03  0.47000000000E+01 0. -1.
         -5    1    4    4    0  502 -0.41584792518E+02 -0.44812571924E+02 -0.56460436052E+02  0.83350659327E+02  0.47000000000E+01 0. -1.
          5    1    5    5  503    0  0.21839241454E+02  0.30283283809E+02 -0.18657876755E+02  0.42002810746E+02  0.47000000000E+01 0. -1.
         -5    1    5    5    0  503 -0.49207111373E+02  0.94220787273E+01 -0.30043379234E+03  0.30461889133E+03  0.47000000000E+01 0. -1.
<mgrwt>
<rscale>  0 0.27975549E+03</rscale>
<asrwt>0</asrwt>
<pdfrwt beam="1">  1        2 0.78693192E-01 0.27975549E+03</pdfrwt>
<pdfrwt beam="2">  1       -2 0.58848223E-02 0.27975549E+03</pdfrwt>
<totfact> 0.92076203E+03</totfact>
</mgrwt>
</event>
<event>
 9    1  0.8093459E-001  0.2761684E+03  0.7818608E-02  0.1097800E+00
          1   -1    0    0  501    0  0.00000000000E+00  0.00000000000E+00  0.12512105017E+03  0.12512105017E+03  0.00000000000E+00 0.  1.
         -1   -1    0    0    0  501 -0.00000000000E+00 -0.00000000000E+00 -0.15239042584E+03  0.15239042584E+03  0.00000000000E+00 0.  1.
         35    2    1    2    0    0  0.00000000000E+00 -0.71054273576E-14 -0.27269375663E+02  0.27751147601E+03  0.27616842772E+03 0.  0.
         25    2    3    3    0    0 -0.25582799452E+02 -0.50594954483E+02 -0.26662237773E+02  0.14034697379E+03  0.12558689853E+03 0.  0.
         25    2    3    3    0    0  0.25582799452E+02  0.50594954483E+02 -0.60713788935E+00  0.13716450222E+03  0.12489757005E+03 0.  0.
          5    1    4    4  502    0 -0.69793436801E+02 -0.15346629110E+02 -0.40047747430E+02  0.82052147563E+02  0.47000000000E+01 0. -1.
         -5    1    4    4    0  502  0.44210637349E+02 -0.35248325373E+02  0.13385509657E+02  0.58294826230E+02  0.47000000000E+01 0. -1.
          5    1    5    5  503    0  0.60418094664E+02  0.52766555543E+02 -0.35266386769E+02  0.87752285341E+02  0.47000000000E+01 0. -1.
         -5    1    5    5    0  503 -0.34835295213E+02 -0.21716010600E+01  0.34659248880E+02  0.49412216876E+02  0.47000000000E+01 0. -1.
<mgrwt>
<rscale>  0 0.27616843E+03</rscale>
<asrwt>0</asrwt>
<pdfrwt beam="1">  1        1 0.19249392E-01 0.27616843E+03</pdfrwt>
<pdfrwt beam="2">  1       -1 0.23444681E-01 0.27616843E+03</pdfrwt>
<totfact> 0.41372209E+03</totfact>
</mgrwt>
</event>
<event>
 9    1  0.8093459E-001  0.2842389E+03  0.7818608E-02  0.1093396E+00
          2   -1    0    0  501    0  0.00000000000E+00  0.00000000000E+00  0.10272331843E+02  0.10272331843E+02  0.00000000000E+00 0.  1.
         -2   -1    0    0    0  501 -0.00000000000E+00 -0.00000000000E+00 -0.19662466110E+04  0.19662466110E+04  0.00000000000E+00 0.  1.
         35    2    1    2    0    0  0.00000000000E+00  0.00000000000E+00 -0.19559742792E+04  0.19765189428E+04  0.28423889722E+03 0.  0.
         25    2    3    3    0    0 -0.17599454685E+02 -0.58436205227E+02 -0.83829240741E+03  0.85012202974E+03  0.12747067993E+03 0.  0.
         25    2    3    3    0    0  0.17599454685E+02  0.58436205227E+02 -0.11176818717E+04  0.11263969131E+04  0.12582809117E+03 0.  0.
          5    1    4    4  502    0 -0.52383869547E+02 -0.76735106416E+01 -0.64567399762E+03  0.64785797345E+03  0.47000000000E+01 0.  1.
         -5    1    4    4    0  502  0.34784414863E+02 -0.50762694586E+02 -0.19261840978E+03  0.20226405629E+03  0.47000000000E+01 0.  1.
          5    1    5    5  503    0 -0.17262631387E+02  0.81438934372E+02 -0.94508670978E+03  0.94875775490E+03  0.47000000000E+01 0.  1.
         -5    1    5    5    0  503  0.34862086072E+02 -0.23002729145E+02 -0.17259516197E+03  0.17763915820E+03  0.47000000000E+01 0.  1.
<mgrwt>
<rscale>  0 0.28423890E+03</rscale>
<asrwt>0</asrwt>
<pdfrwt beam="1">  1        2 0.15803568E-02 0.28423890E+03</pdfrwt>
<pdfrwt beam="2">  1       -2 0.30249984E+00 0.28423890E+03</pdfrwt>
<totfact> 0.26883230E+02</totfact>
</mgrwt>
</event>
<event>
 9    1  0.8093459E-001  0.2780028E+03  0.7818608E-02  0.1096785E+00
         -1   -1    0    0    0  501 -0.00000000000E+00  0.00000000000E+00  0.42537610678E+03  0.42537610678E+03  0.00000000000E+00 0.  1.
          1   -1    0    0  501    0  0.00000000000E+00 -0.00000000000E+00 -0.45421904224E+02  0.45421904224E+02  0.00000000000E+00 0.  1.
         35    2    1    2    0    0  0.00000000000E+00  0.71054273576E-14  0.37995420256E+03  0.47079801101E+03  0.27800282575E+03 0.  0.
         25    2    3    3    0    0 -0.43384099393E+01 -0.61055967268E+02  0.22144632227E+03  0.25997103101E+03  0.12165447127E+03 0.  0.
         25    2    3    3    0    0  0.43384099393E+01  0.61055967268E+02  0.15850788029E+03  0.21082697999E+03  0.12480630769E+03 0.  0.
          5    1    4    4  502    0  0.17700566743E+02 -0.77976643682E+02  0.21716734698E+03  0.23146795376E+03  0.47000000000E+01 0. -1.
         -5    1    4    4    0  502 -0.22038976682E+02  0.16920676415E+02  0.42789752914E+01  0.28503077256E+02  0.47000000000E+01 0. -1.
          5    1    5    5  503    0  0.35864432621E+02 -0.24736955884E+02  0.30189309421E+02  0.53213334015E+02  0.47000000000E+01 0. -1.
         -5    1    5    5    0  503 -0.31526022681E+02  0.85792923152E+02  0.12831857087E+03  0.15761364598E+03  0.47000000000E+01 0. -1.
<mgrwt>
<rscale>  0 0.27800283E+03</rscale>
<asrwt>0</asrwt>
<pdfrwt beam="1">  1        1 0.69879855E-02 0.27800283E+03</pdfrwt>
<pdfrwt beam="2">  1       -1 0.65442475E-01 0.27800283E+03</pdfrwt>
<totfact> 0.25613681E+03</totfact>
</mgrwt>
</event>
<event>
 9    1  0.8093459E-001  0.2753299E+03  0.7818608E-02  0.1098267E+00
         -3   -1    0    0    0  501 -0.00000000000E+00  0.00000000000E+00  0.88465125961E+03  0.88465125961E+03  0.00000000000E+00 0. -1.
          3   -1    0    0  501    0  0.00000000000E+00 -0.00000000000E+00 -0.21422727382E+02  0.21422727382E+02  0.00000000000E+00 0. -1.
         35    2    1    2    0    0 -0.71054273576E-14  0.00000000000E+00  0.86322853223E+03  0.90607398699E+03  0.27532993127E+03 0.  0.
         25    2    3    3    0    0  0.33752222284E+02 -0.36806394502E+02  0.53665692979E+03  0.55304049210E+03  0.12393224933E+03 0.  0.
         25    2    3    3    0    0 -0.33752222284E+02  0.36806394502E+02  0.32657160244E+03  0.35303349489E+03  0.12445767880E+03 0.  0.
          5    1    4    4  502    0  0.40178616825E+02  0.47103634698E+01  0.48308395104E+03  0.48479758923E+03  0.47000000000E+01 0.  1.
         -5    1    4    4    0  502 -0.64263945414E+01 -0.41516757972E+02  0.53572978749E+02  0.68242902865E+02  0.47000000000E+01 0.  1.
          5    1    5    5  503    0 -0.40428055896E+02 -0.23800547862E+01  0.22951596537E+02  0.46786302995E+02  0.47000000000E+01 0. -1.
         -5    1    5    5    0  503  0.66758336128E+01  0.39186449288E+02  0.30362000590E+03  0.30624719190E+03  0.47000000000E+01 0. -1.
<mgrwt>
<rscale>  0 0.27532993E+03</rscale>
<asrwt>0</asrwt>
<pdfrwt beam="1">  1        3 0.32958049E-02 0.27532993E+03</pdfrwt>
<pdfrwt beam="2">  1       -3 0.13610017E+00 0.27532993E+03</pdfrwt>
<totfact> 0.48627128E+02</totfact>
</mgrwt>
</event>
<event>
 9    1  0.8093459E-001  0.2763645E+03  0.7818608E-02  0.1097691E+00
         -1   -1    0    0    0  501 -0.00000000000E+00  0.00000000000E+00  0.44329641146E+03  0.44329641146E+03  0.00000000000E+00 0. -1.
          1   -1    0    0  501    0  0.00000000000E+00 -0.00000000000E+00 -0.43073521936E+02  0.43073521936E+02  0.00000000000E+00 0. -1.
         35    2    1    2    0    0  0.00000000000E+00  0.71054273576E-14  0.40022288952E+03  0.48636993340E+03  0.27636452524E+03 0.  0.
         25    2    3    3    0    0 -0.40885150372E+02 -0.28761058421E+02  0.14750379758E+03  0.19985106576E+03  0.12523691221E+03 0.  0.
         25    2    3    3    0    0  0.40885150372E+02  0.28761058421E+02  0.25271909194E+03  0.28651886764E+03  0.12540864435E+03 0.  0.
          5    1    4    4  502    0  0.16959442195E+02 -0.27873204857E+02 -0.79550410945E+01  0.33910336291E+02  0.47000000000E+01 0.  1.
         -5    1    4    4    0  502 -0.57844592567E+02 -0.88785356346E+00  0.15545883868E+03  0.16594072947E+03  0.47000000000E+01 0.  1.
          5    1    5    5  503    0  0.52593372498E+02 -0.38852395637E+02  0.13757743856E+03  0.15239820563E+03  0.47000000000E+01 0.  1.
         -5    1    5    5    0  503 -0.11708222126E+02  0.67613454057E+02  0.11514165338E+03  0.13412066201E+03  0.47000000000E+01 0.  1.
<mgrwt>
<rscale>  0 0.27636453E+03</rscale>
<asrwt>0</asrwt>
<pdfrwt beam="1">  1        1 0.66266960E-02 0.27636453E+03</pdfrwt>
<pdfrwt beam="2">  1       -1 0.68199445E-01 0.27636453E+03</pdfrwt>
<totfact> 0.25386141E+03</totfact>
</mgrwt>
</event>
<event>
 9    1  0.8093459E-001  0.2752938E+03  0.7818608E-02  0.1098288E+00
          2   -1    0    0  501    0  0.00000000000E+00  0.00000000000E+00  0.95811681425E+03  0.95811681425E+03  0.00000000000E+00 0.  1.
         -2   -1    0    0    0  501 -0.00000000000E+00 -0.00000000000E+00 -0.19774898340E+02  0.19774898340E+02  0.00000000000E+00 0.  1.
         35    2    1    2    0    0  0.00000000000E+00  0.00000000000E+00  0.93834191591E+03  0.97789171259E+03  0.27529375292E+03 0.  0.
         25    2    3    3    0    0 -0.37636231567E+02 -0.27175033279E+02  0.59065952618E+03  0.60575222425E+03  0.12610358028E+03 0.  0.
         25    2    3    3    0    0  0.37636231567E+02  0.27175033279E+02  0.34768238974E+03  0.37213948834E+03  0.12429716928E+03 0.  0.
          5    1    4    4  502    0  0.19627830418E+02 -0.19946947788E+02  0.27142562087E+02  0.39267558233E+02  0.47000000000E+01 0. -1.
         -5    1    4    4    0  502 -0.57264061984E+02 -0.72280854909E+01  0.56351696409E+03  0.56648466602E+03  0.47000000000E+01 0. -1.
          5    1    5    5  503    0 -0.22084166576E+02  0.48510811897E+02  0.24942291501E+03  0.25509780441E+03  0.47000000000E+01 0.  1.
         -5    1    5    5    0  503  0.59720398143E+02 -0.21335778618E+02  0.98259474725E+02  0.11704168393E+03  0.47000000000E+01 0.  1.
<mgrwt>
<rscale>  0 0.27529375E+03</rscale>
<asrwt>0</asrwt>
<pdfrwt beam="1">  1        2 0.14740255E+00 0.27529375E+03</pdfrwt>
<pdfrwt beam="2">  1       -2 0.30422928E-02 0.27529375E+03</pdfrwt>
<totfact> 0.11535526E+04</totfact>
</mgrwt>
</event>
<event>
 9    1  0.8093459E-001  0.2711303E+03  0.7818608E-02  0.1100634E+00
         -4   -1    0    0    0  501 -0.00000000000E+00  0.00000000000E+00  0.20745310145E+02  0.20745310145E+02  0.00000000000E+00 0.  1.
          4   -1    0    0  501    0  0.00000000000E+00 -0.00000000000E+00 -0.88588282706E+03  0.88588282706E+03  0.00000000000E+00 0.  1.
         35    2    1    2    0    0 -0.71054273576E-14 -0.35527136788E-14 -0.86513751691E+03  0.90662813720E+03  0.27113033028E+03 0.  0.
         25    2    3    3    0    0  0.44816988209E+02 -0.14945306341E+02 -0.51869586188E+03  0.53532606206E+03  0.12367971124E+03 0.  0.
         25    2    3    3    0    0 -0.44816988209E+02  0.14945306341E+02 -0.34644165504E+03  0.37130207515E+03  0.12494593252E+03 0.  0.
          5    1    4    4  502    0  0.50007534489E+02 -0.13752705517E+02 -0.73529828094E+02  0.90103363057E+02  0.47000000000E+01 0. -1.
         -5    1    4    4    0  502 -0.51905462801E+01 -0.11926008240E+01 -0.44516603379E+03  0.44522269900E+03  0.47000000000E+01 0. -1.
          5    1    5    5  503    0 -0.47385612711E+02 -0.38982216297E+02 -0.88908238320E+02  0.10812850836E+03  0.47000000000E+01 0. -1.
         -5    1    5    5    0  503  0.25686245028E+01  0.53927522639E+02 -0.25753341672E+03  0.26317356679E+03  0.47000000000E+01 0. -1.
<mgrwt>
<rscale>  0 0.27113033E+03</rscale>
<asrwt>0</asrwt>
<pdfrwt beam="1">  1        4 0.13628966E+00 0.27113033E+03</pdfrwt>
<pdfrwt beam="2">  1       -4 0.31915863E-02 0.27113033E+03</pdfrwt>
<totfact> 0.36930598E+02</totfact>
</mgrwt>
</event>
<event>
 9    1  0.8093459E-001  0.2702608E+03  0.7818608E-02  0.1101130E+00
          4   -1    0    0  501    0  0.00000000000E+00  0.00000000000E+00  0.12702502687E+03  0.12702502687E+03  0.00000000000E+00 0.  1.
         -4   -1    0    0    0  501 -0.00000000000E+00 -0.00000000000E+00 -0.14375293952E+03  0.14375293952E+03  0.00000000000E+00 0.  1.
         35    2    1    2    0    0  0.00000000000E+00  0.00000000000E+00 -0.16727912655E+02  0.27077796639E+03  0.27026077040E+03 0.  0.
         25    2    3    3    0    0 -0.19866731596E+02  0.25833553527E+02 -0.50629350973E+02  0.13915816784E+03  0.12545758242E+03 0.  0.
         25    2    3    3    0    0  0.19866731596E+02 -0.25833553527E+02  0.33901438318E+02  0.13161979854E+03  0.12293251944E+03 0.  0.
          5    1    4    4  502    0 -0.43599845676E+02  0.38262340987E+02 -0.80128254054E+02  0.99033228658E+02  0.47000000000E+01 0. -1.
         -5    1    4    4    0  502  0.23733114080E+02 -0.12428787460E+02  0.29498903081E+02  0.40124939185E+02  0.47000000000E+01 0. -1.
          5    1    5    5  503    0  0.82914716136E+00  0.47257549130E+02  0.29291650401E+02  0.55803711508E+02  0.47000000000E+01 0. -1.
         -5    1    5    5    0  503  0.19037584434E+02 -0.73091102657E+02  0.46097879169E+01  0.75816087036E+02  0.47000000000E+01 0. -1.
<mgrwt>
<rscale>  0 0.27026077E+03</rscale>
<asrwt>0</asrwt>
<pdfrwt beam="1">  1        4 0.19542312E-01 0.27026077E+03</pdfrwt>
<pdfrwt beam="2">  1       -4 0.22115837E-01 0.27026077E+03</pdfrwt>
<totfact> 0.82694796E+02</totfact>
</mgrwt>
</event>
<event>
 9    1  0.8093459E-001  0.2724934E+03  0.7818608E-02  0.1099861E+00
         -1   -1    0    0    0  501 -0.00000000000E+00  0.00000000000E+00  0.88432959326E+01  0.88432959326E+01  0.00000000000E+00 0.  1.
          1   -1    0    0  501    0  0.00000000000E+00 -0.00000000000E+00 -0.20991227076E+04  0.20991227076E+04  0.00000000000E+00 0.  1.
         35    2    1    2    0    0  0.00000000000E+00  0.00000000000E+00 -0.20902794117E+04  0.21079660035E+04  0.27249340030E+03 0.  0.
         25    2    3    3    0    0  0.44420816455E+02  0.90213685768E+01 -0.83465922781E+03  0.84533217020E+03  0.12599943406E+03 0.  0.
         25    2    3    3    0    0 -0.44420816455E+02 -0.90213685768E+01 -0.12556201838E+04  0.12626338333E+04  0.12493020826E+03 0.  0.
          5    1    4    4  502    0  0.17815249617E+02  0.27088733549E+02 -0.78678939376E+03  0.78747115677E+03  0.47000000000E+01 0.  1.
         -5    1    4    4    0  502  0.26605566839E+02 -0.18067364972E+02 -0.47869834045E+02  0.57861013432E+02  0.47000000000E+01 0.  1.
          5    1    5    5  503    0 -0.66316303472E+02 -0.32640754210E+02 -0.42706376645E+03  0.43343837112E+03  0.47000000000E+01 0.  1.
         -5    1    5    5    0  503  0.21895487017E+02  0.23619385634E+02 -0.82855641739E+03  0.82919546220E+03  0.47000000000E+01 0.  1.
<mgrwt>
<rscale>  0 0.27249340E+03</rscale>
<asrwt>0</asrwt>
<pdfrwt beam="1">  1        1 0.32294249E+00 0.27249340E+03</pdfrwt>
<pdfrwt beam="2">  1       -1 0.13605048E-02 0.27249340E+03</pdfrwt>
<totfact> 0.34992344E+03</totfact>
</mgrwt>
</event>
<event>
 9    1  0.8093459E-001  0.2718300E+03  0.7818608E-02  0.1100237E+00
          1   -1    0    0  501    0  0.00000000000E+00  0.00000000000E+00  0.57788928255E+02  0.57788928255E+02  0.00000000000E+00 0. -1.
         -1   -1    0    0    0  501 -0.00000000000E+00 -0.00000000000E+00 -0.31966135057E+03  0.31966135057E+03  0.00000000000E+00 0. -1.
         35    2    1    2    0    0 -0.71054273576E-14  0.35527136788E-14 -0.26187242231E+03  0.37745027882E+03  0.27182999727E+03 0.  0.
         25    2    3    3    0    0  0.39580452219E+02 -0.84034443005E+01 -0.85769377579E+02  0.15683026203E+03  0.12490842599E+03 0.  0.
         25    2    3    3    0    0 -0.39580452219E+02  0.84034443005E+01 -0.17610304474E+03  0.22062001680E+03  0.12658467274E+03 0.  0.
          5    1    4    4  502    0  0.70720563674E+02 -0.40731191695E+02 -0.73816140565E+02  0.11014236565E+03  0.47000000000E+01 0.  1.
         -5    1    4    4    0  502 -0.31140111456E+02  0.32327747395E+02 -0.11953237013E+02  0.46687896378E+02  0.47000000000E+01 0.  1.
          5    1    5    5  503    0 -0.69503036101E+02 -0.15393414600E+02 -0.16617459492E+03  0.18084168557E+03  0.47000000000E+01 0.  1.
         -5    1    5    5    0  503  0.29922583882E+02  0.23796858900E+02 -0.99284498115E+01  0.39778331229E+02  0.47000000000E+01 0.  1.
<mgrwt>
<rscale>  0 0.27183000E+03</rscale>
<asrwt>0</asrwt>
<pdfrwt beam="1">  1        1 0.88906044E-02 0.27183000E+03</pdfrwt>
<pdfrwt beam="2">  1       -1 0.49178669E-01 0.27183000E+03</pdfrwt>
<totfact> 0.31753984E+03</totfact>
</mgrwt>
</event>
<event>
 9    1  0.8093459E-001  0.2703288E+03  0.7818608E-02  0.1101092E+00
         -1   -1    0    0    0  501 -0.00000000000E+00  0.00000000000E+00  0.25033505715E+02  0.25033505715E+02  0.00000000000E+00 0.  1.
          1   -1    0    0  501    0  0.00000000000E+00 -0.00000000000E+00 -0.72979852393E+03  0.72979852393E+03  0.00000000000E+00 0.  1.
         35    2    1    2    0    0  0.35527136788E-14  0.00000000000E+00 -0.70476501821E+03  0.75483202964E+03  0.27032880364E+03 0.  0.
         25    2    3    3    0    0 -0.70729523812E+01  0.37371780882E+02 -0.25660375686E+03  0.28797196613E+03  0.12504274700E+03 0.  0.
         25    2    3    3    0    0  0.70729523812E+01 -0.37371780882E+02 -0.44816126135E+03  0.46686006351E+03  0.12515241136E+03 0.  0.
          5    1    4    4  502    0  0.56148633231E+02  0.24804350889E+01 -0.88353727722E+02  0.10482028799E+03  0.47000000000E+01 0. -1.
         -5    1    4    4    0  502 -0.63221585612E+02  0.34891345793E+02 -0.16825002914E+03  0.18315167814E+03  0.47000000000E+01 0. -1.
          5    1    5    5  503    0 -0.21290111408E+02  0.28196083175E+02 -0.30210746220E+03  0.30420272297E+03  0.47000000000E+01 0. -1.
         -5    1    5    5    0  503  0.28363063789E+02 -0.65567864057E+02 -0.14605379915E+03  0.16265734054E+03  0.47000000000E+01 0. -1.
<mgrwt>
<rscale>  0 0.27032880E+03</rscale>
<asrwt>0</asrwt>
<pdfrwt beam="1">  1        1 0.11227670E+00 0.27032880E+03</pdfrwt>
<pdfrwt beam="2">  1       -1 0.38513085E-02 0.27032880E+03</pdfrwt>
<totfact> 0.68740844E+03</totfact>
</mgrwt>
</event>
<event>
 9    1  0.8093459E-001  0.2670323E+03  0.7818608E-02  0.1102990E+00
          1   -1    0    0  501    0  0.00000000000E+00  0.00000000000E+00  0.38352789806E+03  0.38352789806E+03  0.00000000000E+00 0. -1.
         -1   -1    0    0    0  501 -0.00000000000E+00 -0.00000000000E+00 -0.46480480693E+02  0.46480480693E+02  0.00000000000E+00 0. -1.
         35    2    1    2    0    0  0.00000000000E+00  0.00000000000E+00  0.33704741737E+03  0.43000837875E+03  0.26703229064E+03 0.  0.
         25    2    3    3    0    0 -0.37744643633E+02 -0.17795213385E+02  0.13852167586E+03  0.19161582700E+03  0.12564649908E+03 0.  0.
         25    2    3    3    0    0  0.37744643633E+02  0.17795213385E+02  0.19852574151E+03  0.23839255175E+03  0.12520866962E+03 0.  0.
          5    1    4    4  502    0 -0.87438072136E+01  0.53262608545E+02  0.70809001056E+02  0.89159207400E+02  0.47000000000E+01 0. -1.
         -5    1    4    4    0  502 -0.29000836419E+02 -0.71057821930E+02  0.67712674802E+02  0.10245661960E+03  0.47000000000E+01 0. -1.
          5    1    5    5  503    0 -0.43566078749E+02 -0.81735838894E+01  0.88191891329E+02  0.98816549157E+02  0.47000000000E+01 0. -1.
         -5    1    5    5    0  503  0.81310722382E+02  0.25968797274E+02  0.11033385018E+03  0.13957600260E+03  0.47000000000E+01 0. -1.
<mgrwt>
<rscale>  0 0.26703229E+03</rscale>
<asrwt>0</asrwt>
<pdfrwt beam="1">  1        1 0.59004290E-01 0.26703229E+03</pdfrwt>
<pdfrwt beam="2">  1       -1 0.71508434E-02 0.26703229E+03</pdfrwt>
<totfact> 0.64938836E+03</totfact>
</mgrwt>
</event>
<event>
 9    1  0.8093459E-001  0.2889339E+03  0.7818608E-02  0.1090907E+00
         -1   -1    0    0    0  501 -0.00000000000E+00  0.00000000000E+00  0.27332221466E+02  0.27332221466E+02  0.00000000000E+00 0. -1.
          1   -1    0    0  501    0  0.00000000000E+00 -0.00000000000E+00 -0.76359320656E+03  0.76359320656E+03  0.00000000000E+00 0. -1.
         35    2    1    2    0    0  0.35527136788E-14 -0.71054273576E-14 -0.73626098509E+03  0.79092542802E+03  0.28893389300E+03 0.  0.
         25    2    3    3    0    0 -0.11776619348E+02 -0.42416881216E+02 -0.52519982992E+03  0.54169982771E+03  0.12516373846E+03 0.  0.
         25    2    3    3    0    0  0.11776619348E+02  0.42416881216E+02 -0.21106115517E+03  0.24922560031E+03  0.12501483132E+03 0.  0.
          5    1    4    4  502    0  0.46586912744E+02  0.38648273125E+01 -0.31832567255E+03  0.32177414616E+03  0.47000000000E+01 0.  1.
         -5    1    4    4    0  502 -0.58363532092E+02 -0.46281708529E+02 -0.20687415736E+03  0.21992568156E+03  0.47000000000E+01 0.  1.
          5    1    5    5  503    0  0.12525517995E+02 -0.28835896568E+02 -0.63498466619E+01  0.32416170109E+02  0.47000000000E+01 0. -1.
         -5    1    5    5    0  503 -0.74889864764E+00  0.71252777784E+02 -0.20471130851E+03  0.21680943020E+03  0.47000000000E+01 0. -1.
<mgrwt>
<rscale>  0 0.28893389E+03</rscale>
<asrwt>0</asrwt>
<pdfrwt beam="1">  1        1 0.11747587E+00 0.28893389E+03</pdfrwt>
<pdfrwt beam="2">  1       -1 0.42049575E-02 0.28893389E+03</pdfrwt>
<totfact> 0.56460015E+03</totfact>
</mgrwt>
</event>
<event>
 9    1  0.8093459E-001  0.2784017E+03  0.7818608E-02  0.1096565E+00
         -2   -1    0    0    0  501 -0.00000000000E+00  0.00000000000E+00  0.20369890400E+02  0.20369890400E+02  0.00000000000E+00 0. -1.
          2   -1    0    0  501    0  0.00000000000E+00 -0.00000000000E+00 -0.95125120794E+03  0.95125120794E+03  0.00000000000E+00 0. -1.
         35    2    1    2    0    0 -0.71054273576E-14  0.88817841970E-15 -0.93088131754E+03  0.97162109834E+03  0.27840174460E+03 0.  0.
         25    2    3    3    0    0 -0.46892115660E+02  0.26679750575E+01 -0.33331932432E+03  0.35927154101E+03  0.12557181057E+03 0.  0.
         25    2    3    3    0    0  0.46892115660E+02 -0.26679750575E+01 -0.59756199322E+03  0.61234955733E+03  0.12524238908E+03 0.  0.
          5    1    4    4  502    0 -0.11812930229E+02  0.63076456438E+01  0.78725659795E+01  0.16229572060E+02  0.47000000000E+01 0. -1.
         -5    1    4    4    0  502 -0.35079185431E+02 -0.36396705863E+01 -0.34119189030E+03  0.34304196895E+03  0.47000000000E+01 0. -1.
          5    1    5    5  503    0  0.30203429809E+02  0.52695498381E+00 -0.24933924720E+02  0.39450164204E+02  0.47000000000E+01 0. -1.
         -5    1    5    5    0  503  0.16688685850E+02 -0.31949300413E+01 -0.57262806850E+03  0.57289939313E+03  0.47000000000E+01 0. -1.
<mgrwt>
<rscale>  0 0.27840174E+03</rscale>
<asrwt>0</asrwt>
<pdfrwt beam="1">  1        2 0.14634632E+00 0.27840174E+03</pdfrwt>
<pdfrwt beam="2">  1       -2 0.31338297E-02 0.27840174E+03</pdfrwt>
<totfact> 0.11150957E+04</totfact>
</mgrwt>
</event>
<event>
 9    1  0.8093459E-001  0.2731438E+03  0.7818608E-02  0.1099494E+00
         -2   -1    0    0    0  501 -0.00000000000E+00  0.00000000000E+00  0.44551327227E+03  0.44551327227E+03  0.00000000000E+00 0.  1.
          2   -1    0    0  501    0  0.00000000000E+00 -0.00000000000E+00 -0.41866047649E+02  0.41866047649E+02  0.00000000000E+00 0.  1.
         35    2    1    2    0    0  0.00000000000E+00  0.00000000000E+00  0.40364722462E+03  0.48737931992E+03  0.27314377083E+03 0.  0.
         25    2    3    3    0    0  0.52524015003E+02  0.14405996100E+02  0.18162557740E+03  0.22684372914E+03  0.12451474696E+03 0.  0.
         25    2    3    3    0    0 -0.52524015003E+02 -0.14405996100E+02  0.22202164722E+03  0.26053559077E+03  0.12497550700E+03 0.  0.
          5    1    4    4  502    0 -0.29621558301E+02  0.38198723608E+02  0.49194948237E+02  0.69128952932E+02  0.47000000000E+01 0.  1.
         -5    1    4    4    0  502  0.82145573305E+02 -0.23792727508E+02  0.13243062916E+03  0.15771477621E+03  0.47000000000E+01 0.  1.
          5    1    5    5  503    0 -0.82372425793E+02  0.20609313342E+02  0.17506014205E+03  0.19462297825E+03  0.47000000000E+01 0.  1.
         -5    1    5    5    0  503  0.29848410789E+02 -0.35015309442E+02  0.46961505170E+02  0.65912612524E+02  0.47000000000E+01 0.  1.
<mgrwt>
<rscale>  0 0.27314377E+03</rscale>
<asrwt>0</asrwt>
<pdfrwt beam="1">  1        2 0.64409307E-02 0.27314377E+03</pdfrwt>
<pdfrwt beam="2">  1       -2 0.68540500E-01 0.27314377E+03</pdfrwt>
<totfact> 0.22407577E+03</totfact>
</mgrwt>
</event>
<event>
 9    1  0.8093459E-001  0.2643815E+03  0.7818608E-02  0.1104539E+00
          3   -1    0    0  501    0  0.00000000000E+00  0.00000000000E+00  0.21114325158E+03  0.21114325158E+03  0.00000000000E+00 0. -1.
         -3   -1    0    0    0  501 -0.00000000000E+00 -0.00000000000E+00 -0.82760861857E+02  0.82760861857E+02  0.00000000000E+00 0. -1.
         35    2    1    2    0    0  0.71054273576E-14  0.00000000000E+00  0.12838238972E+03  0.29390411343E+03  0.26438152338E+03 0.  0.
         25    2    3    3    0    0  0.86860057473E+01  0.39845292235E+02  0.73028558519E+02  0.15138691439E+03  0.12618135155E+03 0.  0.
         25    2    3    3    0    0 -0.86860057473E+01 -0.39845292235E+02  0.55353831200E+02  0.14251719905E+03  0.12483593788E+03 0.  0.
          5    1    4    4  502    0  0.45540479545E+02 -0.19428362541E+02 -0.71777286641E+00  0.49739338014E+02  0.47000000000E+01 0.  1.
         -5    1    4    4    0  502 -0.36854473798E+02  0.59273654775E+02  0.73746331385E+02  0.10164757637E+03  0.47000000000E+01 0.  1.
          5    1    5    5  503    0 -0.40761929101E+02 -0.55102146544E+02  0.74955254286E+02  0.10167675036E+03  0.47000000000E+01 0.  1.
         -5    1    5    5    0  503  0.32075923354E+02  0.15256854309E+02 -0.19601423086E+02  0.40840448693E+02  0.47000000000E+01 0.  1.
<mgrwt>
<rscale>  0 0.26438152E+03</rscale>
<asrwt>0</asrwt>
<pdfrwt beam="1">  1        3 0.32483577E-01 0.26438152E+03</pdfrwt>
<pdfrwt beam="2">  1       -3 0.12732440E-01 0.26438152E+03</pdfrwt>
<totfact> 0.11512421E+03</totfact>
</mgrwt>
</event>
<event>
 9    1  0.8093459E-001  0.2719870E+03  0.7818608E-02  0.1100148E+00
         -3   -1    0    0    0  501 -0.00000000000E+00  0.00000000000E+00  0.81401002546E+02  0.81401002546E+02  0.00000000000E+00 0.  1.
          3   -1    0    0  501    0  0.00000000000E+00 -0.00000000000E+00 -0.22719901400E+03  0.22719901400E+03  0.00000000000E+00 0.  1.
         35    2    1    2    0    0  0.14210854715E-13  0.00000000000E+00 -0.14579801145E+03  0.30860001654E+03  0.27198696672E+03 0.  0.
         25    2    3    3    0    0 -0.40001350352E+02  0.39158394534E+02 -0.88053008562E+02  0.16106581842E+03  0.12270035718E+03 0.  0.
         25    2    3    3    0    0  0.40001350352E+02 -0.39158394534E+02 -0.57745002891E+02  0.14753419813E+03  0.12368656502E+03 0.  0.
          5    1    4    4  502    0 -0.81309218000E+02  0.39769578753E+02 -0.44925242819E+02  0.10115916057E+03  0.47000000000E+01 0. -1.
         -5    1    4    4    0  502  0.41307867647E+02 -0.61118421878E+00 -0.43127765744E+02  0.59906657842E+02  0.47000000000E+01 0. -1.
          5    1    5    5  503    0  0.15487133378E+02  0.32214986086E+02  0.18183934363E+02  0.40378237923E+02  0.47000000000E+01 0.  1.
         -5    1    5    5    0  503  0.24514216975E+02 -0.71373380620E+02 -0.75928937254E+02  0.10715596021E+03  0.47000000000E+01 0.  1.
<mgrwt>
<rscale>  0 0.27198697E+03</rscale>
<asrwt>0</asrwt>
<pdfrwt beam="1">  1        3 0.34953694E-01 0.27198697E+03</pdfrwt>
<pdfrwt beam="2">  1       -3 0.12523231E-01 0.27198697E+03</pdfrwt>
<totfact> 0.10336383E+03</totfact>
</mgrwt>
</event>
<event>
 9    1  0.8093459E-001  0.2664037E+03  0.7818608E-02  0.1103356E+00
          2   -1    0    0  501    0  0.00000000000E+00  0.00000000000E+00  0.78274557987E+02  0.78274557987E+02  0.00000000000E+00 0.  1.
         -2   -1    0    0    0  501 -0.00000000000E+00 -0.00000000000E+00 -0.22667302577E+03  0.22667302577E+03  0.00000000000E+00 0.  1.
         35    2    1    2    0    0 -0.35527136788E-14 -0.35527136788E-14 -0.14839846778E+03  0.30494758375E+03  0.26640368540E+03 0.  0.
         25    2    3    3    0    0 -0.48398723888E+01  0.25945391188E+02 -0.11887292212E+03  0.17492458442E+03  0.12558364119E+03 0.  0.
         25    2    3    3    0    0  0.48398723888E+01 -0.25945391188E+02 -0.29525545662E+02  0.13002299933E+03  0.12384520507E+03 0.  0.
          5    1    4    4  502    0 -0.19743931540E+02  0.12836341883E+02  0.22008659833E+02  0.32574002106E+02  0.47000000000E+01 0.  1.
         -5    1    4    4    0  502  0.14904059151E+02  0.13109049306E+02 -0.14088158195E+03  0.14235058232E+03  0.47000000000E+01 0.  1.
          5    1    5    5  503    0  0.49066344373E+02 -0.72703038780E+01  0.26221971914E+02  0.56303155149E+02  0.47000000000E+01 0. -1.
         -5    1    5    5    0  503 -0.44226471985E+02 -0.18675087310E+02 -0.55747517576E+02  0.73719844181E+02  0.47000000000E+01 0. -1.
<mgrwt>
<rscale>  0 0.26640369E+03</rscale>
<asrwt>0</asrwt>
<pdfrwt beam="1">  1        2 0.12042240E-01 0.26640369E+03</pdfrwt>
<pdfrwt beam="2">  1       -2 0.34872773E-01 0.26640369E+03</pdfrwt>
<totfact> 0.39080166E+03</totfact>
</mgrwt>
</event>
<event>
 9    1  0.8093459E-001  0.2775822E+03  0.7818608E-02  0.1097017E+00
          4   -1    0    0  501    0  0.00000000000E+00  0.00000000000E+00  0.43110635592E+03  0.43110635592E+03  0.00000000000E+00 0. -1.
         -4   -1    0    0    0  501 -0.00000000000E+00 -0.00000000000E+00 -0.44682644106E+02  0.44682644106E+02  0.00000000000E+00 0. -1.
         35    2    1    2    0    0  0.00000000000E+00  0.35527136788E-14  0.38642371182E+03  0.47578900003E+03  0.27758221754E+03 0.  0.
         25    2    3    3    0    0  0.31989619228E+02 -0.45804620311E+01  0.10654172377E+03  0.16753045044E+03  0.12518385100E+03 0.  0.
         25    2    3    3    0    0 -0.31989619228E+02  0.45804620311E+01  0.27988198805E+03  0.30825854959E+03  0.12508033334E+03 0.  0.
          5    1    4    4  502    0  0.63790803637E+01  0.57949702549E+02  0.31469773300E+02  0.66417597994E+02  0.47000000000E+01 0.  1.
         -5    1    4    4    0  502  0.25610538864E+02 -0.62530164580E+02  0.75071950465E+02  0.10111285245E+03  0.47000000000E+01 0.  1.
          5    1    5    5  503    0 -0.79660196467E+02 -0.43894271293E+01  0.15999915850E+03  0.17884863627E+03  0.47000000000E+01 0.  1.
         -5    1    5    5    0  503  0.47670577240E+02  0.89698891604E+01  0.11988282955E+03  0.12940991332E+03  0.47000000000E+01 0.  1.
<mgrwt>
<rscale>  0 0.27758222E+03</rscale>
<asrwt>0</asrwt>
<pdfrwt beam="1">  1        4 0.66324052E-01 0.27758222E+03</pdfrwt>
<pdfrwt beam="2">  1       -4 0.68742533E-02 0.27758222E+03</pdfrwt>
<totfact> 0.57058896E+02</totfact>
</mgrwt>
</event>
<event>
 9    1  0.8093459E-001  0.2718834E+03  0.7818608E-02  0.1100207E+00
          1   -1    0    0  501    0  0.00000000000E+00  0.00000000000E+00  0.88483521092E+02  0.88483521092E+02  0.00000000000E+00 0.  1.
         -1   -1    0    0    0  501 -0.00000000000E+00 -0.00000000000E+00 -0.20885401952E+03  0.20885401952E+03  0.00000000000E+00 0.  1.
         35    2    1    2    0    0  0.00000000000E+00  0.00000000000E+00 -0.12037049843E+03  0.29733754061E+03  0.27188335029E+03 0.  0.
         25    2    3    3    0    0  0.31886949131E+02 -0.17201759634E+01 -0.10721412847E+03  0.16783846907E+03  0.12512052520E+03 0.  0.
         25    2    3    3    0    0 -0.31886949131E+02  0.17201759634E+01 -0.13156369961E+02  0.12949907155E+03  0.12480858516E+03 0.  0.
          5    1    4    4  502    0  0.26866797580E+02  0.18187013641E+02 -0.13159696415E+03  0.13561874226E+03  0.47000000000E+01 0. -1.
         -5    1    4    4    0  502  0.50201515511E+01 -0.19907189604E+02  0.24382835686E+02  0.32219726809E+02  0.47000000000E+01 0. -1.
          5    1    5    5  503    0 -0.55571188389E+02  0.32108282988E+02  0.30389085487E+02  0.71166602646E+02  0.47000000000E+01 0.  1.
         -5    1    5    5    0  503  0.23684239257E+02 -0.30388107025E+02 -0.43545455448E+02  0.58332468900E+02  0.47000000000E+01 0.  1.
<mgrwt>
<rscale>  0 0.27188335E+03</rscale>
<asrwt>0</asrwt>
<pdfrwt beam="1">  1        1 0.13612850E-01 0.27188335E+03</pdfrwt>
<pdfrwt beam="2">  1       -1 0.32131387E-01 0.27188335E+03</pdfrwt>
<totfact> 0.38253326E+03</totfact>
</mgrwt>
</event>
<event>
 9    1  0.8093459E-001  0.2876838E+03  0.7818608E-02  0.1091565E+00
          2   -1    0    0  501    0  0.00000000000E+00  0.00000000000E+00  0.28133518735E+04  0.28133518735E+04  0.00000000000E+00 0. -1.
         -2   -1    0    0    0  501 -0.00000000000E+00 -0.00000000000E+00 -0.73543911934E+01  0.73543911934E+01  0.00000000000E+00 0. -1.
         35    2    1    2    0    0  0.00000000000E+00  0.00000000000E+00  0.28059974823E+04  0.28207062647E+04  0.28768378642E+03 0.  0.
         25    2    3    3    0    0 -0.25190062769E+02  0.65025269222E+02  0.12230719124E+04  0.12313081572E+04  0.12390339026E+03 0.  0.
         25    2    3    3    0    0  0.25190062769E+02 -0.65025269222E+02  0.15829255699E+04  0.15893981076E+04  0.12518050738E+03 0.  0.
          5    1    4    4  502    0 -0.40045267847E+02  0.97655947553E+02  0.94823053061E+03  0.95409828463E+03  0.47000000000E+01 0.  1.
         -5    1    4    4    0  502  0.14855205078E+02 -0.32630678330E+02  0.27484138179E+03  0.27720987254E+03  0.47000000000E+01 0.  1.
          5    1    5    5  503    0 -0.47240038687E+02 -0.31364960547E+01  0.57888874563E+03  0.58084053636E+03  0.47000000000E+01 0. -1.
         -5    1    5    5    0  503  0.72430101456E+02 -0.61888773168E+02  0.10040368243E+04  0.10085575712E+04  0.47000000000E+01 0. -1.
<mgrwt>
<rscale>  0 0.28768379E+03</rscale>
<asrwt>0</asrwt>
<pdfrwt beam="1">  1        2 0.43282251E+00 0.28768379E+03</pdfrwt>
<pdfrwt beam="2">  1       -2 0.11314470E-02 0.28768379E+03</pdfrwt>
<totfact> 0.47654431E+03</totfact>
</mgrwt>
</event>
<event>
 9    1  0.8093459E-001  0.2830477E+03  0.7818608E-02  0.1094036E+00
          1   -1    0    0  501    0  0.00000000000E+00  0.00000000000E+00  0.29651908271E+03  0.29651908271E+03  0.00000000000E+00 0.  1.
         -1   -1    0    0    0  501 -0.00000000000E+00 -0.00000000000E+00 -0.67547094366E+02  0.67547094366E+02  0.00000000000E+00 0.  1.
         35    2    1    2    0    0  0.00000000000E+00  0.00000000000E+00  0.22897198834E+03  0.36406617708E+03  0.28304771655E+03 0.  0.
         25    2    3    3    0    0  0.31301601599E+02  0.26104350514E+02  0.18022969841E+03  0.22452014054E+03  0.12753557127E+03 0.  0.
         25    2    3    3    0    0 -0.31301601599E+02 -0.26104350514E+02  0.48742289935E+02  0.13954603654E+03  0.12424193377E+03 0.  0.
          5    1    4    4  502    0 -0.44737119862E+02 -0.14125679935E+02  0.74026939699E+02  0.87766864637E+02  0.47000000000E+01 0. -1.
         -5    1    4    4    0  502  0.76038721460E+02  0.40230030450E+02  0.10620275871E+03  0.13675327590E+03  0.47000000000E+01 0. -1.
          5    1    5    5  503    0 -0.46463587322E+02  0.20790027202E+01  0.81217693997E+02  0.93710143621E+02  0.47000000000E+01 0.  1.
         -5    1    5    5    0  503  0.15161985724E+02 -0.28183353235E+02 -0.32475404063E+02  0.45835892919E+02  0.47000000000E+01 0.  1.
<mgrwt>
<rscale>  0 0.28304772E+03</rscale>
<asrwt>0</asrwt>
<pdfrwt beam="1">  1        1 0.45618320E-01 0.28304772E+03</pdfrwt>
<pdfrwt beam="2">  1       -1 0.10391861E-01 0.28304772E+03</pdfrwt>
<totfact> 0.50793604E+03</totfact>
</mgrwt>
</event>
<event>
 9    1  0.8093459E-001  0.2833726E+03  0.7818608E-02  0.1093861E+00
         -2   -1    0    0    0  501 -0.00000000000E+00  0.00000000000E+00  0.56871910370E+01  0.56871910370E+01  0.00000000000E+00 0.  1.
          2   -1    0    0  501    0  0.00000000000E+00 -0.00000000000E+00 -0.35298628296E+04  0.35298628296E+04  0.00000000000E+00 0.  1.
         35    2    1    2    0    0 -0.71054273576E-14 -0.35527136788E-14 -0.35241756386E+04  0.35355500207E+04  0.28337257628E+03 0.  0.
         25    2    3    3    0    0 -0.62849761411E+02 -0.18326465432E+02 -0.16153114929E+04  0.16215634406E+04  0.12629655994E+03 0.  0.
         25    2    3    3    0    0  0.62849761411E+02  0.18326465432E+02 -0.19088641457E+04  0.19139865800E+04  0.12367841364E+03 0.  0.
          5    1    4    4  502    0 -0.43998206458E+02 -0.23858392746E+02 -0.20383920086E+03  0.20994660008E+03  0.47000000000E+01 0.  1.
         -5    1    4    4    0  502 -0.18851554953E+02  0.55319273135E+01 -0.14114722920E+04  0.14116168406E+04  0.47000000000E+01 0.  1.
          5    1    5    5  503    0  0.28351073826E+02  0.21170398066E+02 -0.17832007682E+04  0.17835579718E+04  0.47000000000E+01 0.  1.
         -5    1    5    5    0  503  0.34498687585E+02 -0.28439326341E+01 -0.12566337752E+03  0.13042860825E+03  0.47000000000E+01 0.  1.
<mgrwt>
<rscale>  0 0.28337258E+03</rscale>
<asrwt>0</asrwt>
<pdfrwt beam="1">  1        2 0.54305413E+00 0.28337258E+03</pdfrwt>
<pdfrwt beam="2">  1       -2 0.87495519E-03 0.28337258E+03</pdfrwt>
<totfact> 0.25047610E+03</totfact>
</mgrwt>
</event>
<event>
 9    1  0.8093459E-001  0.2727835E+03  0.7818608E-02  0.1099697E+00
          2   -1    0    0  501    0  0.00000000000E+00  0.00000000000E+00  0.10235550340E+03  0.10235550340E+03  0.00000000000E+00 0.  1.
         -2   -1    0    0    0  501 -0.00000000000E+00 -0.00000000000E+00 -0.18174601031E+03  0.18174601031E+03  0.00000000000E+00 0.  1.
         35    2    1    2    0    0  0.00000000000E+00  0.00000000000E+00 -0.79390506917E+02  0.28410151371E+03  0.27278346267E+03 0.  0.
         25    2    3    3    0    0  0.38850987621E+02 -0.35331218200E+02 -0.28688221784E+02  0.13953482440E+03  0.12605260383E+03 0.  0.
         25    2    3    3    0    0 -0.38850987621E+02  0.35331218200E+02 -0.50702285133E+02  0.14456668931E+03  0.12478426071E+03 0.  0.
          5    1    4    4  502    0  0.83724914395E+02 -0.36381481236E+02 -0.18283018337E+02  0.93219269612E+02  0.47000000000E+01 0. -1.
         -5    1    4    4    0  502 -0.44873926775E+02  0.10502630361E+01 -0.10405203448E+02  0.46315554789E+02  0.47000000000E+01 0. -1.
          5    1    5    5  503    0 -0.32063261439E+02 -0.19121858279E+02 -0.75353967955E+02  0.84225938313E+02  0.47000000000E+01 0. -1.
         -5    1    5    5    0  503 -0.67877261815E+01  0.54453076479E+02  0.24651682822E+02  0.60340750996E+02  0.47000000000E+01 0. -1.
<mgrwt>
<rscale>  0 0.27278346E+03</rscale>
<asrwt>0</asrwt>
<pdfrwt beam="1">  1        2 0.15747001E-01 0.27278346E+03</pdfrwt>
<pdfrwt beam="2">  1       -2 0.27960925E-01 0.27278346E+03</pdfrwt>
<totfact> 0.42482977E+03</totfact>
</mgrwt>
</event>
<event>
 9    1  0.8093459E-001  0.2716062E+03  0.7818608E-02  0.1100364E+00
          1   -1    0    0  501    0  0.00000000000E+00  0.00000000000E+00  0.18635200677E+04  0.18635200677E+04  0.00000000000E+00 0.  1.
         -1   -1    0    0    0  501 -0.00000000000E+00 -0.00000000000E+00 -0.98965842379E+01  0.98965842379E+01  0.00000000000E+00 0.  1.
         35    2    1    2    0    0 -0.35527136788E-14  0.00000000000E+00  0.18536234835E+04  0.18734166520E+04  0.27160621001E+03 0.  0.
         25    2    3    3    0    0 -0.90043269595E+01 -0.44621653898E+02  0.11133137545E+04  0.11212270012E+04  0.12494119517E+03 0.  0.
         25    2    3    3    0    0  0.90043269595E+01  0.44621653898E+02  0.74030972897E+03  0.75218965080E+03  0.12513435202E+03 0.  0.
          5    1    4    4  502    0 -0.19654896921E+02  0.35706892905E+02  0.19146208980E+03  0.19580888387E+03  0.47000000000E+01 0. -1.
         -5    1    4    4    0  502  0.10650569962E+02 -0.80328546803E+02  0.92185166472E+03  0.92541811730E+03  0.47000000000E+01 0. -1.
          5    1    5    5  503    0  0.34582502212E+02  0.69752198245E+02  0.28605704816E+03  0.29649965163E+03  0.47000000000E+01 0. -1.
         -5    1    5    5    0  503 -0.25578175253E+02 -0.25130544348E+02  0.45425268082E+03  0.45568999916E+03  0.47000000000E+01 0. -1.
<mgrwt>
<rscale>  0 0.27160621E+03</rscale>
<asrwt>0</asrwt>
<pdfrwt beam="1">  1        1 0.28669512E+00 0.27160621E+03</pdfrwt>
<pdfrwt beam="2">  1       -1 0.15225529E-02 0.27160621E+03</pdfrwt>
<totfact> 0.42254826E+03</totfact>
</mgrwt>
</event>
<event>
 9    1  0.8093459E-001  0.3179428E+03  0.7818608E-02  0.1076600E+00
          2   -1    0    0  501    0  0.00000000000E+00  0.00000000000E+00  0.91240934163E+03  0.91240934163E+03  0.00000000000E+00 0. -1.
         -2   -1    0    0    0  501 -0.00000000000E+00 -0.00000000000E+00 -0.27697997720E+02  0.27697997720E+02  0.00000000000E+00 0. -1.
         35    2    1    2    0    0  0.00000000000E+00 -0.35527136788E-14  0.88471134391E+03  0.94010733935E+03  0.31794283677E+03 0.  0.
         25    2    3    3    0    0  0.87581143122E+02  0.23210660817E+02  0.33038403151E+03  0.36471369503E+03  0.12511306749E+03 0.  0.
         25    2    3    3    0    0 -0.87581143122E+02 -0.23210660817E+02  0.55432731240E+03  0.57539364432E+03  0.12485946200E+03 0.  0.
          5    1    4    4  502    0  0.98173801200E+02 -0.16094554482E+02  0.29218403396E+03  0.30869196560E+03  0.47000000000E+01 0. -1.
         -5    1    4    4    0  502 -0.10592658078E+02  0.39305215299E+02  0.38199997554E+02  0.56021729427E+02  0.47000000000E+01 0. -1.
          5    1    5    5  503    0 -0.34876425077E+02  0.23873183999E+02  0.43163245468E+03  0.43372221510E+03  0.47000000000E+01 0. -1.
         -5    1    5    5    0  503 -0.52704718046E+02 -0.47083844815E+02  0.12269485772E+03  0.14167142922E+03  0.47000000000E+01 0. -1.
<mgrwt>
<rscale>  0 0.31794284E+03</rscale>
<asrwt>0</asrwt>
<pdfrwt beam="1">  1        2 0.14037065E+00 0.31794284E+03</pdfrwt>
<pdfrwt beam="2">  1       -2 0.42612311E-02 0.31794284E+03</pdfrwt>
<totfact> 0.74654240E+03</totfact>
</mgrwt>
</event>
<event>
 9    1  0.8093459E-001  0.2755104E+03  0.7818608E-02  0.1098167E+00
          1   -1    0    0  501    0  0.00000000000E+00  0.00000000000E+00  0.25778551948E+03  0.25778551948E+03  0.00000000000E+00 0. -1.
         -1   -1    0    0    0  501 -0.00000000000E+00 -0.00000000000E+00 -0.73613522419E+02  0.73613522419E+02  0.00000000000E+00 0. -1.
         35    2    1    2    0    0 -0.14210854715E-13  0.00000000000E+00  0.18417199706E+03  0.33139904190E+03  0.27551043623E+03 0.  0.
         25    2    3    3    0    0 -0.42846554476E+02 -0.88696572017E+01  0.13575803665E+03  0.19019558731E+03  0.12581581326E+03 0.  0.
         25    2    3    3    0    0  0.42846554476E+02  0.88696572017E+01  0.48413960410E+02  0.14120345459E+03  0.12521983061E+03 0.  0.
          5    1    4    4  502    0  0.45863551668E+00 -0.63159926661E+02  0.70688618235E+02  0.94912367109E+02  0.47000000000E+01 0. -1.
         -5    1    4    4    0  502 -0.43305189993E+02  0.54290269459E+02  0.65069418418E+02  0.95283220199E+02  0.47000000000E+01 0. -1.
          5    1    5    5  503    0  0.15730598929E+02  0.49713211968E+02 -0.20733279009E+02  0.56309981755E+02  0.47000000000E+01 0.  1.
         -5    1    5    5    0  503  0.27115955547E+02 -0.40843554766E+02  0.69147239418E+02  0.84893472837E+02  0.47000000000E+01 0.  1.
<mgrwt>
<rscale>  0 0.27551044E+03</rscale>
<asrwt>0</asrwt>
<pdfrwt beam="1">  1        1 0.39659310E-01 0.27551044E+03</pdfrwt>
<pdfrwt beam="2">  1       -1 0.11325157E-01 0.27551044E+03</pdfrwt>
<totfact> 0.52939379E+03</totfact>
</mgrwt>
</event>
<event>
 9    1  0.8093459E-001  0.2740269E+03  0.7818608E-02  0.1098997E+00
         -2   -1    0    0    0  501 -0.00000000000E+00  0.00000000000E+00  0.15318122178E+03  0.15318122178E+03  0.00000000000E+00 0. -1.
          2   -1    0    0  501    0  0.00000000000E+00 -0.00000000000E+00 -0.12255210083E+03  0.12255210083E+03  0.00000000000E+00 0. -1.
         35    2    1    2    0    0  0.71054273576E-14 -0.35527136788E-14  0.30629120950E+02  0.27573332260E+03  0.27402686391E+03 0.  0.
         25    2    3    3    0    0  0.29300696664E+02  0.80944033406E+01 -0.32348414644E+02  0.13385900881E+03  0.12628445715E+03 0.  0.
         25    2    3    3    0    0 -0.29300696664E+02 -0.80944033406E+01  0.62977535594E+02  0.14187431380E+03  0.12344270224E+03 0.  0.
          5    1    4    4  502    0  0.27827088058E+02  0.53342843491E+02  0.20848232018E+02  0.63847823454E+02  0.47000000000E+01 0. -1.
         -5    1    4    4    0  502  0.14736086065E+01 -0.45248440151E+02 -0.53196646662E+02  0.70011185352E+02  0.47000000000E+01 0. -1.
          5    1    5    5  503    0 -0.30254045677E+02  0.17980882249E+02 -0.29192793556E+02  0.45966603115E+02  0.47000000000E+01 0.  1.
         -5    1    5    5    0  503  0.95334901294E+00 -0.26075285589E+02  0.92170329150E+02  0.95907710683E+02  0.47000000000E+01 0.  1.
<mgrwt>
<rscale>  0 0.27402686E+03</rscale>
<asrwt>0</asrwt>
<pdfrwt beam="1">  1        2 0.18854169E-01 0.27402686E+03</pdfrwt>
<pdfrwt beam="2">  1       -2 0.23566342E-01 0.27402686E+03</pdfrwt>
<totfact> 0.46628630E+03</totfact>
</mgrwt>
</event>
<event>
 9    1  0.8093459E-001  0.2789118E+03  0.7818608E-02  0.1096285E+00
          2   -1    0    0  501    0  0.00000000000E+00  0.00000000000E+00  0.13364335173E+04  0.13364335173E+04  0.00000000000E+00 0. -1.
         -2   -1    0    0    0  501 -0.00000000000E+00 -0.00000000000E+00 -0.14552120379E+02  0.14552120379E+02  0.00000000000E+00 0. -1.
         35    2    1    2    0    0 -0.14210854715E-13 -0.71054273576E-14  0.13218813969E+04  0.13509856376E+04  0.27891175251E+03 0.  0.
         25    2    3    3    0    0  0.44646321460E+02  0.38328094094E+02  0.56630712084E+03  0.58296215030E+03  0.12521492224E+03 0.  0.
         25    2    3    3    0    0 -0.44646321460E+02 -0.38328094094E+02  0.75557427605E+03  0.76802348735E+03  0.12452009345E+03 0.  0.
          5    1    4    4  502    0 -0.34770689070E+02 -0.17164818044E+02  0.11855239266E+03  0.12482143888E+03  0.47000000000E+01 0.  1.
         -5    1    4    4    0  502  0.79417010530E+02  0.55492912138E+02  0.44775472818E+03  0.45814071143E+03  0.47000000000E+01 0.  1.
          5    1    5    5  503    0  0.23001653812E+02 -0.33268499072E+02  0.54978063442E+03  0.55128640931E+03  0.47000000000E+01 0. -1.
         -5    1    5    5    0  503 -0.67647975273E+02 -0.50595950218E+01  0.20579364163E+03  0.21673707804E+03  0.47000000000E+01 0. -1.
<mgrwt>
<rscale>  0 0.27891175E+03</rscale>
<asrwt>0</asrwt>
<pdfrwt beam="1">  1        2 0.20560506E+00 0.27891175E+03</pdfrwt>
<pdfrwt beam="2">  1       -2 0.22387888E-02 0.27891175E+03</pdfrwt>
<totfact> 0.10959035E+04</totfact>
</mgrwt>
</event>
<event>
 9    1  0.8093459E-001  0.2795829E+03  0.7818608E-02  0.1095917E+00
         -2   -1    0    0    0  501 -0.00000000000E+00  0.00000000000E+00  0.14308784527E+02  0.14308784527E+02  0.00000000000E+00 0. -1.
          2   -1    0    0  501    0  0.00000000000E+00 -0.00000000000E+00 -0.13657095987E+04  0.13657095987E+04  0.00000000000E+00 0. -1.
         35    2    1    2    0    0  0.00000000000E+00  0.00000000000E+00 -0.13514008142E+04  0.13800183833E+04  0.27958286339E+03 0.  0.
         25    2    3    3    0    0 -0.63716774383E+02 -0.31187490318E+01 -0.64971175295E+03  0.66441422942E+03  0.12349636595E+03 0.  0.
         25    2    3    3    0    0  0.63716774383E+02  0.31187490318E+01 -0.70168906126E+03  0.71560415384E+03  0.12510880214E+03 0.  0.
          5    1    4    4  502    0 -0.92674189980E+02  0.21882558192E+02 -0.53421212143E+03  0.54265277345E+03  0.47000000000E+01 0. -1.
         -5    1    4    4    0  502  0.28957415598E+02 -0.25001307224E+02 -0.11549963152E+03  0.12176145598E+03  0.47000000000E+01 0. -1.
          5    1    5    5  503    0  0.50450742142E+02 -0.89219520036E+01 -0.90250579889E+02  0.10388520482E+03  0.47000000000E+01 0. -1.
         -5    1    5    5    0  503  0.13266032241E+02  0.12040701035E+02 -0.61143848137E+03  0.61171894902E+03  0.47000000000E+01 0. -1.
<mgrwt>
<rscale>  0 0.27958286E+03</rscale>
<asrwt>0</asrwt>
<pdfrwt beam="1">  1        2 0.21010918E+00 0.27958286E+03</pdfrwt>
<pdfrwt beam="2">  1       -2 0.22013513E-02 0.27958286E+03</pdfrwt>
<totfact> 0.10828102E+04</totfact>
</mgrwt>
</event>
<event>
 9    1  0.8093459E-001  0.2649853E+03  0.7818608E-02  0.1104184E+00
         -1   -1    0    0    0  501 -0.00000000000E+00  0.00000000000E+00  0.28354743702E+02  0.28354743702E+02  0.00000000000E+00 0. -1.
          1   -1    0    0  501    0  0.00000000000E+00 -0.00000000000E+00 -0.61909593350E+03  0.61909593350E+03  0.00000000000E+00 0. -1.
         35    2    1    2    0    0  0.71054273576E-14  0.00000000000E+00 -0.59074118979E+03  0.64745067720E+03  0.26498533183E+03 0.  0.
         25    2    3    3    0    0 -0.30985111228E+02  0.31739378751E+02 -0.32412828513E+03  0.35002615940E+03  0.12446566499E+03 0.  0.
         25    2    3    3    0    0  0.30985111228E+02 -0.31739378751E+02 -0.26661290466E+03  0.29742451780E+03  0.12414281120E+03 0.  0.
          5    1    4    4  502    0  0.16534637800E+02  0.99897420880E+01  0.17425868280E+01  0.19957850661E+02  0.47000000000E+01 0. -1.
         -5    1    4    4    0  502 -0.47519749027E+02  0.21749636663E+02 -0.32587087196E+03  0.33006830874E+03  0.47000000000E+01 0. -1.
          5    1    5    5  503    0 -0.33938431009E+01  0.12446011823E+02  0.88209113045E+01  0.16319309346E+02  0.47000000000E+01 0. -1.
         -5    1    5    5    0  503  0.34378954329E+02 -0.44185390574E+02 -0.27543381597E+03  0.28110520845E+03  0.47000000000E+01 0. -1.
<mgrwt>
<rscale>  0 0.26498533E+03</rscale>
<asrwt>0</asrwt>
<pdfrwt beam="1">  1        1 0.95245526E-01 0.26498533E+03</pdfrwt>
<pdfrwt beam="2">  1       -1 0.43622683E-02 0.26498533E+03</pdfrwt>
<totfact> 0.72322391E+03</totfact>
</mgrwt>
</event>
<event>
 9    1  0.8093459E-001  0.2758679E+03  0.7818608E-02  0.1097967E+00
          2   -1    0    0  501    0  0.00000000000E+00  0.00000000000E+00  0.26747051119E+04  0.26747051119E+04  0.00000000000E+00 0. -1.
         -2   -1    0    0    0  501 -0.00000000000E+00 -0.00000000000E+00 -0.71132253382E+01  0.71132253382E+01  0.00000000000E+00 0. -1.
         35    2    1    2    0    0 -0.88817841970E-15  0.35527136788E-14  0.26675918866E+04  0.26818183372E+04  0.27586794068E+03 0.  0.
         25    2    3    3    0    0  0.29404783453E+01  0.28458997738E+02  0.84032485109E+03  0.85006970659E+03  0.12511630486E+03 0.  0.
         25    2    3    3    0    0 -0.29404783453E+01 -0.28458997738E+02  0.18272670355E+04  0.18317486306E+04  0.12481853222E+03 0.  0.
          5    1    4    4  502    0 -0.84499550253E+01  0.50992719723E+02  0.14059932264E+03  0.14987300868E+03  0.47000000000E+01 0.  1.
         -5    1    4    4    0  502  0.11390433371E+02 -0.22533721985E+02  0.69972552845E+03  0.70019669791E+03  0.47000000000E+01 0.  1.
          5    1    5    5  503    0 -0.95233136395E+01 -0.57679252975E+02  0.16964731097E+04  0.16974865807E+04  0.47000000000E+01 0. -1.
         -5    1    5    5    0  503  0.65828352942E+01  0.29220255236E+02  0.13079392579E+03  0.13426204996E+03  0.47000000000E+01 0. -1.
<mgrwt>
<rscale>  0 0.27586794E+03</rscale>
<asrwt>0</asrwt>
<pdfrwt beam="1">  1        2 0.41149229E+00 0.27586794E+03</pdfrwt>
<pdfrwt beam="2">  1       -2 0.10943445E-02 0.27586794E+03</pdfrwt>
<totfact> 0.59997685E+03</totfact>
</mgrwt>
</event>
<event>
 9    1  0.8093459E-001  0.2735699E+03  0.7818608E-02  0.1099254E+00
         -2   -1    0    0    0  501 -0.00000000000E+00  0.00000000000E+00  0.51034813396E+03  0.51034813396E+03  0.00000000000E+00 0.  1.
          2   -1    0    0  501    0  0.00000000000E+00 -0.00000000000E+00 -0.36661499530E+02  0.36661499530E+02  0.00000000000E+00 0.  1.
         35    2    1    2    0    0  0.35527136788E-14  0.00000000000E+00  0.47368663443E+03  0.54700963349E+03  0.27356993894E+03 0.  0.
         25    2    3    3    0    0 -0.31062123729E+02 -0.32412944330E+02  0.30694822905E+03  0.33394751574E+03  0.12364575795E+03 0.  0.
         25    2    3    3    0    0  0.31062123729E+02  0.32412944330E+02  0.16673840538E+03  0.21306211775E+03  0.12481312312E+03 0.  0.
          5    1    4    4  502    0 -0.52572457024E+02 -0.16390018578E+02  0.46924153117E+02  0.72501462691E+02  0.47000000000E+01 0. -1.
         -5    1    4    4    0  502  0.21510333295E+02 -0.16022925752E+02  0.26002407593E+03  0.26144605305E+03  0.47000000000E+01 0. -1.
          5    1    5    5  503    0  0.21762707617E+02 -0.13194258471E+02  0.16418277300E+03  0.16621003835E+03  0.47000000000E+01 0.  1.
         -5    1    5    5    0  503  0.92994161117E+01  0.45607202802E+02  0.25556323800E+01  0.46852079402E+02  0.47000000000E+01 0.  1.
<mgrwt>
<rscale>  0 0.27356994E+03</rscale>
<asrwt>0</asrwt>
<pdfrwt beam="1">  1        2 0.56402311E-02 0.27356994E+03</pdfrwt>
<pdfrwt beam="2">  1       -2 0.78515093E-01 0.27356994E+03</pdfrwt>
<totfact> 0.19855276E+03</totfact>
</mgrwt>
</event>
<event>
 9    1  0.8093459E-001  0.2772489E+03  0.7818608E-02  0.1097201E+00
          2   -1    0    0  501    0  0.00000000000E+00  0.00000000000E+00  0.19273989171E+02  0.19273989171E+02  0.00000000000E+00 0.  1.
         -2   -1    0    0    0  501 -0.00000000000E+00 -0.00000000000E+00 -0.99702961798E+03  0.99702961798E+03  0.00000000000E+00 0.  1.
         35    2    1    2    0    0 -0.71054273576E-14  0.00000000000E+00 -0.97775562881E+03  0.10163036071E+04  0.27724889944E+03 0.  0.
         25    2    3    3    0    0  0.32864404869E+02 -0.46181259136E+02 -0.57030438795E+03  0.58622997401E+03  0.12331143382E+03 0.  0.
         25    2    3    3    0    0 -0.32864404869E+02  0.46181259136E+02 -0.40745124085E+03  0.43007363314E+03  0.12543539549E+03 0.  0.
          5    1    4    4  502    0 -0.18218298613E+02 -0.74608853896E+02 -0.31127436469E+03  0.32064342749E+03  0.47000000000E+01 0. -1.
         -5    1    4    4    0  502  0.51082703482E+02  0.28427594761E+02 -0.25903002327E+03  0.26558654652E+03  0.47000000000E+01 0. -1.
          5    1    5    5  503    0 -0.48696839670E+01 -0.30449049657E+02 -0.25678548322E+03  0.25867302302E+03  0.47000000000E+01 0.  1.
         -5    1    5    5    0  503 -0.27994720902E+02  0.76630308792E+02 -0.15066575764E+03  0.17140061012E+03  0.47000000000E+01 0.  1.
<mgrwt>
<rscale>  0 0.27724890E+03</rscale>
<asrwt>0</asrwt>
<pdfrwt beam="1">  1        2 0.29652291E-02 0.27724890E+03</pdfrwt>
<pdfrwt beam="2">  1       -2 0.15338917E+00 0.27724890E+03</pdfrwt>
<totfact> 0.95296831E+02</totfact>
</mgrwt>
</event>
<event>
 9    1  0.8093459E-001  0.2789185E+03  0.7818608E-02  0.1096281E+00
          4   -1    0    0  501    0  0.00000000000E+00  0.00000000000E+00  0.54224096785E+03  0.54224096785E+03  0.00000000000E+00 0.  1.
         -4   -1    0    0    0  501 -0.00000000000E+00 -0.00000000000E+00 -0.35867604622E+02  0.35867604622E+02  0.00000000000E+00 0.  1.
         35    2    1    2    0    0  0.00000000000E+00 -0.17763568394E-14  0.50637336322E+03  0.57810857247E+03  0.27891851602E+03 0.  0.
         25    2    3    3    0    0  0.22505331599E+02 -0.10879103898E+02  0.36325480237E+03  0.38502279565E+03  0.12515453197E+03 0.  0.
         25    2    3    3    0    0 -0.22505331599E+02  0.10879103898E+02  0.14311856086E+03  0.19308577682E+03  0.12717841758E+03 0.  0.
          5    1    4    4  502    0 -0.29977989042E+02 -0.18547697518E+02  0.27193599343E+02  0.44769171932E+02  0.47000000000E+01 0. -1.
         -5    1    4    4    0  502  0.52483320641E+02  0.76685936201E+01  0.33606120302E+03  0.34025362371E+03  0.47000000000E+01 0. -1.
          5    1    5    5  503    0 -0.37674675510E+02 -0.38552895724E+02  0.12806565579E+03  0.13902736830E+03  0.47000000000E+01 0. -1.
         -5    1    5    5    0  503  0.15169343911E+02  0.49431999622E+02  0.15052905072E+02  0.54058408527E+02  0.47000000000E+01 0. -1.
<mgrwt>
<rscale>  0 0.27891852E+03</rscale>
<asrwt>0</asrwt>
<pdfrwt beam="1">  1        4 0.83421682E-01 0.27891852E+03</pdfrwt>
<pdfrwt beam="2">  1       -4 0.55180934E-02 0.27891852E+03</pdfrwt>
<totfact> 0.49384942E+02</totfact>
</mgrwt>
</event>
<event>
 9    1  0.8093459E-001  0.2754327E+03  0.7818608E-02  0.1098210E+00
          2   -1    0    0  501    0  0.00000000000E+00  0.00000000000E+00  0.24722482708E+02  0.24722482708E+02  0.00000000000E+00 0.  1.
         -2   -1    0    0    0  501 -0.00000000000E+00 -0.00000000000E+00 -0.76714747821E+03  0.76714747821E+03  0.00000000000E+00 0.  1.
         35    2    1    2    0    0  0.00000000000E+00  0.00000000000E+00 -0.74242499550E+03  0.79186996092E+03  0.27543267972E+03 0.  0.
         25    2    3    3    0    0 -0.32637713093E+02 -0.13218332534E+02 -0.24751972798E+03  0.28018408575E+03  0.12647988590E+03 0.  0.
         25    2    3    3    0    0  0.32637713093E+02  0.13218332534E+02 -0.49490526753E+03  0.51168587517E+03  0.12510502146E+03 0.  0.
          5    1    4    4  502    0 -0.45825664478E+02  0.44953368886E+02 -0.82407816437E+02  0.10456545849E+03  0.47000000000E+01 0. -1.
         -5    1    4    4    0  502  0.13187951385E+02 -0.58171701420E+02 -0.16511191154E+03  0.17561862726E+03  0.47000000000E+01 0. -1.
          5    1    5    5  503    0 -0.46846482636E+02  0.17483591015E+02 -0.18888520813E+03  0.19544815359E+03  0.47000000000E+01 0. -1.
         -5    1    5    5    0  503  0.79484195729E+02 -0.42652584813E+01 -0.30602005939E+03  0.31623772158E+03  0.47000000000E+01 0. -1.
<mgrwt>
<rscale>  0 0.27543268E+03</rscale>
<asrwt>0</asrwt>
<pdfrwt beam="1">  1        2 0.38034589E-02 0.27543268E+03</pdfrwt>
<pdfrwt beam="2">  1       -2 0.11802269E+00 0.27543268E+03</pdfrwt>
<totfact> 0.13117483E+03</totfact>
</mgrwt>
</event>
<event>
 9    1  0.8093459E-001  0.2680241E+03  0.7818608E-02  0.1102416E+00
          3   -1    0    0  501    0  0.00000000000E+00  0.00000000000E+00  0.40114132104E+03  0.40114132104E+03  0.00000000000E+00 0. -1.
         -3   -1    0    0    0  501 -0.00000000000E+00 -0.00000000000E+00 -0.44770340619E+02  0.44770340619E+02  0.00000000000E+00 0. -1.
         35    2    1    2    0    0  0.71054273576E-14  0.00000000000E+00  0.35637098042E+03  0.44591166166E+03  0.26802413010E+03 0.  0.
         25    2    3    3    0    0  0.53454932938E+02  0.11732390977E+01  0.16558601784E+03  0.21230744802E+03  0.12164257821E+03 0.  0.
         25    2    3    3    0    0 -0.53454932938E+02 -0.11732390977E+01  0.19078496258E+03  0.23360421364E+03  0.12374659729E+03 0.  0.
          5    1    4    4  502    0  0.42631420472E+02  0.39155510006E+02  0.16232504389E+03  0.17240099144E+03  0.47000000000E+01 0. -1.
         -5    1    4    4    0  502  0.10823512466E+02 -0.37982270908E+02  0.32609739514E+01  0.39906456577E+02  0.47000000000E+01 0. -1.
          5    1    5    5  503    0 -0.15109191313E+02  0.52136685630E+02  0.35742129028E+02  0.65162193319E+02  0.47000000000E+01 0. -1.
         -5    1    5    5    0  503 -0.38345741625E+02 -0.53309924728E+02  0.15504283355E+03  0.16844202032E+03  0.47000000000E+01 0. -1.
<mgrwt>
<rscale>  0 0.26802413E+03</rscale>
<asrwt>0</asrwt>
<pdfrwt beam="1">  1        3 0.61714047E-01 0.26802413E+03</pdfrwt>
<pdfrwt beam="2">  1       -3 0.68877450E-02 0.26802413E+03</pdfrwt>
<totfact> 0.89683688E+02</totfact>
</mgrwt>
</event>
<event>
 9    1  0.8093459E-001  0.2661205E+03  0.7818608E-02  0.1103521E+00
         -1   -1    0    0    0  501 -0.00000000000E+00  0.00000000000E+00  0.52279413481E+02  0.52279413481E+02  0.00000000000E+00 0.  1.
          1   -1    0    0  501    0  0.00000000000E+00 -0.00000000000E+00 -0.33866153912E+03  0.33866153912E+03  0.00000000000E+00 0.  1.
         35    2    1    2    0    0  0.35527136788E-14 -0.71054273576E-14 -0.28638212564E+03  0.39094095260E+03  0.26612047372E+03 0.  0.
         25    2    3    3    0    0  0.55220817329E+01 -0.41924193816E+02 -0.14653206176E+03  0.19777547137E+03  0.12591807073E+03 0.  0.
         25    2    3    3    0    0 -0.55220817329E+01  0.41924193816E+02 -0.13985006388E+03  0.19316548124E+03  0.12635953213E+03 0.  0.
          5    1    4    4  502    0 -0.46960237164E+02  0.10284358938E+02 -0.22570665486E+02  0.53315634234E+02  0.47000000000E+01 0.  1.
         -5    1    4    4    0  502  0.52482318897E+02 -0.52208552754E+02 -0.12396139628E+03  0.14445983713E+03  0.47000000000E+01 0.  1.
          5    1    5    5  503    0 -0.29152313032E+02  0.79380330589E+02 -0.67922495031E+02  0.10856633719E+03  0.47000000000E+01 0. -1.
         -5    1    5    5    0  503  0.23630231299E+02 -0.37456136773E+02 -0.71927568846E+02  0.84599144046E+02  0.47000000000E+01 0. -1.
<mgrwt>
<rscale>  0 0.26612047E+03</rscale>
<asrwt>0</asrwt>
<pdfrwt beam="1">  1        1 0.52101777E-01 0.26612047E+03</pdfrwt>
<pdfrwt beam="2">  1       -1 0.80429865E-02 0.26612047E+03</pdfrwt>
<totfact> 0.63579888E+03</totfact>
</mgrwt>
</event>
<event>
 9    1  0.8093459E-001  0.2758900E+03  0.7818608E-02  0.1097955E+00
          1   -1    0    0  501    0  0.00000000000E+00  0.00000000000E+00  0.12933784522E+04  0.12933784522E+04  0.00000000000E+00 0.  1.
         -1   -1    0    0    0  501 -0.00000000000E+00 -0.00000000000E+00 -0.14712491416E+02  0.14712491416E+02  0.00000000000E+00 0.  1.
         35    2    1    2    0    0  0.71054273576E-14  0.00000000000E+00  0.12786659607E+04  0.13080909436E+04  0.27588997354E+03 0.  0.
         25    2    3    3    0    0  0.22776857668E+02  0.53318013018E+02  0.56755104322E+03  0.58438066284E+03  0.12658979691E+03 0.  0.
         25    2    3    3    0    0 -0.22776857668E+02 -0.53318013018E+02  0.71111491753E+03  0.72371028074E+03  0.12128705110E+03 0.  0.
          5    1    4    4  502    0 -0.21930728759E+02 -0.16002117471E+02  0.30869639536E+02  0.41376917147E+02  0.47000000000E+01 0. -1.
         -5    1    4    4    0  502  0.44707586427E+02  0.69320130489E+02  0.53668140369E+03  0.54300374569E+03  0.47000000000E+01 0. -1.
          5    1    5    5  503    0 -0.24741230780E+02  0.35119210970E+02  0.30500493811E+03  0.30805127780E+03  0.47000000000E+01 0. -1.
         -5    1    5    5    0  503  0.19643731125E+01 -0.88437223988E+02  0.40610997941E+03  0.41565900294E+03  0.47000000000E+01 0. -1.
<mgrwt>
<rscale>  0 0.27588997E+03</rscale>
<asrwt>0</asrwt>
<pdfrwt beam="1">  1        1 0.19898121E+00 0.27588997E+03</pdfrwt>
<pdfrwt beam="2">  1       -1 0.22634612E-02 0.27588997E+03</pdfrwt>
<totfact> 0.56385948E+03</totfact>
</mgrwt>
</event>
<event>
 9    1  0.8093459E-001  0.2725095E+03  0.7818608E-02  0.1099852E+00
          2   -1    0    0  501    0  0.00000000000E+00  0.00000000000E+00  0.66300064468E+03  0.66300064468E+03  0.00000000000E+00 0. -1.
         -2   -1    0    0    0  501 -0.00000000000E+00 -0.00000000000E+00 -0.28002027356E+02  0.28002027356E+02  0.00000000000E+00 0. -1.
         35    2    1    2    0    0  0.35527136788E-14  0.00000000000E+00  0.63499861733E+03  0.69100267204E+03  0.27250953884E+03 0.  0.
         25    2    3    3    0    0 -0.12072876228E+02  0.22616214708E+02  0.19395274553E+03  0.23222362504E+03  0.12511153832E+03 0.  0.
         25    2    3    3    0    0  0.12072876228E+02 -0.22616214708E+02  0.44104587180E+03  0.45877904700E+03  0.12369116955E+03 0.  0.
          5    1    4    4  502    0  0.27272458789E+02 -0.39177617375E+02  0.11401582581E+03  0.12369466943E+03  0.47000000000E+01 0.  1.
         -5    1    4    4    0  502 -0.39345335017E+02  0.61793832084E+02  0.79936919725E+02  0.10852895561E+03  0.47000000000E+01 0.  1.
          5    1    5    5  503    0  0.27443535190E+02  0.95709975668E+00  0.42526013164E+03  0.42617171800E+03  0.47000000000E+01 0.  1.
         -5    1    5    5    0  503 -0.15370658961E+02 -0.23573314465E+02  0.15785740159E+02  0.32607328994E+02  0.47000000000E+01 0.  1.
<mgrwt>
<rscale>  0 0.27250954E+03</rscale>
<asrwt>0</asrwt>
<pdfrwt beam="1">  1        2 0.10200009E+00 0.27250954E+03</pdfrwt>
<pdfrwt beam="2">  1       -2 0.43080047E-02 0.27250954E+03</pdfrwt>
<totfact> 0.10953466E+04</totfact>
</mgrwt>
</event>
<event>
 9    1  0.8093459E-001  0.2743526E+03  0.7818608E-02  0.1098814E+00
         -2   -1    0    0    0  501 -0.00000000000E+00  0.00000000000E+00  0.54469573382E+02  0.54469573382E+02  0.00000000000E+00 0.  1.
          2   -1    0    0  501    0  0.00000000000E+00 -0.00000000000E+00 -0.34546520710E+03  0.34546520710E+03  0.00000000000E+00 0.  1.
         35    2    1    2    0    0 -0.17763568394E-14  0.00000000000E+00 -0.29099563372E+03  0.39993478048E+03  0.27435263767E+03 0.  0.
         25    2    3    3    0    0 -0.13166331657E+02 -0.10426159963E+02 -0.68617560966E+02  0.14352839246E+03  0.12493987622E+03 0.  0.
         25    2    3    3    0    0  0.13166331657E+02  0.10426159963E+02 -0.22237807275E+03  0.25640638802E+03  0.12653130631E+03 0.  0.
          5    1    4    4  502    0  0.37253015390E+00  0.46050141207E+02 -0.71515729250E+02  0.85190045276E+02  0.47000000000E+01 0. -1.
         -5    1    4    4    0  502 -0.13538861811E+02 -0.56476301170E+02  0.28981682834E+01  0.58338347186E+02  0.47000000000E+01 0. -1.
          5    1    5    5  503    0  0.54574018562E+02 -0.35771437615E+02 -0.11480547902E+03  0.13213745594E+03  0.47000000000E+01 0.  1.
         -5    1    5    5    0  503 -0.41407686905E+02  0.46197597577E+02 -0.10757259374E+03  0.12426893208E+03  0.47000000000E+01 0.  1.
<mgrwt>
<rscale>  0 0.27435264E+03</rscale>
<asrwt>0</asrwt>
<pdfrwt beam="1">  1        2 0.53148492E-01 0.27435264E+03</pdfrwt>
<pdfrwt beam="2">  1       -2 0.83799345E-02 0.27435264E+03</pdfrwt>
<totfact> 0.81787493E+03</totfact>
</mgrwt>
</event>
<event>
 9    1  0.8093459E-001  0.2751292E+03  0.7818608E-02  0.1098379E+00
          1   -1    0    0  501    0  0.00000000000E+00  0.00000000000E+00  0.75936715512E+02  0.75936715512E+02  0.00000000000E+00 0. -1.
         -1   -1    0    0    0  501 -0.00000000000E+00 -0.00000000000E+00 -0.24920782996E+03  0.24920782996E+03  0.00000000000E+00 0. -1.
         35    2    1    2    0    0  0.00000000000E+00  0.00000000000E+00 -0.17327111445E+03  0.32514454547E+03  0.27512923572E+03 0.  0.
         25    2    3    3    0    0 -0.38342764470E+02  0.40810956820E+02 -0.76261161013E+02  0.15702868187E+03  0.12532573744E+03 0.  0.
         25    2    3    3    0    0  0.38342764470E+02 -0.40810956820E+02 -0.97009953433E+02  0.16811586360E+03  0.12536471093E+03 0.  0.
          5    1    4    4  502    0  0.16610781145E+02  0.48583699034E+02 -0.86206372624E+02  0.10044860648E+03  0.47000000000E+01 0. -1.
         -5    1    4    4    0  502 -0.54953545615E+02 -0.77727422141E+01  0.99452116107E+01  0.56580075391E+02  0.47000000000E+01 0. -1.
          5    1    5    5  503    0 -0.49278515796E+01 -0.78626535962E+02 -0.64491810007E+02  0.10192006395E+03  0.47000000000E+01 0. -1.
         -5    1    5    5    0  503  0.43270616050E+02  0.37815579141E+02 -0.32518143426E+02  0.66195799648E+02  0.47000000000E+01 0. -1.
<mgrwt>
<rscale>  0 0.27512924E+03</rscale>
<asrwt>0</asrwt>
<pdfrwt beam="1">  1        1 0.11682571E-01 0.27512924E+03</pdfrwt>
<pdfrwt beam="2">  1       -1 0.38339667E-01 0.27512924E+03</pdfrwt>
<totfact> 0.34473942E+03</totfact>
</mgrwt>
</event>
<event>
 9    1  0.8093459E-001  0.2799942E+03  0.7818608E-02  0.1095692E+00
         -2   -1    0    0    0  501 -0.00000000000E+00  0.00000000000E+00  0.96282215245E+01  0.96282215245E+01  0.00000000000E+00 0.  1.
          2   -1    0    0  501    0  0.00000000000E+00 -0.00000000000E+00 -0.20355980177E+04  0.20355980177E+04  0.00000000000E+00 0.  1.
         35    2    1    2    0    0  0.35527136788E-14  0.00000000000E+00 -0.20259697962E+04  0.20452262392E+04  0.27999420458E+03 0.  0.
         25    2    3    3    0    0  0.13084202853E+02 -0.47420060331E+02 -0.72610232049E+03  0.73845957675E+03  0.12521225255E+03 0.  0.
         25    2    3    3    0    0 -0.13084202853E+02  0.47420060331E+02 -0.12998674757E+04  0.13067666625E+04  0.12475494909E+03 0.  0.
          5    1    4    4  502    0  0.68642659023E+02 -0.33665210563E+02 -0.44614067546E+03  0.45266848062E+03  0.47000000000E+01 0.  1.
         -5    1    4    4    0  502 -0.55558456170E+02 -0.13754849768E+02 -0.27996164503E+03  0.28579109613E+03  0.47000000000E+01 0.  1.
          5    1    5    5  503    0 -0.22713480515E+02  0.58515155163E+02 -0.12803207563E+04  0.12818670971E+04  0.47000000000E+01 0.  1.
         -5    1    5    5    0  503  0.96292776626E+01 -0.11095094832E+02 -0.19546719378E+02  0.24899565380E+02  0.47000000000E+01 0.  1.
<mgrwt>
<rscale>  0 0.27999420E+03</rscale>
<asrwt>0</asrwt>
<pdfrwt beam="1">  1        2 0.31316882E+00 0.27999420E+03</pdfrwt>
<pdfrwt beam="2">  1       -2 0.14812653E-02 0.27999420E+03</pdfrwt>
<totfact> 0.85522658E+03</totfact>
</mgrwt>
</event>
<event>
 9    1  0.8093459E-001  0.2718378E+03  0.7818608E-02  0.1100232E+00
         -1   -1    0    0    0  501 -0.00000000000E+00  0.00000000000E+00  0.11560696427E+03  0.11560696427E+03  0.00000000000E+00 0.  1.
          1   -1    0    0  501    0  0.00000000000E+00 -0.00000000000E+00 -0.15979958665E+03  0.15979958665E+03  0.00000000000E+00 0.  1.
         35    2    1    2    0    0  0.17763568394E-14  0.00000000000E+00 -0.44192622384E+02  0.27540655092E+03  0.27183778328E+03 0.  0.
         25    2    3    3    0    0 -0.15329111153E+02  0.42517514675E+02 -0.51683786656E+02  0.14144836305E+03  0.12366771974E+03 0.  0.
         25    2    3    3    0    0  0.15329111153E+02 -0.42517514675E+02  0.74911642724E+01  0.13395818787E+03  0.12588072867E+03 0.  0.
          5    1    4    4  502    0 -0.57628081825E+02 -0.96168688299E+01 -0.35773218316E+01  0.58722799767E+02  0.47000000000E+01 0. -1.
         -5    1    4    4    0  502  0.42298970673E+02  0.52134383505E+02 -0.48106464825E+02  0.82725563288E+02  0.47000000000E+01 0. -1.
          5    1    5    5  503    0 -0.74323535126E+01 -0.72971465211E+02 -0.30892662786E+02  0.79727794575E+02  0.47000000000E+01 0.  1.
         -5    1    5    5    0  503  0.22761464665E+02  0.30453950536E+02  0.38383827059E+02  0.54230393292E+02  0.47000000000E+01 0.  1.
<mgrwt>
<rscale>  0 0.27183778E+03</rscale>
<asrwt>0</asrwt>
<pdfrwt beam="1">  1        1 0.24584552E-01 0.27183778E+03</pdfrwt>
<pdfrwt beam="2">  1       -1 0.17785687E-01 0.27183778E+03</pdfrwt>
<totfact> 0.47393102E+03</totfact>
</mgrwt>
</event>
<event>
 9    1  0.8093459E-001  0.2710240E+03  0.7818608E-02  0.1100695E+00
          1   -1    0    0  501    0  0.00000000000E+00  0.00000000000E+00  0.35221583542E+03  0.35221583542E+03  0.00000000000E+00 0.  1.
         -1   -1    0    0    0  501 -0.00000000000E+00 -0.00000000000E+00 -0.52137054394E+02  0.52137054394E+02  0.00000000000E+00 0.  1.
         35    2    1    2    0    0 -0.71054273576E-14  0.71054273576E-14  0.30007878103E+03  0.40435288982E+03  0.27102395591E+03 0.  0.
         25    2    3    3    0    0 -0.46262244054E+02 -0.17245177733E+02  0.19577400377E+03  0.23636396307E+03  0.12289373908E+03 0.  0.
         25    2    3    3    0    0  0.46262244054E+02  0.17245177733E+02  0.10430477726E+03  0.16798892675E+03  0.12207866960E+03 0.  0.
          5    1    4    4  502    0 -0.39798349252E+02  0.50358764051E+02  0.93899256938E+02  0.11383792941E+03  0.47000000000E+01 0. -1.
         -5    1    4    4    0  502 -0.64638948020E+01 -0.67603941784E+02  0.10187474683E+03  0.12252603365E+03  0.47000000000E+01 0. -1.
          5    1    5    5  503    0  0.54146708138E+02 -0.28411747086E+02  0.90943208899E+01  0.61999113277E+02  0.47000000000E+01 0.  1.
         -5    1    5    5    0  503 -0.78844640837E+01  0.45656924819E+02  0.95210456369E+02  0.10598981347E+03  0.47000000000E+01 0.  1.
<mgrwt>
<rscale>  0 0.27102396E+03</rscale>
<asrwt>0</asrwt>
<pdfrwt beam="1">  1        1 0.54187050E-01 0.27102396E+03</pdfrwt>
<pdfrwt beam="2">  1       -1 0.80210855E-02 0.27102396E+03</pdfrwt>
<totfact> 0.60788390E+03</totfact>
</mgrwt>
</event>
<event>
 9    1  0.8093459E-001  0.2749112E+03  0.7818608E-02  0.1098501E+00
          2   -1    0    0  501    0  0.00000000000E+00  0.00000000000E+00  0.56589653896E+03  0.56589653896E+03  0.00000000000E+00 0. -1.
         -2   -1    0    0    0  501 -0.00000000000E+00 -0.00000000000E+00 -0.33387799544E+02  0.33387799544E+02  0.00000000000E+00 0. -1.
         35    2    1    2    0    0 -0.71054273576E-14  0.00000000000E+00  0.53250873941E+03  0.59928433850E+03  0.27491118715E+03 0.  0.
         25    2    3    3    0    0 -0.20107179661E+02 -0.50992827291E+02  0.30705841436E+03  0.33607392451E+03  0.12512492077E+03 0.  0.
         25    2    3    3    0    0  0.20107179661E+02  0.50992827291E+02  0.22545032506E+03  0.26321041400E+03  0.12428719105E+03 0.  0.
          5    1    4    4  502    0 -0.72553814983E+01  0.33573578878E+02  0.29257394974E+02  0.45364203069E+02  0.47000000000E+01 0.  1.
         -5    1    4    4    0  502 -0.12851798163E+02 -0.84566406169E+02  0.27780101938E+03  0.29070972144E+03  0.47000000000E+01 0.  1.
          5    1    5    5  503    0 -0.15776116683E+02  0.74978044647E+02  0.19667211479E+03  0.21112224841E+03  0.47000000000E+01 0.  1.
         -5    1    5    5    0  503  0.35883296344E+02 -0.23985217356E+02  0.28778210266E+02  0.52088165587E+02  0.47000000000E+01 0.  1.
<mgrwt>
<rscale>  0 0.27491119E+03</rscale>
<asrwt>0</asrwt>
<pdfrwt beam="1">  1        2 0.87060999E-01 0.27491119E+03</pdfrwt>
<pdfrwt beam="2">  1       -2 0.51365850E-02 0.27491119E+03</pdfrwt>
<totfact> 0.10099004E+04</totfact>
</mgrwt>
</event>
<event>
 9    1  0.8093459E-001  0.2767470E+03  0.7818608E-02  0.1097479E+00
          2   -1    0    0  501    0  0.00000000000E+00  0.00000000000E+00  0.24017086315E+04  0.24017086315E+04  0.00000000000E+00 0.  1.
         -2   -1    0    0    0  501 -0.00000000000E+00 -0.00000000000E+00 -0.79723369196E+01  0.79723369196E+01  0.00000000000E+00 0.  1.
         35    2    1    2    0    0  0.71054273576E-14  0.00000000000E+00  0.23937362946E+04  0.24096809684E+04  0.27674703534E+03 0.  0.
         25    2    3    3    0    0 -0.44113842403E+02 -0.30703262312E+02  0.14208916387E+04  0.14273737002E+04  0.12479547058E+03 0.  0.
         25    2    3    3    0    0  0.44113842403E+02  0.30703262312E+02  0.97284465583E+03  0.98230726824E+03  0.12494848322E+03 0.  0.
          5    1    4    4  502    0 -0.70346611650E+02  0.24927431077E+01  0.44529622036E+03  0.45084994555E+03  0.47000000000E+01 0.  1.
         -5    1    4    4    0  502  0.26232769247E+02 -0.33196005420E+02  0.97559541838E+03  0.97652375461E+03  0.47000000000E+01 0.  1.
          5    1    5    5  503    0  0.42707610309E+01  0.70125689420E+02  0.71165695446E+03  0.71513184976E+03  0.47000000000E+01 0. -1.
         -5    1    5    5    0  503  0.39843081372E+02 -0.39422427108E+02  0.26118770137E+03  0.26717541848E+03  0.47000000000E+01 0. -1.
<mgrwt>
<rscale>  0 0.27674704E+03</rscale>
<asrwt>0</asrwt>
<pdfrwt beam="1">  1        2 0.36949306E+00 0.27674704E+03</pdfrwt>
<pdfrwt beam="2">  1       -2 0.12265153E-02 0.27674704E+03</pdfrwt>
<totfact> 0.71853716E+03</totfact>
</mgrwt>
</event>
<event>
 9    1  0.8093459E-001  0.3122716E+03  0.7818608E-02  0.1079262E+00
         -1   -1    0    0    0  501 -0.00000000000E+00  0.00000000000E+00  0.17911002913E+02  0.17911002913E+02  0.00000000000E+00 0.  1.
          1   -1    0    0  501    0  0.00000000000E+00 -0.00000000000E+00 -0.13610846057E+04  0.13610846057E+04  0.00000000000E+00 0.  1.
         35    2    1    2    0    0  0.28421709430E-13 -0.71054273576E-14 -0.13431736027E+04  0.13789956086E+04  0.31227161470E+03 0.  0.
         25    2    3    3    0    0 -0.90380773722E+02  0.20877075748E+02 -0.65441301803E+03  0.67287510316E+03  0.12609508211E+03 0.  0.
         25    2    3    3    0    0  0.90380773722E+02 -0.20877075748E+02 -0.68876058472E+03  0.70612050541E+03  0.12494194074E+03 0.  0.
          5    1    4    4  502    0 -0.54986079994E+02  0.57894184100E+02 -0.19756672907E+03  0.21314292852E+03  0.47000000000E+01 0.  1.
         -5    1    4    4    0  502 -0.35394693728E+02 -0.37017108353E+02 -0.45684628896E+03  0.45973217463E+03  0.47000000000E+01 0.  1.
          5    1    5    5  503    0  0.56147931870E+02  0.46126880372E+02 -0.23135614051E+03  0.24254490944E+03  0.47000000000E+01 0.  1.
         -5    1    5    5    0  503  0.34232841852E+02 -0.67003956119E+02 -0.45740444421E+03  0.46357559597E+03  0.47000000000E+01 0.  1.
<mgrwt>
<rscale>  0 0.31227161E+03</rscale>
<asrwt>0</asrwt>
<pdfrwt beam="1">  1        1 0.20939771E+00 0.31227161E+03</pdfrwt>
<pdfrwt beam="2">  1       -1 0.27555378E-02 0.31227161E+03</pdfrwt>
<totfact> 0.37993113E+03</totfact>
</mgrwt>
</event>
<event>
 9    1  0.8093459E-001  0.2739446E+03  0.7818608E-02  0.1099043E+00
          1   -1    0    0  501    0  0.00000000000E+00  0.00000000000E+00  0.16794037182E+03  0.16794037182E+03  0.00000000000E+00 0. -1.
         -1   -1    0    0    0  501 -0.00000000000E+00 -0.00000000000E+00 -0.11171470553E+03  0.11171470553E+03  0.00000000000E+00 0. -1.
         35    2    1    2    0    0  0.00000000000E+00  0.00000000000E+00  0.56225666287E+02  0.27965507735E+03  0.27394458699E+03 0.  0.
         25    2    3    3    0    0  0.13745583776E+02  0.34184169863E+02 -0.17818510396E+02  0.13022675981E+03  0.12362852064E+03 0.  0.
         25    2    3    3    0    0 -0.13745583776E+02 -0.34184169863E+02  0.74044176683E+02  0.14942831755E+03  0.12445394105E+03 0.  0.
          5    1    4    4  502    0  0.15276659828E+02  0.80670273036E+02 -0.10393716425E+02  0.82892633137E+02  0.47000000000E+01 0.  1.
         -5    1    4    4    0  502 -0.15310760519E+01 -0.46486103173E+02 -0.74247939713E+01  0.47334126670E+02  0.47000000000E+01 0.  1.
          5    1    5    5  503    0  0.51074915450E+02  0.82984044594E+01  0.33685899916E+02  0.61922050660E+02  0.47000000000E+01 0. -1.
         -5    1    5    5    0  503 -0.64820499226E+02 -0.42482574322E+02  0.40358276767E+02  0.87506266887E+02  0.47000000000E+01 0.  1.
<mgrwt>
<rscale>  0 0.27394459E+03</rscale>
<asrwt>0</asrwt>
<pdfrwt beam="1">  1        1 0.25836980E-01 0.27394459E+03</pdfrwt>
<pdfrwt beam="2">  1       -1 0.17186878E-01 0.27394459E+03</pdfrwt>
<totfact> 0.47017095E+03</totfact>
</mgrwt>
</event>
<event>
 9    1  0.8093459E-001  0.2749629E+03  0.7818608E-02  0.1098472E+00
         -1   -1    0    0    0  501 -0.00000000000E+00  0.00000000000E+00  0.13243420509E+02  0.13243420509E+02  0.00000000000E+00 0. -1.
          1   -1    0    0  501    0  0.00000000000E+00 -0.00000000000E+00 -0.14272100244E+04  0.14272100244E+04  0.00000000000E+00 0. -1.
         35    2    1    2    0    0 -0.71054273576E-14  0.71054273576E-14 -0.14139666038E+04  0.14404534449E+04  0.27496285209E+03 0.  0.
         25    2    3    3    0    0 -0.28394338748E+02 -0.33919853703E+02 -0.88666665434E+03  0.89678518051E+03  0.12684285201E+03 0.  0.
         25    2    3    3    0    0  0.28394338748E+02  0.33919853703E+02 -0.52729994950E+03  0.54366826435E+03  0.12479242756E+03 0.  0.
          5    1    4    4  502    0  0.18485610185E+02 -0.34605302466E+02 -0.85005757675E+02  0.93740671966E+02  0.47000000000E+01 0.  1.
         -5    1    4    4    0  502 -0.46879948933E+02  0.68544876298E+00 -0.80166089667E+03  0.80304450854E+03  0.47000000000E+01 0.  1.
          5    1    5    5  503    0  0.46758615820E+02 -0.34026206117E+02 -0.30414589713E+03  0.30963037254E+03  0.47000000000E+01 0. -1.
         -5    1    5    5    0  503 -0.18364277072E+02  0.67946059820E+02 -0.22315405237E+03  0.23403789182E+03  0.47000000000E+01 0. -1.
<mgrwt>
<rscale>  0 0.27496285E+03</rscale>
<asrwt>0</asrwt>
<pdfrwt beam="1">  1        1 0.21957070E+00 0.27496285E+03</pdfrwt>
<pdfrwt beam="2">  1       -1 0.20374500E-02 0.27496285E+03</pdfrwt>
<totfact> 0.53399723E+03</totfact>
</mgrwt>
</event>
<event>
 9    1  0.8093459E-001  0.2752338E+03  0.7818608E-02  0.1098321E+00
          4   -1    0    0  501    0  0.00000000000E+00  0.00000000000E+00  0.19254918346E+03  0.19254918346E+03  0.00000000000E+00 0. -1.
         -4   -1    0    0    0  501 -0.00000000000E+00 -0.00000000000E+00 -0.98356259755E+02  0.98356259755E+02  0.00000000000E+00 0. -1.
         35    2    1    2    0    0  0.00000000000E+00  0.00000000000E+00  0.94192923701E+02  0.29090544321E+03  0.27523384605E+03 0.  0.
         25    2    3    3    0    0 -0.36696846244E+02  0.12657214228E+01  0.90784940588E+02  0.16045321792E+03  0.12710259293E+03 0.  0.
         25    2    3    3    0    0  0.36696846244E+02 -0.12657214228E+01  0.34079831126E+01  0.13045222529E+03  0.12513156340E+03 0.  0.
          5    1    4    4  502    0 -0.25981198530E+02 -0.57805480416E+02  0.18127665954E+02  0.66084782788E+02  0.47000000000E+01 0.  1.
         -5    1    4    4    0  502 -0.10715647713E+02  0.59071201839E+02  0.72657274634E+02  0.94368435136E+02  0.47000000000E+01 0.  1.
          5    1    5    5  503    0  0.33551609696E+02 -0.48475617076E+02  0.39187870445E+02  0.70946283582E+02  0.47000000000E+01 0.  1.
         -5    1    5    5    0  503  0.31452365479E+01  0.47209895653E+02 -0.35779887333E+02  0.59505941704E+02  0.47000000000E+01 0.  1.
<mgrwt>
<rscale>  0 0.27523385E+03</rscale>
<asrwt>0</asrwt>
<pdfrwt beam="1">  1        4 0.29622951E-01 0.27523385E+03</pdfrwt>
<pdfrwt beam="2">  1       -4 0.15131732E-01 0.27523385E+03</pdfrwt>
<totfact> 0.75819318E+02</totfact>
</mgrwt>
</event>
<event>
 9    1  0.8093459E-001  0.2755219E+03  0.7818608E-02  0.1098160E+00
         -1   -1    0    0    0  501 -0.00000000000E+00  0.00000000000E+00  0.66770589747E+02  0.66770589747E+02  0.00000000000E+00 0.  1.
          1   -1    0    0  501    0  0.00000000000E+00 -0.00000000000E+00 -0.28422821345E+03  0.28422821345E+03  0.00000000000E+00 0.  1.
         35    2    1    2    0    0  0.00000000000E+00  0.00000000000E+00 -0.21745762370E+03  0.35099880320E+03  0.27552194421E+03 0.  0.
         25    2    3    3    0    0 -0.27601338278E+02 -0.30823482062E+02 -0.16601860964E+03  0.21150199064E+03  0.12433419634E+03 0.  0.
         25    2    3    3    0    0  0.27601338278E+02  0.30823482062E+02 -0.51439014068E+02  0.13949681256E+03  0.12288802881E+03 0.  0.
          5    1    4    4  502    0 -0.31987643967E+02 -0.65723993317E+02 -0.15937127564E+03  0.17539710991E+03  0.47000000000E+01 0.  1.
         -5    1    4    4    0  502  0.43863056887E+01  0.34900511255E+02 -0.66473339909E+01  0.36104880732E+02  0.47000000000E+01 0.  1.
          5    1    5    5  503    0  0.70081776713E+02  0.27327200635E+02 -0.38917031477E+01  0.75468315704E+02  0.47000000000E+01 0.  1.
         -5    1    5    5    0  503 -0.42480438435E+02  0.34962814270E+01 -0.47547310921E+02  0.64028496853E+02  0.47000000000E+01 0.  1.
<mgrwt>
<rscale>  0 0.27552194E+03</rscale>
<asrwt>0</asrwt>
<pdfrwt beam="1">  1        1 0.43727417E-01 0.27552194E+03</pdfrwt>
<pdfrwt beam="2">  1       -1 0.10272399E-01 0.27552194E+03</pdfrwt>
<totfact> 0.54492196E+03</totfact>
</mgrwt>
</event>
<event>
 9    1  0.8093459E-001  0.2733644E+03  0.7818608E-02  0.1099369E+00
          2   -1    0    0  501    0  0.00000000000E+00  0.00000000000E+00  0.98138906653E+03  0.98138906653E+03  0.00000000000E+00 0.  1.
         -2   -1    0    0    0  501 -0.00000000000E+00 -0.00000000000E+00 -0.19036300951E+02  0.19036300951E+02  0.00000000000E+00 0.  1.
         35    2    1    2    0    0 -0.10658141036E-13  0.00000000000E+00  0.96235276558E+03  0.10004253675E+04  0.27336435481E+03 0.  0.
         25    2    3    3    0    0  0.29649734545E+02 -0.36777863369E+02  0.58400423335E+03  0.59904453805E+03  0.12474652704E+03 0.  0.
         25    2    3    3    0    0 -0.29649734545E+02  0.36777863369E+02  0.37834853224E+03  0.40138082943E+03  0.12540829478E+03 0.  0.
          5    1    4    4  502    0  0.57051582400E+02  0.15268976190E+02  0.15387441653E+03  0.16488617514E+03  0.47000000000E+01 0.  1.
         -5    1    4    4    0  502 -0.27401847855E+02 -0.52046839559E+02  0.43012981682E+03  0.43415836291E+03  0.47000000000E+01 0.  1.
          5    1    5    5  503    0  0.46040983564E+02  0.99691306727E+01  0.20325425930E+03  0.20869484818E+03  0.47000000000E+01 0.  1.
         -5    1    5    5    0  503 -0.75690718109E+02  0.26808732696E+02  0.17509427294E+03  0.19268598125E+03  0.47000000000E+01 0.  1.
<mgrwt>
<rscale>  0 0.27336435E+03</rscale>
<asrwt>0</asrwt>
<pdfrwt beam="1">  1        2 0.15098289E+00 0.27336435E+03</pdfrwt>
<pdfrwt beam="2">  1       -2 0.29286625E-02 0.27336435E+03</pdfrwt>
<totfact> 0.11805139E+04</totfact>
</mgrwt>
</event>
<event>
 9    1  0.8093459E-001  0.2683943E+03  0.7818608E-02  0.1102202E+00
         -1   -1    0    0    0  501 -0.00000000000E+00  0.00000000000E+00  0.10676821746E+02  0.10676821746E+02  0.00000000000E+00 0. -1.
          1   -1    0    0  501    0  0.00000000000E+00 -0.00000000000E+00 -0.16867268033E+04  0.16867268033E+04  0.00000000000E+00 0. -1.
         35    2    1    2    0    0  0.00000000000E+00 -0.71054273576E-14 -0.16760499816E+04  0.16974036250E+04  0.26839434728E+03 0.  0.
         25    2    3    3    0    0 -0.46675846086E+02  0.15597520493E+02 -0.91718313463E+03  0.92670826746E+03  0.12305036883E+03 0.  0.
         25    2    3    3    0    0  0.46675846086E+02 -0.15597520493E+02 -0.75886684692E+03  0.77069535759E+03  0.12518196993E+03 0.  0.
          5    1    4    4  502    0 -0.54479905988E+02  0.63478529023E+02 -0.57675634342E+03  0.58281004922E+03  0.47000000000E+01 0.  1.
         -5    1    4    4    0  502  0.78040599025E+01 -0.47881008530E+02 -0.34042679121E+03  0.34389821823E+03  0.47000000000E+01 0.  1.
          5    1    5    5  503    0  0.69724990963E+02 -0.54601101473E+02 -0.47751879921E+03  0.48568420629E+03  0.47000000000E+01 0. -1.
         -5    1    5    5    0  503 -0.23049144877E+02  0.39003580979E+02 -0.28134804772E+03  0.28501115130E+03  0.47000000000E+01 0. -1.
<mgrwt>
<rscale>  0 0.26839435E+03</rscale>
<asrwt>0</asrwt>
<pdfrwt beam="1">  1        1 0.25949620E+00 0.26839435E+03</pdfrwt>
<pdfrwt beam="2">  1       -1 0.16425894E-02 0.26839435E+03</pdfrwt>
<totfact> 0.49301207E+03</totfact>
</mgrwt>
</event>
<event>
 9    1  0.8093459E-001  0.2808931E+03  0.7818608E-02  0.1095202E+00
          1   -1    0    0  501    0  0.00000000000E+00  0.00000000000E+00  0.13874204028E+04  0.13874204028E+04  0.00000000000E+00 0. -1.
         -1   -1    0    0    0  501 -0.00000000000E+00 -0.00000000000E+00 -0.14217202630E+02  0.14217202630E+02  0.00000000000E+00 0. -1.
         35    2    1    2    0    0  0.00000000000E+00  0.00000000000E+00  0.13732032002E+04  0.14016376054E+04  0.28089312558E+03 0.  0.
         25    2    3    3    0    0  0.45129171872E+02  0.38503537987E+02  0.80390901788E+03  0.81565619631E+03  0.12452372052E+03 0.  0.
         25    2    3    3    0    0 -0.45129171872E+02 -0.38503537987E+02  0.56929418228E+03  0.58598140910E+03  0.12553557760E+03 0.  0.
          5    1    4    4  502    0 -0.16901442560E+02 -0.21267624692E+02  0.52384106113E+02  0.59195905212E+02  0.47000000000E+01 0.  1.
         -5    1    4    4    0  502  0.62030614432E+02  0.59771162678E+02  0.75152491176E+03  0.75646029110E+03  0.47000000000E+01 0.  1.
          5    1    5    5  503    0 -0.30014766451E+02 -0.70377669664E+02  0.51745633616E+03  0.52310329040E+03  0.47000000000E+01 0. -1.
         -5    1    5    5    0  503 -0.15114405421E+02  0.31874131677E+02  0.51837846119E+02  0.62878118704E+02  0.47000000000E+01 0. -1.
<mgrwt>
<rscale>  0 0.28089313E+03</rscale>
<asrwt>0</asrwt>
<pdfrwt beam="1">  1        1 0.21344918E+00 0.28089313E+03</pdfrwt>
<pdfrwt beam="2">  1       -1 0.21872630E-02 0.28089313E+03</pdfrwt>
<totfact> 0.51193703E+03</totfact>
</mgrwt>
</event>
<event>
 9    1  0.8093459E-001  0.2740880E+03  0.7818608E-02  0.1098962E+00
          2   -1    0    0  501    0  0.00000000000E+00  0.00000000000E+00  0.63813509409E+03  0.63813509409E+03  0.00000000000E+00 0.  1.
         -2   -1    0    0    0  501 -0.00000000000E+00 -0.00000000000E+00 -0.29431167185E+02  0.29431167185E+02  0.00000000000E+00 0.  1.
         35    2    1    2    0    0 -0.71054273576E-14  0.00000000000E+00  0.60870392691E+03  0.66756626128E+03  0.27408801974E+03 0.  0.
         25    2    3    3    0    0 -0.39405082555E+02 -0.33239392364E+02  0.24275526800E+03  0.27789981721E+03  0.12506226659E+03 0.  0.
         25    2    3    3    0    0  0.39405082555E+02  0.33239392364E+02  0.36594865891E+03  0.38966644407E+03  0.12354715272E+03 0.  0.
          5    1    4    4  502    0  0.38045421815E+01  0.28839507029E+02  0.17105338260E+03  0.17357287059E+03  0.47000000000E+01 0.  1.
         -5    1    4    4    0  502 -0.43209624737E+02 -0.62078899393E+02  0.71701885403E+02  0.10432694662E+03  0.47000000000E+01 0.  1.
          5    1    5    5  503    0  0.74609807865E+01  0.13995273296E+02  0.34732333718E+03  0.34771701778E+03  0.47000000000E+01 0. -1.
         -5    1    5    5    0  503  0.31944101769E+02  0.19244119068E+02  0.18625321733E+02  0.41949426291E+02  0.47000000000E+01 0. -1.
<mgrwt>
<rscale>  0 0.27408802E+03</rscale>
<asrwt>0</asrwt>
<pdfrwt beam="1">  1        2 0.98174619E-01 0.27408802E+03</pdfrwt>
<pdfrwt beam="2">  1       -2 0.45278724E-02 0.27408802E+03</pdfrwt>
<totfact> 0.10633794E+04</totfact>
</mgrwt>
</event>
<event>
 9    1  0.8093459E-001  0.2865812E+03  0.7818608E-02  0.1092148E+00
          2   -1    0    0  501    0  0.00000000000E+00  0.00000000000E+00  0.70426137574E+03  0.70426137574E+03  0.00000000000E+00 0.  1.
         -2   -1    0    0    0  501 -0.00000000000E+00 -0.00000000000E+00 -0.29154224555E+02  0.29154224555E+02  0.00000000000E+00 0.  1.
         35    2    1    2    0    0  0.00000000000E+00  0.71054273576E-14  0.67510715118E+03  0.73341560029E+03  0.28658118775E+03 0.  0.
         25    2    3    3    0    0 -0.41604408235E+02  0.41590188574E+02  0.23030525470E+03  0.26837594688E+03  0.12459722288E+03 0.  0.
         25    2    3    3    0    0  0.41604408235E+02 -0.41590188574E+02  0.44480189648E+03  0.46503965341E+03  0.12228034005E+03 0.  0.
          5    1    4    4  502    0  0.40860238750E+02  0.27746076203E+02  0.54865706548E+02  0.73971207982E+02  0.47000000000E+01 0.  1.
         -5    1    4    4    0  502 -0.82464646985E+02  0.13844112371E+02  0.17543954815E+03  0.19440473890E+03  0.47000000000E+01 0.  1.
          5    1    5    5  503    0 -0.28105969011E+02  0.45450935228E+01  0.29069685937E+02  0.40960224727E+02  0.47000000000E+01 0. -1.
         -5    1    5    5    0  503  0.69710377246E+02 -0.46135282097E+02  0.41573221055E+03  0.42407942869E+03  0.47000000000E+01 0. -1.
<mgrwt>
<rscale>  0 0.28658119E+03</rscale>
<asrwt>0</asrwt>
<pdfrwt beam="1">  1        2 0.10834789E+00 0.28658119E+03</pdfrwt>
<pdfrwt beam="2">  1       -2 0.44852659E-02 0.28658119E+03</pdfrwt>
<totfact> 0.95994903E+03</totfact>
</mgrwt>
</event>
<event>
 9    1  0.8093459E-001  0.2769262E+03  0.7818608E-02  0.1097380E+00
         -2   -1    0    0    0  501 -0.00000000000E+00  0.00000000000E+00  0.56784620305E+02  0.56784620305E+02  0.00000000000E+00 0. -1.
          2   -1    0    0  501    0  0.00000000000E+00 -0.00000000000E+00 -0.33762725187E+03  0.33762725187E+03  0.00000000000E+00 0. -1.
         35    2    1    2    0    0  0.00000000000E+00  0.35527136788E-14 -0.28084263156E+03  0.39441187217E+03  0.27692623785E+03 0.  0.
         25    2    3    3    0    0 -0.20650948899E+02 -0.19412843788E+02 -0.66085194012E+02  0.14419035114E+03  0.12498113578E+03 0.  0.
         25    2    3    3    0    0  0.20650948899E+02  0.19412843788E+02 -0.21475743755E+03  0.25022152103E+03  0.12524668623E+03 0.  0.
          5    1    4    4  502    0  0.35379123198E+02  0.12639604069E+02 -0.69752040644E+02  0.79365478158E+02  0.47000000000E+01 0.  1.
         -5    1    4    4    0  502 -0.56030072097E+02 -0.32052447858E+02  0.36668466315E+01  0.64824872981E+02  0.47000000000E+01 0.  1.
          5    1    5    5  503    0 -0.49790536769E+02  0.13314844254E+02 -0.12888062913E+03  0.13888372545E+03  0.47000000000E+01 0. -1.
         -5    1    5    5    0  503  0.70441485668E+02  0.60979995346E+01 -0.85876808421E+02  0.11133779559E+03  0.47000000000E+01 0. -1.
<mgrwt>
<rscale>  0 0.27692624E+03</rscale>
<asrwt>0</asrwt>
<pdfrwt beam="1">  1        2 0.51942654E-01 0.27692624E+03</pdfrwt>
<pdfrwt beam="2">  1       -2 0.87360955E-02 0.27692624E+03</pdfrwt>
<totfact> 0.78562040E+03</totfact>
</mgrwt>
</event>
<event>
 9    1  0.8093459E-001  0.2556812E+03  0.7818608E-02  0.1109766E+00
         -2   -1    0    0    0  501 -0.00000000000E+00  0.00000000000E+00  0.64626267024E+02  0.64626267024E+02  0.00000000000E+00 0. -1.
          2   -1    0    0  501    0  0.00000000000E+00 -0.00000000000E+00 -0.25288826827E+03  0.25288826827E+03  0.00000000000E+00 0. -1.
         35    2    1    2    0    0 -0.17763568394E-14 -0.53290705182E-14 -0.18826200125E+03  0.31751453530E+03  0.25568124493E+03 0.  0.
         25    2    3    3    0    0 -0.12298968010E+02  0.27144461420E+01 -0.11819551095E+03  0.17342576797E+03  0.12628414531E+03 0.  0.
         25    2    3    3    0    0  0.12298968010E+02 -0.27144461420E+01 -0.70066490297E+02  0.14408876732E+03  0.12527420714E+03 0.  0.
          5    1    4    4  502    0 -0.21602526326E+02  0.75099951598E+01  0.22403990282E+02  0.32358892928E+02  0.47000000000E+01 0.  1.
         -5    1    4    4    0  502  0.93035583160E+01 -0.47955490177E+01 -0.14059950123E+03  0.14106687504E+03  0.47000000000E+01 0.  1.
          5    1    5    5  503    0  0.23887027111E+02 -0.61164351891E+02 -0.41695098479E+02  0.77924574067E+02  0.47000000000E+01 0. -1.
         -5    1    5    5    0  503 -0.11588059100E+02  0.58449905749E+02 -0.28371391818E+02  0.66164193258E+02  0.47000000000E+01 0. -1.
<mgrwt>
<rscale>  0 0.25568124E+03</rscale>
<asrwt>0</asrwt>
<pdfrwt beam="1">  1        2 0.38905887E-01 0.25568124E+03</pdfrwt>
<pdfrwt beam="2">  1       -2 0.99425027E-02 0.25568124E+03</pdfrwt>
<totfact> 0.87106970E+03</totfact>
</mgrwt>
</event>
<event>
 9    1  0.8093459E-001  0.2720501E+03  0.7818608E-02  0.1100112E+00
         -1   -1    0    0    0  501 -0.00000000000E+00  0.00000000000E+00  0.98379444569E+02  0.98379444569E+02  0.00000000000E+00 0. -1.
          1   -1    0    0  501    0  0.00000000000E+00 -0.00000000000E+00 -0.18807608157E+03  0.18807608157E+03  0.00000000000E+00 0. -1.
         35    2    1    2    0    0  0.00000000000E+00  0.00000000000E+00 -0.89696637006E+02  0.28645552614E+03  0.27205014569E+03 0.  0.
         25    2    3    3    0    0  0.59548784622E+01 -0.50501867192E+02 -0.60404811186E+02  0.14854594287E+03  0.12582232219E+03 0.  0.
         25    2    3    3    0    0 -0.59548784622E+01  0.50501867192E+02 -0.29291825819E+02  0.13790958327E+03  0.12480041238E+03 0.  0.
          5    1    4    4  502    0 -0.37007257223E+02 -0.27121593903E+02  0.23156160723E+02  0.51608291218E+02  0.47000000000E+01 0. -1.
         -5    1    4    4    0  502  0.42962135685E+02 -0.23380273289E+02 -0.83560971909E+02  0.96937651654E+02  0.47000000000E+01 0. -1.
          5    1    5    5  503    0 -0.44791337806E+02  0.25484487690E+02 -0.62262649034E+02  0.80959561017E+02  0.47000000000E+01 0.  1.
         -5    1    5    5    0  503  0.38836459343E+02  0.25017379501E+02  0.32970823215E+02  0.56950022255E+02  0.47000000000E+01 0.  1.
<mgrwt>
<rscale>  0 0.27205015E+03</rscale>
<asrwt>0</asrwt>
<pdfrwt beam="1">  1        1 0.28934781E-01 0.27205015E+03</pdfrwt>
<pdfrwt beam="2">  1       -1 0.15135299E-01 0.27205015E+03</pdfrwt>
<totfact> 0.49881033E+03</totfact>
</mgrwt>
</event>
<event>
 9    1  0.8093459E-001  0.2704748E+03  0.7818608E-02  0.1101008E+00
         -2   -1    0    0    0  501 -0.00000000000E+00  0.00000000000E+00  0.76098914289E+01  0.76098914289E+01  0.00000000000E+00 0.  1.
          2   -1    0    0  501    0  0.00000000000E+00 -0.00000000000E+00 -0.24033391066E+04  0.24033391066E+04  0.00000000000E+00 0.  1.
         35    2    1    2    0    0  0.00000000000E+00  0.00000000000E+00 -0.23957292151E+04  0.24109489980E+04  0.27047476531E+03 0.  0.
         25    2    3    3    0    0  0.50248635510E+02  0.69733608376E+01 -0.11941304001E+04  0.12017228854E+04  0.12496770648E+03 0.  0.
         25    2    3    3    0    0 -0.50248635510E+02 -0.69733608376E+01 -0.12015988150E+04  0.12092261126E+04  0.12575581898E+03 0.  0.
          5    1    4    4  502    0  0.23944948925E+02 -0.58094073399E+02 -0.47513412298E+03  0.47929407128E+03  0.47000000000E+01 0.  1.
         -5    1    4    4    0  502  0.26303686585E+02  0.65067434237E+02 -0.71899627717E+03  0.72242881414E+03  0.47000000000E+01 0.  1.
          5    1    5    5  503    0  0.12761976122E+02 -0.10698902132E+02 -0.22281834980E+02  0.28211783202E+02  0.47000000000E+01 0. -1.
         -5    1    5    5    0  503 -0.63010611632E+02  0.37255412940E+01 -0.11793169800E+04  0.11810143294E+04  0.47000000000E+01 0. -1.
<mgrwt>
<rscale>  0 0.27047477E+03</rscale>
<asrwt>0</asrwt>
<pdfrwt beam="1">  1        2 0.36974565E+00 0.27047477E+03</pdfrwt>
<pdfrwt beam="2">  1       -2 0.11707488E-02 0.27047477E+03</pdfrwt>
<totfact> 0.76739053E+03</totfact>
</mgrwt>
</event>
<event>
 9    1  0.8093459E-001  0.2750244E+03  0.7818608E-02  0.1098438E+00
         -2   -1    0    0    0  501 -0.00000000000E+00  0.00000000000E+00  0.73519670466E+03  0.73519670466E+03  0.00000000000E+00 0.  1.
          2   -1    0    0  501    0  0.00000000000E+00 -0.00000000000E+00 -0.25720465619E+02  0.25720465619E+02  0.00000000000E+00 0.  1.
         35    2    1    2    0    0 -0.17763568394E-14  0.71054273576E-14  0.70947623904E+03  0.76091717028E+03  0.27502437394E+03 0.  0.
         25    2    3    3    0    0  0.69639821535E+01  0.57275720477E+02  0.38592433883E+03  0.40960486006E+03  0.12453730719E+03 0.  0.
         25    2    3    3    0    0 -0.69639821535E+01 -0.57275720477E+02  0.32355190021E+03  0.35131231022E+03  0.12411890258E+03 0.  0.
          5    1    4    4  502    0 -0.12656034228E+02  0.72273280368E+02  0.10862373902E+03  0.13116710310E+03  0.47000000000E+01 0.  1.
         -5    1    4    4    0  502  0.19620016381E+02 -0.14997559892E+02  0.27730059981E+03  0.27843775696E+03  0.47000000000E+01 0.  1.
          5    1    5    5  503    0  0.34947671371E+02 -0.31443602153E+02  0.28422638583E+03  0.28812630607E+03  0.47000000000E+01 0.  1.
         -5    1    5    5    0  503 -0.41911653524E+02 -0.25832118324E+02  0.39325514384E+02  0.63186004145E+02  0.47000000000E+01 0.  1.
<mgrwt>
<rscale>  0 0.27502437E+03</rscale>
<asrwt>0</asrwt>
<pdfrwt beam="1">  1        2 0.39569953E-02 0.27502437E+03</pdfrwt>
<pdfrwt beam="2">  1       -2 0.11310717E+00 0.27502437E+03</pdfrwt>
<totfact> 0.13772150E+03</totfact>
</mgrwt>
</event>
<event>
 9    1  0.8093459E-001  0.2818944E+03  0.7818608E-02  0.1094659E+00
         -1   -1    0    0    0  501 -0.00000000000E+00  0.00000000000E+00  0.17813989761E+02  0.17813989761E+02  0.00000000000E+00 0.  1.
          1   -1    0    0  501    0  0.00000000000E+00 -0.00000000000E+00 -0.11151974703E+04  0.11151974703E+04  0.00000000000E+00 0.  1.
         35    2    1    2    0    0  0.35527136788E-14  0.00000000000E+00 -0.10973834805E+04  0.11330114601E+04  0.28189442221E+03 0.  0.
         25    2    3    3    0    0 -0.16305060121E+02 -0.45280260382E+00 -0.80057084555E+03  0.81039675599E+03  0.12475240823E+03 0.  0.
         25    2    3    3    0    0  0.16305060121E+02  0.45280260382E+00 -0.29681263500E+03  0.32261470408E+03  0.12536525427E+03 0.  0.
          5    1    4    4  502    0  0.95774985737E+01  0.45117207095E+02 -0.13479663210E+03  0.14254652883E+03  0.47000000000E+01 0. -1.
         -5    1    4    4    0  502 -0.25882558694E+02 -0.45570009699E+02 -0.66577421344E+03  0.66785022716E+03  0.47000000000E+01 0. -1.
          5    1    5    5  503    0 -0.44942748847E+02 -0.31849952801E+02 -0.15851781387E+03  0.16788167703E+03  0.47000000000E+01 0.  1.
         -5    1    5    5    0  503  0.61247808968E+02  0.32302755404E+02 -0.13829482113E+03  0.15473302705E+03  0.47000000000E+01 0.  1.
<mgrwt>
<rscale>  0 0.28189442E+03</rscale>
<asrwt>0</asrwt>
<pdfrwt beam="1">  1        1 0.17156889E+00 0.28189442E+03</pdfrwt>
<pdfrwt beam="2">  1       -1 0.27406131E-02 0.28189442E+03</pdfrwt>
<totfact> 0.56747308E+03</totfact>
</mgrwt>
</event>
<event>
 9    1  0.8093459E-001  0.2654865E+03  0.7818608E-02  0.1103891E+00
          2   -1    0    0  501    0  0.00000000000E+00  0.00000000000E+00  0.12548868016E+03  0.12548868016E+03  0.00000000000E+00 0. -1.
         -2   -1    0    0    0  501 -0.00000000000E+00 -0.00000000000E+00 -0.14041716589E+03  0.14041716589E+03  0.00000000000E+00 0. -1.
         35    2    1    2    0    0  0.53290705182E-14 -0.35527136788E-14 -0.14928485730E+02  0.26590584605E+03  0.26548645780E+03 0.  0.
         25    2    3    3    0    0  0.14346925059E+02 -0.59729326767E+00 -0.53778666900E+02  0.13593586073E+03  0.12401702384E+03 0.  0.
         25    2    3    3    0    0 -0.14346925059E+02  0.59729326767E+00  0.38850181170E+02  0.12996998531E+03  0.12319362600E+03 0.  0.
          5    1    4    4  502    0  0.28040907621E+02  0.52965559919E+02 -0.21605969465E+01  0.60153148022E+02  0.47000000000E+01 0. -1.
         -5    1    4    4    0  502 -0.13693982563E+02 -0.53562853187E+02 -0.51618069954E+02  0.75782712710E+02  0.47000000000E+01 0. -1.
          5    1    5    5  503    0  0.42141149894E+02 -0.89302513345E+01 -0.19984231507E+02  0.47718816124E+02  0.47000000000E+01 0. -1.
         -5    1    5    5    0  503 -0.56488074953E+02  0.95275446022E+01  0.58834412677E+02  0.82251169190E+02  0.47000000000E+01 0. -1.
<mgrwt>
<rscale>  0 0.26548646E+03</rscale>
<asrwt>0</asrwt>
<pdfrwt beam="1">  1        2 0.19305951E-01 0.26548646E+03</pdfrwt>
<pdfrwt beam="2">  1       -2 0.21602641E-01 0.26548646E+03</pdfrwt>
<totfact> 0.52723329E+03</totfact>
</mgrwt>
</event>
<event>
 9    1  0.8093459E-001  0.2732202E+03  0.7818608E-02  0.1099451E+00
         -2   -1    0    0    0  501 -0.00000000000E+00  0.00000000000E+00  0.34963638832E+02  0.34963638832E+02  0.00000000000E+00 0.  1.
          2   -1    0    0  501    0  0.00000000000E+00 -0.00000000000E+00 -0.53376370336E+03  0.53376370336E+03  0.00000000000E+00 0.  1.
         35    2    1    2    0    0  0.71054273576E-14 -0.35527136788E-14 -0.49880006453E+03  0.56872734219E+03  0.27322021408E+03 0.  0.
         25    2    3    3    0    0 -0.61595926969E+02  0.16322718687E+02 -0.32432351297E+03  0.35196951694E+03  0.12098062004E+03 0.  0.
         25    2    3    3    0    0  0.61595926969E+02 -0.16322718687E+02 -0.17447655157E+03  0.21675782526E+03  0.11172017902E+03 0.  0.
          5    1    4    4  502    0 -0.94532232737E+02  0.14850480182E+02 -0.18061010003E+03  0.20444798366E+03  0.47000000000E+01 0. -1.
         -5    1    4    4    0  502  0.32936305768E+02  0.14722385052E+01 -0.14371341293E+03  0.14752153328E+03  0.47000000000E+01 0. -1.
          5    1    5    5  503    0  0.71327638388E+02 -0.52487550964E+02 -0.10292621948E+03  0.13586195811E+03  0.47000000000E+01 0.  1.
         -5    1    5    5    0  503 -0.97317114192E+01  0.36164832277E+02 -0.71550332086E+02  0.80895867153E+02  0.47000000000E+01 0.  1.
<mgrwt>
<rscale>  0 0.27322021E+03</rscale>
<asrwt>0</asrwt>
<pdfrwt beam="1">  1        2 0.82117482E-01 0.27322021E+03</pdfrwt>
<pdfrwt beam="2">  1       -2 0.53790221E-02 0.27322021E+03</pdfrwt>
<totfact> 0.10059309E+04</totfact>
</mgrwt>
</event>
<event>
 9    1  0.8093459E-001  0.2749598E+03  0.7818608E-02  0.1098474E+00
          2   -1    0    0  501    0  0.00000000000E+00  0.00000000000E+00  0.10798877157E+03  0.10798877157E+03  0.00000000000E+00 0. -1.
         -2   -1    0    0    0  501 -0.00000000000E+00 -0.00000000000E+00 -0.17502488920E+03  0.17502488920E+03  0.00000000000E+00 0. -1.
         35    2    1    2    0    0  0.00000000000E+00  0.71054273576E-14 -0.67036117632E+02  0.28301366077E+03  0.27495979909E+03 0.  0.
         25    2    3    3    0    0  0.26623009264E+02 -0.46182567837E+02 -0.21229430569E+02  0.13648981346E+03  0.12384331336E+03 0.  0.
         25    2    3    3    0    0 -0.26623009264E+02  0.46182567837E+02 -0.45806687063E+02  0.14652384731E+03  0.12856660164E+03 0.  0.
          5    1    4    4  502    0  0.35516195011E+02 -0.84330689580E+02 -0.29349321497E+02  0.96210903673E+02  0.47000000000E+01 0.  1.
         -5    1    4    4    0  502 -0.88931857470E+01  0.38148121743E+02  0.81198909284E+01  0.40278909791E+02  0.47000000000E+01 0.  1.
          5    1    5    5  503    0  0.29745236095E+02 -0.19424587460E+02 -0.47964109598E+02  0.59872693925E+02  0.47000000000E+01 0.  1.
         -5    1    5    5    0  503 -0.56368245358E+02  0.65607155297E+02  0.21574225353E+01  0.86651153385E+02  0.47000000000E+01 0.  1.
<mgrwt>
<rscale>  0 0.27495980E+03</rscale>
<asrwt>0</asrwt>
<pdfrwt beam="1">  1        2 0.16613657E-01 0.27495980E+03</pdfrwt>
<pdfrwt beam="2">  1       -2 0.26926906E-01 0.27495980E+03</pdfrwt>
<totfact> 0.42686585E+03</totfact>
</mgrwt>
</event>
<event>
 9    1  0.8093459E-001  0.2761617E+03  0.7818608E-02  0.1097804E+00
         -2   -1    0    0    0  501 -0.00000000000E+00  0.00000000000E+00  0.15214758902E+02  0.15214758902E+02  0.00000000000E+00 0. -1.
          2   -1    0    0  501    0  0.00000000000E+00 -0.00000000000E+00 -0.12531463221E+04  0.12531463221E+04  0.00000000000E+00 0. -1.
         35    2    1    2    0    0  0.00000000000E+00  0.00000000000E+00 -0.12379315632E+04  0.12683610810E+04  0.27616168569E+03 0.  0.
         25    2    3    3    0    0 -0.46625388824E+02 -0.27244444305E+02 -0.50630386229E+03  0.52441374672E+03  0.12549896475E+03 0.  0.
         25    2    3    3    0    0  0.46625388824E+02  0.27244444305E+02 -0.73162770093E+03  0.74394733431E+03  0.12354091152E+03 0.  0.
          5    1    4    4  502    0  0.38481678353E+02  0.45176473787E+01 -0.23624132709E+03  0.23944373730E+03  0.47000000000E+01 0. -1.
         -5    1    4    4    0  502 -0.85107067176E+02 -0.31762091684E+02 -0.27006253520E+03  0.28497000942E+03  0.47000000000E+01 0. -1.
          5    1    5    5  503    0  0.85158069796E+02 -0.34081914414E+01 -0.45870435127E+03  0.46657827264E+03  0.47000000000E+01 0. -1.
         -5    1    5    5    0  503 -0.38532680972E+02  0.30652635747E+02 -0.27292334966E+03  0.27736906167E+03  0.47000000000E+01 0. -1.
<mgrwt>
<rscale>  0 0.27616169E+03</rscale>
<asrwt>0</asrwt>
<pdfrwt beam="1">  1        2 0.19279177E+00 0.27616169E+03</pdfrwt>
<pdfrwt beam="2">  1       -2 0.23407319E-02 0.27616169E+03</pdfrwt>
<totfact> 0.11410748E+04</totfact>
</mgrwt>
</event>
<event>
 9    1  0.8093459E-001  0.2591848E+03  0.7818608E-02  0.1107634E+00
         -1   -1    0    0    0  501 -0.00000000000E+00  0.00000000000E+00  0.31343244131E+02  0.31343244131E+02  0.00000000000E+00 0.  1.
          1   -1    0    0  501    0  0.00000000000E+00 -0.00000000000E+00 -0.53581515467E+03  0.53581515467E+03  0.00000000000E+00 0.  1.
         35    2    1    2    0    0 -0.35527136788E-14  0.00000000000E+00 -0.50447191054E+03  0.56715839880E+03  0.25918476191E+03 0.  0.
         25    2    3    3    0    0  0.21535410783E+02  0.20789120360E+02 -0.22337555316E+03  0.25796443287E+03  0.12551115261E+03 0.  0.
         25    2    3    3    0    0 -0.21535410783E+02 -0.20789120360E+02 -0.28109635738E+03  0.30919396593E+03  0.12525887193E+03 0.  0.
          5    1    4    4  502    0  0.11351136687E+02  0.49112813176E+02 -0.22175182915E+03  0.22745742558E+03  0.47000000000E+01 0.  1.
         -5    1    4    4    0  502  0.10184274096E+02 -0.28323692816E+02 -0.16237240120E+01  0.30507007282E+02  0.47000000000E+01 0.  1.
          5    1    5    5  503    0  0.13851235242E+02 -0.23109049907E+02 -0.27050814948E+03  0.27188717116E+03  0.47000000000E+01 0. -1.
         -5    1    5    5    0  503 -0.35386646025E+02  0.23199295477E+01 -0.10588207898E+02  0.37306794777E+02  0.47000000000E+01 0. -1.
<mgrwt>
<rscale>  0 0.25918476E+03</rscale>
<asrwt>0</asrwt>
<pdfrwt beam="1">  1        1 0.82433100E-01 0.25918476E+03</pdfrwt>
<pdfrwt beam="2">  1       -1 0.48220376E-02 0.25918476E+03</pdfrwt>
<totfact> 0.75874519E+03</totfact>
</mgrwt>
</event>
<event>
 9    1  0.8093459E-001  0.2761089E+03  0.7818608E-02  0.1097833E+00
         -1   -1    0    0    0  501 -0.00000000000E+00  0.00000000000E+00  0.25937684250E+02  0.25937684250E+02  0.00000000000E+00 0. -1.
          1   -1    0    0  501    0  0.00000000000E+00 -0.00000000000E+00 -0.73480077691E+03  0.73480077691E+03  0.00000000000E+00 0. -1.
         35    2    1    2    0    0 -0.35527136788E-14  0.00000000000E+00 -0.70886309266E+03  0.76073846116E+03  0.27610889546E+03 0.  0.
         25    2    3    3    0    0 -0.95892067528E+01 -0.50945607857E+02 -0.30480406413E+03  0.33364192917E+03  0.12539542075E+03 0.  0.
         25    2    3    3    0    0  0.95892067528E+01  0.50945607857E+02 -0.40405902853E+03  0.42709653198E+03  0.12829786145E+03 0.  0.
          5    1    4    4  502    0 -0.50854275222E+02 -0.25858904990E+02 -0.55752219202E+02  0.79907698137E+02  0.47000000000E+01 0.  1.
         -5    1    4    4    0  502  0.41265068469E+02 -0.25086702867E+02 -0.24905184493E+03  0.25373423103E+03  0.47000000000E+01 0.  1.
          5    1    5    5  503    0  0.77754053015E+01  0.90908758671E+02 -0.21182062333E+03  0.23068360540E+03  0.47000000000E+01 0.  1.
         -5    1    5    5    0  503  0.18138014513E+01 -0.39963150814E+02 -0.19223840520E+03  0.19641292659E+03  0.47000000000E+01 0.  1.
<mgrwt>
<rscale>  0 0.27610890E+03</rscale>
<asrwt>0</asrwt>
<pdfrwt beam="1">  1        1 0.11304626E+00 0.27610890E+03</pdfrwt>
<pdfrwt beam="2">  1       -1 0.39904134E-02 0.27610890E+03</pdfrwt>
<totfact> 0.64589815E+03</totfact>
</mgrwt>
</event>
<event>
 9    1  0.8093459E-001  0.2731411E+03  0.7818608E-02  0.1099495E+00
          3   -1    0    0  501    0  0.00000000000E+00  0.00000000000E+00  0.35550033333E+03  0.35550033333E+03  0.00000000000E+00 0. -1.
         -3   -1    0    0    0  501 -0.00000000000E+00 -0.00000000000E+00 -0.52465545466E+02  0.52465545466E+02  0.00000000000E+00 0. -1.
         35    2    1    2    0    0  0.35527136788E-14  0.71054273576E-14  0.30303478786E+03  0.40796587879E+03  0.27314112763E+03 0.  0.
         25    2    3    3    0    0 -0.24814026017E+02  0.31165018547E+02  0.78945409932E+02  0.14820909560E+03  0.11893932908E+03 0.  0.
         25    2    3    3    0    0  0.24814026017E+02 -0.31165018547E+02  0.22408937793E+03  0.25975678319E+03  0.12518203883E+03 0.  0.
          5    1    4    4  502    0  0.65392090813E+01 -0.43365928893E+02  0.22742120257E+02  0.49625185923E+02  0.47000000000E+01 0. -1.
         -5    1    4    4    0  502 -0.31353235098E+02  0.74530947440E+02  0.56203289674E+02  0.98583909679E+02  0.47000000000E+01 0. -1.
          5    1    5    5  503    0  0.29579763785E+02  0.45464409477E+02  0.93809716741E+02  0.10846348653E+03  0.47000000000E+01 0. -1.
         -5    1    5    5    0  503 -0.47657377681E+01 -0.76629428024E+02  0.13027966119E+03  0.15129329666E+03  0.47000000000E+01 0. -1.
<mgrwt>
<rscale>  0 0.27314113E+03</rscale>
<asrwt>0</asrwt>
<pdfrwt beam="1">  1        3 0.54692357E-01 0.27314113E+03</pdfrwt>
<pdfrwt beam="2">  1       -3 0.80716226E-02 0.27314113E+03</pdfrwt>
<totfact> 0.89005982E+02</totfact>
</mgrwt>
</event>
<event>
 9    1  0.8093459E-001  0.2731855E+03  0.7818608E-02  0.1099470E+00
          1   -1    0    0  501    0  0.00000000000E+00  0.00000000000E+00  0.77287646788E+03  0.77287646788E+03  0.00000000000E+00 0.  1.
         -1   -1    0    0    0  501 -0.00000000000E+00 -0.00000000000E+00 -0.24140446388E+02  0.24140446388E+02  0.00000000000E+00 0.  1.
         35    2    1    2    0    0  0.00000000000E+00 -0.35527136788E-14  0.74873602149E+03  0.79701691426E+03  0.27318552624E+03 0.  0.
         25    2    3    3    0    0 -0.40023174172E+02 -0.30293516244E+02  0.44927913801E+03  0.46909673832E+03  0.12522162133E+03 0.  0.
         25    2    3    3    0    0  0.40023174172E+02  0.30293516244E+02  0.29945688347E+03  0.32792017595E+03  0.12384532747E+03 0.  0.
          5    1    4    4  502    0 -0.36813657167E+02 -0.68597608272E+02  0.16868388438E+03  0.18584192224E+03  0.47000000000E+01 0.  1.
         -5    1    4    4    0  502 -0.32095170053E+01  0.38304092028E+02  0.28059525364E+03  0.28325481607E+03  0.47000000000E+01 0.  1.
          5    1    5    5  503    0  0.67321373492E+02  0.58000685477E+02  0.24632549722E+03  0.26190568421E+03  0.47000000000E+01 0.  1.
         -5    1    5    5    0  503 -0.27298199320E+02 -0.27707169233E+02  0.53131386256E+02  0.66014491731E+02  0.47000000000E+01 0.  1.
<mgrwt>
<rscale>  0 0.27318553E+03</rscale>
<asrwt>0</asrwt>
<pdfrwt beam="1">  1        1 0.11890405E+00 0.27318553E+03</pdfrwt>
<pdfrwt beam="2">  1       -1 0.37139154E-02 0.27318553E+03</pdfrwt>
<totfact> 0.66594438E+03</totfact>
</mgrwt>
</event>
<event>
 9    1  0.8093459E-001  0.2747060E+03  0.7818608E-02  0.1098616E+00
         -2   -1    0    0    0  501 -0.00000000000E+00  0.00000000000E+00  0.11165737792E+04  0.11165737792E+04  0.00000000000E+00 0. -1.
          2   -1    0    0  501    0  0.00000000000E+00 -0.00000000000E+00 -0.16896195381E+02  0.16896195381E+02  0.00000000000E+00 0. -1.
         35    2    1    2    0    0 -0.14210854715E-13 -0.71054273576E-14  0.10996775838E+04  0.11334699746E+04  0.27470601544E+03 0.  0.
         25    2    3    3    0    0 -0.59983568497E+02 -0.18094767138E+02  0.52482887112E+03  0.54313151739E+03  0.12498420754E+03 0.  0.
         25    2    3    3    0    0  0.59983568497E+02  0.18094767138E+02  0.57484871268E+03  0.59033845717E+03  0.11884023921E+03 0.  0.
          5    1    4    4  502    0 -0.79127086310E+02  0.32348292102E+02  0.32760242327E+03  0.33860440860E+03  0.47000000000E+01 0. -1.
         -5    1    4    4    0  502  0.19143517812E+02 -0.50443059241E+02  0.19722644785E+03  0.20452710879E+03  0.47000000000E+01 0. -1.
          5    1    5    5  503    0 -0.28039712408E+02 -0.19125732399E+02  0.22691329759E+03  0.22948584648E+03  0.47000000000E+01 0. -1.
         -5    1    5    5    0  503  0.88023280906E+02  0.37220499537E+02  0.34793541509E+03  0.36085261069E+03  0.47000000000E+01 0. -1.
<mgrwt>
<rscale>  0 0.27470602E+03</rscale>
<asrwt>0</asrwt>
<pdfrwt beam="1">  1        2 0.25994155E-02 0.27470602E+03</pdfrwt>
<pdfrwt beam="2">  1       -2 0.17178052E+00 0.27470602E+03</pdfrwt>
<totfact> 0.84391855E+02</totfact>
</mgrwt>
</event>
<event>
 9    1  0.8093459E-001  0.2764534E+03  0.7818608E-02  0.1097642E+00
          2   -1    0    0  501    0  0.00000000000E+00  0.00000000000E+00  0.10454666710E+04  0.10454666710E+04  0.00000000000E+00 0.  1.
         -2   -1    0    0    0  501 -0.00000000000E+00 -0.00000000000E+00 -0.18275685066E+02  0.18275685066E+02  0.00000000000E+00 0.  1.
         35    2    1    2    0    0  0.00000000000E+00  0.35527136788E-14  0.10271909859E+04  0.10637423560E+04  0.27645339301E+03 0.  0.
         25    2    3    3    0    0  0.36843901066E+02 -0.13338683519E+02  0.34503474746E+03  0.36930152673E+03  0.12569505625E+03 0.  0.
         25    2    3    3    0    0 -0.36843901066E+02  0.13338683519E+02  0.68215623846E+03  0.69444082932E+03  0.12399813805E+03 0.  0.
          5    1    4    4  502    0  0.17484994720E+02 -0.29581050507E+02  0.14210978633E+02  0.37480735093E+02  0.47000000000E+01 0. -1.
         -5    1    4    4    0  502  0.19358906346E+02  0.16242366988E+02  0.33082376883E+03  0.33182079164E+03  0.47000000000E+01 0. -1.
          5    1    5    5  503    0  0.14895052274E+02  0.46662611375E+02  0.13271416814E+03  0.14154293450E+03  0.47000000000E+01 0. -1.
         -5    1    5    5    0  503 -0.51738953340E+02 -0.33323927856E+02  0.54944207032E+03  0.55289789482E+03  0.47000000000E+01 0. -1.
<mgrwt>
<rscale>  0 0.27645339E+03</rscale>
<asrwt>0</asrwt>
<pdfrwt beam="1">  1        2 0.16084098E+00 0.27645339E+03</pdfrwt>
<pdfrwt beam="2">  1       -2 0.28116447E-02 0.27645339E+03</pdfrwt>
<totfact> 0.11468939E+04</totfact>
</mgrwt>
</event>
<event>
 9    1  0.8093459E-001  0.2756468E+03  0.7818608E-02  0.1098091E+00
         -2   -1    0    0    0  501 -0.00000000000E+00  0.00000000000E+00  0.27957813046E+03  0.27957813046E+03  0.00000000000E+00 0. -1.
          2   -1    0    0  501    0  0.00000000000E+00 -0.00000000000E+00 -0.67942701178E+02  0.67942701178E+02  0.00000000000E+00 0. -1.
         35    2    1    2    0    0  0.14210854715E-13  0.35527136788E-14  0.21163542928E+03  0.34752083164E+03  0.27564682747E+03 0.  0.
         25    2    3    3    0    0  0.48935372973E+02  0.18401484106E+02  0.14803164201E+03  0.19741844382E+03  0.11969707423E+03 0.  0.
         25    2    3    3    0    0 -0.48935372973E+02 -0.18401484106E+02  0.63603787274E+02  0.15010238782E+03  0.12550697084E+03 0.  0.
          5    1    4    4  502    0  0.34427153194E+02 -0.13237712324E+02  0.15685693441E+03  0.16120376478E+03  0.47000000000E+01 0. -1.
         -5    1    4    4    0  502  0.14508219779E+02  0.31639196430E+02 -0.88252924058E+01  0.36214679039E+02  0.47000000000E+01 0. -1.
          5    1    5    5  503    0  0.28418761754E+02 -0.44951875434E+02  0.17978125398E+02  0.56334715030E+02  0.47000000000E+01 0.  1.
         -5    1    5    5    0  503 -0.77354134727E+02  0.26550391328E+02  0.45625661875E+02  0.93767672791E+02  0.47000000000E+01 0.  1.
<mgrwt>
<rscale>  0 0.27564683E+03</rscale>
<asrwt>0</asrwt>
<pdfrwt beam="1">  1        2 0.10452723E-01 0.27564683E+03</pdfrwt>
<pdfrwt beam="2">  1       -2 0.43012019E-01 0.27564683E+03</pdfrwt>
<totfact> 0.31250620E+03</totfact>
</mgrwt>
</event>
<event>
 9    1  0.8093459E-001  0.2812391E+03  0.7818608E-02  0.1095014E+00
          3   -1    0    0  501    0  0.00000000000E+00  0.00000000000E+00  0.40686406526E+02  0.40686406526E+02  0.00000000000E+00 0. -1.
         -3   -1    0    0    0  501 -0.00000000000E+00 -0.00000000000E+00 -0.48600665908E+03  0.48600665908E+03  0.00000000000E+00 0. -1.
         35    2    1    2    0    0  0.00000000000E+00  0.00000000000E+00 -0.44532025256E+03  0.52669306561E+03  0.28123914739E+03 0.  0.
         25    2    3    3    0    0  0.27300861711E+00 -0.69461355916E+02 -0.20527544812E+03  0.24708714045E+03  0.11869747628E+03 0.  0.
         25    2    3    3    0    0 -0.27300861711E+00  0.69461355916E+02 -0.24004480444E+03  0.27960592516E+03  0.12543129891E+03 0.  0.
          5    1    4    4  502    0 -0.36788691026E+02 -0.58392134337E+02 -0.45899711794E+02  0.83017604654E+02  0.47000000000E+01 0.  1.
         -5    1    4    4    0  502  0.37061699643E+02 -0.11069221579E+02 -0.15937573633E+03  0.16406953580E+03  0.47000000000E+01 0.  1.
          5    1    5    5  503    0 -0.31297542080E+02 -0.22684710008E+02 -0.11323330385E+03  0.11974140182E+03  0.47000000000E+01 0.  1.
         -5    1    5    5    0  503  0.31024533463E+02  0.92146065924E+02 -0.12681150059E+03  0.15986452334E+03  0.47000000000E+01 0.  1.
<mgrwt>
<rscale>  0 0.28123915E+03</rscale>
<asrwt>0</asrwt>
<pdfrwt beam="1">  1        3 0.62594468E-02 0.28123915E+03</pdfrwt>
<pdfrwt beam="2">  1       -3 0.74770260E-01 0.28123915E+03</pdfrwt>
<totfact> 0.69900888E+02</totfact>
</mgrwt>
</event>
<event>
 9    1  0.8093459E-001  0.2754956E+03  0.7818608E-02  0.1098175E+00
          1   -1    0    0  501    0  0.00000000000E+00  0.00000000000E+00  0.37149567603E+02  0.37149567603E+02  0.00000000000E+00 0.  1.
         -1   -1    0    0    0  501 -0.00000000000E+00 -0.00000000000E+00 -0.51075851630E+03  0.51075851630E+03  0.00000000000E+00 0.  1.
         35    2    1    2    0    0  0.71054273576E-14  0.00000000000E+00 -0.47360894869E+03  0.54790808390E+03  0.27549561180E+03 0.  0.
         25    2    3    3    0    0 -0.17968469019E+02  0.42448666976E+02 -0.17261806519E+03  0.21916851408E+03  0.12693733072E+03 0.  0.
         25    2    3    3    0    0  0.17968469019E+02 -0.42448666976E+02 -0.30099088351E+03  0.32873956981E+03  0.12389284726E+03 0.  0.
          5    1    4    4  502    0  0.47214663696E+02 -0.63127718433E+01 -0.96042810767E+02  0.10730977149E+03  0.47000000000E+01 0. -1.
         -5    1    4    4    0  502 -0.65183132715E+02  0.48761438820E+02 -0.76575254419E+02  0.11185874260E+03  0.47000000000E+01 0. -1.
          5    1    5    5  503    0  0.29552172481E+02 -0.83750178555E+02 -0.20865367750E+03  0.22681682134E+03  0.47000000000E+01 0.  1.
         -5    1    5    5    0  503 -0.11583703462E+02  0.41301511578E+02 -0.92337206002E+02  0.10192274848E+03  0.47000000000E+01 0.  1.
<mgrwt>
<rscale>  0 0.27549561E+03</rscale>
<asrwt>0</asrwt>
<pdfrwt beam="1">  1        1 0.57153184E-02 0.27549561E+03</pdfrwt>
<pdfrwt beam="2">  1       -1 0.78578230E-01 0.27549561E+03</pdfrwt>
<totfact> 0.23360594E+03</totfact>
</mgrwt>
</event>
<event>
 9    1  0.8093459E-001  0.2765380E+03  0.7818608E-02  0.1097595E+00
         -1   -1    0    0    0  501 -0.00000000000E+00  0.00000000000E+00  0.55900808582E+01  0.55900808582E+01  0.00000000000E+00 0. -1.
          1   -1    0    0  501    0  0.00000000000E+00 -0.00000000000E+00 -0.34200419079E+04  0.34200419079E+04  0.00000000000E+00 0. -1.
         35    2    1    2    0    0 -0.35527136788E-14  0.00000000000E+00 -0.34144518270E+04  0.34256319888E+04  0.27653795981E+03 0.  0.
         25    2    3    3    0    0 -0.12282497244E+02 -0.22137312889E+02 -0.23151073902E+04  0.23187210768E+04  0.12690265340E+03 0.  0.
         25    2    3    3    0    0  0.12282497244E+02  0.22137312889E+02 -0.10993444368E+04  0.11069109120E+04  0.12669907598E+03 0.  0.
          5    1    4    4  502    0 -0.30566804983E+02 -0.50507892868E+02 -0.21077686316E+04  0.21086005006E+04  0.47000000000E+01 0. -1.
         -5    1    4    4    0  502  0.18284307739E+02  0.28370579980E+02 -0.20733875859E+03  0.21012057617E+03  0.47000000000E+01 0. -1.
          5    1    5    5  503    0 -0.83658668945E+00  0.60024678731E+02 -0.27213716402E+03  0.27871919198E+03  0.47000000000E+01 0.  1.
         -5    1    5    5    0  503  0.13119083933E+02 -0.37887365843E+02 -0.82720727281E+03  0.82819171998E+03  0.47000000000E+01 0.  1.
<mgrwt>
<rscale>  0 0.27653796E+03</rscale>
<asrwt>0</asrwt>
<pdfrwt beam="1">  1        1 0.52616172E+00 0.27653796E+03</pdfrwt>
<pdfrwt beam="2">  1       -1 0.86001011E-03 0.27653796E+03</pdfrwt>
<totfact> 0.84251689E+02</totfact>
</mgrwt>
</event>
<event>
 9    1  0.8093459E-001  0.2692471E+03  0.7818608E-02  0.1101711E+00
         -2   -1    0    0    0  501 -0.00000000000E+00  0.00000000000E+00  0.10730998285E+02  0.10730998285E+02  0.00000000000E+00 0. -1.
          2   -1    0    0  501    0  0.00000000000E+00 -0.00000000000E+00 -0.16888926424E+04  0.16888926424E+04  0.00000000000E+00 0. -1.
         35    2    1    2    0    0  0.00000000000E+00 -0.71054273576E-14 -0.16781616441E+04  0.16996236406E+04  0.26924712848E+03 0.  0.
         25    2    3    3    0    0  0.14538148445E+02 -0.34945075720E+02 -0.60326837409E+03  0.61684525225E+03  0.12301551924E+03 0.  0.
         25    2    3    3    0    0 -0.14538148445E+02  0.34945075720E+02 -0.10748932700E+04  0.10827783884E+04  0.12482379752E+03 0.  0.
          5    1    4    4  502    0 -0.14835011446E+02  0.42473643505E+02 -0.24049747316E+03  0.24471455321E+03  0.47000000000E+01 0. -1.
         -5    1    4    4    0  502  0.29373159891E+02 -0.77418719226E+02 -0.36277090093E+03  0.37213069904E+03  0.47000000000E+01 0. -1.
          5    1    5    5  503    0 -0.19651805468E+02  0.60061196982E+02 -0.26519863862E+03  0.27266453522E+03  0.47000000000E+01 0.  1.
         -5    1    5    5    0  503  0.51136570234E+01 -0.25116121262E+02 -0.80969463138E+03  0.81011385318E+03  0.47000000000E+01 0.  1.
<mgrwt>
<rscale>  0 0.26924713E+03</rscale>
<asrwt>0</asrwt>
<pdfrwt beam="1">  1        2 0.25982970E+00 0.26924713E+03</pdfrwt>
<pdfrwt beam="2">  1       -2 0.16509224E-02 0.26924713E+03</pdfrwt>
<totfact> 0.11094585E+04</totfact>
</mgrwt>
</event>
<event>
 9    1  0.8093459E-001  0.2777675E+03  0.7818608E-02  0.1096915E+00
          1   -1    0    0  501    0  0.00000000000E+00  0.00000000000E+00  0.19008583588E+03  0.19008583588E+03  0.00000000000E+00 0. -1.
         -1   -1    0    0    0  501 -0.00000000000E+00 -0.00000000000E+00 -0.10147361962E+03  0.10147361962E+03  0.00000000000E+00 0. -1.
         35    2    1    2    0    0  0.71054273576E-14 -0.71054273576E-14  0.88612216263E+02  0.29155945549E+03  0.27776751289E+03 0.  0.
         25    2    3    3    0    0  0.38376039279E+02 -0.37770401559E+02  0.20325896120E+02  0.13934852656E+03  0.12690762852E+03 0.  0.
         25    2    3    3    0    0 -0.38376039279E+02  0.37770401559E+02  0.68286320143E+02  0.15221092894E+03  0.12492326342E+03 0.  0.
          5    1    4    4  502    0  0.72319330744E+02  0.61692352823E+01  0.36428499441E+02  0.81346608010E+02  0.47000000000E+01 0.  1.
         -5    1    4    4    0  502 -0.33943291465E+02 -0.43939636841E+02 -0.16102603322E+02  0.58001918546E+02  0.47000000000E+01 0.  1.
          5    1    5    5  503    0  0.99133565978E+01 -0.20632812594E+02  0.72494246223E+02  0.76167534619E+02  0.47000000000E+01 0.  1.
         -5    1    5    5    0  503 -0.48289395877E+02  0.58403214153E+02 -0.42079260798E+01  0.76043394318E+02  0.47000000000E+01 0.  1.
<mgrwt>
<rscale>  0 0.27776751E+03</rscale>
<asrwt>0</asrwt>
<pdfrwt beam="1">  1        1 0.29243975E-01 0.27776751E+03</pdfrwt>
<pdfrwt beam="2">  1       -1 0.15611326E-01 0.27776751E+03</pdfrwt>
<totfact> 0.46882934E+03</totfact>
</mgrwt>
</event>
<event>
 9    1  0.8093459E-001  0.2752550E+03  0.7818608E-02  0.1098309E+00
          2   -1    0    0  501    0  0.00000000000E+00  0.00000000000E+00  0.75327612732E+03  0.75327612732E+03  0.00000000000E+00 0. -1.
         -2   -1    0    0    0  501 -0.00000000000E+00 -0.00000000000E+00 -0.25145269100E+02  0.25145269100E+02  0.00000000000E+00 0. -1.
         35    2    1    2    0    0 -0.35527136788E-14  0.35527136788E-14  0.72813085822E+03  0.77842139642E+03  0.27525501578E+03 0.  0.
         25    2    3    3    0    0 -0.10064310648E+02 -0.10148189362E+02  0.51572486123E+03  0.53115928029E+03  0.12630824381E+03 0.  0.
         25    2    3    3    0    0  0.10064310648E+02  0.10148189362E+02  0.21240599699E+03  0.24726211613E+03  0.12576951307E+03 0.  0.
          5    1    4    4  502    0 -0.27256021005E+02 -0.10252780153E+02  0.21229183891E+02  0.36342515468E+02  0.47000000000E+01 0.  1.
         -5    1    4    4    0  502  0.17191710356E+02  0.10459079055E+00  0.49449567734E+03  0.49481676482E+03  0.47000000000E+01 0.  1.
          5    1    5    5  503    0 -0.49529429006E+02 -0.18207242107E+02  0.13731750952E+03  0.14718307112E+03  0.47000000000E+01 0.  1.
         -5    1    5    5    0  503  0.59593739654E+02  0.28355431469E+02  0.75088487469E+02  0.10007904501E+03  0.47000000000E+01 0.  1.
<mgrwt>
<rscale>  0 0.27525502E+03</rscale>
<asrwt>0</asrwt>
<pdfrwt beam="1">  1        2 0.11588862E+00 0.27525502E+03</pdfrwt>
<pdfrwt beam="2">  1       -2 0.38685035E-02 0.27525502E+03</pdfrwt>
<totfact> 0.11029580E+04</totfact>
</mgrwt>
</event>
<event>
 9    1  0.8093459E-001  0.2737065E+03  0.7818608E-02  0.1099177E+00
         -2   -1    0    0    0  501 -0.00000000000E+00  0.00000000000E+00  0.60165097976E+01  0.60165097976E+01  0.00000000000E+00 0.  1.
          2   -1    0    0  501    0  0.00000000000E+00 -0.00000000000E+00 -0.31129031715E+04  0.31129031715E+04  0.00000000000E+00 0.  1.
         35    2    1    2    0    0  0.00000000000E+00  0.00000000000E+00 -0.31068866617E+04  0.31189196813E+04  0.27370650288E+03 0.  0.
         25    2    3    3    0    0  0.44504819625E+02 -0.35793210526E+02 -0.15642497313E+04  0.15702126965E+04  0.12421295142E+03 0.  0.
         25    2    3    3    0    0 -0.44504819625E+02  0.35793210526E+02 -0.15426369303E+04  0.15487069848E+04  0.12451021249E+03 0.  0.
          5    1    4    4  502    0  0.74119607660E+02 -0.47966102621E+01 -0.13262934638E+04  0.13283799027E+04  0.47000000000E+01 0. -1.
         -5    1    4    4    0  502 -0.29614788035E+02 -0.30996600264E+02 -0.23795626751E+03  0.24183279377E+03  0.47000000000E+01 0. -1.
          5    1    5    5  503    0  0.17142610807E+02 -0.29078616774E+02 -0.79308781558E+03  0.79381975805E+03  0.47000000000E+01 0. -1.
         -5    1    5    5    0  503 -0.61647430432E+02  0.64871827300E+02 -0.74954911477E+03  0.75488722675E+03  0.47000000000E+01 0. -1.
<mgrwt>
<rscale>  0 0.27370650E+03</rscale>
<asrwt>0</asrwt>
<pdfrwt beam="1">  1        2 0.47890837E+00 0.27370650E+03</pdfrwt>
<pdfrwt beam="2">  1       -2 0.92561653E-03 0.27370650E+03</pdfrwt>
<totfact> 0.42534778E+03</totfact>
</mgrwt>
</event>
<event>
 9    1  0.8093459E-001  0.2739905E+03  0.7818608E-02  0.1099017E+00
         -2   -1    0    0    0  501 -0.00000000000E+00  0.00000000000E+00  0.68433115935E+01  0.68433115935E+01  0.00000000000E+00 0.  1.
          2   -1    0    0  501    0  0.00000000000E+00 -0.00000000000E+00 -0.27424875153E+04  0.27424875153E+04  0.00000000000E+00 0.  1.
         35    2    1    2    0    0  0.14210854715E-13  0.00000000000E+00 -0.27356442037E+04  0.27493308269E+04  0.27399048603E+03 0.  0.
         25    2    3    3    0    0  0.49196209979E+02  0.27762144890E+02 -0.14429188933E+04  0.14494171684E+04  0.12491673862E+03 0.  0.
         25    2    3    3    0    0 -0.49196209979E+02 -0.27762144890E+02 -0.12927253104E+04  0.12999136585E+04  0.12428108328E+03 0.  0.
          5    1    4    4  502    0 -0.14287198988E+02  0.91248273603E+01 -0.28829569211E+02  0.33773074930E+02  0.47000000000E+01 0.  1.
         -5    1    4    4    0  502  0.63483408967E+02  0.18637317530E+02 -0.14140893241E+04  0.14156440935E+04  0.47000000000E+01 0.  1.
          5    1    5    5  503    0  0.58097886357E+01  0.49209116146E+01 -0.43623748338E+01  0.99543623252E+01  0.47000000000E+01 0.  1.
         -5    1    5    5    0  503 -0.55005998615E+02 -0.32683056505E+02 -0.12883629356E+04  0.12899592962E+04  0.47000000000E+01 0.  1.
<mgrwt>
<rscale>  0 0.27399049E+03</rscale>
<asrwt>0</asrwt>
<pdfrwt beam="1">  1        2 0.42192139E+00 0.27399049E+03</pdfrwt>
<pdfrwt beam="2">  1       -2 0.10528166E-02 0.27399049E+03</pdfrwt>
<totfact> 0.58125881E+03</totfact>
</mgrwt>
</event>
<event>
 9    1  0.8093459E-001  0.2757298E+03  0.7818608E-02  0.1098044E+00
         -2   -1    0    0    0  501 -0.00000000000E+00  0.00000000000E+00  0.13989030801E+02  0.13989030801E+02  0.00000000000E+00 0.  1.
          2   -1    0    0  501    0  0.00000000000E+00 -0.00000000000E+00 -0.13586886372E+04  0.13586886372E+04  0.00000000000E+00 0.  1.
         35    2    1    2    0    0  0.00000000000E+00 -0.71054273576E-14 -0.13446996064E+04  0.13726776680E+04  0.27572984746E+03 0.  0.
         25    2    3    3    0    0  0.39801022027E+02 -0.33139096224E+02 -0.81195369600E+03  0.82303777026E+03  0.12425798074E+03 0.  0.
         25    2    3    3    0    0 -0.39801022027E+02  0.33139096224E+02 -0.53274591045E+03  0.54963989779E+03  0.12491393472E+03 0.  0.
          5    1    4    4  502    0  0.13011252703E+02  0.48981301076E+01 -0.71742916686E+03  0.71757925265E+03  0.47000000000E+01 0. -1.
         -5    1    4    4    0  502  0.26789769323E+02 -0.38037226331E+02 -0.94524529133E+02  0.10545851760E+03  0.47000000000E+01 0. -1.
          5    1    5    5  503    0  0.16106980652E+02  0.59338558366E+00 -0.41395056243E+03  0.41429089426E+03  0.47000000000E+01 0.  1.
         -5    1    5    5    0  503 -0.55908002679E+02  0.32545710640E+02 -0.11879534802E+03  0.13534900353E+03  0.47000000000E+01 0.  1.
<mgrwt>
<rscale>  0 0.27572985E+03</rscale>
<asrwt>0</asrwt>
<pdfrwt beam="1">  1        2 0.20902912E+00 0.27572985E+03</pdfrwt>
<pdfrwt beam="2">  1       -2 0.21521576E-02 0.27572985E+03</pdfrwt>
<totfact> 0.11290889E+04</totfact>
</mgrwt>
</event>
<event>
 9    1  0.8093459E-001  0.2740409E+03  0.7818608E-02  0.1098989E+00
         -1   -1    0    0    0  501 -0.00000000000E+00  0.00000000000E+00  0.22364801295E+02  0.22364801295E+02  0.00000000000E+00 0.  1.
          1   -1    0    0  501    0  0.00000000000E+00 -0.00000000000E+00 -0.83947091735E+03  0.83947091735E+03  0.00000000000E+00 0.  1.
         35    2    1    2    0    0  0.00000000000E+00  0.00000000000E+00 -0.81710611605E+03  0.86183571864E+03  0.27404087476E+03 0.  0.
         25    2    3    3    0    0  0.24165819411E+02 -0.50561058078E+02 -0.41502342045E+03  0.43696751583E+03  0.12472274432E+03 0.  0.
         25    2    3    3    0    0 -0.24165819411E+02  0.50561058078E+02 -0.40208269560E+03  0.42486820281E+03  0.12530797354E+03 0.  0.
          5    1    4    4  502    0  0.26384847621E+02 -0.58174781236E+02 -0.83117827631E+02  0.10493392505E+03  0.47000000000E+01 0.  1.
         -5    1    4    4    0  502 -0.22190282096E+01  0.76137231579E+01 -0.33190559282E+03  0.33203359078E+03  0.47000000000E+01 0.  1.
          5    1    5    5  503    0 -0.20814835281E+01  0.78396591445E+02 -0.36475038701E+03  0.37311565626E+03  0.47000000000E+01 0. -1.
         -5    1    5    5    0  503 -0.22084335883E+02 -0.27835533367E+02 -0.37332308598E+02  0.51752546550E+02  0.47000000000E+01 0. -1.
<mgrwt>
<rscale>  0 0.27404087E+03</rscale>
<asrwt>0</asrwt>
<pdfrwt beam="1">  1        1 0.12914938E+00 0.27404087E+03</pdfrwt>
<pdfrwt beam="2">  1       -1 0.34407384E-02 0.27404087E+03</pdfrwt>
<totfact> 0.65645159E+03</totfact>
</mgrwt>
</event>
<event>
 9    1  0.8093459E-001  0.2824503E+03  0.7818608E-02  0.1094358E+00
          3   -1    0    0  501    0  0.00000000000E+00  0.00000000000E+00  0.26316281388E+03  0.26316281388E+03  0.00000000000E+00 0. -1.
         -3   -1    0    0    0  501 -0.00000000000E+00 -0.00000000000E+00 -0.75787845099E+02  0.75787845099E+02  0.00000000000E+00 0. -1.
         35    2    1    2    0    0  0.00000000000E+00  0.00000000000E+00  0.18737496878E+03  0.33895065898E+03  0.28245029704E+03 0.  0.
         25    2    3    3    0    0  0.44495899626E+02  0.94124035022E+01  0.15292613679E+03  0.20281231552E+03  0.12521163520E+03 0.  0.
         25    2    3    3    0    0 -0.44495899626E+02 -0.94124035022E+01  0.34448831992E+02  0.13613834346E+03  0.12360601972E+03 0.  0.
          5    1    4    4  502    0  0.34374346872E+02 -0.33226815036E+02  0.48115937940E+01  0.48278964313E+02  0.47000000000E+01 0. -1.
         -5    1    4    4    0  502  0.10121552755E+02  0.42639218539E+02  0.14811454300E+03  0.15453335121E+03  0.47000000000E+01 0. -1.
          5    1    5    5  503    0 -0.52543649538E+02 -0.22350043731E+02  0.73946149390E+02  0.93544014085E+02  0.47000000000E+01 0. -1.
         -5    1    5    5    0  503  0.80477499114E+01  0.12937640228E+02 -0.39497317399E+02  0.42594329376E+02  0.47000000000E+01 0. -1.
<mgrwt>
<rscale>  0 0.28245030E+03</rscale>
<asrwt>0</asrwt>
<pdfrwt beam="1">  1        3 0.40486586E-01 0.28245030E+03</pdfrwt>
<pdfrwt beam="2">  1       -3 0.11659669E-01 0.28245030E+03</pdfrwt>
<totfact> 0.88232249E+02</totfact>
</mgrwt>
</event>
<event>
 9    1  0.8093459E-001  0.2734982E+03  0.7818608E-02  0.1099294E+00
          1   -1    0    0  501    0  0.00000000000E+00  0.00000000000E+00  0.29777277973E+03  0.29777277973E+03  0.00000000000E+00 0. -1.
         -1   -1    0    0    0  501 -0.00000000000E+00 -0.00000000000E+00 -0.62800605597E+02  0.62800605597E+02  0.00000000000E+00 0. -1.
         35    2    1    2    0    0  0.00000000000E+00 -0.71054273576E-14  0.23497217413E+03  0.36057338532E+03  0.27349816012E+03 0.  0.
         25    2    3    3    0    0 -0.45610879420E+02 -0.18190276467E+02  0.15128027804E+03  0.20146683351E+03  0.12366051917E+03 0.  0.
         25    2    3    3    0    0  0.45610879420E+02  0.18190276467E+02  0.83691896090E+02  0.15910655182E+03  0.12609251715E+03 0.  0.
          5    1    4    4  502    0 -0.38742183915E+02 -0.67865618184E+02  0.65871082701E+02  0.10231221082E+03  0.47000000000E+01 0.  1.
         -5    1    4    4    0  502 -0.68686955052E+01  0.49675341716E+02  0.85409195340E+02  0.99154622692E+02  0.47000000000E+01 0.  1.
          5    1    5    5  503    0  0.62961838692E+02 -0.36002784853E+02  0.68846300387E+02  0.10011142155E+03  0.47000000000E+01 0. -1.
         -5    1    5    5    0  503 -0.17350959272E+02  0.54193061320E+02  0.14845595703E+02  0.58995130263E+02  0.47000000000E+01 0. -1.
<mgrwt>
<rscale>  0 0.27349816E+03</rscale>
<asrwt>0</asrwt>
<pdfrwt beam="1">  1        1 0.45811196E-01 0.27349816E+03</pdfrwt>
<pdfrwt beam="2">  1       -1 0.96616318E-02 0.27349816E+03</pdfrwt>
<totfact> 0.56488373E+03</totfact>
</mgrwt>
</event>
<event>
 9    1  0.8093459E-001  0.2646162E+03  0.7818608E-02  0.1104401E+00
          2   -1    0    0  501    0  0.00000000000E+00  0.00000000000E+00  0.18266867148E+03  0.18266867148E+03  0.00000000000E+00 0. -1.
         -2   -1    0    0    0  501 -0.00000000000E+00 -0.00000000000E+00 -0.95831607399E+02  0.95831607399E+02  0.00000000000E+00 0. -1.
         35    2    1    2    0    0  0.35527136788E-14 -0.71054273576E-14  0.86837064083E+02  0.27850027888E+03  0.26461619308E+03 0.  0.
         25    2    3    3    0    0  0.29936631909E+02 -0.31888498147E+02  0.27098307148E+02  0.13535796986E+03  0.12519737821E+03 0.  0.
         25    2    3    3    0    0 -0.29936631909E+02  0.31888498147E+02  0.59738756935E+02  0.14314230902E+03  0.12250682964E+03 0.  0.
          5    1    4    4  502    0  0.76581810655E+02 -0.49654174995E+01  0.53073318955E+01  0.77069363991E+02  0.47000000000E+01 0.  1.
         -5    1    4    4    0  502 -0.46645178746E+02 -0.26923080647E+02  0.21790975253E+02  0.58288605870E+02  0.47000000000E+01 0.  1.
          5    1    5    5  503    0 -0.18663928806E+02  0.58772937206E+02 -0.14262337725E+02  0.63467351163E+02  0.47000000000E+01 0.  1.
         -5    1    5    5    0  503 -0.11272703102E+02 -0.26884439059E+02  0.74001094660E+02  0.79674957857E+02  0.47000000000E+01 0.  1.
<mgrwt>
<rscale>  0 0.26461619E+03</rscale>
<asrwt>0</asrwt>
<pdfrwt beam="1">  1        2 0.28102872E-01 0.26461619E+03</pdfrwt>
<pdfrwt beam="2">  1       -2 0.14743324E-01 0.26461619E+03</pdfrwt>
<totfact> 0.65782507E+03</totfact>
</mgrwt>
</event>
<event>
 9    1  0.8093459E-001  0.2800488E+03  0.7818608E-02  0.1095662E+00
          4   -1    0    0  501    0  0.00000000000E+00  0.00000000000E+00  0.42288324195E+03  0.42288324195E+03  0.00000000000E+00 0.  1.
         -4   -1    0    0    0  501 -0.00000000000E+00 -0.00000000000E+00 -0.46364642699E+02  0.46364642699E+02  0.00000000000E+00 0.  1.
         35    2    1    2    0    0 -0.71054273576E-14  0.00000000000E+00  0.37651859925E+03  0.46924788464E+03  0.28004878444E+03 0.  0.
         25    2    3    3    0    0 -0.51178105161E+02 -0.35845808507E+02  0.19064943338E+03  0.23598327526E+03  0.12424483620E+03 0.  0.
         25    2    3    3    0    0  0.51178105161E+02  0.35845808507E+02  0.18586916587E+03  0.23326460938E+03  0.12633649802E+03 0.  0.
          5    1    4    4  502    0 -0.45024858052E+02 -0.39092195182E+01  0.19729206104E+03  0.20245682797E+03  0.47000000000E+01 0.  1.
         -5    1    4    4    0  502 -0.61532471092E+01 -0.31936588988E+02 -0.66426276638E+01  0.33526447299E+02  0.47000000000E+01 0.  1.
          5    1    5    5  503    0  0.76717892082E+02 -0.19923391845E+02  0.10679310897E+03  0.13307679975E+03  0.47000000000E+01 0.  1.
         -5    1    5    5    0  503 -0.25539786921E+02  0.55769200351E+02  0.79076056900E+02  0.10018780963E+03  0.47000000000E+01 0.  1.
<mgrwt>
<rscale>  0 0.28004878E+03</rscale>
<asrwt>0</asrwt>
<pdfrwt beam="1">  1        4 0.65058958E-01 0.28004878E+03</pdfrwt>
<pdfrwt beam="2">  1       -4 0.71330222E-02 0.28004878E+03</pdfrwt>
<totfact> 0.56013519E+02</totfact>
</mgrwt>
</event>
<event>
 9    1  0.8093459E-001  0.2752530E+03  0.7818608E-02  0.1098310E+00
         -1   -1    0    0    0  501 -0.00000000000E+00  0.00000000000E+00  0.79873855366E+01  0.79873855366E+01  0.00000000000E+00 0.  1.
          1   -1    0    0  501    0  0.00000000000E+00 -0.00000000000E+00 -0.23713704633E+04  0.23713704633E+04  0.00000000000E+00 0.  1.
         35    2    1    2    0    0  0.00000000000E+00  0.00000000000E+00 -0.23633830778E+04  0.23793578489E+04  0.27525297558E+03 0.  0.
         25    2    3    3    0    0  0.27765160127E+02 -0.35238204893E+02 -0.86906919512E+03  0.87912159555E+03  0.12474325093E+03 0.  0.
         25    2    3    3    0    0 -0.27765160127E+02  0.35238204893E+02 -0.14943138827E+04  0.15002362533E+04  0.12538819968E+03 0.  0.
          5    1    4    4  502    0  0.14184774700E+02 -0.66628709593E+02 -0.25200314513E+03  0.26109053589E+03  0.47000000000E+01 0. -1.
         -5    1    4    4    0  502  0.13580385427E+02  0.31390504700E+02 -0.61706604999E+03  0.61803105966E+03  0.47000000000E+01 0. -1.
          5    1    5    5  503    0  0.42195633177E+02  0.15640222899E+02 -0.94973502782E+03  0.95081217972E+03  0.47000000000E+01 0.  1.
         -5    1    5    5    0  503 -0.69960793304E+02  0.19597981994E+02 -0.54457885485E+03  0.54942407360E+03  0.47000000000E+01 0.  1.
<mgrwt>
<rscale>  0 0.27525298E+03</rscale>
<asrwt>0</asrwt>
<pdfrwt beam="1">  1        1 0.36482670E+00 0.27525298E+03</pdfrwt>
<pdfrwt beam="2">  1       -1 0.12288269E-02 0.27525298E+03</pdfrwt>
<totfact> 0.26915229E+03</totfact>
</mgrwt>
</event>
<event>
 9    1  0.8093459E-001  0.2744044E+03  0.7818608E-02  0.1098785E+00
          2   -1    0    0  501    0  0.00000000000E+00  0.00000000000E+00  0.33133401123E+04  0.33133401123E+04  0.00000000000E+00 0.  1.
         -2   -1    0    0    0  501 -0.00000000000E+00 -0.00000000000E+00 -0.56814087617E+01  0.56814087617E+01  0.00000000000E+00 0.  1.
         35    2    1    2    0    0  0.35527136788E-14  0.71054273576E-14  0.33076587035E+04  0.33190215210E+04  0.27440436982E+03 0.  0.
         25    2    3    3    0    0  0.57961498482E+01 -0.47430271259E+02  0.20783442779E+04  0.20825558703E+04  0.12345359252E+03 0.  0.
         25    2    3    3    0    0 -0.57961498482E+01  0.47430271259E+02  0.12293144256E+04  0.12364656507E+04  0.12389561096E+03 0.  0.
          5    1    4    4  502    0 -0.23080169491E+02 -0.66591808122E+02  0.65786543232E+03  0.66164656741E+03  0.47000000000E+01 0.  1.
         -5    1    4    4    0  502  0.28876319340E+02  0.19161536862E+02  0.14204788456E+04  0.14209093029E+04  0.47000000000E+01 0.  1.
          5    1    5    5  503    0  0.48034109759E+02  0.59615494913E+02  0.65041070442E+03  0.65491790123E+03  0.47000000000E+01 0. -1.
         -5    1    5    5    0  503 -0.53830259608E+02 -0.12185223654E+02  0.57890372117E+03  0.58154774946E+03  0.47000000000E+01 0. -1.
<mgrwt>
<rscale>  0 0.27440437E+03</rscale>
<asrwt>0</asrwt>
<pdfrwt beam="1">  1        2 0.50974309E+00 0.27440437E+03</pdfrwt>
<pdfrwt beam="2">  1       -2 0.87406553E-03 0.27440437E+03</pdfrwt>
<totfact> 0.34729211E+03</totfact>
</mgrwt>
</event>
<event>
 9    1  0.8093459E-001  0.2685717E+03  0.7818608E-02  0.1102100E+00
         -2   -1    0    0    0  501 -0.00000000000E+00  0.00000000000E+00  0.51662175571E+02  0.51662175571E+02  0.00000000000E+00 0. -1.
          2   -1    0    0  501    0  0.00000000000E+00 -0.00000000000E+00 -0.34905002593E+03  0.34905002593E+03  0.00000000000E+00 0. -1.
         35    2    1    2    0    0  0.00000000000E+00 -0.71054273576E-14 -0.29738785036E+03  0.40071220150E+03  0.26857165690E+03 0.  0.
         25    2    3    3    0    0  0.43015177765E+02 -0.99740182373E+01 -0.17773445578E+03  0.22186162268E+03  0.12523280836E+03 0.  0.
         25    2    3    3    0    0 -0.43015177765E+02  0.99740182373E+01 -0.11965339458E+03  0.17885057882E+03  0.12538264693E+03 0.  0.
          5    1    4    4  502    0 -0.14623564023E+02 -0.39875065027E+02 -0.12899346405E+02  0.44635776831E+02  0.47000000000E+01 0. -1.
         -5    1    4    4    0  502  0.57638741788E+02  0.29901046790E+02 -0.16483510938E+03  0.17722584585E+03  0.47000000000E+01 0. -1.
          5    1    5    5  503    0 -0.46592242311E+02  0.50188261803E+02 -0.20419658626E+02  0.71615299516E+02  0.47000000000E+01 0. -1.
         -5    1    5    5    0  503  0.35770645465E+01 -0.40214243566E+02 -0.99233735951E+02  0.10723527930E+03  0.47000000000E+01 0. -1.
<mgrwt>
<rscale>  0 0.26857166E+03</rscale>
<asrwt>0</asrwt>
<pdfrwt beam="1">  1        2 0.53700003E-01 0.26857166E+03</pdfrwt>
<pdfrwt beam="2">  1       -2 0.79480271E-02 0.26857166E+03</pdfrwt>
<totfact> 0.87786716E+03</totfact>
</mgrwt>
</event>
<event>
 9    1  0.8093459E-001  0.2746592E+03  0.7818608E-02  0.1098642E+00
          1   -1    0    0  501    0  0.00000000000E+00  0.00000000000E+00  0.35243331860E+02  0.35243331860E+02  0.00000000000E+00 0. -1.
         -1   -1    0    0    0  501 -0.00000000000E+00 -0.00000000000E+00 -0.53512030802E+03  0.53512030802E+03  0.00000000000E+00 0. -1.
         35    2    1    2    0    0  0.00000000000E+00  0.00000000000E+00 -0.49987697616E+03  0.57036363988E+03  0.27465922596E+03 0.  0.
         25    2    3    3    0    0  0.33871353456E+02  0.37415413486E+02 -0.30140453335E+03  0.33038135648E+03  0.12553870414E+03 0.  0.
         25    2    3    3    0    0 -0.33871353456E+02 -0.37415413486E+02 -0.19847244281E+03  0.23998228340E+03  0.12511196600E+03 0.  0.
          5    1    4    4  502    0 -0.29470095357E+01  0.67733556624E+02 -0.25414085357E+03  0.26307068063E+03  0.47000000000E+01 0. -1.
         -5    1    4    4    0  502  0.36818362992E+02 -0.30318143138E+02 -0.47263679781E+02  0.67310675849E+02  0.47000000000E+01 0. -1.
          5    1    5    5  503    0  0.27421847527E+02 -0.60586146861E+02 -0.76745878779E+02  0.10165952401E+03  0.47000000000E+01 0.  1.
         -5    1    5    5    0  503 -0.61293200983E+02  0.23170733375E+02 -0.12172656404E+03  0.13832275939E+03  0.47000000000E+01 0.  1.
<mgrwt>
<rscale>  0 0.27465923E+03</rscale>
<asrwt>0</asrwt>
<pdfrwt beam="1">  1        1 0.54220517E-02 0.27465923E+03</pdfrwt>
<pdfrwt beam="2">  1       -1 0.82326192E-01 0.27465923E+03</pdfrwt>
<totfact> 0.22804347E+03</totfact>
</mgrwt>
</event>
<event>
 9    1  0.8093459E-001  0.2706408E+03  0.7818608E-02  0.1100913E+00
         -2   -1    0    0    0  501 -0.00000000000E+00  0.00000000000E+00  0.35262864667E+02  0.35262864667E+02  0.00000000000E+00 0.  1.
          2   -1    0    0  501    0  0.00000000000E+00 -0.00000000000E+00 -0.51928871327E+03  0.51928871327E+03  0.00000000000E+00 0.  1.
         35    2    1    2    0    0  0.35527136788E-14  0.71054273576E-14 -0.48402584860E+03  0.55455157793E+03  0.27064077755E+03 0.  0.
         25    2    3    3    0    0  0.11526159860E+02  0.34703563803E+02 -0.31763166048E+03  0.34375625405E+03  0.12625886409E+03 0.  0.
         25    2    3    3    0    0 -0.11526159860E+02 -0.34703563803E+02 -0.16639418812E+03  0.21079532388E+03  0.12413884576E+03 0.  0.
          5    1    4    4  502    0  0.41982817642E+02  0.71713472467E+02 -0.20599589871E+03  0.22217510976E+03  0.47000000000E+01 0. -1.
         -5    1    4    4    0  502 -0.30456657782E+02 -0.37009908664E+02 -0.11163576177E+03  0.12158114430E+03  0.47000000000E+01 0. -1.
          5    1    5    5  503    0 -0.13978416034E+02  0.10749214967E+02 -0.16395710848E+03  0.16496958858E+03  0.47000000000E+01 0. -1.
         -5    1    5    5    0  503  0.24522561737E+01 -0.45452778771E+02 -0.24370796445E+01  0.45825735297E+02  0.47000000000E+01 0. -1.
<mgrwt>
<rscale>  0 0.27064078E+03</rscale>
<asrwt>0</asrwt>
<pdfrwt beam="1">  1        2 0.79890567E-01 0.27064078E+03</pdfrwt>
<pdfrwt beam="2">  1       -2 0.54250564E-02 0.27064078E+03</pdfrwt>
<totfact> 0.10238605E+04</totfact>
</mgrwt>
</event>
<event>
 9    1  0.8093459E-001  0.2736692E+03  0.7818608E-02  0.1099198E+00
         -1   -1    0    0    0  501 -0.00000000000E+00  0.00000000000E+00  0.20854173816E+02  0.20854173816E+02  0.00000000000E+00 0.  1.
          1   -1    0    0  501    0  0.00000000000E+00 -0.00000000000E+00 -0.89783969937E+03  0.89783969937E+03  0.00000000000E+00 0.  1.
         35    2    1    2    0    0  0.00000000000E+00  0.00000000000E+00 -0.87698552555E+03  0.91869387319E+03  0.27366918095E+03 0.  0.
         25    2    3    3    0    0 -0.26194270662E+02  0.81263791984E+01 -0.61637000411E+03  0.62941356373E+03  0.12448804918E+03 0.  0.
         25    2    3    3    0    0  0.26194270662E+02 -0.81263791984E+01 -0.26061552145E+03  0.28928030946E+03  0.12251722151E+03 0.  0.
          5    1    4    4  502    0 -0.41571072046E+02  0.33417385917E+02 -0.11186431993E+03  0.12401851388E+03  0.47000000000E+01 0. -1.
         -5    1    4    4    0  502  0.15376801384E+02 -0.25291006719E+02 -0.50450568418E+03  0.50539504985E+03  0.47000000000E+01 0. -1.
          5    1    5    5  503    0 -0.60098640138E+01  0.28626805059E+02 -0.22895703703E+03  0.23086582085E+03  0.47000000000E+01 0. -1.
         -5    1    5    5    0  503  0.32204134675E+02 -0.36753184257E+02 -0.31658484419E+02  0.58414488605E+02  0.47000000000E+01 0. -1.
<mgrwt>
<rscale>  0 0.27366918E+03</rscale>
<asrwt>0</asrwt>
<pdfrwt beam="1">  1        1 0.13812919E+00 0.27366918E+03</pdfrwt>
<pdfrwt beam="2">  1       -1 0.32083344E-02 0.27366918E+03</pdfrwt>
<totfact> 0.65378621E+03</totfact>
</mgrwt>
</event>
<event>
 9    1  0.8093459E-001  0.2804328E+03  0.7818608E-02  0.1095453E+00
         -2   -1    0    0    0  501 -0.00000000000E+00  0.00000000000E+00  0.51727939496E+03  0.51727939496E+03  0.00000000000E+00 0. -1.
          2   -1    0    0  501    0  0.00000000000E+00 -0.00000000000E+00 -0.38007772447E+02  0.38007772447E+02  0.00000000000E+00 0. -1.
         35    2    1    2    0    0  0.14210854715E-13 -0.71054273576E-14  0.47927162251E+03  0.55528716740E+03  0.28043279077E+03 0.  0.
         25    2    3    3    0    0 -0.54851478342E+02  0.79070472878E+00  0.28865838945E+03  0.31934321824E+03  0.12508843010E+03 0.  0.
         25    2    3    3    0    0  0.54851478342E+02 -0.79070472878E+00  0.19061323306E+03  0.23594394916E+03  0.12777649486E+03 0.  0.
          5    1    4    4  502    0 -0.46062878937E+01  0.58888457810E+02  0.11389447770E+03  0.12838656628E+03  0.47000000000E+01 0.  1.
         -5    1    4    4    0  502 -0.50245190448E+02 -0.58097753081E+02  0.17476391175E+03  0.19095665196E+03  0.47000000000E+01 0.  1.
          5    1    5    5  503    0  0.50055912507E+02  0.59088563794E+02  0.12253030705E+03  0.14502695920E+03  0.47000000000E+01 0.  1.
         -5    1    5    5    0  503  0.47955658341E+01 -0.59879268523E+02  0.68082926004E+02  0.90916989962E+02  0.47000000000E+01 0.  1.
<mgrwt>
<rscale>  0 0.28043279E+03</rscale>
<asrwt>0</asrwt>
<pdfrwt beam="1">  1        2 0.58473500E-02 0.28043279E+03</pdfrwt>
<pdfrwt beam="2">  1       -2 0.79581440E-01 0.28043279E+03</pdfrwt>
<totfact> 0.18398418E+03</totfact>
</mgrwt>
</event>
<event>
 8    1  0.8093459E-001  0.3550916E+03  0.7818608E-02  0.1060544E+00
          2   -1    0    0  501    0  0.00000000000E+00  0.00000000000E+00  0.11648069285E+04  0.11648069285E+04  0.00000000000E+00 0.  1.
         -2   -1    0    0    0  501 -0.00000000000E+00 -0.00000000000E+00 -0.27062430706E+02  0.27062430706E+02  0.00000000000E+00 0.  1.
         25    2    1    2    0    0  0.47000371257E+02 -0.96378787408E+02  0.79171601442E+03  0.80883619196E+03  0.12611039756E+03 0.  0.
         25    2    1    2    0    0 -0.47000371257E+02  0.96378787408E+02  0.34602848337E+03  0.38303316724E+03  0.12442182423E+03 0.  0.
          5    1    3    3  502    0  0.67697554534E+01 -0.10730055166E+03  0.69681842925E+03  0.70507960637E+03  0.47000000000E+01 0.  1.
         -5    1    3    3    0  502  0.40230615803E+02  0.10921764248E+02  0.94897585162E+02  0.10375658558E+03  0.47000000000E+01 0.  1.
          5    1    4    4  503    0  0.32694076760E+02  0.60323227041E+02  0.21236149147E+03  0.22322026663E+03  0.47000000000E+01 0. -1.
         -5    1    4    4    0  503 -0.79694448017E+02  0.36055560367E+02  0.13366699190E+03  0.15981290061E+03  0.47000000000E+01 0. -1.
<mgrwt>
<rscale>  0 0.35509158E+03</rscale>
<asrwt>0</asrwt>
<pdfrwt beam="1">  1        2 0.17920103E+00 0.35509158E+03</pdfrwt>
<pdfrwt beam="2">  1       -2 0.41634518E-02 0.35509158E+03</pdfrwt>
<totfact> 0.54370731E+03</totfact>
</mgrwt>
</event>
<event>
 9    1  0.8093459E-001  0.2717590E+03  0.7818608E-02  0.1100277E+00
          2   -1    0    0  501    0  0.00000000000E+00  0.00000000000E+00  0.41981594766E+03  0.41981594766E+03  0.00000000000E+00 0.  1.
         -2   -1    0    0    0  501 -0.00000000000E+00 -0.00000000000E+00 -0.43979363002E+02  0.43979363002E+02  0.00000000000E+00 0.  1.
         35    2    1    2    0    0  0.00000000000E+00  0.00000000000E+00  0.37583658466E+03  0.46379531067E+03  0.27175899585E+03 0.  0.
         25    2    3    3    0    0 -0.51894613777E+02 -0.11415236217E+02  0.17924660685E+03  0.22494651404E+03  0.12509288370E+03 0.  0.
         25    2    3    3    0    0  0.51894613777E+02  0.11415236217E+02  0.19658997781E+03  0.23884879663E+03  0.12481093589E+03 0.  0.
          5    1    4    4  502    0 -0.54379777807E+02  0.41609870968E+02  0.14807605306E+03  0.16320891240E+03  0.47000000000E+01 0. -1.
         -5    1    4    4    0  502  0.24851640303E+01 -0.53025107185E+02  0.31170553786E+02  0.61737601634E+02  0.47000000000E+01 0. -1.
          5    1    5    5  503    0  0.18127485073E+02  0.66664092041E+02  0.11900837512E+03  0.13768729147E+03  0.47000000000E+01 0.  1.
         -5    1    5    5    0  503  0.33767128704E+02 -0.55248855824E+02  0.77581602692E+02  0.10116150516E+03  0.47000000000E+01 0.  1.
<mgrwt>
<rscale>  0 0.27175900E+03</rscale>
<asrwt>0</asrwt>
<pdfrwt beam="1">  1        2 0.64587066E-01 0.27175900E+03</pdfrwt>
<pdfrwt beam="2">  1       -2 0.67660561E-02 0.27175900E+03</pdfrwt>
<totfact> 0.92324492E+03</totfact>
</mgrwt>
</event>
<event>
 9    1  0.8093459E-001  0.2761089E+03  0.7818608E-02  0.1097833E+00
          2   -1    0    0  501    0  0.00000000000E+00  0.00000000000E+00  0.57083876254E+03  0.57083876254E+03  0.00000000000E+00 0.  1.
         -2   -1    0    0    0  501 -0.00000000000E+00 -0.00000000000E+00 -0.33387760321E+02  0.33387760321E+02  0.00000000000E+00 0.  1.
         35    2    1    2    0    0 -0.53290705182E-14  0.35527136788E-14  0.53745100222E+03  0.60422652286E+03  0.27610887552E+03 0.  0.
         25    2    3    3    0    0 -0.71291404471E+01  0.92810031730E+01  0.13961906843E+03  0.18840178500E+03  0.12595549475E+03 0.  0.
         25    2    3    3    0    0  0.71291404471E+01 -0.92810031730E+01  0.39783193379E+03  0.41582473786E+03  0.12042841613E+03 0.  0.
          5    1    4    4  502    0  0.11892574587E+02  0.55745556433E+02  0.12242224042E+03  0.13512325981E+03  0.47000000000E+01 0.  1.
         -5    1    4    4    0  502 -0.19021715034E+02 -0.46464553260E+02  0.17196828004E+02  0.53278525185E+02  0.47000000000E+01 0.  1.
          5    1    5    5  503    0 -0.46031249847E+02 -0.37819312905E+02  0.17508107772E+03  0.18499905450E+03  0.47000000000E+01 0.  1.
         -5    1    5    5    0  503  0.53160390294E+02  0.28538309732E+02  0.22275085607E+03  0.23082568336E+03  0.47000000000E+01 0.  1.
<mgrwt>
<rscale>  0 0.27610888E+03</rscale>
<asrwt>0</asrwt>
<pdfrwt beam="1">  1        2 0.87821341E-01 0.27610888E+03</pdfrwt>
<pdfrwt beam="2">  1       -2 0.51365789E-02 0.27610888E+03</pdfrwt>
<totfact> 0.10000465E+04</totfact>
</mgrwt>
</event>
<event>
 9    1  0.8093459E-001  0.2776024E+03  0.7818608E-02  0.1097006E+00
         -1   -1    0    0    0  501 -0.00000000000E+00  0.00000000000E+00  0.37338415076E+02  0.37338415076E+02  0.00000000000E+00 0.  1.
          1   -1    0    0  501    0  0.00000000000E+00 -0.00000000000E+00 -0.51597733537E+03  0.51597733537E+03  0.00000000000E+00 0.  1.
         35    2    1    2    0    0 -0.35527136788E-14 -0.71054273576E-14 -0.47863892029E+03  0.55331575044E+03  0.27760242015E+03 0.  0.
         25    2    3    3    0    0 -0.19052499453E+02  0.54785667466E+02 -0.28031116391E+03  0.31231421389E+03  0.12490537415E+03 0.  0.
         25    2    3    3    0    0  0.19052499453E+02 -0.54785667466E+02 -0.19832775638E+03  0.24100153655E+03  0.12402973262E+03 0.  0.
          5    1    4    4  502    0 -0.96821119137E+01 -0.21178991366E+02 -0.19950065927E+03  0.20091016902E+03  0.47000000000E+01 0. -1.
         -5    1    4    4    0  502 -0.93703875390E+01  0.75964658832E+02 -0.80810504642E+02  0.11140404488E+03  0.47000000000E+01 0. -1.
          5    1    5    5  503    0 -0.18819683695E+01 -0.25359283749E+02  0.11309462233E+02  0.28224617149E+02  0.47000000000E+01 0.  1.
         -5    1    5    5    0  503  0.20934467822E+02 -0.29426383717E+02 -0.20963721862E+03  0.21277691941E+03  0.47000000000E+01 0.  1.
<mgrwt>
<rscale>  0 0.27760242E+03</rscale>
<asrwt>0</asrwt>
<pdfrwt beam="1">  1        1 0.79381124E-01 0.27760242E+03</pdfrwt>
<pdfrwt beam="2">  1       -1 0.57443718E-02 0.27760242E+03</pdfrwt>
<totfact> 0.61520479E+03</totfact>
</mgrwt>
</event>
<event>
 9    1  0.8093459E-001  0.2743102E+03  0.7818608E-02  0.1098838E+00
         -1   -1    0    0    0  501 -0.00000000000E+00  0.00000000000E+00  0.65924391177E+02  0.65924391177E+02  0.00000000000E+00 0. -1.
          1   -1    0    0  501    0  0.00000000000E+00 -0.00000000000E+00 -0.28534986428E+03  0.28534986428E+03  0.00000000000E+00 0. -1.
         35    2    1    2    0    0  0.00000000000E+00 -0.35527136788E-14 -0.21942547310E+03  0.35127425545E+03  0.27431016077E+03 0.  0.
         25    2    3    3    0    0 -0.21422629952E+02 -0.46641005525E+01 -0.48562115186E+02  0.13860785743E+03  0.12795771256E+03 0.  0.
         25    2    3    3    0    0  0.21422629952E+02  0.46641005525E+01 -0.17086335791E+03  0.21266639802E+03  0.12470776584E+03 0.  0.
          5    1    4    4  502    0 -0.54524129361E+02 -0.29734760791E+02  0.13556487972E+02  0.63740921298E+02  0.47000000000E+01 0.  1.
         -5    1    4    4    0  502  0.33101499409E+02  0.25070660238E+02 -0.62118603158E+02  0.74866936135E+02  0.47000000000E+01 0.  1.
          5    1    5    5  503    0 -0.27742429873E+02  0.48627919918E+02 -0.51511303337E+02  0.76222184319E+02  0.47000000000E+01 0.  1.
         -5    1    5    5    0  503  0.49165059825E+02 -0.43963819366E+02 -0.11935205458E+03  0.13644421370E+03  0.47000000000E+01 0.  1.
<mgrwt>
<rscale>  0 0.27431016E+03</rscale>
<asrwt>0</asrwt>
<pdfrwt beam="1">  1        1 0.43899980E-01 0.27431016E+03</pdfrwt>
<pdfrwt beam="2">  1       -1 0.10142214E-01 0.27431016E+03</pdfrwt>
<totfact> 0.55296009E+03</totfact>
</mgrwt>
</event>
<event>
 9    1  0.8093459E-001  0.2738252E+03  0.7818608E-02  0.1099110E+00
          1   -1    0    0  501    0  0.00000000000E+00  0.00000000000E+00  0.87754847044E+02  0.87754847044E+02  0.00000000000E+00 0. -1.
         -1   -1    0    0    0  501 -0.00000000000E+00 -0.00000000000E+00 -0.21360707379E+03  0.21360707379E+03  0.00000000000E+00 0. -1.
         35    2    1    2    0    0 -0.35527136788E-14 -0.71054273576E-14 -0.12585222674E+03  0.30136192083E+03  0.27382517114E+03 0.  0.
         25    2    3    3    0    0  0.16208472676E+02  0.45882845340E+02 -0.31402220673E+02  0.13709133367E+03  0.12425773305E+03 0.  0.
         25    2    3    3    0    0 -0.16208472676E+02 -0.45882845340E+02 -0.94450006070E+02  0.16427058716E+03  0.12528396576E+03 0.  0.
          5    1    4    4  502    0  0.62767861368E+02 -0.64135258623E+01 -0.14792445341E+02  0.64975719880E+02  0.47000000000E+01 0. -1.
         -5    1    4    4    0  502 -0.46559388692E+02  0.52296371202E+02 -0.16609775333E+02  0.72115613794E+02  0.47000000000E+01 0. -1.
          5    1    5    5  503    0 -0.82634069255E+01  0.71444772338E+01  0.28050238323E+02  0.30466921717E+02  0.47000000000E+01 0. -1.
         -5    1    5    5    0  503 -0.79450657506E+01 -0.53027322574E+02 -0.12250024439E+03  0.13380366544E+03  0.47000000000E+01 0. -1.
<mgrwt>
<rscale>  0 0.27382517E+03</rscale>
<asrwt>0</asrwt>
<pdfrwt beam="1">  1        1 0.13500746E-01 0.27382517E+03</pdfrwt>
<pdfrwt beam="2">  1       -1 0.32862627E-01 0.27382517E+03</pdfrwt>
<totfact> 0.37213408E+03</totfact>
</mgrwt>
</event>
<event>
 9    1  0.8093459E-001  0.2738195E+03  0.7818608E-02  0.1099113E+00
         -1   -1    0    0    0  501 -0.00000000000E+00  0.00000000000E+00  0.13135015445E+03  0.13135015445E+03  0.00000000000E+00 0.  1.
          1   -1    0    0  501    0  0.00000000000E+00 -0.00000000000E+00 -0.14270462968E+03  0.14270462968E+03  0.00000000000E+00 0.  1.
         35    2    1    2    0    0  0.00000000000E+00 -0.35527136788E-14 -0.11354475233E+02  0.27405478412E+03  0.27381946716E+03 0.  0.
         25    2    3    3    0    0 -0.46216016526E+02 -0.23382617082E+02  0.16873631509E+02  0.13609827886E+03  0.12472110929E+03 0.  0.
         25    2    3    3    0    0  0.46216016526E+02  0.23382617082E+02 -0.28228106742E+02  0.13795650527E+03  0.12470968034E+03 0.  0.
          5    1    4    4  502    0 -0.64763099811E+02  0.53587527379E+01 -0.34865459151E+02  0.73896316349E+02  0.47000000000E+01 0. -1.
         -5    1    4    4    0  502  0.18547083285E+02 -0.28741369820E+02  0.51739090660E+02  0.62201962508E+02  0.47000000000E+01 0. -1.
          5    1    5    5  503    0  0.73575445354E+02 -0.26136536331E+02 -0.14559013549E+02  0.79564562250E+02  0.47000000000E+01 0.  1.
         -5    1    5    5    0  503 -0.27359428829E+02  0.49519153413E+02 -0.13669093194E+02  0.58391943017E+02  0.47000000000E+01 0.  1.
<mgrwt>
<rscale>  0 0.27381947E+03</rscale>
<asrwt>0</asrwt>
<pdfrwt beam="1">  1        1 0.21954558E-01 0.27381947E+03</pdfrwt>
<pdfrwt beam="2">  1       -1 0.20207716E-01 0.27381947E+03</pdfrwt>
<totfact> 0.44555705E+03</totfact>
</mgrwt>
</event>
<event>
 9    1  0.8093459E-001  0.2759776E+03  0.7818608E-02  0.1097906E+00
          2   -1    0    0  501    0  0.00000000000E+00  0.00000000000E+00  0.43116872287E+03  0.43116872287E+03  0.00000000000E+00 0.  1.
         -2   -1    0    0    0  501 -0.00000000000E+00 -0.00000000000E+00 -0.44161157986E+02  0.44161157986E+02  0.00000000000E+00 0.  1.
         35    2    1    2    0    0  0.00000000000E+00 -0.35527136788E-14  0.38700756488E+03  0.47532988086E+03  0.27597760844E+03 0.  0.
         25    2    3    3    0    0 -0.42459600653E+02 -0.10493763909E+02  0.13139367315E+03  0.18747812845E+03  0.12637568808E+03 0.  0.
         25    2    3    3    0    0  0.42459600653E+02  0.10493763909E+02  0.25561389174E+03  0.28785175240E+03  0.12492891156E+03 0.  0.
          5    1    4    4  502    0 -0.33454853164E+02 -0.60771465177E+02  0.11359325658E+03  0.13318376823E+03  0.47000000000E+01 0.  1.
         -5    1    4    4    0  502 -0.90047474892E+01  0.50277701268E+02  0.17800416571E+02  0.54294360225E+02  0.47000000000E+01 0.  1.
          5    1    5    5  503    0  0.30293983256E+02 -0.18277622886E+02  0.25370666194E+03  0.25620491259E+03  0.47000000000E+01 0.  1.
         -5    1    5    5    0  503  0.12165617396E+02  0.28771386795E+02  0.19072297930E+01  0.31646839814E+02  0.47000000000E+01 0.  1.
<mgrwt>
<rscale>  0 0.27597761E+03</rscale>
<asrwt>0</asrwt>
<pdfrwt beam="1">  1        2 0.66333647E-01 0.27597761E+03</pdfrwt>
<pdfrwt beam="2">  1       -2 0.67940246E-02 0.27597761E+03</pdfrwt>
<totfact> 0.89153179E+03</totfact>
</mgrwt>
</event>
<event>
 9    1  0.8093459E-001  0.2742887E+03  0.7818608E-02  0.1098850E+00
         -1   -1    0    0    0  501 -0.00000000000E+00  0.00000000000E+00  0.23675139117E+04  0.23675139117E+04  0.00000000000E+00 0. -1.
          1   -1    0    0  501    0  0.00000000000E+00 -0.00000000000E+00 -0.79444396716E+01  0.79444396716E+01  0.00000000000E+00 0. -1.
         35    2    1    2    0    0  0.17763568394E-14  0.71054273576E-14  0.23595694720E+04  0.23754583513E+04  0.27428869056E+03 0.  0.
         25    2    3    3    0    0  0.40348199486E+01  0.37761618676E+02  0.15360781701E+04  0.15416002244E+04  0.12471121708E+03 0.  0.
         25    2    3    3    0    0 -0.40348199486E+01 -0.37761618676E+02  0.82349130192E+03  0.83385812694E+03  0.12545609555E+03 0.  0.
          5    1    4    4  502    0 -0.12194530613E+02  0.76990282608E+02  0.68231457791E+03  0.68676887190E+03  0.47000000000E+01 0.  1.
         -5    1    4    4    0  502  0.16229350561E+02 -0.39228663932E+02  0.85376359218E+03  0.85483135250E+03  0.47000000000E+01 0.  1.
          5    1    5    5  503    0 -0.43403612931E+02  0.26245661404E+02  0.44844575650E+03  0.45132958564E+03  0.47000000000E+01 0. -1.
         -5    1    5    5    0  503  0.39368792983E+02 -0.64007280080E+02  0.37504554542E+03  0.38252854130E+03  0.47000000000E+01 0. -1.
<mgrwt>
<rscale>  0 0.27428869E+03</rscale>
<asrwt>0</asrwt>
<pdfrwt beam="1">  1        1 0.12222234E-02 0.27428869E+03</pdfrwt>
<pdfrwt beam="2">  1       -1 0.36423235E+00 0.27428869E+03</pdfrwt>
<totfact> 0.18389936E+02</totfact>
</mgrwt>
</event>
<event>
 9    1  0.8093459E-001  0.2754765E+03  0.7818608E-02  0.1098186E+00
         -2   -1    0    0    0  501 -0.00000000000E+00  0.00000000000E+00  0.12275703666E+02  0.12275703666E+02  0.00000000000E+00 0.  1.
          2   -1    0    0  501    0  0.00000000000E+00 -0.00000000000E+00 -0.15454777798E+04  0.15454777798E+04  0.00000000000E+00 0.  1.
         35    2    1    2    0    0 -0.35527136788E-14 -0.71054273576E-14 -0.15332020762E+04  0.15577534835E+04  0.27547651259E+03 0.  0.
         25    2    3    3    0    0  0.30548413784E+02 -0.46372978168E+02 -0.72207434138E+03  0.73487917593E+03  0.12478938273E+03 0.  0.
         25    2    3    3    0    0 -0.30548413784E+02  0.46372978168E+02 -0.81112773478E+03  0.82287430757E+03  0.12692621964E+03 0.  0.
          5    1    4    4  502    0  0.18352085727E+02 -0.87490491358E+02 -0.39784286787E+03  0.40778967942E+03  0.47000000000E+01 0. -1.
         -5    1    4    4    0  502  0.12196328057E+02  0.41117513190E+02 -0.32423147351E+03  0.32708949651E+03  0.47000000000E+01 0. -1.
          5    1    5    5  503    0 -0.65928811084E+02 -0.14517887276E+02 -0.42367867486E+03  0.42904904931E+03  0.47000000000E+01 0.  1.
         -5    1    5    5    0  503  0.35380397300E+02  0.60890865444E+02 -0.38744905992E+03  0.39382525826E+03  0.47000000000E+01 0.  1.
<mgrwt>
<rscale>  0 0.27547651E+03</rscale>
<asrwt>0</asrwt>
<pdfrwt beam="1">  1        2 0.23776574E+00 0.27547651E+03</pdfrwt>
<pdfrwt beam="2">  1       -2 0.18885704E-02 0.27547651E+03</pdfrwt>
<totfact> 0.10852367E+04</totfact>
</mgrwt>
</event>
<event>
 9    1  0.8093459E-001  0.2757107E+03  0.7818608E-02  0.1098055E+00
          1   -1    0    0  501    0  0.00000000000E+00  0.00000000000E+00  0.23271446847E+03  0.23271446847E+03  0.00000000000E+00 0.  1.
         -1   -1    0    0    0  501 -0.00000000000E+00 -0.00000000000E+00 -0.81662728732E+02  0.81662728732E+02  0.00000000000E+00 0.  1.
         35    2    1    2    0    0  0.17763568394E-14  0.14210854715E-13  0.15105173974E+03  0.31437719721E+03  0.27571070716E+03 0.  0.
         25    2    3    3    0    0  0.14801998607E+02 -0.52797911431E+02  0.54026099088E+02  0.14549683143E+03  0.12346574407E+03 0.  0.
         25    2    3    3    0    0 -0.14801998607E+02  0.52797911431E+02  0.97025640654E+02  0.16888036578E+03  0.12688531983E+03 0.  0.
          5    1    4    4  502    0 -0.22553169475E+02  0.33629971711E+02  0.18275517487E+02  0.44673314071E+02  0.47000000000E+01 0. -1.
         -5    1    4    4    0  502  0.37355168082E+02 -0.86427883142E+02  0.35750581601E+02  0.10082351735E+03  0.47000000000E+01 0. -1.
          5    1    5    5  503    0 -0.17191729835E+02  0.19001992162E+02 -0.28596743535E+02  0.38684557922E+02  0.47000000000E+01 0. -1.
         -5    1    5    5    0  503  0.23897312282E+01  0.33795919269E+02  0.12562238419E+03  0.13019580786E+03  0.47000000000E+01 0. -1.
<mgrwt>
<rscale>  0 0.27571071E+03</rscale>
<asrwt>0</asrwt>
<pdfrwt beam="1">  1        1 0.35802226E-01 0.27571071E+03</pdfrwt>
<pdfrwt beam="2">  1       -1 0.12563497E-01 0.27571071E+03</pdfrwt>
<totfact> 0.51193050E+03</totfact>
</mgrwt>
</event>
<event>
 9    1  0.8093459E-001  0.2765489E+03  0.7818608E-02  0.1097589E+00
         -2   -1    0    0    0  501 -0.00000000000E+00  0.00000000000E+00  0.23435468009E+02  0.23435468009E+02  0.00000000000E+00 0. -1.
          2   -1    0    0  501    0  0.00000000000E+00 -0.00000000000E+00 -0.81584971767E+03  0.81584971767E+03  0.00000000000E+00 0. -1.
         35    2    1    2    0    0  0.00000000000E+00  0.14210854715E-13 -0.79241424966E+03  0.83928518567E+03  0.27654887422E+03 0.  0.
         25    2    3    3    0    0  0.44591654806E+02 -0.40422227035E+02 -0.39705852549E+03  0.42044234285E+03  0.12447457121E+03 0.  0.
         25    2    3    3    0    0 -0.44591654806E+02  0.40422227035E+02 -0.39535572417E+03  0.41884284283E+03  0.12450223387E+03 0.  0.
          5    1    4    4  502    0  0.22285508285E+02 -0.56135992325E+02 -0.38584304093E+03  0.39056988587E+03  0.47000000000E+01 0. -1.
         -5    1    4    4    0  502  0.22306146521E+02  0.15713765289E+02 -0.11215484562E+02  0.29872456982E+02  0.47000000000E+01 0. -1.
          5    1    5    5  503    0  0.12801830261E+02 -0.38352381509E+02 -0.11504549908E+03  0.12203421194E+03  0.47000000000E+01 0. -1.
         -5    1    5    5    0  503 -0.57393485067E+02  0.78774608544E+02 -0.28031022508E+03  0.29680863088E+03  0.47000000000E+01 0. -1.
<mgrwt>
<rscale>  0 0.27654887E+03</rscale>
<asrwt>0</asrwt>
<pdfrwt beam="1">  1        2 0.12551533E+00 0.27654887E+03</pdfrwt>
<pdfrwt beam="2">  1       -2 0.36054569E-02 0.27654887E+03</pdfrwt>
<totfact> 0.11084835E+04</totfact>
</mgrwt>
</event>
<event>
 9    1  0.8093459E-001  0.2753081E+03  0.7818608E-02  0.1098280E+00
         -1   -1    0    0    0  501 -0.00000000000E+00  0.00000000000E+00  0.27092403761E+03  0.27092403761E+03  0.00000000000E+00 0. -1.
          1   -1    0    0  501    0  0.00000000000E+00 -0.00000000000E+00 -0.69940759515E+02  0.69940759515E+02  0.00000000000E+00 0. -1.
         35    2    1    2    0    0  0.71054273576E-14 -0.35527136788E-14  0.20098327809E+03  0.34086479712E+03  0.27530806716E+03 0.  0.
         25    2    3    3    0    0 -0.43518325284E+02 -0.21402467846E+02  0.59108898477E+02  0.14588528079E+03  0.12424469006E+03 0.  0.
         25    2    3    3    0    0  0.43518325284E+02  0.21402467846E+02  0.14187437962E+03  0.19497951633E+03  0.12464654802E+03 0.  0.
          5    1    4    4  502    0 -0.74373894929E+02 -0.58519974153E+01 -0.28298028049E+01  0.74805213084E+02  0.47000000000E+01 0. -1.
         -5    1    4    4    0  502  0.30855569645E+02 -0.15550470431E+02  0.61938701282E+02  0.71080067707E+02  0.47000000000E+01 0. -1.
          5    1    5    5  503    0 -0.40917497210E+02  0.36273785031E+00  0.21760573724E+02  0.46583105580E+02  0.47000000000E+01 0.  1.
         -5    1    5    5    0  503  0.84435822493E+02  0.21039729996E+02  0.12011380589E+03  0.14839641075E+03  0.47000000000E+01 0.  1.
<mgrwt>
<rscale>  0 0.27530807E+03</rscale>
<asrwt>0</asrwt>
<pdfrwt beam="1">  1        1 0.10760117E-01 0.27530807E+03</pdfrwt>
<pdfrwt beam="2">  1       -1 0.41680621E-01 0.27530807E+03</pdfrwt>
<totfact> 0.33173422E+03</totfact>
</mgrwt>
</event>
<event>
 9    1  0.8093459E-001  0.2771492E+03  0.7818608E-02  0.1097256E+00
         -2   -1    0    0    0  501 -0.00000000000E+00  0.00000000000E+00  0.53515217823E+01  0.53515217823E+01  0.00000000000E+00 0. -1.
          2   -1    0    0  501    0  0.00000000000E+00 -0.00000000000E+00 -0.35883111994E+04  0.35883111994E+04  0.00000000000E+00 0. -1.
         35    2    1    2    0    0 -0.71054273576E-14 -0.71054273576E-14 -0.35829596776E+04  0.35936627212E+04  0.27714924171E+03 0.  0.
         25    2    3    3    0    0  0.32501809488E+02  0.41117094259E+02 -0.14069955539E+04  0.14134861239E+04  0.12473792849E+03 0.  0.
         25    2    3    3    0    0 -0.32501809488E+02 -0.41117094259E+02 -0.21759641237E+04  0.21801765973E+04  0.12491254706E+03 0.  0.
          5    1    4    4  502    0 -0.16930904780E+02  0.53443682919E+02 -0.11539274328E+04  0.11552980105E+04  0.47000000000E+01 0. -1.
         -5    1    4    4    0  502  0.49432714268E+02 -0.12326588660E+02 -0.25306812104E+03  0.25818811342E+03  0.47000000000E+01 0. -1.
          5    1    5    5  503    0 -0.77967363138E+02 -0.97481128057E+01 -0.11240824700E+04  0.11268351365E+04  0.47000000000E+01 0.  1.
         -5    1    5    5    0  503  0.45465553651E+02 -0.31368981453E+02 -0.10518816537E+04  0.10533414608E+04  0.47000000000E+01 0.  1.
<mgrwt>
<rscale>  0 0.27714924E+03</rscale>
<asrwt>0</asrwt>
<pdfrwt beam="1">  1        2 0.55204577E+00 0.27714924E+03</pdfrwt>
<pdfrwt beam="2">  1       -2 0.82331418E-03 0.27714924E+03</pdfrwt>
<totfact> 0.25011037E+03</totfact>
</mgrwt>
</event>
<event>
 9    1  0.8093459E-001  0.2754434E+03  0.7818608E-02  0.1098204E+00
         -2   -1    0    0    0  501 -0.00000000000E+00  0.00000000000E+00  0.19852248871E+02  0.19852248871E+02  0.00000000000E+00 0. -1.
          2   -1    0    0  501    0  0.00000000000E+00 -0.00000000000E+00 -0.95542129769E+03  0.95542129769E+03  0.00000000000E+00 0. -1.
         35    2    1    2    0    0 -0.14210854715E-13  0.00000000000E+00 -0.93556904881E+03  0.97527354656E+03  0.27544336172E+03 0.  0.
         25    2    3    3    0    0 -0.42049448770E+02  0.67279718433E+01 -0.56528769434E+03  0.58072801304E+03  0.12602152997E+03 0.  0.
         25    2    3    3    0    0  0.42049448770E+02 -0.67279718433E+01 -0.37028135448E+03  0.39454553351E+03  0.12940044357E+03 0.  0.
          5    1    4    4  502    0 -0.61829592316E+01 -0.33215351682E+02 -0.47017040043E+03  0.47140617731E+03  0.47000000000E+01 0. -1.
         -5    1    4    4    0  502 -0.35866489538E+02  0.39943323526E+02 -0.95117293910E+02  0.10932183573E+03  0.47000000000E+01 0. -1.
          5    1    5    5  503    0  0.87482197517E+02 -0.12269211618E+02 -0.27207689168E+03  0.28609717479E+03  0.47000000000E+01 0.  1.
         -5    1    5    5    0  503 -0.45432748747E+02  0.55412397752E+01 -0.98204462795E+02  0.10844835872E+03  0.47000000000E+01 0.  1.
<mgrwt>
<rscale>  0 0.27544336E+03</rscale>
<asrwt>0</asrwt>
<pdfrwt beam="1">  1        2 0.14698792E+00 0.27544336E+03</pdfrwt>
<pdfrwt beam="2">  1       -2 0.30541916E-02 0.27544336E+03</pdfrwt>
<totfact> 0.11513497E+04</totfact>
</mgrwt>
</event>
<event>
 9    1  0.8093459E-001  0.2769611E+03  0.7818608E-02  0.1097360E+00
          1   -1    0    0  501    0  0.00000000000E+00  0.00000000000E+00  0.59380686599E+02  0.59380686599E+02  0.00000000000E+00 0.  1.
         -1   -1    0    0    0  501 -0.00000000000E+00 -0.00000000000E+00 -0.32294787181E+03  0.32294787181E+03  0.00000000000E+00 0.  1.
         35    2    1    2    0    0 -0.71054273576E-14  0.00000000000E+00 -0.26356718521E+03  0.38232855840E+03  0.27696112625E+03 0.  0.
         25    2    3    3    0    0 -0.36659688530E+00  0.20131063745E+02 -0.54640209385E+02  0.13792872472E+03  0.12503354150E+03 0.  0.
         25    2    3    3    0    0  0.36659688530E+00 -0.20131063745E+02 -0.20892697582E+03  0.24439983368E+03  0.12520145110E+03 0.  0.
          5    1    4    4  502    0  0.26361200428E+02  0.14714763533E+02 -0.88833066900E+02  0.93940624486E+02  0.47000000000E+01 0.  1.
         -5    1    4    4    0  502 -0.26727797313E+02  0.54163002115E+01  0.34192857515E+02  0.43988100235E+02  0.47000000000E+01 0.  1.
          5    1    5    5  503    0 -0.35355378672E+02 -0.52918459740E+02 -0.17143636976E+03  0.18292863379E+03  0.47000000000E+01 0.  1.
         -5    1    5    5    0  503  0.35721975558E+02  0.32787395995E+02 -0.37490606059E+02  0.61471199895E+02  0.47000000000E+01 0.  1.
<mgrwt>
<rscale>  0 0.27696113E+03</rscale>
<asrwt>0</asrwt>
<pdfrwt beam="1">  1        1 0.91354901E-02 0.27696113E+03</pdfrwt>
<pdfrwt beam="2">  1       -1 0.49684289E-01 0.27696113E+03</pdfrwt>
<totfact> 0.30051890E+03</totfact>
</mgrwt>
</event>
<event>
 9    1  0.8093459E-001  0.2729760E+03  0.7818608E-02  0.1099588E+00
         -2   -1    0    0    0  501 -0.00000000000E+00  0.00000000000E+00  0.82407481471E+01  0.82407481471E+01  0.00000000000E+00 0.  1.
          2   -1    0    0  501    0  0.00000000000E+00 -0.00000000000E+00 -0.22605928897E+04  0.22605928897E+04  0.00000000000E+00 0.  1.
         35    2    1    2    0    0 -0.17763568394E-14 -0.35527136788E-14 -0.22523521416E+04  0.22688336378E+04  0.27297601849E+03 0.  0.
         25    2    3    3    0    0 -0.43495480370E+01 -0.28309939848E+02 -0.14978893675E+04  0.15035212795E+04  0.12681998836E+03 0.  0.
         25    2    3    3    0    0  0.43495480370E+01  0.28309939848E+02 -0.75446277409E+03  0.76531235836E+03  0.12517410718E+03 0.  0.
          5    1    4    4  502    0  0.24268003546E+02  0.25755934026E+02 -0.11290329598E+04  0.11295971930E+04  0.47000000000E+01 0.  1.
         -5    1    4    4    0  502 -0.28617551583E+02 -0.54065873874E+02 -0.36885640770E+03  0.37392408652E+03  0.47000000000E+01 0.  1.
          5    1    5    5  503    0  0.15230343395E+02 -0.59785082054E+01 -0.95549437084E+01  0.19521600077E+02  0.47000000000E+01 0. -1.
         -5    1    5    5    0  503 -0.10880795358E+02  0.34288448053E+02 -0.74490783038E+03  0.74579075828E+03  0.47000000000E+01 0. -1.
<mgrwt>
<rscale>  0 0.27297602E+03</rscale>
<asrwt>0</asrwt>
<pdfrwt beam="1">  1        2 0.34778342E+00 0.27297602E+03</pdfrwt>
<pdfrwt beam="2">  1       -2 0.12678078E-02 0.27297602E+03</pdfrwt>
<totfact> 0.81547003E+03</totfact>
</mgrwt>
</event>
<event>
 9    1  0.8093459E-001  0.2826715E+03  0.7818608E-02  0.1094239E+00
          4   -1    0    0  501    0  0.00000000000E+00  0.00000000000E+00  0.60316881100E+02  0.60316881100E+02  0.00000000000E+00 0. -1.
         -4   -1    0    0    0  501 -0.00000000000E+00 -0.00000000000E+00 -0.33118073779E+03  0.33118073779E+03  0.00000000000E+00 0. -1.
         35    2    1    2    0    0  0.00000000000E+00 -0.71054273576E-14 -0.27086385669E+03  0.39149761889E+03  0.28267146431E+03 0.  0.
         25    2    3    3    0    0 -0.37861231015E+02 -0.55459749545E+02 -0.13355921005E+03  0.19428447009E+03  0.12409325564E+03 0.  0.
         25    2    3    3    0    0  0.37861231015E+02  0.55459749545E+02 -0.13730464664E+03  0.19721314880E+03  0.12462424899E+03 0.  0.
          5    1    4    4  502    0  0.38642876348E+01 -0.55137123802E+02 -0.14110872664E+03  0.15162057207E+03  0.47000000000E+01 0.  1.
         -5    1    4    4    0  502 -0.41725518649E+02 -0.32262574394E+00  0.75495165899E+01  0.42663898025E+02  0.47000000000E+01 0.  1.
          5    1    5    5  503    0 -0.42580717818E+02  0.28198888792E+02 -0.27131274331E+02  0.58021469352E+02  0.47000000000E+01 0. -1.
         -5    1    5    5    0  503  0.80441948832E+02  0.27260860753E+02 -0.11017337231E+03  0.13919167944E+03  0.47000000000E+01 0. -1.
<mgrwt>
<rscale>  0 0.28267146E+03</rscale>
<asrwt>0</asrwt>
<pdfrwt beam="1">  1        4 0.92795200E-02 0.28267146E+03</pdfrwt>
<pdfrwt beam="2">  1       -4 0.50950884E-01 0.28267146E+03</pdfrwt>
<totfact> 0.60435390E+02</totfact>
</mgrwt>
</event>
<event>
 9    1  0.8093459E-001  0.2740948E+03  0.7818608E-02  0.1098959E+00
          2   -1    0    0  501    0  0.00000000000E+00  0.00000000000E+00  0.59592224332E+03  0.59592224332E+03  0.00000000000E+00 0. -1.
         -2   -1    0    0    0  501 -0.00000000000E+00 -0.00000000000E+00 -0.31517522383E+02  0.31517522383E+02  0.00000000000E+00 0. -1.
         35    2    1    2    0    0  0.00000000000E+00 -0.35527136788E-14  0.56440472093E+03  0.62743976570E+03  0.27409482040E+03 0.  0.
         25    2    3    3    0    0 -0.19563223936E+02 -0.16542043066E+02  0.40038796117E+03  0.41957147006E+03  0.12277353183E+03 0.  0.
         25    2    3    3    0    0  0.19563223936E+02  0.16542043066E+02  0.16401675976E+03  0.20786829564E+03  0.12510544325E+03 0.  0.
          5    1    4    4  502    0  0.36233124986E+02 -0.17392408779E+02  0.31415537567E+03  0.31675073053E+03  0.47000000000E+01 0. -1.
         -5    1    4    4    0  502 -0.55796348922E+02  0.85036571271E+00  0.86232585498E+02  0.10282073953E+03  0.47000000000E+01 0. -1.
          5    1    5    5  503    0  0.62485578245E+02  0.40914262395E+02  0.74857616604E+02  0.10584978564E+03  0.47000000000E+01 0.  1.
         -5    1    5    5    0  503 -0.42922354308E+02 -0.24372219329E+02  0.89159143160E+02  0.10201851000E+03  0.47000000000E+01 0.  1.
<mgrwt>
<rscale>  0 0.27409482E+03</rscale>
<asrwt>0</asrwt>
<pdfrwt beam="1">  1        2 0.91680337E-01 0.27409482E+03</pdfrwt>
<pdfrwt beam="2">  1       -2 0.48488501E-02 0.27409482E+03</pdfrwt>
<totfact> 0.10384744E+04</totfact>
</mgrwt>
</event>
<event>
 9    1  0.8093459E-001  0.2736773E+03  0.7818608E-02  0.1099193E+00
          2   -1    0    0  501    0  0.00000000000E+00  0.00000000000E+00  0.52203201247E+02  0.52203201247E+02  0.00000000000E+00 0.  1.
         -2   -1    0    0    0  501 -0.00000000000E+00 -0.00000000000E+00 -0.35869102692E+03  0.35869102692E+03  0.00000000000E+00 0.  1.
         35    2    1    2    0    0  0.17763568394E-14  0.00000000000E+00 -0.30648782567E+03  0.41089422816E+03  0.27367732726E+03 0.  0.
         25    2    3    3    0    0 -0.77648152245E+01  0.56129093342E+02 -0.15441949761E+03  0.20604018045E+03  0.12408225999E+03 0.  0.
         25    2    3    3    0    0  0.77648152245E+01 -0.56129093342E+02 -0.15206832806E+03  0.20485404771E+03  0.12501854658E+03 0.  0.
          5    1    4    4  502    0 -0.20525485509E+02  0.34753767921E+02 -0.17100041367E+03  0.17576220132E+03  0.47000000000E+01 0.  1.
         -5    1    4    4    0  502  0.12760670284E+02  0.21375325421E+02  0.16580916056E+02  0.30277979131E+02  0.47000000000E+01 0.  1.
          5    1    5    5  503    0 -0.50692923987E+02 -0.25950318651E+02 -0.11687491908E+03  0.13009622704E+03  0.47000000000E+01 0.  1.
         -5    1    5    5    0  503  0.58457739211E+02 -0.30178774691E+02 -0.35193408982E+02  0.74757820670E+02  0.47000000000E+01 0.  1.
<mgrwt>
<rscale>  0 0.27367733E+03</rscale>
<asrwt>0</asrwt>
<pdfrwt beam="1">  1        2 0.80312620E-02 0.27367733E+03</pdfrwt>
<pdfrwt beam="2">  1       -2 0.55183233E-01 0.27367733E+03</pdfrwt>
<totfact> 0.26511326E+03</totfact>
</mgrwt>
</event>
<event>
 9    1  0.8093459E-001  0.2740029E+03  0.7818608E-02  0.1099010E+00
         -3   -1    0    0    0  501 -0.00000000000E+00  0.00000000000E+00  0.52125254228E+02  0.52125254228E+02  0.00000000000E+00 0. -1.
          3   -1    0    0  501    0  0.00000000000E+00 -0.00000000000E+00 -0.36008257989E+03  0.36008257989E+03  0.00000000000E+00 0. -1.
         35    2    1    2    0    0  0.26645352591E-14  0.71054273576E-14 -0.30795732567E+03  0.41220783412E+03  0.27400289064E+03 0.  0.
         25    2    3    3    0    0  0.50043889338E+00 -0.49587394020E+02 -0.11426247543E+03  0.17562621331E+03  0.12381233147E+03 0.  0.
         25    2    3    3    0    0 -0.50043889338E+00  0.49587394020E+02 -0.19369485023E+03  0.23658162081E+03  0.12646741957E+03 0.  0.
          5    1    4    4  502    0  0.50251756427E+01 -0.78891089176E+02 -0.27520949427E+02  0.83836441951E+02  0.47000000000E+01 0.  1.
         -5    1    4    4    0  502 -0.45247367494E+01  0.29303695157E+02 -0.86741526005E+02  0.91789771359E+02  0.47000000000E+01 0.  1.
          5    1    5    5  503    0 -0.24911791842E+02  0.53483197290E+02 -0.22142417760E+02  0.63193563195E+02  0.47000000000E+01 0.  1.
         -5    1    5    5    0  503  0.24411352948E+02 -0.38958032703E+01 -0.17155243247E+03  0.17338805762E+03  0.47000000000E+01 0.  1.
<mgrwt>
<rscale>  0 0.27400289E+03</rscale>
<asrwt>0</asrwt>
<pdfrwt beam="1">  1        3 0.55397323E-01 0.27400289E+03</pdfrwt>
<pdfrwt beam="2">  1       -3 0.80192695E-02 0.27400289E+03</pdfrwt>
<totfact> 0.87662677E+02</totfact>
</mgrwt>
</event>
<event>
 9    1  0.8093459E-001  0.2729475E+03  0.7818608E-02  0.1099604E+00
          2   -1    0    0  501    0  0.00000000000E+00  0.00000000000E+00  0.35657217289E+03  0.35657217289E+03  0.00000000000E+00 0.  1.
         -2   -1    0    0    0  501 -0.00000000000E+00 -0.00000000000E+00 -0.52233697351E+02  0.52233697351E+02  0.00000000000E+00 0.  1.
         35    2    1    2    0    0  0.71054273576E-14 -0.35527136788E-14  0.30433847554E+03  0.40880587024E+03  0.27294748918E+03 0.  0.
         25    2    3    3    0    0  0.33132733320E+02  0.23602151681E+02  0.97123539581E+02  0.16343614358E+03  0.12499420589E+03 0.  0.
         25    2    3    3    0    0 -0.33132733320E+02 -0.23602151681E+02  0.20721493596E+03  0.24536972666E+03  0.12495372543E+03 0.  0.
          5    1    4    4  502    0 -0.78998398680E+01 -0.45242701292E+02  0.57990052021E+02  0.74123178720E+02  0.47000000000E+01 0. -1.
         -5    1    4    4    0  502  0.41032573188E+02  0.68844852972E+02  0.39133487560E+02  0.89312964858E+02  0.47000000000E+01 0. -1.
          5    1    5    5  503    0  0.36848194430E+02 -0.68959641356E+01  0.16030549270E+02  0.41041591879E+02  0.47000000000E+01 0.  1.
         -5    1    5    5    0  503 -0.69980927749E+02 -0.16706187545E+02  0.19118438669E+03  0.20432813479E+03  0.47000000000E+01 0.  1.
<mgrwt>
<rscale>  0 0.27294749E+03</rscale>
<asrwt>0</asrwt>
<pdfrwt beam="1">  1        2 0.54857256E-01 0.27294749E+03</pdfrwt>
<pdfrwt beam="2">  1       -2 0.80359537E-02 0.27294749E+03</pdfrwt>
<totfact> 0.84382412E+03</totfact>
</mgrwt>
</event>
<event>
 9    1  0.8093459E-001  0.2766295E+03  0.7818608E-02  0.1097544E+00
         -2   -1    0    0    0  501 -0.00000000000E+00  0.00000000000E+00  0.11483082658E+02  0.11483082658E+02  0.00000000000E+00 0.  1.
          2   -1    0    0  501    0  0.00000000000E+00 -0.00000000000E+00 -0.16660130767E+04  0.16660130767E+04  0.00000000000E+00 0.  1.
         35    2    1    2    0    0  0.71054273576E-14  0.00000000000E+00 -0.16545299941E+04  0.16774961594E+04  0.27662946964E+03 0.  0.
         25    2    3    3    0    0 -0.55420197947E+02  0.12157323583E+02 -0.64188209457E+03  0.65625133424E+03  0.12423361662E+03 0.  0.
         25    2    3    3    0    0  0.55420197947E+02 -0.12157323583E+02 -0.10126478995E+04  0.10212448251E+04  0.11944046918E+03 0.  0.
          5    1    4    4  502    0  0.37963686216E+02 -0.11839732530E+02 -0.18743028981E+03  0.19166017916E+03  0.47000000000E+01 0.  1.
         -5    1    4    4    0  502 -0.93383884163E+02  0.23997056114E+02 -0.45445180476E+03  0.46459115508E+03  0.47000000000E+01 0.  1.
          5    1    5    5  503    0  0.40650112150E+01 -0.38386070114E+02 -0.10867856255E+03  0.11542588381E+03  0.47000000000E+01 0. -1.
         -5    1    5    5    0  503  0.51355186732E+02  0.26228746531E+02 -0.90396933694E+03  0.90581894133E+03  0.47000000000E+01 0. -1.
<mgrwt>
<rscale>  0 0.27662947E+03</rscale>
<asrwt>0</asrwt>
<pdfrwt beam="1">  1        2 0.25630981E+00 0.27662947E+03</pdfrwt>
<pdfrwt beam="2">  1       -2 0.17666274E-02 0.27662947E+03</pdfrwt>
<totfact> 0.10333579E+04</totfact>
</mgrwt>
</event>
<event>
 9    1  0.8093459E-001  0.2753039E+03  0.7818608E-02  0.1098282E+00
          2   -1    0    0  501    0  0.00000000000E+00  0.00000000000E+00  0.72568464812E+03  0.72568464812E+03  0.00000000000E+00 0. -1.
         -2   -1    0    0    0  501 -0.00000000000E+00 -0.00000000000E+00 -0.26110592471E+02  0.26110592471E+02  0.00000000000E+00 0. -1.
         35    2    1    2    0    0  0.00000000000E+00  0.00000000000E+00  0.69957405565E+03  0.75179524059E+03  0.27530387654E+03 0.  0.
         25    2    3    3    0    0  0.21397612257E+02  0.37950280550E+02  0.43953934731E+03  0.45992034490E+03  0.12819440009E+03 0.  0.
         25    2    3    3    0    0 -0.21397612257E+02 -0.37950280550E+02  0.26003470834E+03  0.29187489569E+03  0.12519913574E+03 0.  0.
          5    1    4    4  502    0 -0.10237028206E+02  0.80042837117E+02  0.30013373058E+03  0.31082792466E+03  0.47000000000E+01 0.  1.
         -5    1    4    4    0  502  0.31634640462E+02 -0.42092556567E+02  0.13940561673E+03  0.14909242024E+03  0.47000000000E+01 0.  1.
          5    1    5    5  503    0  0.19062322502E+02 -0.73791321168E+02  0.17595903495E+03  0.19181293804E+03  0.47000000000E+01 0. -1.
         -5    1    5    5    0  503 -0.40459934758E+02  0.35841040618E+02  0.84075673390E+02  0.10006195765E+03  0.47000000000E+01 0. -1.
<mgrwt>
<rscale>  0 0.27530388E+03</rscale>
<asrwt>0</asrwt>
<pdfrwt beam="1">  1        2 0.11164378E+00 0.27530388E+03</pdfrwt>
<pdfrwt beam="2">  1       -2 0.40170148E-02 0.27530388E+03</pdfrwt>
<totfact> 0.10914358E+04</totfact>
</mgrwt>
</event>
<event>
 9    1  0.8093459E-001  0.2741023E+03  0.7818608E-02  0.1098954E+00
          2   -1    0    0  501    0  0.00000000000E+00  0.00000000000E+00  0.55619354544E+02  0.55619354544E+02  0.00000000000E+00 0.  1.
         -2   -1    0    0    0  501 -0.00000000000E+00 -0.00000000000E+00 -0.33770642494E+03  0.33770642494E+03  0.00000000000E+00 0.  1.
         35    2    1    2    0    0  0.00000000000E+00  0.14210854715E-13 -0.28208707039E+03  0.39332577948E+03  0.27410226836E+03 0.  0.
         25    2    3    3    0    0  0.36775461670E+02 -0.29101183024E+02 -0.18899360159E+03  0.23111738891E+03  0.12448836324E+03 0.  0.
         25    2    3    3    0    0 -0.36775461670E+02  0.29101183024E+02 -0.93093468807E+02  0.16220839057E+03  0.12428135260E+03 0.  0.
          5    1    4    4  502    0  0.38416986886E+02 -0.75767514748E+02 -0.13505361239E+03  0.15961876266E+03  0.47000000000E+01 0.  1.
         -5    1    4    4    0  502 -0.16415252165E+01  0.46666331724E+02 -0.53939989198E+02  0.71498626255E+02  0.47000000000E+01 0.  1.
          5    1    5    5  503    0 -0.32892624790E+02  0.70346754015E+02 -0.92020577578E+02  0.12050090151E+03  0.47000000000E+01 0. -1.
         -5    1    5    5    0  503 -0.38828368800E+01 -0.41245570991E+02 -0.10728912290E+01  0.41707489066E+02  0.47000000000E+01 0. -1.
<mgrwt>
<rscale>  0 0.27410227E+03</rscale>
<asrwt>0</asrwt>
<pdfrwt beam="1">  1        2 0.85568241E-02 0.27410227E+03</pdfrwt>
<pdfrwt beam="2">  1       -2 0.51954833E-01 0.27410227E+03</pdfrwt>
<totfact> 0.27640734E+03</totfact>
</mgrwt>
</event>
<event>
 9    1  0.8093459E-001  0.2718494E+03  0.7818608E-02  0.1100226E+00
         -3   -1    0    0    0  501 -0.00000000000E+00  0.00000000000E+00  0.17788175699E+03  0.17788175699E+03  0.00000000000E+00 0. -1.
          3   -1    0    0  501    0  0.00000000000E+00 -0.00000000000E+00 -0.10386407546E+03  0.10386407546E+03  0.00000000000E+00 0. -1.
         35    2    1    2    0    0 -0.14210854715E-13  0.00000000000E+00  0.74017681529E+02  0.28174583245E+03  0.27184940118E+03 0.  0.
         25    2    3    3    0    0  0.42810596841E+02  0.32783921456E+02  0.38096046118E+02  0.14079752641E+03  0.12435876329E+03 0.  0.
         25    2    3    3    0    0 -0.42810596841E+02 -0.32783921456E+02  0.35921635410E+02  0.14094830604E+03  0.12517399241E+03 0.  0.
          5    1    4    4  502    0  0.14298400328E+02  0.30788013430E+02 -0.42824690803E+02  0.54848793653E+02  0.47000000000E+01 0.  1.
         -5    1    4    4    0  502  0.28512196513E+02  0.19959080267E+01  0.80920736921E+02  0.85948732758E+02  0.47000000000E+01 0.  1.
          5    1    5    5  503    0  0.39631692013E+02  0.27432616599E+01  0.31549603868E+02  0.50947659422E+02  0.47000000000E+01 0.  1.
         -5    1    5    5    0  503 -0.82442288854E+02 -0.35527183116E+02  0.43720315429E+01  0.90000646617E+02  0.47000000000E+01 0.  1.
<mgrwt>
<rscale>  0 0.27184940E+03</rscale>
<asrwt>0</asrwt>
<pdfrwt beam="1">  1        3 0.15979089E-01 0.27184940E+03</pdfrwt>
<pdfrwt beam="2">  1       -3 0.27366424E-01 0.27184940E+03</pdfrwt>
<totfact> 0.10759430E+03</totfact>
</mgrwt>
</event>
<event>
 9    1  0.8093459E-001  0.2745985E+03  0.7818608E-02  0.1098676E+00
         -2   -1    0    0    0  501 -0.00000000000E+00  0.00000000000E+00  0.64641921405E+01  0.64641921405E+01  0.00000000000E+00 0.  1.
          2   -1    0    0  501    0  0.00000000000E+00 -0.00000000000E+00 -0.29162309642E+04  0.29162309642E+04  0.00000000000E+00 0.  1.
         35    2    1    2    0    0 -0.14210854715E-13 -0.35527136788E-14 -0.29097667720E+04  0.29226951563E+04  0.27459845068E+03 0.  0.
         25    2    3    3    0    0 -0.46824420815E+02  0.12585555253E+02 -0.11543180999E+04  0.11620723737E+04  0.12494400084E+03 0.  0.
         25    2    3    3    0    0  0.46824420815E+02 -0.12585555253E+02 -0.17554486721E+04  0.17606227826E+04  0.12586349598E+03 0.  0.
          5    1    4    4  502    0  0.36495887876E+02 -0.21998345237E+02 -0.31414802371E+03  0.31705984897E+03  0.47000000000E+01 0. -1.
         -5    1    4    4    0  502 -0.83320308691E+02  0.34583900489E+02 -0.84017007617E+03  0.84501252470E+03  0.47000000000E+01 0. -1.
          5    1    5    5  503    0  0.76002464106E+02 -0.32534618316E+02 -0.75286166430E+03  0.75740190884E+03  0.47000000000E+01 0.  1.
         -5    1    5    5    0  503 -0.29178043291E+02  0.19949063063E+02 -0.10025870078E+04  0.10032208738E+04  0.47000000000E+01 0.  1.
<mgrwt>
<rscale>  0 0.27459845E+03</rscale>
<asrwt>0</asrwt>
<pdfrwt beam="1">  1        2 0.44865150E+00 0.27459845E+03</pdfrwt>
<pdfrwt beam="2">  1       -2 0.99448981E-03 0.27459845E+03</pdfrwt>
<totfact> 0.50165396E+03</totfact>
</mgrwt>
</event>
<event>
 9    1  0.8093459E-001  0.2724787E+03  0.7818608E-02  0.1099869E+00
         -2   -1    0    0    0  501 -0.00000000000E+00  0.00000000000E+00  0.34555205391E+02  0.34555205391E+02  0.00000000000E+00 0.  1.
          2   -1    0    0  501    0  0.00000000000E+00 -0.00000000000E+00 -0.53714517406E+03  0.53714517406E+03  0.00000000000E+00 0.  1.
         35    2    1    2    0    0  0.00000000000E+00  0.17763568394E-14 -0.50258996867E+03  0.57170037945E+03  0.27247870973E+03 0.  0.
         25    2    3    3    0    0 -0.21818501522E+01  0.15350928616E+02 -0.13975135815E+03  0.18759553892E+03  0.12418225573E+03 0.  0.
         25    2    3    3    0    0  0.21818501522E+01 -0.15350928616E+02 -0.36283861052E+03  0.38410484053E+03  0.12507701531E+03 0.  0.
          5    1    4    4  502    0 -0.19503017897E+02  0.26959652387E+02  0.10982387730E+02  0.35353831535E+02  0.47000000000E+01 0. -1.
         -5    1    4    4    0  502  0.17321167745E+02 -0.11608723771E+02 -0.15073374588E+03  0.15224170738E+03  0.47000000000E+01 0. -1.
          5    1    5    5  503    0 -0.36741698338E+02  0.39881420615E+02 -0.20983285908E+03  0.21677730245E+03  0.47000000000E+01 0.  1.
         -5    1    5    5    0  503  0.38923548490E+02 -0.55232349231E+02 -0.15300575144E+03  0.16732753808E+03  0.47000000000E+01 0.  1.
<mgrwt>
<rscale>  0 0.27247871E+03</rscale>
<asrwt>0</asrwt>
<pdfrwt beam="1">  1        2 0.82637708E-01 0.27247871E+03</pdfrwt>
<pdfrwt beam="2">  1       -2 0.53161861E-02 0.27247871E+03</pdfrwt>
<totfact> 0.10167055E+04</totfact>
</mgrwt>
</event>
<event>
 9    1  0.8093459E-001  0.2791266E+03  0.7818608E-02  0.1096167E+00
         -4   -1    0    0    0  501 -0.00000000000E+00  0.00000000000E+00  0.64245713086E+02  0.64245713086E+02  0.00000000000E+00 0.  1.
          4   -1    0    0  501    0  0.00000000000E+00 -0.00000000000E+00 -0.30317839334E+03  0.30317839334E+03  0.00000000000E+00 0.  1.
         35    2    1    2    0    0  0.00000000000E+00  0.00000000000E+00 -0.23893268025E+03  0.36742410643E+03  0.27912658112E+03 0.  0.
         25    2    3    3    0    0 -0.57042717734E+02 -0.22412481044E+02 -0.99927057621E+02  0.17105035008E+03  0.12456570340E+03 0.  0.
         25    2    3    3    0    0  0.57042717734E+02  0.22412481044E+02 -0.13900562263E+03  0.19637375635E+03  0.12443431241E+03 0.  0.
          5    1    4    4  502    0 -0.81224756508E+02 -0.20771542842E+02 -0.11479629817E+03  0.14222938563E+03  0.47000000000E+01 0. -1.
         -5    1    4    4    0  502  0.24182038774E+02 -0.16409382022E+01  0.14869240550E+02  0.28820964452E+02  0.47000000000E+01 0. -1.
          5    1    5    5  503    0  0.10294578167E+02 -0.11239786616E+01 -0.14320587420E+03  0.14365672303E+03  0.47000000000E+01 0. -1.
         -5    1    5    5    0  503  0.46748139566E+02  0.23536459706E+02  0.42002515646E+01  0.52717033316E+02  0.47000000000E+01 0. -1.
<mgrwt>
<rscale>  0 0.27912658E+03</rscale>
<asrwt>0</asrwt>
<pdfrwt beam="1">  1        4 0.46642831E-01 0.27912658E+03</pdfrwt>
<pdfrwt beam="2">  1       -4 0.98839557E-02 0.27912658E+03</pdfrwt>
<totfact> 0.64975792E+02</totfact>
</mgrwt>
</event>
<event>
 9    1  0.8093459E-001  0.2612514E+03  0.7818608E-02  0.1106394E+00
         -4   -1    0    0    0  501 -0.00000000000E+00  0.00000000000E+00  0.66783544060E+03  0.66783544060E+03  0.00000000000E+00 0. -1.
          4   -1    0    0  501    0  0.00000000000E+00 -0.00000000000E+00 -0.25549823540E+02  0.25549823540E+02  0.00000000000E+00 0. -1.
         35    2    1    2    0    0 -0.71054273576E-14  0.71054273576E-14  0.64228561706E+03  0.69338526414E+03  0.26125143185E+03 0.  0.
         25    2    3    3    0    0 -0.34901648280E+02  0.35589957202E+01  0.32140128638E+03  0.34659272547E+03  0.12488770539E+03 0.  0.
         25    2    3    3    0    0  0.34901648280E+02 -0.35589957202E+01  0.32088433068E+03  0.34679253867E+03  0.12675772047E+03 0.  0.
          5    1    4    4  502    0  0.59585385809E+01 -0.54294355931E+02  0.18321418682E+03  0.19124044948E+03  0.47000000000E+01 0. -1.
         -5    1    4    4    0  502 -0.40860186861E+02  0.57853351652E+02  0.13818709956E+03  0.15535227598E+03  0.47000000000E+01 0. -1.
          5    1    5    5  503    0  0.50989929946E+02  0.48362032453E+02  0.23240798790E+03  0.24284649880E+03  0.47000000000E+01 0. -1.
         -5    1    5    5    0  503 -0.16088281666E+02 -0.51921028173E+02  0.88476342781E+02  0.10394603987E+03  0.47000000000E+01 0. -1.
<mgrwt>
<rscale>  0 0.26125143E+03</rscale>
<asrwt>0</asrwt>
<pdfrwt beam="1">  1        4 0.39307426E-02 0.26125143E+03</pdfrwt>
<pdfrwt beam="2">  1       -4 0.10274390E+00 0.26125143E+03</pdfrwt>
<totfact> 0.52420432E+02</totfact>
</mgrwt>
</event>
<event>
 9    1  0.8093459E-001  0.2702126E+03  0.7818608E-02  0.1101158E+00
          1   -1    0    0  501    0  0.00000000000E+00  0.00000000000E+00  0.40627163408E+03  0.40627163408E+03  0.00000000000E+00 0.  1.
         -1   -1    0    0    0  501 -0.00000000000E+00 -0.00000000000E+00 -0.44929806922E+02  0.44929806922E+02  0.00000000000E+00 0.  1.
         35    2    1    2    0    0  0.35527136788E-14  0.00000000000E+00  0.36134182716E+03  0.45120144100E+03  0.27021255394E+03 0.  0.
         25    2    3    3    0    0 -0.36218744487E+01 -0.11093832311E+01  0.99072762394E+02  0.16068058867E+03  0.12644560341E+03 0.  0.
         25    2    3    3    0    0  0.36218744487E+01  0.11093832311E+01  0.26226906477E+03  0.29052085233E+03  0.12491178728E+03 0.  0.
          5    1    4    4  502    0 -0.47594421138E+02  0.41446802652E+02  0.36613850036E+02  0.73114501899E+02  0.47000000000E+01 0. -1.
         -5    1    4    4    0  502  0.43972546689E+02 -0.42556185883E+02  0.62458912358E+02  0.87566086770E+02  0.47000000000E+01 0. -1.
          5    1    5    5  503    0  0.21471962311E+02  0.45889516305E+02  0.45025008077E+02  0.67942874715E+02  0.47000000000E+01 0. -1.
         -5    1    5    5    0  503 -0.17850087862E+02 -0.44780133073E+02  0.21724405669E+03  0.22257797762E+03  0.47000000000E+01 0. -1.
<mgrwt>
<rscale>  0 0.27021255E+03</rscale>
<asrwt>0</asrwt>
<pdfrwt beam="1">  1        1 0.62503326E-01 0.27021255E+03</pdfrwt>
<pdfrwt beam="2">  1       -1 0.69122783E-02 0.27021255E+03</pdfrwt>
<totfact> 0.63535279E+03</totfact>
</mgrwt>
</event>
<event>
 9    1  0.8093459E-001  0.2739346E+03  0.7818608E-02  0.1099049E+00
         -1   -1    0    0    0  501 -0.00000000000E+00  0.00000000000E+00  0.20708238264E+02  0.20708238264E+02  0.00000000000E+00 0.  1.
          1   -1    0    0  501    0  0.00000000000E+00 -0.00000000000E+00 -0.90592165555E+03  0.90592165555E+03  0.00000000000E+00 0.  1.
         35    2    1    2    0    0 -0.14210854715E-13  0.71054273576E-14 -0.88521341729E+03  0.92662989382E+03  0.27393460162E+03 0.  0.
         25    2    3    3    0    0  0.48532275602E+02 -0.23076154964E+02 -0.40017866647E+03  0.42290238503E+03  0.12575997563E+03 0.  0.
         25    2    3    3    0    0 -0.48532275602E+02  0.23076154964E+02 -0.48503475082E+03  0.50372750878E+03  0.12487915316E+03 0.  0.
          5    1    4    4  502    0  0.74999834310E+02 -0.10201405678E+02 -0.37856142150E+03  0.38608274200E+03  0.47000000000E+01 0.  1.
         -5    1    4    4    0  502 -0.26467558708E+02 -0.12874749286E+02 -0.21617244969E+02  0.36819643034E+02  0.47000000000E+01 0.  1.
          5    1    5    5  503    0 -0.30640418697E+02 -0.49261476788E+02 -0.16088181026E+03  0.17108645541E+03  0.47000000000E+01 0.  1.
         -5    1    5    5    0  503 -0.17891856905E+02  0.72337631752E+02 -0.32415294056E+03  0.33264105337E+03  0.47000000000E+01 0.  1.
<mgrwt>
<rscale>  0 0.27393460E+03</rscale>
<asrwt>0</asrwt>
<pdfrwt beam="1">  1        1 0.13937254E+00 0.27393460E+03</pdfrwt>
<pdfrwt beam="2">  1       -1 0.31858833E-02 0.27393460E+03</pdfrwt>
<totfact> 0.65104259E+03</totfact>
</mgrwt>
</event>
<event>
 9    1  0.8093459E-001  0.2759867E+03  0.7818608E-02  0.1097901E+00
         -3   -1    0    0    0  501 -0.00000000000E+00  0.00000000000E+00  0.58854261668E+02  0.58854261668E+02  0.00000000000E+00 0.  1.
          3   -1    0    0  501    0  0.00000000000E+00 -0.00000000000E+00 -0.32354768969E+03  0.32354768969E+03  0.00000000000E+00 0.  1.
         35    2    1    2    0    0  0.00000000000E+00  0.00000000000E+00 -0.26469342803E+03  0.38240195136E+03  0.27598666918E+03 0.  0.
         25    2    3    3    0    0 -0.53092568052E+02 -0.14038735726E+02 -0.11396961641E+03  0.17791596480E+03  0.12509640356E+03 0.  0.
         25    2    3    3    0    0  0.53092568052E+02  0.14038735726E+02 -0.15072381162E+03  0.20448598656E+03  0.12681066370E+03 0.  0.
          5    1    4    4  502    0 -0.55598761596E+02 -0.53019712920E+02 -0.11520685034E+03  0.13855331325E+03  0.47000000000E+01 0. -1.
         -5    1    4    4    0  502  0.25061935439E+01  0.38980977194E+02  0.12372339283E+01  0.39362651548E+02  0.47000000000E+01 0. -1.
          5    1    5    5  503    0  0.67058840221E+02 -0.30982093553E+02 -0.13607077961E+03  0.15490037197E+03  0.47000000000E+01 0.  1.
         -5    1    5    5    0  503 -0.13966272169E+02  0.45020829279E+02 -0.14653032007E+02  0.49585614590E+02  0.47000000000E+01 0.  1.
<mgrwt>
<rscale>  0 0.27598667E+03</rscale>
<asrwt>0</asrwt>
<pdfrwt beam="1">  1        3 0.49776568E-01 0.27598667E+03</pdfrwt>
<pdfrwt beam="2">  1       -3 0.90545017E-02 0.27598667E+03</pdfrwt>
<totfact> 0.89243377E+02</totfact>
</mgrwt>
</event>
<event>
 9    1  0.8093459E-001  0.2784212E+03  0.7818608E-02  0.1096554E+00
         -1   -1    0    0    0  501 -0.00000000000E+00  0.00000000000E+00  0.35165897196E+02  0.35165897196E+02  0.00000000000E+00 0.  1.
          1   -1    0    0  501    0  0.00000000000E+00 -0.00000000000E+00 -0.55109063759E+03  0.55109063759E+03  0.00000000000E+00 0.  1.
         35    2    1    2    0    0  0.00000000000E+00  0.00000000000E+00 -0.51592474039E+03  0.58625653478E+03  0.27842123990E+03 0.  0.
         25    2    3    3    0    0  0.40610230813E+02  0.40724571048E+02 -0.30472060640E+03  0.33416119298E+03  0.12450451153E+03 0.  0.
         25    2    3    3    0    0 -0.40610230813E+02 -0.40724571048E+02 -0.21120413399E+03  0.25209534180E+03  0.12504876494E+03 0.  0.
          5    1    4    4  502    0  0.69815184697E+02 -0.69339715468E+01 -0.23138404738E+03  0.24183239518E+03  0.47000000000E+01 0.  1.
         -5    1    4    4    0  502 -0.29204953884E+02  0.47658542595E+02 -0.73336559025E+02  0.92328797800E+02  0.47000000000E+01 0.  1.
          5    1    5    5  503    0 -0.33869517389E+01 -0.80835255992E+02 -0.14464564086E+03  0.16580187415E+03  0.47000000000E+01 0. -1.
         -5    1    5    5    0  503 -0.37223279074E+02  0.40110684945E+02 -0.66558493128E+02  0.86293467651E+02  0.47000000000E+01 0. -1.
<mgrwt>
<rscale>  0 0.27842124E+03</rscale>
<asrwt>0</asrwt>
<pdfrwt beam="1">  1        1 0.84783175E-01 0.27842124E+03</pdfrwt>
<pdfrwt beam="2">  1       -1 0.54101380E-02 0.27842124E+03</pdfrwt>
<totfact> 0.61614370E+03</totfact>
</mgrwt>
</event>
<event>
 9    1  0.8093459E-001  0.2734337E+03  0.7818608E-02  0.1099330E+00
         -4   -1    0    0    0  501 -0.00000000000E+00  0.00000000000E+00  0.70208796770E+02  0.70208796770E+02  0.00000000000E+00 0. -1.
          4   -1    0    0  501    0  0.00000000000E+00 -0.00000000000E+00 -0.26622734781E+03  0.26622734781E+03  0.00000000000E+00 0. -1.
         35    2    1    2    0    0 -0.71054273576E-14 -0.71054273576E-14 -0.19601855104E+03  0.33643614458E+03  0.27343373426E+03 0.  0.
         25    2    3    3    0    0 -0.36869799193E+02 -0.27799429448E+02 -0.13593978945E+03  0.19015776546E+03  0.12469225733E+03 0.  0.
         25    2    3    3    0    0  0.36869799193E+02  0.27799429448E+02 -0.60078761593E+02  0.14627837912E+03  0.12512280461E+03 0.  0.
          5    1    4    4  502    0 -0.64951919078E+02 -0.49318477711E+02 -0.46816075961E+02  0.94153592624E+02  0.47000000000E+01 0. -1.
         -5    1    4    4    0  502  0.28082119885E+02  0.21519048263E+02 -0.89123713491E+02  0.96004172835E+02  0.47000000000E+01 0. -1.
          5    1    5    5  503    0 -0.27979276313E+02  0.22871122356E+02 -0.71338731558E+02  0.80107632352E+02  0.47000000000E+01 0. -1.
         -5    1    5    5    0  503  0.64849075506E+02  0.49283070916E+01  0.11259969965E+02  0.66170746772E+02  0.47000000000E+01 0. -1.
<mgrwt>
<rscale>  0 0.27343373E+03</rscale>
<asrwt>0</asrwt>
<pdfrwt beam="1">  1        4 0.40958053E-01 0.27343373E+03</pdfrwt>
<pdfrwt beam="2">  1       -4 0.10801354E-01 0.27343373E+03</pdfrwt>
<totfact> 0.72359087E+02</totfact>
</mgrwt>
</event>
<event>
 9    1  0.8093459E-001  0.2750262E+03  0.7818608E-02  0.1098437E+00
         -1   -1    0    0    0  501 -0.00000000000E+00  0.00000000000E+00  0.29030971987E+03  0.29030971987E+03  0.00000000000E+00 0.  1.
          1   -1    0    0  501    0  0.00000000000E+00 -0.00000000000E+00 -0.65136805975E+02  0.65136805975E+02  0.00000000000E+00 0.  1.
         35    2    1    2    0    0  0.00000000000E+00 -0.14210854715E-13  0.22517291389E+03  0.35544652584E+03  0.27502616527E+03 0.  0.
         25    2    3    3    0    0  0.44522906452E+02 -0.38493388387E+02  0.12428822375E+03  0.18570337281E+03  0.12479643409E+03 0.  0.
         25    2    3    3    0    0 -0.44522906452E+02  0.38493388387E+02  0.10088469014E+03  0.16974315303E+03  0.12317056120E+03 0.  0.
          5    1    4    4  502    0  0.73871717264E+02  0.15632836908E+02  0.59956476210E+02  0.96531265613E+02  0.47000000000E+01 0. -1.
         -5    1    4    4    0  502 -0.29348810812E+02 -0.54126225295E+02  0.64331747535E+02  0.89172107195E+02  0.47000000000E+01 0. -1.
          5    1    5    5  503    0 -0.13930323297E+02  0.81455642551E+02  0.52512531556E+02  0.98024137746E+02  0.47000000000E+01 0.  1.
         -5    1    5    5    0  503 -0.30592583155E+02 -0.42962254164E+02  0.48372158589E+02  0.71719015285E+02  0.47000000000E+01 0.  1.
<mgrwt>
<rscale>  0 0.27502617E+03</rscale>
<asrwt>0</asrwt>
<pdfrwt beam="1">  1        1 0.10021047E-01 0.27502617E+03</pdfrwt>
<pdfrwt beam="2">  1       -1 0.44663033E-01 0.27502617E+03</pdfrwt>
<totfact> 0.32228348E+03</totfact>
</mgrwt>
</event>
<event>
 9    1  0.8093459E-001  0.2746093E+03  0.7818608E-02  0.1098670E+00
          2   -1    0    0  501    0  0.00000000000E+00  0.00000000000E+00  0.83622297304E+03  0.83622297304E+03  0.00000000000E+00 0.  1.
         -2   -1    0    0    0  501 -0.00000000000E+00 -0.00000000000E+00 -0.22544900709E+02  0.22544900709E+02  0.00000000000E+00 0.  1.
         35    2    1    2    0    0  0.71054273576E-14 -0.10658141036E-13  0.81367807233E+03  0.85876787375E+03  0.27460927805E+03 0.  0.
         25    2    3    3    0    0 -0.41774665956E+02  0.25123899879E+02  0.49866828169E+03  0.51632141953E+03  0.12466523187E+03 0.  0.
         25    2    3    3    0    0  0.41774665956E+02 -0.25123899879E+02  0.31500979064E+03  0.34244645422E+03  0.12514820314E+03 0.  0.
          5    1    4    4  502    0 -0.48658937383E+02  0.69659761964E+02  0.26597277176E+03  0.27925576080E+03  0.47000000000E+01 0. -1.
         -5    1    4    4    0  502  0.68842714270E+01 -0.44535862085E+02  0.23269550993E+03  0.23706565872E+03  0.47000000000E+01 0. -1.
          5    1    5    5  503    0 -0.39651586608E+02 -0.14926233498E+02  0.53987194473E+02  0.68787701909E+02  0.47000000000E+01 0. -1.
         -5    1    5    5    0  503  0.81426252564E+02 -0.10197666382E+02  0.26102259617E+03  0.27365875231E+03  0.47000000000E+01 0. -1.
<mgrwt>
<rscale>  0 0.27460928E+03</rscale>
<asrwt>0</asrwt>
<pdfrwt beam="1">  1        2 0.12864966E+00 0.27460928E+03</pdfrwt>
<pdfrwt beam="2">  1       -2 0.34684469E-02 0.27460928E+03</pdfrwt>
<totfact> 0.11376222E+04</totfact>
</mgrwt>
</event>
<event>
 9    1  0.8093459E-001  0.2756919E+03  0.7818608E-02  0.1098065E+00
         -2   -1    0    0    0  501 -0.00000000000E+00  0.00000000000E+00  0.29323076177E+03  0.29323076177E+03  0.00000000000E+00 0.  1.
          2   -1    0    0  501    0  0.00000000000E+00 -0.00000000000E+00 -0.64800526147E+02  0.64800526147E+02  0.00000000000E+00 0.  1.
         35    2    1    2    0    0  0.39968028887E-14  0.00000000000E+00  0.22843023563E+03  0.35803128792E+03  0.27569191243E+03 0.  0.
         25    2    3    3    0    0 -0.10249073346E+01 -0.55814063720E+02  0.96313789539E+02  0.16704116130E+03  0.12453972606E+03 0.  0.
         25    2    3    3    0    0  0.10249073346E+01  0.55814063720E+02  0.13211644609E+03  0.19099012663E+03  0.12611983586E+03 0.  0.
          5    1    4    4  502    0  0.48638599136E+02 -0.48559254838E+02  0.13664991420E+02  0.70232019385E+02  0.47000000000E+01 0.  1.
         -5    1    4    4    0  502 -0.49663506471E+02 -0.72548088821E+01  0.82648798119E+02  0.96809141911E+02  0.47000000000E+01 0.  1.
          5    1    5    5  503    0 -0.39851622439E+01  0.35743552229E+02 -0.17222468915E+02  0.40152042035E+02  0.47000000000E+01 0. -1.
         -5    1    5    5    0  503  0.50100695785E+01  0.20070511492E+02  0.14933891500E+03  0.15083808459E+03  0.47000000000E+01 0. -1.
<mgrwt>
<rscale>  0 0.27569191E+03</rscale>
<asrwt>0</asrwt>
<pdfrwt beam="1">  1        2 0.99693118E-02 0.27569191E+03</pdfrwt>
<pdfrwt beam="2">  1       -2 0.45112424E-01 0.27569191E+03</pdfrwt>
<totfact> 0.30204182E+03</totfact>
</mgrwt>
</event>
<event>
 9    1  0.8093459E-001  0.2725430E+03  0.7818608E-02  0.1099833E+00
          2   -1    0    0  501    0  0.00000000000E+00  0.00000000000E+00  0.12658109988E+03  0.12658109988E+03  0.00000000000E+00 0.  1.
         -2   -1    0    0    0  501 -0.00000000000E+00 -0.00000000000E+00 -0.14670372420E+03  0.14670372420E+03  0.00000000000E+00 0.  1.
         35    2    1    2    0    0  0.00000000000E+00  0.71054273576E-14 -0.20122624316E+02  0.27328482409E+03  0.27254297838E+03 0.  0.
         25    2    3    3    0    0 -0.40698843690E+02  0.73508736390E+01 -0.44987652786E+02  0.13637486656E+03  0.12191711982E+03 0.  0.
         25    2    3    3    0    0  0.40698843690E+02 -0.73508736390E+01  0.24865028469E+02  0.13690995753E+03  0.12812351700E+03 0.  0.
          5    1    4    4  502    0  0.11137311626E+02  0.50449735633E+02 -0.45186984880E+02  0.68798031500E+02  0.47000000000E+01 0.  1.
         -5    1    4    4    0  502 -0.51836155316E+02 -0.43098861994E+02  0.19933209488E+00  0.67576835058E+02  0.47000000000E+01 0.  1.
          5    1    5    5  503    0  0.86548012204E+01 -0.64473869684E+02 -0.36426899748E+01  0.65323385142E+02  0.47000000000E+01 0.  1.
         -5    1    5    5    0  503  0.32044042470E+02  0.57122996045E+02  0.28507718444E+02  0.71586572385E+02  0.47000000000E+01 0.  1.
<mgrwt>
<rscale>  0 0.27254298E+03</rscale>
<asrwt>0</asrwt>
<pdfrwt beam="1">  1        2 0.19474015E-01 0.27254298E+03</pdfrwt>
<pdfrwt beam="2">  1       -2 0.22569804E-01 0.27254298E+03</pdfrwt>
<totfact> 0.48431621E+03</totfact>
</mgrwt>
</event>
<event>
 9    1  0.8093459E-001  0.2754698E+03  0.7818608E-02  0.1098189E+00
         -2   -1    0    0    0  501 -0.00000000000E+00  0.00000000000E+00  0.46390410091E+02  0.46390410091E+02  0.00000000000E+00 0. -1.
          2   -1    0    0  501    0  0.00000000000E+00 -0.00000000000E+00 -0.40894008149E+03  0.40894008149E+03  0.00000000000E+00 0. -1.
         35    2    1    2    0    0 -0.71054273576E-14  0.00000000000E+00 -0.36254967140E+03  0.45533049158E+03  0.27546976664E+03 0.  0.
         25    2    3    3    0    0  0.59866586085E+02  0.31593838735E+01 -0.18154752367E+03  0.22845504049E+03  0.12505283819E+03 0.  0.
         25    2    3    3    0    0 -0.59866586085E+02 -0.31593838735E+01 -0.18100214773E+03  0.22687545109E+03  0.12295000199E+03 0.  0.
          5    1    4    4  502    0  0.89716778206E+02  0.30944087148E+02 -0.14575472983E+03  0.17399186214E+03  0.47000000000E+01 0.  1.
         -5    1    4    4    0  502 -0.29850192121E+02 -0.27784703275E+02 -0.35792793834E+02  0.54463178352E+02  0.47000000000E+01 0.  1.
          5    1    5    5  503    0 -0.40744194695E+02 -0.34255870261E+00  0.36288001840E+01  0.41176023832E+02  0.47000000000E+01 0. -1.
         -5    1    5    5    0  503 -0.19122391390E+02 -0.28168251709E+01 -0.18463094792E+03  0.18569942726E+03  0.47000000000E+01 0. -1.
<mgrwt>
<rscale>  0 0.27546977E+03</rscale>
<asrwt>0</asrwt>
<pdfrwt beam="1">  1        2 0.62913860E-01 0.27546977E+03</pdfrwt>
<pdfrwt beam="2">  1       -2 0.71369860E-02 0.27546977E+03</pdfrwt>
<totfact> 0.87518994E+03</totfact>
</mgrwt>
</event>
<event>
 9    1  0.8093459E-001  0.2727905E+03  0.7818608E-02  0.1099693E+00
         -1   -1    0    0    0  501 -0.00000000000E+00  0.00000000000E+00  0.94032655591E+02  0.94032655591E+02  0.00000000000E+00 0.  1.
          1   -1    0    0  501    0  0.00000000000E+00 -0.00000000000E+00 -0.19784262152E+03  0.19784262152E+03  0.00000000000E+00 0.  1.
         35    2    1    2    0    0  0.00000000000E+00  0.00000000000E+00 -0.10380996593E+03  0.29187527711E+03  0.27279052103E+03 0.  0.
         25    2    3    3    0    0  0.19923212045E+02  0.55205264996E+02 -0.35966383700E+02  0.13761797617E+03  0.11916614850E+03 0.  0.
         25    2    3    3    0    0 -0.19923212045E+02 -0.55205264996E+02 -0.67843582226E+02  0.15425730094E+03  0.12549106574E+03 0.  0.
          5    1    4    4  502    0  0.57987937920E+02  0.63020739986E+02 -0.45839487754E+02  0.97250003856E+02  0.47000000000E+01 0. -1.
         -5    1    4    4    0  502 -0.38064725875E+02 -0.78154749895E+01  0.98731040538E+01  0.40367972316E+02  0.47000000000E+01 0. -1.
          5    1    5    5  503    0 -0.13426002875E+02  0.11471032931E+02  0.30271699650E+02  0.35359693853E+02  0.47000000000E+01 0.  1.
         -5    1    5    5    0  503 -0.64972091693E+01 -0.66676297927E+02 -0.98115281876E+02  0.11889760708E+03  0.47000000000E+01 0.  1.
<mgrwt>
<rscale>  0 0.27279052E+03</rscale>
<asrwt>0</asrwt>
<pdfrwt beam="1">  1        1 0.30437326E-01 0.27279052E+03</pdfrwt>
<pdfrwt beam="2">  1       -1 0.14466562E-01 0.27279052E+03</pdfrwt>
<totfact> 0.50272427E+03</totfact>
</mgrwt>
</event>
<event>
 9    1  0.8093459E-001  0.2716035E+03  0.7818608E-02  0.1100365E+00
         -1   -1    0    0    0  501 -0.00000000000E+00  0.00000000000E+00  0.45654301104E+02  0.45654301104E+02  0.00000000000E+00 0. -1.
          1   -1    0    0  501    0  0.00000000000E+00 -0.00000000000E+00 -0.40395129791E+03  0.40395129791E+03  0.00000000000E+00 0. -1.
         35    2    1    2    0    0  0.00000000000E+00  0.00000000000E+00 -0.35829699680E+03  0.44960559901E+03  0.27160349178E+03 0.  0.
         25    2    3    3    0    0  0.38786794904E+02  0.20882169186E+02 -0.23229794043E+03  0.26770305934E+03  0.12554725964E+03 0.  0.
         25    2    3    3    0    0 -0.38786794904E+02 -0.20882169186E+02 -0.12599905638E+03  0.18190253967E+03  0.12358111216E+03 0.  0.
          5    1    4    4  502    0  0.83122820618E+02  0.24370249767E+02 -0.13288039234E+03  0.15869026766E+03  0.47000000000E+01 0.  1.
         -5    1    4    4    0  502 -0.44336025714E+02 -0.34880805812E+01 -0.99417548093E+02  0.10901279169E+03  0.47000000000E+01 0.  1.
          5    1    5    5  503    0 -0.49396906389E+02  0.43318527198E+02 -0.59968768470E+02  0.89078012726E+02  0.47000000000E+01 0.  1.
         -5    1    5    5    0  503  0.10610111485E+02 -0.64200696384E+02 -0.66030287906E+02  0.92824526946E+02  0.47000000000E+01 0.  1.
<mgrwt>
<rscale>  0 0.27160349E+03</rscale>
<asrwt>0</asrwt>
<pdfrwt beam="1">  1        1 0.62146353E-01 0.27160349E+03</pdfrwt>
<pdfrwt beam="2">  1       -1 0.70237387E-02 0.27160349E+03</pdfrwt>
<totfact> 0.62480056E+03</totfact>
</mgrwt>
</event>
<event>
 9    1  0.8093459E-001  0.2749518E+03  0.7818608E-02  0.1098479E+00
         -2   -1    0    0    0  501 -0.00000000000E+00  0.00000000000E+00  0.14680172282E+02  0.14680172282E+02  0.00000000000E+00 0.  1.
          2   -1    0    0  501    0  0.00000000000E+00 -0.00000000000E+00 -0.12874248430E+04  0.12874248430E+04  0.00000000000E+00 0.  1.
         35    2    1    2    0    0 -0.35527136788E-14  0.71054273576E-14 -0.12727446707E+04  0.13021050153E+04  0.27495176665E+03 0.  0.
         25    2    3    3    0    0 -0.20450224120E+02  0.49743116792E+02 -0.54756275301E+03  0.56418855418E+03  0.12486459407E+03 0.  0.
         25    2    3    3    0    0  0.20450224120E+02 -0.49743116792E+02 -0.72518191771E+03  0.73791646110E+03  0.12545636874E+03 0.  0.
          5    1    4    4  502    0  0.27377023034E+02  0.62657669325E+02 -0.44436184667E+03  0.44961653182E+03  0.47000000000E+01 0.  1.
         -5    1    4    4    0  502 -0.47827247154E+02 -0.12914552533E+02 -0.10320090634E+03  0.11457202236E+03  0.47000000000E+01 0.  1.
          5    1    5    5  503    0 -0.30512974249E+02 -0.73163400710E+02 -0.38423818890E+03  0.39235825543E+03  0.47000000000E+01 0. -1.
         -5    1    5    5    0  503  0.50963198369E+02  0.23420283918E+02 -0.34094372882E+03  0.34555820567E+03  0.47000000000E+01 0. -1.
<mgrwt>
<rscale>  0 0.27495177E+03</rscale>
<asrwt>0</asrwt>
<pdfrwt beam="1">  1        2 0.19806542E+00 0.27495177E+03</pdfrwt>
<pdfrwt beam="2">  1       -2 0.22584874E-02 0.27495177E+03</pdfrwt>
<totfact> 0.11510226E+04</totfact>
</mgrwt>
</event>
<event>
 9    1  0.8093459E-001  0.2749976E+03  0.7818608E-02  0.1098453E+00
         -2   -1    0    0    0  501 -0.00000000000E+00  0.00000000000E+00  0.21019954940E+02  0.21019954940E+02  0.00000000000E+00 0.  1.
          2   -1    0    0  501    0  0.00000000000E+00 -0.00000000000E+00 -0.89942723751E+03  0.89942723751E+03  0.00000000000E+00 0.  1.
         35    2    1    2    0    0  0.71054273576E-14  0.00000000000E+00 -0.87840728257E+03  0.92044719244E+03  0.27499760002E+03 0.  0.
         25    2    3    3    0    0  0.20763700001E+02 -0.11816324496E+02 -0.25901350426E+03  0.28860365312E+03  0.12503326136E+03 0.  0.
         25    2    3    3    0    0 -0.20763700001E+02  0.11816324496E+02 -0.61939377831E+03  0.63184353932E+03  0.12250244411E+03 0.  0.
          5    1    4    4  502    0  0.30484998683E+02  0.45781731986E+02 -0.61788146364E+02  0.82856304283E+02  0.47000000000E+01 0.  1.
         -5    1    4    4    0  502 -0.97212986818E+01 -0.57598056483E+02 -0.19722535789E+03  0.20574734884E+03  0.47000000000E+01 0.  1.
          5    1    5    5  503    0 -0.68832987873E+02 -0.12842000101E+02 -0.37430611110E+03  0.38082811345E+03  0.47000000000E+01 0.  1.
         -5    1    5    5    0  503  0.48069287872E+02  0.24658324598E+02 -0.24508766721E+03  0.25101542587E+03  0.47000000000E+01 0.  1.
<mgrwt>
<rscale>  0 0.27499760E+03</rscale>
<asrwt>0</asrwt>
<pdfrwt beam="1">  1        2 0.13837342E+00 0.27499760E+03</pdfrwt>
<pdfrwt beam="2">  1       -2 0.32338393E-02 0.27499760E+03</pdfrwt>
<totfact> 0.11476112E+04</totfact>
</mgrwt>
</event>
<event>
 9    1  0.8093459E-001  0.2727817E+03  0.7818608E-02  0.1099698E+00
         -2   -1    0    0    0  501 -0.00000000000E+00  0.00000000000E+00  0.44579779039E+02  0.44579779039E+02  0.00000000000E+00 0. -1.
          2   -1    0    0  501    0  0.00000000000E+00 -0.00000000000E+00 -0.41728492023E+03  0.41728492023E+03  0.00000000000E+00 0. -1.
         35    2    1    2    0    0  0.00000000000E+00  0.71054273576E-14 -0.37270514119E+03  0.46186469927E+03  0.27278174089E+03 0.  0.
         25    2    3    3    0    0  0.10301791165E+02  0.53540051352E+02 -0.14461305484E+03  0.19861623120E+03  0.12475098262E+03 0.  0.
         25    2    3    3    0    0 -0.10301791165E+02 -0.53540051352E+02 -0.22809208635E+03  0.26324846807E+03  0.11958717359E+03 0.  0.
          5    1    4    4  502    0 -0.54684441145E+02  0.34723014713E+02 -0.92801956222E+02  0.11327121847E+03  0.47000000000E+01 0.  1.
         -5    1    4    4    0  502  0.64986232310E+02  0.18817036639E+02 -0.51811098622E+02  0.85345012731E+02  0.47000000000E+01 0.  1.
          5    1    5    5  503    0 -0.56093108146E+02 -0.73246637133E+01 -0.15610165180E+03  0.16610208661E+03  0.47000000000E+01 0. -1.
         -5    1    5    5    0  503  0.45791316981E+02 -0.46215387639E+02 -0.71990434544E+02  0.97146381463E+02  0.47000000000E+01 0. -1.
<mgrwt>
<rscale>  0 0.27278174E+03</rscale>
<asrwt>0</asrwt>
<pdfrwt beam="1">  1        2 0.64197680E-01 0.27278174E+03</pdfrwt>
<pdfrwt beam="2">  1       -2 0.68584275E-02 0.27278174E+03</pdfrwt>
<totfact> 0.91021780E+03</totfact>
</mgrwt>
</event>
<event>
 9    1  0.8093459E-001  0.2753638E+03  0.7818608E-02  0.1098248E+00
          2   -1    0    0  501    0  0.00000000000E+00  0.00000000000E+00  0.33804194445E+03  0.33804194445E+03  0.00000000000E+00 0.  1.
         -2   -1    0    0    0  501 -0.00000000000E+00 -0.00000000000E+00 -0.56076796943E+02  0.56076796943E+02  0.00000000000E+00 0.  1.
         35    2    1    2    0    0  0.00000000000E+00  0.00000000000E+00  0.28196514751E+03  0.39411874140E+03  0.27536382825E+03 0.  0.
         25    2    3    3    0    0  0.38542980002E+02 -0.39373612232E+02  0.93704861771E+02  0.16331388496E+03  0.12188101269E+03 0.  0.
         25    2    3    3    0    0 -0.38542980002E+02  0.39373612232E+02  0.18826028574E+03  0.23080485644E+03  0.12162690459E+03 0.  0.
          5    1    4    4  502    0  0.32873226334E+02 -0.75438108551E+01  0.11786148990E+03  0.12268243107E+03  0.47000000000E+01 0. -1.
         -5    1    4    4    0  502  0.56697536683E+01 -0.31829801377E+02 -0.24156628132E+02  0.40631453889E+02  0.47000000000E+01 0. -1.
          5    1    5    5  503    0 -0.13179214151E+02 -0.42767285421E+02  0.86541406379E+02  0.97540952456E+02  0.47000000000E+01 0.  1.
         -5    1    5    5    0  503 -0.25363765851E+02  0.82140897654E+02  0.10171887936E+03  0.13326390398E+03  0.47000000000E+01 0.  1.
<mgrwt>
<rscale>  0 0.27536383E+03</rscale>
<asrwt>0</asrwt>
<pdfrwt beam="1">  1        2 0.52006452E-01 0.27536383E+03</pdfrwt>
<pdfrwt beam="2">  1       -2 0.86271997E-02 0.27536383E+03</pdfrwt>
<totfact> 0.80002833E+03</totfact>
</mgrwt>
</event>
<event>
 9    1  0.8093459E-001  0.2743615E+03  0.7818608E-02  0.1098809E+00
          1   -1    0    0  501    0  0.00000000000E+00  0.00000000000E+00  0.69014005164E+03  0.69014005164E+03  0.00000000000E+00 0.  1.
         -1   -1    0    0    0  501 -0.00000000000E+00 -0.00000000000E+00 -0.27267738979E+02  0.27267738979E+02  0.00000000000E+00 0.  1.
         35    2    1    2    0    0  0.17763568394E-14 -0.71054273576E-14  0.66287231266E+03  0.71740779062E+03  0.27436150449E+03 0.  0.
         25    2    3    3    0    0 -0.66522834264E+00  0.24916096873E+02  0.20377736622E+03  0.24100592814E+03  0.12624336814E+03 0.  0.
         25    2    3    3    0    0  0.66522834264E+00 -0.24916096873E+02  0.45909494644E+03  0.47640186248E+03  0.12477704244E+03 0.  0.
          5    1    4    4  502    0  0.86193272082E+01  0.71802230182E+02  0.16152803103E+03  0.17704024364E+03  0.47000000000E+01 0. -1.
         -5    1    4    4    0  502 -0.92845555508E+01 -0.46886133309E+02  0.42249335192E+02  0.63965684493E+02  0.47000000000E+01 0. -1.
          5    1    5    5  503    0  0.29077462884E+02 -0.18107368230E+02  0.28545058670E+02  0.44836213115E+02  0.47000000000E+01 0.  1.
         -5    1    5    5    0  503 -0.28412234542E+02 -0.68087286435E+01  0.43054988777E+03  0.43156564937E+03  0.47000000000E+01 0.  1.
<mgrwt>
<rscale>  0 0.27436150E+03</rscale>
<asrwt>0</asrwt>
<pdfrwt beam="1">  1        1 0.10617538E+00 0.27436150E+03</pdfrwt>
<pdfrwt beam="2">  1       -1 0.41950373E-02 0.27436150E+03</pdfrwt>
<totfact> 0.65730803E+03</totfact>
</mgrwt>
</event>
<event>
 9    1  0.8093459E-001  0.2776559E+03  0.7818608E-02  0.1096976E+00
         -2   -1    0    0    0  501 -0.00000000000E+00  0.00000000000E+00  0.23398299085E+02  0.23398299085E+02  0.00000000000E+00 0. -1.
          2   -1    0    0  501    0  0.00000000000E+00 -0.00000000000E+00 -0.82370093418E+03  0.82370093418E+03  0.00000000000E+00 0. -1.
         35    2    1    2    0    0  0.00000000000E+00  0.00000000000E+00 -0.80030263509E+03  0.84709923326E+03  0.27765590802E+03 0.  0.
         25    2    3    3    0    0 -0.31013364007E+02  0.32466296068E+02 -0.27145898901E+03  0.30245552252E+03  0.12559248090E+03 0.  0.
         25    2    3    3    0    0  0.31013364007E+02 -0.32466296068E+02 -0.52884364608E+03  0.54464371074E+03  0.12225089172E+03 0.  0.
          5    1    4    4  502    0 -0.11268535671E+02  0.69430195620E+02 -0.23917234631E+03  0.24934520890E+03  0.47000000000E+01 0.  1.
         -5    1    4    4    0  502 -0.19744828335E+02 -0.36963899552E+02 -0.32286642704E+02  0.53110313623E+02  0.47000000000E+01 0.  1.
          5    1    5    5  503    0 -0.20514944843E+02 -0.48204668649E+02 -0.10576477862E+03  0.11812210394E+03  0.47000000000E+01 0. -1.
         -5    1    5    5    0  503  0.51528308850E+02  0.15738372581E+02 -0.42307886745E+03  0.42652160680E+03  0.47000000000E+01 0. -1.
<mgrwt>
<rscale>  0 0.27765591E+03</rscale>
<asrwt>0</asrwt>
<pdfrwt beam="1">  1        2 0.12672321E+00 0.27765591E+03</pdfrwt>
<pdfrwt beam="2">  1       -2 0.35997385E-02 0.27765591E+03</pdfrwt>
<totfact> 0.10976731E+04</totfact>
</mgrwt>
</event>
<event>
 9    1  0.8093459E-001  0.2746475E+03  0.7818608E-02  0.1098649E+00
         -2   -1    0    0    0  501 -0.00000000000E+00  0.00000000000E+00  0.14522546541E+03  0.14522546541E+03  0.00000000000E+00 0. -1.
          2   -1    0    0  501    0  0.00000000000E+00 -0.00000000000E+00 -0.12985196446E+03  0.12985196446E+03  0.00000000000E+00 0. -1.
         35    2    1    2    0    0  0.00000000000E+00  0.71054273576E-14  0.15373500948E+02  0.27507742986E+03  0.27464749751E+03 0.  0.
         25    2    3    3    0    0 -0.21260472556E+02  0.46641866950E+02 -0.15368159280E+02  0.13623567527E+03  0.12528570330E+03 0.  0.
         25    2    3    3    0    0  0.21260472556E+02 -0.46641866950E+02  0.30741660228E+02  0.13884175459E+03  0.12531764321E+03 0.  0.
          5    1    4    4  502    0  0.42109143025E+02  0.37965427270E+02  0.23153563787E+02  0.61422561898E+02  0.47000000000E+01 0. -1.
         -5    1    4    4    0  502 -0.63369615581E+02  0.86764396796E+01 -0.38521723066E+02  0.74813113372E+02  0.47000000000E+01 0. -1.
          5    1    5    5  503    0 -0.95415715098E+01  0.28410463746E+02 -0.25816196722E+02  0.39834181933E+02  0.47000000000E+01 0.  1.
         -5    1    5    5    0  503  0.30802044066E+02 -0.75052330696E+02  0.56557856950E+02  0.99007572661E+02  0.47000000000E+01 0.  1.
<mgrwt>
<rscale>  0 0.27464750E+03</rscale>
<asrwt>0</asrwt>
<pdfrwt beam="1">  1        2 0.19977225E-01 0.27464750E+03</pdfrwt>
<pdfrwt beam="2">  1       -2 0.22342379E-01 0.27464750E+03</pdfrwt>
<totfact> 0.47882919E+03</totfact>
</mgrwt>
</event>
<event>
 9    1  0.8093459E-001  0.2738489E+03  0.7818608E-02  0.1099097E+00
         -2   -1    0    0    0  501 -0.00000000000E+00  0.00000000000E+00  0.94757434033E+02  0.94757434033E+02  0.00000000000E+00 0. -1.
          2   -1    0    0  501    0  0.00000000000E+00 -0.00000000000E+00 -0.19785573768E+03  0.19785573768E+03  0.00000000000E+00 0. -1.
         35    2    1    2    0    0  0.35527136788E-14  0.35527136788E-14 -0.10309830364E+03  0.29261317171E+03  0.27384887811E+03 0.  0.
         25    2    3    3    0    0 -0.30140843960E+02  0.24612389849E+02 -0.77145416618E+02  0.15938679031E+03  0.13393466098E+03 0.  0.
         25    2    3    3    0    0  0.30140843960E+02 -0.24612389849E+02 -0.25952887026E+02  0.13322638140E+03  0.12474564580E+03 0.  0.
          5    1    4    4  502    0  0.34306121593E+01  0.51545118687E+02  0.17957130251E+02  0.54892776274E+02  0.47000000000E+01 0.  1.
         -5    1    4    4    0  502 -0.33571456120E+02 -0.26932728837E+02 -0.95102546868E+02  0.10449401404E+03  0.47000000000E+01 0.  1.
          5    1    5    5  503    0  0.54868972991E+02 -0.37971553824E+02 -0.59278688249E+02  0.89378386523E+02  0.47000000000E+01 0. -1.
         -5    1    5    5    0  503 -0.24728129031E+02  0.13359163975E+02  0.33325801223E+02  0.43847994876E+02  0.47000000000E+01 0. -1.
<mgrwt>
<rscale>  0 0.27384888E+03</rscale>
<asrwt>0</asrwt>
<pdfrwt beam="1">  1        2 0.30439344E-01 0.27384888E+03</pdfrwt>
<pdfrwt beam="2">  1       -2 0.14578067E-01 0.27384888E+03</pdfrwt>
<totfact> 0.61462619E+03</totfact>
</mgrwt>
</event>
<event>
 9    1  0.8093459E-001  0.2757010E+03  0.7818608E-02  0.1098060E+00
         -2   -1    0    0    0  501 -0.00000000000E+00  0.00000000000E+00  0.14338235360E+02  0.14338235360E+02  0.00000000000E+00 0.  1.
          2   -1    0    0  501    0  0.00000000000E+00 -0.00000000000E+00 -0.13253203265E+04  0.13253203265E+04  0.00000000000E+00 0.  1.
         35    2    1    2    0    0  0.00000000000E+00  0.00000000000E+00 -0.13109820911E+04  0.13396585618E+04  0.27570095951E+03 0.  0.
         25    2    3    3    0    0 -0.43865605324E+01  0.41036259279E+02 -0.85398233275E+03  0.86415318886E+03  0.12558539990E+03 0.  0.
         25    2    3    3    0    0  0.43865605324E+01 -0.41036259279E+02 -0.45699975838E+03  0.47550537299E+03  0.12471312722E+03 0.  0.
          5    1    4    4  502    0  0.34925198698E+02  0.47523011233E+02 -0.19088748931E+03  0.19984576472E+03  0.47000000000E+01 0.  1.
         -5    1    4    4    0  502 -0.39311759230E+02 -0.64867519536E+01 -0.66309484344E+03  0.66430742414E+03  0.47000000000E+01 0.  1.
          5    1    5    5  503    0 -0.32010945385E+02 -0.37202589674E+02 -0.64057128873E+02  0.80834021689E+02  0.47000000000E+01 0.  1.
         -5    1    5    5    0  503  0.36397505918E+02 -0.38336696053E+01 -0.39294262950E+03  0.39467135130E+03  0.47000000000E+01 0.  1.
<mgrwt>
<rscale>  0 0.27570096E+03</rscale>
<asrwt>0</asrwt>
<pdfrwt beam="1">  1        2 0.20389546E+00 0.27570096E+03</pdfrwt>
<pdfrwt beam="2">  1       -2 0.22058821E-02 0.27570096E+03</pdfrwt>
<totfact> 0.11356802E+04</totfact>
</mgrwt>
</event>
<event>
 9    1  0.8093459E-001  0.2762055E+03  0.7818608E-02  0.1097780E+00
         -1   -1    0    0    0  501 -0.00000000000E+00  0.00000000000E+00  0.17695117672E+03  0.17695117672E+03  0.00000000000E+00 0. -1.
          1   -1    0    0  501    0  0.00000000000E+00 -0.00000000000E+00 -0.10778321516E+03  0.10778321516E+03  0.00000000000E+00 0. -1.
         35    2    1    2    0    0  0.00000000000E+00  0.00000000000E+00  0.69167961551E+02  0.28473439188E+03  0.27620547970E+03 0.  0.
         25    2    3    3    0    0  0.49180792916E+02  0.11034284452E+02 -0.64451869742E+01  0.13039376249E+03  0.12008533231E+03 0.  0.
         25    2    3    3    0    0 -0.49180792916E+02 -0.11034284452E+02  0.75613148526E+02  0.15434062939E+03  0.12475245819E+03 0.  0.
          5    1    4    4  502    0  0.84297046704E+02  0.21859140156E+02  0.13610000358E+02  0.88267413019E+02  0.47000000000E+01 0. -1.
         -5    1    4    4    0  502 -0.35116253788E+02 -0.10824855704E+02 -0.20055187333E+02  0.42126349474E+02  0.47000000000E+01 0. -1.
          5    1    5    5  503    0 -0.65729296680E+02  0.64834696175E+01 -0.84620288706E+01  0.66753814520E+02  0.47000000000E+01 0. -1.
         -5    1    5    5    0  503  0.16548503764E+02 -0.17517754069E+02  0.84075177396E+02  0.87586814868E+02  0.47000000000E+01 0. -1.
<mgrwt>
<rscale>  0 0.27620548E+03</rscale>
<asrwt>0</asrwt>
<pdfrwt beam="1">  1        1 0.16582033E-01 0.27620548E+03</pdfrwt>
<pdfrwt beam="2">  1       -1 0.27223258E-01 0.27620548E+03</pdfrwt>
<totfact> 0.39147575E+03</totfact>
</mgrwt>
</event>
<event>
 9    1  0.8093459E-001  0.2738582E+03  0.7818608E-02  0.1099092E+00
         -2   -1    0    0    0  501 -0.00000000000E+00  0.00000000000E+00  0.19911673497E+02  0.19911673497E+02  0.00000000000E+00 0. -1.
          2   -1    0    0  501    0  0.00000000000E+00 -0.00000000000E+00 -0.94163726406E+03  0.94163726406E+03  0.00000000000E+00 0. -1.
         35    2    1    2    0    0 -0.88817841970E-15  0.71054273576E-14 -0.92172559057E+03  0.96154893756E+03  0.27385816588E+03 0.  0.
         25    2    3    3    0    0  0.39207487454E+01 -0.41593439410E+02 -0.32418483824E+03  0.34961216844E+03  0.12404625146E+03 0.  0.
         25    2    3    3    0    0 -0.39207487454E+01  0.41593439410E+02 -0.59754075232E+03  0.61193676912E+03  0.12516498009E+03 0.  0.
          5    1    4    4  502    0  0.63032909585E+01 -0.62179883343E+02 -0.67734196202E+02  0.92282613230E+02  0.47000000000E+01 0. -1.
         -5    1    4    4    0  502 -0.23825422131E+01  0.20586443933E+02 -0.25645064204E+03  0.25732955521E+03  0.47000000000E+01 0. -1.
          5    1    5    5  503    0 -0.53986662734E+02 -0.10350943387E+02 -0.18288253477E+03  0.19102307009E+03  0.47000000000E+01 0.  1.
         -5    1    5    5    0  503  0.50065913989E+02  0.51944382796E+02 -0.41465821756E+03  0.42091369904E+03  0.47000000000E+01 0.  1.
<mgrwt>
<rscale>  0 0.27385817E+03</rscale>
<asrwt>0</asrwt>
<pdfrwt beam="1">  1        2 0.14486725E+00 0.27385817E+03</pdfrwt>
<pdfrwt beam="2">  1       -2 0.30633349E-02 0.27385817E+03</pdfrwt>
<totfact> 0.11691128E+04</totfact>
</mgrwt>
</event>
<event>
 9    1  0.8093459E-001  0.2800083E+03  0.7818608E-02  0.1095684E+00
          4   -1    0    0  501    0  0.00000000000E+00  0.00000000000E+00  0.20073594371E+02  0.20073594371E+02  0.00000000000E+00 0. -1.
         -4   -1    0    0    0  501 -0.00000000000E+00 -0.00000000000E+00 -0.97646518895E+03  0.97646518895E+03  0.00000000000E+00 0. -1.
         35    2    1    2    0    0  0.00000000000E+00  0.00000000000E+00 -0.95639159458E+03  0.99653878332E+03  0.28000832931E+03 0.  0.
         25    2    3    3    0    0  0.33532947916E+02 -0.29140395467E+02 -0.63808083925E+03  0.65169837986E+03  0.12485992007E+03 0.  0.
         25    2    3    3    0    0 -0.33532947916E+02  0.29140395467E+02 -0.31831075533E+03  0.34484040347E+03  0.12497818075E+03 0.  0.
          5    1    4    4  502    0  0.62128005472E+02 -0.28566677132E+01 -0.56818666589E+03  0.57159970863E+03  0.47000000000E+01 0. -1.
         -5    1    4    4    0  502 -0.28595057556E+02 -0.26283727754E+02 -0.69894173364E+02  0.80098671222E+02  0.47000000000E+01 0. -1.
          5    1    5    5  503    0 -0.43798534671E+02  0.22124778280E+02 -0.32585080589E+03  0.32955827278E+03  0.47000000000E+01 0.  1.
         -5    1    5    5    0  503  0.10265586755E+02  0.70156171871E+01  0.75400505671E+01  0.15282130692E+02  0.47000000000E+01 0.  1.
<mgrwt>
<rscale>  0 0.28000833E+03</rscale>
<asrwt>0</asrwt>
<pdfrwt beam="1">  1        4 0.30882461E-02 0.28000833E+03</pdfrwt>
<pdfrwt beam="2">  1       -4 0.15022538E+00 0.28000833E+03</pdfrwt>
<totfact> 0.30444023E+02</totfact>
</mgrwt>
</event>
<event>
 9    1  0.8093459E-001  0.2725109E+03  0.7818608E-02  0.1099851E+00
          2   -1    0    0  501    0  0.00000000000E+00  0.00000000000E+00  0.77909263592E+03  0.77909263592E+03  0.00000000000E+00 0. -1.
         -2   -1    0    0    0  501 -0.00000000000E+00 -0.00000000000E+00 -0.23829711723E+02  0.23829711723E+02  0.00000000000E+00 0. -1.
         35    2    1    2    0    0 -0.71054273576E-14  0.71054273576E-14  0.75526292419E+03  0.80292234764E+03  0.27251093864E+03 0.  0.
         25    2    3    3    0    0 -0.47510499108E+02 -0.12481596330E+02  0.44427667107E+03  0.46402561466E+03  0.12459924895E+03 0.  0.
         25    2    3    3    0    0  0.47510499108E+02  0.12481596330E+02  0.31098625313E+03  0.33889673298E+03  0.12540138841E+03 0.  0.
          5    1    4    4  502    0 -0.65664528055E+02 -0.56034646735E+02  0.28003602456E+03  0.29307674239E+03  0.47000000000E+01 0.  1.
         -5    1    4    4    0  502  0.18154028947E+02  0.43553050405E+02  0.16424064650E+03  0.17094887227E+03  0.47000000000E+01 0.  1.
          5    1    5    5  503    0  0.24931762578E+02 -0.55100934518E+02  0.11024022891E+03  0.12582807255E+03  0.47000000000E+01 0.  1.
         -5    1    5    5    0  503  0.22578736530E+02  0.67582530848E+02  0.20074602422E+03  0.21306866043E+03  0.47000000000E+01 0.  1.
<mgrwt>
<rscale>  0 0.27251094E+03</rscale>
<asrwt>0</asrwt>
<pdfrwt beam="1">  1        2 0.11986039E+00 0.27251094E+03</pdfrwt>
<pdfrwt beam="2">  1       -2 0.36661101E-02 0.27251094E+03</pdfrwt>
<totfact> 0.11457747E+04</totfact>
</mgrwt>
</event>
<event>
 9    1  0.8093459E-001  0.2649947E+03  0.7818608E-02  0.1104179E+00
         -1   -1    0    0    0  501 -0.00000000000E+00  0.00000000000E+00  0.23299328057E+03  0.23299328057E+03  0.00000000000E+00 0.  1.
          1   -1    0    0  501    0  0.00000000000E+00 -0.00000000000E+00 -0.75347861097E+02  0.75347861097E+02  0.00000000000E+00 0.  1.
         35    2    1    2    0    0  0.00000000000E+00  0.00000000000E+00  0.15764541948E+03  0.30834114167E+03  0.26499468177E+03 0.  0.
         25    2    3    3    0    0 -0.30933996410E+02  0.26409966241E+02  0.98412935664E+02  0.16383492768E+03  0.12450855060E+03 0.  0.
         25    2    3    3    0    0  0.30933996410E+02 -0.26409966241E+02  0.59232483812E+02  0.14450621399E+03  0.12537607544E+03 0.  0.
          5    1    4    4  502    0  0.30186858579E+02 -0.22997853041E+02  0.56482169660E+00  0.38243387650E+02  0.47000000000E+01 0.  1.
         -5    1    4    4    0  502 -0.61120854989E+02  0.49407819282E+02  0.97848113967E+02  0.12559154003E+03  0.47000000000E+01 0.  1.
          5    1    5    5  503    0 -0.47654944874E+02 -0.14673754250E+02  0.35686519352E+02  0.61497402369E+02  0.47000000000E+01 0.  1.
         -5    1    5    5    0  503  0.78588941283E+02 -0.11736211991E+02  0.23545964460E+02  0.83008811618E+02  0.47000000000E+01 0.  1.
<mgrwt>
<rscale>  0 0.26499468E+03</rscale>
<asrwt>0</asrwt>
<pdfrwt beam="1">  1        1 0.11591979E-01 0.26499468E+03</pdfrwt>
<pdfrwt beam="2">  1       -1 0.35845120E-01 0.26499468E+03</pdfrwt>
<totfact> 0.39148380E+03</totfact>
</mgrwt>
</event>
<event>
 9    1  0.8093459E-001  0.2809807E+03  0.7818608E-02  0.1095154E+00
          2   -1    0    0  501    0  0.00000000000E+00  0.00000000000E+00  0.51750789916E+03  0.51750789916E+03  0.00000000000E+00 0. -1.
         -2   -1    0    0    0  501 -0.00000000000E+00 -0.00000000000E+00 -0.38139599267E+02  0.38139599267E+02  0.00000000000E+00 0. -1.
         35    2    1    2    0    0  0.00000000000E+00 -0.35527136788E-14  0.47936829990E+03  0.55564749843E+03  0.28098073878E+03 0.  0.
         25    2    3    3    0    0 -0.62073456653E+02 -0.65498972862E+01  0.26783547089E+03  0.30220480883E+03  0.12528324645E+03 0.  0.
         25    2    3    3    0    0  0.62073456653E+02  0.65498972862E+01  0.21153282901E+03  0.25344268960E+03  0.12486410207E+03 0.  0.
          5    1    4    4  502    0 -0.39622809817E+02  0.17749075208E+02  0.13536780309E+02  0.45720139432E+02  0.47000000000E+01 0.  1.
         -5    1    4    4    0  502 -0.22450646836E+02 -0.24298972494E+02  0.25429869058E+03  0.25648466940E+03  0.47000000000E+01 0.  1.
          5    1    5    5  503    0  0.37419042372E+02  0.64534343735E+02  0.94965218337E+02  0.12085259181E+03  0.47000000000E+01 0. -1.
         -5    1    5    5    0  503  0.24654414281E+02 -0.57984446448E+02  0.11656761067E+03  0.13259009779E+03  0.47000000000E+01 0. -1.
<mgrwt>
<rscale>  0 0.28098074E+03</rscale>
<asrwt>0</asrwt>
<pdfrwt beam="1">  1        2 0.79616595E-01 0.28098074E+03</pdfrwt>
<pdfrwt beam="2">  1       -2 0.58676310E-02 0.28098074E+03</pdfrwt>
<totfact> 0.91298748E+03</totfact>
</mgrwt>
</event>
<event>
 9    1  0.8093459E-001  0.2773008E+03  0.7818608E-02  0.1097172E+00
          1   -1    0    0  501    0  0.00000000000E+00  0.00000000000E+00  0.11605569179E+04  0.11605569179E+04  0.00000000000E+00 0.  1.
         -1   -1    0    0    0  501 -0.00000000000E+00 -0.00000000000E+00 -0.16564400626E+02  0.16564400626E+02  0.00000000000E+00 0.  1.
         35    2    1    2    0    0  0.00000000000E+00  0.71054273576E-14  0.11439925172E+04  0.11771213185E+04  0.27730077343E+03 0.  0.
         25    2    3    3    0    0  0.12712617398E+02  0.18498892288E+02  0.79740300695E+03  0.80746162267E+03  0.12505557537E+03 0.  0.
         25    2    3    3    0    0 -0.12712617398E+02 -0.18498892288E+02  0.34658951027E+03  0.36965969581E+03  0.12657085927E+03 0.  0.
          5    1    4    4  502    0  0.22905176560E+02 -0.48618594541E+02  0.24415826944E+03  0.25004752625E+03  0.47000000000E+01 0.  1.
         -5    1    4    4    0  502 -0.10192559162E+02  0.67117486829E+02  0.55324473752E+03  0.55741409642E+03  0.47000000000E+01 0.  1.
          5    1    5    5  503    0  0.18197759381E+02  0.46782965946E+02  0.91168175917E+02  0.10418027956E+03  0.47000000000E+01 0. -1.
         -5    1    5    5    0  503 -0.30910376780E+02 -0.65281858234E+02  0.25542133436E+03  0.26547941625E+03  0.47000000000E+01 0. -1.
<mgrwt>
<rscale>  0 0.27730077E+03</rscale>
<asrwt>0</asrwt>
<pdfrwt beam="1">  1        1 0.17854716E+00 0.27730077E+03</pdfrwt>
<pdfrwt beam="2">  1       -1 0.25483702E-02 0.27730077E+03</pdfrwt>
<totfact> 0.58611949E+03</totfact>
</mgrwt>
</event>
<event>
 9    1  0.8093459E-001  0.2792075E+03  0.7818608E-02  0.1096123E+00
          2   -1    0    0  501    0  0.00000000000E+00  0.00000000000E+00  0.13626930450E+04  0.13626930450E+04  0.00000000000E+00 0. -1.
         -2   -1    0    0    0  501 -0.00000000000E+00 -0.00000000000E+00 -0.14301978414E+02  0.14301978414E+02  0.00000000000E+00 0. -1.
         35    2    1    2    0    0  0.00000000000E+00  0.71054273576E-14  0.13483910666E+04  0.13769950234E+04  0.27920749642E+03 0.  0.
         25    2    3    3    0    0  0.32592903468E+02  0.41965769445E+02  0.82588304620E+03  0.83691746143E+03  0.12459778520E+03 0.  0.
         25    2    3    3    0    0 -0.32592903468E+02 -0.41965769445E+02  0.52250802039E+03  0.54007756199E+03  0.12587977770E+03 0.  0.
          5    1    4    4  502    0 -0.26819301687E+02  0.65316289457E+02  0.39155539931E+03  0.39789849628E+03  0.47000000000E+01 0. -1.
         -5    1    4    4    0  502  0.59412205156E+02 -0.23350520012E+02  0.43432764689E+03  0.43901896515E+03  0.47000000000E+01 0. -1.
          5    1    5    5  503    0 -0.46932856009E+02 -0.11658365491E+02  0.49233605601E+03  0.49472769531E+03  0.47000000000E+01 0. -1.
         -5    1    5    5    0  503  0.14339952541E+02 -0.30307403953E+02  0.30171964372E+02  0.45349866674E+02  0.47000000000E+01 0. -1.
<mgrwt>
<rscale>  0 0.27920750E+03</rscale>
<asrwt>0</asrwt>
<pdfrwt beam="1">  1        2 0.20964498E+00 0.27920750E+03</pdfrwt>
<pdfrwt beam="2">  1       -2 0.22003054E-02 0.27920750E+03</pdfrwt>
<totfact> 0.10876618E+04</totfact>
</mgrwt>
</event>
<event>
 9    1  0.8093459E-001  0.2887460E+03  0.7818608E-02  0.1091006E+00
          2   -1    0    0  501    0  0.00000000000E+00  0.00000000000E+00  0.11700786154E+03  0.11700786154E+03  0.00000000000E+00 0.  1.
         -2   -1    0    0    0  501 -0.00000000000E+00 -0.00000000000E+00 -0.17813820088E+03  0.17813820088E+03  0.00000000000E+00 0.  1.
         35    2    1    2    0    0  0.00000000000E+00  0.14210854715E-13 -0.61130339333E+02  0.29514606242E+03  0.28874604720E+03 0.  0.
         25    2    3    3    0    0 -0.16372992252E+02  0.64751856962E+02 -0.53916135420E+01  0.14215362044E+03  0.12537026941E+03 0.  0.
         25    2    3    3    0    0  0.16372992252E+02 -0.64751856962E+02 -0.55738725791E+02  0.15299244198E+03  0.12585310443E+03 0.  0.
          5    1    4    4  502    0 -0.48583236003E+02  0.45504581409E+02  0.44011834089E+02  0.79938284254E+02  0.47000000000E+01 0.  1.
         -5    1    4    4    0  502  0.32210243751E+02  0.19247275554E+02 -0.49403447631E+02  0.62215336184E+02  0.47000000000E+01 0.  1.
          5    1    5    5  503    0  0.77054194198E+01 -0.59712608804E+02 -0.94794746479E+02  0.11239707780E+03  0.47000000000E+01 0. -1.
         -5    1    5    5    0  503  0.86675728320E+01 -0.50392481586E+01  0.39056020688E+02  0.40595364179E+02  0.47000000000E+01 0. -1.
<mgrwt>
<rscale>  0 0.28874605E+03</rscale>
<asrwt>0</asrwt>
<pdfrwt beam="1">  1        2 0.18001210E-01 0.28874605E+03</pdfrwt>
<pdfrwt beam="2">  1       -2 0.27405877E-01 0.28874605E+03</pdfrwt>
<totfact> 0.37723226E+03</totfact>
</mgrwt>
</event>
<event>
 9    1  0.8093459E-001  0.2763337E+03  0.7818608E-02  0.1097708E+00
          1   -1    0    0  501    0  0.00000000000E+00  0.00000000000E+00  0.25362475557E+02  0.25362475557E+02  0.00000000000E+00 0. -1.
         -1   -1    0    0    0  501 -0.00000000000E+00 -0.00000000000E+00 -0.75268973385E+03  0.75268973385E+03  0.00000000000E+00 0. -1.
         35    2    1    2    0    0 -0.14210854715E-13 -0.35527136788E-14 -0.72732725830E+03  0.77805220941E+03  0.27633367494E+03 0.  0.
         25    2    3    3    0    0  0.56177853139E+02  0.83647716190E+01 -0.38812321686E+03  0.41182561701E+03  0.12543837836E+03 0.  0.
         25    2    3    3    0    0 -0.56177853139E+02 -0.83647716190E+01 -0.33920404144E+03  0.36622659241E+03  0.12584361196E+03 0.  0.
          5    1    4    4  502    0 -0.24214273396E+02  0.30896902863E+01 -0.25458589801E+03  0.25579669014E+03  0.47000000000E+01 0. -1.
         -5    1    4    4    0  502  0.80392126535E+02  0.52750813327E+01 -0.13353731886E+03  0.15602892687E+03  0.47000000000E+01 0. -1.
          5    1    5    5  503    0 -0.52127419865E+02  0.94648281466E+01 -0.34289100380E+03  0.34699161570E+03  0.47000000000E+01 0. -1.
         -5    1    5    5    0  503 -0.40504332747E+01 -0.17829599766E+02  0.36869623690E+01  0.19234976710E+02  0.47000000000E+01 0. -1.
<mgrwt>
<rscale>  0 0.27633367E+03</rscale>
<asrwt>0</asrwt>
<pdfrwt beam="1">  1        1 0.39019197E-02 0.27633367E+03</pdfrwt>
<pdfrwt beam="2">  1       -1 0.11579841E+00 0.27633367E+03</pdfrwt>
<totfact> 0.16935556E+03</totfact>
</mgrwt>
</event>
<event>
 9    1  0.8093459E-001  0.2723998E+03  0.7818608E-02  0.1099914E+00
          1   -1    0    0  501    0  0.00000000000E+00  0.00000000000E+00  0.98876767603E+03  0.98876767603E+03  0.00000000000E+00 0.  1.
         -1   -1    0    0    0  501 -0.00000000000E+00 -0.00000000000E+00 -0.18761137443E+02  0.18761137443E+02  0.00000000000E+00 0.  1.
         35    2    1    2    0    0  0.00000000000E+00  0.14210854715E-13  0.97000653859E+03  0.10075288135E+04  0.27239975235E+03 0.  0.
         25    2    3    3    0    0  0.29251975266E+02  0.44064248892E+02  0.52414655718E+03  0.54143213144E+03  0.12498721322E+03 0.  0.
         25    2    3    3    0    0 -0.29251975266E+02 -0.44064248892E+02  0.44585998141E+03  0.46609668203E+03  0.12513056338E+03 0.  0.
          5    1    4    4  502    0 -0.24605531907E+02 -0.10802253227E+02  0.27100582677E+02  0.38453250274E+02  0.47000000000E+01 0.  1.
         -5    1    4    4    0  502  0.53857507173E+02  0.54866502119E+02  0.49704597450E+03  0.50297888117E+03  0.47000000000E+01 0.  1.
          5    1    5    5  503    0  0.11825979537E+02  0.37469601107E+02  0.83794310971E+02  0.92668232692E+02  0.47000000000E+01 0. -1.
         -5    1    5    5    0  503 -0.41077954803E+02 -0.81533849999E+02  0.36206567044E+03  0.37342844934E+03  0.47000000000E+01 0. -1.
<mgrwt>
<rscale>  0 0.27239975E+03</rscale>
<asrwt>0</asrwt>
<pdfrwt beam="1">  1        1 0.15211806E+00 0.27239975E+03</pdfrwt>
<pdfrwt beam="2">  1       -1 0.28863296E-02 0.27239975E+03</pdfrwt>
<totfact> 0.65058377E+03</totfact>
</mgrwt>
</event>
<event>
 9    1  0.8093459E-001  0.2757120E+03  0.7818608E-02  0.1098054E+00
          1   -1    0    0  501    0  0.00000000000E+00  0.00000000000E+00  0.87592545486E+03  0.87592545486E+03  0.00000000000E+00 0.  1.
         -1   -1    0    0    0  501 -0.00000000000E+00 -0.00000000000E+00 -0.21696220506E+02  0.21696220506E+02  0.00000000000E+00 0.  1.
         35    2    1    2    0    0  0.00000000000E+00 -0.71054273576E-14  0.85422923436E+03  0.89762167537E+03  0.27571196431E+03 0.  0.
         25    2    3    3    0    0  0.11254497852E+02  0.28997724803E+02  0.26179644453E+03  0.29155780453E+03  0.12450318569E+03 0.  0.
         25    2    3    3    0    0 -0.11254497852E+02 -0.28997724803E+02  0.59243278982E+03  0.60606387084E+03  0.12397287328E+03 0.  0.
          5    1    4    4  502    0  0.13680059644E+02  0.77852491908E+02  0.16031130958E+03  0.17880145555E+03  0.47000000000E+01 0. -1.
         -5    1    4    4    0  502 -0.24255617924E+01 -0.48854767106E+02  0.10148513495E+03  0.11275634898E+03  0.47000000000E+01 0. -1.
          5    1    5    5  503    0  0.18257721681E+02 -0.28436212306E+02  0.56327717411E+03  0.56430951387E+03  0.47000000000E+01 0. -1.
         -5    1    5    5    0  503 -0.29512219533E+02 -0.56151249680E+00  0.29155615715E+02  0.41754356967E+02  0.47000000000E+01 0. -1.
<mgrwt>
<rscale>  0 0.27571196E+03</rscale>
<asrwt>0</asrwt>
<pdfrwt beam="1">  1        1 0.13475773E+00 0.27571196E+03</pdfrwt>
<pdfrwt beam="2">  1       -1 0.33378808E-02 0.27571196E+03</pdfrwt>
<totfact> 0.64184626E+03</totfact>
</mgrwt>
</event>
<event>
 9    1  0.8093459E-001  0.2649063E+03  0.7818608E-02  0.1104231E+00
         -1   -1    0    0    0  501 -0.00000000000E+00  0.00000000000E+00  0.24805269161E+03  0.24805269161E+03  0.00000000000E+00 0. -1.
          1   -1    0    0  501    0  0.00000000000E+00 -0.00000000000E+00 -0.70726270723E+02  0.70726270723E+02  0.00000000000E+00 0. -1.
         35    2    1    2    0    0  0.35527136788E-14 -0.71054273576E-14  0.17732642088E+03  0.31877896233E+03  0.26490633681E+03 0.  0.
         25    2    3    3    0    0 -0.86296166147E+01  0.34915351750E+02  0.74118399913E+02  0.14925735929E+03  0.12446152026E+03 0.  0.
         25    2    3    3    0    0  0.86296166147E+01 -0.34915351750E+02  0.10320802097E+03  0.16952160304E+03  0.12958443670E+03 0.  0.
          5    1    4    4  502    0 -0.31523352612E+02  0.79979852364E+01 -0.26688793663E+02  0.42332862352E+02  0.47000000000E+01 0.  1.
         -5    1    4    4    0  502  0.22893735998E+02  0.26917366514E+02  0.10080719358E+03  0.10692449693E+03  0.47000000000E+01 0.  1.
          5    1    5    5  503    0 -0.30586609047E+02  0.39450212241E+02  0.42288791725E+02  0.65591857760E+02  0.47000000000E+01 0. -1.
         -5    1    5    5    0  503  0.39216225661E+02 -0.74365563991E+02  0.60919229244E+02  0.10392974528E+03  0.47000000000E+01 0. -1.
<mgrwt>
<rscale>  0 0.26490634E+03</rscale>
<asrwt>0</asrwt>
<pdfrwt beam="1">  1        1 0.10880965E-01 0.26490634E+03</pdfrwt>
<pdfrwt beam="2">  1       -1 0.38161952E-01 0.26490634E+03</pdfrwt>
<totfact> 0.38173054E+03</totfact>
</mgrwt>
</event>
<event>
 9    1  0.8093459E-001  0.2746131E+03  0.7818608E-02  0.1098668E+00
         -1   -1    0    0    0  501 -0.00000000000E+00  0.00000000000E+00  0.61603819502E+02  0.61603819502E+02  0.00000000000E+00 0.  1.
          1   -1    0    0  501    0  0.00000000000E+00 -0.00000000000E+00 -0.30603766195E+03  0.30603766195E+03  0.00000000000E+00 0.  1.
         35    2    1    2    0    0 -0.71054273576E-14  0.00000000000E+00 -0.24443384245E+03  0.36764148146E+03  0.27461310157E+03 0.  0.
         25    2    3    3    0    0  0.10651410266E+02  0.54470645650E+02 -0.13020714872E+03  0.18870721300E+03  0.12480387366E+03 0.  0.
         25    2    3    3    0    0 -0.10651410266E+02 -0.54470645650E+02 -0.11422669373E+03  0.17893426846E+03  0.12605249339E+03 0.  0.
          5    1    4    4  502    0  0.54280495288E+02 -0.11349902021E+02 -0.69232765096E+02  0.88828251179E+02  0.47000000000E+01 0. -1.
         -5    1    4    4    0  502 -0.43629085022E+02  0.65820547671E+02 -0.60974383626E+02  0.99878961820E+02  0.47000000000E+01 0. -1.
          5    1    5    5  503    0 -0.41880173928E+02 -0.65154685216E+02 -0.12210728092E+03  0.14467674321E+03  0.47000000000E+01 0.  1.
         -5    1    5    5    0  503  0.31228763662E+02  0.10684039566E+02  0.78805871899E+01  0.34257525243E+02  0.47000000000E+01 0.  1.
<mgrwt>
<rscale>  0 0.27461310E+03</rscale>
<asrwt>0</asrwt>
<pdfrwt beam="1">  1        1 0.47082717E-01 0.27461310E+03</pdfrwt>
<pdfrwt beam="2">  1       -1 0.94775108E-02 0.27461310E+03</pdfrwt>
<totfact> 0.56226848E+03</totfact>
</mgrwt>
</event>
<event>
 9    1  0.8093459E-001  0.2762371E+03  0.7818608E-02  0.1097762E+00
         -3   -1    0    0    0  501 -0.00000000000E+00  0.00000000000E+00  0.62750793989E+02  0.62750793989E+02  0.00000000000E+00 0. -1.
          3   -1    0    0  501    0  0.00000000000E+00 -0.00000000000E+00 -0.30400783556E+03  0.30400783556E+03  0.00000000000E+00 0. -1.
         35    2    1    2    0    0  0.00000000000E+00  0.00000000000E+00 -0.24125704157E+03  0.36675862954E+03  0.27623709425E+03 0.  0.
         25    2    3    3    0    0 -0.10279174244E+02 -0.51805112071E+02 -0.16085586097E+03  0.21001596802E+03  0.12426853083E+03 0.  0.
         25    2    3    3    0    0  0.10279174244E+02  0.51805112071E+02 -0.80401180601E+02  0.15674266153E+03  0.12375169106E+03 0.  0.
          5    1    4    4  502    0  0.16679262410E+02 -0.85257824222E+02 -0.79312644525E+02  0.11772714202E+03  0.47000000000E+01 0. -1.
         -5    1    4    4    0  502 -0.26958436654E+02  0.33452712151E+02 -0.81543216441E+02  0.92288826001E+02  0.47000000000E+01 0. -1.
          5    1    5    5  503    0  0.30375676715E+02  0.81532529389E+02 -0.83159197829E+02  0.12044823481E+03  0.47000000000E+01 0.  1.
         -5    1    5    5    0  503 -0.20096502471E+02 -0.29727417319E+02  0.27580172280E+01  0.36294426722E+02  0.47000000000E+01 0.  1.
<mgrwt>
<rscale>  0 0.27623709E+03</rscale>
<asrwt>0</asrwt>
<pdfrwt beam="1">  1        3 0.46770437E-01 0.27623709E+03</pdfrwt>
<pdfrwt beam="2">  1       -3 0.96539682E-02 0.27623709E+03</pdfrwt>
<totfact> 0.90904186E+02</totfact>
</mgrwt>
</event>
<event>
 9    1  0.8093459E-001  0.2792234E+03  0.7818608E-02  0.1096114E+00
          2   -1    0    0  501    0  0.00000000000E+00  0.00000000000E+00  0.31742890337E+03  0.31742890337E+03  0.00000000000E+00 0. -1.
         -2   -1    0    0    0  501 -0.00000000000E+00 -0.00000000000E+00 -0.61404065077E+02  0.61404065077E+02  0.00000000000E+00 0. -1.
         35    2    1    2    0    0  0.00000000000E+00  0.00000000000E+00  0.25602483829E+03  0.37883296845E+03  0.27922338756E+03 0.  0.
         25    2    3    3    0    0  0.50348363771E+02 -0.38138342478E+01  0.81218634522E+02  0.15742578080E+03  0.12504761814E+03 0.  0.
         25    2    3    3    0    0 -0.50348363771E+02  0.38138342478E+01  0.17480620377E+03  0.22140718764E+03  0.12615241099E+03 0.  0.
          5    1    4    4  502    0 -0.61055893845E+01  0.52473411712E+02  0.45761528003E+02  0.70049586748E+02  0.47000000000E+01 0. -1.
         -5    1    4    4    0  502  0.56453953156E+02 -0.56287245960E+02  0.35457106518E+02  0.87376194054E+02  0.47000000000E+01 0. -1.
          5    1    5    5  503    0 -0.71958466264E+02 -0.20255124863E+02  0.17317566933E+03  0.18868013515E+03  0.47000000000E+01 0. -1.
         -5    1    5    5    0  503  0.21610102493E+02  0.24068959111E+02  0.16305344345E+01  0.32727052495E+02  0.47000000000E+01 0. -1.
<mgrwt>
<rscale>  0 0.27922339E+03</rscale>
<asrwt>0</asrwt>
<pdfrwt beam="1">  1        2 0.48835215E-01 0.27922339E+03</pdfrwt>
<pdfrwt beam="2">  1       -2 0.94467795E-02 0.27922339E+03</pdfrwt>
<totfact> 0.74237057E+03</totfact>
</mgrwt>
</event>
<event>
 9    1  0.8093459E-001  0.2743153E+03  0.7818608E-02  0.1098835E+00
         -1   -1    0    0    0  501 -0.00000000000E+00  0.00000000000E+00  0.42801680000E+03  0.42801680000E+03  0.00000000000E+00 0.  1.
          1   -1    0    0  501    0  0.00000000000E+00 -0.00000000000E+00 -0.43952057813E+02  0.43952057813E+02  0.00000000000E+00 0.  1.
         35    2    1    2    0    0  0.00000000000E+00  0.00000000000E+00  0.38406474219E+03  0.47196885782E+03  0.27431528677E+03 0.  0.
         25    2    3    3    0    0 -0.28558395567E+02  0.83551555751E+01  0.10919115560E+03  0.16858076504E+03  0.12494548930E+03 0.  0.
         25    2    3    3    0    0  0.28558395567E+02 -0.83551555751E+01  0.27487358658E+03  0.30338809278E+03  0.12491379289E+03 0.  0.
          5    1    4    4  502    0 -0.14226937369E+02  0.43417412757E+02  0.12034828820E+03  0.12881489801E+03  0.47000000000E+01 0.  1.
         -5    1    4    4    0  502 -0.14331458198E+02 -0.35062257182E+02 -0.11157132593E+02  0.39765867028E+02  0.47000000000E+01 0.  1.
          5    1    5    5  503    0  0.65691416970E+02 -0.16662005836E+02  0.80800692138E+02  0.10556432424E+03  0.47000000000E+01 0. -1.
         -5    1    5    5    0  503 -0.37133021403E+02  0.83068502609E+01  0.19407289445E+03  0.19782376854E+03  0.47000000000E+01 0. -1.
<mgrwt>
<rscale>  0 0.27431529E+03</rscale>
<asrwt>0</asrwt>
<pdfrwt beam="1">  1        1 0.67618554E-02 0.27431529E+03</pdfrwt>
<pdfrwt beam="2">  1       -1 0.65848735E-01 0.27431529E+03</pdfrwt>
<totfact> 0.26461143E+03</totfact>
</mgrwt>
</event>
<event>
 9    1  0.8093459E-001  0.2739947E+03  0.7818608E-02  0.1099015E+00
          2   -1    0    0  501    0  0.00000000000E+00  0.00000000000E+00  0.13970275766E+04  0.13970275766E+04  0.00000000000E+00 0.  1.
         -2   -1    0    0    0  501 -0.00000000000E+00 -0.00000000000E+00 -0.13434433896E+02  0.13434433896E+02  0.00000000000E+00 0.  1.
         35    2    1    2    0    0  0.00000000000E+00  0.17763568394E-14  0.13835931427E+04  0.14104620105E+04  0.27399470527E+03 0.  0.
         25    2    3    3    0    0  0.40144761510E+02  0.45049453638E+01  0.89400829568E+03  0.90358059720E+03  0.12480050675E+03 0.  0.
         25    2    3    3    0    0 -0.40144761510E+02 -0.45049453638E+01  0.48958484702E+03  0.50688141329E+03  0.12491416372E+03 0.  0.
          5    1    4    4  502    0  0.33130765954E+02  0.58646261214E+02  0.64988234217E+03  0.65338057843E+03  0.47000000000E+01 0.  1.
         -5    1    4    4    0  502  0.70139955559E+01 -0.54141315850E+02  0.24412595352E+03  0.25020001878E+03  0.47000000000E+01 0.  1.
          5    1    5    5  503    0 -0.61630054183E+02 -0.79520626339E+01  0.10832038685E+03  0.12496757614E+03  0.47000000000E+01 0.  1.
         -5    1    5    5    0  503  0.21485292673E+02  0.34471172700E+01  0.38126446017E+03  0.38191383715E+03  0.47000000000E+01 0.  1.
<mgrwt>
<rscale>  0 0.27399471E+03</rscale>
<asrwt>0</asrwt>
<pdfrwt beam="1">  1        2 0.21492720E+00 0.27399471E+03</pdfrwt>
<pdfrwt beam="2">  1       -2 0.20668371E-02 0.27399471E+03</pdfrwt>
<totfact> 0.11419444E+04</totfact>
</mgrwt>
</event>
<event>
 9    1  0.8093459E-001  0.2714095E+03  0.7818608E-02  0.1100476E+00
          2   -1    0    0  501    0  0.00000000000E+00  0.00000000000E+00  0.71727009334E+02  0.71727009334E+02  0.00000000000E+00 0.  1.
         -2   -1    0    0    0  501 -0.00000000000E+00 -0.00000000000E+00 -0.25674817618E+03  0.25674817618E+03  0.00000000000E+00 0.  1.
         35    2    1    2    0    0 -0.71054273576E-14 -0.71054273576E-14 -0.18502116684E+03  0.32847518551E+03  0.27140949747E+03 0.  0.
         25    2    3    3    0    0  0.13563766666E+02 -0.51394792378E+02 -0.10049858448E+03  0.16891352276E+03  0.12492562683E+03 0.  0.
         25    2    3    3    0    0 -0.13563766666E+02  0.51394792378E+02 -0.84522582369E+02  0.15956166276E+03  0.12446066383E+03 0.  0.
          5    1    4    4  502    0 -0.53546014360E+02 -0.40584325725E+02 -0.44594967174E+02  0.80777869776E+02  0.47000000000E+01 0.  1.
         -5    1    4    4    0  502  0.67109781027E+02 -0.10810466653E+02 -0.55903617302E+02  0.88135652980E+02  0.47000000000E+01 0.  1.
          5    1    5    5  503    0  0.42360586585E+02  0.53727726846E+02 -0.15030996410E+02  0.70207611988E+02  0.47000000000E+01 0.  1.
         -5    1    5    5    0  503 -0.55924353252E+02 -0.23329344682E+01 -0.69491585959E+02  0.89354050770E+02  0.47000000000E+01 0.  1.
<mgrwt>
<rscale>  0 0.27140950E+03</rscale>
<asrwt>0</asrwt>
<pdfrwt beam="1">  1        2 0.11034925E-01 0.27140950E+03</pdfrwt>
<pdfrwt beam="2">  1       -2 0.39499719E-01 0.27140950E+03</pdfrwt>
<totfact> 0.34411027E+03</totfact>
</mgrwt>
</event>
<event>
 9    1  0.8093459E-001  0.2759872E+03  0.7818608E-02  0.1097901E+00
         -1   -1    0    0    0  501 -0.00000000000E+00  0.00000000000E+00  0.20624043669E+03  0.20624043669E+03  0.00000000000E+00 0.  1.
          1   -1    0    0  501    0  0.00000000000E+00 -0.00000000000E+00 -0.92330255412E+02  0.92330255412E+02  0.00000000000E+00 0.  1.
         35    2    1    2    0    0 -0.14210854715E-13  0.00000000000E+00  0.11391018127E+03  0.29857069210E+03  0.27598718952E+03 0.  0.
         25    2    3    3    0    0 -0.37233936645E+02 -0.85967787463E+01  0.41987232932E+02  0.14893850032E+03  0.13769342216E+03 0.  0.
         25    2    3    3    0    0  0.37233936645E+02  0.85967787463E+01  0.71922948342E+02  0.14963219177E+03  0.12552534275E+03 0.  0.
          5    1    4    4  502    0 -0.78731192190E+02 -0.25014012697E+02  0.58270407655E+02  0.10120193606E+03  0.47000000000E+01 0.  1.
         -5    1    4    4    0  502  0.41497255545E+02  0.16417233951E+02 -0.16283174723E+02  0.47736564260E+02  0.47000000000E+01 0.  1.
          5    1    5    5  503    0 -0.43293196133E+01 -0.53534640978E+02  0.16257220292E+02  0.56312414303E+02  0.47000000000E+01 0.  1.
         -5    1    5    5    0  503  0.41563256259E+02  0.62131419725E+02  0.55665728050E+02  0.93319777470E+02  0.47000000000E+01 0.  1.
<mgrwt>
<rscale>  0 0.27598719E+03</rscale>
<asrwt>0</asrwt>
<pdfrwt beam="1">  1        1 0.14204655E-01 0.27598719E+03</pdfrwt>
<pdfrwt beam="2">  1       -1 0.31729298E-01 0.27598719E+03</pdfrwt>
<totfact> 0.36972468E+03</totfact>
</mgrwt>
</event>
<event>
 9    1  0.8093459E-001  0.2631418E+03  0.7818608E-02  0.1105270E+00
         -1   -1    0    0    0  501 -0.00000000000E+00  0.00000000000E+00  0.11936731864E+03  0.11936731864E+03  0.00000000000E+00 0. -1.
          1   -1    0    0  501    0  0.00000000000E+00 -0.00000000000E+00 -0.14502209130E+03  0.14502209130E+03  0.00000000000E+00 0. -1.
         35    2    1    2    0    0 -0.14210854715E-13 -0.88817841970E-15 -0.25654772666E+02  0.26438940994E+03  0.26314177306E+03 0.  0.
         25    2    3    3    0    0  0.35522967628E+02  0.60738179052E+01 -0.51105351297E+02  0.13146466328E+03  0.11563921596E+03 0.  0.
         25    2    3    3    0    0 -0.35522967628E+02 -0.60738179052E+01  0.25450578632E+02  0.13292474666E+03  0.12538932901E+03 0.  0.
          5    1    4    4  502    0  0.22436998406E+02 -0.30205621876E+01 -0.88007801014E+02  0.90994536829E+02  0.47000000000E+01 0. -1.
         -5    1    4    4    0  502  0.13085969222E+02  0.90943800929E+01  0.36902449717E+02  0.40470126450E+02  0.47000000000E+01 0. -1.
          5    1    5    5  503    0 -0.38581111564E+02  0.55983790177E+02  0.12883063003E+02  0.69359572119E+02  0.47000000000E+01 0.  1.
         -5    1    5    5    0  503  0.30581439364E+01 -0.62057608083E+02  0.12567515629E+02  0.63565174540E+02  0.47000000000E+01 0.  1.
<mgrwt>
<rscale>  0 0.26314177E+03</rscale>
<asrwt>0</asrwt>
<pdfrwt beam="1">  1        1 0.22311091E-01 0.26314177E+03</pdfrwt>
<pdfrwt beam="2">  1       -1 0.18364203E-01 0.26314177E+03</pdfrwt>
<totfact> 0.50892330E+03</totfact>
</mgrwt>
</event>
<event>
 9    1  0.8093459E-001  0.2783345E+03  0.7818608E-02  0.1096602E+00
         -2   -1    0    0    0  501 -0.00000000000E+00  0.00000000000E+00  0.24138337791E+03  0.24138337791E+03  0.00000000000E+00 0. -1.
          2   -1    0    0  501    0  0.00000000000E+00 -0.00000000000E+00 -0.80235509526E+02  0.80235509526E+02  0.00000000000E+00 0. -1.
         35    2    1    2    0    0 -0.35527136788E-14  0.35527136788E-14  0.16114786838E+03  0.32161888743E+03  0.27833446296E+03 0.  0.
         25    2    3    3    0    0 -0.20945761869E+02 -0.18562394478E+01  0.40865311506E+01  0.12611305217E+03  0.12428045552E+03 0.  0.
         25    2    3    3    0    0  0.20945761869E+02  0.18562394478E+01  0.15706133723E+03  0.19550583527E+03  0.11450806699E+03 0.  0.
          5    1    4    4  502    0  0.39662306426E+00  0.58584847954E+02 -0.11710135033E+02  0.59929616903E+02  0.47000000000E+01 0.  1.
         -5    1    4    4    0  502 -0.21342384934E+02 -0.60441087401E+02  0.15796666183E+02  0.66183435265E+02  0.47000000000E+01 0.  1.
          5    1    5    5  503    0 -0.39345102584E+02 -0.27311812483E+02  0.79392986068E+02  0.92840230694E+02  0.47000000000E+01 0. -1.
         -5    1    5    5    0  503  0.60290864453E+02  0.29168051931E+02  0.77668351163E+02  0.10266560457E+03  0.47000000000E+01 0. -1.
<mgrwt>
<rscale>  0 0.27833446E+03</rscale>
<asrwt>0</asrwt>
<pdfrwt beam="1">  1        2 0.12343925E-01 0.27833446E+03</pdfrwt>
<pdfrwt beam="2">  1       -2 0.37135904E-01 0.27833446E+03</pdfrwt>
<totfact> 0.33756757E+03</totfact>
</mgrwt>
</event>
<event>
 9    1  0.8093459E-001  0.2718731E+03  0.7818608E-02  0.1100212E+00
          2   -1    0    0  501    0  0.00000000000E+00  0.00000000000E+00  0.11258756377E+04  0.11258756377E+04  0.00000000000E+00 0.  1.
         -2   -1    0    0    0  501 -0.00000000000E+00 -0.00000000000E+00 -0.16412781953E+02  0.16412781953E+02  0.00000000000E+00 0.  1.
         35    2    1    2    0    0  0.00000000000E+00  0.00000000000E+00  0.11094628557E+04  0.11422884196E+04  0.27187314209E+03 0.  0.
         25    2    3    3    0    0 -0.10451695980E+02  0.35362756180E+02  0.70735013175E+03  0.71907510950E+03  0.12395580558E+03 0.  0.
         25    2    3    3    0    0  0.10451695980E+02 -0.35362756180E+02  0.40211272397E+03  0.42321331013E+03  0.12670872353E+03 0.  0.
          5    1    4    4  502    0  0.25026635985E+02 -0.36199090395E+02  0.16406543921E+03  0.16993017683E+03  0.47000000000E+01 0.  1.
         -5    1    4    4    0  502 -0.35478331965E+02  0.71561846575E+02  0.54328469254E+03  0.54914493267E+03  0.47000000000E+01 0.  1.
          5    1    5    5  503    0 -0.57961574301E+02 -0.12687647774E+02  0.19386828114E+03  0.20279921335E+03  0.47000000000E+01 0.  1.
         -5    1    5    5    0  503  0.68413270281E+02 -0.22675108405E+02  0.20824444283E+03  0.22041409678E+03  0.47000000000E+01 0.  1.
<mgrwt>
<rscale>  0 0.27187314E+03</rscale>
<asrwt>0</asrwt>
<pdfrwt beam="1">  1        2 0.17321158E+00 0.27187314E+03</pdfrwt>
<pdfrwt beam="2">  1       -2 0.25250443E-02 0.27187314E+03</pdfrwt>
<totfact> 0.12051179E+04</totfact>
</mgrwt>
</event>
<event>
 9    1  0.8093459E-001  0.2722712E+03  0.7818608E-02  0.1099987E+00
         -2   -1    0    0    0  501 -0.00000000000E+00  0.00000000000E+00  0.45186185964E+02  0.45186185964E+02  0.00000000000E+00 0.  1.
          2   -1    0    0  501    0  0.00000000000E+00 -0.00000000000E+00 -0.41014544448E+03  0.41014544448E+03  0.00000000000E+00 0.  1.
         35    2    1    2    0    0 -0.17763568394E-14 -0.14210854715E-13 -0.36495925852E+03  0.45533163044E+03  0.27227124950E+03 0.  0.
         25    2    3    3    0    0  0.12720833768E+02  0.48261077724E+02 -0.15554598821E+03  0.20630168677E+03  0.12599555660E+03 0.  0.
         25    2    3    3    0    0 -0.12720833768E+02 -0.48261077724E+02 -0.20941327031E+03  0.24902994367E+03  0.12518403983E+03 0.  0.
          5    1    4    4  502    0  0.24205268932E+02  0.87654611749E+02 -0.12626617913E+03  0.15567422393E+03  0.47000000000E+01 0.  1.
         -5    1    4    4    0  502 -0.11484435164E+02 -0.39393534025E+02 -0.29279809078E+02  0.50627462840E+02  0.47000000000E+01 0.  1.
          5    1    5    5  503    0 -0.23122716654E+02  0.28657882647E+02 -0.13985553381E+03  0.14469828817E+03  0.47000000000E+01 0.  1.
         -5    1    5    5    0  503  0.10401882886E+02 -0.76918960371E+02 -0.69557736503E+02  0.10433165550E+03  0.47000000000E+01 0.  1.
<mgrwt>
<rscale>  0 0.27227125E+03</rscale>
<asrwt>0</asrwt>
<pdfrwt beam="1">  1        2 0.63099299E-01 0.27227125E+03</pdfrwt>
<pdfrwt beam="2">  1       -2 0.69517209E-02 0.27227125E+03</pdfrwt>
<totfact> 0.90825217E+03</totfact>
</mgrwt>
</event>
<event>
 9    1  0.8093459E-001  0.2730067E+03  0.7818608E-02  0.1099571E+00
         -2   -1    0    0    0  501 -0.00000000000E+00  0.00000000000E+00  0.10028943233E+03  0.10028943233E+03  0.00000000000E+00 0. -1.
          2   -1    0    0  501    0  0.00000000000E+00 -0.00000000000E+00 -0.18579388425E+03  0.18579388425E+03  0.00000000000E+00 0. -1.
         35    2    1    2    0    0  0.00000000000E+00  0.00000000000E+00 -0.85504451922E+02  0.28608331659E+03  0.27300668990E+03 0.  0.
         25    2    3    3    0    0  0.33086049355E+02 -0.45808796329E+02 -0.43064683466E+02  0.14479453712E+03  0.12616559965E+03 0.  0.
         25    2    3    3    0    0 -0.33086049355E+02  0.45808796329E+02 -0.42439768456E+02  0.14128877947E+03  0.12234481098E+03 0.  0.
          5    1    4    4  502    0 -0.17309065732E+02 -0.17497040512E+02  0.37759321609E+02  0.45316735888E+02  0.47000000000E+01 0.  1.
         -5    1    4    4    0  502  0.50395115086E+02 -0.28311755816E+02 -0.80824005075E+02  0.99477801234E+02  0.47000000000E+01 0.  1.
          5    1    5    5  503    0 -0.58593611314E+02 -0.21490024471E+02 -0.21701680586E+02  0.66242625090E+02  0.47000000000E+01 0. -1.
         -5    1    5    5    0  503  0.25507561959E+02  0.67298820799E+02 -0.20738087870E+02  0.75046154376E+02  0.47000000000E+01 0. -1.
<mgrwt>
<rscale>  0 0.27300669E+03</rscale>
<asrwt>0</asrwt>
<pdfrwt beam="1">  1        2 0.28583675E-01 0.27300669E+03</pdfrwt>
<pdfrwt beam="2">  1       -2 0.15429143E-01 0.27300669E+03</pdfrwt>
<totfact> 0.59961844E+03</totfact>
</mgrwt>
</event>
<event>
 9    1  0.8093459E-001  0.2739403E+03  0.7818608E-02  0.1099045E+00
          2   -1    0    0  501    0  0.00000000000E+00  0.00000000000E+00  0.67773499911E+03  0.67773499911E+03  0.00000000000E+00 0. -1.
         -2   -1    0    0    0  501 -0.00000000000E+00 -0.00000000000E+00 -0.27681645527E+02  0.27681645527E+02  0.00000000000E+00 0. -1.
         35    2    1    2    0    0  0.71054273576E-14  0.00000000000E+00  0.65005335358E+03  0.70541664463E+03  0.27394028551E+03 0.  0.
         25    2    3    3    0    0 -0.17670178643E+02 -0.33686180244E+02  0.21898567456E+03  0.25492605821E+03  0.12484220257E+03 0.  0.
         25    2    3    3    0    0  0.17670178643E+02  0.33686180244E+02  0.43106767902E+03  0.45049058642E+03  0.12520155990E+03 0.  0.
          5    1    4    4  502    0 -0.36934897190E+02  0.32466246488E+02  0.41639776119E+02  0.64608085769E+02  0.47000000000E+01 0.  1.
         -5    1    4    4    0  502  0.19264718547E+02 -0.66152426733E+02  0.17734589844E+03  0.19031797245E+03  0.47000000000E+01 0.  1.
          5    1    5    5  503    0 -0.50176219793E+02 -0.65603219631E+01  0.14220928596E+03  0.15101742241E+03  0.47000000000E+01 0. -1.
         -5    1    5    5    0  503  0.67846398436E+02  0.40246502207E+02  0.28885839306E+03  0.29947316401E+03  0.47000000000E+01 0. -1.
<mgrwt>
<rscale>  0 0.27394029E+03</rscale>
<asrwt>0</asrwt>
<pdfrwt beam="1">  1        2 0.10426691E+00 0.27394029E+03</pdfrwt>
<pdfrwt beam="2">  1       -2 0.42587152E-02 0.27394029E+03</pdfrwt>
<totfact> 0.10857968E+04</totfact>
</mgrwt>
</event>
<event>
 9    1  0.8093459E-001  0.2767334E+03  0.7818608E-02  0.1097487E+00
         -2   -1    0    0    0  501 -0.00000000000E+00  0.00000000000E+00  0.72248221268E+02  0.72248221268E+02  0.00000000000E+00 0.  1.
          2   -1    0    0  501    0  0.00000000000E+00 -0.00000000000E+00 -0.26499393517E+03  0.26499393517E+03  0.00000000000E+00 0.  1.
         35    2    1    2    0    0 -0.71054273576E-14  0.00000000000E+00 -0.19274571391E+03  0.33724215644E+03  0.27673337683E+03 0.  0.
         25    2    3    3    0    0 -0.42026180269E+02 -0.21155630485E+02 -0.48417750643E+02  0.14243873772E+03  0.12542230622E+03 0.  0.
         25    2    3    3    0    0  0.42026180269E+02  0.21155630485E+02 -0.14432796326E+03  0.19480341872E+03  0.12208214626E+03 0.  0.
          5    1    4    4  502    0  0.23109513253E+02  0.34589447244E+02 -0.36905598316E+02  0.55808535642E+02  0.47000000000E+01 0.  1.
         -5    1    4    4    0  502 -0.65135693522E+02 -0.55745077728E+02 -0.11512152327E+02  0.86630202082E+02  0.47000000000E+01 0.  1.
          5    1    5    5  503    0  0.18988218520E+02 -0.50224668459E+02 -0.76411135473E+02  0.93508402770E+02  0.47000000000E+01 0.  1.
         -5    1    5    5    0  503  0.23037961749E+02  0.71380298944E+02 -0.67916827789E+02  0.10129501595E+03  0.47000000000E+01 0.  1.
<mgrwt>
<rscale>  0 0.27673338E+03</rscale>
<asrwt>0</asrwt>
<pdfrwt beam="1">  1        2 0.40768298E-01 0.27673338E+03</pdfrwt>
<pdfrwt beam="2">  1       -2 0.11115111E-01 0.27673338E+03</pdfrwt>
<totfact> 0.69555932E+03</totfact>
</mgrwt>
</event>
<event>
 9    1  0.8093459E-001  0.2666533E+03  0.7818608E-02  0.1103210E+00
          1   -1    0    0  501    0  0.00000000000E+00  0.00000000000E+00  0.47122646360E+03  0.47122646360E+03  0.00000000000E+00 0.  1.
         -1   -1    0    0    0  501 -0.00000000000E+00 -0.00000000000E+00 -0.37722820380E+02  0.37722820380E+02  0.00000000000E+00 0.  1.
         35    2    1    2    0    0  0.00000000000E+00  0.00000000000E+00  0.43350364322E+03  0.50894928398E+03  0.26665326733E+03 0.  0.
         25    2    3    3    0    0 -0.36024569316E+01  0.44606906238E+02  0.23903886063E+03  0.27303519410E+03  0.12412045175E+03 0.  0.
         25    2    3    3    0    0  0.36024569316E+01 -0.44606906238E+02  0.19446478259E+03  0.23591408988E+03  0.12584177509E+03 0.  0.
          5    1    4    4  502    0  0.18156926871E+02 -0.34544372563E+02  0.13397734765E+03  0.13962452275E+03  0.47000000000E+01 0. -1.
         -5    1    4    4    0  502 -0.21759383803E+02  0.79151278801E+02  0.10506151298E+03  0.13341067135E+03  0.47000000000E+01 0. -1.
          5    1    5    5  503    0 -0.16805175190E+01  0.94894660168E+01  0.17884423589E+03  0.17916535607E+03  0.47000000000E+01 0.  1.
         -5    1    5    5    0  503  0.52829744506E+01 -0.54096372255E+02  0.15620546695E+02  0.56748733812E+02  0.47000000000E+01 0.  1.
<mgrwt>
<rscale>  0 0.26665327E+03</rscale>
<asrwt>0</asrwt>
<pdfrwt beam="1">  1        1 0.72496375E-01 0.26665327E+03</pdfrwt>
<pdfrwt beam="2">  1       -1 0.58035112E-02 0.26665327E+03</pdfrwt>
<totfact> 0.68228722E+03</totfact>
</mgrwt>
</event>
<event>
 9    1  0.8093459E-001  0.2721034E+03  0.7818608E-02  0.1100082E+00
          2   -1    0    0  501    0  0.00000000000E+00  0.00000000000E+00  0.94777617406E+03  0.94777617406E+03  0.00000000000E+00 0. -1.
         -2   -1    0    0    0  501 -0.00000000000E+00 -0.00000000000E+00 -0.19529997227E+02  0.19529997227E+02  0.00000000000E+00 0. -1.
         35    2    1    2    0    0  0.00000000000E+00  0.00000000000E+00  0.92824617683E+03  0.96730617129E+03  0.27210340719E+03 0.  0.
         25    2    3    3    0    0 -0.54872731096E+01 -0.51845097226E+02  0.52179956628E+03  0.53899760782E+03  0.12460180413E+03 0.  0.
         25    2    3    3    0    0  0.54872731096E+01  0.51845097226E+02  0.40644661055E+03  0.42830856347E+03  0.12462485321E+03 0.  0.
          5    1    4    4  502    0  0.46126372940E+02 -0.21749859135E+02  0.94225675030E+02  0.10724395782E+03  0.47000000000E+01 0. -1.
         -5    1    4    4    0  502 -0.51613646049E+02 -0.30095238091E+02  0.42757389125E+03  0.43175365000E+03  0.47000000000E+01 0. -1.
          5    1    5    5  503    0 -0.11097433079E+02  0.59926038066E+02  0.40458871651E+03  0.40918015908E+03  0.47000000000E+01 0. -1.
         -5    1    5    5    0  503  0.16584706188E+02 -0.80809408395E+01  0.18578940474E+01  0.19128404390E+02  0.47000000000E+01 0. -1.
<mgrwt>
<rscale>  0 0.27210341E+03</rscale>
<asrwt>0</asrwt>
<pdfrwt beam="1">  1        2 0.14581168E+00 0.27210341E+03</pdfrwt>
<pdfrwt beam="2">  1       -2 0.30046157E-02 0.27210341E+03</pdfrwt>
<totfact> 0.11923705E+04</totfact>
</mgrwt>
</event>
<event>
 9    1  0.8093459E-001  0.2751640E+03  0.7818608E-02  0.1098360E+00
          2   -1    0    0  501    0  0.00000000000E+00  0.00000000000E+00  0.69644574815E+03  0.69644574815E+03  0.00000000000E+00 0.  1.
         -2   -1    0    0    0  501 -0.00000000000E+00 -0.00000000000E+00 -0.27179151534E+02  0.27179151534E+02  0.00000000000E+00 0.  1.
         35    2    1    2    0    0  0.00000000000E+00  0.71054273576E-14  0.66926659662E+03  0.72362489969E+03  0.27516398401E+03 0.  0.
         25    2    3    3    0    0  0.85544438477E+01  0.53032978255E+02  0.37055429246E+03  0.39494122416E+03  0.12562806848E+03 0.  0.
         25    2    3    3    0    0 -0.85544438477E+01 -0.53032978255E+02  0.29871230416E+03  0.32868367553E+03  0.12616751804E+03 0.  0.
          5    1    4    4  502    0  0.50180309031E+02 -0.17631355651E+02  0.12227790212E+03  0.13342752139E+03  0.47000000000E+01 0. -1.
         -5    1    4    4    0  502 -0.41625865184E+02  0.70664333906E+02  0.24827639034E+03  0.26151370277E+03  0.47000000000E+01 0. -1.
          5    1    5    5  503    0  0.52753066392E+02 -0.38568305403E+02  0.94987819557E+02  0.11539140375E+03  0.47000000000E+01 0. -1.
         -5    1    5    5    0  503 -0.61307510240E+02 -0.14464672852E+02  0.20372448460E+03  0.21329227178E+03  0.47000000000E+01 0. -1.
<mgrwt>
<rscale>  0 0.27516398E+03</rscale>
<asrwt>0</asrwt>
<pdfrwt beam="1">  1        2 0.10714549E+00 0.27516398E+03</pdfrwt>
<pdfrwt beam="2">  1       -2 0.41814084E-02 0.27516398E+03</pdfrwt>
<totfact> 0.10803058E+04</totfact>
</mgrwt>
</event>
<event>
 9    1  0.8093459E-001  0.2798605E+03  0.7818608E-02  0.1095765E+00
          2   -1    0    0  501    0  0.00000000000E+00  0.00000000000E+00  0.13568870317E+04  0.13568870317E+04  0.00000000000E+00 0. -1.
         -2   -1    0    0    0  501 -0.00000000000E+00 -0.00000000000E+00 -0.14430435489E+02  0.14430435489E+02  0.00000000000E+00 0. -1.
         35    2    1    2    0    0  0.00000000000E+00  0.00000000000E+00  0.13424565962E+04  0.13713174672E+04  0.27986047079E+03 0.  0.
         25    2    3    3    0    0  0.47359055900E+02  0.77335801591E+00  0.50136326593E+03  0.51935991936E+03  0.12698867334E+03 0.  0.
         25    2    3    3    0    0 -0.47359055900E+02 -0.77335801591E+00  0.84109333032E+03  0.85195754787E+03  0.12708341670E+03 0.  0.
          5    1    4    4  502    0  0.56263731743E+02 -0.18432130816E+02  0.92524420970E+02  0.10994639345E+03  0.47000000000E+01 0. -1.
         -5    1    4    4    0  502 -0.89046758429E+01  0.19205488832E+02  0.40883884496E+03  0.40941352591E+03  0.47000000000E+01 0. -1.
          5    1    5    5  503    0  0.32707856622E+02  0.26922467559E+02  0.15926964334E+03  0.16487429283E+03  0.47000000000E+01 0. -1.
         -5    1    5    5    0  503 -0.80066912522E+02 -0.27695825575E+02  0.68182368698E+03  0.68708325504E+03  0.47000000000E+01 0. -1.
<mgrwt>
<rscale>  0 0.27986047E+03</rscale>
<asrwt>0</asrwt>
<pdfrwt beam="1">  1        2 0.20875175E+00 0.27986047E+03</pdfrwt>
<pdfrwt beam="2">  1       -2 0.22200681E-02 0.27986047E+03</pdfrwt>
<totfact> 0.10813459E+04</totfact>
</mgrwt>
</event>
<event>
 9    1  0.8093459E-001  0.2773744E+03  0.7818608E-02  0.1097132E+00
          1   -1    0    0  501    0  0.00000000000E+00  0.00000000000E+00  0.31453841449E+02  0.31453841449E+02  0.00000000000E+00 0.  1.
         -1   -1    0    0    0  501 -0.00000000000E+00 -0.00000000000E+00 -0.61150386473E+03  0.61150386473E+03  0.00000000000E+00 0.  1.
         35    2    1    2    0    0  0.71054273576E-14  0.00000000000E+00 -0.58005002328E+03  0.64295770618E+03  0.27737444444E+03 0.  0.
         25    2    3    3    0    0  0.31816163495E+02  0.50690858759E+02 -0.31555620044E+03  0.34433144651E+03  0.12412331770E+03 0.  0.
         25    2    3    3    0    0 -0.31816163495E+02 -0.50690858759E+02 -0.26449382283E+03  0.29862625967E+03  0.12505530466E+03 0.  0.
          5    1    4    4  502    0 -0.79883737476E+01 -0.38718126035E+02 -0.89906739606E+02  0.98327103209E+02  0.47000000000E+01 0.  1.
         -5    1    4    4    0  502  0.39804537243E+02  0.89408984794E+02 -0.22564946084E+03  0.24600434330E+03  0.47000000000E+01 0.  1.
          5    1    5    5  503    0  0.10642504076E+01 -0.51558740072E+02 -0.26212969958E+02  0.58040038773E+02  0.47000000000E+01 0.  1.
         -5    1    5    5    0  503 -0.32880413903E+02  0.86788131280E+00 -0.23828085288E+03  0.24058622089E+03  0.47000000000E+01 0.  1.
<mgrwt>
<rscale>  0 0.27737444E+03</rscale>
<asrwt>0</asrwt>
<pdfrwt beam="1">  1        1 0.48390526E-02 0.27737444E+03</pdfrwt>
<pdfrwt beam="2">  1       -1 0.94077516E-01 0.27737444E+03</pdfrwt>
<totfact> 0.20082322E+03</totfact>
</mgrwt>
</event>
<event>
 9    1  0.8093459E-001  0.2741766E+03  0.7818608E-02  0.1098913E+00
         -2   -1    0    0    0  501 -0.00000000000E+00  0.00000000000E+00  0.12207859448E+03  0.12207859448E+03  0.00000000000E+00 0.  1.
          2   -1    0    0  501    0  0.00000000000E+00 -0.00000000000E+00 -0.15394349021E+03  0.15394349021E+03  0.00000000000E+00 0.  1.
         35    2    1    2    0    0  0.00000000000E+00  0.00000000000E+00 -0.31864895727E+02  0.27602208469E+03  0.27417662128E+03 0.  0.
         25    2    3    3    0    0  0.38554528024E+02  0.32918260377E+02 -0.41063646999E+02  0.14105110746E+03  0.12505650049E+03 0.  0.
         25    2    3    3    0    0 -0.38554528024E+02 -0.32918260377E+02  0.91987512712E+01  0.13497097722E+03  0.12474968605E+03 0.  0.
          5    1    4    4  502    0 -0.87536899322E+01  0.67410235244E+02 -0.45838303028E+02  0.82121902849E+02  0.47000000000E+01 0. -1.
         -5    1    4    4    0  502  0.47308217956E+02 -0.34491974867E+02  0.47746560290E+01  0.58929204615E+02  0.47000000000E+01 0. -1.
          5    1    5    5  503    0  0.30351509913E+02  0.15456097801E+02 -0.26493258955E+02  0.43406081179E+02  0.47000000000E+01 0.  1.
         -5    1    5    5    0  503 -0.68906037937E+02 -0.48374358178E+02  0.35692010227E+02  0.91564896042E+02  0.47000000000E+01 0.  1.
<mgrwt>
<rscale>  0 0.27417662E+03</rscale>
<asrwt>0</asrwt>
<pdfrwt beam="1">  1        2 0.23683614E-01 0.27417662E+03</pdfrwt>
<pdfrwt beam="2">  1       -2 0.18781322E-01 0.27417662E+03</pdfrwt>
<totfact> 0.53176649E+03</totfact>
</mgrwt>
</event>
<event>
 9    1  0.8093459E-001  0.2827484E+03  0.7818608E-02  0.1094197E+00
          2   -1    0    0  501    0  0.00000000000E+00  0.00000000000E+00  0.18248024004E+04  0.18248024004E+04  0.00000000000E+00 0.  1.
         -2   -1    0    0    0  501 -0.00000000000E+00 -0.00000000000E+00 -0.10952780895E+02  0.10952780895E+02  0.00000000000E+00 0.  1.
         35    2    1    2    0    0  0.00000000000E+00  0.71054273576E-14  0.18138496195E+04  0.18357551813E+04  0.28274837483E+03 0.  0.
         25    2    3    3    0    0 -0.24727488960E+01 -0.25860912151E+02  0.51677699801E+03  0.53248950161E+03  0.12574459190E+03 0.  0.
         25    2    3    3    0    0  0.24727488960E+01  0.25860912151E+02  0.12970726215E+04  0.13032656797E+04  0.12421411006E+03 0.  0.
          5    1    4    4  502    0  0.32953323727E+02 -0.40855945513E+02  0.46415143326E+03  0.46713357065E+03  0.47000000000E+01 0.  1.
         -5    1    4    4    0  502 -0.35426072623E+02  0.14995033362E+02  0.52625564743E+02  0.65355930959E+02  0.47000000000E+01 0.  1.
          5    1    5    5  503    0  0.20157217706E+02 -0.46859073191E+02  0.59433962719E+03  0.59654318252E+03  0.47000000000E+01 0.  1.
         -5    1    5    5    0  503 -0.17684468810E+02  0.72719985342E+02  0.70273299433E+03  0.70672249719E+03  0.47000000000E+01 0.  1.
<mgrwt>
<rscale>  0 0.28274837E+03</rscale>
<asrwt>0</asrwt>
<pdfrwt beam="1">  1        2 0.28073859E+00 0.28274837E+03</pdfrwt>
<pdfrwt beam="2">  1       -2 0.16850447E-02 0.28274837E+03</pdfrwt>
<totfact> 0.91401568E+03</totfact>
</mgrwt>
</event>
<event>
 9    1  0.8093459E-001  0.2746552E+03  0.7818608E-02  0.1098644E+00
          1   -1    0    0  501    0  0.00000000000E+00  0.00000000000E+00  0.60273563591E+03  0.60273563591E+03  0.00000000000E+00 0.  1.
         -1   -1    0    0    0  501 -0.00000000000E+00 -0.00000000000E+00 -0.31288799534E+02  0.31288799534E+02  0.00000000000E+00 0.  1.
         35    2    1    2    0    0  0.71054273576E-14 -0.10658141036E-13  0.57144683638E+03  0.63402443544E+03  0.27465523468E+03 0.  0.
         25    2    3    3    0    0  0.55106837243E+02 -0.96012819499E+01  0.30885046793E+03  0.33748152298E+03  0.12400088178E+03 0.  0.
         25    2    3    3    0    0 -0.55106837243E+02  0.96012819499E+01  0.26259636844E+03  0.29654291247E+03  0.12590432117E+03 0.  0.
          5    1    4    4  502    0  0.11989216089E+02  0.54551780462E+02  0.98526432028E+02  0.11335424942E+03  0.47000000000E+01 0. -1.
         -5    1    4    4    0  502  0.43117621154E+02 -0.64153062412E+02  0.21032403591E+03  0.22412727355E+03  0.47000000000E+01 0. -1.
          5    1    5    5  503    0  0.29985137828E+02  0.23724590241E+02  0.14860803042E+03  0.15352003575E+03  0.47000000000E+01 0.  1.
         -5    1    5    5    0  503 -0.85091975070E+02 -0.14123308292E+02  0.11398833803E+03  0.14302287672E+03  0.47000000000E+01 0.  1.
<mgrwt>
<rscale>  0 0.27465523E+03</rscale>
<asrwt>0</asrwt>
<pdfrwt beam="1">  1        1 0.92728551E-01 0.27465523E+03</pdfrwt>
<pdfrwt beam="2">  1       -1 0.48136619E-02 0.27465523E+03</pdfrwt>
<totfact> 0.64881566E+03</totfact>
</mgrwt>
</event>
<event>
 9    1  0.8093459E-001  0.2735478E+03  0.7818608E-02  0.1099266E+00
          1   -1    0    0  501    0  0.00000000000E+00  0.00000000000E+00  0.21218598391E+03  0.21218598391E+03  0.00000000000E+00 0.  1.
         -1   -1    0    0    0  501 -0.00000000000E+00 -0.00000000000E+00 -0.88163664449E+02  0.88163664449E+02  0.00000000000E+00 0.  1.
         35    2    1    2    0    0 -0.35527136788E-14  0.00000000000E+00  0.12402231946E+03  0.30034964836E+03  0.27354775734E+03 0.  0.
         25    2    3    3    0    0 -0.24546395599E+02 -0.47466888286E+02  0.63465739414E+02  0.15145918546E+03  0.12671366840E+03 0.  0.
         25    2    3    3    0    0  0.24546395599E+02  0.47466888286E+02  0.60556580045E+02  0.14889046290E+03  0.12508253090E+03 0.  0.
          5    1    4    4  502    0  0.19938347239E+02  0.36319449358E+02  0.11794631887E+02  0.43334090894E+02  0.47000000000E+01 0.  1.
         -5    1    4    4    0  502 -0.44484742838E+02 -0.83786337644E+02  0.51671107527E+02  0.10812509456E+03  0.47000000000E+01 0.  1.
          5    1    5    5  503    0  0.13908776262E+02  0.90369882158E+02  0.39781598420E+02  0.99824021314E+02  0.47000000000E+01 0. -1.
         -5    1    5    5    0  503  0.10637619337E+02 -0.42902993872E+02  0.20774981626E+02  0.49066441586E+02  0.47000000000E+01 0. -1.
<mgrwt>
<rscale>  0 0.27354776E+03</rscale>
<asrwt>0</asrwt>
<pdfrwt beam="1">  1        1 0.32643997E-01 0.27354776E+03</pdfrwt>
<pdfrwt beam="2">  1       -1 0.13563641E-01 0.27354776E+03</pdfrwt>
<totfact> 0.50964235E+03</totfact>
</mgrwt>
</event>
<event>
 9    1  0.8093459E-001  0.2781812E+03  0.7818608E-02  0.1096686E+00
         -2   -1    0    0    0  501 -0.00000000000E+00  0.00000000000E+00  0.87348967576E+01  0.87348967576E+01  0.00000000000E+00 0. -1.
          2   -1    0    0  501    0  0.00000000000E+00 -0.00000000000E+00 -0.22148168910E+04  0.22148168910E+04  0.00000000000E+00 0. -1.
         35    2    1    2    0    0  0.71054273576E-14  0.00000000000E+00 -0.22060819942E+04  0.22235517878E+04  0.27818121345E+03 0.  0.
         25    2    3    3    0    0 -0.38305643178E+02  0.40492847625E+02 -0.12422667012E+04  0.12499338590E+04  0.12649546192E+03 0.  0.
         25    2    3    3    0    0  0.38305643178E+02 -0.40492847625E+02 -0.96381529302E+03  0.97361792877E+03  0.12603554713E+03 0.  0.
          5    1    4    4  502    0 -0.46492896108E+02  0.80586892800E+02 -0.71171361196E+03  0.71778422393E+03  0.47000000000E+01 0.  1.
         -5    1    4    4    0  502  0.81872529308E+01 -0.40094045176E+02 -0.53055308925E+03  0.53214963505E+03  0.47000000000E+01 0.  1.
          5    1    5    5  503    0 -0.60756475591E+01 -0.78652578349E+02 -0.56769971440E+03  0.57317379329E+03  0.47000000000E+01 0. -1.
         -5    1    5    5    0  503  0.44381290737E+02  0.38159730724E+02 -0.39611557862E+03  0.40044413548E+03  0.47000000000E+01 0. -1.
<mgrwt>
<rscale>  0 0.27818121E+03</rscale>
<asrwt>0</asrwt>
<pdfrwt beam="1">  1        2 0.34074090E+00 0.27818121E+03</pdfrwt>
<pdfrwt beam="2">  1       -2 0.13438309E-02 0.27818121E+03</pdfrwt>
<totfact> 0.79240885E+03</totfact>
</mgrwt>
</event>
<event>
 9    1  0.8093459E-001  0.2798069E+03  0.7818608E-02  0.1095794E+00
         -2   -1    0    0    0  501 -0.00000000000E+00  0.00000000000E+00  0.21062227634E+03  0.21062227634E+03  0.00000000000E+00 0.  1.
          2   -1    0    0  501    0  0.00000000000E+00 -0.00000000000E+00 -0.92929260449E+02  0.92929260449E+02  0.00000000000E+00 0.  1.
         35    2    1    2    0    0  0.00000000000E+00  0.35527136788E-14  0.11769301589E+03  0.30355153679E+03  0.27980687893E+03 0.  0.
         25    2    3    3    0    0 -0.50719643902E+02 -0.23148357589E+02  0.27003427607E+02  0.13956290884E+03  0.12506115178E+03 0.  0.
         25    2    3    3    0    0  0.50719643902E+02  0.23148357589E+02  0.90689588287E+02  0.16398862795E+03  0.12473708325E+03 0.  0.
          5    1    4    4  502    0  0.19316043297E+02 -0.18672805150E+02  0.56929371509E+02  0.63125482345E+02  0.47000000000E+01 0. -1.
         -5    1    4    4    0  502 -0.70035687200E+02 -0.44755524389E+01 -0.29925943902E+02  0.76437426497E+02  0.47000000000E+01 0. -1.
          5    1    5    5  503    0  0.11288368999E+02 -0.51032098033E+02  0.35911643814E+02  0.63588037128E+02  0.47000000000E+01 0. -1.
         -5    1    5    5    0  503  0.39431274903E+02  0.74180455622E+02  0.54777944473E+02  0.10040059082E+03  0.47000000000E+01 0. -1.
<mgrwt>
<rscale>  0 0.27980688E+03</rscale>
<asrwt>0</asrwt>
<pdfrwt beam="1">  1        2 0.14296809E-01 0.27980688E+03</pdfrwt>
<pdfrwt beam="2">  1       -2 0.32403427E-01 0.27980688E+03</pdfrwt>
<totfact> 0.36468780E+03</totfact>
</mgrwt>
</event>
<event>
 9    1  0.8093459E-001  0.2751232E+03  0.7818608E-02  0.1098383E+00
          4   -1    0    0  501    0  0.00000000000E+00  0.00000000000E+00  0.32084629578E+03  0.32084629578E+03  0.00000000000E+00 0.  1.
         -4   -1    0    0    0  501 -0.00000000000E+00 -0.00000000000E+00 -0.58978989560E+02  0.58978989560E+02  0.00000000000E+00 0.  1.
         35    2    1    2    0    0  0.00000000000E+00 -0.71054273576E-14  0.26186730622E+03  0.37982528534E+03  0.27512317481E+03 0.  0.
         25    2    3    3    0    0  0.18362734999E+02  0.49399500620E+02  0.99847066921E+02  0.16901208918E+03  0.12577022230E+03 0.  0.
         25    2    3    3    0    0 -0.18362734999E+02 -0.49399500620E+02  0.16202023930E+03  0.21081319617E+03  0.12415371536E+03 0.  0.
          5    1    4    4  502    0 -0.53435223421E+02  0.23661192130E+02  0.55108350320E+02  0.80462384939E+02  0.47000000000E+01 0. -1.
         -5    1    4    4    0  502  0.71797958420E+02  0.25738308490E+02  0.44738716602E+02  0.88549704236E+02  0.47000000000E+01 0. -1.
          5    1    5    5  503    0 -0.49053577587E+02 -0.76853528462E+02  0.93116730812E+02  0.13040526779E+03  0.47000000000E+01 0.  1.
         -5    1    5    5    0  503  0.30690842588E+02  0.27454027842E+02  0.68903508490E+02  0.80407928376E+02  0.47000000000E+01 0.  1.
<mgrwt>
<rscale>  0 0.27512317E+03</rscale>
<asrwt>0</asrwt>
<pdfrwt beam="1">  1        4 0.49360968E-01 0.27512317E+03</pdfrwt>
<pdfrwt beam="2">  1       -4 0.90736909E-02 0.27512317E+03</pdfrwt>
<totfact> 0.66757438E+02</totfact>
</mgrwt>
</event>
<event>
 9    1  0.8093459E-001  0.2755901E+03  0.7818608E-02  0.1098122E+00
          1   -1    0    0  501    0  0.00000000000E+00  0.00000000000E+00  0.19671622157E+03  0.19671622157E+03  0.00000000000E+00 0. -1.
         -1   -1    0    0    0  501 -0.00000000000E+00 -0.00000000000E+00 -0.96522148656E+02  0.96522148656E+02  0.00000000000E+00 0. -1.
         35    2    1    2    0    0  0.71054273576E-14  0.00000000000E+00  0.10019407291E+03  0.29323837022E+03  0.27559007516E+03 0.  0.
         25    2    3    3    0    0 -0.45085626848E+02 -0.32796334797E+02  0.61171019267E+02  0.15112248587E+03  0.12644286778E+03 0.  0.
         25    2    3    3    0    0  0.45085626848E+02  0.32796334797E+02  0.39023053646E+02  0.14211588436E+03  0.12476302556E+03 0.  0.
          5    1    4    4  502    0 -0.64527989486E+02 -0.34660115406E+02  0.89905791147E+02  0.11606173490E+03  0.47000000000E+01 0. -1.
         -5    1    4    4    0  502  0.19442362638E+02  0.18637806087E+01 -0.28734771880E+02  0.35060750963E+02  0.47000000000E+01 0. -1.
          5    1    5    5  503    0 -0.35911633432E+02  0.32530121220E+02  0.36670060691E+02  0.60947826486E+02  0.47000000000E+01 0.  1.
         -5    1    5    5    0  503  0.80997260281E+02  0.26621357768E+00  0.23529929554E+01  0.81168057871E+02  0.47000000000E+01 0.  1.
<mgrwt>
<rscale>  0 0.27559008E+03</rscale>
<asrwt>0</asrwt>
<pdfrwt beam="1">  1        1 0.30264034E-01 0.27559008E+03</pdfrwt>
<pdfrwt beam="2">  1       -1 0.14849561E-01 0.27559008E+03</pdfrwt>
<totfact> 0.48598860E+03</totfact>
</mgrwt>
</event>
<event>
 9    1  0.8093459E-001  0.2737832E+03  0.7818608E-02  0.1099134E+00
         -2   -1    0    0    0  501 -0.00000000000E+00  0.00000000000E+00  0.38296940738E+02  0.38296940738E+02  0.00000000000E+00 0. -1.
          2   -1    0    0  501    0  0.00000000000E+00 -0.00000000000E+00 -0.48931628331E+03  0.48931628331E+03  0.00000000000E+00 0. -1.
         35    2    1    2    0    0 -0.71054273576E-14  0.00000000000E+00 -0.45101934257E+03  0.52761322405E+03  0.27378324787E+03 0.  0.
         25    2    3    3    0    0  0.32116912735E+02 -0.95101193032E+01 -0.31030698983E+03  0.33615745387E+03  0.12485778872E+03 0.  0.
         25    2    3    3    0    0 -0.32116912735E+02  0.95101193032E+01 -0.14071235274E+03  0.19145577017E+03  0.12543287953E+03 0.  0.
          5    1    4    4  502    0  0.48302340615E+02 -0.53890051076E+02 -0.24440358824E+03  0.25493618350E+03  0.47000000000E+01 0.  1.
         -5    1    4    4    0  502 -0.16185427880E+02  0.44379931773E+02 -0.65903401592E+02  0.81221270375E+02  0.47000000000E+01 0.  1.
          5    1    5    5  503    0 -0.53873521945E+02 -0.45350775499E+02 -0.79071298512E+02  0.10598777974E+03  0.47000000000E+01 0. -1.
         -5    1    5    5    0  503  0.21756609210E+02  0.54860894802E+02 -0.61641054227E+02  0.85467990436E+02  0.47000000000E+01 0. -1.
<mgrwt>
<rscale>  0 0.27378325E+03</rscale>
<asrwt>0</asrwt>
<pdfrwt beam="1">  1        2 0.75279426E-01 0.27378325E+03</pdfrwt>
<pdfrwt beam="2">  1       -2 0.58918372E-02 0.27378325E+03</pdfrwt>
<totfact> 0.96505977E+03</totfact>
</mgrwt>
</event>
<event>
 9    1  0.8093459E-001  0.2733087E+03  0.7818608E-02  0.1099401E+00
         -2   -1    0    0    0  501 -0.00000000000E+00  0.00000000000E+00  0.22210236804E+02  0.22210236804E+02  0.00000000000E+00 0.  1.
          2   -1    0    0  501    0  0.00000000000E+00 -0.00000000000E+00 -0.84080206381E+03  0.84080206381E+03  0.00000000000E+00 0.  1.
         35    2    1    2    0    0  0.71054273576E-14  0.00000000000E+00 -0.81859182701E+03  0.86301230061E+03  0.27330871148E+03 0.  0.
         25    2    3    3    0    0  0.49914055923E+02 -0.97069486486E+01 -0.36527636655E+03  0.38968937736E+03  0.12587831043E+03 0.  0.
         25    2    3    3    0    0 -0.49914055923E+02  0.97069486486E+01 -0.45331546046E+03  0.47332292325E+03  0.12630932332E+03 0.  0.
          5    1    4    4  502    0  0.19600131848E+02 -0.56639753299E+02 -0.28804182223E+03  0.29424888814E+03  0.47000000000E+01 0. -1.
         -5    1    4    4    0  502  0.30313924075E+02  0.46932804650E+02 -0.77234544323E+02  0.95440489217E+02  0.47000000000E+01 0. -1.
          5    1    5    5  503    0 -0.39503498626E+02 -0.33113500124E+02 -0.67955008265E+02  0.85422499627E+02  0.47000000000E+01 0. -1.
         -5    1    5    5    0  503 -0.10410557297E+02  0.42820448773E+02 -0.38536045219E+03  0.38790042363E+03  0.47000000000E+01 0. -1.
<mgrwt>
<rscale>  0 0.27330871E+03</rscale>
<asrwt>0</asrwt>
<pdfrwt beam="1">  1        2 0.12935415E+00 0.27330871E+03</pdfrwt>
<pdfrwt beam="2">  1       -2 0.34169600E-02 0.27330871E+03</pdfrwt>
<totfact> 0.11549468E+04</totfact>
</mgrwt>
</event>
<event>
 9    1  0.8093459E-001  0.2690150E+03  0.7818608E-02  0.1101845E+00
          2   -1    0    0  501    0  0.00000000000E+00  0.00000000000E+00  0.16816437088E+04  0.16816437088E+04  0.00000000000E+00 0. -1.
         -2   -1    0    0    0  501 -0.00000000000E+00 -0.00000000000E+00 -0.10758679255E+02  0.10758679255E+02  0.00000000000E+00 0. -1.
         35    2    1    2    0    0  0.35527136788E-14  0.00000000000E+00  0.16708850296E+04  0.16924023881E+04  0.26901498311E+03 0.  0.
         25    2    3    3    0    0  0.27636586904E+02  0.47460869428E+02  0.90105095628E+03  0.91132852351E+03  0.12494213418E+03 0.  0.
         25    2    3    3    0    0 -0.27636586904E+02 -0.47460869428E+02  0.76983407328E+03  0.78107386455E+03  0.12006484268E+03 0.  0.
          5    1    4    4  502    0  0.55906540173E+01 -0.41795631709E+02  0.36135068846E+03  0.36383312149E+03  0.47000000000E+01 0.  1.
         -5    1    4    4    0  502  0.22045932887E+02  0.89256501137E+02  0.53970026782E+03  0.54749540202E+03  0.47000000000E+01 0.  1.
          5    1    5    5  503    0 -0.84264464600E+01  0.39623726808E+02  0.18341201110E+03  0.18789119336E+03  0.47000000000E+01 0. -1.
         -5    1    5    5    0  503 -0.19210140444E+02 -0.87084596236E+02  0.58642206217E+03  0.59318267119E+03  0.47000000000E+01 0. -1.
<mgrwt>
<rscale>  0 0.26901498E+03</rscale>
<asrwt>0</asrwt>
<pdfrwt beam="1">  1        2 0.25871421E+00 0.26901498E+03</pdfrwt>
<pdfrwt beam="2">  1       -2 0.16551828E-02 0.26901498E+03</pdfrwt>
<totfact> 0.11150207E+04</totfact>
</mgrwt>
</event>
<event>
 9    1  0.8093459E-001  0.2773997E+03  0.7818608E-02  0.1097118E+00
          2   -1    0    0  501    0  0.00000000000E+00  0.00000000000E+00  0.79540804824E+02  0.79540804824E+02  0.00000000000E+00 0. -1.
         -2   -1    0    0    0  501 -0.00000000000E+00 -0.00000000000E+00 -0.24185879931E+03  0.24185879931E+03  0.00000000000E+00 0. -1.
         35    2    1    2    0    0 -0.71054273576E-14  0.00000000000E+00 -0.16231799448E+03  0.32139960413E+03  0.27739966511E+03 0.  0.
         25    2    3    3    0    0 -0.26290794541E+02 -0.21808732334E+02 -0.29560171575E+02  0.13261031848E+03  0.12467905253E+03 0.  0.
         25    2    3    3    0    0  0.26290794541E+02  0.21808732334E+02 -0.13275782291E+03  0.18878928565E+03  0.12980727310E+03 0.  0.
          5    1    4    4  502    0 -0.34787219829E+02  0.35999988554E+02 -0.49631538855E+02  0.70650757168E+02  0.47000000000E+01 0.  1.
         -5    1    4    4    0  502  0.84964252875E+01 -0.57808720888E+02  0.20071367281E+02  0.61959561311E+02  0.47000000000E+01 0.  1.
          5    1    5    5  503    0  0.31702745836E+02  0.74442924843E+02 -0.77477477512E+02  0.11212342607E+03  0.47000000000E+01 0.  1.
         -5    1    5    5    0  503 -0.54119512944E+01 -0.52634192509E+02 -0.55280345396E+02  0.76665859579E+02  0.47000000000E+01 0.  1.
<mgrwt>
<rscale>  0 0.27739967E+03</rscale>
<asrwt>0</asrwt>
<pdfrwt beam="1">  1        2 0.12237047E-01 0.27739967E+03</pdfrwt>
<pdfrwt beam="2">  1       -2 0.37209046E-01 0.27739967E+03</pdfrwt>
<totfact> 0.33985332E+03</totfact>
</mgrwt>
</event>
<event>
 9    1  0.8093459E-001  0.2658065E+03  0.7818608E-02  0.1103704E+00
          2   -1    0    0  501    0  0.00000000000E+00  0.00000000000E+00  0.80148822697E+02  0.80148822697E+02  0.00000000000E+00 0.  1.
         -2   -1    0    0    0  501 -0.00000000000E+00 -0.00000000000E+00 -0.22038098588E+03  0.22038098588E+03  0.00000000000E+00 0.  1.
         35    2    1    2    0    0  0.00000000000E+00 -0.71054273576E-14 -0.14023216319E+03  0.30052980858E+03  0.26580652034E+03 0.  0.
         25    2    3    3    0    0 -0.32589038299E+01 -0.42929057613E+02 -0.86939153291E+02  0.15828505761E+03  0.12506885561E+03 0.  0.
         25    2    3    3    0    0  0.32589038299E+01  0.42929057613E+02 -0.53293009896E+02  0.14224475097E+03  0.12465913458E+03 0.  0.
          5    1    4    4  502    0 -0.52710761603E+02 -0.16603353229E+02 -0.85592687244E+00  0.55469976907E+02  0.47000000000E+01 0.  1.
         -5    1    4    4    0  502  0.49451857773E+02 -0.26325704384E+02 -0.86083226419E+02  0.10281508070E+03  0.47000000000E+01 0.  1.
          5    1    5    5  503    0  0.55432969639E+02  0.64764493751E+01  0.44435542653E+01  0.56183571389E+02  0.47000000000E+01 0.  1.
         -5    1    5    5    0  503 -0.52174065810E+02  0.36452608237E+02 -0.57736564161E+02  0.86061179585E+02  0.47000000000E+01 0.  1.
<mgrwt>
<rscale>  0 0.26580652E+03</rscale>
<asrwt>0</asrwt>
<pdfrwt beam="1">  1        2 0.12330588E-01 0.26580652E+03</pdfrwt>
<pdfrwt beam="2">  1       -2 0.33904766E-01 0.26580652E+03</pdfrwt>
<totfact> 0.40008551E+03</totfact>
</mgrwt>
</event>
<event>
 9    1  0.8093459E-001  0.2770338E+03  0.7818608E-02  0.1097320E+00
          1   -1    0    0  501    0  0.00000000000E+00  0.00000000000E+00  0.19143861776E+03  0.19143861776E+03  0.00000000000E+00 0. -1.
         -1   -1    0    0    0  501 -0.00000000000E+00 -0.00000000000E+00 -0.10022496656E+03  0.10022496656E+03  0.00000000000E+00 0. -1.
         35    2    1    2    0    0  0.00000000000E+00  0.35527136788E-14  0.91213651199E+02  0.29166358433E+03  0.27703378180E+03 0.  0.
         25    2    3    3    0    0  0.41974330331E+02 -0.49784622623E+01 -0.11340139077E+01  0.13179912073E+03  0.12483225843E+03 0.  0.
         25    2    3    3    0    0 -0.41974330331E+02  0.49784622623E+01  0.92347665107E+02  0.15986446360E+03  0.12345819526E+03 0.  0.
          5    1    4    4  502    0  0.43408020956E+02 -0.50636479658E+02 -0.34306924690E+02  0.75148948344E+02  0.47000000000E+01 0. -1.
         -5    1    4    4    0  502 -0.14336906248E+01  0.45658017396E+02  0.33172910782E+02  0.56650172384E+02  0.47000000000E+01 0. -1.
          5    1    5    5  503    0 -0.50606295957E+02  0.34464555647E+02  0.10862362600E+03  0.12477974560E+03  0.47000000000E+01 0. -1.
         -5    1    5    5    0  503  0.86319656259E+01 -0.29486093384E+02 -0.16275960897E+02  0.35084717995E+02  0.47000000000E+01 0. -1.
<mgrwt>
<rscale>  0 0.27703378E+03</rscale>
<asrwt>0</asrwt>
<pdfrwt beam="1">  1        1 0.29452095E-01 0.27703378E+03</pdfrwt>
<pdfrwt beam="2">  1       -1 0.15419226E-01 0.27703378E+03</pdfrwt>
<totfact> 0.47385366E+03</totfact>
</mgrwt>
</event>
<event>
 9    1  0.8093459E-001  0.2755296E+03  0.7818608E-02  0.1098156E+00
          3   -1    0    0  501    0  0.00000000000E+00  0.00000000000E+00  0.30576721362E+03  0.30576721362E+03  0.00000000000E+00 0.  1.
         -3   -1    0    0    0  501 -0.00000000000E+00 -0.00000000000E+00 -0.62070553565E+02  0.62070553565E+02  0.00000000000E+00 0.  1.
         35    2    1    2    0    0  0.00000000000E+00  0.71054273576E-14  0.24369666005E+03  0.36783776718E+03  0.27552960067E+03 0.  0.
         25    2    3    3    0    0 -0.34328777428E+02 -0.26362443249E+02  0.16962531718E+03  0.21493229287E+03  0.12469843190E+03 0.  0.
         25    2    3    3    0    0  0.34328777428E+02  0.26362443249E+02  0.74071342875E+02  0.15290547431E+03  0.12657044230E+03 0.  0.
          5    1    4    4  502    0 -0.38337437919E+02 -0.27236638261E+02  0.21184873877E+01  0.47309318308E+02  0.47000000000E+01 0.  1.
         -5    1    4    4    0  502  0.40086604912E+01  0.87419501197E+00  0.16750682979E+03  0.16762297456E+03  0.47000000000E+01 0.  1.
          5    1    5    5  503    0  0.70448076427E+02  0.28096132746E+02  0.85788628324E+02  0.11460411379E+03  0.47000000000E+01 0.  1.
         -5    1    5    5    0  503 -0.36119299000E+02 -0.17336894976E+01 -0.11717285449E+02  0.38301360521E+02  0.47000000000E+01 0.  1.
<mgrwt>
<rscale>  0 0.27552960E+03</rscale>
<asrwt>0</asrwt>
<pdfrwt beam="1">  1        3 0.47041109E-01 0.27552960E+03</pdfrwt>
<pdfrwt beam="2">  1       -3 0.95493161E-02 0.27552960E+03</pdfrwt>
<totfact> 0.91484038E+02</totfact>
</mgrwt>
</event>
<event>
 9    1  0.8093459E-001  0.2798270E+03  0.7818608E-02  0.1095783E+00
          1   -1    0    0  501    0  0.00000000000E+00  0.00000000000E+00  0.12153987872E+04  0.12153987872E+04  0.00000000000E+00 0.  1.
         -1   -1    0    0    0  501 -0.00000000000E+00 -0.00000000000E+00 -0.16106477109E+02  0.16106477109E+02  0.00000000000E+00 0.  1.
         35    2    1    2    0    0 -0.14210854715E-13  0.14210854715E-13  0.11992923101E+04  0.12315052643E+04  0.27982703761E+03 0.  0.
         25    2    3    3    0    0 -0.49807904993E+02  0.37903782704E+02  0.58277788569E+03  0.59931702289E+03  0.12503321850E+03 0.  0.
         25    2    3    3    0    0  0.49807904993E+02 -0.37903782704E+02  0.61651442443E+03  0.63218824145E+03  0.12511759651E+03 0.  0.
          5    1    4    4  502    0 -0.14031950025E+02 -0.93404199913E+01  0.48195875801E+03  0.48227634556E+03  0.47000000000E+01 0.  1.
         -5    1    4    4    0  502 -0.35775954968E+02  0.47244202695E+02  0.10081912769E+03  0.11704067733E+03  0.47000000000E+01 0.  1.
          5    1    5    5  503    0  0.53101911818E+02  0.34009750126E+01  0.55678531637E+03  0.55934189741E+03  0.47000000000E+01 0.  1.
         -5    1    5    5    0  503 -0.32940068253E+01 -0.41304757716E+02  0.59729108055E+02  0.72846344040E+02  0.47000000000E+01 0.  1.
<mgrwt>
<rscale>  0 0.27982704E+03</rscale>
<asrwt>0</asrwt>
<pdfrwt beam="1">  1        1 0.18698436E+00 0.27982704E+03</pdfrwt>
<pdfrwt beam="2">  1       -1 0.24779205E-02 0.27982704E+03</pdfrwt>
<totfact> 0.55901383E+03</totfact>
</mgrwt>
</event>
<event>
 9    1  0.8093459E-001  0.2764881E+03  0.7818608E-02  0.1097623E+00
          2   -1    0    0  501    0  0.00000000000E+00  0.00000000000E+00  0.11992440669E+04  0.11992440669E+04  0.00000000000E+00 0.  1.
         -2   -1    0    0    0  501 -0.00000000000E+00 -0.00000000000E+00 -0.15936214324E+02  0.15936214324E+02  0.00000000000E+00 0.  1.
         35    2    1    2    0    0  0.00000000000E+00 -0.14210854715E-13  0.11833078526E+04  0.12151802812E+04  0.27648805021E+03 0.  0.
         25    2    3    3    0    0 -0.24582471892E+02  0.49791895729E+02  0.60178718331E+03  0.61772770391E+03  0.12789124821E+03 0.  0.
         25    2    3    3    0    0  0.24582471892E+02 -0.49791895729E+02  0.58152066925E+03  0.59745257731E+03  0.12529869336E+03 0.  0.
          5    1    4    4  502    0 -0.25446334417E+02 -0.23556643303E+01  0.51976827542E+03  0.52041734716E+03  0.47000000000E+01 0.  1.
         -5    1    4    4    0  502  0.86386252495E+00  0.52147560059E+02  0.82018907893E+02  0.97310356749E+02  0.47000000000E+01 0.  1.
          5    1    5    5  503    0  0.19306223311E+02  0.27196722892E+02  0.38191606774E+03  0.38339844130E+03  0.47000000000E+01 0.  1.
         -5    1    5    5    0  503  0.52762485816E+01 -0.76988618621E+02  0.19960460152E+03  0.21405413601E+03  0.47000000000E+01 0.  1.
<mgrwt>
<rscale>  0 0.27648805E+03</rscale>
<asrwt>0</asrwt>
<pdfrwt beam="1">  1        2 0.18449902E+00 0.27648805E+03</pdfrwt>
<pdfrwt beam="2">  1       -2 0.24517262E-02 0.27648805E+03</pdfrwt>
<totfact> 0.11428728E+04</totfact>
</mgrwt>
</event>
<event>
 9    1  0.8093459E-001  0.2738826E+03  0.7818608E-02  0.1099078E+00
         -1   -1    0    0    0  501 -0.00000000000E+00  0.00000000000E+00  0.11610666362E+04  0.11610666362E+04  0.00000000000E+00 0.  1.
          1   -1    0    0  501    0  0.00000000000E+00 -0.00000000000E+00 -0.16151454862E+02  0.16151454862E+02  0.00000000000E+00 0.  1.
         35    2    1    2    0    0  0.00000000000E+00 -0.71054273576E-14  0.11449151813E+04  0.11772180910E+04  0.27388256875E+03 0.  0.
         25    2    3    3    0    0  0.39798272743E+02 -0.36569869728E+02  0.65611070697E+03  0.67010065884E+03  0.12502949768E+03 0.  0.
         25    2    3    3    0    0 -0.39798272743E+02  0.36569869728E+02  0.48880447435E+03  0.50711743221E+03  0.12376194091E+03 0.  0.
          5    1    4    4  502    0  0.35720065733E+02  0.13987347396E+02  0.55994316379E+03  0.56127533855E+03  0.47000000000E+01 0. -1.
         -5    1    4    4    0  502  0.40782070096E+01 -0.50557217124E+02  0.96167543173E+02  0.10882532029E+03  0.47000000000E+01 0. -1.
          5    1    5    5  503    0 -0.48001677951E+02  0.65220397360E+02  0.45341164033E+03  0.46061053712E+03  0.47000000000E+01 0. -1.
         -5    1    5    5    0  503  0.82034052088E+01 -0.28650527633E+02  0.35392834019E+02  0.46506895086E+02  0.47000000000E+01 0. -1.
<mgrwt>
<rscale>  0 0.27388257E+03</rscale>
<asrwt>0</asrwt>
<pdfrwt beam="1">  1        1 0.24848401E-02 0.27388257E+03</pdfrwt>
<pdfrwt beam="2">  1       -1 0.17862557E+00 0.27388257E+03</pdfrwt>
<totfact> 0.10397909E+03</totfact>
</mgrwt>
</event>
<event>
 9    1  0.8093459E-001  0.2748093E+03  0.7818608E-02  0.1098558E+00
          1   -1    0    0  501    0  0.00000000000E+00  0.00000000000E+00  0.23060712278E+04  0.23060712278E+04  0.00000000000E+00 0.  1.
         -1   -1    0    0    0  501 -0.00000000000E+00 -0.00000000000E+00 -0.81871036737E+01  0.81871036737E+01  0.00000000000E+00 0.  1.
         35    2    1    2    0    0  0.00000000000E+00  0.00000000000E+00  0.22978841241E+04  0.23142583315E+04  0.27480934643E+03 0.  0.
         25    2    3    3    0    0 -0.30421181416E+02 -0.49502458037E+02  0.10374880989E+04  0.10466025570E+04  0.12497765944E+03 0.  0.
         25    2    3    3    0    0  0.30421181416E+02  0.49502458037E+02  0.12603960252E+04  0.12676557745E+04  0.12238088283E+03 0.  0.
          5    1    4    4  502    0 -0.11746848930E+02 -0.88650454349E+02  0.55871205470E+03  0.56584285945E+03  0.47000000000E+01 0.  1.
         -5    1    4    4    0  502 -0.18674332485E+02  0.39147996312E+02  0.47877604419E+03  0.48075969756E+03  0.47000000000E+01 0.  1.
          5    1    5    5  503    0  0.57543722574E+02  0.63196674875E+02  0.55242686852E+03  0.55901935099E+03  0.47000000000E+01 0. -1.
         -5    1    5    5    0  503 -0.27122541158E+02 -0.13694216838E+02  0.70796915670E+03  0.70863642346E+03  0.47000000000E+01 0. -1.
<mgrwt>
<rscale>  0 0.27480935E+03</rscale>
<asrwt>0</asrwt>
<pdfrwt beam="1">  1        1 0.35477967E+00 0.27480935E+03</pdfrwt>
<pdfrwt beam="2">  1       -1 0.12595562E-02 0.27480935E+03</pdfrwt>
<totfact> 0.28667772E+03</totfact>
</mgrwt>
</event>
<event>
 9    1  0.8093459E-001  0.2739520E+03  0.7818608E-02  0.1099039E+00
         -1   -1    0    0    0  501 -0.00000000000E+00  0.00000000000E+00  0.26615791542E+03  0.26615791542E+03  0.00000000000E+00 0. -1.
          1   -1    0    0  501    0  0.00000000000E+00 -0.00000000000E+00 -0.70493568256E+02  0.70493568256E+02  0.00000000000E+00 0. -1.
         35    2    1    2    0    0 -0.71054273576E-14  0.00000000000E+00  0.19566434716E+03  0.33665148368E+03  0.27395197519E+03 0.  0.
         25    2    3    3    0    0 -0.35896301426E+02  0.11205294739E+02  0.14757454335E+03  0.19670726210E+03  0.12450461048E+03 0.  0.
         25    2    3    3    0    0  0.35896301426E+02 -0.11205294739E+02  0.48089803813E+02  0.13994422158E+03  0.12592717275E+03 0.  0.
          5    1    4    4  502    0 -0.28328966963E+02 -0.41143271551E+02  0.13223693882E+03  0.14143548760E+03  0.47000000000E+01 0.  1.
         -5    1    4    4    0  502 -0.75673344639E+01  0.52348566291E+02  0.15337604530E+02  0.55271774499E+02  0.47000000000E+01 0.  1.
          5    1    5    5  503    0  0.17030604688E+02 -0.17624283163E+02  0.89948695885E+02  0.93346209053E+02  0.47000000000E+01 0. -1.
         -5    1    5    5    0  503  0.18865696738E+02  0.64189884232E+01 -0.41858892073E+02  0.46598012526E+02  0.47000000000E+01 0. -1.
<mgrwt>
<rscale>  0 0.27395198E+03</rscale>
<asrwt>0</asrwt>
<pdfrwt beam="1">  1        1 0.10845164E-01 0.27395198E+03</pdfrwt>
<pdfrwt beam="2">  1       -1 0.40947371E-01 0.27395198E+03</pdfrwt>
<totfact> 0.33877892E+03</totfact>
</mgrwt>
</event>
<event>
 9    1  0.8093459E-001  0.2757469E+03  0.7818608E-02  0.1098035E+00
         -2   -1    0    0    0  501 -0.00000000000E+00  0.00000000000E+00  0.31416277432E+02  0.31416277432E+02  0.00000000000E+00 0. -1.
          2   -1    0    0  501    0  0.00000000000E+00 -0.00000000000E+00 -0.60507136329E+03  0.60507136329E+03  0.00000000000E+00 0. -1.
         35    2    1    2    0    0  0.35527136788E-14 -0.71054273576E-14 -0.57365508586E+03  0.63648764072E+03  0.27574691161E+03 0.  0.
         25    2    3    3    0    0 -0.93190286761E+01  0.20444326656E+02 -0.16854781704E+03  0.21136761294E+03  0.12555113055E+03 0.  0.
         25    2    3    3    0    0  0.93190286761E+01 -0.20444326656E+02 -0.40510726882E+03  0.42512002778E+03  0.12692645109E+03 0.  0.
          5    1    4    4  502    0  0.45816111365E+02  0.46824508613E+02 -0.97084055873E+02  0.11721371324E+03  0.47000000000E+01 0.  1.
         -5    1    4    4    0  502 -0.55135140041E+02 -0.26380181957E+02 -0.71463761171E+02  0.94153899697E+02  0.47000000000E+01 0.  1.
          5    1    5    5  503    0 -0.11380089530E+02 -0.64552270105E+02 -0.32226283009E+03  0.32889500402E+03  0.47000000000E+01 0.  1.
         -5    1    5    5    0  503  0.20699118206E+02  0.44107943449E+02 -0.82844438724E+02  0.96225023759E+02  0.47000000000E+01 0.  1.
<mgrwt>
<rscale>  0 0.27574691E+03</rscale>
<asrwt>0</asrwt>
<pdfrwt beam="1">  1        2 0.93087887E-01 0.27574691E+03</pdfrwt>
<pdfrwt beam="2">  1       -2 0.48332742E-02 0.27574691E+03</pdfrwt>
<totfact> 0.10254800E+04</totfact>
</mgrwt>
</event>
<event>
 9    1  0.8093459E-001  0.3096422E+03  0.7818608E-02  0.1080518E+00
          2   -1    0    0  501    0  0.00000000000E+00  0.00000000000E+00  0.88318949122E+02  0.88318949122E+02  0.00000000000E+00 0. -1.
         -2   -1    0    0    0  501 -0.00000000000E+00 -0.00000000000E+00 -0.27139776658E+03  0.27139776658E+03  0.00000000000E+00 0. -1.
         35    2    1    2    0    0 -0.35527136788E-14  0.71054273576E-14 -0.18307881746E+03  0.35971671570E+03  0.30964215177E+03 0.  0.
         25    2    3    3    0    0 -0.20580370378E+02  0.54388349018E+01 -0.19375381222E+03  0.23153422057E+03  0.12495768475E+03 0.  0.
         25    2    3    3    0    0  0.20580370378E+02 -0.54388349018E+01  0.10674994761E+02  0.12818249513E+03  0.12595103800E+03 0.  0.
          5    1    4    4  502    0  0.89181357016E+01  0.39178727089E+02 -0.17989655432E+03  0.18438917012E+03  0.47000000000E+01 0.  1.
         -5    1    4    4    0  502 -0.29498506080E+02 -0.33739892187E+02 -0.13857257896E+02  0.47145050452E+02  0.47000000000E+01 0.  1.
          5    1    5    5  503    0  0.51796161562E+02  0.41454272791E+02 -0.11433827834E+02  0.67484231522E+02  0.47000000000E+01 0. -1.
         -5    1    5    5    0  503 -0.31215791184E+02 -0.46893107693E+02  0.22108822595E+02  0.60698263607E+02  0.47000000000E+01 0. -1.
<mgrwt>
<rscale>  0 0.30964215E+03</rscale>
<asrwt>0</asrwt>
<pdfrwt beam="1">  1        2 0.13587531E-01 0.30964215E+03</pdfrwt>
<pdfrwt beam="2">  1       -2 0.41753502E-01 0.30964215E+03</pdfrwt>
<totfact> 0.24102043E+03</totfact>
</mgrwt>
</event>
<event>
 9    1  0.8093459E-001  0.2757348E+03  0.7818608E-02  0.1098042E+00
          1   -1    0    0  501    0  0.00000000000E+00  0.00000000000E+00  0.68594611358E+03  0.68594611358E+03  0.00000000000E+00 0. -1.
         -1   -1    0    0    0  501 -0.00000000000E+00 -0.00000000000E+00 -0.27709791294E+02  0.27709791294E+02  0.00000000000E+00 0. -1.
         35    2    1    2    0    0  0.00000000000E+00 -0.71054273576E-14  0.65823632228E+03  0.71365590487E+03  0.27573482657E+03 0.  0.
         25    2    3    3    0    0  0.35520968277E+02 -0.40844140657E+02  0.39747646065E+03  0.42010923458E+03  0.12479683168E+03 0.  0.
         25    2    3    3    0    0 -0.35520968277E+02  0.40844140657E+02  0.26075986163E+03  0.29354667029E+03  0.12346642939E+03 0.  0.
          5    1    4    4  502    0  0.79469205524E+02 -0.21356665209E+02  0.30286416333E+03  0.31387936091E+03  0.47000000000E+01 0. -1.
         -5    1    4    4    0  502 -0.43948237247E+02 -0.19487475447E+02  0.94612297319E+02  0.10622987367E+03  0.47000000000E+01 0. -1.
          5    1    5    5  503    0  0.16837832639E+02  0.61360997090E+02  0.20302309026E+03  0.21281247555E+03  0.47000000000E+01 0.  1.
         -5    1    5    5    0  503 -0.52358800916E+02 -0.20516856433E+02  0.57736771376E+02  0.80734194739E+02  0.47000000000E+01 0.  1.
<mgrwt>
<rscale>  0 0.27573483E+03</rscale>
<asrwt>0</asrwt>
<pdfrwt beam="1">  1        1 0.10553016E+00 0.27573483E+03</pdfrwt>
<pdfrwt beam="2">  1       -1 0.42630453E-02 0.27573483E+03</pdfrwt>
<totfact> 0.64753621E+03</totfact>
</mgrwt>
</event>
<event>
 9    1  0.8093459E-001  0.2800550E+03  0.7818608E-02  0.1095659E+00
          1   -1    0    0  501    0  0.00000000000E+00  0.00000000000E+00  0.21790863257E+03  0.21790863257E+03  0.00000000000E+00 0. -1.
         -1   -1    0    0    0  501 -0.00000000000E+00 -0.00000000000E+00 -0.89981316987E+02  0.89981316987E+02  0.00000000000E+00 0. -1.
         35    2    1    2    0    0  0.00000000000E+00  0.00000000000E+00  0.12792731558E+03  0.30788994955E+03  0.28005503560E+03 0.  0.
         25    2    3    3    0    0  0.10822502588E+02  0.59405323756E+02  0.87894508949E+02  0.16304603621E+03  0.12333874561E+03 0.  0.
         25    2    3    3    0    0 -0.10822502588E+02 -0.59405323756E+02  0.40032806630E+02  0.14484391334E+03  0.12542334142E+03 0.  0.
          5    1    4    4  502    0  0.63421697053E+02  0.55152923146E+02  0.57833330812E+02  0.10213197708E+03  0.47000000000E+01 0.  1.
         -5    1    4    4    0  502 -0.52599194465E+02  0.42524006096E+01  0.30061178136E+02  0.60914059134E+02  0.47000000000E+01 0.  1.
          5    1    5    5  503    0  0.36964298528E+02 -0.18675670694E+01 -0.25581980114E+02  0.45236875213E+02  0.47000000000E+01 0.  1.
         -5    1    5    5    0  503 -0.47786801116E+02 -0.57537756686E+02  0.65614786745E+02  0.99607038130E+02  0.47000000000E+01 0.  1.
<mgrwt>
<rscale>  0 0.28005504E+03</rscale>
<asrwt>0</asrwt>
<pdfrwt beam="1">  1        1 0.33524405E-01 0.28005504E+03</pdfrwt>
<pdfrwt beam="2">  1       -1 0.13843280E-01 0.28005504E+03</pdfrwt>
<totfact> 0.47761013E+03</totfact>
</mgrwt>
</event>
<event>
 9    1  0.8093459E-001  0.2762083E+03  0.7818608E-02  0.1097778E+00
          1   -1    0    0  501    0  0.00000000000E+00  0.00000000000E+00  0.14190690240E+03  0.14190690240E+03  0.00000000000E+00 0. -1.
         -1   -1    0    0    0  501 -0.00000000000E+00 -0.00000000000E+00 -0.13440332634E+03  0.13440332634E+03  0.00000000000E+00 0. -1.
         35    2    1    2    0    0  0.00000000000E+00  0.14210854715E-13  0.75035760546E+01  0.27631022874E+03  0.27620832510E+03 0.  0.
         25    2    3    3    0    0  0.59666307990E+01  0.59415540730E+02  0.95362663192E+00  0.13731519942E+03  0.12364767456E+03 0.  0.
         25    2    3    3    0    0 -0.59666307990E+01 -0.59415540730E+02  0.65499494227E+01  0.13899502932E+03  0.12534316565E+03 0.  0.
          5    1    4    4  502    0  0.30504239190E+02 -0.12023907151E+02 -0.39459304775E+02  0.51519022556E+02  0.47000000000E+01 0. -1.
         -5    1    4    4    0  502 -0.24537608391E+02  0.71439447881E+02  0.40412931407E+02  0.85796176861E+02  0.47000000000E+01 0. -1.
          5    1    5    5  503    0  0.47591821328E+02 -0.29859547407E+02 -0.33637877029E+02  0.65651891059E+02  0.47000000000E+01 0. -1.
         -5    1    5    5    0  503 -0.53558452127E+02 -0.29555993322E+02  0.40187826452E+02  0.73343138264E+02  0.47000000000E+01 0. -1.
<mgrwt>
<rscale>  0 0.27620833E+03</rscale>
<asrwt>0</asrwt>
<pdfrwt beam="1">  1        1 0.21831831E-01 0.27620833E+03</pdfrwt>
<pdfrwt beam="2">  1       -1 0.20677435E-01 0.27620833E+03</pdfrwt>
<totfact> 0.43239673E+03</totfact>
</mgrwt>
</event>
<event>
 9    1  0.8093459E-001  0.2764532E+03  0.7818608E-02  0.1097642E+00
         -2   -1    0    0    0  501 -0.00000000000E+00  0.00000000000E+00  0.56506657586E+01  0.56506657586E+01  0.00000000000E+00 0. -1.
          2   -1    0    0  501    0  0.00000000000E+00 -0.00000000000E+00 -0.33813000330E+04  0.33813000330E+04  0.00000000000E+00 0. -1.
         35    2    1    2    0    0 -0.71054273576E-14  0.00000000000E+00 -0.33756493672E+04  0.33869506987E+04  0.27645322437E+03 0.  0.
         25    2    3    3    0    0  0.53868683136E+02 -0.15668485540E+02 -0.19042958362E+04  0.19092225084E+04  0.12506245699E+03 0.  0.
         25    2    3    3    0    0 -0.53868683136E+02  0.15668485540E+02 -0.14713535310E+04  0.14777281903E+04  0.12510817306E+03 0.  0.
          5    1    4    4  502    0  0.50761794093E+02 -0.45816851719E+02 -0.17756029119E+04  0.17769253598E+04  0.47000000000E+01 0.  1.
         -5    1    4    4    0  502  0.31068890432E+01  0.30148366180E+02 -0.12869292439E+03  0.13229714861E+03  0.47000000000E+01 0.  1.
          5    1    5    5  503    0  0.27073006849E+02 -0.59251896753E+01 -0.88032903765E+03  0.88077770186E+03  0.47000000000E+01 0.  1.
         -5    1    5    5    0  503 -0.80941689985E+02  0.21593675215E+02 -0.59102449332E+03  0.59695048848E+03  0.47000000000E+01 0.  1.
<mgrwt>
<rscale>  0 0.27645322E+03</rscale>
<asrwt>0</asrwt>
<pdfrwt beam="1">  1        2 0.52020067E+00 0.27645322E+03</pdfrwt>
<pdfrwt beam="2">  1       -2 0.86933208E-03 0.27645322E+03</pdfrwt>
<totfact> 0.31668021E+03</totfact>
</mgrwt>
</event>
<event>
 9    1  0.8093459E-001  0.2744673E+03  0.7818608E-02  0.1098750E+00
         -2   -1    0    0    0  501 -0.00000000000E+00  0.00000000000E+00  0.93851777610E+02  0.93851777610E+02  0.00000000000E+00 0. -1.
          2   -1    0    0  501    0  0.00000000000E+00 -0.00000000000E+00 -0.20066833239E+03  0.20066833239E+03  0.00000000000E+00 0. -1.
         35    2    1    2    0    0 -0.53290705182E-14  0.00000000000E+00 -0.10681655478E+03  0.29452011000E+03  0.27446733653E+03 0.  0.
         25    2    3    3    0    0  0.15696685602E+02 -0.17968876865E+02 -0.10746872136E+03  0.16695799882E+03  0.12552362657E+03 0.  0.
         25    2    3    3    0    0 -0.15696685602E+02  0.17968876865E+02  0.65216657146E+00  0.12756211118E+03  0.12530921918E+03 0.  0.
          5    1    4    4  502    0  0.11613094744E+02 -0.66458925418E+02 -0.27036134619E+02  0.72833339292E+02  0.47000000000E+01 0.  1.
         -5    1    4    4    0  502  0.40835908576E+01  0.48490048554E+02 -0.80432586736E+02  0.94124659532E+02  0.47000000000E+01 0.  1.
          5    1    5    5  503    0 -0.69805218111E+02  0.13828275138E+02  0.10875240022E+02  0.72141184592E+02  0.47000000000E+01 0.  1.
         -5    1    5    5    0  503  0.54108532509E+02  0.41406017267E+01 -0.10223073450E+02  0.55420926587E+02  0.47000000000E+01 0.  1.
<mgrwt>
<rscale>  0 0.27446734E+03</rscale>
<asrwt>0</asrwt>
<pdfrwt beam="1">  1        2 0.30872051E-01 0.27446734E+03</pdfrwt>
<pdfrwt beam="2">  1       -2 0.14438735E-01 0.27446734E+03</pdfrwt>
<totfact> 0.61488911E+03</totfact>
</mgrwt>
</event>
<event>
 8    1  0.8093459E-001  0.3677533E+03  0.7818608E-02  0.1055555E+00
          2   -1    0    0  501    0  0.00000000000E+00  0.00000000000E+00  0.80170107356E+03  0.80170107356E+03  0.00000000000E+00 0. -1.
         -2   -1    0    0    0  501 -0.00000000000E+00 -0.00000000000E+00 -0.42173594641E+02  0.42173594641E+02  0.00000000000E+00 0. -1.
         25    2    1    2    0    0 -0.93262701686E+02  0.92081758679E+02  0.30340796842E+03  0.35317347804E+03  0.12449147956E+03 0.  0.
         25    2    1    2    0    0  0.93262701686E+02 -0.92081758679E+02  0.45611951050E+03  0.49070119016E+03  0.12476244771E+03 0.  0.
          5    1    3    3  502    0 -0.27198761551E+02 -0.22721270945E+02  0.13052348061E+03  0.13533106729E+03  0.47000000000E+01 0. -1.
         -5    1    3    3    0  502 -0.66063940135E+02  0.11480302962E+03  0.17288448781E+03  0.21784241075E+03  0.47000000000E+01 0. -1.
          5    1    4    4  503    0  0.11481096699E+03 -0.97590974906E+02  0.43203530679E+03  0.45758294640E+03  0.47000000000E+01 0.  1.
         -5    1    4    4    0  503 -0.21548265308E+02  0.55092162268E+01  0.24084203714E+02  0.33118243760E+02  0.47000000000E+01 0.  1.
<mgrwt>
<rscale>  0 0.36775327E+03</rscale>
<asrwt>0</asrwt>
<pdfrwt beam="1">  1        2 0.12333862E+00 0.36775327E+03</pdfrwt>
<pdfrwt beam="2">  1       -2 0.64882459E-02 0.36775327E+03</pdfrwt>
<totfact> 0.46614388E+03</totfact>
</mgrwt>
</event>
<event>
 9    1  0.8093459E-001  0.2718342E+03  0.7818608E-02  0.1100234E+00
          4   -1    0    0  501    0  0.00000000000E+00  0.00000000000E+00  0.35165028824E+03  0.35165028824E+03  0.00000000000E+00 0.  1.
         -4   -1    0    0    0  501 -0.00000000000E+00 -0.00000000000E+00 -0.52533594888E+02  0.52533594888E+02  0.00000000000E+00 0.  1.
         35    2    1    2    0    0  0.17763568394E-14  0.35527136788E-14  0.29911669335E+03  0.40418388313E+03  0.27183416845E+03 0.  0.
         25    2    3    3    0    0 -0.15735941146E+02 -0.24073562419E+02  0.22705325681E+03  0.25747034403E+03  0.11794337784E+03 0.  0.
         25    2    3    3    0    0  0.15735941146E+02  0.24073562419E+02  0.72063436546E+02  0.14671353910E+03  0.12451733782E+03 0.  0.
          5    1    4    4  502    0 -0.12598651653E+02 -0.13787947984E+02  0.23955232642E+03  0.24032528087E+03  0.47000000000E+01 0. -1.
         -5    1    4    4    0  502 -0.31372894929E+01 -0.10285614435E+02 -0.12499069609E+02  0.17145063159E+02  0.47000000000E+01 0. -1.
          5    1    5    5  503    0 -0.20382258416E+02  0.46346926527E+02  0.87594058105E+02  0.10128318257E+03  0.47000000000E+01 0.  1.
         -5    1    5    5    0  503  0.36118199562E+02 -0.22273364108E+02 -0.15530621559E+02  0.45430356529E+02  0.47000000000E+01 0.  1.
<mgrwt>
<rscale>  0 0.27183417E+03</rscale>
<asrwt>0</asrwt>
<pdfrwt beam="1">  1        4 0.54100043E-01 0.27183417E+03</pdfrwt>
<pdfrwt beam="2">  1       -4 0.80820917E-02 0.27183417E+03</pdfrwt>
<totfact> 0.66963823E+02</totfact>
</mgrwt>
</event>
<event>
 9    1  0.8093459E-001  0.2742338E+03  0.7818608E-02  0.1098881E+00
         -2   -1    0    0    0  501 -0.00000000000E+00  0.00000000000E+00  0.18030274758E+02  0.18030274758E+02  0.00000000000E+00 0.  1.
          2   -1    0    0  501    0  0.00000000000E+00 -0.00000000000E+00 -0.10427489534E+04  0.10427489534E+04  0.00000000000E+00 0.  1.
         35    2    1    2    0    0  0.71054273576E-14 -0.35527136788E-14 -0.10247186787E+04  0.10607792282E+04  0.27423384280E+03 0.  0.
         25    2    3    3    0    0 -0.44702233839E+02  0.29165167431E+02 -0.57959739623E+03  0.59532257644E+03  0.12500772619E+03 0.  0.
         25    2    3    3    0    0  0.44702233839E+02 -0.29165167431E+02 -0.44512128246E+03  0.46545665176E+03  0.12517204907E+03 0.  0.
          5    1    4    4  502    0 -0.58961339439E+02  0.70452293574E+02 -0.39007126709E+03  0.40077131712E+03  0.47000000000E+01 0. -1.
         -5    1    4    4    0  502  0.14259105600E+02 -0.41287126143E+02 -0.18952612914E+03  0.19455125932E+03  0.47000000000E+01 0. -1.
          5    1    5    5  503    0 -0.37932099107E+01  0.30344531828E+02 -0.29653769668E+03  0.29814740415E+03  0.47000000000E+01 0.  1.
         -5    1    5    5    0  503  0.48495443750E+02 -0.59509699260E+02 -0.14858358578E+03  0.16730924760E+03  0.47000000000E+01 0.  1.
<mgrwt>
<rscale>  0 0.27423384E+03</rscale>
<asrwt>0</asrwt>
<pdfrwt beam="1">  1        2 0.16042295E+00 0.27423384E+03</pdfrwt>
<pdfrwt beam="2">  1       -2 0.27738879E-02 0.27423384E+03</pdfrwt>
<totfact> 0.11742639E+04</totfact>
</mgrwt>
</event>
<event>
 9    1  0.8093459E-001  0.2750103E+03  0.7818608E-02  0.1098446E+00
          1   -1    0    0  501    0  0.00000000000E+00  0.00000000000E+00  0.17571233885E+02  0.17571233885E+02  0.00000000000E+00 0.  1.
         -1   -1    0    0    0  501 -0.00000000000E+00 -0.00000000000E+00 -0.10760581705E+04  0.10760581705E+04  0.00000000000E+00 0.  1.
         35    2    1    2    0    0  0.00000000000E+00  0.00000000000E+00 -0.10584869366E+04  0.10936294044E+04  0.27501032554E+03 0.  0.
         25    2    3    3    0    0 -0.57910122268E+01  0.34391314915E+02 -0.37402047649E+03  0.39611919419E+03  0.12570919144E+03 0.  0.
         25    2    3    3    0    0  0.57910122268E+01 -0.34391314915E+02 -0.68446646014E+03  0.69751021020E+03  0.12965284384E+03 0.  0.
          5    1    4    4  502    0 -0.52341816738E+02  0.14093131116E+02 -0.74306131952E+02  0.92096543745E+02  0.47000000000E+01 0. -1.
         -5    1    4    4    0  502  0.46550804511E+02  0.20298183799E+02 -0.29971434453E+03  0.30402265045E+03  0.47000000000E+01 0. -1.
          5    1    5    5  503    0  0.50984788778E+02 -0.48282880876E+02 -0.55786320975E+03  0.56228474643E+03  0.47000000000E+01 0.  1.
         -5    1    5    5    0  503 -0.45193776551E+02  0.13891565961E+02 -0.12660325039E+03  0.13522546377E+03  0.47000000000E+01 0.  1.
<mgrwt>
<rscale>  0 0.27501033E+03</rscale>
<asrwt>0</asrwt>
<pdfrwt beam="1">  1        1 0.27032662E-02 0.27501033E+03</pdfrwt>
<pdfrwt beam="2">  1       -1 0.16554745E+00 0.27501033E+03</pdfrwt>
<totfact> 0.11438933E+03</totfact>
</mgrwt>
</event>
<event>
 9    1  0.8093459E-001  0.2763066E+03  0.7818608E-02  0.1097723E+00
         -2   -1    0    0    0  501 -0.00000000000E+00  0.00000000000E+00  0.46760492877E+02  0.46760492877E+02  0.00000000000E+00 0.  1.
          2   -1    0    0  501    0  0.00000000000E+00 -0.00000000000E+00 -0.40817226568E+03  0.40817226568E+03  0.00000000000E+00 0.  1.
         35    2    1    2    0    0  0.35527136788E-14  0.00000000000E+00 -0.36141177281E+03  0.45493275856E+03  0.27630661463E+03 0.  0.
         25    2    3    3    0    0 -0.23940145461E+02 -0.33646139176E+02 -0.11039952763E+03  0.17166973329E+03  0.12480884737E+03 0.  0.
         25    2    3    3    0    0  0.23940145461E+02  0.33646139176E+02 -0.25101224518E+03  0.28326302527E+03  0.12460176969E+03 0.  0.
          5    1    4    4  502    0 -0.25665677984E+02 -0.46207520696E+02  0.69721961888E+01  0.53521617268E+02  0.47000000000E+01 0.  1.
         -5    1    4    4    0  502  0.17255325228E+01  0.12561381520E+02 -0.11737172382E+03  0.11814811602E+03  0.47000000000E+01 0.  1.
          5    1    5    5  503    0  0.14948462802E+02  0.65463573363E+02 -0.23814267289E+03  0.24747314728E+03  0.47000000000E+01 0. -1.
         -5    1    5    5    0  503  0.89916826594E+01 -0.31817434186E+02 -0.12869572293E+02  0.35789877986E+02  0.47000000000E+01 0. -1.
<mgrwt>
<rscale>  0 0.27630661E+03</rscale>
<asrwt>0</asrwt>
<pdfrwt beam="1">  1        2 0.62795734E-01 0.27630661E+03</pdfrwt>
<pdfrwt beam="2">  1       -2 0.71939219E-02 0.27630661E+03</pdfrwt>
<totfact> 0.86634267E+03</totfact>
</mgrwt>
</event>
<event>
 9    1  0.8093459E-001  0.2829945E+03  0.7818608E-02  0.1094065E+00
         -3   -1    0    0    0  501 -0.00000000000E+00  0.00000000000E+00  0.33927729633E+03  0.33927729633E+03  0.00000000000E+00 0.  1.
          3   -1    0    0  501    0  0.00000000000E+00 -0.00000000000E+00 -0.59012106297E+02  0.59012106297E+02  0.00000000000E+00 0.  1.
         35    2    1    2    0    0 -0.71054273576E-14 -0.71054273576E-14  0.28026519003E+03  0.39828940262E+03  0.28299447256E+03 0.  0.
         25    2    3    3    0    0 -0.40692399060E+02 -0.44035919919E+02  0.18068307418E+03  0.22751503972E+03  0.12458606030E+03 0.  0.
         25    2    3    3    0    0  0.40692399060E+02  0.44035919919E+02  0.99582115846E+02  0.17077436290E+03  0.12510895908E+03 0.  0.
          5    1    4    4  502    0 -0.67920977825E+02 -0.27549705227E+01  0.15962674404E+03  0.17356162163E+03  0.47000000000E+01 0. -1.
         -5    1    4    4    0  502  0.27228578765E+02 -0.41280949396E+02  0.21056330143E+02  0.53953418091E+02  0.47000000000E+01 0. -1.
          5    1    5    5  503    0 -0.12436741570E+02  0.62173380069E+02  0.94919791673E+02  0.11424560640E+03  0.47000000000E+01 0.  1.
         -5    1    5    5    0  503  0.53129140629E+02 -0.18137460150E+02  0.46623241727E+01  0.56528756500E+02  0.47000000000E+01 0.  1.
<mgrwt>
<rscale>  0 0.28299447E+03</rscale>
<asrwt>0</asrwt>
<pdfrwt beam="1">  1        3 0.90787858E-02 0.28299447E+03</pdfrwt>
<pdfrwt beam="2">  1       -3 0.52196506E-01 0.28299447E+03</pdfrwt>
<totfact> 0.80873226E+02</totfact>
</mgrwt>
</event>
<event>
 9    1  0.8093459E-001  0.2820415E+03  0.7818608E-02  0.1094579E+00
          1   -1    0    0  501    0  0.00000000000E+00  0.00000000000E+00  0.91284478587E+02  0.91284478587E+02  0.00000000000E+00 0. -1.
         -1   -1    0    0    0  501 -0.00000000000E+00 -0.00000000000E+00 -0.21785573635E+03  0.21785573635E+03  0.00000000000E+00 0. -1.
         35    2    1    2    0    0 -0.35527136788E-14  0.00000000000E+00 -0.12657125776E+03  0.30914021494E+03  0.28204146716E+03 0.  0.
         25    2    3    3    0    0 -0.18951098291E+02  0.61784222375E+02 -0.77914284268E+02  0.16063974068E+03  0.12473193790E+03 0.  0.
         25    2    3    3    0    0  0.18951098291E+02 -0.61784222375E+02 -0.48656973496E+02  0.14850047426E+03  0.12453294955E+03 0.  0.
          5    1    4    4  502    0  0.18705678256E+02 -0.24487387783E+02  0.89881437688E+01  0.32440889135E+02  0.47000000000E+01 0.  1.
         -5    1    4    4    0  502 -0.37656776547E+02  0.86271610158E+02 -0.86902428037E+02  0.12819885155E+03  0.47000000000E+01 0.  1.
          5    1    5    5  503    0 -0.30787701376E+02 -0.72272229191E+02 -0.10600680774E+01  0.78704329058E+02  0.47000000000E+01 0.  1.
         -5    1    5    5    0  503  0.49738799666E+02  0.10488006816E+02 -0.47596905418E+02  0.69796145199E+02  0.47000000000E+01 0.  1.
<mgrwt>
<rscale>  0 0.28204147E+03</rscale>
<asrwt>0</asrwt>
<pdfrwt beam="1">  1        1 0.14043766E-01 0.28204147E+03</pdfrwt>
<pdfrwt beam="2">  1       -1 0.33516267E-01 0.28204147E+03</pdfrwt>
<totfact> 0.34174724E+03</totfact>
</mgrwt>
</event>
<event>
 9    1  0.8093459E-001  0.2763934E+03  0.7818608E-02  0.1097675E+00
         -1   -1    0    0    0  501 -0.00000000000E+00  0.00000000000E+00  0.90641007638E+02  0.90641007638E+02  0.00000000000E+00 0. -1.
          1   -1    0    0  501    0  0.00000000000E+00 -0.00000000000E+00 -0.21070287606E+03  0.21070287606E+03  0.00000000000E+00 0. -1.
         35    2    1    2    0    0  0.00000000000E+00  0.00000000000E+00 -0.12006186843E+03  0.30134388370E+03  0.27639335013E+03 0.  0.
         25    2    3    3    0    0 -0.22320999789E+02  0.53507391032E+02 -0.68907790424E+02  0.15421816641E+03  0.12519461388E+03 0.  0.
         25    2    3    3    0    0  0.22320999789E+02 -0.53507391032E+02 -0.51154078002E+02  0.14712571729E+03  0.12517175826E+03 0.  0.
          5    1    4    4  502    0 -0.32094473464E+02  0.24880624766E+02 -0.10154877187E+03  0.10946846022E+03  0.47000000000E+01 0. -1.
         -5    1    4    4    0  502  0.97734736756E+01  0.28626766267E+02  0.32640981444E+02  0.44749706191E+02  0.47000000000E+01 0. -1.
          5    1    5    5  503    0  0.38264512079E+02  0.30895992947E+02 -0.32398461391E+02  0.59080331459E+02  0.47000000000E+01 0. -1.
         -5    1    5    5    0  503 -0.15943512291E+02 -0.84403383979E+02 -0.18755616611E+02  0.88045385829E+02  0.47000000000E+01 0. -1.
<mgrwt>
<rscale>  0 0.27639335E+03</rscale>
<asrwt>0</asrwt>
<pdfrwt beam="1">  1        1 0.32415827E-01 0.27639335E+03</pdfrwt>
<pdfrwt beam="2">  1       -1 0.13944770E-01 0.27639335E+03</pdfrwt>
<totfact> 0.49234339E+03</totfact>
</mgrwt>
</event>
<event>
 9    1  0.8093459E-001  0.3093948E+03  0.7818608E-02  0.1080636E+00
         -1   -1    0    0    0  501 -0.00000000000E+00  0.00000000000E+00  0.85018875795E+03  0.85018875795E+03  0.00000000000E+00 0.  1.
          1   -1    0    0  501    0  0.00000000000E+00 -0.00000000000E+00 -0.28148195526E+02  0.28148195526E+02  0.00000000000E+00 0.  1.
         35    2    1    2    0    0  0.00000000000E+00  0.35527136788E-14  0.82204056242E+03  0.87833695347E+03  0.30939476009E+03 0.  0.
         25    2    3    3    0    0  0.64276582139E+02  0.25545311812E+02  0.56842878234E+03  0.58610321739E+03  0.12498663477E+03 0.  0.
         25    2    3    3    0    0 -0.64276582139E+02 -0.25545311812E+02  0.25361178008E+03  0.29223373609E+03  0.12766197376E+03 0.  0.
          5    1    4    4  502    0  0.49255248091E+02  0.23562580536E+02  0.56757687080E+03  0.57021651058E+03  0.47000000000E+01 0. -1.
         -5    1    4    4    0  502  0.15021334048E+02  0.19827312758E+01  0.85191153650E+00  0.15886706807E+02  0.47000000000E+01 0. -1.
          5    1    5    5  503    0  0.29020798998E+02  0.10971521515E+02  0.18032798076E+02  0.36191889496E+02  0.47000000000E+01 0. -1.
         -5    1    5    5    0  503 -0.93297381136E+02 -0.36516833327E+02  0.23557898201E+03  0.25604184659E+03  0.47000000000E+01 0. -1.
<mgrwt>
<rscale>  0 0.30939476E+03</rscale>
<asrwt>0</asrwt>
<pdfrwt beam="1">  1        1 0.43304923E-02 0.30939476E+03</pdfrwt>
<pdfrwt beam="2">  1       -1 0.13079825E+00 0.30939476E+03</pdfrwt>
<totfact> 0.10930059E+03</totfact>
</mgrwt>
</event>
<event>
 9    1  0.8093459E-001  0.2748924E+03  0.7818608E-02  0.1098512E+00
         -3   -1    0    0    0  501 -0.00000000000E+00  0.00000000000E+00  0.45554378024E+02  0.45554378024E+02  0.00000000000E+00 0.  1.
          3   -1    0    0  501    0  0.00000000000E+00 -0.00000000000E+00 -0.41470123473E+03  0.41470123473E+03  0.00000000000E+00 0.  1.
         35    2    1    2    0    0  0.00000000000E+00  0.35527136788E-14 -0.36914685671E+03  0.46025561275E+03  0.27489239214E+03 0.  0.
         25    2    3    3    0    0 -0.18150856064E+01 -0.57173187421E+01 -0.10554769664E+03  0.16369242743E+03  0.12497564668E+03 0.  0.
         25    2    3    3    0    0  0.18150856064E+01  0.57173187421E+01 -0.26359916007E+03  0.29656318532E+03  0.13575427592E+03 0.  0.
          5    1    4    4  502    0 -0.19381547486E+02 -0.30802604935E+02  0.14690520762E+02  0.39526525954E+02  0.47000000000E+01 0.  1.
         -5    1    4    4    0  502  0.17566461879E+02  0.25085286193E+02 -0.12023821740E+03  0.12416590148E+03  0.47000000000E+01 0.  1.
          5    1    5    5  503    0 -0.18043913751E+02 -0.61187931969E+02 -0.10093284094E+03  0.11949508033E+03  0.47000000000E+01 0. -1.
         -5    1    5    5    0  503  0.19858999357E+02  0.66905250711E+02 -0.16266631912E+03  0.17706810499E+03  0.47000000000E+01 0. -1.
<mgrwt>
<rscale>  0 0.27489239E+03</rscale>
<asrwt>0</asrwt>
<pdfrwt beam="1">  1        3 0.63800191E-01 0.27489239E+03</pdfrwt>
<pdfrwt beam="2">  1       -3 0.70083657E-02 0.27489239E+03</pdfrwt>
<totfact> 0.81534376E+02</totfact>
</mgrwt>
</event>
<event>
 9    1  0.8093459E-001  0.2760281E+03  0.7818608E-02  0.1097878E+00
          2   -1    0    0  501    0  0.00000000000E+00  0.00000000000E+00  0.12623303625E+04  0.12623303625E+04  0.00000000000E+00 0.  1.
         -2   -1    0    0    0  501 -0.00000000000E+00 -0.00000000000E+00 -0.15089454437E+02  0.15089454437E+02  0.00000000000E+00 0.  1.
         35    2    1    2    0    0  0.00000000000E+00  0.17763568394E-14  0.12472409081E+04  0.12774198169E+04  0.27602808908E+03 0.  0.
         25    2    3    3    0    0 -0.57053058866E+02  0.53058067208E+01  0.69136855720E+03  0.70474514487E+03  0.12406463728E+03 0.  0.
         25    2    3    3    0    0  0.57053058866E+02 -0.53058067208E+01  0.55587235086E+03  0.57267467207E+03  0.12521583950E+03 0.  0.
          5    1    4    4  502    0 -0.38482695378E+02  0.34964403539E+02  0.64162341361E+03  0.64374383278E+03  0.47000000000E+01 0.  1.
         -5    1    4    4    0  502 -0.18570363488E+02 -0.29658596818E+02  0.49745143592E+02  0.61001312086E+02  0.47000000000E+01 0.  1.
          5    1    5    5  503    0 -0.38655955609E+02  0.10582155087E+02  0.14884558923E+03  0.15421856031E+03  0.47000000000E+01 0. -1.
         -5    1    5    5    0  503  0.95709014476E+02 -0.15887961808E+02  0.40702676164E+03  0.41845611176E+03  0.47000000000E+01 0. -1.
<mgrwt>
<rscale>  0 0.27602809E+03</rscale>
<asrwt>0</asrwt>
<pdfrwt beam="1">  1        2 0.19420459E+00 0.27602809E+03</pdfrwt>
<pdfrwt beam="2">  1       -2 0.23214555E-02 0.27602809E+03</pdfrwt>
<totfact> 0.11414996E+04</totfact>
</mgrwt>
</event>
<event>
 9    1  0.8093459E-001  0.2859613E+03  0.7818608E-02  0.1092477E+00
         -1   -1    0    0    0  501 -0.00000000000E+00  0.00000000000E+00  0.20179480223E+03  0.20179480223E+03  0.00000000000E+00 0. -1.
          1   -1    0    0  501    0  0.00000000000E+00 -0.00000000000E+00 -0.10130821457E+03  0.10130821457E+03  0.00000000000E+00 0. -1.
         35    2    1    2    0    0  0.10658141036E-13  0.00000000000E+00  0.10048658766E+03  0.30310301680E+03  0.28596133392E+03 0.  0.
         25    2    3    3    0    0 -0.28617488066E+02  0.31490304524E+02  0.12448106743E+03  0.18093523416E+03  0.12422327845E+03 0.  0.
         25    2    3    3    0    0  0.28617488066E+02 -0.31490304524E+02 -0.23994479766E+02  0.12216778264E+03  0.11197603384E+03 0.  0.
          5    1    4    4  502    0  0.39591253383E+02  0.46364739937E+02  0.53215317660E+02  0.81062423400E+02  0.47000000000E+01 0.  1.
         -5    1    4    4    0  502 -0.68208741448E+02 -0.14874435412E+02  0.71265749769E+02  0.99872810759E+02  0.47000000000E+01 0.  1.
          5    1    5    5  503    0  0.58453313187E+02  0.81672597989E+01 -0.38042829449E+02  0.70376422384E+02  0.47000000000E+01 0.  1.
         -5    1    5    5    0  503 -0.29835825121E+02 -0.39657564323E+02  0.14048349683E+02  0.51791360260E+02  0.47000000000E+01 0.  1.
<mgrwt>
<rscale>  0 0.28596133E+03</rscale>
<asrwt>0</asrwt>
<pdfrwt beam="1">  1        1 0.15585879E-01 0.28596133E+03</pdfrwt>
<pdfrwt beam="2">  1       -1 0.31045354E-01 0.28596133E+03</pdfrwt>
<totfact> 0.34005640E+03</totfact>
</mgrwt>
</event>
<event>
 9    1  0.8093459E-001  0.2757532E+03  0.7818608E-02  0.1098031E+00
          2   -1    0    0  501    0  0.00000000000E+00  0.00000000000E+00  0.21636649266E+03  0.21636649266E+03  0.00000000000E+00 0.  1.
         -2   -1    0    0    0  501 -0.00000000000E+00 -0.00000000000E+00 -0.87859984266E+02  0.87859984266E+02  0.00000000000E+00 0.  1.
         35    2    1    2    0    0 -0.71054273576E-14  0.35527136788E-14  0.12850650840E+03  0.30422647693E+03  0.27575319865E+03 0.  0.
         25    2    3    3    0    0 -0.57581361742E+02 -0.12145406678E+02  0.61266215447E+02  0.14960974127E+03  0.12315194438E+03 0.  0.
         25    2    3    3    0    0  0.57581361742E+02  0.12145406678E+02  0.67240292951E+02  0.15461673566E+03  0.12618222468E+03 0.  0.
          5    1    4    4  502    0  0.37471937849E+02  0.36321650881E+01  0.29455532849E+02  0.48031834910E+02  0.47000000000E+01 0.  1.
         -5    1    4    4    0  502 -0.95053299591E+02 -0.15777571766E+02  0.31810682599E+02  0.10157790636E+03  0.47000000000E+01 0.  1.
          5    1    5    5  503    0 -0.25485862173E+02 -0.15250450509E+02 -0.15755434055E+02  0.33947446350E+02  0.47000000000E+01 0. -1.
         -5    1    5    5    0  503  0.83067223915E+02  0.27395857187E+02  0.82995727007E+02  0.12066928930E+03  0.47000000000E+01 0. -1.
<mgrwt>
<rscale>  0 0.27575320E+03</rscale>
<asrwt>0</asrwt>
<pdfrwt beam="1">  1        2 0.33287153E-01 0.27575320E+03</pdfrwt>
<pdfrwt beam="2">  1       -2 0.13516921E-01 0.27575320E+03</pdfrwt>
<totfact> 0.63114777E+03</totfact>
</mgrwt>
</event>
<event>
 9    1  0.8093459E-001  0.2711593E+03  0.7818608E-02  0.1100618E+00
          4   -1    0    0  501    0  0.00000000000E+00  0.00000000000E+00  0.11411241495E+04  0.11411241495E+04  0.00000000000E+00 0.  1.
         -4   -1    0    0    0  501 -0.00000000000E+00 -0.00000000000E+00 -0.16108543176E+02  0.16108543176E+02  0.00000000000E+00 0.  1.
         35    2    1    2    0    0  0.35527136788E-14  0.35527136788E-14  0.11250156063E+04  0.11572326927E+04  0.27115934527E+03 0.  0.
         25    2    3    3    0    0  0.25451777893E+02 -0.12889921075E+02  0.37259636153E+03  0.39390160994E+03  0.12456519026E+03 0.  0.
         25    2    3    3    0    0 -0.25451777893E+02  0.12889921075E+02  0.75241924478E+03  0.76333108273E+03  0.12540206886E+03 0.  0.
          5    1    4    4  502    0  0.36176713596E+02  0.43044736502E+01  0.37124167724E+03  0.37305462873E+03  0.47000000000E+01 0.  1.
         -5    1    4    4    0  502 -0.10724935703E+02 -0.17194394725E+02  0.13546842887E+01  0.20846981204E+02  0.47000000000E+01 0.  1.
          5    1    5    5  503    0 -0.32313153476E+02 -0.37425575213E+02  0.61067732133E+03  0.61269380146E+03  0.47000000000E+01 0.  1.
         -5    1    5    5    0  503  0.68613755829E+01  0.50315496288E+02  0.14174192346E+03  0.15063728126E+03  0.47000000000E+01 0.  1.
<mgrwt>
<rscale>  0 0.27115935E+03</rscale>
<asrwt>0</asrwt>
<pdfrwt beam="1">  1        4 0.17555750E+00 0.27115935E+03</pdfrwt>
<pdfrwt beam="2">  1       -4 0.24782383E-02 0.27115935E+03</pdfrwt>
<totfact> 0.28300580E+02</totfact>
</mgrwt>
</event>
<event>
 9    1  0.8093459E-001  0.2746088E+03  0.7818608E-02  0.1098670E+00
          1   -1    0    0  501    0  0.00000000000E+00  0.00000000000E+00  0.13658721127E+03  0.13658721127E+03  0.00000000000E+00 0.  1.
         -1   -1    0    0    0  501 -0.00000000000E+00 -0.00000000000E+00 -0.13802530521E+03  0.13802530521E+03  0.00000000000E+00 0.  1.
         35    2    1    2    0    0  0.00000000000E+00  0.00000000000E+00 -0.14380939368E+01  0.27461251647E+03  0.27460875093E+03 0.  0.
         25    2    3    3    0    0 -0.53580954454E+02 -0.65263755677E+01 -0.18919282885E+02  0.13736653763E+03  0.12489241025E+03 0.  0.
         25    2    3    3    0    0  0.53580954454E+02  0.65263755677E+01  0.17481188948E+02  0.13724597884E+03  0.12496941419E+03 0.  0.
          5    1    4    4  502    0 -0.34570141973E+02  0.30475949359E+02 -0.61934018643E+02  0.77342038186E+02  0.47000000000E+01 0.  1.
         -5    1    4    4    0  502 -0.19010812481E+02 -0.37002324927E+02  0.43014735759E+02  0.60024499444E+02  0.47000000000E+01 0.  1.
          5    1    5    5  503    0  0.77134504106E+02 -0.18938762460E+02  0.46167268750E+02  0.91988668601E+02  0.47000000000E+01 0.  1.
         -5    1    5    5    0  503 -0.23553549652E+02  0.25465138028E+02 -0.28686079802E+02  0.45257310242E+02  0.47000000000E+01 0.  1.
<mgrwt>
<rscale>  0 0.27460875E+03</rscale>
<asrwt>0</asrwt>
<pdfrwt beam="1">  1        1 0.21013417E-01 0.27460875E+03</pdfrwt>
<pdfrwt beam="2">  1       -1 0.21234662E-01 0.27460875E+03</pdfrwt>
<totfact> 0.43475275E+03</totfact>
</mgrwt>
</event>
<event>
 9    1  0.8093459E-001  0.2738220E+03  0.7818608E-02  0.1099112E+00
          2   -1    0    0  501    0  0.00000000000E+00  0.00000000000E+00  0.21120000074E+04  0.21120000074E+04  0.00000000000E+00 0.  1.
         -2   -1    0    0    0  501 -0.00000000000E+00 -0.00000000000E+00 -0.88752928311E+01  0.88752928311E+01  0.00000000000E+00 0.  1.
         35    2    1    2    0    0 -0.35527136788E-14 -0.26645352591E-14  0.21031247146E+04  0.21208753002E+04  0.27382197520E+03 0.  0.
         25    2    3    3    0    0 -0.47184994620E+01  0.40656411855E+01  0.14988427580E+04  0.15037948417E+04  0.12178061823E+03 0.  0.
         25    2    3    3    0    0  0.47184994620E+01 -0.40656411855E+01  0.60428195653E+03  0.61708045851E+03  0.12487119610E+03 0.  0.
          5    1    4    4  502    0  0.21394048850E+02  0.54775231683E+02  0.53225468134E+03  0.53551392806E+03  0.47000000000E+01 0.  1.
         -5    1    4    4    0  502 -0.26112548312E+02 -0.50709590498E+02  0.96658807669E+03  0.96828091366E+03  0.47000000000E+01 0.  1.
          5    1    5    5  503    0  0.26559954144E+02 -0.85282933154E+01  0.26224805738E+02  0.38574517327E+02  0.47000000000E+01 0. -1.
         -5    1    5    5    0  503 -0.21841454682E+02  0.44626521299E+01  0.57805715079E+03  0.57850594118E+03  0.47000000000E+01 0. -1.
<mgrwt>
<rscale>  0 0.27382198E+03</rscale>
<asrwt>0</asrwt>
<pdfrwt beam="1">  1        2 0.32492268E+00 0.27382198E+03</pdfrwt>
<pdfrwt beam="2">  1       -2 0.13654313E-02 0.27382198E+03</pdfrwt>
<totfact> 0.87775181E+03</totfact>
</mgrwt>
</event>
<event>
 9    1  0.8093459E-001  0.2528432E+03  0.7818608E-02  0.1111521E+00
         -1   -1    0    0    0  501 -0.00000000000E+00  0.00000000000E+00  0.37409332087E+02  0.37409332087E+02  0.00000000000E+00 0.  1.
          1   -1    0    0  501    0  0.00000000000E+00 -0.00000000000E+00 -0.42723070652E+03  0.42723070652E+03  0.00000000000E+00 0.  1.
         35    2    1    2    0    0  0.35527136788E-14  0.00000000000E+00 -0.38982137443E+03  0.46464003860E+03  0.25284315595E+03 0.  0.
         25    2    3    3    0    0  0.10706714920E+02 -0.60635367656E+01 -0.18811779760E+03  0.22665016421E+03  0.12581967628E+03 0.  0.
         25    2    3    3    0    0 -0.10706714920E+02  0.60635367656E+01 -0.20170357683E+03  0.23798987439E+03  0.12571176233E+03 0.  0.
          5    1    4    4  502    0  0.90096426275E+00 -0.59923290571E+02 -0.14446817723E+03  0.15647605798E+03  0.47000000000E+01 0. -1.
         -5    1    4    4    0  502  0.98057506571E+01  0.53859753805E+02 -0.43649620370E+02  0.70174106224E+02  0.47000000000E+01 0. -1.
          5    1    5    5  503    0 -0.57504608906E+02 -0.22712980346E+02 -0.61495279105E+02  0.87329370052E+02  0.47000000000E+01 0.  1.
         -5    1    5    5    0  503  0.46797893986E+02  0.28776517112E+02 -0.14020829772E+03  0.15066050434E+03  0.47000000000E+01 0.  1.
<mgrwt>
<rscale>  0 0.25284316E+03</rscale>
<asrwt>0</asrwt>
<pdfrwt beam="1">  1        1 0.65727800E-01 0.25284316E+03</pdfrwt>
<pdfrwt beam="2">  1       -1 0.57552819E-02 0.25284316E+03</pdfrwt>
<totfact> 0.78338581E+03</totfact>
</mgrwt>
</event>
<event>
 9    1  0.8093459E-001  0.2697835E+03  0.7818608E-02  0.1101404E+00
         -2   -1    0    0    0  501 -0.00000000000E+00  0.00000000000E+00  0.67316894947E+01  0.67316894947E+01  0.00000000000E+00 0.  1.
          2   -1    0    0  501    0  0.00000000000E+00 -0.00000000000E+00 -0.27030043549E+04  0.27030043549E+04  0.00000000000E+00 0.  1.
         35    2    1    2    0    0  0.17763568394E-14 -0.71054273576E-14 -0.26962726654E+04  0.27097360444E+04  0.26978351336E+03 0.  0.
         25    2    3    3    0    0  0.14578562256E+02 -0.38303833377E+02 -0.16614602530E+04  0.16666393194E+04  0.12472662220E+03 0.  0.
         25    2    3    3    0    0 -0.14578562256E+02  0.38303833377E+02 -0.10348124124E+04  0.10430967250E+04  0.12463679577E+03 0.  0.
          5    1    4    4  502    0  0.25148907770E+02 -0.60578343306E+02 -0.43683169078E+03  0.44175357305E+03  0.47000000000E+01 0.  1.
         -5    1    4    4    0  502 -0.10570345514E+02  0.22274509929E+02 -0.12246285623E+04  0.12248857463E+04  0.47000000000E+01 0.  1.
          5    1    5    5  503    0 -0.38255195965E+02 -0.34776505702E+02 -0.51633365599E+03  0.51893679738E+03  0.47000000000E+01 0.  1.
         -5    1    5    5    0  503  0.23676633710E+02  0.73080339079E+02 -0.51847875638E+03  0.52415992765E+03  0.47000000000E+01 0.  1.
<mgrwt>
<rscale>  0 0.26978351E+03</rscale>
<asrwt>0</asrwt>
<pdfrwt beam="1">  1        2 0.41584616E+00 0.26978351E+03</pdfrwt>
<pdfrwt beam="2">  1       -2 0.10356462E-02 0.26978351E+03</pdfrwt>
<totfact> 0.62680819E+03</totfact>
</mgrwt>
</event>
<event>
 9    1  0.8093459E-001  0.2767053E+03  0.7818608E-02  0.1097502E+00
         -1   -1    0    0    0  501 -0.00000000000E+00  0.00000000000E+00  0.46394914574E+02  0.46394914574E+02  0.00000000000E+00 0. -1.
          1   -1    0    0  501    0  0.00000000000E+00 -0.00000000000E+00 -0.41257660979E+03  0.41257660979E+03  0.00000000000E+00 0. -1.
         35    2    1    2    0    0  0.00000000000E+00  0.71054273576E-14 -0.36618169521E+03  0.45897152436E+03  0.27670530581E+03 0.  0.
         25    2    3    3    0    0  0.20068066616E+02 -0.51289155789E+02 -0.23669099686E+03  0.27099116060E+03  0.11991778989E+03 0.  0.
         25    2    3    3    0    0 -0.20068066616E+02  0.51289155789E+02 -0.12949069835E+03  0.18798036376E+03  0.12464137113E+03 0.  0.
          5    1    4    4  502    0 -0.36243404304E+02  0.18126460441E+02 -0.95106001481E+02  0.10348620411E+03  0.47000000000E+01 0. -1.
         -5    1    4    4    0  502  0.56311470920E+02 -0.69415616229E+02 -0.14158499538E+03  0.16750495649E+03  0.47000000000E+01 0. -1.
          5    1    5    5  503    0 -0.22404165375E+02 -0.95751555006E+01  0.16448819242E+02  0.29770520376E+02  0.47000000000E+01 0.  1.
         -5    1    5    5    0  503  0.23360987591E+01  0.60864311289E+02 -0.14593951760E+03  0.15820984338E+03  0.47000000000E+01 0.  1.
<mgrwt>
<rscale>  0 0.27670531E+03</rscale>
<asrwt>0</asrwt>
<pdfrwt beam="1">  1        1 0.63473325E-01 0.27670531E+03</pdfrwt>
<pdfrwt beam="2">  1       -1 0.71376791E-02 0.27670531E+03</pdfrwt>
<totfact> 0.59372739E+03</totfact>
</mgrwt>
</event>
<event>
 9    1  0.8093459E-001  0.2728926E+03  0.7818608E-02  0.1099635E+00
         -2   -1    0    0    0  501 -0.00000000000E+00  0.00000000000E+00  0.71048619276E+01  0.71048619276E+01  0.00000000000E+00 0.  1.
          2   -1    0    0  501    0  0.00000000000E+00 -0.00000000000E+00 -0.26204025137E+04  0.26204025137E+04  0.00000000000E+00 0.  1.
         35    2    1    2    0    0  0.00000000000E+00  0.00000000000E+00 -0.26132976517E+04  0.26275073756E+04  0.27289263863E+03 0.  0.
         25    2    3    3    0    0  0.14855122179E+01 -0.40254226922E+02 -0.16735460123E+04  0.16786789632E+04  0.12483668050E+03 0.  0.
         25    2    3    3    0    0 -0.14855122179E+01  0.40254226922E+02 -0.93975163947E+03  0.94882841239E+03  0.12457769759E+03 0.  0.
          5    1    4    4  502    0 -0.13726380297E+02  0.36502846612E+02 -0.96701018894E+03  0.96780766004E+03  0.47000000000E+01 0. -1.
         -5    1    4    4    0  502  0.15211892515E+02 -0.76757073534E+02 -0.70653582332E+03  0.71087130315E+03  0.47000000000E+01 0. -1.
          5    1    5    5  503    0  0.21427236889E+02 -0.32462320118E+02 -0.56580556815E+03  0.56716043556E+03  0.47000000000E+01 0. -1.
         -5    1    5    5    0  503 -0.22912749107E+02  0.72716547040E+02 -0.37394607132E+03  0.38166797683E+03  0.47000000000E+01 0. -1.
<mgrwt>
<rscale>  0 0.27289264E+03</rscale>
<asrwt>0</asrwt>
<pdfrwt beam="1">  1        2 0.40313903E+00 0.27289264E+03</pdfrwt>
<pdfrwt beam="2">  1       -2 0.10930552E-02 0.27289264E+03</pdfrwt>
<totfact> 0.64457368E+03</totfact>
</mgrwt>
</event>
<event>
 9    1  0.8093459E-001  0.2776210E+03  0.7818608E-02  0.1096995E+00
         -2   -1    0    0    0  501 -0.00000000000E+00  0.00000000000E+00  0.28957783628E+03  0.28957783628E+03  0.00000000000E+00 0. -1.
          2   -1    0    0  501    0  0.00000000000E+00 -0.00000000000E+00 -0.66539451840E+02  0.66539451840E+02  0.00000000000E+00 0. -1.
         35    2    1    2    0    0  0.00000000000E+00 -0.71054273576E-14  0.22303838444E+03  0.35611728812E+03  0.27762096816E+03 0.  0.
         25    2    3    3    0    0 -0.16729665563E+02  0.34528554968E+02  0.54165414842E+02  0.14241275107E+03  0.12599760587E+03 0.  0.
         25    2    3    3    0    0  0.16729665563E+02 -0.34528554968E+02  0.16887296960E+03  0.21370453705E+03  0.12521759652E+03 0.  0.
          5    1    4    4  502    0 -0.57976907152E+02 -0.10788633264E+01  0.64382475803E+02  0.86773722402E+02  0.47000000000E+01 0.  1.
         -5    1    4    4    0  502  0.41247241589E+02  0.35607418294E+02 -0.10217060961E+02  0.55639028667E+02  0.47000000000E+01 0.  1.
          5    1    5    5  503    0 -0.22762296468E+02 -0.31062047590E+02 -0.13939336145E+01  0.38820175062E+02  0.47000000000E+01 0.  1.
         -5    1    5    5    0  503  0.39491962031E+02 -0.34665073781E+01  0.17026690321E+03  0.17488436199E+03  0.47000000000E+01 0.  1.
<mgrwt>
<rscale>  0 0.27762097E+03</rscale>
<asrwt>0</asrwt>
<pdfrwt beam="1">  1        2 0.10236839E-01 0.27762097E+03</pdfrwt>
<pdfrwt beam="2">  1       -2 0.44550436E-01 0.27762097E+03</pdfrwt>
<totfact> 0.29957971E+03</totfact>
</mgrwt>
</event>
<event>
 9    1  0.8093459E-001  0.2813994E+03  0.7818608E-02  0.1094927E+00
          2   -1    0    0  501    0  0.00000000000E+00  0.00000000000E+00  0.11202049315E+04  0.11202049315E+04  0.00000000000E+00 0.  1.
         -2   -1    0    0    0  501 -0.00000000000E+00 -0.00000000000E+00 -0.17672129365E+02  0.17672129365E+02  0.00000000000E+00 0.  1.
         35    2    1    2    0    0 -0.71054273576E-14  0.00000000000E+00  0.11025328021E+04  0.11378770608E+04  0.28139940628E+03 0.  0.
         25    2    3    3    0    0 -0.49722596610E+02  0.16846719776E+02  0.71120716133E+03  0.72328591466E+03  0.12070931791E+03 0.  0.
         25    2    3    3    0    0  0.49722596610E+02 -0.16846719776E+02  0.39132564078E+03  0.41459114618E+03  0.12646704228E+03 0.  0.
          5    1    4    4  502    0  0.10235589892E+02 -0.43620794682E+02  0.19978421475E+03  0.20480078978E+03  0.47000000000E+01 0.  1.
         -5    1    4    4    0  502 -0.59958186502E+02  0.60467514459E+02  0.51142294658E+03  0.51848512488E+03  0.47000000000E+01 0.  1.
          5    1    5    5  503    0  0.56423850246E+02  0.70457723605E+01  0.38411069408E+03  0.38832513322E+03  0.47000000000E+01 0. -1.
         -5    1    5    5    0  503 -0.67012536366E+01 -0.23892492137E+02  0.72149466921E+01  0.26266012956E+02  0.47000000000E+01 0. -1.
<mgrwt>
<rscale>  0 0.28139941E+03</rscale>
<asrwt>0</asrwt>
<pdfrwt beam="1">  1        2 0.17233916E+00 0.28139941E+03</pdfrwt>
<pdfrwt beam="2">  1       -2 0.27187900E-02 0.28139941E+03</pdfrwt>
<totfact> 0.10893750E+04</totfact>
</mgrwt>
</event>
<event>
 9    1  0.8093459E-001  0.2748753E+03  0.7818608E-02  0.1098521E+00
         -2   -1    0    0    0  501 -0.00000000000E+00  0.00000000000E+00  0.53374716131E+02  0.53374716131E+02  0.00000000000E+00 0. -1.
          2   -1    0    0  501    0  0.00000000000E+00 -0.00000000000E+00 -0.35389606435E+03  0.35389606435E+03  0.00000000000E+00 0. -1.
         35    2    1    2    0    0 -0.71054273576E-14  0.35527136788E-14 -0.30052134822E+03  0.40727078048E+03  0.27487525880E+03 0.  0.
         25    2    3    3    0    0  0.37882899229E+02 -0.68620385006E+01 -0.21201719020E+03  0.24907048680E+03  0.12491043524E+03 0.  0.
         25    2    3    3    0    0 -0.37882899229E+02  0.68620385006E+01 -0.88504158021E+02  0.15820029368E+03  0.12534809654E+03 0.  0.
          5    1    4    4  502    0  0.18359315770E+01 -0.32914653904E+02 -0.20000996791E+03  0.20276297085E+03  0.47000000000E+01 0. -1.
         -5    1    4    4    0  502  0.36046967652E+02  0.26052615404E+02 -0.12007222288E+02  0.46307515949E+02  0.47000000000E+01 0. -1.
          5    1    5    5  503    0  0.37532986930E+02 -0.28828110155E+02 -0.31787860549E+02  0.57204397744E+02  0.47000000000E+01 0. -1.
         -5    1    5    5    0  503 -0.75415886160E+02  0.35690148655E+02 -0.56716297472E+02  0.10099589593E+03  0.47000000000E+01 0. -1.
<mgrwt>
<rscale>  0 0.27487526E+03</rscale>
<asrwt>0</asrwt>
<pdfrwt beam="1">  1        2 0.54445546E-01 0.27487526E+03</pdfrwt>
<pdfrwt beam="2">  1       -2 0.82114951E-02 0.27487526E+03</pdfrwt>
<totfact> 0.82267509E+03</totfact>
</mgrwt>
</event>
<event>
 9    1  0.8093459E-001  0.2747622E+03  0.7818608E-02  0.1098585E+00
         -1   -1    0    0    0  501 -0.00000000000E+00  0.00000000000E+00  0.38002861596E+03  0.38002861596E+03  0.00000000000E+00 0.  1.
          1   -1    0    0  501    0  0.00000000000E+00 -0.00000000000E+00 -0.49663523137E+02  0.49663523137E+02  0.00000000000E+00 0.  1.
         35    2    1    2    0    0 -0.14210854715E-13  0.00000000000E+00  0.33036509282E+03  0.42969213910E+03  0.27476215141E+03 0.  0.
         25    2    3    3    0    0  0.30751073111E+02 -0.15936485965E+01  0.23265402357E+03  0.26779212148E+03  0.12898277958E+03 0.  0.
         25    2    3    3    0    0 -0.30751073111E+02  0.15936485965E+01  0.97711069255E+02  0.16190001762E+03  0.12536344937E+03 0.  0.
          5    1    4    4  502    0  0.69534906485E+02 -0.37666350202E+02  0.14656255280E+03  0.16660290826E+03  0.47000000000E+01 0. -1.
         -5    1    4    4    0  502 -0.38783833374E+02  0.36072701605E+02  0.86091470769E+02  0.10118921322E+03  0.47000000000E+01 0. -1.
          5    1    5    5  503    0  0.20689850804E+02 -0.45949034664E+02  0.13729627901E+02  0.52440217344E+02  0.47000000000E+01 0.  1.
         -5    1    5    5    0  503 -0.51440923915E+02  0.47542683260E+02  0.83981441354E+02  0.10945980028E+03  0.47000000000E+01 0.  1.
<mgrwt>
<rscale>  0 0.27476215E+03</rscale>
<asrwt>0</asrwt>
<pdfrwt beam="1">  1        1 0.76405423E-02 0.27476215E+03</pdfrwt>
<pdfrwt beam="2">  1       -1 0.58465939E-01 0.27476215E+03</pdfrwt>
<totfact> 0.28204093E+03</totfact>
</mgrwt>
</event>
