<event>
 4    1  0.1777979E-004  0.2611406E+03  0.7818608E-02  0.1106460E+00
         -2   -1    0    0    0  501 -0.00000000000E+00  0.00000000000E+00  0.82517902314E+03  0.82517902314E+03  0.00000000000E+00 0.  1.
          2   -1    0    0  501    0  0.00000000000E+00 -0.00000000000E+00 -0.20660484537E+02  0.20660484537E+02  0.00000000000E+00 0.  1.
         25    1    1    2    0    0 -0.23732909919E+02  0.26178191690E+02  0.52345445223E+03  0.53819430719E+03  0.12000000000E+03 0.  0.
         25    1    1    2    0    0  0.23732909919E+02 -0.26178191690E+02  0.28106408638E+03  0.30764520049E+03  0.12000000000E+03 0.  0.
<mgrwt>
<rscale>  0 0.26114056E+03</rscale>
<asrwt>0</asrwt>
<pdfrwt beam="1">  1        2 0.31785367E-02 0.26114056E+03</pdfrwt>
<pdfrwt beam="2">  1       -2 0.12695059E+00 0.26114056E+03</pdfrwt>
<totfact> 0.13969379E+03</totfact>
</mgrwt>
</event>
<event>
 4    1  0.1777979E-004  0.3082956E+03  0.7818608E-02  0.1081166E+00
          1   -1    0    0  501    0  0.00000000000E+00  0.00000000000E+00  0.75726302119E+03  0.75726302119E+03  0.00000000000E+00 0.  1.
         -1   -1    0    0    0  501 -0.00000000000E+00 -0.00000000000E+00 -0.31378188880E+02  0.31378188880E+02  0.00000000000E+00 0.  1.
         25    1    1    2    0    0 -0.87019580729E+02  0.22106381672E+02  0.45519058393E+03  0.47922809521E+03  0.12000000000E+03 0.  0.
         25    1    1    2    0    0  0.87019580729E+02 -0.22106381672E+02  0.27069424839E+03  0.30941311486E+03  0.12000000000E+03 0.  0.
<mgrwt>
<rscale>  0 0.30829559E+03</rscale>
<asrwt>0</asrwt>
<pdfrwt beam="1">  1        1 0.11650199E+00 0.30829559E+03</pdfrwt>
<pdfrwt beam="2">  1       -1 0.48274142E-02 0.30829559E+03</pdfrwt>
<totfact> 0.46561858E+03</totfact>
</mgrwt>
</event>
<event>
 4    1  0.1777979E-004  0.2810858E+03  0.7818608E-02  0.1095097E+00
         -3   -1    0    0    0  501 -0.00000000000E+00  0.00000000000E+00  0.12006763791E+03  0.12006763791E+03  0.00000000000E+00 0.  1.
          3   -1    0    0  501    0  0.00000000000E+00 -0.00000000000E+00 -0.16450985333E+03  0.16450985333E+03  0.00000000000E+00 0.  1.
         25    1    1    2    0    0  0.93287862586E+01  0.61159732251E+02 -0.61754477620E+02  0.14846263708E+03  0.12000000000E+03 0.  0.
         25    1    1    2    0    0 -0.93287862586E+01 -0.61159732251E+02  0.17312262194E+02  0.13611485417E+03  0.12000000000E+03 0.  0.
<mgrwt>
<rscale>  0 0.28108582E+03</rscale>
<asrwt>0</asrwt>
<pdfrwt beam="1">  1        3 0.25309208E-01 0.28108582E+03</pdfrwt>
<pdfrwt beam="2">  1       -3 0.18471944E-01 0.28108582E+03</pdfrwt>
<totfact> 0.96717530E+02</totfact>
</mgrwt>
</event>
<event>
 4    1  0.1777979E-004  0.3272525E+03  0.7818608E-02  0.1072359E+00
          1   -1    0    0  501    0  0.00000000000E+00  0.00000000000E+00  0.36084974112E+04  0.36084974112E+04  0.00000000000E+00 0. -1.
         -1   -1    0    0    0  501 -0.00000000000E+00 -0.00000000000E+00 -0.74195852122E+01  0.74195852122E+01  0.00000000000E+00 0. -1.
         25    1    1    2    0    0  0.16562634385E+02  0.10998633298E+03  0.18170750181E+04  0.18244267417E+04  0.12000000000E+03 0.  0.
         25    1    1    2    0    0 -0.16562634385E+02 -0.10998633298E+03  0.17840028079E+04  0.17914902547E+04  0.12000000000E+03 0.  0.
<mgrwt>
<rscale>  0 0.32725253E+03</rscale>
<asrwt>0</asrwt>
<pdfrwt beam="1">  1        1 0.55515205E+00 0.32725253E+03</pdfrwt>
<pdfrwt beam="2">  1       -1 0.11414775E-02 0.32725253E+03</pdfrwt>
<totfact> 0.39837079E+02</totfact>
</mgrwt>
</event>
<event>
 4    1  0.1777979E-004  0.3755363E+03  0.7818608E-02  0.1052596E+00
         -1   -1    0    0    0  501 -0.00000000000E+00  0.00000000000E+00  0.14006136111E+03  0.14006136111E+03  0.00000000000E+00 0.  1.
          1   -1    0    0  501    0  0.00000000000E+00 -0.00000000000E+00 -0.25172455638E+03  0.25172455638E+03  0.00000000000E+00 0.  1.
         25    1    1    2    0    0 -0.34398043253E+02 -0.45969202182E+02 -0.19408161377E+03  0.23529569850E+03  0.12000000000E+03 0.  0.
         25    1    1    2    0    0  0.34398043253E+02  0.45969202182E+02  0.82418418503E+02  0.15649021898E+03  0.12000000000E+03 0.  0.
<mgrwt>
<rscale>  0 0.37553633E+03</rscale>
<asrwt>0</asrwt>
<pdfrwt beam="1">  1        1 0.38726854E-01 0.37553633E+03</pdfrwt>
<pdfrwt beam="2">  1       -1 0.21547902E-01 0.37553633E+03</pdfrwt>
<totfact> 0.19611128E+03</totfact>
</mgrwt>
</event>
<event>
 4    1  0.1777979E-004  0.2524900E+03  0.7818608E-02  0.1111741E+00
         -2   -1    0    0    0  501 -0.00000000000E+00  0.00000000000E+00  0.25169897228E+02  0.25169897228E+02  0.00000000000E+00 0.  1.
          2   -1    0    0  501    0  0.00000000000E+00 -0.00000000000E+00 -0.63320888280E+03  0.63320888280E+03  0.00000000000E+00 0.  1.
         25    1    1    2    0    0  0.17853657136E+01  0.20432299836E+02 -0.39117295637E+03  0.40967907953E+03  0.12000000000E+03 0.  0.
         25    1    1    2    0    0 -0.17853657136E+01 -0.20432299836E+02 -0.21686602921E+03  0.24869970050E+03  0.12000000000E+03 0.  0.
<mgrwt>
<rscale>  0 0.25249002E+03</rscale>
<asrwt>0</asrwt>
<pdfrwt beam="1">  1        2 0.97416745E-01 0.25249002E+03</pdfrwt>
<pdfrwt beam="2">  1       -2 0.38722921E-02 0.25249002E+03</pdfrwt>
<totfact> 0.13535529E+04</totfact>
</mgrwt>
</event>
<event>
 4    1  0.1777979E-004  0.2822194E+03  0.7818608E-02  0.1094483E+00
          4   -1    0    0  501    0  0.00000000000E+00  0.00000000000E+00  0.62217602357E+02  0.62217602357E+02  0.00000000000E+00 0. -1.
         -4   -1    0    0    0  501 -0.00000000000E+00 -0.00000000000E+00 -0.32003728336E+03  0.32003728336E+03  0.00000000000E+00 0. -1.
         25    1    1    2    0    0  0.23802721640E+02 -0.63134933918E+02 -0.17086231751E+03  0.21942315508E+03  0.12000000000E+03 0.  0.
         25    1    1    2    0    0 -0.23802721640E+02  0.63134933918E+02 -0.86957363493E+02  0.16283173064E+03  0.12000000000E+03 0.  0.
<mgrwt>
<rscale>  0 0.28221944E+03</rscale>
<asrwt>0</asrwt>
<pdfrwt beam="1">  1        4 0.95719388E-02 0.28221944E+03</pdfrwt>
<pdfrwt beam="2">  1       -4 0.49236505E-01 0.28221944E+03</pdfrwt>
<totfact> 0.61516881E+02</totfact>
</mgrwt>
</event>
<event>
 4    1  0.1777979E-004  0.2610404E+03  0.7818608E-02  0.1106520E+00
          2   -1    0    0  501    0  0.00000000000E+00  0.00000000000E+00  0.95528346878E+03  0.95528346878E+03  0.00000000000E+00 0.  1.
         -2   -1    0    0    0  501 -0.00000000000E+00 -0.00000000000E+00 -0.17832950625E+02  0.17832950625E+02  0.00000000000E+00 0.  1.
         25    1    1    2    0    0 -0.50866016414E+02 -0.59027901019E+01  0.45511564939E+03  0.47344740878E+03  0.12000000000E+03 0.  0.
         25    1    1    2    0    0  0.50866016414E+02  0.59027901019E+01  0.48233486877E+03  0.49966901063E+03  0.12000000000E+03 0.  0.
<mgrwt>
<rscale>  0 0.26104040E+03</rscale>
<asrwt>0</asrwt>
<pdfrwt beam="1">  1        2 0.14696665E+00 0.26104040E+03</pdfrwt>
<pdfrwt beam="2">  1       -2 0.27435316E-02 0.26104040E+03</pdfrwt>
<totfact> 0.13480303E+04</totfact>
</mgrwt>
</event>
<event>
 4    1  0.1777979E-004  0.2805220E+03  0.7818608E-02  0.1095404E+00
          1   -1    0    0  501    0  0.00000000000E+00  0.00000000000E+00  0.15016364743E+03  0.15016364743E+03  0.00000000000E+00 0.  1.
         -1   -1    0    0    0  501 -0.00000000000E+00 -0.00000000000E+00 -0.13101139486E+03  0.13101139486E+03  0.00000000000E+00 0.  1.
         25    1    1    2    0    0 -0.28935352643E+02  0.66086039072E+02  0.12785874459E+01  0.14002233386E+03  0.12000000000E+03 0.  0.
         25    1    1    2    0    0  0.28935352643E+02 -0.66086039072E+02  0.17873665124E+02  0.14115270843E+03  0.12000000000E+03 0.  0.
<mgrwt>
<rscale>  0 0.28052201E+03</rscale>
<asrwt>0</asrwt>
<pdfrwt beam="1">  1        1 0.23102100E-01 0.28052201E+03</pdfrwt>
<pdfrwt beam="2">  1       -1 0.20155599E-01 0.28052201E+03</pdfrwt>
<totfact> 0.41949226E+03</totfact>
</mgrwt>
</event>
<event>
 4    1  0.1777979E-004  0.2906376E+03  0.7818608E-02  0.1090017E+00
          2   -1    0    0  501    0  0.00000000000E+00  0.00000000000E+00  0.13206055588E+03  0.13206055588E+03  0.00000000000E+00 0. -1.
         -2   -1    0    0    0  501 -0.00000000000E+00 -0.00000000000E+00 -0.15990816263E+03  0.15990816263E+03  0.00000000000E+00 0. -1.
         25    1    1    2    0    0  0.37606862444E+02  0.14669119513E+02  0.57733810341E+02  0.13914974677E+03  0.12000000000E+03 0.  0.
         25    1    1    2    0    0 -0.37606862444E+02 -0.14669119513E+02 -0.85581417088E+02  0.15281897173E+03  0.12000000000E+03 0.  0.
<mgrwt>
<rscale>  0 0.29063765E+03</rscale>
<asrwt>0</asrwt>
<pdfrwt beam="1">  1        2 0.20317009E-01 0.29063765E+03</pdfrwt>
<pdfrwt beam="2">  1       -2 0.24601256E-01 0.29063765E+03</pdfrwt>
<totfact> 0.39754662E+03</totfact>
</mgrwt>
</event>
<event>
 4    1  0.1777979E-004  0.3071817E+03  0.7818608E-02  0.1081705E+00
          2   -1    0    0  501    0  0.00000000000E+00  0.00000000000E+00  0.97626579721E+03  0.97626579721E+03  0.00000000000E+00 0. -1.
         -2   -1    0    0    0  501 -0.00000000000E+00 -0.00000000000E+00 -0.24163655446E+02  0.24163655446E+02  0.00000000000E+00 0. -1.
         25    1    1    2    0    0 -0.11629658677E+02 -0.89071505307E+02  0.58510128669E+03  0.60399710074E+03  0.12000000000E+03 0.  0.
         25    1    1    2    0    0  0.11629658677E+02  0.89071505307E+02  0.36700085507E+03  0.39643235191E+03  0.12000000000E+03 0.  0.
<mgrwt>
<rscale>  0 0.30718171E+03</rscale>
<asrwt>0</asrwt>
<pdfrwt beam="1">  1        2 0.15019471E+00 0.30718171E+03</pdfrwt>
<pdfrwt beam="2">  1       -2 0.37174862E-02 0.30718171E+03</pdfrwt>
<totfact> 0.83508670E+03</totfact>
</mgrwt>
</event>
<event>
 4    1  0.1777979E-004  0.3208834E+03  0.7818608E-02  0.1075243E+00
         -2   -1    0    0    0  501 -0.00000000000E+00  0.00000000000E+00  0.32085217197E+02  0.32085217197E+02  0.00000000000E+00 0. -1.
          2   -1    0    0  501    0  0.00000000000E+00 -0.00000000000E+00 -0.80228653128E+03  0.80228653128E+03  0.00000000000E+00 0. -1.
         25    1    1    2    0    0 -0.96452787595E+01 -0.10025847028E+03 -0.47505315455E+03  0.50022024341E+03  0.12000000000E+03 0.  0.
         25    1    1    2    0    0  0.96452787595E+01  0.10025847028E+03 -0.29514815953E+03  0.33415150507E+03  0.12000000000E+03 0.  0.
<mgrwt>
<rscale>  0 0.32088339E+03</rscale>
<asrwt>0</asrwt>
<pdfrwt beam="1">  1        2 0.12342868E+00 0.32088339E+03</pdfrwt>
<pdfrwt beam="2">  1       -2 0.49361879E-02 0.32088339E+03</pdfrwt>
<totfact> 0.70747747E+03</totfact>
</mgrwt>
</event>
<event>
 4    1  0.1777979E-004  0.2665644E+03  0.7818608E-02  0.1103262E+00
          2   -1    0    0  501    0  0.00000000000E+00  0.00000000000E+00  0.15610067587E+03  0.15610067587E+03  0.00000000000E+00 0. -1.
         -2   -1    0    0    0  501 -0.00000000000E+00 -0.00000000000E+00 -0.11379930010E+03  0.11379930010E+03  0.00000000000E+00 0. -1.
         25    1    1    2    0    0 -0.20984090756E+02  0.27458675144E+02  0.68315074820E+02  0.14234205406E+03  0.12000000000E+03 0.  0.
         25    1    1    2    0    0  0.20984090756E+02 -0.27458675144E+02 -0.26013699046E+02  0.12755792192E+03  0.12000000000E+03 0.  0.
<mgrwt>
<rscale>  0 0.26656442E+03</rscale>
<asrwt>0</asrwt>
<pdfrwt beam="1">  1        2 0.24015488E-01 0.26656442E+03</pdfrwt>
<pdfrwt beam="2">  1       -2 0.17507585E-01 0.26656442E+03</pdfrwt>
<totfact> 0.58881205E+03</totfact>
</mgrwt>
</event>
<event>
 4    1  0.1777979E-004  0.4965061E+03  0.7818608E-02  0.1014695E+00
         -1   -1    0    0    0  501 -0.00000000000E+00  0.00000000000E+00  0.55460445121E+02  0.55460445121E+02  0.00000000000E+00 0.  1.
          1   -1    0    0  501    0  0.00000000000E+00 -0.00000000000E+00 -0.11112348749E+04  0.11112348749E+04  0.00000000000E+00 0.  1.
         25    1    1    2    0    0  0.15768586417E+03 -0.14447812989E+03 -0.61861604590E+03  0.66545065483E+03  0.12000000000E+03 0.  0.
         25    1    1    2    0    0 -0.15768586417E+03  0.14447812989E+03 -0.43715838385E+03  0.50124466516E+03  0.12000000000E+03 0.  0.
<mgrwt>
<rscale>  0 0.49650612E+03</rscale>
<asrwt>0</asrwt>
<pdfrwt beam="1">  1        1 0.17095920E+00 0.49650612E+03</pdfrwt>
<pdfrwt beam="2">  1       -1 0.85323765E-02 0.49650612E+03</pdfrwt>
<totfact> 0.10252188E+03</totfact>
</mgrwt>
</event>
<event>
 4    1  0.1777979E-004  0.2733872E+03  0.7818608E-02  0.1099357E+00
         -1   -1    0    0    0  501 -0.00000000000E+00  0.00000000000E+00  0.21539655717E+02  0.21539655717E+02  0.00000000000E+00 0. -1.
          1   -1    0    0  501    0  0.00000000000E+00 -0.00000000000E+00 -0.86747596721E+03  0.86747596721E+03  0.00000000000E+00 0. -1.
         25    1    1    2    0    0 -0.16085102425E+02  0.58153024643E+02 -0.50553129021E+03  0.52307015799E+03  0.12000000000E+03 0.  0.
         25    1    1    2    0    0  0.16085102425E+02 -0.58153024643E+02 -0.34040502128E+03  0.36594546494E+03  0.12000000000E+03 0.  0.
<mgrwt>
<rscale>  0 0.27338715E+03</rscale>
<asrwt>0</asrwt>
<pdfrwt beam="1">  1        1 0.13345785E+00 0.27338715E+03</pdfrwt>
<pdfrwt beam="2">  1       -1 0.33137931E-02 0.27338715E+03</pdfrwt>
<totfact> 0.65878009E+03</totfact>
</mgrwt>
</event>
<event>
 4    1  0.1777979E-004  0.3813658E+03  0.7818608E-02  0.1050430E+00
          1   -1    0    0  501    0  0.00000000000E+00  0.00000000000E+00  0.31810673411E+03  0.31810673411E+03  0.00000000000E+00 0. -1.
         -1   -1    0    0    0  501 -0.00000000000E+00 -0.00000000000E+00 -0.11430113583E+03  0.11430113583E+03  0.00000000000E+00 0. -1.
         25    1    1    2    0    0  0.77339312153E+02  0.81773232290E+02  0.21119777217E+03  0.26771763052E+03  0.12000000000E+03 0.  0.
         25    1    1    2    0    0 -0.77339312153E+02 -0.81773232290E+02 -0.73921738824E+01  0.16469023941E+03  0.12000000000E+03 0.  0.
<mgrwt>
<rscale>  0 0.38136576E+03</rscale>
<asrwt>0</asrwt>
<pdfrwt beam="1">  1        1 0.48939497E-01 0.38136576E+03</pdfrwt>
<pdfrwt beam="2">  1       -1 0.17584790E-01 0.38136576E+03</pdfrwt>
<totfact> 0.20318500E+03</totfact>
</mgrwt>
</event>
<event>
 4    1  0.1777979E-004  0.2625870E+03  0.7818608E-02  0.1105599E+00
          2   -1    0    0  501    0  0.00000000000E+00  0.00000000000E+00  0.44954367672E+04  0.44954367672E+04  0.00000000000E+00 0.  1.
         -2   -1    0    0    0  501 -0.00000000000E+00 -0.00000000000E+00 -0.38345515453E+01  0.38345515453E+01  0.00000000000E+00 0.  1.
         25    1    1    2    0    0 -0.68189014473E+01 -0.90968723282E+01  0.31375695309E+04  0.31398840443E+04  0.12000000000E+03 0.  0.
         25    1    1    2    0    0  0.68189014473E+01  0.90968723282E+01  0.13540326848E+04  0.13593872745E+04  0.12000000000E+03 0.  0.
<mgrwt>
<rscale>  0 0.26258701E+03</rscale>
<asrwt>0</asrwt>
<pdfrwt beam="1">  1        2 0.69160144E+00 0.26258701E+03</pdfrwt>
<pdfrwt beam="2">  1       -2 0.58993461E-03 0.26258701E+03</pdfrwt>
<totfact> 0.78781930E+02</totfact>
</mgrwt>
</event>
<event>
 4    1  0.1777979E-004  0.3516146E+03  0.7818608E-02  0.1061954E+00
         -2   -1    0    0    0  501 -0.00000000000E+00  0.00000000000E+00  0.23279804497E+02  0.23279804497E+02  0.00000000000E+00 0. -1.
          2   -1    0    0  501    0  0.00000000000E+00 -0.00000000000E+00 -0.13276834169E+04  0.13276834169E+04  0.00000000000E+00 0. -1.
         25    1    1    2    0    0 -0.44244274553E+02  0.50371529143E+02 -0.23107885477E+03  0.26887224457E+03  0.12000000000E+03 0.  0.
         25    1    1    2    0    0  0.44244274553E+02 -0.50371529143E+02 -0.10733247577E+04  0.10820909769E+04  0.12000000000E+03 0.  0.
<mgrwt>
<rscale>  0 0.35161462E+03</rscale>
<asrwt>0</asrwt>
<pdfrwt beam="1">  1        2 0.20425895E+00 0.35161462E+03</pdfrwt>
<pdfrwt beam="2">  1       -2 0.35815091E-02 0.35161462E+03</pdfrwt>
<totfact> 0.55182334E+03</totfact>
</mgrwt>
</event>
<event>
 4    1  0.1777979E-004  0.2879746E+03  0.7818608E-02  0.1091411E+00
          4   -1    0    0  501    0  0.00000000000E+00  0.00000000000E+00  0.39268009430E+02  0.39268009430E+02  0.00000000000E+00 0.  1.
         -4   -1    0    0    0  501 -0.00000000000E+00 -0.00000000000E+00 -0.52797021075E+03  0.52797021075E+03  0.00000000000E+00 0.  1.
         25    1    1    2    0    0 -0.21136656705E+02 -0.32477227427E+02 -0.10744545907E+03  0.16566851008E+03  0.12000000000E+03 0.  0.
         25    1    1    2    0    0  0.21136656705E+02  0.32477227427E+02 -0.38125674224E+03  0.40156971009E+03  0.12000000000E+03 0.  0.
<mgrwt>
<rscale>  0 0.28797458E+03</rscale>
<asrwt>0</asrwt>
<pdfrwt beam="1">  1        4 0.60412327E-02 0.28797458E+03</pdfrwt>
<pdfrwt beam="2">  1       -4 0.81226180E-01 0.28797458E+03</pdfrwt>
<totfact> 0.45395754E+02</totfact>
</mgrwt>
</event>
<event>
 4    1  0.1777979E-004  0.3117405E+03  0.7818608E-02  0.1079515E+00
         -2   -1    0    0    0  501 -0.00000000000E+00  0.00000000000E+00  0.76760620858E+01  0.76760620858E+01  0.00000000000E+00 0.  1.
          2   -1    0    0  501    0  0.00000000000E+00 -0.00000000000E+00 -0.31651045593E+04  0.31651045593E+04  0.00000000000E+00 0.  1.
         25    1    1    2    0    0  0.94060059110E+02 -0.24691896100E+02 -0.17918511462E+04  0.17984959034E+04  0.12000000000E+03 0.  0.
         25    1    1    2    0    0 -0.94060059110E+02  0.24691896100E+02 -0.13655773511E+04  0.13742847180E+04  0.12000000000E+03 0.  0.
<mgrwt>
<rscale>  0 0.31174053E+03</rscale>
<asrwt>0</asrwt>
<pdfrwt beam="1">  1        2 0.48693935E+00 0.31174053E+03</pdfrwt>
<pdfrwt beam="2">  1       -2 0.11809322E-02 0.31174053E+03</pdfrwt>
<totfact> 0.27619627E+03</totfact>
</mgrwt>
</event>
<event>
 4    1  0.1777979E-004  0.2762825E+03  0.7818608E-02  0.1097737E+00
          1   -1    0    0  501    0  0.00000000000E+00  0.00000000000E+00  0.15941025153E+04  0.15941025153E+04  0.00000000000E+00 0.  1.
         -1   -1    0    0    0  501 -0.00000000000E+00 -0.00000000000E+00 -0.11971003425E+02  0.11971003425E+02  0.00000000000E+00 0.  1.
         25    1    1    2    0    0  0.49416981564E+02  0.31654030780E+02  0.58644669374E+03  0.60146798779E+03  0.12000000000E+03 0.  0.
         25    1    1    2    0    0 -0.49416981564E+02 -0.31654030780E+02  0.99568481813E+03  0.10046055309E+04  0.12000000000E+03 0.  0.
<mgrwt>
<rscale>  0 0.27628251E+03</rscale>
<asrwt>0</asrwt>
<pdfrwt beam="1">  1        1 0.24524637E+00 0.27628251E+03</pdfrwt>
<pdfrwt beam="2">  1       -1 0.18416941E-02 0.27628251E+03</pdfrwt>
<totfact> 0.47984578E+03</totfact>
</mgrwt>
</event>
<event>
 4    1  0.1777979E-004  0.2514915E+03  0.7818608E-02  0.1112366E+00
         -2   -1    0    0    0  501 -0.00000000000E+00  0.00000000000E+00  0.18448106364E+02  0.18448106364E+02  0.00000000000E+00 0.  1.
          2   -1    0    0  501    0  0.00000000000E+00 -0.00000000000E+00 -0.85710673660E+03  0.85710673660E+03  0.00000000000E+00 0.  1.
         25    1    1    2    0    0 -0.11032552839E+02  0.27075002641E+02 -0.50151092089E+03  0.51649586325E+03  0.12000000000E+03 0.  0.
         25    1    1    2    0    0  0.11032552839E+02 -0.27075002641E+02 -0.33714770935E+03  0.35905897971E+03  0.12000000000E+03 0.  0.
<mgrwt>
<rscale>  0 0.25149152E+03</rscale>
<asrwt>0</asrwt>
<pdfrwt beam="1">  1        2 0.13186259E+00 0.25149152E+03</pdfrwt>
<pdfrwt beam="2">  1       -2 0.28381700E-02 0.25149152E+03</pdfrwt>
<totfact> 0.14801480E+04</totfact>
</mgrwt>
</event>
<event>
 4    1  0.1777979E-004  0.3827189E+03  0.7818608E-02  0.1049933E+00
         -1   -1    0    0    0  501 -0.00000000000E+00  0.00000000000E+00  0.17940376042E+03  0.17940376042E+03  0.00000000000E+00 0. -1.
          1   -1    0    0  501    0  0.00000000000E+00 -0.00000000000E+00 -0.20411189500E+03  0.20411189500E+03  0.00000000000E+00 0. -1.
         25    1    1    2    0    0  0.13426653425E+03  0.34637564536E+02 -0.67159590962E+02  0.19528869336E+03  0.12000000000E+03 0.  0.
         25    1    1    2    0    0 -0.13426653425E+03 -0.34637564536E+02  0.42451456379E+02  0.18822696206E+03  0.12000000000E+03 0.  0.
<mgrwt>
<rscale>  0 0.38271891E+03</rscale>
<asrwt>0</asrwt>
<pdfrwt beam="1">  1        1 0.31401830E-01 0.38271891E+03</pdfrwt>
<pdfrwt beam="2">  1       -1 0.27600579E-01 0.38271891E+03</pdfrwt>
<totfact> 0.16916406E+03</totfact>
</mgrwt>
</event>
<event>
 4    1  0.1777979E-004  0.2665317E+03  0.7818608E-02  0.1103281E+00
          2   -1    0    0  501    0  0.00000000000E+00  0.00000000000E+00  0.10201392860E+04  0.10201392860E+04  0.00000000000E+00 0. -1.
         -2   -1    0    0    0  501 -0.00000000000E+00 -0.00000000000E+00 -0.17409172477E+02  0.17409172477E+02  0.00000000000E+00 0. -1.
         25    1    1    2    0    0  0.83189853467E+01 -0.30824962463E+02  0.31304162680E+03  0.33677061027E+03  0.12000000000E+03 0.  0.
         25    1    1    2    0    0 -0.83189853467E+01  0.30824962463E+02  0.68968848669E+03  0.70077784818E+03  0.12000000000E+03 0.  0.
<mgrwt>
<rscale>  0 0.26653166E+03</rscale>
<asrwt>0</asrwt>
<pdfrwt beam="1">  1        2 0.15694446E+00 0.26653166E+03</pdfrwt>
<pdfrwt beam="2">  1       -2 0.26783350E-02 0.26653166E+03</pdfrwt>
<totfact> 0.12752264E+04</totfact>
</mgrwt>
</event>
<event>
 4    1  0.1777979E-004  0.3782916E+03  0.7818608E-02  0.1051567E+00
          2   -1    0    0  501    0  0.00000000000E+00  0.00000000000E+00  0.30486453789E+03  0.30486453789E+03  0.00000000000E+00 0.  1.
         -2   -1    0    0    0  501 -0.00000000000E+00 -0.00000000000E+00 -0.11735089337E+03  0.11735089337E+03  0.00000000000E+00 0.  1.
         25    1    1    2    0    0 -0.13328382024E+03  0.57530151413E+02  0.11314733273E+03  0.21971939824E+03  0.12000000000E+03 0.  0.
         25    1    1    2    0    0  0.13328382024E+03 -0.57530151413E+02  0.74366311791E+02  0.20249603302E+03  0.12000000000E+03 0.  0.
<mgrwt>
<rscale>  0 0.37829156E+03</rscale>
<asrwt>0</asrwt>
<pdfrwt beam="1">  1        2 0.46902237E-01 0.37829156E+03</pdfrwt>
<pdfrwt beam="2">  1       -2 0.18053984E-01 0.37829156E+03</pdfrwt>
<totfact> 0.27062848E+03</totfact>
</mgrwt>
</event>
<event>
 4    1  0.1777979E-004  0.3738336E+03  0.7818608E-02  0.1053237E+00
          1   -1    0    0  501    0  0.00000000000E+00  0.00000000000E+00  0.33526379693E+03  0.33526379693E+03  0.00000000000E+00 0.  1.
         -1   -1    0    0    0  501 -0.00000000000E+00 -0.00000000000E+00 -0.10421014301E+03  0.10421014301E+03  0.00000000000E+00 0.  1.
         25    1    1    2    0    0  0.11446227517E+03 -0.52688306255E+01  0.21671281914E+03  0.27293555831E+03  0.12000000000E+03 0.  0.
         25    1    1    2    0    0 -0.11446227517E+03  0.52688306255E+01  0.14340834790E+02  0.16653838163E+03  0.12000000000E+03 0.  0.
<mgrwt>
<rscale>  0 0.37383359E+03</rscale>
<asrwt>0</asrwt>
<pdfrwt beam="1">  1        1 0.51579045E-01 0.37383359E+03</pdfrwt>
<pdfrwt beam="2">  1       -1 0.16032330E-01 0.37383359E+03</pdfrwt>
<totfact> 0.22054418E+03</totfact>
</mgrwt>
</event>
<event>
 4    1  0.1777979E-004  0.3647329E+03  0.7818608E-02  0.1056725E+00
          1   -1    0    0  501    0  0.00000000000E+00  0.00000000000E+00  0.54201822751E+02  0.54201822751E+02  0.00000000000E+00 0. -1.
         -1   -1    0    0    0  501 -0.00000000000E+00 -0.00000000000E+00 -0.61358687481E+03  0.61358687481E+03  0.00000000000E+00 0. -1.
         25    1    1    2    0    0 -0.59733433834E+02  0.42367339612E+02 -0.67005143843E+02  0.15573298907E+03  0.12000000000E+03 0.  0.
         25    1    1    2    0    0  0.59733433834E+02 -0.42367339612E+02 -0.49237990822E+03  0.51205570849E+03  0.12000000000E+03 0.  0.
<mgrwt>
<rscale>  0 0.36473293E+03</rscale>
<asrwt>0</asrwt>
<pdfrwt beam="1">  1        1 0.83387426E-02 0.36473293E+03</pdfrwt>
<pdfrwt beam="2">  1       -1 0.94397974E-01 0.36473293E+03</pdfrwt>
<totfact> 0.94359544E+02</totfact>
</mgrwt>
</event>
<event>
 4    1  0.1777979E-004  0.2851380E+03  0.7818608E-02  0.1092915E+00
         -1   -1    0    0    0  501 -0.00000000000E+00  0.00000000000E+00  0.55215943627E+03  0.55215943627E+03  0.00000000000E+00 0.  1.
          1   -1    0    0  501    0  0.00000000000E+00 -0.00000000000E+00 -0.36811689523E+02  0.36811689523E+02  0.00000000000E+00 0.  1.
         25    1    1    2    0    0  0.34881039965E+01 -0.69800870945E+02  0.19101039527E+03  0.23615524461E+03  0.12000000000E+03 0.  0.
         25    1    1    2    0    0 -0.34881039965E+01  0.69800870945E+02  0.32433735147E+03  0.35281588118E+03  0.12000000000E+03 0.  0.
<mgrwt>
<rscale>  0 0.28513801E+03</rscale>
<asrwt>0</asrwt>
<pdfrwt beam="1">  1        1 0.56633373E-02 0.28513801E+03</pdfrwt>
<pdfrwt beam="2">  1       -1 0.84947600E-01 0.28513801E+03</pdfrwt>
<totfact> 0.20119044E+03</totfact>
</mgrwt>
</event>
<event>
 4    1  0.1777979E-004  0.2875725E+03  0.7818608E-02  0.1091623E+00
         -2   -1    0    0    0  501 -0.00000000000E+00  0.00000000000E+00  0.36651891342E+02  0.36651891342E+02  0.00000000000E+00 0. -1.
          2   -1    0    0  501    0  0.00000000000E+00 -0.00000000000E+00 -0.56407698358E+03  0.56407698358E+03  0.00000000000E+00 0. -1.
         25    1    1    2    0    0  0.13483997559E+02  0.62265451495E+01 -0.42624824297E+03  0.44306675873E+03  0.12000000000E+03 0.  0.
         25    1    1    2    0    0 -0.13483997559E+02 -0.62265451495E+01 -0.10117684927E+03  0.15766211619E+03  0.12000000000E+03 0.  0.
<mgrwt>
<rscale>  0 0.28757252E+03</rscale>
<asrwt>0</asrwt>
<pdfrwt beam="1">  1        2 0.86781069E-01 0.28757252E+03</pdfrwt>
<pdfrwt beam="2">  1       -2 0.56387529E-02 0.28757252E+03</pdfrwt>
<totfact> 0.88054995E+03</totfact>
</mgrwt>
</event>
<event>
 4    1  0.1777979E-004  0.2883938E+03  0.7818608E-02  0.1091191E+00
         -2   -1    0    0    0  501 -0.00000000000E+00  0.00000000000E+00  0.17488553896E+02  0.17488553896E+02  0.00000000000E+00 0.  1.
          2   -1    0    0  501    0  0.00000000000E+00 -0.00000000000E+00 -0.11889342057E+04  0.11889342057E+04  0.00000000000E+00 0.  1.
         25    1    1    2    0    0 -0.38697281366E+01  0.53470509323E+02 -0.33757931636E+03  0.36226214955E+03  0.12000000000E+03 0.  0.
         25    1    1    2    0    0  0.38697281366E+01 -0.53470509323E+02 -0.83386633541E+03  0.84416061001E+03  0.12000000000E+03 0.  0.
<mgrwt>
<rscale>  0 0.28839376E+03</rscale>
<asrwt>0</asrwt>
<pdfrwt beam="1">  1        2 0.18291296E+00 0.28839376E+03</pdfrwt>
<pdfrwt beam="2">  1       -2 0.26905467E-02 0.28839376E+03</pdfrwt>
<totfact> 0.10104222E+04</totfact>
</mgrwt>
</event>
<event>
 4    1  0.1777979E-004  0.3632903E+03  0.7818608E-02  0.1057289E+00
         -1   -1    0    0    0  501 -0.00000000000E+00  0.00000000000E+00  0.50639741826E+03  0.50639741826E+03  0.00000000000E+00 0.  1.
          1   -1    0    0  501    0  0.00000000000E+00 -0.00000000000E+00 -0.65156274115E+02  0.65156274115E+02  0.00000000000E+00 0.  1.
         25    1    1    2    0    0  0.41411280127E+02 -0.11852637357E+03  0.30433823718E+03  0.35040713172E+03  0.12000000000E+03 0.  0.
         25    1    1    2    0    0 -0.41411280127E+02  0.11852637357E+03  0.13690290696E+03  0.22114656065E+03  0.12000000000E+03 0.  0.
<mgrwt>
<rscale>  0 0.36329035E+03</rscale>
<asrwt>0</asrwt>
<pdfrwt beam="1">  1        1 0.10024042E-01 0.36329035E+03</pdfrwt>
<pdfrwt beam="2">  1       -1 0.77907293E-01 0.36329035E+03</pdfrwt>
<totfact> 0.11059558E+03</totfact>
</mgrwt>
</event>
<event>
 4    1  0.1777979E-004  0.4108074E+03  0.7818608E-02  0.1040100E+00
         -2   -1    0    0    0  501 -0.00000000000E+00  0.00000000000E+00  0.30072756089E+03  0.30072756089E+03  0.00000000000E+00 0. -1.
          2   -1    0    0  501    0  0.00000000000E+00 -0.00000000000E+00 -0.14029535008E+03  0.14029535008E+03  0.00000000000E+00 0. -1.
         25    1    1    2    0    0  0.21652502836E+02 -0.71614002229E+01 -0.97068058946E+02  0.15602026984E+03  0.12000000000E+03 0.  0.
         25    1    1    2    0    0 -0.21652502836E+02  0.71614002229E+01  0.25750026975E+03  0.28500264114E+03  0.12000000000E+03 0.  0.
<mgrwt>
<rscale>  0 0.41080739E+03</rscale>
<asrwt>0</asrwt>
<pdfrwt beam="1">  1        2 0.21583900E-01 0.41080739E+03</pdfrwt>
<pdfrwt beam="2">  1       -2 0.46265779E-01 0.41080739E+03</pdfrwt>
<totfact> 0.11487996E+03</totfact>
</mgrwt>
</event>
<event>
 4    1  0.1777979E-004  0.3262513E+03  0.7818608E-02  0.1072808E+00
          2   -1    0    0  501    0  0.00000000000E+00  0.00000000000E+00  0.10120779975E+04  0.10120779975E+04  0.00000000000E+00 0. -1.
         -2   -1    0    0    0  501 -0.00000000000E+00 -0.00000000000E+00 -0.26292411994E+02  0.26292411994E+02  0.00000000000E+00 0. -1.
         25    1    1    2    0    0 -0.28001735560E+02 -0.82698595856E+02  0.27733893708E+03  0.31454735887E+03  0.12000000000E+03 0.  0.
         25    1    1    2    0    0  0.28001735560E+02  0.82698595856E+02  0.70844664841E+03  0.72382305061E+03  0.12000000000E+03 0.  0.
<mgrwt>
<rscale>  0 0.32625126E+03</rscale>
<asrwt>0</asrwt>
<pdfrwt beam="1">  1        2 0.15570428E+00 0.32625126E+03</pdfrwt>
<pdfrwt beam="2">  1       -2 0.40449873E-02 0.32625126E+03</pdfrwt>
<totfact> 0.69959967E+03</totfact>
</mgrwt>
</event>
<event>
 4    1  0.1777979E-004  0.2538557E+03  0.7818608E-02  0.1110892E+00
         -1   -1    0    0    0  501 -0.00000000000E+00  0.00000000000E+00  0.60948260732E+03  0.60948260732E+03  0.00000000000E+00 0.  1.
          1   -1    0    0  501    0  0.00000000000E+00 -0.00000000000E+00 -0.26433375491E+02  0.26433375491E+02  0.00000000000E+00 0.  1.
         25    1    1    2    0    0 -0.23340107473E+02 -0.24762506113E+02  0.23263030642E+03  0.26395984882E+03  0.12000000000E+03 0.  0.
         25    1    1    2    0    0  0.23340107473E+02  0.24762506113E+02  0.35041892542E+03  0.37195613399E+03  0.12000000000E+03 0.  0.
<mgrwt>
<rscale>  0 0.25385573E+03</rscale>
<asrwt>0</asrwt>
<pdfrwt beam="1">  1        1 0.40666736E-02 0.25385573E+03</pdfrwt>
<pdfrwt beam="2">  1       -1 0.93766545E-01 0.25385573E+03</pdfrwt>
<totfact> 0.25704511E+03</totfact>
</mgrwt>
</event>
<event>
 4    1  0.1777979E-004  0.2790807E+03  0.7818608E-02  0.1096192E+00
          1   -1    0    0  501    0  0.00000000000E+00  0.00000000000E+00  0.35669334175E+02  0.35669334175E+02  0.00000000000E+00 0.  1.
         -1   -1    0    0    0  501 -0.00000000000E+00 -0.00000000000E+00 -0.54588945958E+03  0.54588945958E+03  0.00000000000E+00 0.  1.
         25    1    1    2    0    0  0.48789203420E+02  0.31271860573E+02 -0.34136173919E+03  0.36645075061E+03  0.12000000000E+03 0.  0.
         25    1    1    2    0    0 -0.48789203420E+02 -0.31271860573E+02 -0.16885838621E+03  0.21510804315E+03  0.12000000000E+03 0.  0.
<mgrwt>
<rscale>  0 0.27908073E+03</rscale>
<asrwt>0</asrwt>
<pdfrwt beam="1">  1        1 0.54875901E-02 0.27908073E+03</pdfrwt>
<pdfrwt beam="2">  1       -1 0.83982990E-01 0.27908073E+03</pdfrwt>
<totfact> 0.21518158E+03</totfact>
</mgrwt>
</event>
<event>
 4    1  0.1777979E-004  0.2734990E+03  0.7818608E-02  0.1099294E+00
          1   -1    0    0  501    0  0.00000000000E+00  0.00000000000E+00  0.90711854861E+03  0.90711854861E+03  0.00000000000E+00 0.  1.
         -1   -1    0    0    0  501 -0.00000000000E+00 -0.00000000000E+00 -0.20615187888E+02  0.20615187888E+02  0.00000000000E+00 0.  1.
         25    1    1    2    0    0 -0.13854917237E+02 -0.16763004094E+02  0.65310852629E+03  0.66439724875E+03  0.12000000000E+03 0.  0.
         25    1    1    2    0    0  0.13854917237E+02  0.16763004094E+02  0.23339483443E+03  0.26333648774E+03  0.12000000000E+03 0.  0.
<mgrwt>
<rscale>  0 0.27349895E+03</rscale>
<asrwt>0</asrwt>
<pdfrwt beam="1">  1        1 0.13955667E+00 0.27349895E+03</pdfrwt>
<pdfrwt beam="2">  1       -1 0.31715681E-02 0.27349895E+03</pdfrwt>
<totfact> 0.65395246E+03</totfact>
</mgrwt>
</event>
<event>
 4    1  0.1777979E-004  0.2736601E+03  0.7818608E-02  0.1099203E+00
         -3   -1    0    0    0  501 -0.00000000000E+00  0.00000000000E+00  0.42863356278E+03  0.42863356278E+03  0.00000000000E+00 0. -1.
          3   -1    0    0  501    0  0.00000000000E+00 -0.00000000000E+00 -0.43679419426E+02  0.43679419426E+02  0.00000000000E+00 0. -1.
         25    1    1    2    0    0  0.70371133944E+01 -0.20986522214E+02  0.85630639426E+02  0.14907233643E+03  0.12000000000E+03 0.  0.
         25    1    1    2    0    0 -0.70371133944E+01  0.20986522214E+02  0.29932350393E+03  0.32324064578E+03  0.12000000000E+03 0.  0.
<mgrwt>
<rscale>  0 0.27366012E+03</rscale>
<asrwt>0</asrwt>
<pdfrwt beam="1">  1        3 0.67199110E-02 0.27366012E+03</pdfrwt>
<pdfrwt beam="2">  1       -3 0.65943622E-01 0.27366012E+03</pdfrwt>
<totfact> 0.81311171E+02</totfact>
</mgrwt>
</event>
<event>
 4    1  0.1777979E-004  0.2869407E+03  0.7818608E-02  0.1091957E+00
         -2   -1    0    0    0  501 -0.00000000000E+00  0.00000000000E+00  0.81443307958E+02  0.81443307958E+02  0.00000000000E+00 0.  1.
          2   -1    0    0  501    0  0.00000000000E+00 -0.00000000000E+00 -0.25273698797E+03  0.25273698797E+03  0.00000000000E+00 0.  1.
         25    1    1    2    0    0  0.13277748287E+02  0.75040679306E+02 -0.63053752823E+02  0.15550941417E+03  0.12000000000E+03 0.  0.
         25    1    1    2    0    0 -0.13277748287E+02 -0.75040679306E+02 -0.10823992719E+03  0.17867088176E+03  0.12000000000E+03 0.  0.
<mgrwt>
<rscale>  0 0.28694067E+03</rscale>
<asrwt>0</asrwt>
<pdfrwt beam="1">  1        2 0.38882613E-01 0.28694067E+03</pdfrwt>
<pdfrwt beam="2">  1       -2 0.12529740E-01 0.28694067E+03</pdfrwt>
<totfact> 0.60413756E+03</totfact>
</mgrwt>
</event>
<event>
 4    1  0.1777979E-004  0.3748208E+03  0.7818608E-02  0.1052865E+00
         -2   -1    0    0    0  501 -0.00000000000E+00  0.00000000000E+00  0.31587405213E+03  0.31587405213E+03  0.00000000000E+00 0.  1.
          2   -1    0    0  501    0  0.00000000000E+00 -0.00000000000E+00 -0.11119197545E+03  0.11119197545E+03  0.00000000000E+00 0.  1.
         25    1    1    2    0    0 -0.34586606313E+02  0.78594697395E+02  0.23398488934E+03  0.27662662242E+03  0.12000000000E+03 0.  0.
         25    1    1    2    0    0  0.34586606313E+02 -0.78594697395E+02 -0.29302812661E+02  0.15043940516E+03  0.12000000000E+03 0.  0.
<mgrwt>
<rscale>  0 0.37482081E+03</rscale>
<asrwt>0</asrwt>
<pdfrwt beam="1">  1        2 0.17106458E-01 0.37482081E+03</pdfrwt>
<pdfrwt beam="2">  1       -2 0.48596008E-01 0.37482081E+03</pdfrwt>
<totfact> 0.13642880E+03</totfact>
</mgrwt>
</event>
<event>
 4    1  0.1777979E-004  0.4694647E+03  0.7818608E-02  0.1022071E+00
         -2   -1    0    0    0  501 -0.00000000000E+00  0.00000000000E+00  0.81293176446E+02  0.81293176446E+02  0.00000000000E+00 0. -1.
          2   -1    0    0  501    0  0.00000000000E+00 -0.00000000000E+00 -0.67778468204E+03  0.67778468204E+03  0.00000000000E+00 0. -1.
         25    1    1    2    0    0 -0.89446654035E+01  0.11773728954E+03 -0.33759145908E+02  0.17170252275E+03  0.12000000000E+03 0.  0.
         25    1    1    2    0    0  0.89446654035E+01 -0.11773728954E+03 -0.56273235968E+03  0.58737533573E+03  0.12000000000E+03 0.  0.
<mgrwt>
<rscale>  0 0.46946467E+03</rscale>
<asrwt>0</asrwt>
<pdfrwt beam="1">  1        2 0.10427457E+00 0.46946467E+03</pdfrwt>
<pdfrwt beam="2">  1       -2 0.12506642E-01 0.46946467E+03</pdfrwt>
<totfact> 0.20250122E+03</totfact>
</mgrwt>
</event>
<event>
 4    1  0.1777979E-004  0.4077781E+03  0.7818608E-02  0.1041119E+00
          2   -1    0    0  501    0  0.00000000000E+00  0.00000000000E+00  0.24366415706E+03  0.24366415706E+03  0.00000000000E+00 0.  1.
         -2   -1    0    0    0  501 -0.00000000000E+00 -0.00000000000E+00 -0.17060675229E+03  0.17060675229E+03  0.00000000000E+00 0.  1.
         25    1    1    2    0    0  0.69258446260E+02 -0.11175731094E+03 -0.64474220582E+02  0.18932341125E+03  0.12000000000E+03 0.  0.
         25    1    1    2    0    0 -0.69258446260E+02  0.11175731094E+03  0.13753162535E+03  0.22494749810E+03  0.12000000000E+03 0.  0.
<mgrwt>
<rscale>  0 0.40777813E+03</rscale>
<asrwt>0</asrwt>
<pdfrwt beam="1">  1        2 0.37486793E-01 0.40777813E+03</pdfrwt>
<pdfrwt beam="2">  1       -2 0.26247193E-01 0.40777813E+03</pdfrwt>
<totfact> 0.17999409E+03</totfact>
</mgrwt>
</event>
<event>
 4    1  0.1777979E-004  0.3269743E+03  0.7818608E-02  0.1072484E+00
         -2   -1    0    0    0  501 -0.00000000000E+00  0.00000000000E+00  0.26432030171E+03  0.26432030171E+03  0.00000000000E+00 0. -1.
          2   -1    0    0  501    0  0.00000000000E+00 -0.00000000000E+00 -0.10111995257E+03  0.10111995257E+03  0.00000000000E+00 0. -1.
         25    1    1    2    0    0  0.26991186542E+02 -0.10757648827E+03  0.75810897933E+02  0.18013471966E+03  0.12000000000E+03 0.  0.
         25    1    1    2    0    0 -0.26991186542E+02  0.10757648827E+03  0.87389451213E+02  0.18530553463E+03  0.12000000000E+03 0.  0.
<mgrwt>
<rscale>  0 0.32697435E+03</rscale>
<asrwt>0</asrwt>
<pdfrwt beam="1">  1        2 0.15556916E-01 0.32697435E+03</pdfrwt>
<pdfrwt beam="2">  1       -2 0.40664662E-01 0.32697435E+03</pdfrwt>
<totfact> 0.21597834E+03</totfact>
</mgrwt>
</event>
<event>
 4    1  0.1777979E-004  0.2654660E+03  0.7818608E-02  0.1103903E+00
          1   -1    0    0  501    0  0.00000000000E+00  0.00000000000E+00  0.98542020894E+02  0.98542020894E+02  0.00000000000E+00 0. -1.
         -1   -1    0    0    0  501 -0.00000000000E+00 -0.00000000000E+00 -0.17878717732E+03  0.17878717732E+03  0.00000000000E+00 0. -1.
         25    1    1    2    0    0  0.32243211683E+02 -0.32331144075E+02 -0.49564094657E+01  0.12848927415E+03  0.12000000000E+03 0.  0.
         25    1    1    2    0    0 -0.32243211683E+02  0.32331144075E+02 -0.75288746962E+02  0.14883992407E+03  0.12000000000E+03 0.  0.
<mgrwt>
<rscale>  0 0.26546600E+03</rscale>
<asrwt>0</asrwt>
<pdfrwt beam="1">  1        1 0.15160311E-01 0.26546600E+03</pdfrwt>
<pdfrwt beam="2">  1       -1 0.27505720E-01 0.26546600E+03</pdfrwt>
<totfact> 0.43204104E+03</totfact>
</mgrwt>
</event>
<event>
 4    1  0.1777979E-004  0.2607554E+03  0.7818608E-02  0.1106690E+00
          1   -1    0    0  501    0  0.00000000000E+00  0.00000000000E+00  0.29431708934E+04  0.29431708934E+04  0.00000000000E+00 0.  1.
         -1   -1    0    0    0  501 -0.00000000000E+00 -0.00000000000E+00 -0.57755201107E+01  0.57755201107E+01  0.00000000000E+00 0.  1.
         25    1    1    2    0    0 -0.10011307653E+02 -0.34264236024E+01  0.90477833305E+03  0.91276272854E+03  0.12000000000E+03 0.  0.
         25    1    1    2    0    0  0.10011307653E+02  0.34264236024E+01  0.20326170402E+04  0.20361836849E+04  0.12000000000E+03 0.  0.
<mgrwt>
<rscale>  0 0.26075538E+03</rscale>
<asrwt>0</asrwt>
<pdfrwt beam="1">  1        1 0.45279432E+00 0.26075538E+03</pdfrwt>
<pdfrwt beam="2">  1       -1 0.88854391E-03 0.26075538E+03</pdfrwt>
<totfact> 0.17720068E+03</totfact>
</mgrwt>
</event>
<event>
 4    1  0.1777979E-004  0.2875130E+03  0.7818608E-02  0.1091655E+00
         -2   -1    0    0    0  501 -0.00000000000E+00  0.00000000000E+00  0.44264692623E+02  0.44264692623E+02  0.00000000000E+00 0.  1.
          2   -1    0    0  501    0  0.00000000000E+00 -0.00000000000E+00 -0.46687151699E+03  0.46687151699E+03  0.00000000000E+00 0.  1.
         25    1    1    2    0    0  0.33577647944E+02  0.71540032602E+02 -0.21935061205E+03  0.26222152031E+03  0.12000000000E+03 0.  0.
         25    1    1    2    0    0 -0.33577647944E+02 -0.71540032602E+02 -0.20325621232E+03  0.24891468930E+03  0.12000000000E+03 0.  0.
<mgrwt>
<rscale>  0 0.28751295E+03</rscale>
<asrwt>0</asrwt>
<pdfrwt beam="1">  1        2 0.71826389E-01 0.28751295E+03</pdfrwt>
<pdfrwt beam="2">  1       -2 0.68099525E-02 0.28751295E+03</pdfrwt>
<totfact> 0.81495141E+03</totfact>
</mgrwt>
</event>
<event>
 4    1  0.1777979E-004  0.4411565E+03  0.7818608E-02  0.1030393E+00
         -2   -1    0    0    0  501 -0.00000000000E+00  0.00000000000E+00  0.37515212329E+02  0.37515212329E+02  0.00000000000E+00 0.  1.
          2   -1    0    0  501    0  0.00000000000E+00 -0.00000000000E+00 -0.12969344214E+04  0.12969344214E+04  0.00000000000E+00 0.  1.
         25    1    1    2    0    0 -0.17508001908E+03  0.56465854355E+02 -0.69120973206E+03  0.72526705391E+03  0.12000000000E+03 0.  0.
         25    1    1    2    0    0  0.17508001908E+03 -0.56465854355E+02 -0.56820947698E+03  0.60918257979E+03  0.12000000000E+03 0.  0.
<mgrwt>
<rscale>  0 0.44115653E+03</rscale>
<asrwt>0</asrwt>
<pdfrwt beam="1">  1        2 0.19952837E+00 0.44115653E+03</pdfrwt>
<pdfrwt beam="2">  1       -2 0.57715713E-02 0.44115653E+03</pdfrwt>
<totfact> 0.27692239E+03</totfact>
</mgrwt>
</event>
<event>
 4    1  0.1777979E-004  0.2455215E+03  0.7818608E-02  0.1116168E+00
         -2   -1    0    0    0  501 -0.00000000000E+00  0.00000000000E+00  0.75754818249E+01  0.75754818249E+01  0.00000000000E+00 0.  1.
          2   -1    0    0  501    0  0.00000000000E+00 -0.00000000000E+00 -0.19893389317E+04  0.19893389317E+04  0.00000000000E+00 0.  1.
         25    1    1    2    0    0  0.13680750348E+02 -0.32050923452E+01 -0.11677267167E+04  0.11739604424E+04  0.12000000000E+03 0.  0.
         25    1    1    2    0    0 -0.13680750348E+02  0.32050923452E+01 -0.81403673323E+03  0.82295397113E+03  0.12000000000E+03 0.  0.
<mgrwt>
<rscale>  0 0.24552149E+03</rscale>
<asrwt>0</asrwt>
<pdfrwt beam="1">  1        2 0.30605222E+00 0.24552149E+03</pdfrwt>
<pdfrwt beam="2">  1       -2 0.11654585E-02 0.24552149E+03</pdfrwt>
<totfact> 0.12805564E+04</totfact>
</mgrwt>
</event>
<event>
 4    1  0.1777979E-004  0.3340420E+03  0.7818608E-02  0.1069362E+00
         -2   -1    0    0    0  501 -0.00000000000E+00  0.00000000000E+00  0.13904170385E+03  0.13904170385E+03  0.00000000000E+00 0.  1.
          2   -1    0    0  501    0  0.00000000000E+00 -0.00000000000E+00 -0.20063056236E+03  0.20063056236E+03  0.00000000000E+00 0.  1.
         25    1    1    2    0    0  0.77933341234E+02 -0.23620587605E+02 -0.11504303981E+03  0.18511196299E+03  0.12000000000E+03 0.  0.
         25    1    1    2    0    0 -0.77933341234E+02  0.23620587605E+02  0.53454181298E+02  0.15456030323E+03  0.12000000000E+03 0.  0.
<mgrwt>
<rscale>  0 0.33404200E+03</rscale>
<asrwt>0</asrwt>
<pdfrwt beam="1">  1        2 0.30866240E-01 0.33404200E+03</pdfrwt>
<pdfrwt beam="2">  1       -2 0.21391031E-01 0.33404200E+03</pdfrwt>
<totfact> 0.31861764E+03</totfact>
</mgrwt>
</event>
<event>
 4    1  0.1777979E-004  0.3045145E+03  0.7818608E-02  0.1083005E+00
         -2   -1    0    0    0  501 -0.00000000000E+00  0.00000000000E+00  0.60652495643E+02  0.60652495643E+02  0.00000000000E+00 0. -1.
          2   -1    0    0  501    0  0.00000000000E+00 -0.00000000000E+00 -0.38221465453E+03  0.38221465453E+03  0.00000000000E+00 0. -1.
         25    1    1    2    0    0 -0.88767343594E+02 -0.21236130336E+02 -0.12987311586E+03  0.19899155948E+03  0.12000000000E+03 0.  0.
         25    1    1    2    0    0  0.88767343594E+02  0.21236130336E+02 -0.19168904303E+03  0.24387559070E+03  0.12000000000E+03 0.  0.
<mgrwt>
<rscale>  0 0.30451452E+03</rscale>
<asrwt>0</asrwt>
<pdfrwt beam="1">  1        2 0.58802253E-01 0.30451452E+03</pdfrwt>
<pdfrwt beam="2">  1       -2 0.93311534E-02 0.30451452E+03</pdfrwt>
<totfact> 0.62097439E+03</totfact>
</mgrwt>
</event>
<event>
 4    1  0.1777979E-004  0.2774510E+03  0.7818608E-02  0.1097089E+00
         -2   -1    0    0    0  501 -0.00000000000E+00  0.00000000000E+00  0.11977424675E+02  0.11977424675E+02  0.00000000000E+00 0.  1.
          2   -1    0    0  501    0  0.00000000000E+00 -0.00000000000E+00 -0.16067532131E+04  0.16067532131E+04  0.00000000000E+00 0.  1.
         25    1    1    2    0    0 -0.46377013457E+02 -0.39397547570E+02 -0.99452930847E+03  0.10035893281E+04  0.12000000000E+03 0.  0.
         25    1    1    2    0    0  0.46377013457E+02  0.39397547570E+02 -0.60024647992E+03  0.61514130961E+03  0.12000000000E+03 0.  0.
<mgrwt>
<rscale>  0 0.27745101E+03</rscale>
<asrwt>0</asrwt>
<pdfrwt beam="1">  1        2 0.24719298E+00 0.27745101E+03</pdfrwt>
<pdfrwt beam="2">  1       -2 0.18426794E-02 0.27745101E+03</pdfrwt>
<totfact> 0.10440669E+04</totfact>
</mgrwt>
</event>
<event>
 4    1  0.1777979E-004  0.3584400E+03  0.7818608E-02  0.1059203E+00
         -1   -1    0    0    0  501 -0.00000000000E+00  0.00000000000E+00  0.86314104002E+02  0.86314104002E+02  0.00000000000E+00 0.  1.
          1   -1    0    0  501    0  0.00000000000E+00 -0.00000000000E+00 -0.37212702758E+03  0.37212702758E+03  0.00000000000E+00 0.  1.
         25    1    1    2    0    0 -0.63869436715E+02  0.45049532131E+02 -0.28072345054E+03  0.31514190609E+03  0.12000000000E+03 0.  0.
         25    1    1    2    0    0  0.63869436715E+02 -0.45049532131E+02 -0.50894730407E+01  0.14329922549E+03  0.12000000000E+03 0.  0.
<mgrwt>
<rscale>  0 0.35844001E+03</rscale>
<asrwt>0</asrwt>
<pdfrwt beam="1">  1        1 0.57250312E-01 0.35844001E+03</pdfrwt>
<pdfrwt beam="2">  1       -1 0.13279093E-01 0.35844001E+03</pdfrwt>
<totfact> 0.26049820E+03</totfact>
</mgrwt>
</event>
<event>
 4    1  0.1777979E-004  0.2648299E+03  0.7818608E-02  0.1104276E+00
         -2   -1    0    0    0  501 -0.00000000000E+00  0.00000000000E+00  0.35024570767E+02  0.35024570767E+02  0.00000000000E+00 0. -1.
          2   -1    0    0  501    0  0.00000000000E+00 -0.00000000000E+00 -0.50061183278E+03  0.50061183278E+03  0.00000000000E+00 0. -1.
         25    1    1    2    0    0  0.47558055086E+02  0.42205845639E+01 -0.17368297499E+03  0.21643788425E+03  0.12000000000E+03 0.  0.
         25    1    1    2    0    0 -0.47558055086E+02 -0.42205845639E+01 -0.29190428702E+03  0.31919851930E+03  0.12000000000E+03 0.  0.
<mgrwt>
<rscale>  0 0.26482987E+03</rscale>
<asrwt>0</asrwt>
<pdfrwt beam="1">  1        2 0.77017203E-01 0.26482987E+03</pdfrwt>
<pdfrwt beam="2">  1       -2 0.53883956E-02 0.26482987E+03</pdfrwt>
<totfact> 0.10769403E+04</totfact>
</mgrwt>
</event>
<event>
 4    1  0.1777979E-004  0.2566063E+03  0.7818608E-02  0.1109200E+00
         -1   -1    0    0    0  501 -0.00000000000E+00  0.00000000000E+00  0.20846602546E+02  0.20846602546E+02  0.00000000000E+00 0. -1.
          1   -1    0    0  501    0  0.00000000000E+00 -0.00000000000E+00 -0.78965842506E+03  0.78965842506E+03  0.00000000000E+00 0. -1.
         25    1    1    2    0    0 -0.21132921929E+02  0.19519969774E+02 -0.27344817624E+03  0.30000255782E+03  0.12000000000E+03 0.  0.
         25    1    1    2    0    0  0.21132921929E+02 -0.19519969774E+02 -0.49536364627E+03  0.51050246978E+03  0.12000000000E+03 0.  0.
<mgrwt>
<rscale>  0 0.25660628E+03</rscale>
<asrwt>0</asrwt>
<pdfrwt beam="1">  1        1 0.12148592E+00 0.25660628E+03</pdfrwt>
<pdfrwt beam="2">  1       -1 0.32071694E-02 0.25660628E+03</pdfrwt>
<totfact> 0.79932019E+03</totfact>
</mgrwt>
</event>
<event>
 4    1  0.1777979E-004  0.2580229E+03  0.7818608E-02  0.1108337E+00
         -2   -1    0    0    0  501 -0.00000000000E+00  0.00000000000E+00  0.89268339289E+01  0.89268339289E+01  0.00000000000E+00 0. -1.
          2   -1    0    0  501    0  0.00000000000E+00 -0.00000000000E+00 -0.18644851709E+04  0.18644851709E+04  0.00000000000E+00 0. -1.
         25    1    1    2    0    0  0.46536005871E+02  0.34380160134E+01 -0.98700113843E+03  0.99536358535E+03  0.12000000000E+03 0.  0.
         25    1    1    2    0    0 -0.46536005871E+02 -0.34380160134E+01 -0.86855719857E+03  0.87804841949E+03  0.12000000000E+03 0.  0.
<mgrwt>
<rscale>  0 0.25802286E+03</rscale>
<asrwt>0</asrwt>
<pdfrwt beam="1">  1        2 0.28684398E+00 0.25802286E+03</pdfrwt>
<pdfrwt beam="2">  1       -2 0.13733585E-02 0.25802286E+03</pdfrwt>
<totfact> 0.11734359E+04</totfact>
</mgrwt>
</event>
<event>
 4    1  0.1777979E-004  0.3145102E+03  0.7818608E-02  0.1078204E+00
          3   -1    0    0  501    0  0.00000000000E+00  0.00000000000E+00  0.12916522442E+03  0.12916522442E+03  0.00000000000E+00 0. -1.
         -3   -1    0    0    0  501 -0.00000000000E+00 -0.00000000000E+00 -0.19145369449E+03  0.19145369449E+03  0.00000000000E+00 0. -1.
         25    1    1    2    0    0  0.78643531723E+02  0.61002579963E+02 -0.10176816291E+02  0.15623599916E+03  0.12000000000E+03 0.  0.
         25    1    1    2    0    0 -0.78643531723E+02 -0.61002579963E+02 -0.52111653780E+02  0.16438291974E+03  0.12000000000E+03 0.  0.
<mgrwt>
<rscale>  0 0.31451016E+03</rscale>
<asrwt>0</asrwt>
<pdfrwt beam="1">  1        3 0.19871573E-01 0.31451016E+03</pdfrwt>
<pdfrwt beam="2">  1       -3 0.29454414E-01 0.31451016E+03</pdfrwt>
<totfact> 0.64882740E+02</totfact>
</mgrwt>
</event>
<event>
 4    1  0.1777979E-004  0.2845872E+03  0.7818608E-02  0.1093210E+00
          1   -1    0    0  501    0  0.00000000000E+00  0.00000000000E+00  0.21837110986E+03  0.21837110986E+03  0.00000000000E+00 0.  1.
         -1   -1    0    0    0  501 -0.00000000000E+00 -0.00000000000E+00 -0.92720451976E+02  0.92720451976E+02  0.00000000000E+00 0.  1.
         25    1    1    2    0    0  0.17994400435E+02 -0.64196847896E+02  0.10376215183E+03  0.17208026580E+03  0.12000000000E+03 0.  0.
         25    1    1    2    0    0 -0.17994400435E+02  0.64196847896E+02  0.21888506054E+02  0.13901129603E+03  0.12000000000E+03 0.  0.
<mgrwt>
<rscale>  0 0.28458720E+03</rscale>
<asrwt>0</asrwt>
<pdfrwt beam="1">  1        1 0.33595555E-01 0.28458720E+03</pdfrwt>
<pdfrwt beam="2">  1       -1 0.14264685E-01 0.28458720E+03</pdfrwt>
<totfact> 0.45449907E+03</totfact>
</mgrwt>
</event>
<event>
 4    1  0.1777979E-004  0.3476876E+03  0.7818608E-02  0.1063568E+00
          2   -1    0    0  501    0  0.00000000000E+00  0.00000000000E+00  0.27034789165E+04  0.27034789165E+04  0.00000000000E+00 0.  1.
         -2   -1    0    0    0  501 -0.00000000000E+00 -0.00000000000E+00 -0.11178808002E+02  0.11178808002E+02  0.00000000000E+00 0.  1.
         25    1    1    2    0    0  0.73714958666E+02  0.53477609312E+02  0.66872166191E+03  0.68547969404E+03  0.12000000000E+03 0.  0.
         25    1    1    2    0    0 -0.73714958666E+02 -0.53477609312E+02  0.20235784466E+04  0.20291780305E+04  0.12000000000E+03 0.  0.
<mgrwt>
<rscale>  0 0.34768763E+03</rscale>
<asrwt>0</asrwt>
<pdfrwt beam="1">  1        2 0.41591931E+00 0.34768763E+03</pdfrwt>
<pdfrwt beam="2">  1       -2 0.17198188E-02 0.34768763E+03</pdfrwt>
<totfact> 0.29671029E+03</totfact>
</mgrwt>
</event>
<event>
 4    1  0.1777979E-004  0.2786983E+03  0.7818608E-02  0.1096402E+00
          1   -1    0    0  501    0  0.00000000000E+00  0.00000000000E+00  0.55134569291E+03  0.55134569291E+03  0.00000000000E+00 0.  1.
         -1   -1    0    0    0  501 -0.00000000000E+00 -0.00000000000E+00 -0.35219629569E+02  0.35219629569E+02  0.00000000000E+00 0.  1.
         25    1    1    2    0    0  0.40249347158E+02 -0.15433138066E+02  0.13975192915E+03  0.18917926260E+03  0.12000000000E+03 0.  0.
         25    1    1    2    0    0 -0.40249347158E+02  0.15433138066E+02  0.37637413419E+03  0.39738605987E+03  0.12000000000E+03 0.  0.
<mgrwt>
<rscale>  0 0.27869834E+03</rscale>
<asrwt>0</asrwt>
<pdfrwt beam="1">  1        1 0.84822408E-01 0.27869834E+03</pdfrwt>
<pdfrwt beam="2">  1       -1 0.54184049E-02 0.27869834E+03</pdfrwt>
<totfact> 0.61436280E+03</totfact>
</mgrwt>
</event>
<event>
 4    1  0.1777979E-004  0.2551547E+03  0.7818608E-02  0.1110090E+00
         -1   -1    0    0    0  501 -0.00000000000E+00  0.00000000000E+00  0.21073028676E+02  0.21073028676E+02  0.00000000000E+00 0. -1.
          1   -1    0    0  501    0  0.00000000000E+00 -0.00000000000E+00 -0.77236089643E+03  0.77236089643E+03  0.00000000000E+00 0. -1.
         25    1    1    2    0    0 -0.28920012547E+02  0.29939851252E+02 -0.41285835439E+03  0.43195460712E+03  0.12000000000E+03 0.  0.
         25    1    1    2    0    0  0.28920012547E+02 -0.29939851252E+02 -0.33842951336E+03  0.36147931799E+03  0.12000000000E+03 0.  0.
<mgrwt>
<rscale>  0 0.25515472E+03</rscale>
<asrwt>0</asrwt>
<pdfrwt beam="1">  1        1 0.11882474E+00 0.25515472E+03</pdfrwt>
<pdfrwt beam="2">  1       -1 0.32420049E-02 0.25515472E+03</pdfrwt>
<totfact> 0.81347852E+03</totfact>
</mgrwt>
</event>
<event>
 4    1  0.1777979E-004  0.2969242E+03  0.7818608E-02  0.1086788E+00
         -2   -1    0    0    0  501 -0.00000000000E+00  0.00000000000E+00  0.38218364273E+02  0.38218364273E+02  0.00000000000E+00 0. -1.
          2   -1    0    0  501    0  0.00000000000E+00 -0.00000000000E+00 -0.57671231346E+03  0.57671231346E+03  0.00000000000E+00 0. -1.
         25    1    1    2    0    0 -0.22690534801E+02  0.20868623284E+02 -0.43864735576E+03  0.45580901979E+03  0.12000000000E+03 0.  0.
         25    1    1    2    0    0  0.22690534801E+02 -0.20868623284E+02 -0.99846593425E+02  0.15912165794E+03  0.12000000000E+03 0.  0.
<mgrwt>
<rscale>  0 0.29692424E+03</rscale>
<asrwt>0</asrwt>
<pdfrwt beam="1">  1        2 0.88724968E-01 0.29692424E+03</pdfrwt>
<pdfrwt beam="2">  1       -2 0.58797486E-02 0.29692424E+03</pdfrwt>
<totfact> 0.80586812E+03</totfact>
</mgrwt>
</event>
<event>
 4    1  0.1777979E-004  0.3164502E+03  0.7818608E-02  0.1077295E+00
          1   -1    0    0  501    0  0.00000000000E+00  0.00000000000E+00  0.14103642710E+04  0.14103642710E+04  0.00000000000E+00 0.  1.
         -1   -1    0    0    0  501 -0.00000000000E+00 -0.00000000000E+00 -0.17750867010E+02  0.17750867010E+02  0.00000000000E+00 0.  1.
         25    1    1    2    0    0 -0.25598569793E+02  0.13061905400E+02  0.24933858401E+03  0.27820070026E+03  0.12000000000E+03 0.  0.
         25    1    1    2    0    0  0.25598569793E+02 -0.13061905400E+02  0.11432748200E+04  0.11499144378E+04  0.12000000000E+03 0.  0.
<mgrwt>
<rscale>  0 0.31645024E+03</rscale>
<asrwt>0</asrwt>
<pdfrwt beam="1">  1        1 0.21697903E+00 0.31645024E+03</pdfrwt>
<pdfrwt beam="2">  1       -1 0.27309037E-02 0.31645024E+03</pdfrwt>
<totfact> 0.35656989E+03</totfact>
</mgrwt>
</event>
<event>
 4    1  0.1777979E-004  0.2507512E+03  0.7818608E-02  0.1112831E+00
          1   -1    0    0  501    0  0.00000000000E+00  0.00000000000E+00  0.26763529049E+03  0.26763529049E+03  0.00000000000E+00 0. -1.
         -1   -1    0    0    0  501 -0.00000000000E+00 -0.00000000000E+00 -0.58733068777E+02  0.58733068777E+02  0.00000000000E+00 0. -1.
         25    1    1    2    0    0 -0.39555816534E+01  0.40238231069E+01  0.15114808403E+03  0.19307403006E+03  0.12000000000E+03 0.  0.
         25    1    1    2    0    0  0.39555816534E+01 -0.40238231069E+01  0.57754137683E+02  0.13329432920E+03  0.12000000000E+03 0.  0.
<mgrwt>
<rscale>  0 0.25075121E+03</rscale>
<asrwt>0</asrwt>
<pdfrwt beam="1">  1        1 0.41174659E-01 0.25075121E+03</pdfrwt>
<pdfrwt beam="2">  1       -1 0.90358569E-02 0.25075121E+03</pdfrwt>
<totfact> 0.71355623E+03</totfact>
</mgrwt>
</event>
<event>
 4    1  0.1777979E-004  0.3247965E+03  0.7818608E-02  0.1073463E+00
         -1   -1    0    0    0  501 -0.00000000000E+00  0.00000000000E+00  0.68124313359E+02  0.68124313359E+02  0.00000000000E+00 0. -1.
          1   -1    0    0  501    0  0.00000000000E+00 -0.00000000000E+00 -0.38713321382E+03  0.38713321382E+03  0.00000000000E+00 0. -1.
         25    1    1    2    0    0 -0.79216645762E+02 -0.71850684387E+02 -0.19193688739E+03  0.25035488123E+03  0.12000000000E+03 0.  0.
         25    1    1    2    0    0  0.79216645762E+02  0.71850684387E+02 -0.12707201307E+03  0.20490264595E+03  0.12000000000E+03 0.  0.
<mgrwt>
<rscale>  0 0.32479646E+03</rscale>
<asrwt>0</asrwt>
<pdfrwt beam="1">  1        1 0.59558956E-01 0.32479646E+03</pdfrwt>
<pdfrwt beam="2">  1       -1 0.10480664E-01 0.32479646E+03</pdfrwt>
<totfact> 0.35841912E+03</totfact>
</mgrwt>
</event>
<event>
 4    1  0.1777979E-004  0.4336862E+03  0.7818608E-02  0.1032702E+00
          2   -1    0    0  501    0  0.00000000000E+00  0.00000000000E+00  0.41890757304E+03  0.41890757304E+03  0.00000000000E+00 0. -1.
         -2   -1    0    0    0  501 -0.00000000000E+00 -0.00000000000E+00 -0.11224653550E+03  0.11224653550E+03  0.00000000000E+00 0. -1.
         25    1    1    2    0    0  0.68723157487E+02  0.27068968151E+02 -0.48530472913E+02  0.14903290983E+03  0.12000000000E+03 0.  0.
         25    1    1    2    0    0 -0.68723157487E+02 -0.27068968151E+02  0.35519151045E+03  0.38212119871E+03  0.12000000000E+03 0.  0.
<mgrwt>
<rscale>  0 0.43368617E+03</rscale>
<asrwt>0</asrwt>
<pdfrwt beam="1">  1        2 0.64447318E-01 0.43368617E+03</pdfrwt>
<pdfrwt beam="2">  1       -2 0.17268698E-01 0.43368617E+03</pdfrwt>
<totfact> 0.20632495E+03</totfact>
</mgrwt>
</event>
<event>
 4    1  0.1777979E-004  0.2496474E+03  0.7818608E-02  0.1113528E+00
         -2   -1    0    0    0  501 -0.00000000000E+00  0.00000000000E+00  0.52093599185E+02  0.52093599185E+02  0.00000000000E+00 0.  1.
          2   -1    0    0  501    0  0.00000000000E+00 -0.00000000000E+00 -0.29909549905E+03  0.29909549905E+03  0.00000000000E+00 0.  1.
         25    1    1    2    0    0 -0.18169616046E+02 -0.10683989185E+02 -0.16168244228E+03  0.20244874590E+03  0.12000000000E+03 0.  0.
         25    1    1    2    0    0  0.18169616046E+02  0.10683989185E+02 -0.85319457583E+02  0.14874035234E+03  0.12000000000E+03 0.  0.
<mgrwt>
<rscale>  0 0.24964744E+03</rscale>
<asrwt>0</asrwt>
<pdfrwt beam="1">  1        2 0.46014693E-01 0.24964744E+03</pdfrwt>
<pdfrwt beam="2">  1       -2 0.80143998E-02 0.24964744E+03</pdfrwt>
<totfact> 0.10198405E+04</totfact>
</mgrwt>
</event>
<event>
 4    1  0.1777979E-004  0.3940091E+03  0.7818608E-02  0.1045874E+00
          1   -1    0    0  501    0  0.00000000000E+00  0.00000000000E+00  0.21404127707E+03  0.21404127707E+03  0.00000000000E+00 0.  1.
         -1   -1    0    0    0  501 -0.00000000000E+00 -0.00000000000E+00 -0.18132384979E+03  0.18132384979E+03  0.00000000000E+00 0.  1.
         25    1    1    2    0    0  0.11631005569E+03 -0.86207247015E+02 -0.42589277336E+02  0.19280447359E+03  0.12000000000E+03 0.  0.
         25    1    1    2    0    0 -0.11631005569E+03  0.86207247015E+02  0.75306704620E+02  0.20256065327E+03  0.12000000000E+03 0.  0.
<mgrwt>
<rscale>  0 0.39400908E+03</rscale>
<asrwt>0</asrwt>
<pdfrwt beam="1">  1        1 0.32929427E-01 0.39400908E+03</pdfrwt>
<pdfrwt beam="2">  1       -1 0.27895977E-01 0.39400908E+03</pdfrwt>
<totfact> 0.15641597E+03</totfact>
</mgrwt>
</event>
<event>
 4    1  0.1777979E-004  0.5795149E+03  0.7818608E-02  0.9948842E-01
         -1   -1    0    0    0  501 -0.00000000000E+00  0.00000000000E+00  0.19365500514E+03  0.19365500514E+03  0.00000000000E+00 0. -1.
          1   -1    0    0  501    0  0.00000000000E+00 -0.00000000000E+00 -0.43355126594E+03  0.43355126594E+03  0.00000000000E+00 0. -1.
         25    1    1    2    0    0 -0.83924370421E+02  0.18554507622E+03  0.61442435522E+02  0.24422417600E+03  0.12000000000E+03 0.  0.
         25    1    1    2    0    0  0.83924370421E+02 -0.18554507622E+03 -0.30133869632E+03  0.38298209509E+03  0.12000000000E+03 0.  0.
<mgrwt>
<rscale>  0 0.57951488E+03</rscale>
<asrwt>0</asrwt>
<pdfrwt beam="1">  1        1 0.66700196E-01 0.57951488E+03</pdfrwt>
<pdfrwt beam="2">  1       -1 0.29793077E-01 0.57951488E+03</pdfrwt>
<totfact> 0.56160185E+02</totfact>
</mgrwt>
</event>
<event>
 4    1  0.1777979E-004  0.2590262E+03  0.7818608E-02  0.1107730E+00
          3   -1    0    0  501    0  0.00000000000E+00  0.00000000000E+00  0.12394399452E+04  0.12394399452E+04  0.00000000000E+00 0. -1.
         -3   -1    0    0    0  501 -0.00000000000E+00 -0.00000000000E+00 -0.13533247208E+02  0.13533247208E+02  0.00000000000E+00 0. -1.
         25    1    1    2    0    0 -0.47257706093E+01  0.42524047119E+02  0.50023209299E+03  0.51620032385E+03  0.12000000000E+03 0.  0.
         25    1    1    2    0    0  0.47257706093E+01 -0.42524047119E+02  0.72567460503E+03  0.73677286858E+03  0.12000000000E+03 0.  0.
<mgrwt>
<rscale>  0 0.25902623E+03</rscale>
<asrwt>0</asrwt>
<pdfrwt beam="1">  1        3 0.19068298E+00 0.25902623E+03</pdfrwt>
<pdfrwt beam="2">  1       -3 0.20820390E-02 0.25902623E+03</pdfrwt>
<totfact> 0.41363898E+02</totfact>
</mgrwt>
</event>
<event>
 4    1  0.1777979E-004  0.2551503E+03  0.7818608E-02  0.1110093E+00
         -1   -1    0    0    0  501 -0.00000000000E+00  0.00000000000E+00  0.85854564593E+02  0.85854564593E+02  0.00000000000E+00 0.  1.
          1   -1    0    0  501    0  0.00000000000E+00 -0.00000000000E+00 -0.18956969302E+03  0.18956969302E+03  0.00000000000E+00 0.  1.
         25    1    1    2    0    0  0.15617028406E+02  0.21101460792E+02 -0.14678707654E+02  0.12371187365E+03  0.12000000000E+03 0.  0.
         25    1    1    2    0    0 -0.15617028406E+02 -0.21101460792E+02 -0.89036420778E+02  0.15171238397E+03  0.12000000000E+03 0.  0.
<mgrwt>
<rscale>  0 0.25515034E+03</rscale>
<asrwt>0</asrwt>
<pdfrwt beam="1">  1        1 0.29164568E-01 0.25515034E+03</pdfrwt>
<pdfrwt beam="2">  1       -1 0.13208395E-01 0.25515034E+03</pdfrwt>
<totfact> 0.61089938E+03</totfact>
</mgrwt>
</event>
<event>
 4    1  0.1777979E-004  0.3021201E+03  0.7818608E-02  0.1084186E+00
          2   -1    0    0  501    0  0.00000000000E+00  0.00000000000E+00  0.15585293447E+03  0.15585293447E+03  0.00000000000E+00 0. -1.
         -2   -1    0    0    0  501 -0.00000000000E+00 -0.00000000000E+00 -0.14641455755E+03  0.14641455755E+03  0.00000000000E+00 0. -1.
         25    1    1    2    0    0  0.67609348436E+02  0.37158778678E+02  0.54415744263E+02  0.15268553321E+03  0.12000000000E+03 0.  0.
         25    1    1    2    0    0 -0.67609348436E+02 -0.37158778678E+02 -0.44977367343E+02  0.14958195881E+03  0.12000000000E+03 0.  0.
<mgrwt>
<rscale>  0 0.30212010E+03</rscale>
<asrwt>0</asrwt>
<pdfrwt beam="1">  1        2 0.23977375E-01 0.30212010E+03</pdfrwt>
<pdfrwt beam="2">  1       -2 0.22525317E-01 0.30212010E+03</pdfrwt>
<totfact> 0.38483721E+03</totfact>
</mgrwt>
</event>
<event>
 4    1  0.1777979E-004  0.2669684E+03  0.7818608E-02  0.1103027E+00
         -2   -1    0    0    0  501 -0.00000000000E+00  0.00000000000E+00  0.78677674606E+02  0.78677674606E+02  0.00000000000E+00 0. -1.
          2   -1    0    0  501    0  0.00000000000E+00 -0.00000000000E+00 -0.22646867357E+03  0.22646867357E+03  0.00000000000E+00 0. -1.
         25    1    1    2    0    0  0.41092200841E+02 -0.31403884503E+02 -0.10505693617E+03  0.16766553840E+03  0.12000000000E+03 0.  0.
         25    1    1    2    0    0 -0.41092200841E+02  0.31403884503E+02 -0.42734062795E+02  0.13748080977E+03  0.12000000000E+03 0.  0.
<mgrwt>
<rscale>  0 0.26696838E+03</rscale>
<asrwt>0</asrwt>
<pdfrwt beam="1">  1        2 0.34841334E-01 0.26696838E+03</pdfrwt>
<pdfrwt beam="2">  1       -2 0.12104258E-01 0.26696838E+03</pdfrwt>
<totfact> 0.71767230E+03</totfact>
</mgrwt>
</event>
<event>
 4    1  0.1777979E-004  0.2647602E+03  0.7818608E-02  0.1104316E+00
          1   -1    0    0  501    0  0.00000000000E+00  0.00000000000E+00  0.81032787254E+02  0.81032787254E+02  0.00000000000E+00 0. -1.
         -1   -1    0    0    0  501 -0.00000000000E+00 -0.00000000000E+00 -0.21626414921E+03  0.21626414921E+03  0.00000000000E+00 0. -1.
         25    1    1    2    0    0  0.46180914860E+02  0.66316001378E+01 -0.10218600231E+03  0.16437345919E+03  0.12000000000E+03 0.  0.
         25    1    1    2    0    0 -0.46180914860E+02 -0.66316001378E+01 -0.33045359653E+02  0.13292347728E+03  0.12000000000E+03 0.  0.
<mgrwt>
<rscale>  0 0.26476017E+03</rscale>
<asrwt>0</asrwt>
<pdfrwt beam="1">  1        1 0.12466583E-01 0.26476017E+03</pdfrwt>
<pdfrwt beam="2">  1       -1 0.33271407E-01 0.26476017E+03</pdfrwt>
<totfact> 0.40439356E+03</totfact>
</mgrwt>
</event>
<event>
 4    1  0.1777979E-004  0.2433810E+03  0.7818608E-02  0.1117561E+00
          2   -1    0    0  501    0  0.00000000000E+00  0.00000000000E+00  0.18094235937E+04  0.18094235937E+04  0.00000000000E+00 0.  1.
         -2   -1    0    0    0  501 -0.00000000000E+00 -0.00000000000E+00 -0.81841400007E+01  0.81841400007E+01  0.00000000000E+00 0.  1.
         25    1    1    2    0    0  0.30042287049E+01 -0.19983416035E+02  0.89716733026E+03  0.90538256047E+03  0.12000000000E+03 0.  0.
         25    1    1    2    0    0 -0.30042287049E+01  0.19983416035E+02  0.90407212343E+03  0.91222517323E+03  0.12000000000E+03 0.  0.
<mgrwt>
<rscale>  0 0.24338099E+03</rscale>
<asrwt>0</asrwt>
<pdfrwt beam="1">  1        2 0.27837254E+00 0.24338099E+03</pdfrwt>
<pdfrwt beam="2">  1       -2 0.12590999E-02 0.24338099E+03</pdfrwt>
<totfact> 0.14210573E+04</totfact>
</mgrwt>
</event>
<event>
 4    1  0.1777979E-004  0.2757451E+03  0.7818608E-02  0.1098036E+00
          2   -1    0    0  501    0  0.00000000000E+00  0.00000000000E+00  0.10192496104E+04  0.10192496104E+04  0.00000000000E+00 0. -1.
         -2   -1    0    0    0  501 -0.00000000000E+00 -0.00000000000E+00 -0.18649839374E+02  0.18649839374E+02  0.00000000000E+00 0. -1.
         25    1    1    2    0    0  0.34476805979E+02 -0.41350178664E+02  0.34463506462E+03  0.36887913358E+03  0.12000000000E+03 0.  0.
         25    1    1    2    0    0 -0.34476805979E+02  0.41350178664E+02  0.65596470637E+03  0.66902031616E+03  0.12000000000E+03 0.  0.
<mgrwt>
<rscale>  0 0.27574511E+03</rscale>
<asrwt>0</asrwt>
<pdfrwt beam="1">  1        2 0.15680759E+00 0.27574511E+03</pdfrwt>
<pdfrwt beam="2">  1       -2 0.28692069E-02 0.27574511E+03</pdfrwt>
<totfact> 0.11540956E+04</totfact>
</mgrwt>
</event>
<event>
 4    1  0.1777979E-004  0.2698512E+03  0.7818608E-02  0.1101365E+00
          3   -1    0    0  501    0  0.00000000000E+00  0.00000000000E+00  0.78490499195E+02  0.78490499195E+02  0.00000000000E+00 0.  1.
         -3   -1    0    0    0  501 -0.00000000000E+00 -0.00000000000E+00 -0.23193790361E+03  0.23193790361E+03  0.00000000000E+00 0.  1.
         25    1    1    2    0    0  0.54220744587E+01 -0.60861824403E+02 -0.86441510951E+02  0.16001779706E+03  0.12000000000E+03 0.  0.
         25    1    1    2    0    0 -0.54220744587E+01  0.60861824403E+02 -0.67005893463E+02  0.15041060574E+03  0.12000000000E+03 0.  0.
<mgrwt>
<rscale>  0 0.26985123E+03</rscale>
<asrwt>0</asrwt>
<pdfrwt beam="1">  1        3 0.12075462E-01 0.26985123E+03</pdfrwt>
<pdfrwt beam="2">  1       -3 0.35682754E-01 0.26985123E+03</pdfrwt>
<totfact> 0.10558270E+03</totfact>
</mgrwt>
</event>
<event>
 4    1  0.1777979E-004  0.5019368E+03  0.7818608E-02  0.1013275E+00
          1   -1    0    0  501    0  0.00000000000E+00  0.00000000000E+00  0.11869431003E+04  0.11869431003E+04  0.00000000000E+00 0.  1.
         -1   -1    0    0    0  501 -0.00000000000E+00 -0.00000000000E+00 -0.53065008744E+02  0.53065008744E+02  0.00000000000E+00 0.  1.
         25    1    1    2    0    0  0.67761220229E+02 -0.64637538270E+01  0.10848602691E+04  0.10935973512E+04  0.12000000000E+03 0.  0.
         25    1    1    2    0    0 -0.67761220229E+02  0.64637538270E+01  0.49017822387E+02  0.14641075777E+03  0.12000000000E+03 0.  0.
<mgrwt>
<rscale>  0 0.50193683E+03</rscale>
<asrwt>0</asrwt>
<pdfrwt beam="1">  1        1 0.18260661E+00 0.50193683E+03</pdfrwt>
<pdfrwt beam="2">  1       -1 0.81638484E-02 0.50193683E+03</pdfrwt>
<totfact> 0.96747117E+02</totfact>
</mgrwt>
</event>
<event>
 4    1  0.1777979E-004  0.3182212E+03  0.7818608E-02  0.1076471E+00
          3   -1    0    0  501    0  0.00000000000E+00  0.00000000000E+00  0.47908955126E+02  0.47908955126E+02  0.00000000000E+00 0.  1.
         -3   -1    0    0    0  501 -0.00000000000E+00 -0.00000000000E+00 -0.52842265456E+03  0.52842265456E+03  0.00000000000E+00 0.  1.
         25    1    1    2    0    0  0.56740817769E+02 -0.81429039294E+02 -0.18112580580E+03  0.23886558222E+03  0.12000000000E+03 0.  0.
         25    1    1    2    0    0 -0.56740817769E+02  0.81429039294E+02 -0.29938789364E+03  0.33746602747E+03  0.12000000000E+03 0.  0.
<mgrwt>
<rscale>  0 0.31822116E+03</rscale>
<asrwt>0</asrwt>
<pdfrwt beam="1">  1        3 0.73706081E-02 0.31822116E+03</pdfrwt>
<pdfrwt beam="2">  1       -3 0.81295797E-01 0.31822116E+03</pdfrwt>
<totfact> 0.45105345E+02</totfact>
</mgrwt>
</event>
<event>
 4    1  0.1777979E-004  0.3540063E+03  0.7818608E-02  0.1060983E+00
         -2   -1    0    0    0  501 -0.00000000000E+00  0.00000000000E+00  0.17464549773E+03  0.17464549773E+03  0.00000000000E+00 0.  1.
          2   -1    0    0  501    0  0.00000000000E+00 -0.00000000000E+00 -0.17939259953E+03  0.17939259953E+03  0.00000000000E+00 0.  1.
         25    1    1    2    0    0 -0.11800841029E+03 -0.40770432984E+02 -0.39008752933E+02  0.17751026987E+03  0.12000000000E+03 0.  0.
         25    1    1    2    0    0  0.11800841029E+03  0.40770432984E+02  0.34261651131E+02  0.17652782739E+03  0.12000000000E+03 0.  0.
<mgrwt>
<rscale>  0 0.35400627E+03</rscale>
<asrwt>0</asrwt>
<pdfrwt beam="1">  1        2 0.27598861E-01 0.35400627E+03</pdfrwt>
<pdfrwt beam="2">  1       -2 0.26868538E-01 0.35400627E+03</pdfrwt>
<totfact> 0.24155444E+03</totfact>
</mgrwt>
</event>
<event>
 4    1  0.1777979E-004  0.3762132E+03  0.7818608E-02  0.1052342E+00
          1   -1    0    0  501    0  0.00000000000E+00  0.00000000000E+00  0.10819423683E+04  0.10819423683E+04  0.00000000000E+00 0.  1.
         -1   -1    0    0    0  501 -0.00000000000E+00 -0.00000000000E+00 -0.32704230218E+02  0.32704230218E+02  0.00000000000E+00 0.  1.
         25    1    1    2    0    0  0.11841187276E+03  0.39821698726E+02  0.30736331388E+03  0.35281630634E+03  0.12000000000E+03 0.  0.
         25    1    1    2    0    0 -0.11841187276E+03 -0.39821698726E+02  0.74187482423E+03  0.76183029220E+03  0.12000000000E+03 0.  0.
<mgrwt>
<rscale>  0 0.37621320E+03</rscale>
<asrwt>0</asrwt>
<pdfrwt beam="1">  1        1 0.16645264E+00 0.37621320E+03</pdfrwt>
<pdfrwt beam="2">  1       -1 0.50314209E-02 0.37621320E+03</pdfrwt>
<totfact> 0.24285361E+03</totfact>
</mgrwt>
</event>
<event>
 4    1  0.1777979E-004  0.2822691E+03  0.7818608E-02  0.1094456E+00
         -2   -1    0    0    0  501 -0.00000000000E+00  0.00000000000E+00  0.73953818680E+01  0.73953818680E+01  0.00000000000E+00 0. -1.
          2   -1    0    0  501    0  0.00000000000E+00 -0.00000000000E+00 -0.26934323128E+04  0.26934323128E+04  0.00000000000E+00 0. -1.
         25    1    1    2    0    0 -0.17542004152E+01 -0.28524531857E+02 -0.68689483013E+03  0.69788339556E+03  0.12000000000E+03 0.  0.
         25    1    1    2    0    0  0.17542004152E+01  0.28524531857E+02 -0.19991421008E+04  0.20029442991E+04  0.12000000000E+03 0.  0.
<mgrwt>
<rscale>  0 0.28226909E+03</rscale>
<asrwt>0</asrwt>
<pdfrwt beam="1">  1        2 0.41437383E+00 0.28226909E+03</pdfrwt>
<pdfrwt beam="2">  1       -2 0.11377521E-02 0.28226909E+03</pdfrwt>
<totfact> 0.55321285E+03</totfact>
</mgrwt>
</event>
<event>
 4    1  0.1777979E-004  0.2921711E+03  0.7818608E-02  0.1089221E+00
          1   -1    0    0  501    0  0.00000000000E+00  0.00000000000E+00  0.34593223054E+02  0.34593223054E+02  0.00000000000E+00 0. -1.
         -1   -1    0    0    0  501 -0.00000000000E+00 -0.00000000000E+00 -0.61691241181E+03  0.61691241181E+03  0.00000000000E+00 0. -1.
         25    1    1    2    0    0 -0.59899108088E+02 -0.52043312992E+02 -0.23454622286E+03  0.27515148598E+03  0.12000000000E+03 0.  0.
         25    1    1    2    0    0  0.59899108088E+02  0.52043312992E+02 -0.34777296590E+03  0.37635414889E+03  0.12000000000E+03 0.  0.
<mgrwt>
<rscale>  0 0.29217111E+03</rscale>
<asrwt>0</asrwt>
<pdfrwt beam="1">  1        1 0.53220347E-02 0.29217111E+03</pdfrwt>
<pdfrwt beam="2">  1       -1 0.94909595E-01 0.29217111E+03</pdfrwt>
<totfact> 0.17280172E+03</totfact>
</mgrwt>
</event>
<event>
 4    1  0.1777979E-004  0.2609256E+03  0.7818608E-02  0.1106588E+00
         -2   -1    0    0    0  501 -0.00000000000E+00  0.00000000000E+00  0.18362490295E+02  0.18362490295E+02  0.00000000000E+00 0. -1.
          2   -1    0    0  501    0  0.00000000000E+00 -0.00000000000E+00 -0.92691939142E+03  0.92691939142E+03  0.00000000000E+00 0. -1.
         25    1    1    2    0    0 -0.32213610679E+02 -0.33998216091E+02 -0.37942108170E+03  0.40069184250E+03  0.12000000000E+03 0.  0.
         25    1    1    2    0    0  0.32213610679E+02  0.33998216091E+02 -0.52913581943E+03  0.54459003922E+03  0.12000000000E+03 0.  0.
<mgrwt>
<rscale>  0 0.26092565E+03</rscale>
<asrwt>0</asrwt>
<pdfrwt beam="1">  1        2 0.14260295E+00 0.26092565E+03</pdfrwt>
<pdfrwt beam="2">  1       -2 0.28249991E-02 0.26092565E+03</pdfrwt>
<totfact> 0.13449796E+04</totfact>
</mgrwt>
</event>
<event>
 4    1  0.1777979E-004  0.3213048E+03  0.7818608E-02  0.1075050E+00
          2   -1    0    0  501    0  0.00000000000E+00  0.00000000000E+00  0.15690844545E+04  0.15690844545E+04  0.00000000000E+00 0.  1.
         -2   -1    0    0    0  501 -0.00000000000E+00 -0.00000000000E+00 -0.16448565869E+02  0.16448565869E+02  0.00000000000E+00 0.  1.
         25    1    1    2    0    0 -0.39074681266E+02 -0.18074857556E+02  0.29393892410E+03  0.32039603976E+03  0.12000000000E+03 0.  0.
         25    1    1    2    0    0  0.39074681266E+02  0.18074857556E+02  0.12586969646E+04  0.12651369806E+04  0.12000000000E+03 0.  0.
<mgrwt>
<rscale>  0 0.32130477E+03</rscale>
<asrwt>0</asrwt>
<pdfrwt beam="1">  1        2 0.24139749E+00 0.32130477E+03</pdfrwt>
<pdfrwt beam="2">  1       -2 0.25305498E-02 0.32130477E+03</pdfrwt>
<totfact> 0.68549319E+03</totfact>
</mgrwt>
</event>
<event>
 4    1  0.1777979E-004  0.3117418E+03  0.7818608E-02  0.1079514E+00
         -1   -1    0    0    0  501 -0.00000000000E+00  0.00000000000E+00  0.38835281289E+02  0.38835281289E+02  0.00000000000E+00 0.  1.
          1   -1    0    0  501    0  0.00000000000E+00 -0.00000000000E+00 -0.62561004745E+03  0.62561004745E+03  0.00000000000E+00 0.  1.
         25    1    1    2    0    0  0.78772921273E+02 -0.54172973839E+02 -0.35198558154E+03  0.38397100650E+03  0.12000000000E+03 0.  0.
         25    1    1    2    0    0 -0.78772921273E+02  0.54172973839E+02 -0.23478918462E+03  0.28047432224E+03  0.12000000000E+03 0.  0.
<mgrwt>
<rscale>  0 0.31174183E+03</rscale>
<asrwt>0</asrwt>
<pdfrwt beam="1">  1        1 0.96247696E-01 0.31174183E+03</pdfrwt>
<pdfrwt beam="2">  1       -1 0.59746589E-02 0.31174183E+03</pdfrwt>
<totfact> 0.44622434E+03</totfact>
</mgrwt>
</event>
<event>
 4    1  0.1777979E-004  0.3189914E+03  0.7818608E-02  0.1076114E+00
          1   -1    0    0  501    0  0.00000000000E+00  0.00000000000E+00  0.14268179564E+03  0.14268179564E+03  0.00000000000E+00 0. -1.
         -1   -1    0    0    0  501 -0.00000000000E+00 -0.00000000000E+00 -0.17829104117E+03  0.17829104117E+03  0.00000000000E+00 0. -1.
         25    1    1    2    0    0 -0.16854328716E+02  0.94977059639E+02 -0.59706722163E+02  0.16513510507E+03  0.12000000000E+03 0.  0.
         25    1    1    2    0    0  0.16854328716E+02 -0.94977059639E+02  0.24097476641E+02  0.15583773174E+03  0.12000000000E+03 0.  0.
<mgrwt>
<rscale>  0 0.31899145E+03</rscale>
<asrwt>0</asrwt>
<pdfrwt beam="1">  1        1 0.21951045E-01 0.31899145E+03</pdfrwt>
<pdfrwt beam="2">  1       -1 0.27429391E-01 0.31899145E+03</pdfrwt>
<totfact> 0.26964966E+03</totfact>
</mgrwt>
</event>
<event>
 4    1  0.1777979E-004  0.3028466E+03  0.7818608E-02  0.1083826E+00
         -2   -1    0    0    0  501 -0.00000000000E+00  0.00000000000E+00  0.72320081657E+03  0.72320081657E+03  0.00000000000E+00 0. -1.
          2   -1    0    0  501    0  0.00000000000E+00 -0.00000000000E+00 -0.31704914580E+02  0.31704914580E+02  0.00000000000E+00 0. -1.
         25    1    1    2    0    0  0.18827184455E+02 -0.29135437958E+02  0.13239725954E+03  0.18202299567E+03  0.12000000000E+03 0.  0.
         25    1    1    2    0    0 -0.18827184455E+02  0.29135437958E+02  0.55909864244E+03  0.57288273547E+03  0.12000000000E+03 0.  0.
<mgrwt>
<rscale>  0 0.30284663E+03</rscale>
<asrwt>0</asrwt>
<pdfrwt beam="1">  1        2 0.48776797E-02 0.30284663E+03</pdfrwt>
<pdfrwt beam="2">  1       -2 0.11126165E+00 0.30284663E+03</pdfrwt>
<totfact> 0.10854460E+03</totfact>
</mgrwt>
</event>
<event>
 4    1  0.1777979E-004  0.3804743E+03  0.7818608E-02  0.1050759E+00
          2   -1    0    0  501    0  0.00000000000E+00  0.00000000000E+00  0.36537826173E+03  0.36537826173E+03  0.00000000000E+00 0. -1.
         -2   -1    0    0    0  501 -0.00000000000E+00 -0.00000000000E+00 -0.99048489352E+02  0.99048489352E+02  0.00000000000E+00 0. -1.
         25    1    1    2    0    0  0.19442351451E+02  0.79765968268E+02  0.28291036194E+03  0.31808628958E+03  0.12000000000E+03 0.  0.
         25    1    1    2    0    0 -0.19442351451E+02 -0.79765968268E+02 -0.16580589562E+02  0.14634046151E+03  0.12000000000E+03 0.  0.
<mgrwt>
<rscale>  0 0.38047426E+03</rscale>
<asrwt>0</asrwt>
<pdfrwt beam="1">  1        2 0.56212040E-01 0.38047426E+03</pdfrwt>
<pdfrwt beam="2">  1       -2 0.15238229E-01 0.38047426E+03</pdfrwt>
<totfact> 0.29559405E+03</totfact>
</mgrwt>
</event>
<event>
 4    1  0.1777979E-004  0.2425305E+03  0.7818608E-02  0.1118118E+00
         -2   -1    0    0    0  501 -0.00000000000E+00  0.00000000000E+00  0.24298815701E+04  0.24298815701E+04  0.00000000000E+00 0.  1.
          2   -1    0    0  501    0  0.00000000000E+00 -0.00000000000E+00 -0.60518416443E+01  0.60518416443E+01  0.00000000000E+00 0.  1.
         25    1    1    2    0    0 -0.14097131950E+01  0.43696808922E+00  0.13867698015E+04  0.13919528227E+04  0.12000000000E+03 0.  0.
         25    1    1    2    0    0  0.14097131950E+01 -0.43696808922E+00  0.10370599269E+04  0.10439805890E+04  0.12000000000E+03 0.  0.
<mgrwt>
<rscale>  0 0.24253048E+03</rscale>
<asrwt>0</asrwt>
<pdfrwt beam="1">  1        2 0.93105450E-03 0.24253048E+03</pdfrwt>
<pdfrwt beam="2">  1       -2 0.37382715E+00 0.24253048E+03</pdfrwt>
<totfact> 0.21072931E+02</totfact>
</mgrwt>
</event>
<event>
 4    1  0.1777979E-004  0.2891113E+03  0.7818608E-02  0.1090814E+00
         -2   -1    0    0    0  501 -0.00000000000E+00  0.00000000000E+00  0.48218794713E+02  0.48218794713E+02  0.00000000000E+00 0. -1.
          2   -1    0    0  501    0  0.00000000000E+00 -0.00000000000E+00 -0.43336499666E+03  0.43336499666E+03  0.00000000000E+00 0. -1.
         25    1    1    2    0    0 -0.61601831832E+01 -0.80357680065E+02 -0.19426627069E+03  0.24214600664E+03  0.12000000000E+03 0.  0.
         25    1    1    2    0    0  0.61601831832E+01  0.80357680065E+02 -0.19087993125E+03  0.23943778473E+03  0.12000000000E+03 0.  0.
<mgrwt>
<rscale>  0 0.28911131E+03</rscale>
<asrwt>0</asrwt>
<pdfrwt beam="1">  1        2 0.66671538E-01 0.28911131E+03</pdfrwt>
<pdfrwt beam="2">  1       -2 0.74182761E-02 0.28911131E+03</pdfrwt>
<totfact> 0.77485178E+03</totfact>
</mgrwt>
</event>
<event>
 4    1  0.1777979E-004  0.2465508E+03  0.7818608E-02  0.1115504E+00
         -1   -1    0    0    0  501 -0.00000000000E+00  0.00000000000E+00  0.10038594025E+03  0.10038594025E+03  0.00000000000E+00 0.  1.
          1   -1    0    0  501    0  0.00000000000E+00 -0.00000000000E+00 -0.15138394086E+03  0.15138394086E+03  0.00000000000E+00 0.  1.
         25    1    1    2    0    0  0.22020819566E+02 -0.67397687948E+01 -0.42168721081E+02  0.12926152566E+03  0.12000000000E+03 0.  0.
         25    1    1    2    0    0 -0.22020819566E+02  0.67397687948E+01 -0.88292795268E+01  0.12250835545E+03  0.12000000000E+03 0.  0.
<mgrwt>
<rscale>  0 0.24655076E+03</rscale>
<asrwt>0</asrwt>
<pdfrwt beam="1">  1        1 0.23289837E-01 0.24655076E+03</pdfrwt>
<pdfrwt beam="2">  1       -1 0.15443991E-01 0.24655076E+03</pdfrwt>
<totfact> 0.63391545E+03</totfact>
</mgrwt>
</event>
<event>
 4    1  0.1777979E-004  0.2463754E+03  0.7818608E-02  0.1115617E+00
          2   -1    0    0  501    0  0.00000000000E+00  0.00000000000E+00  0.14152842067E+04  0.14152842067E+04  0.00000000000E+00 0. -1.
         -2   -1    0    0    0  501 -0.00000000000E+00 -0.00000000000E+00 -0.10722379559E+02  0.10722379559E+02  0.00000000000E+00 0. -1.
         25    1    1    2    0    0  0.17292501815E+02 -0.20711033046E+02  0.74206093264E+03  0.75218508711E+03  0.12000000000E+03 0.  0.
         25    1    1    2    0    0 -0.17292501815E+02  0.20711033046E+02  0.66250089446E+03  0.67382149912E+03  0.12000000000E+03 0.  0.
<mgrwt>
<rscale>  0 0.24637544E+03</rscale>
<asrwt>0</asrwt>
<pdfrwt beam="1">  1        2 0.21773588E+00 0.24637544E+03</pdfrwt>
<pdfrwt beam="2">  1       -2 0.16495980E-02 0.24637544E+03</pdfrwt>
<totfact> 0.15490957E+04</totfact>
</mgrwt>
</event>
<event>
 4    1  0.1777979E-004  0.3180720E+03  0.7818608E-02  0.1076540E+00
         -1   -1    0    0    0  501 -0.00000000000E+00  0.00000000000E+00  0.31946343032E+03  0.31946343032E+03  0.00000000000E+00 0. -1.
          1   -1    0    0  501    0  0.00000000000E+00 -0.00000000000E+00 -0.79171678803E+02  0.79171678803E+02  0.00000000000E+00 0. -1.
         25    1    1    2    0    0 -0.29378254119E+02 -0.96159422192E+02  0.85082093794E+02  0.17818158989E+03  0.12000000000E+03 0.  0.
         25    1    1    2    0    0  0.29378254119E+02  0.96159422192E+02  0.15520965772E+03  0.22045351923E+03  0.12000000000E+03 0.  0.
<mgrwt>
<rscale>  0 0.31807204E+03</rscale>
<asrwt>0</asrwt>
<pdfrwt beam="1">  1        1 0.12180258E-01 0.31807204E+03</pdfrwt>
<pdfrwt beam="2">  1       -1 0.49148219E-01 0.31807204E+03</pdfrwt>
<totfact> 0.20892112E+03</totfact>
</mgrwt>
</event>
<event>
 4    1  0.1777979E-004  0.2759087E+03  0.7818608E-02  0.1097945E+00
          1   -1    0    0  501    0  0.00000000000E+00  0.00000000000E+00  0.71664690910E+03  0.71664690910E+03  0.00000000000E+00 0.  1.
         -1   -1    0    0    0  501 -0.00000000000E+00 -0.00000000000E+00 -0.26556170863E+02  0.26556170863E+02  0.00000000000E+00 0.  1.
         25    1    1    2    0    0 -0.11721906631E+02  0.12543717303E+02  0.16765936950E+03  0.20689227177E+03  0.12000000000E+03 0.  0.
         25    1    1    2    0    0  0.11721906631E+02 -0.12543717303E+02  0.52243136874E+03  0.53631080819E+03  0.12000000000E+03 0.  0.
<mgrwt>
<rscale>  0 0.27590866E+03</rscale>
<asrwt>0</asrwt>
<pdfrwt beam="1">  1        1 0.11025336E+00 0.27590866E+03</pdfrwt>
<pdfrwt beam="2">  1       -1 0.40855653E-02 0.27590866E+03</pdfrwt>
<totfact> 0.64714210E+03</totfact>
</mgrwt>
</event>
<event>
 4    1  0.1777979E-004  0.2828478E+03  0.7818608E-02  0.1094144E+00
         -1   -1    0    0    0  501 -0.00000000000E+00  0.00000000000E+00  0.14711055487E+03  0.14711055487E+03  0.00000000000E+00 0. -1.
          1   -1    0    0  501    0  0.00000000000E+00 -0.00000000000E+00 -0.13595709345E+03  0.13595709345E+03  0.00000000000E+00 0. -1.
         25    1    1    2    0    0  0.18873342466E+02 -0.56208875161E+02  0.51274924672E+02  0.14333442923E+03  0.12000000000E+03 0.  0.
         25    1    1    2    0    0 -0.18873342466E+02  0.56208875161E+02 -0.40121463255E+02  0.13973321909E+03  0.12000000000E+03 0.  0.
<mgrwt>
<rscale>  0 0.28284783E+03</rscale>
<asrwt>0</asrwt>
<pdfrwt beam="1">  1        1 0.20916476E-01 0.28284783E+03</pdfrwt>
<pdfrwt beam="2">  1       -1 0.22632393E-01 0.28284783E+03</pdfrwt>
<totfact> 0.39424835E+03</totfact>
</mgrwt>
</event>
<event>
 4    1  0.1777979E-004  0.3034037E+03  0.7818608E-02  0.1083551E+00
          1   -1    0    0  501    0  0.00000000000E+00  0.00000000000E+00  0.29917146974E+02  0.29917146974E+02  0.00000000000E+00 0. -1.
         -1   -1    0    0    0  501 -0.00000000000E+00 -0.00000000000E+00 -0.76923961548E+03  0.76923961548E+03  0.00000000000E+00 0. -1.
         25    1    1    2    0    0  0.90508399179E+02  0.63886240924E+01 -0.42106552134E+03  0.44713393754E+03  0.12000000000E+03 0.  0.
         25    1    1    2    0    0 -0.90508399179E+02 -0.63886240924E+01 -0.31825694717E+03  0.35202282492E+03  0.12000000000E+03 0.  0.
<mgrwt>
<rscale>  0 0.30340372E+03</rscale>
<asrwt>0</asrwt>
<pdfrwt beam="1">  1        1 0.46026375E-02 0.30340372E+03</pdfrwt>
<pdfrwt beam="2">  1       -1 0.11834457E+00 0.30340372E+03</pdfrwt>
<totfact> 0.12794015E+03</totfact>
</mgrwt>
</event>
<event>
 4    1  0.1777979E-004  0.3100657E+03  0.7818608E-02  0.1080314E+00
         -1   -1    0    0    0  501 -0.00000000000E+00  0.00000000000E+00  0.36754541274E+03  0.36754541274E+03  0.00000000000E+00 0.  1.
          1   -1    0    0  501    0  0.00000000000E+00 -0.00000000000E+00 -0.65393787263E+02  0.65393787263E+02  0.00000000000E+00 0.  1.
         25    1    1    2    0    0  0.41833658156E+02  0.53714624883E+02  0.24980658878E+03  0.28537457434E+03  0.12000000000E+03 0.  0.
         25    1    1    2    0    0 -0.41833658156E+02 -0.53714624883E+02  0.52345036700E+02  0.14756462567E+03  0.12000000000E+03 0.  0.
<mgrwt>
<rscale>  0 0.31006571E+03</rscale>
<asrwt>0</asrwt>
<pdfrwt beam="1">  1        1 0.10060583E-01 0.31006571E+03</pdfrwt>
<pdfrwt beam="2">  1       -1 0.56545446E-01 0.31006571E+03</pdfrwt>
<totfact> 0.20750154E+03</totfact>
</mgrwt>
</event>
<event>
 4    1  0.1777979E-004  0.3400822E+03  0.7818608E-02  0.1066761E+00
         -4   -1    0    0    0  501 -0.00000000000E+00  0.00000000000E+00  0.20980434327E+03  0.20980434327E+03  0.00000000000E+00 0.  1.
          4   -1    0    0  501    0  0.00000000000E+00 -0.00000000000E+00 -0.13781399729E+03  0.13781399729E+03  0.00000000000E+00 0.  1.
         25    1    1    2    0    0 -0.13432091629E+02 -0.95056596431E+02 -0.38403718509E+02  0.15840146213E+03  0.12000000000E+03 0.  0.
         25    1    1    2    0    0  0.13432091629E+02  0.95056596431E+02  0.11039406449E+03  0.18921687844E+03  0.12000000000E+03 0.  0.
<mgrwt>
<rscale>  0 0.34008220E+03</rscale>
<asrwt>0</asrwt>
<pdfrwt beam="1">  1        4 0.21202153E-01 0.34008220E+03</pdfrwt>
<pdfrwt beam="2">  1       -4 0.32277591E-01 0.34008220E+03</pdfrwt>
<totfact> 0.36005730E+02</totfact>
</mgrwt>
</event>
<event>
 4    1  0.1777979E-004  0.3854133E+03  0.7818608E-02  0.1048951E+00
         -1   -1    0    0    0  501 -0.00000000000E+00  0.00000000000E+00  0.12055146529E+03  0.12055146529E+03  0.00000000000E+00 0.  1.
          1   -1    0    0  501    0  0.00000000000E+00 -0.00000000000E+00 -0.30804979917E+03  0.30804979917E+03  0.00000000000E+00 0.  1.
         25    1    1    2    0    0 -0.55024203035E+02  0.10690431269E+03 -0.19493809231E+03  0.25856731198E+03  0.12000000000E+03 0.  0.
         25    1    1    2    0    0  0.55024203035E+02 -0.10690431269E+03  0.74397584279E+01  0.17003395248E+03  0.12000000000E+03 0.  0.
<mgrwt>
<rscale>  0 0.38541331E+03</rscale>
<asrwt>0</asrwt>
<pdfrwt beam="1">  1        1 0.47392276E-01 0.38541331E+03</pdfrwt>
<pdfrwt beam="2">  1       -1 0.18546379E-01 0.38541331E+03</pdfrwt>
<totfact> 0.19414973E+03</totfact>
</mgrwt>
</event>
<event>
 4    1  0.1777979E-004  0.3221564E+03  0.7818608E-02  0.1074661E+00
          2   -1    0    0  501    0  0.00000000000E+00  0.00000000000E+00  0.25247148569E+03  0.25247148569E+03  0.00000000000E+00 0.  1.
         -2   -1    0    0    0  501 -0.00000000000E+00 -0.00000000000E+00 -0.10276875172E+03  0.10276875172E+03  0.00000000000E+00 0.  1.
         25    1    1    2    0    0  0.40780788401E+02  0.58323142484E+02 -0.13924271740E+02  0.14020894050E+03  0.12000000000E+03 0.  0.
         25    1    1    2    0    0 -0.40780788401E+02 -0.58323142484E+02  0.16362700571E+03  0.21503129691E+03  0.12000000000E+03 0.  0.
<mgrwt>
<rscale>  0 0.32215636E+03</rscale>
<asrwt>0</asrwt>
<pdfrwt beam="1">  1        2 0.38841767E-01 0.32215636E+03</pdfrwt>
<pdfrwt beam="2">  1       -2 0.15810577E-01 0.32215636E+03</pdfrwt>
<totfact> 0.41390672E+03</totfact>
</mgrwt>
</event>
<event>
 4    1  0.1777979E-004  0.3709042E+03  0.7818608E-02  0.1054348E+00
         -1   -1    0    0    0  501 -0.00000000000E+00  0.00000000000E+00  0.36932163766E+02  0.36932163766E+02  0.00000000000E+00 0. -1.
          1   -1    0    0  501    0  0.00000000000E+00 -0.00000000000E+00 -0.93123366654E+03  0.93123366654E+03  0.00000000000E+00 0. -1.
         25    1    1    2    0    0 -0.12469988031E+03 -0.60625679986E+02 -0.51943922213E+03  0.55085627773E+03  0.12000000000E+03 0.  0.
         25    1    1    2    0    0  0.12469988031E+03  0.60625679986E+02 -0.37486228064E+03  0.41730955258E+03  0.12000000000E+03 0.  0.
<mgrwt>
<rscale>  0 0.37090416E+03</rscale>
<asrwt>0</asrwt>
<pdfrwt beam="1">  1        1 0.14326671E+00 0.37090416E+03</pdfrwt>
<pdfrwt beam="2">  1       -1 0.56818718E-02 0.37090416E+03</pdfrwt>
<totfact> 0.26259686E+03</totfact>
</mgrwt>
</event>
<event>
 4    1  0.1777979E-004  0.3592612E+03  0.7818608E-02  0.1058877E+00
          2   -1    0    0  501    0  0.00000000000E+00  0.00000000000E+00  0.82682872526E+03  0.82682872526E+03  0.00000000000E+00 0.  1.
         -2   -1    0    0    0  501 -0.00000000000E+00 -0.00000000000E+00 -0.39025190217E+02  0.39025190217E+02  0.00000000000E+00 0.  1.
         25    1    1    2    0    0 -0.91787278408E+02 -0.26727947296E+02  0.61906021146E+03  0.63778901923E+03  0.12000000000E+03 0.  0.
         25    1    1    2    0    0  0.91787278408E+02  0.26727947296E+02  0.16874332359E+03  0.22806489625E+03  0.12000000000E+03 0.  0.
<mgrwt>
<rscale>  0 0.35926118E+03</rscale>
<asrwt>0</asrwt>
<pdfrwt beam="1">  1        2 0.12720441E+00 0.35926118E+03</pdfrwt>
<pdfrwt beam="2">  1       -2 0.60038760E-02 0.35926118E+03</pdfrwt>
<totfact> 0.50489038E+03</totfact>
</mgrwt>
</event>
<event>
 4    1  0.1777979E-004  0.2906079E+03  0.7818608E-02  0.1090032E+00
          1   -1    0    0  501    0  0.00000000000E+00  0.00000000000E+00  0.93959769488E+02  0.93959769488E+02  0.00000000000E+00 0.  1.
         -1   -1    0    0    0  501 -0.00000000000E+00 -0.00000000000E+00 -0.22470510955E+03  0.22470510955E+03  0.00000000000E+00 0.  1.
         25    1    1    2    0    0 -0.35260372351E+02 -0.19846186121E+02  0.12752466578E+02  0.12727839709E+03  0.12000000000E+03 0.  0.
         25    1    1    2    0    0  0.35260372351E+02  0.19846186121E+02 -0.14349780664E+03  0.19138648194E+03  0.12000000000E+03 0.  0.
<mgrwt>
<rscale>  0 0.29060792E+03</rscale>
<asrwt>0</asrwt>
<pdfrwt beam="1">  1        1 0.14455349E-01 0.29060792E+03</pdfrwt>
<pdfrwt beam="2">  1       -1 0.34570017E-01 0.29060792E+03</pdfrwt>
<totfact> 0.31202093E+03</totfact>
</mgrwt>
</event>
<event>
 4    1  0.1777979E-004  0.3121183E+03  0.7818608E-02  0.1079335E+00
          2   -1    0    0  501    0  0.00000000000E+00  0.00000000000E+00  0.30075463966E+03  0.30075463966E+03  0.00000000000E+00 0.  1.
         -2   -1    0    0    0  501 -0.00000000000E+00 -0.00000000000E+00 -0.80977830468E+02  0.80977830468E+02  0.00000000000E+00 0.  1.
         25    1    1    2    0    0 -0.61025511344E+02  0.78876354414E+02  0.11353008096E+03  0.19296287623E+03  0.12000000000E+03 0.  0.
         25    1    1    2    0    0  0.61025511344E+02 -0.78876354414E+02  0.10624672823E+03  0.18876959390E+03  0.12000000000E+03 0.  0.
<mgrwt>
<rscale>  0 0.31211830E+03</rscale>
<asrwt>0</asrwt>
<pdfrwt beam="1">  1        2 0.46269944E-01 0.31211830E+03</pdfrwt>
<pdfrwt beam="2">  1       -2 0.12458128E-01 0.31211830E+03</pdfrwt>
<totfact> 0.50666856E+03</totfact>
</mgrwt>
</event>
<event>
 4    1  0.1777979E-004  0.4411813E+03  0.7818608E-02  0.1030385E+00
          2   -1    0    0  501    0  0.00000000000E+00  0.00000000000E+00  0.18377428021E+04  0.18377428021E+04  0.00000000000E+00 0. -1.
         -2   -1    0    0    0  501 -0.00000000000E+00 -0.00000000000E+00 -0.26478259039E+02  0.26478259039E+02  0.00000000000E+00 0. -1.
         25    1    1    2    0    0  0.10215620100E+03 -0.10705524128E+03  0.13754737251E+04  0.13886053012E+04  0.12000000000E+03 0.  0.
         25    1    1    2    0    0 -0.10215620100E+03  0.10705524128E+03  0.43579081804E+03  0.47561576001E+03  0.12000000000E+03 0.  0.
<mgrwt>
<rscale>  0 0.44118128E+03</rscale>
<asrwt>0</asrwt>
<pdfrwt beam="1">  1        2 0.28272956E+00 0.44118128E+03</pdfrwt>
<pdfrwt beam="2">  1       -2 0.40735798E-02 0.44118128E+03</pdfrwt>
<totfact> 0.24017876E+03</totfact>
</mgrwt>
</event>
<event>
 4    1  0.1777979E-004  0.3201527E+03  0.7818608E-02  0.1075579E+00
         -1   -1    0    0    0  501 -0.00000000000E+00  0.00000000000E+00  0.65066818436E+03  0.65066818436E+03  0.00000000000E+00 0.  1.
          1   -1    0    0  501    0  0.00000000000E+00 -0.00000000000E+00 -0.39381725312E+02  0.39381725312E+02  0.00000000000E+00 0.  1.
         25    1    1    2    0    0  0.11591809855E+02 -0.10331979612E+03  0.26173033437E+03  0.30612435096E+03  0.12000000000E+03 0.  0.
         25    1    1    2    0    0 -0.11591809855E+02  0.10331979612E+03  0.34955612468E+03  0.38392555871E+03  0.12000000000E+03 0.  0.
<mgrwt>
<rscale>  0 0.32015269E+03</rscale>
<asrwt>0</asrwt>
<pdfrwt beam="1">  1        1 0.60587275E-02 0.32015269E+03</pdfrwt>
<pdfrwt beam="2">  1       -1 0.10010279E+00 0.32015269E+03</pdfrwt>
<totfact> 0.12850184E+03</totfact>
</mgrwt>
</event>
<event>
 4    1  0.1777979E-004  0.3165348E+03  0.7818608E-02  0.1077255E+00
          2   -1    0    0  501    0  0.00000000000E+00  0.00000000000E+00  0.14049081549E+03  0.14049081549E+03  0.00000000000E+00 0.  1.
         -2   -1    0    0    0  501 -0.00000000000E+00 -0.00000000000E+00 -0.17829324013E+03  0.17829324013E+03  0.00000000000E+00 0.  1.
         25    1    1    2    0    0 -0.11589986867E+02  0.70044637311E+02  0.56517404178E+02  0.15044864900E+03  0.12000000000E+03 0.  0.
         25    1    1    2    0    0  0.11589986867E+02 -0.70044637311E+02 -0.94319828823E+02  0.16833540662E+03  0.12000000000E+03 0.  0.
<mgrwt>
<rscale>  0 0.31653475E+03</rscale>
<asrwt>0</asrwt>
<pdfrwt beam="1">  1        2 0.21613972E-01 0.31653475E+03</pdfrwt>
<pdfrwt beam="2">  1       -2 0.27429729E-01 0.31653475E+03</pdfrwt>
<totfact> 0.30589672E+03</totfact>
</mgrwt>
</event>
<event>
 4    1  0.1777979E-004  0.2864477E+03  0.7818608E-02  0.1092219E+00
          2   -1    0    0  501    0  0.00000000000E+00  0.00000000000E+00  0.69809794905E+03  0.69809794905E+03  0.00000000000E+00 0. -1.
         -2   -1    0    0    0  501 -0.00000000000E+00 -0.00000000000E+00 -0.29384222581E+02  0.29384222581E+02  0.00000000000E+00 0. -1.
         25    1    1    2    0    0  0.32083837565E+02  0.64271365985E+02  0.41275345524E+03  0.43580453867E+03  0.12000000000E+03 0.  0.
         25    1    1    2    0    0 -0.32083837565E+02 -0.64271365985E+02  0.25596027123E+03  0.29167763296E+03  0.12000000000E+03 0.  0.
<mgrwt>
<rscale>  0 0.28644766E+03</rscale>
<asrwt>0</asrwt>
<pdfrwt beam="1">  1        2 0.10739967E+00 0.28644766E+03</pdfrwt>
<pdfrwt beam="2">  1       -2 0.45206502E-02 0.28644766E+03</pdfrwt>
<totfact> 0.95877845E+03</totfact>
</mgrwt>
</event>
<event>
 4    1  0.1777979E-004  0.3384805E+03  0.7818608E-02  0.1067445E+00
         -1   -1    0    0    0  501 -0.00000000000E+00  0.00000000000E+00  0.10782954020E+03  0.10782954020E+03  0.00000000000E+00 0.  1.
          1   -1    0    0  501    0  0.00000000000E+00 -0.00000000000E+00 -0.26562531138E+03  0.26562531138E+03  0.00000000000E+00 0.  1.
         25    1    1    2    0    0 -0.53962401851E+02  0.93189394112E+02 -0.22142951055E+02  0.16274677960E+03  0.12000000000E+03 0.  0.
         25    1    1    2    0    0  0.53962401851E+02 -0.93189394112E+02 -0.13565282013E+03  0.21070807198E+03  0.12000000000E+03 0.  0.
<mgrwt>
<rscale>  0 0.33848046E+03</rscale>
<asrwt>0</asrwt>
<pdfrwt beam="1">  1        1 0.40865432E-01 0.33848046E+03</pdfrwt>
<pdfrwt beam="2">  1       -1 0.16589160E-01 0.33848046E+03</pdfrwt>
<totfact> 0.28015776E+03</totfact>
</mgrwt>
</event>
<event>
 4    1  0.1777979E-004  0.3336679E+03  0.7818608E-02  0.1069525E+00
         -2   -1    0    0    0  501 -0.00000000000E+00  0.00000000000E+00  0.42938826740E+02  0.42938826740E+02  0.00000000000E+00 0.  1.
          2   -1    0    0  501    0  0.00000000000E+00 -0.00000000000E+00 -0.64821455984E+03  0.64821455984E+03  0.00000000000E+00 0.  1.
         25    1    1    2    0    0 -0.11508270435E+03 -0.11432898446E+02 -0.28674986644E+03  0.33166281961E+03  0.12000000000E+03 0.  0.
         25    1    1    2    0    0  0.11508270435E+03  0.11432898446E+02 -0.31852586666E+03  0.35949056697E+03  0.12000000000E+03 0.  0.
<mgrwt>
<rscale>  0 0.33366793E+03</rscale>
<asrwt>0</asrwt>
<pdfrwt beam="1">  1        2 0.99725311E-01 0.33366793E+03</pdfrwt>
<pdfrwt beam="2">  1       -2 0.66059738E-02 0.33366793E+03</pdfrwt>
<totfact> 0.58884638E+03</totfact>
</mgrwt>
</event>
<event>
 4    1  0.1777979E-004  0.3712637E+03  0.7818608E-02  0.1054211E+00
          2   -1    0    0  501    0  0.00000000000E+00  0.00000000000E+00  0.11433669828E+04  0.11433669828E+04  0.00000000000E+00 0. -1.
         -2   -1    0    0    0  501 -0.00000000000E+00 -0.00000000000E+00 -0.30138332718E+02  0.30138332718E+02  0.00000000000E+00 0. -1.
         25    1    1    2    0    0  0.53233818150E+02  0.28588014097E+02  0.15172972715E+03  0.20266480712E+03  0.12000000000E+03 0.  0.
         25    1    1    2    0    0 -0.53233818150E+02 -0.28588014097E+02  0.96149892289E+03  0.97084050835E+03  0.12000000000E+03 0.  0.
<mgrwt>
<rscale>  0 0.37126365E+03</rscale>
<asrwt>0</asrwt>
<pdfrwt beam="1">  1        2 0.17590258E+00 0.37126365E+03</pdfrwt>
<pdfrwt beam="2">  1       -2 0.46366675E-02 0.37126365E+03</pdfrwt>
<totfact> 0.47519292E+03</totfact>
</mgrwt>
</event>
<event>
 4    1  0.1777979E-004  0.2965735E+03  0.7818608E-02  0.1086966E+00
          3   -1    0    0  501    0  0.00000000000E+00  0.00000000000E+00  0.16259824055E+03  0.16259824055E+03  0.00000000000E+00 0. -1.
         -3   -1    0    0    0  501 -0.00000000000E+00 -0.00000000000E+00 -0.13523488526E+03  0.13523488526E+03  0.00000000000E+00 0. -1.
         25    1    1    2    0    0 -0.34574493277E+02  0.79953896106E+02  0.12711491709E+02  0.14882742728E+03  0.12000000000E+03 0.  0.
         25    1    1    2    0    0  0.34574493277E+02 -0.79953896106E+02  0.14651863583E+02  0.14900569853E+03  0.12000000000E+03 0.  0.
<mgrwt>
<rscale>  0 0.29657346E+03</rscale>
<asrwt>0</asrwt>
<pdfrwt beam="1">  1        3 0.25015114E-01 0.29657346E+03</pdfrwt>
<pdfrwt beam="2">  1       -3 0.20805367E-01 0.29657346E+03</pdfrwt>
<totfact> 0.80401227E+02</totfact>
</mgrwt>
</event>
<event>
 4    1  0.1777979E-004  0.2801460E+03  0.7818608E-02  0.1095609E+00
         -1   -1    0    0    0  501 -0.00000000000E+00  0.00000000000E+00  0.48604785613E+03  0.48604785613E+03  0.00000000000E+00 0. -1.
          1   -1    0    0  501    0  0.00000000000E+00 -0.00000000000E+00 -0.40367299774E+02  0.40367299774E+02  0.00000000000E+00 0. -1.
         25    1    1    2    0    0 -0.24793870268E+02  0.45983797542E+02  0.31662838871E+03  0.34261170759E+03  0.12000000000E+03 0.  0.
         25    1    1    2    0    0  0.24793870268E+02 -0.45983797542E+02  0.12905216765E+03  0.18380344832E+03  0.12000000000E+03 0.  0.
<mgrwt>
<rscale>  0 0.28014596E+03</rscale>
<asrwt>0</asrwt>
<pdfrwt beam="1">  1        1 0.62103541E-02 0.28014596E+03</pdfrwt>
<pdfrwt beam="2">  1       -1 0.74776589E-01 0.28014596E+03</pdfrwt>
<totfact> 0.23071449E+03</totfact>
</mgrwt>
</event>
<event>
 4    1  0.1777979E-004  0.2546300E+03  0.7818608E-02  0.1110413E+00
         -1   -1    0    0    0  501 -0.00000000000E+00  0.00000000000E+00  0.23422644851E+02  0.23422644851E+02  0.00000000000E+00 0.  1.
          1   -1    0    0  501    0  0.00000000000E+00 -0.00000000000E+00 -0.69202746913E+03  0.69202746913E+03  0.00000000000E+00 0.  1.
         25    1    1    2    0    0 -0.19171110292E+02  0.20877459149E+02 -0.24519641244E+03  0.27445342127E+03  0.12000000000E+03 0.  0.
         25    1    1    2    0    0  0.19171110292E+02 -0.20877459149E+02 -0.42340841184E+03  0.44099669272E+03  0.12000000000E+03 0.  0.
<mgrwt>
<rscale>  0 0.25463003E+03</rscale>
<asrwt>0</asrwt>
<pdfrwt beam="1">  1        1 0.10646576E+00 0.25463003E+03</pdfrwt>
<pdfrwt beam="2">  1       -1 0.36034839E-02 0.25463003E+03</pdfrwt>
<totfact> 0.81856967E+03</totfact>
</mgrwt>
</event>
<event>
 4    1  0.1777979E-004  0.2829333E+03  0.7818608E-02  0.1094098E+00
         -3   -1    0    0    0  501 -0.00000000000E+00  0.00000000000E+00  0.54683169169E+02  0.54683169169E+02  0.00000000000E+00 0.  1.
          3   -1    0    0  501    0  0.00000000000E+00 -0.00000000000E+00 -0.36597763409E+03  0.36597763409E+03  0.00000000000E+00 0.  1.
         25    1    1    2    0    0 -0.30995246215E+02  0.19013843316E+02 -0.25303540426E+03  0.28239891525E+03  0.12000000000E+03 0.  0.
         25    1    1    2    0    0  0.30995246215E+02 -0.19013843316E+02 -0.58259060656E+02  0.13826188800E+03  0.12000000000E+03 0.  0.
<mgrwt>
<rscale>  0 0.28293333E+03</rscale>
<asrwt>0</asrwt>
<pdfrwt beam="1">  1        3 0.56304249E-01 0.28293333E+03</pdfrwt>
<pdfrwt beam="2">  1       -3 0.84127956E-02 0.28293333E+03</pdfrwt>
<totfact> 0.78617221E+02</totfact>
</mgrwt>
</event>
<event>
 4    1  0.1777979E-004  0.2872246E+03  0.7818608E-02  0.1091807E+00
         -1   -1    0    0    0  501 -0.00000000000E+00  0.00000000000E+00  0.23146925348E+02  0.23146925348E+02  0.00000000000E+00 0.  1.
          1   -1    0    0  501    0  0.00000000000E+00 -0.00000000000E+00 -0.89102526316E+03  0.89102526316E+03  0.00000000000E+00 0.  1.
         25    1    1    2    0    0  0.75452989770E+02  0.18419674664E+02 -0.47804759969E+03  0.49896086585E+03  0.12000000000E+03 0.  0.
         25    1    1    2    0    0 -0.75452989770E+02 -0.18419674664E+02 -0.38983073812E+03  0.41521132266E+03  0.12000000000E+03 0.  0.
<mgrwt>
<rscale>  0 0.28722462E+03</rscale>
<asrwt>0</asrwt>
<pdfrwt beam="1">  1        1 0.13708081E+00 0.28722462E+03</pdfrwt>
<pdfrwt beam="2">  1       -1 0.35610655E-02 0.28722462E+03</pdfrwt>
<totfact> 0.56777067E+03</totfact>
</mgrwt>
</event>
<event>
 4    1  0.1777979E-004  0.5330337E+03  0.7818608E-02  0.1005499E+00
         -1   -1    0    0    0  501 -0.00000000000E+00  0.00000000000E+00  0.12989336593E+03  0.12989336593E+03  0.00000000000E+00 0.  1.
          1   -1    0    0  501    0  0.00000000000E+00 -0.00000000000E+00 -0.54684264445E+03  0.54684264445E+03  0.00000000000E+00 0.  1.
         25    1    1    2    0    0 -0.20844788411E+03  0.11276168390E+03 -0.18108218280E+03  0.32149101803E+03  0.12000000000E+03 0.  0.
         25    1    1    2    0    0  0.20844788411E+03 -0.11276168390E+03 -0.23586709572E+03  0.35524499235E+03  0.12000000000E+03 0.  0.
<mgrwt>
<rscale>  0 0.53303370E+03</rscale>
<asrwt>0</asrwt>
<pdfrwt beam="1">  1        1 0.84129639E-01 0.53303370E+03</pdfrwt>
<pdfrwt beam="2">  1       -1 0.19983595E-01 0.53303370E+03</pdfrwt>
<totfact> 0.80622519E+02</totfact>
</mgrwt>
</event>
<event>
 4    1  0.1777979E-004  0.2522280E+03  0.7818608E-02  0.1111905E+00
          1   -1    0    0  501    0  0.00000000000E+00  0.00000000000E+00  0.12548389273E+04  0.12548389273E+04  0.00000000000E+00 0. -1.
         -1   -1    0    0    0  501 -0.00000000000E+00 -0.00000000000E+00 -0.12674726615E+02  0.12674726615E+02  0.00000000000E+00 0. -1.
         25    1    1    2    0    0  0.10992099856E+02  0.31671650042E+02  0.52301583930E+03  0.53765182771E+03  0.12000000000E+03 0.  0.
         25    1    1    2    0    0 -0.10992099856E+02 -0.31671650042E+02  0.71914836137E+03  0.72986182620E+03  0.12000000000E+03 0.  0.
<mgrwt>
<rscale>  0 0.25222799E+03</rscale>
<asrwt>0</asrwt>
<pdfrwt beam="1">  1        1 0.19305205E+00 0.25222799E+03</pdfrwt>
<pdfrwt beam="2">  1       -1 0.19499589E-02 0.25222799E+03</pdfrwt>
<totfact> 0.74408525E+03</totfact>
</mgrwt>
</event>
<event>
 4    1  0.1777979E-004  0.3465337E+03  0.7818608E-02  0.1064047E+00
         -1   -1    0    0    0  501 -0.00000000000E+00  0.00000000000E+00  0.17019250921E+03  0.17019250921E+03  0.00000000000E+00 0.  1.
          1   -1    0    0  501    0  0.00000000000E+00 -0.00000000000E+00 -0.17639671274E+03  0.17639671274E+03  0.00000000000E+00 0.  1.
         25    1    1    2    0    0 -0.23002827479E+01 -0.12000581754E+03 -0.37960400275E+02  0.17391860031E+03  0.12000000000E+03 0.  0.
         25    1    1    2    0    0  0.23002827479E+01  0.12000581754E+03  0.31756196750E+02  0.17267062164E+03  0.12000000000E+03 0.  0.
<mgrwt>
<rscale>  0 0.34653369E+03</rscale>
<asrwt>0</asrwt>
<pdfrwt beam="1">  1        1 0.27137956E-01 0.34653369E+03</pdfrwt>
<pdfrwt beam="2">  1       -1 0.26183463E-01 0.34653369E+03</pdfrwt>
<totfact> 0.22249329E+03</totfact>
</mgrwt>
</event>
<event>
 4    1  0.1777979E-004  0.3450274E+03  0.7818608E-02  0.1064675E+00
         -1   -1    0    0    0  501 -0.00000000000E+00  0.00000000000E+00  0.28360067610E+03  0.28360067610E+03  0.00000000000E+00 0. -1.
          1   -1    0    0  501    0  0.00000000000E+00 -0.00000000000E+00 -0.10493972466E+03  0.10493972466E+03  0.00000000000E+00 0. -1.
         25    1    1    2    0    0 -0.31007688390E+02 -0.86652049536E+02 -0.41500783320E+01  0.15128541760E+03  0.12000000000E+03 0.  0.
         25    1    1    2    0    0  0.31007688390E+02  0.86652049536E+02  0.18281102977E+03  0.23725498316E+03  0.12000000000E+03 0.  0.
<mgrwt>
<rscale>  0 0.34502740E+03</rscale>
<asrwt>0</asrwt>
<pdfrwt beam="1">  1        1 0.16144573E-01 0.34502740E+03</pdfrwt>
<pdfrwt beam="2">  1       -1 0.43630873E-01 0.34502740E+03</pdfrwt>
<totfact> 0.17905880E+03</totfact>
</mgrwt>
</event>
<event>
 4    1  0.1777979E-004  0.2889442E+03  0.7818608E-02  0.1090902E+00
          4   -1    0    0  501    0  0.00000000000E+00  0.00000000000E+00  0.21889349205E+03  0.21889349205E+03  0.00000000000E+00 0.  1.
         -4   -1    0    0    0  501 -0.00000000000E+00 -0.00000000000E+00 -0.95353148042E+02  0.95353148042E+02  0.00000000000E+00 0.  1.
         25    1    1    2    0    0 -0.15222641015E+02  0.11681315187E+02 -0.23199516277E+02  0.12371903443E+03  0.12000000000E+03 0.  0.
         25    1    1    2    0    0  0.15222641015E+02 -0.11681315187E+02  0.14673986029E+03  0.19052760567E+03  0.12000000000E+03 0.  0.
<mgrwt>
<rscale>  0 0.28894417E+03</rscale>
<asrwt>0</asrwt>
<pdfrwt beam="1">  1        4 0.33675922E-01 0.28894417E+03</pdfrwt>
<pdfrwt beam="2">  1       -4 0.14669715E-01 0.28894417E+03</pdfrwt>
<totfact> 0.62993797E+02</totfact>
</mgrwt>
</event>
<event>
 4    1  0.1777979E-004  0.2642670E+03  0.7818608E-02  0.1104606E+00
          2   -1    0    0  501    0  0.00000000000E+00  0.00000000000E+00  0.37791449985E+02  0.37791449985E+02  0.00000000000E+00 0.  1.
         -2   -1    0    0    0  501 -0.00000000000E+00 -0.00000000000E+00 -0.46198988608E+03  0.46198988608E+03  0.00000000000E+00 0.  1.
         25    1    1    2    0    0  0.33163759915E+02  0.37640088515E+02 -0.25615465433E+03  0.28728351531E+03  0.12000000000E+03 0.  0.
         25    1    1    2    0    0 -0.33163759915E+02 -0.37640088515E+02 -0.16804378177E+03  0.21249782076E+03  0.12000000000E+03 0.  0.
<mgrwt>
<rscale>  0 0.26426704E+03</rscale>
<asrwt>0</asrwt>
<pdfrwt beam="1">  1        2 0.58140689E-02 0.26426704E+03</pdfrwt>
<pdfrwt beam="2">  1       -2 0.71075371E-01 0.26426704E+03</pdfrwt>
<totfact> 0.23663804E+03</totfact>
</mgrwt>
</event>
<event>
 4    1  0.1777979E-004  0.2872939E+03  0.7818608E-02  0.1091771E+00
          2   -1    0    0  501    0  0.00000000000E+00  0.00000000000E+00  0.19646377346E+04  0.19646377346E+04  0.00000000000E+00 0.  1.
         -2   -1    0    0    0  501 -0.00000000000E+00 -0.00000000000E+00 -0.10502925225E+02  0.10502925225E+02  0.00000000000E+00 0.  1.
         25    1    1    2    0    0  0.56528752971E+02 -0.54388715601E+02  0.10388699968E+04  0.10487156443E+04  0.12000000000E+03 0.  0.
         25    1    1    2    0    0 -0.56528752971E+02  0.54388715601E+02  0.91526481261E+03  0.92642501559E+03  0.12000000000E+03 0.  0.
<mgrwt>
<rscale>  0 0.28729388E+03</rscale>
<asrwt>0</asrwt>
<pdfrwt beam="1">  1        2 0.30225167E+00 0.28729388E+03</pdfrwt>
<pdfrwt beam="2">  1       -2 0.16158362E-02 0.28729388E+03</pdfrwt>
<totfact> 0.82077062E+03</totfact>
</mgrwt>
</event>
<event>
 4    1  0.1777979E-004  0.2933337E+03  0.7818608E-02  0.1088621E+00
         -2   -1    0    0    0  501 -0.00000000000E+00  0.00000000000E+00  0.18958704647E+02  0.18958704647E+02  0.00000000000E+00 0. -1.
          2   -1    0    0  501    0  0.00000000000E+00 -0.00000000000E+00 -0.11346325569E+04  0.11346325569E+04  0.00000000000E+00 0. -1.
         25    1    1    2    0    0  0.69889746583E+02  0.24008268839E+02 -0.39808100245E+03  0.42229072706E+03  0.12000000000E+03 0.  0.
         25    1    1    2    0    0 -0.69889746583E+02 -0.24008268839E+02 -0.71759284981E+03  0.73130053450E+03  0.12000000000E+03 0.  0.
<mgrwt>
<rscale>  0 0.29333369E+03</rscale>
<asrwt>0</asrwt>
<pdfrwt beam="1">  1        2 0.17455885E+00 0.29333369E+03</pdfrwt>
<pdfrwt beam="2">  1       -2 0.29167239E-02 0.29333369E+03</pdfrwt>
<totfact> 0.96347060E+03</totfact>
</mgrwt>
</event>
<event>
 4    1  0.1777979E-004  0.4224633E+03  0.7818608E-02  0.1036268E+00
          1   -1    0    0  501    0  0.00000000000E+00  0.00000000000E+00  0.46559694037E+03  0.46559694037E+03  0.00000000000E+00 0.  1.
         -1   -1    0    0    0  501 -0.00000000000E+00 -0.00000000000E+00 -0.95831422896E+02  0.95831422896E+02  0.00000000000E+00 0.  1.
         25    1    1    2    0    0  0.76956844741E+02 -0.86570363767E+02  0.35714347516E+03  0.39416778875E+03  0.12000000000E+03 0.  0.
         25    1    1    2    0    0 -0.76956844741E+02  0.86570363767E+02  0.12622042310E+02  0.16726057452E+03  0.12000000000E+03 0.  0.
<mgrwt>
<rscale>  0 0.42246333E+03</rscale>
<asrwt>0</asrwt>
<pdfrwt beam="1">  1        1 0.71630297E-01 0.42246333E+03</pdfrwt>
<pdfrwt beam="2">  1       -1 0.14743296E-01 0.42246333E+03</pdfrwt>
<totfact> 0.16475673E+03</totfact>
</mgrwt>
</event>
<event>
 4    1  0.1777979E-004  0.2955376E+03  0.7818608E-02  0.1087493E+00
          2   -1    0    0  501    0  0.00000000000E+00  0.00000000000E+00  0.50170045791E+03  0.50170045791E+03  0.00000000000E+00 0.  1.
         -2   -1    0    0    0  501 -0.00000000000E+00 -0.00000000000E+00 -0.43523231774E+02  0.43523231774E+02  0.00000000000E+00 0.  1.
         25    1    1    2    0    0  0.35936025721E+02 -0.12574002260E+01  0.37367907990E+03  0.39411804546E+03  0.12000000000E+03 0.  0.
         25    1    1    2    0    0 -0.35936025721E+02  0.12574002260E+01  0.84498146236E+02  0.15110564423E+03  0.12000000000E+03 0.  0.
<mgrwt>
<rscale>  0 0.29553765E+03</rscale>
<asrwt>0</asrwt>
<pdfrwt beam="1">  1        2 0.77184682E-01 0.29553765E+03</pdfrwt>
<pdfrwt beam="2">  1       -2 0.66958822E-02 0.29553765E+03</pdfrwt>
<totfact> 0.77271754E+03</totfact>
</mgrwt>
</event>
<event>
 4    1  0.1777979E-004  0.3759118E+03  0.7818608E-02  0.1052455E+00
          1   -1    0    0  501    0  0.00000000000E+00  0.00000000000E+00  0.86051495057E+03  0.86051495057E+03  0.00000000000E+00 0.  1.
         -1   -1    0    0    0  501 -0.00000000000E+00 -0.00000000000E+00 -0.41053817287E+02  0.41053817287E+02  0.00000000000E+00 0.  1.
         25    1    1    2    0    0  0.10851742584E+03  0.86378906931E+02  0.31113303709E+03  0.36116632462E+03  0.12000000000E+03 0.  0.
         25    1    1    2    0    0 -0.10851742584E+03 -0.86378906931E+02  0.50832809619E+03  0.54040244323E+03  0.12000000000E+03 0.  0.
<mgrwt>
<rscale>  0 0.37591182E+03</rscale>
<asrwt>0</asrwt>
<pdfrwt beam="1">  1        1 0.13238690E+00 0.37591182E+03</pdfrwt>
<pdfrwt beam="2">  1       -1 0.63159725E-02 0.37591182E+03</pdfrwt>
<totfact> 0.25453867E+03</totfact>
</mgrwt>
</event>
<event>
 4    1  0.1777979E-004  0.3514977E+03  0.7818608E-02  0.1062002E+00
          2   -1    0    0  501    0  0.00000000000E+00  0.00000000000E+00  0.17813091367E+04  0.17813091367E+04  0.00000000000E+00 0. -1.
         -2   -1    0    0    0  501 -0.00000000000E+00 -0.00000000000E+00 -0.17339865353E+02  0.17339865353E+02  0.00000000000E+00 0. -1.
         25    1    1    2    0    0 -0.90204083669E+02 -0.76752942143E+02  0.62819144092E+03  0.65042468994E+03  0.12000000000E+03 0.  0.
         25    1    1    2    0    0  0.90204083669E+02  0.76752942143E+02  0.11357778304E+04  0.11482243121E+04  0.12000000000E+03 0.  0.
<mgrwt>
<rscale>  0 0.35149771E+03</rscale>
<asrwt>0</asrwt>
<pdfrwt beam="1">  1        2 0.27404741E+00 0.35149771E+03</pdfrwt>
<pdfrwt beam="2">  1       -2 0.26676730E-02 0.35149771E+03</pdfrwt>
<totfact> 0.48871798E+03</totfact>
</mgrwt>
</event>
<event>
 4    1  0.1777979E-004  0.2855718E+03  0.7818608E-02  0.1092684E+00
          1   -1    0    0  501    0  0.00000000000E+00  0.00000000000E+00  0.13583012584E+04  0.13583012584E+04  0.00000000000E+00 0.  1.
         -1   -1    0    0    0  501 -0.00000000000E+00 -0.00000000000E+00 -0.15009787826E+02  0.15009787826E+02  0.00000000000E+00 0.  1.
         25    1    1    2    0    0 -0.57869543400E+02  0.37456041071E+02  0.84071254862E+03  0.85202665949E+03  0.12000000000E+03 0.  0.
         25    1    1    2    0    0  0.57869543400E+02 -0.37456041071E+02  0.50257892193E+03  0.52128438671E+03  0.12000000000E+03 0.  0.
<mgrwt>
<rscale>  0 0.28557180E+03</rscale>
<asrwt>0</asrwt>
<pdfrwt beam="1">  1        1 0.20896933E+00 0.28557180E+03</pdfrwt>
<pdfrwt beam="2">  1       -1 0.23091992E-02 0.28557180E+03</pdfrwt>
<totfact> 0.49475258E+03</totfact>
</mgrwt>
</event>
<event>
 4    1  0.1777979E-004  0.2451674E+03  0.7818608E-02  0.1116398E+00
          1   -1    0    0  501    0  0.00000000000E+00  0.00000000000E+00  0.11864772716E+04  0.11864772716E+04  0.00000000000E+00 0.  1.
         -1   -1    0    0    0  501 -0.00000000000E+00 -0.00000000000E+00 -0.12665027564E+02  0.12665027564E+02  0.00000000000E+00 0.  1.
         25    1    1    2    0    0 -0.14809456881E+02  0.58405750492E+01  0.49240057295E+03  0.50706188633E+03  0.12000000000E+03 0.  0.
         25    1    1    2    0    0  0.14809456881E+02 -0.58405750492E+01  0.68141167104E+03  0.69208041278E+03  0.12000000000E+03 0.  0.
<mgrwt>
<rscale>  0 0.24516743E+03</rscale>
<asrwt>0</asrwt>
<pdfrwt beam="1">  1        1 0.18253488E+00 0.24516743E+03</pdfrwt>
<pdfrwt beam="2">  1       -1 0.19484667E-02 0.24516743E+03</pdfrwt>
<totfact> 0.83030884E+03</totfact>
</mgrwt>
</event>
<event>
 4    1  0.1777979E-004  0.4449763E+03  0.7818608E-02  0.1029231E+00
          2   -1    0    0  501    0  0.00000000000E+00  0.00000000000E+00  0.26022627666E+04  0.26022627666E+04  0.00000000000E+00 0. -1.
         -2   -1    0    0    0  501 -0.00000000000E+00 -0.00000000000E+00 -0.19022279086E+02  0.19022279086E+02  0.00000000000E+00 0. -1.
         25    1    1    2    0    0  0.11904830099E+03  0.89625394209E+02  0.19605813459E+04  0.19698945208E+04  0.12000000000E+03 0.  0.
         25    1    1    2    0    0 -0.11904830099E+03 -0.89625394209E+02  0.62265914164E+03  0.65139052489E+03  0.12000000000E+03 0.  0.
<mgrwt>
<rscale>  0 0.44497626E+03</rscale>
<asrwt>0</asrwt>
<pdfrwt beam="1">  1        2 0.40034784E+00 0.44497626E+03</pdfrwt>
<pdfrwt beam="2">  1       -2 0.29265065E-02 0.44497626E+03</pdfrwt>
<totfact> 0.15198058E+03</totfact>
</mgrwt>
</event>
<event>
 4    1  0.1777979E-004  0.2778568E+03  0.7818608E-02  0.1096865E+00
         -2   -1    0    0    0  501 -0.00000000000E+00  0.00000000000E+00  0.28443710871E+03  0.28443710871E+03  0.00000000000E+00 0.  1.
          2   -1    0    0  501    0  0.00000000000E+00 -0.00000000000E+00 -0.67857200982E+02  0.67857200982E+02  0.00000000000E+00 0.  1.
         25    1    1    2    0    0 -0.18729338508E+02  0.64674926887E+02  0.13259500401E+03  0.19108916604E+03  0.12000000000E+03 0.  0.
         25    1    1    2    0    0  0.18729338508E+02 -0.64674926887E+02  0.83984903723E+02  0.16120514366E+03  0.12000000000E+03 0.  0.
<mgrwt>
<rscale>  0 0.27785684E+03</rscale>
<asrwt>0</asrwt>
<pdfrwt beam="1">  1        2 0.10439570E-01 0.27785684E+03</pdfrwt>
<pdfrwt beam="2">  1       -2 0.43759555E-01 0.27785684E+03</pdfrwt>
<totfact> 0.30277630E+03</totfact>
</mgrwt>
</event>
<event>
 4    1  0.1777979E-004  0.2907714E+03  0.7818608E-02  0.1089947E+00
          1   -1    0    0  501    0  0.00000000000E+00  0.00000000000E+00  0.79394016320E+02  0.79394016320E+02  0.00000000000E+00 0. -1.
         -1   -1    0    0    0  501 -0.00000000000E+00 -0.00000000000E+00 -0.26622923374E+03  0.26622923374E+03  0.00000000000E+00 0. -1.
         25    1    1    2    0    0 -0.58367847588E+01  0.77355258203E+02 -0.12529238015E+03  0.19004232306E+03  0.12000000000E+03 0.  0.
         25    1    1    2    0    0  0.58367847588E+01 -0.77355258203E+02 -0.61542837263E+02  0.15558092700E+03  0.12000000000E+03 0.  0.
<mgrwt>
<rscale>  0 0.29077144E+03</rscale>
<asrwt>0</asrwt>
<pdfrwt beam="1">  1        1 0.12214464E-01 0.29077144E+03</pdfrwt>
<pdfrwt beam="2">  1       -1 0.40958343E-01 0.29077144E+03</pdfrwt>
<totfact> 0.28935684E+03</totfact>
</mgrwt>
</event>
<event>
 4    1  0.1777979E-004  0.3654850E+03  0.7818608E-02  0.1056433E+00
          4   -1    0    0  501    0  0.00000000000E+00  0.00000000000E+00  0.90663927469E+03  0.90663927469E+03  0.00000000000E+00 0.  1.
         -4   -1    0    0    0  501 -0.00000000000E+00 -0.00000000000E+00 -0.36833635410E+02  0.36833635410E+02  0.00000000000E+00 0.  1.
         25    1    1    2    0    0  0.12771762309E+03 -0.10464464205E+02  0.30394723807E+03  0.35100601104E+03  0.12000000000E+03 0.  0.
         25    1    1    2    0    0 -0.12771762309E+03  0.10464464205E+02  0.56585840121E+03  0.59246689905E+03  0.12000000000E+03 0.  0.
<mgrwt>
<rscale>  0 0.36548500E+03</rscale>
<asrwt>0</asrwt>
<pdfrwt beam="1">  1        4 0.13948295E+00 0.36548500E+03</pdfrwt>
<pdfrwt beam="2">  1       -4 0.56667138E-02 0.36548500E+03</pdfrwt>
<totfact> 0.14232377E+02</totfact>
</mgrwt>
</event>
<event>
 4    1  0.1777979E-004  0.2450112E+03  0.7818608E-02  0.1116499E+00
         -2   -1    0    0    0  501 -0.00000000000E+00  0.00000000000E+00  0.11879568496E+03  0.11879568496E+03  0.00000000000E+00 0. -1.
          2   -1    0    0  501    0  0.00000000000E+00 -0.00000000000E+00 -0.12633136227E+03  0.12633136227E+03  0.00000000000E+00 0. -1.
         25    1    1    2    0    0 -0.98403704307E+00  0.24602469059E+02 -0.49392463597E+01  0.12259953494E+03  0.12000000000E+03 0.  0.
         25    1    1    2    0    0  0.98403704307E+00 -0.24602469059E+02 -0.25964309503E+01  0.12252751228E+03  0.12000000000E+03 0.  0.
<mgrwt>
<rscale>  0 0.24501119E+03</rscale>
<asrwt>0</asrwt>
<pdfrwt beam="1">  1        2 0.19435594E-01 0.24501119E+03</pdfrwt>
<pdfrwt beam="2">  1       -2 0.18276259E-01 0.24501119E+03</pdfrwt>
<totfact> 0.69377743E+03</totfact>
</mgrwt>
</event>
<event>
 4    1  0.1777979E-004  0.2588718E+03  0.7818608E-02  0.1107823E+00
         -1   -1    0    0    0  501 -0.00000000000E+00  0.00000000000E+00  0.24164068830E+02  0.24164068830E+02  0.00000000000E+00 0.  1.
          1   -1    0    0  501    0  0.00000000000E+00 -0.00000000000E+00 -0.69332935975E+03  0.69332935975E+03  0.00000000000E+00 0.  1.
         25    1    1    2    0    0  0.53632017996E+01 -0.19426575680E+02 -0.45689550706E+03  0.47282095993E+03  0.12000000000E+03 0.  0.
         25    1    1    2    0    0 -0.53632017996E+01  0.19426575680E+02 -0.21226978386E+03  0.24467246865E+03  0.12000000000E+03 0.  0.
<mgrwt>
<rscale>  0 0.25887185E+03</rscale>
<asrwt>0</asrwt>
<pdfrwt beam="1">  1        1 0.10666604E+00 0.25887185E+03</pdfrwt>
<pdfrwt beam="2">  1       -1 0.37175495E-02 0.25887185E+03</pdfrwt>
<totfact> 0.77994534E+03</totfact>
</mgrwt>
</event>
<event>
 4    1  0.1777979E-004  0.2973338E+03  0.7818608E-02  0.1086581E+00
          1   -1    0    0  501    0  0.00000000000E+00  0.00000000000E+00  0.63112361697E+03  0.63112361697E+03  0.00000000000E+00 0. -1.
         -1   -1    0    0    0  501 -0.00000000000E+00 -0.00000000000E+00 -0.35019849434E+02  0.35019849434E+02  0.00000000000E+00 0. -1.
         25    1    1    2    0    0 -0.55768261020E+02  0.51177950617E+02  0.19854802846E+03  0.24402991860E+03  0.12000000000E+03 0.  0.
         25    1    1    2    0    0  0.55768261020E+02 -0.51177950617E+02  0.39755573908E+03  0.42211354781E+03  0.12000000000E+03 0.  0.
<mgrwt>
<rscale>  0 0.29733385E+03</rscale>
<asrwt>0</asrwt>
<pdfrwt beam="1">  1        1 0.97095933E-01 0.29733385E+03</pdfrwt>
<pdfrwt beam="2">  1       -1 0.53876696E-02 0.29733385E+03</pdfrwt>
<totfact> 0.51467695E+03</totfact>
</mgrwt>
</event>
<event>
 4    1  0.1777979E-004  0.2895748E+03  0.7818608E-02  0.1090571E+00
          3   -1    0    0  501    0  0.00000000000E+00  0.00000000000E+00  0.37352973803E+02  0.37352973803E+02  0.00000000000E+00 0.  1.
         -3   -1    0    0    0  501 -0.00000000000E+00 -0.00000000000E+00 -0.56122400712E+03  0.56122400712E+03  0.00000000000E+00 0.  1.
         25    1    1    2    0    0  0.42666964516E+02 -0.25947911180E+02 -0.39380257650E+03  0.41469776129E+03  0.12000000000E+03 0.  0.
         25    1    1    2    0    0 -0.42666964516E+02  0.25947911180E+02 -0.13006845681E+03  0.18387921963E+03  0.12000000000E+03 0.  0.
<mgrwt>
<rscale>  0 0.28957476E+03</rscale>
<asrwt>0</asrwt>
<pdfrwt beam="1">  1        3 0.57466115E-02 0.28957476E+03</pdfrwt>
<pdfrwt beam="2">  1       -3 0.86342153E-01 0.28957476E+03</pdfrwt>
<totfact> 0.58640744E+02</totfact>
</mgrwt>
</event>
<event>
 4    1  0.1777979E-004  0.3777048E+03  0.7818608E-02  0.1051785E+00
          2   -1    0    0  501    0  0.00000000000E+00  0.00000000000E+00  0.77921986813E+02  0.77921986813E+02  0.00000000000E+00 0. -1.
         -2   -1    0    0    0  501 -0.00000000000E+00 -0.00000000000E+00 -0.45770439614E+03  0.45770439614E+03  0.00000000000E+00 0. -1.
         25    1    1    2    0    0  0.58919037849E+02 -0.53512889240E+02 -0.16613952618E+02  0.14495208090E+03  0.12000000000E+03 0.  0.
         25    1    1    2    0    0 -0.58919037849E+02  0.53512889240E+02 -0.36316845671E+03  0.39067430205E+03  0.12000000000E+03 0.  0.
<mgrwt>
<rscale>  0 0.37770484E+03</rscale>
<asrwt>0</asrwt>
<pdfrwt beam="1">  1        2 0.11987998E-01 0.37770484E+03</pdfrwt>
<pdfrwt beam="2">  1       -2 0.70416060E-01 0.37770484E+03</pdfrwt>
<totfact> 0.96956773E+02</totfact>
</mgrwt>
</event>
<event>
 4    1  0.1777979E-004  0.4010185E+03  0.7818608E-02  0.1043428E+00
          2   -1    0    0  501    0  0.00000000000E+00  0.00000000000E+00  0.13472096047E+04  0.13472096047E+04  0.00000000000E+00 0. -1.
         -2   -1    0    0    0  501 -0.00000000000E+00 -0.00000000000E+00 -0.29842397775E+02  0.29842397775E+02  0.00000000000E+00 0. -1.
         25    1    1    2    0    0  0.10478804838E+03  0.58236706470E+02  0.10258351925E+04  0.10397643441E+04  0.12000000000E+03 0.  0.
         25    1    1    2    0    0 -0.10478804838E+03 -0.58236706470E+02  0.29153201441E+03  0.33728765837E+03  0.12000000000E+03 0.  0.
<mgrwt>
<rscale>  0 0.40101853E+03</rscale>
<asrwt>0</asrwt>
<pdfrwt beam="1">  1        2 0.20726297E+00 0.40101853E+03</pdfrwt>
<pdfrwt beam="2">  1       -2 0.45911392E-02 0.40101853E+03</pdfrwt>
<totfact> 0.36924964E+03</totfact>
</mgrwt>
</event>
<event>
 4    1  0.1777979E-004  0.3040742E+03  0.7818608E-02  0.1083222E+00
         -2   -1    0    0    0  501 -0.00000000000E+00  0.00000000000E+00  0.22580349924E+02  0.22580349924E+02  0.00000000000E+00 0. -1.
          2   -1    0    0  501    0  0.00000000000E+00 -0.00000000000E+00 -0.10236901762E+04  0.10236901762E+04  0.00000000000E+00 0. -1.
         25    1    1    2    0    0 -0.89341204886E+02 -0.16151548047E+02 -0.57535333112E+03  0.59470511939E+03  0.12000000000E+03 0.  0.
         25    1    1    2    0    0  0.89341204886E+02  0.16151548047E+02 -0.42575649518E+03  0.45156540676E+03  0.12000000000E+03 0.  0.
<mgrwt>
<rscale>  0 0.30407422E+03</rscale>
<asrwt>0</asrwt>
<pdfrwt beam="1">  1        2 0.15749082E+00 0.30407422E+03</pdfrwt>
<pdfrwt beam="2">  1       -2 0.34738994E-02 0.30407422E+03</pdfrwt>
<totfact> 0.86428917E+03</totfact>
</mgrwt>
</event>
<event>
 4    1  0.1777979E-004  0.2653402E+03  0.7818608E-02  0.1103977E+00
         -3   -1    0    0    0  501 -0.00000000000E+00  0.00000000000E+00  0.44238641205E+03  0.44238641205E+03  0.00000000000E+00 0. -1.
          3   -1    0    0  501    0  0.00000000000E+00 -0.00000000000E+00 -0.39787289390E+02  0.39787289390E+02  0.00000000000E+00 0. -1.
         25    1    1    2    0    0 -0.22394574262E+02  0.28791534749E+02  0.27989986245E+03  0.30671550731E+03  0.12000000000E+03 0.  0.
         25    1    1    2    0    0  0.22394574262E+02 -0.28791534749E+02  0.12269926022E+03  0.17545819413E+03  0.12000000000E+03 0.  0.
<mgrwt>
<rscale>  0 0.26534021E+03</rscale>
<asrwt>0</asrwt>
<pdfrwt beam="1">  1        3 0.61211217E-02 0.26534021E+03</pdfrwt>
<pdfrwt beam="2">  1       -3 0.68059445E-01 0.26534021E+03</pdfrwt>
<totfact> 0.88160628E+02</totfact>
</mgrwt>
</event>
<event>
 4    1  0.1777979E-004  0.2751208E+03  0.7818608E-02  0.1098384E+00
         -3   -1    0    0    0  501 -0.00000000000E+00  0.00000000000E+00  0.11495155543E+04  0.11495155543E+04  0.00000000000E+00 0.  1.
          3   -1    0    0  501    0  0.00000000000E+00 -0.00000000000E+00 -0.16461604076E+02  0.16461604076E+02  0.00000000000E+00 0.  1.
         25    1    1    2    0    0 -0.32263364611E+02  0.58989197031E+02  0.56021259994E+03  0.57685250038E+03  0.12000000000E+03 0.  0.
         25    1    1    2    0    0  0.32263364611E+02 -0.58989197031E+02  0.57284135024E+03  0.58912465795E+03  0.12000000000E+03 0.  0.
<mgrwt>
<rscale>  0 0.27512085E+03</rscale>
<asrwt>0</asrwt>
<pdfrwt beam="1">  1        3 0.25325554E-02 0.27512085E+03</pdfrwt>
<pdfrwt beam="2">  1       -3 0.17684848E+00 0.27512085E+03</pdfrwt>
<totfact> 0.37461732E+02</totfact>
</mgrwt>
</event>
<event>
 4    1  0.1777979E-004  0.2987661E+03  0.7818608E-02  0.1085859E+00
          1   -1    0    0  501    0  0.00000000000E+00  0.00000000000E+00  0.70527620765E+03  0.70527620765E+03  0.00000000000E+00 0.  1.
         -1   -1    0    0    0  501 -0.00000000000E+00 -0.00000000000E+00 -0.31640506567E+02  0.31640506567E+02  0.00000000000E+00 0.  1.
         25    1    1    2    0    0  0.44125359964E+02  0.13946304580E+02  0.52423790346E+03  0.53978414781E+03  0.12000000000E+03 0.  0.
         25    1    1    2    0    0 -0.44125359964E+02 -0.13946304580E+02  0.14939779762E+03  0.19713256640E+03  0.12000000000E+03 0.  0.
<mgrwt>
<rscale>  0 0.29876611E+03</rscale>
<asrwt>0</asrwt>
<pdfrwt beam="1">  1        1 0.10850402E+00 0.29876611E+03</pdfrwt>
<pdfrwt beam="2">  1       -1 0.48677708E-02 0.29876611E+03</pdfrwt>
<totfact> 0.51088687E+03</totfact>
</mgrwt>
</event>
<event>
 4    1  0.1777979E-004  0.3000293E+03  0.7818608E-02  0.1085226E+00
          2   -1    0    0  501    0  0.00000000000E+00  0.00000000000E+00  0.18781957470E+04  0.18781957470E+04  0.00000000000E+00 0.  1.
         -2   -1    0    0    0  501 -0.00000000000E+00 -0.00000000000E+00 -0.11981922849E+02  0.11981922849E+02  0.00000000000E+00 0.  1.
         25    1    1    2    0    0 -0.77706004549E+01 -0.41717121045E+02  0.43291509666E+03  0.45123849718E+03  0.12000000000E+03 0.  0.
         25    1    1    2    0    0  0.77706004549E+01  0.41717121045E+02  0.14332987275E+04  0.14389391727E+04  0.12000000000E+03 0.  0.
<mgrwt>
<rscale>  0 0.30002931E+03</rscale>
<asrwt>0</asrwt>
<pdfrwt beam="1">  1        2 0.28895296E+00 0.30002931E+03</pdfrwt>
<pdfrwt beam="2">  1       -2 0.18433742E-02 0.30002931E+03</pdfrwt>
<totfact> 0.75122940E+03</totfact>
</mgrwt>
</event>
<event>
 4    1  0.1777979E-004  0.2737602E+03  0.7818608E-02  0.1099147E+00
         -3   -1    0    0    0  501 -0.00000000000E+00  0.00000000000E+00  0.11125738256E+03  0.11125738256E+03  0.00000000000E+00 0.  1.
          3   -1    0    0  501    0  0.00000000000E+00 -0.00000000000E+00 -0.16840379385E+03  0.16840379385E+03  0.00000000000E+00 0.  1.
         25    1    1    2    0    0 -0.54905863166E+02 -0.34017142788E+02 -0.15477143037E+02  0.13715451786E+03  0.12000000000E+03 0.  0.
         25    1    1    2    0    0  0.54905863166E+02  0.34017142788E+02 -0.41669268250E+02  0.14250665855E+03  0.12000000000E+03 0.  0.
<mgrwt>
<rscale>  0 0.27376023E+03</rscale>
<asrwt>0</asrwt>
<pdfrwt beam="1">  1        3 0.25908276E-01 0.27376023E+03</pdfrwt>
<pdfrwt beam="2">  1       -3 0.17116521E-01 0.27376023E+03</pdfrwt>
<totfact> 0.10563850E+03</totfact>
</mgrwt>
</event>
<event>
 4    1  0.1777979E-004  0.2515025E+03  0.7818608E-02  0.1112359E+00
         -2   -1    0    0    0  501 -0.00000000000E+00  0.00000000000E+00  0.88107982541E+02  0.88107982541E+02  0.00000000000E+00 0.  1.
          2   -1    0    0  501    0  0.00000000000E+00 -0.00000000000E+00 -0.17947717914E+03  0.17947717914E+03  0.00000000000E+00 0.  1.
         25    1    1    2    0    0  0.34373827634E+02 -0.15113998302E+02 -0.43728789294E+02  0.13312475346E+03  0.12000000000E+03 0.  0.
         25    1    1    2    0    0 -0.34373827634E+02  0.15113998302E+02 -0.47640407308E+02  0.13446040822E+03  0.12000000000E+03 0.  0.
<mgrwt>
<rscale>  0 0.25150246E+03</rscale>
<asrwt>0</asrwt>
<pdfrwt beam="1">  1        2 0.27611873E-01 0.25150246E+03</pdfrwt>
<pdfrwt beam="2">  1       -2 0.13555074E-01 0.25150246E+03</pdfrwt>
<totfact> 0.76822684E+03</totfact>
</mgrwt>
</event>
<event>
 4    1  0.1777979E-004  0.2939583E+03  0.7818608E-02  0.1088300E+00
          2   -1    0    0  501    0  0.00000000000E+00  0.00000000000E+00  0.53374062346E+03  0.53374062346E+03  0.00000000000E+00 0. -1.
         -2   -1    0    0    0  501 -0.00000000000E+00 -0.00000000000E+00 -0.40474482721E+02  0.40474482721E+02  0.00000000000E+00 0. -1.
         25    1    1    2    0    0  0.13492939401E+02  0.82341044347E+02  0.27694327013E+03  0.31314482571E+03  0.12000000000E+03 0.  0.
         25    1    1    2    0    0 -0.13492939401E+02 -0.82341044347E+02  0.21632287061E+03  0.26107028048E+03  0.12000000000E+03 0.  0.
<mgrwt>
<rscale>  0 0.29395833E+03</rscale>
<asrwt>0</asrwt>
<pdfrwt beam="1">  1        2 0.82113937E-01 0.29395833E+03</pdfrwt>
<pdfrwt beam="2">  1       -2 0.62268439E-02 0.29395833E+03</pdfrwt>
<totfact> 0.80592438E+03</totfact>
</mgrwt>
</event>
<event>
 4    1  0.1777979E-004  0.3023140E+03  0.7818608E-02  0.1084090E+00
         -2   -1    0    0    0  501 -0.00000000000E+00  0.00000000000E+00  0.11099074552E+03  0.11099074552E+03  0.00000000000E+00 0.  1.
          2   -1    0    0  501    0  0.00000000000E+00 -0.00000000000E+00 -0.20585900176E+03  0.20585900176E+03  0.00000000000E+00 0.  1.
         25    1    1    2    0    0 -0.24902914999E+02 -0.79638368744E+02 -0.70317197875E+01  0.14632795370E+03  0.12000000000E+03 0.  0.
         25    1    1    2    0    0  0.24902914999E+02  0.79638368744E+02 -0.87836536450E+02  0.17052179358E+03  0.12000000000E+03 0.  0.
<mgrwt>
<rscale>  0 0.30231404E+03</rscale>
<asrwt>0</asrwt>
<pdfrwt beam="1">  1        2 0.31670616E-01 0.30231404E+03</pdfrwt>
<pdfrwt beam="2">  1       -2 0.17075499E-01 0.30231404E+03</pdfrwt>
<totfact> 0.45380981E+03</totfact>
</mgrwt>
</event>
<event>
 4    1  0.1777979E-004  0.3226771E+03  0.7818608E-02  0.1074424E+00
         -2   -1    0    0    0  501 -0.00000000000E+00  0.00000000000E+00  0.64055234667E+02  0.64055234667E+02  0.00000000000E+00 0.  1.
          2   -1    0    0  501    0  0.00000000000E+00 -0.00000000000E+00 -0.40636994741E+03  0.40636994741E+03  0.00000000000E+00 0.  1.
         25    1    1    2    0    0  0.62976627234E+02  0.69553036328E+02 -0.24866463576E+03  0.29161238231E+03  0.12000000000E+03 0.  0.
         25    1    1    2    0    0 -0.62976627234E+02 -0.69553036328E+02 -0.93650076978E+02  0.17881279976E+03  0.12000000000E+03 0.  0.
<mgrwt>
<rscale>  0 0.32267707E+03</rscale>
<asrwt>0</asrwt>
<pdfrwt beam="1">  1        2 0.62518453E-01 0.32267707E+03</pdfrwt>
<pdfrwt beam="2">  1       -2 0.98546515E-02 0.32267707E+03</pdfrwt>
<totfact> 0.53342921E+03</totfact>
</mgrwt>
</event>
<event>
 4    1  0.1777979E-004  0.3217877E+03  0.7818608E-02  0.1074829E+00
         -1   -1    0    0    0  501 -0.00000000000E+00  0.00000000000E+00  0.15341696979E+03  0.15341696979E+03  0.00000000000E+00 0.  1.
          1   -1    0    0  501    0  0.00000000000E+00 -0.00000000000E+00 -0.16873515424E+03  0.16873515424E+03  0.00000000000E+00 0.  1.
         25    1    1    2    0    0  0.47000204871E+02  0.93653863699E+02  0.14877966161E+02  0.16000443532E+03  0.12000000000E+03 0.  0.
         25    1    1    2    0    0 -0.47000204871E+02 -0.93653863699E+02 -0.30196150614E+02  0.16214768871E+03  0.12000000000E+03 0.  0.
<mgrwt>
<rscale>  0 0.32178773E+03</rscale>
<asrwt>0</asrwt>
<pdfrwt beam="1">  1        1 0.25959254E-01 0.32178773E+03</pdfrwt>
<pdfrwt beam="2">  1       -1 0.23602611E-01 0.32178773E+03</pdfrwt>
<totfact> 0.27971267E+03</totfact>
</mgrwt>
</event>
<event>
 4    1  0.1777979E-004  0.3924577E+03  0.7818608E-02  0.1046423E+00
          2   -1    0    0  501    0  0.00000000000E+00  0.00000000000E+00  0.11886916610E+04  0.11886916610E+04  0.00000000000E+00 0. -1.
         -2   -1    0    0    0  501 -0.00000000000E+00 -0.00000000000E+00 -0.32393393068E+02  0.32393393068E+02  0.00000000000E+00 0. -1.
         25    1    1    2    0    0  0.95860586387E+01 -0.14803396878E+03  0.72072396369E+03  0.74555280180E+03  0.12000000000E+03 0.  0.
         25    1    1    2    0    0 -0.95860586387E+01  0.14803396878E+03  0.43557430425E+03  0.47553225227E+03  0.12000000000E+03 0.  0.
<mgrwt>
<rscale>  0 0.39245767E+03</rscale>
<asrwt>0</asrwt>
<pdfrwt beam="1">  1        2 0.18287561E+00 0.39245767E+03</pdfrwt>
<pdfrwt beam="2">  1       -2 0.49835998E-02 0.39245767E+03</pdfrwt>
<totfact> 0.40054134E+03</totfact>
</mgrwt>
</event>
<event>
 4    1  0.1777979E-004  0.2685155E+03  0.7818608E-02  0.1102132E+00
         -1   -1    0    0    0  501 -0.00000000000E+00  0.00000000000E+00  0.14126735481E+03  0.14126735481E+03  0.00000000000E+00 0. -1.
          1   -1    0    0  501    0  0.00000000000E+00 -0.00000000000E+00 -0.12759596316E+03  0.12759596316E+03  0.00000000000E+00 0. -1.
         25    1    1    2    0    0 -0.34954565288E+02  0.24110761302E+02 -0.35904413269E+02  0.13225837341E+03  0.12000000000E+03 0.  0.
         25    1    1    2    0    0  0.34954565288E+02 -0.24110761302E+02  0.49575804924E+02  0.13660494456E+03  0.12000000000E+03 0.  0.
<mgrwt>
<rscale>  0 0.26851551E+03</rscale>
<asrwt>0</asrwt>
<pdfrwt beam="1">  1        1 0.19630148E-01 0.26851551E+03</pdfrwt>
<pdfrwt beam="2">  1       -1 0.21733439E-01 0.26851551E+03</pdfrwt>
<totfact> 0.45655613E+03</totfact>
</mgrwt>
</event>
<event>
 4    1  0.1777979E-004  0.2483037E+03  0.7818608E-02  0.1114382E+00
         -2   -1    0    0    0  501 -0.00000000000E+00  0.00000000000E+00  0.47443013317E+01  0.47443013317E+01  0.00000000000E+00 0. -1.
          2   -1    0    0  501    0  0.00000000000E+00 -0.00000000000E+00 -0.32488846399E+04  0.32488846399E+04  0.00000000000E+00 0. -1.
         25    1    1    2    0    0 -0.89438410467E+01 -0.26058068837E+02 -0.18311806292E+04  0.18353150989E+04  0.12000000000E+03 0.  0.
         25    1    1    2    0    0  0.89438410467E+01  0.26058068837E+02 -0.14129597094E+04  0.14183138424E+04  0.12000000000E+03 0.  0.
<mgrwt>
<rscale>  0 0.24830375E+03</rscale>
<asrwt>0</asrwt>
<pdfrwt beam="1">  1        2 0.49982751E+00 0.24830375E+03</pdfrwt>
<pdfrwt beam="2">  1       -2 0.72989382E-03 0.24830375E+03</pdfrwt>
<totfact> 0.49597438E+03</totfact>
</mgrwt>
</event>
<event>
 4    1  0.1777979E-004  0.3433470E+03  0.7818608E-02  0.1065379E+00
          2   -1    0    0  501    0  0.00000000000E+00  0.00000000000E+00  0.34796699702E+03  0.34796699702E+03  0.00000000000E+00 0.  1.
         -2   -1    0    0    0  501 -0.00000000000E+00 -0.00000000000E+00 -0.84697072454E+02  0.84697072454E+02  0.00000000000E+00 0.  1.
         25    1    1    2    0    0  0.73259448205E+02 -0.88295835168E+02  0.18668843309E+03  0.24983128769E+03  0.12000000000E+03 0.  0.
         25    1    1    2    0    0 -0.73259448205E+02  0.88295835168E+02  0.76581491485E+02  0.18283278179E+03  0.12000000000E+03 0.  0.
<mgrwt>
<rscale>  0 0.34334697E+03</rscale>
<asrwt>0</asrwt>
<pdfrwt beam="1">  1        2 0.53533383E-01 0.34334697E+03</pdfrwt>
<pdfrwt beam="2">  1       -2 0.13030319E-01 0.34334697E+03</pdfrwt>
<totfact> 0.40304885E+03</totfact>
</mgrwt>
</event>
<event>
 4    1  0.1777979E-004  0.2903610E+03  0.7818608E-02  0.1090161E+00
          2   -1    0    0  501    0  0.00000000000E+00  0.00000000000E+00  0.33225179502E+03  0.33225179502E+03  0.00000000000E+00 0.  1.
         -2   -1    0    0    0  501 -0.00000000000E+00 -0.00000000000E+00 -0.63437966429E+02  0.63437966429E+02  0.00000000000E+00 0.  1.
         25    1    1    2    0    0 -0.12377826262E+02  0.57085011412E+02  0.56533482728E+02  0.14494117352E+03  0.12000000000E+03 0.  0.
         25    1    1    2    0    0  0.12377826262E+02 -0.57085011412E+02  0.21228034586E+03  0.25074858793E+03  0.12000000000E+03 0.  0.
<mgrwt>
<rscale>  0 0.29036100E+03</rscale>
<asrwt>0</asrwt>
<pdfrwt beam="1">  1        2 0.51115660E-01 0.29036100E+03</pdfrwt>
<pdfrwt beam="2">  1       -2 0.97596873E-02 0.29036100E+03</pdfrwt>
<totfact> 0.67203853E+03</totfact>
</mgrwt>
</event>
<event>
 4    1  0.1777979E-004  0.2810838E+03  0.7818608E-02  0.1095098E+00
         -1   -1    0    0    0  501 -0.00000000000E+00  0.00000000000E+00  0.23495655542E+03  0.23495655542E+03  0.00000000000E+00 0. -1.
          1   -1    0    0  501    0  0.00000000000E+00 -0.00000000000E+00 -0.84066736439E+02  0.84066736439E+02  0.00000000000E+00 0. -1.
         25    1    1    2    0    0 -0.72703121669E+02  0.78030448887E+01  0.72807608970E+02  0.15826427055E+03  0.12000000000E+03 0.  0.
         25    1    1    2    0    0  0.72703121669E+02 -0.78030448887E+01  0.78082210007E+02  0.16075902130E+03  0.12000000000E+03 0.  0.
<mgrwt>
<rscale>  0 0.28108384E+03</rscale>
<asrwt>0</asrwt>
<pdfrwt beam="1">  1        1 0.12933344E-01 0.28108384E+03</pdfrwt>
<pdfrwt beam="2">  1       -1 0.36147162E-01 0.28108384E+03</pdfrwt>
<totfact> 0.33413904E+03</totfact>
</mgrwt>
</event>
<event>
 4    1  0.1777979E-004  0.3013515E+03  0.7818608E-02  0.1084567E+00
         -2   -1    0    0    0  501 -0.00000000000E+00  0.00000000000E+00  0.37539221753E+02  0.37539221753E+02  0.00000000000E+00 0. -1.
          2   -1    0    0  501    0  0.00000000000E+00 -0.00000000000E+00 -0.60478545497E+03  0.60478545497E+03  0.00000000000E+00 0. -1.
         25    1    1    2    0    0 -0.65323804090E+02 -0.13064110328E+02 -0.15110562967E+03  0.20413422466E+03  0.12000000000E+03 0.  0.
         25    1    1    2    0    0  0.65323804090E+02  0.13064110328E+02 -0.41614060354E+03  0.43819045206E+03  0.12000000000E+03 0.  0.
<mgrwt>
<rscale>  0 0.30135146E+03</rscale>
<asrwt>0</asrwt>
<pdfrwt beam="1">  1        2 0.93043921E-01 0.30135146E+03</pdfrwt>
<pdfrwt beam="2">  1       -2 0.57752646E-02 0.30135146E+03</pdfrwt>
<totfact> 0.78423786E+03</totfact>
</mgrwt>
</event>
<event>
 4    1  0.1777979E-004  0.3568518E+03  0.7818608E-02  0.1059837E+00
          2   -1    0    0  501    0  0.00000000000E+00  0.00000000000E+00  0.53155395143E+02  0.53155395143E+02  0.00000000000E+00 0.  1.
         -2   -1    0    0    0  501 -0.00000000000E+00 -0.00000000000E+00 -0.59891945648E+03  0.59891945648E+03  0.00000000000E+00 0.  1.
         25    1    1    2    0    0 -0.16089350837E+02 -0.43384681595E+02 -0.46896784203E+02  0.13689560320E+03  0.12000000000E+03 0.  0.
         25    1    1    2    0    0  0.16089350837E+02  0.43384681595E+02 -0.49886727713E+03  0.51517924842E+03  0.12000000000E+03 0.  0.
<mgrwt>
<rscale>  0 0.35685179E+03</rscale>
<asrwt>0</asrwt>
<pdfrwt beam="1">  1        2 0.81777533E-02 0.35685179E+03</pdfrwt>
<pdfrwt beam="2">  1       -2 0.92141453E-01 0.35685179E+03</pdfrwt>
<totfact> 0.86149431E+02</totfact>
</mgrwt>
</event>
<event>
 4    1  0.1777979E-004  0.2916258E+03  0.7818608E-02  0.1089503E+00
         -2   -1    0    0    0  501 -0.00000000000E+00  0.00000000000E+00  0.96930482880E+01  0.96930482880E+01  0.00000000000E+00 0.  1.
          2   -1    0    0  501    0  0.00000000000E+00 -0.00000000000E+00 -0.21934687067E+04  0.21934687067E+04  0.00000000000E+00 0.  1.
         25    1    1    2    0    0 -0.13742691548E+01 -0.71988487918E+02 -0.14012795187E+04  0.14082501626E+04  0.12000000000E+03 0.  0.
         25    1    1    2    0    0  0.13742691548E+01  0.71988487918E+02 -0.78249613978E+03  0.79491159243E+03  0.12000000000E+03 0.  0.
<mgrwt>
<rscale>  0 0.29162577E+03</rscale>
<asrwt>0</asrwt>
<pdfrwt beam="1">  1        2 0.33745692E+00 0.29162577E+03</pdfrwt>
<pdfrwt beam="2">  1       -2 0.14912373E-02 0.29162577E+03</pdfrwt>
<totfact> 0.69862492E+03</totfact>
</mgrwt>
</event>
<event>
 4    1  0.1777979E-004  0.4118239E+03  0.7818608E-02  0.1039761E+00
          2   -1    0    0  501    0  0.00000000000E+00  0.00000000000E+00  0.19354047683E+04  0.19354047683E+04  0.00000000000E+00 0. -1.
         -2   -1    0    0    0  501 -0.00000000000E+00 -0.00000000000E+00 -0.21907423426E+02  0.21907423426E+02  0.00000000000E+00 0. -1.
         25    1    1    2    0    0  0.16628745662E+03  0.20812345632E+01  0.86861268606E+03  0.89249305215E+03  0.12000000000E+03 0.  0.
         25    1    1    2    0    0 -0.16628745662E+03 -0.20812345632E+01  0.10448846588E+04  0.10648191396E+04  0.12000000000E+03 0.  0.
<mgrwt>
<rscale>  0 0.41182390E+03</rscale>
<asrwt>0</asrwt>
<pdfrwt beam="1">  1        2 0.29775445E+00 0.41182390E+03</pdfrwt>
<pdfrwt beam="2">  1       -2 0.33703744E-02 0.41182390E+03</pdfrwt>
<totfact> 0.28436372E+03</totfact>
</mgrwt>
</event>
<event>
 4    1  0.1777979E-004  0.2568637E+03  0.7818608E-02  0.1109042E+00
         -1   -1    0    0    0  501 -0.00000000000E+00  0.00000000000E+00  0.26241952340E+03  0.26241952340E+03  0.00000000000E+00 0. -1.
          1   -1    0    0  501    0  0.00000000000E+00 -0.00000000000E+00 -0.62856375029E+02  0.62856375029E+02  0.00000000000E+00 0. -1.
         25    1    1    2    0    0  0.21361359992E+02  0.40403230674E+02  0.96676794597E+02  0.16073310600E+03  0.12000000000E+03 0.  0.
         25    1    1    2    0    0 -0.21361359992E+02 -0.40403230674E+02  0.10288635378E+03  0.16454279244E+03  0.12000000000E+03 0.  0.
<mgrwt>
<rscale>  0 0.25686370E+03</rscale>
<asrwt>0</asrwt>
<pdfrwt beam="1">  1        1 0.96702117E-02 0.25686370E+03</pdfrwt>
<pdfrwt beam="2">  1       -1 0.40372234E-01 0.25686370E+03</pdfrwt>
<totfact> 0.40437684E+03</totfact>
</mgrwt>
</event>
<event>
 4    1  0.1777979E-004  0.2564067E+03  0.7818608E-02  0.1109322E+00
         -2   -1    0    0    0  501 -0.00000000000E+00  0.00000000000E+00  0.28742887290E+03  0.28742887290E+03  0.00000000000E+00 0. -1.
          2   -1    0    0  501    0  0.00000000000E+00 -0.00000000000E+00 -0.57183166920E+02  0.57183166920E+02  0.00000000000E+00 0. -1.
         25    1    1    2    0    0 -0.86399338751E+01 -0.29638024997E+02  0.70892353466E+02  0.14275428807E+03  0.12000000000E+03 0.  0.
         25    1    1    2    0    0  0.86399338751E+01  0.29638024997E+02  0.15935335251E+03  0.20185775174E+03  0.12000000000E+03 0.  0.
<mgrwt>
<rscale>  0 0.25640666E+03</rscale>
<asrwt>0</asrwt>
<pdfrwt beam="1">  1        2 0.87974105E-02 0.25640666E+03</pdfrwt>
<pdfrwt beam="2">  1       -2 0.44219826E-01 0.25640666E+03</pdfrwt>
<totfact> 0.36631286E+03</totfact>
</mgrwt>
</event>
<event>
 4    1  0.1777979E-004  0.4153800E+03  0.7818608E-02  0.1038581E+00
         -2   -1    0    0    0  501 -0.00000000000E+00  0.00000000000E+00  0.24159483495E+02  0.24159483495E+02  0.00000000000E+00 0.  1.
          2   -1    0    0  501    0  0.00000000000E+00 -0.00000000000E+00 -0.17854330881E+04  0.17854330881E+04  0.00000000000E+00 0.  1.
         25    1    1    2    0    0  0.13799087627E+03  0.92096664051E+02 -0.72897992965E+03  0.75718889010E+03  0.12000000000E+03 0.  0.
         25    1    1    2    0    0 -0.13799087627E+03 -0.92096664051E+02 -0.10322936750E+04  0.10524036815E+04  0.12000000000E+03 0.  0.
<mgrwt>
<rscale>  0 0.41538002E+03</rscale>
<asrwt>0</asrwt>
<pdfrwt beam="1">  1        2 0.27468201E+00 0.41538002E+03</pdfrwt>
<pdfrwt beam="2">  1       -2 0.37168436E-02 0.41538002E+03</pdfrwt>
<totfact> 0.29474893E+03</totfact>
</mgrwt>
</event>
<event>
 4    1  0.1777979E-004  0.2879931E+03  0.7818608E-02  0.1091402E+00
          2   -1    0    0  501    0  0.00000000000E+00  0.00000000000E+00  0.27751095589E+03  0.27751095589E+03  0.00000000000E+00 0.  1.
         -2   -1    0    0    0  501 -0.00000000000E+00 -0.00000000000E+00 -0.74717817928E+02  0.74717817928E+02  0.00000000000E+00 0.  1.
         25    1    1    2    0    0 -0.21367978578E+00  0.69733499926E+02  0.14832402699E+03  0.20313252732E+03  0.12000000000E+03 0.  0.
         25    1    1    2    0    0  0.21367978578E+00 -0.69733499926E+02  0.54469110971E+02  0.14909624650E+03  0.12000000000E+03 0.  0.
<mgrwt>
<rscale>  0 0.28799315E+03</rscale>
<asrwt>0</asrwt>
<pdfrwt beam="1">  1        2 0.42693993E-01 0.28799315E+03</pdfrwt>
<pdfrwt beam="2">  1       -2 0.11495049E-01 0.28799315E+03</pdfrwt>
<totfact> 0.62788509E+03</totfact>
</mgrwt>
</event>
<event>
 4    1  0.1777979E-004  0.3498417E+03  0.7818608E-02  0.1062680E+00
         -2   -1    0    0    0  501 -0.00000000000E+00  0.00000000000E+00  0.13355709820E+02  0.13355709820E+02  0.00000000000E+00 0. -1.
          2   -1    0    0  501    0  0.00000000000E+00 -0.00000000000E+00 -0.22909533113E+04  0.22909533113E+04  0.00000000000E+00 0. -1.
         25    1    1    2    0    0 -0.73225075659E+02  0.99754278775E+02 -0.13346891664E+04  0.13457741262E+04  0.12000000000E+03 0.  0.
         25    1    1    2    0    0  0.73225075659E+02 -0.99754278775E+02 -0.94290843510E+03  0.95853489494E+03  0.12000000000E+03 0.  0.
<mgrwt>
<rscale>  0 0.34984172E+03</rscale>
<asrwt>0</asrwt>
<pdfrwt beam="1">  1        2 0.35245431E+00 0.34984172E+03</pdfrwt>
<pdfrwt beam="2">  1       -2 0.20547249E-02 0.34984172E+03</pdfrwt>
<totfact> 0.38560322E+03</totfact>
</mgrwt>
</event>
<event>
 4    1  0.1777979E-004  0.3151984E+03  0.7818608E-02  0.1077881E+00
          2   -1    0    0  501    0  0.00000000000E+00  0.00000000000E+00  0.92265822964E+03  0.92265822964E+03  0.00000000000E+00 0.  1.
         -2   -1    0    0    0  501 -0.00000000000E+00 -0.00000000000E+00 -0.26919507565E+02  0.26919507565E+02  0.00000000000E+00 0.  1.
         25    1    1    2    0    0 -0.94519128050E+02 -0.33638145490E+02  0.50598392868E+03  0.52960846526E+03  0.12000000000E+03 0.  0.
         25    1    1    2    0    0  0.94519128050E+02  0.33638145490E+02  0.38975479340E+03  0.41996927194E+03  0.12000000000E+03 0.  0.
<mgrwt>
<rscale>  0 0.31519838E+03</rscale>
<asrwt>0</asrwt>
<pdfrwt beam="1">  1        2 0.14194740E+00 0.31519838E+03</pdfrwt>
<pdfrwt beam="2">  1       -2 0.41414634E-02 0.31519838E+03</pdfrwt>
<totfact> 0.76756007E+03</totfact>
</mgrwt>
</event>
<event>
 4    1  0.1777979E-004  0.2802171E+03  0.7818608E-02  0.1095570E+00
          2   -1    0    0  501    0  0.00000000000E+00  0.00000000000E+00  0.27321997665E+04  0.27321997665E+04  0.00000000000E+00 0. -1.
         -2   -1    0    0    0  501 -0.00000000000E+00 -0.00000000000E+00 -0.71848370539E+01  0.71848370539E+01  0.00000000000E+00 0. -1.
         25    1    1    2    0    0  0.22012443110E+02 -0.68577545429E+02  0.12984152411E+04  0.13059362794E+04  0.12000000000E+03 0.  0.
         25    1    1    2    0    0 -0.22012443110E+02  0.68577545429E+02  0.14265996884E+04  0.14334483242E+04  0.12000000000E+03 0.  0.
<mgrwt>
<rscale>  0 0.28021713E+03</rscale>
<asrwt>0</asrwt>
<pdfrwt beam="1">  1        2 0.42033760E+00 0.28021713E+03</pdfrwt>
<pdfrwt beam="2">  1       -2 0.11053617E-02 0.28021713E+03</pdfrwt>
<totfact> 0.54865760E+03</totfact>
</mgrwt>
</event>
<event>
 4    1  0.1777979E-004  0.3069816E+03  0.7818608E-02  0.1081802E+00
         -2   -1    0    0    0  501 -0.00000000000E+00  0.00000000000E+00  0.10061675869E+02  0.10061675869E+02  0.00000000000E+00 0.  1.
          2   -1    0    0  501    0  0.00000000000E+00 -0.00000000000E+00 -0.23415014586E+04  0.23415014586E+04  0.00000000000E+00 0.  1.
         25    1    1    2    0    0  0.24083906910E+02 -0.59318469812E+02 -0.62077807308E+03  0.63550305384E+03  0.12000000000E+03 0.  0.
         25    1    1    2    0    0 -0.24083906910E+02  0.59318469812E+02 -0.17106617096E+04  0.17160600806E+04  0.12000000000E+03 0.  0.
<mgrwt>
<rscale>  0 0.30698162E+03</rscale>
<asrwt>0</asrwt>
<pdfrwt beam="1">  1        2 0.36023123E+00 0.30698162E+03</pdfrwt>
<pdfrwt beam="2">  1       -2 0.15479491E-02 0.30698162E+03</pdfrwt>
<totfact> 0.55075271E+03</totfact>
</mgrwt>
</event>
<event>
 4    1  0.1777979E-004  0.3150724E+03  0.7818608E-02  0.1077940E+00
          2   -1    0    0  501    0  0.00000000000E+00  0.00000000000E+00  0.14470268113E+04  0.14470268113E+04  0.00000000000E+00 0.  1.
         -2   -1    0    0    0  501 -0.00000000000E+00 -0.00000000000E+00 -0.17150789524E+02  0.17150789524E+02  0.00000000000E+00 0.  1.
         25    1    1    2    0    0  0.11439402553E+02  0.42875472004E+02  0.28779543135E+03  0.31495297480E+03  0.12000000000E+03 0.  0.
         25    1    1    2    0    0 -0.11439402553E+02 -0.42875472004E+02  0.11420805905E+04  0.11492246261E+04  0.12000000000E+03 0.  0.
<mgrwt>
<rscale>  0 0.31507239E+03</rscale>
<asrwt>0</asrwt>
<pdfrwt beam="1">  1        2 0.22261941E+00 0.31507239E+03</pdfrwt>
<pdfrwt beam="2">  1       -2 0.26385841E-02 0.31507239E+03</pdfrwt>
<totfact> 0.74919789E+03</totfact>
</mgrwt>
</event>
<event>
 4    1  0.1777979E-004  0.3605798E+03  0.7818608E-02  0.1058355E+00
          2   -1    0    0  501    0  0.00000000000E+00  0.00000000000E+00  0.26565694399E+02  0.26565694399E+02  0.00000000000E+00 0.  1.
         -2   -1    0    0    0  501 -0.00000000000E+00 -0.00000000000E+00 -0.12235497495E+04  0.12235497495E+04  0.00000000000E+00 0.  1.
         25    1    1    2    0    0 -0.28899729538E+02 -0.12556485572E+03 -0.73288852584E+03  0.75374220969E+03  0.12000000000E+03 0.  0.
         25    1    1    2    0    0  0.28899729538E+02  0.12556485572E+03 -0.46409552923E+03  0.49637323418E+03  0.12000000000E+03 0.  0.
<mgrwt>
<rscale>  0 0.36057980E+03</rscale>
<asrwt>0</asrwt>
<pdfrwt beam="1">  1        2 0.40870309E-02 0.36057980E+03</pdfrwt>
<pdfrwt beam="2">  1       -2 0.18823838E+00 0.36057980E+03</pdfrwt>
<totfact> 0.35410897E+02</totfact>
</mgrwt>
</event>
<event>
 4    1  0.1777979E-004  0.2742702E+03  0.7818608E-02  0.1098860E+00
          1   -1    0    0  501    0  0.00000000000E+00  0.00000000000E+00  0.11319850762E+03  0.11319850762E+03  0.00000000000E+00 0.  1.
         -1   -1    0    0    0  501 -0.00000000000E+00 -0.00000000000E+00 -0.16613323476E+03  0.16613323476E+03  0.00000000000E+00 0.  1.
         25    1    1    2    0    0 -0.20479870285E+02  0.50711524740E+02 -0.64777376045E+02  0.14692580534E+03  0.12000000000E+03 0.  0.
         25    1    1    2    0    0  0.20479870285E+02 -0.50711524740E+02  0.11842648903E+02  0.13240593703E+03  0.12000000000E+03 0.  0.
<mgrwt>
<rscale>  0 0.27427019E+03</rscale>
<asrwt>0</asrwt>
<pdfrwt beam="1">  1        1 0.17415155E-01 0.27427019E+03</pdfrwt>
<pdfrwt beam="2">  1       -1 0.25558959E-01 0.27427019E+03</pdfrwt>
<totfact> 0.40808170E+03</totfact>
</mgrwt>
</event>
<event>
 4    1  0.1777979E-004  0.3004996E+03  0.7818608E-02  0.1084991E+00
          1   -1    0    0  501    0  0.00000000000E+00  0.00000000000E+00  0.14218862453E+04  0.14218862453E+04  0.00000000000E+00 0.  1.
         -1   -1    0    0    0  501 -0.00000000000E+00 -0.00000000000E+00 -0.15876798750E+02  0.15876798750E+02  0.00000000000E+00 0.  1.
         25    1    1    2    0    0 -0.22066652835E+02 -0.43544725841E+02  0.10671332934E+04  0.10749681606E+04  0.12000000000E+03 0.  0.
         25    1    1    2    0    0  0.22066652835E+02  0.43544725841E+02  0.33887615308E+03  0.36279488342E+03  0.12000000000E+03 0.  0.
<mgrwt>
<rscale>  0 0.30049960E+03</rscale>
<asrwt>0</asrwt>
<pdfrwt beam="1">  1        1 0.21875163E+00 0.30049960E+03</pdfrwt>
<pdfrwt beam="2">  1       -1 0.24425856E-02 0.30049960E+03</pdfrwt>
<totfact> 0.41286304E+03</totfact>
</mgrwt>
</event>
<event>
 4    1  0.1777979E-004  0.2894116E+03  0.7818608E-02  0.1090657E+00
         -1   -1    0    0    0  501 -0.00000000000E+00  0.00000000000E+00  0.32781401211E+02  0.32781401211E+02  0.00000000000E+00 0. -1.
          1   -1    0    0  501    0  0.00000000000E+00 -0.00000000000E+00 -0.63876958673E+03  0.63876958673E+03  0.00000000000E+00 0. -1.
         25    1    1    2    0    0  0.46917525038E+02  0.18228170026E+02 -0.44986362175E+03  0.46830630843E+03  0.12000000000E+03 0.  0.
         25    1    1    2    0    0 -0.46917525038E+02 -0.18228170026E+02 -0.15612456377E+03  0.20324467951E+03  0.12000000000E+03 0.  0.
<mgrwt>
<rscale>  0 0.28941156E+03</rscale>
<asrwt>0</asrwt>
<pdfrwt beam="1">  1        1 0.98272235E-01 0.28941156E+03</pdfrwt>
<pdfrwt beam="2">  1       -1 0.50432930E-02 0.28941156E+03</pdfrwt>
<totfact> 0.55845133E+03</totfact>
</mgrwt>
</event>
<event>
 4    1  0.1777979E-004  0.2561832E+03  0.7818608E-02  0.1109458E+00
          4   -1    0    0  501    0  0.00000000000E+00  0.00000000000E+00  0.22237916421E+03  0.22237916421E+03  0.00000000000E+00 0.  1.
         -4   -1    0    0    0  501 -0.00000000000E+00 -0.00000000000E+00 -0.73781435072E+02  0.73781435072E+02  0.00000000000E+00 0.  1.
         25    1    1    2    0    0 -0.38732876913E+02  0.13320480160E+02  0.53305078467E+02  0.13754672783E+03  0.12000000000E+03 0.  0.
         25    1    1    2    0    0  0.38732876913E+02 -0.13320480160E+02  0.95292650668E+02  0.15861387145E+03  0.12000000000E+03 0.  0.
<mgrwt>
<rscale>  0 0.25618317E+03</rscale>
<asrwt>0</asrwt>
<pdfrwt beam="1">  1        4 0.34212179E-01 0.25618317E+03</pdfrwt>
<pdfrwt beam="2">  1       -4 0.11350990E-01 0.25618317E+03</pdfrwt>
<totfact> 0.93799427E+02</totfact>
</mgrwt>
</event>
<event>
 4    1  0.1777979E-004  0.3066252E+03  0.7818608E-02  0.1081975E+00
          2   -1    0    0  501    0  0.00000000000E+00  0.00000000000E+00  0.42246987307E+02  0.42246987307E+02  0.00000000000E+00 0.  1.
         -2   -1    0    0    0  501 -0.00000000000E+00 -0.00000000000E+00 -0.55636508765E+03  0.55636508765E+03  0.00000000000E+00 0.  1.
         25    1    1    2    0    0  0.15945183052E+02 -0.72724503077E+02 -0.14054908247E+03  0.19924142840E+03  0.12000000000E+03 0.  0.
         25    1    1    2    0    0 -0.15945183052E+02  0.72724503077E+02 -0.37356901788E+03  0.39937064655E+03  0.12000000000E+03 0.  0.
<mgrwt>
<rscale>  0 0.30662517E+03</rscale>
<asrwt>0</asrwt>
<pdfrwt beam="1">  1        2 0.64995364E-02 0.30662517E+03</pdfrwt>
<pdfrwt beam="2">  1       -2 0.85594631E-01 0.30662517E+03</pdfrwt>
<totfact> 0.13658962E+03</totfact>
</mgrwt>
</event>
<event>
 4    1  0.1777979E-004  0.3430765E+03  0.7818608E-02  0.1065493E+00
         -2   -1    0    0    0  501 -0.00000000000E+00  0.00000000000E+00  0.34932785411E+03  0.34932785411E+03  0.00000000000E+00 0. -1.
          2   -1    0    0  501    0  0.00000000000E+00 -0.00000000000E+00 -0.84234262744E+02  0.84234262744E+02  0.00000000000E+00 0. -1.
         25    1    1    2    0    0  0.98165381873E+02  0.72814988447E+02  0.14432811633E+03  0.22398453050E+03  0.12000000000E+03 0.  0.
         25    1    1    2    0    0 -0.98165381873E+02 -0.72814988447E+02  0.12076547504E+03  0.20957758636E+03  0.12000000000E+03 0.  0.
<mgrwt>
<rscale>  0 0.34307652E+03</rscale>
<asrwt>0</asrwt>
<pdfrwt beam="1">  1        2 0.12959117E-01 0.34307652E+03</pdfrwt>
<pdfrwt beam="2">  1       -2 0.53742746E-01 0.34307652E+03</pdfrwt>
<totfact> 0.15508373E+03</totfact>
</mgrwt>
</event>
<event>
 4    1  0.1777979E-004  0.2559135E+03  0.7818608E-02  0.1109624E+00
          1   -1    0    0  501    0  0.00000000000E+00  0.00000000000E+00  0.27239815286E+03  0.27239815286E+03  0.00000000000E+00 0.  1.
         -1   -1    0    0    0  501 -0.00000000000E+00 -0.00000000000E+00 -0.60106610194E+02  0.60106610194E+02  0.00000000000E+00 0.  1.
         25    1    1    2    0    0 -0.41977188468E+02  0.11093878154E+02  0.93973252186E+02  0.15848069476E+03  0.12000000000E+03 0.  0.
         25    1    1    2    0    0  0.41977188468E+02 -0.11093878154E+02  0.11831829048E+03  0.17402406829E+03  0.12000000000E+03 0.  0.
<mgrwt>
<rscale>  0 0.25591350E+03</rscale>
<asrwt>0</asrwt>
<pdfrwt beam="1">  1        1 0.41907408E-01 0.25591350E+03</pdfrwt>
<pdfrwt beam="2">  1       -1 0.92471709E-02 0.25591350E+03</pdfrwt>
<totfact> 0.67417092E+03</totfact>
</mgrwt>
</event>
<event>
 4    1  0.1777979E-004  0.2810585E+03  0.7818608E-02  0.1095112E+00
         -3   -1    0    0    0  501 -0.00000000000E+00  0.00000000000E+00  0.17557296900E+03  0.17557296900E+03  0.00000000000E+00 0.  1.
          3   -1    0    0  501    0  0.00000000000E+00 -0.00000000000E+00 -0.11248012130E+03  0.11248012130E+03  0.00000000000E+00 0.  1.
         25    1    1    2    0    0  0.67983500111E+02 -0.12984655271E+02  0.55758734204E+02  0.14932981618E+03  0.12000000000E+03 0.  0.
         25    1    1    2    0    0 -0.67983500111E+02  0.12984655271E+02  0.73341134974E+01  0.13872327411E+03  0.12000000000E+03 0.  0.
<mgrwt>
<rscale>  0 0.28105849E+03</rscale>
<asrwt>0</asrwt>
<pdfrwt beam="1">  1        3 0.17304634E-01 0.28105849E+03</pdfrwt>
<pdfrwt beam="2">  1       -3 0.27011226E-01 0.28105849E+03</pdfrwt>
<totfact> 0.96254372E+02</totfact>
</mgrwt>
</event>
<event>
 4    1  0.1777979E-004  0.2839727E+03  0.7818608E-02  0.1093539E+00
          2   -1    0    0  501    0  0.00000000000E+00  0.00000000000E+00  0.87075560111E+02  0.87075560111E+02  0.00000000000E+00 0.  1.
         -2   -1    0    0    0  501 -0.00000000000E+00 -0.00000000000E+00 -0.23152452142E+03  0.23152452142E+03  0.00000000000E+00 0.  1.
         25    1    1    2    0    0 -0.63350335729E+02 -0.34288406352E+02 -0.99037826399E+02  0.17145684852E+03  0.12000000000E+03 0.  0.
         25    1    1    2    0    0  0.63350335729E+02  0.34288406352E+02 -0.45411134912E+02  0.14714323301E+03  0.12000000000E+03 0.  0.
<mgrwt>
<rscale>  0 0.28397273E+03</rscale>
<asrwt>0</asrwt>
<pdfrwt beam="1">  1        2 0.13396240E-01 0.28397273E+03</pdfrwt>
<pdfrwt beam="2">  1       -2 0.35619157E-01 0.28397273E+03</pdfrwt>
<totfact> 0.33089626E+03</totfact>
</mgrwt>
</event>
<event>
 4    1  0.1777979E-004  0.3453515E+03  0.7818608E-02  0.1064539E+00
          1   -1    0    0  501    0  0.00000000000E+00  0.00000000000E+00  0.47627968086E+03  0.47627968086E+03  0.00000000000E+00 0.  1.
         -1   -1    0    0    0  501 -0.00000000000E+00 -0.00000000000E+00 -0.62603810740E+02  0.62603810740E+02  0.00000000000E+00 0.  1.
         25    1    1    2    0    0 -0.91256716656E+02  0.13937958565E+02  0.77270324660E+02  0.16997869895E+03  0.12000000000E+03 0.  0.
         25    1    1    2    0    0  0.91256716656E+02 -0.13937958565E+02  0.33640554546E+03  0.36890479265E+03  0.12000000000E+03 0.  0.
<mgrwt>
<rscale>  0 0.34535155E+03</rscale>
<asrwt>0</asrwt>
<pdfrwt beam="1">  1        1 0.73273795E-01 0.34535155E+03</pdfrwt>
<pdfrwt beam="2">  1       -1 0.96313558E-02 0.34535155E+03</pdfrwt>
<totfact> 0.31222628E+03</totfact>
</mgrwt>
</event>
<event>
 4    1  0.1777979E-004  0.2611674E+03  0.7818608E-02  0.1106444E+00
         -2   -1    0    0    0  501 -0.00000000000E+00  0.00000000000E+00  0.62265228047E+01  0.62265228047E+01  0.00000000000E+00 0. -1.
          2   -1    0    0  501    0  0.00000000000E+00 -0.00000000000E+00 -0.27386234398E+04  0.27386234398E+04  0.00000000000E+00 0. -1.
         25    1    1    2    0    0  0.14674047869E+02  0.48872702972E+02 -0.14391895169E+04  0.14450848883E+04  0.12000000000E+03 0.  0.
         25    1    1    2    0    0 -0.14674047869E+02 -0.48872702972E+02 -0.12932074001E+04  0.12997650744E+04  0.12000000000E+03 0.  0.
<mgrwt>
<rscale>  0 0.26116739E+03</rscale>
<asrwt>0</asrwt>
<pdfrwt beam="1">  1        2 0.42132585E+00 0.26116739E+03</pdfrwt>
<pdfrwt beam="2">  1       -2 0.95792848E-03 0.26116739E+03</pdfrwt>
<totfact> 0.67038650E+03</totfact>
</mgrwt>
</event>
<event>
 4    1  0.1777979E-004  0.2891888E+03  0.7818608E-02  0.1090773E+00
          1   -1    0    0  501    0  0.00000000000E+00  0.00000000000E+00  0.66517874473E+02  0.66517874473E+02  0.00000000000E+00 0. -1.
         -1   -1    0    0    0  501 -0.00000000000E+00 -0.00000000000E+00 -0.31431469443E+03  0.31431469443E+03  0.00000000000E+00 0. -1.
         25    1    1    2    0    0 -0.22183995219E+02 -0.76698175889E+02 -0.10872229209E+03  0.18054162021E+03  0.12000000000E+03 0.  0.
         25    1    1    2    0    0  0.22183995219E+02  0.76698175889E+02 -0.13907452786E+03  0.20029094869E+03  0.12000000000E+03 0.  0.
<mgrwt>
<rscale>  0 0.28918883E+03</rscale>
<asrwt>0</asrwt>
<pdfrwt beam="1">  1        1 0.10233519E-01 0.28918883E+03</pdfrwt>
<pdfrwt beam="2">  1       -1 0.48356106E-01 0.28918883E+03</pdfrwt>
<totfact> 0.27137047E+03</totfact>
</mgrwt>
</event>
<event>
 4    1  0.1777979E-004  0.2873435E+03  0.7818608E-02  0.1091744E+00
          1   -1    0    0  501    0  0.00000000000E+00  0.00000000000E+00  0.42659574773E+03  0.42659574773E+03  0.00000000000E+00 0. -1.
         -1   -1    0    0    0  501 -0.00000000000E+00 -0.00000000000E+00 -0.48386722027E+02  0.48386722027E+02  0.00000000000E+00 0. -1.
         25    1    1    2    0    0  0.19108892670E+02  0.76540835616E+02  0.19610216102E+03  0.24306317461E+03  0.12000000000E+03 0.  0.
         25    1    1    2    0    0 -0.19108892670E+02 -0.76540835616E+02  0.18210686468E+03  0.23191929514E+03  0.12000000000E+03 0.  0.
<mgrwt>
<rscale>  0 0.28734349E+03</rscale>
<asrwt>0</asrwt>
<pdfrwt beam="1">  1        1 0.65630113E-01 0.28734349E+03</pdfrwt>
<pdfrwt beam="2">  1       -1 0.74441114E-02 0.28734349E+03</pdfrwt>
<totfact> 0.53398582E+03</totfact>
</mgrwt>
</event>
<event>
 4    1  0.1777979E-004  0.2883550E+03  0.7818608E-02  0.1091211E+00
          2   -1    0    0  501    0  0.00000000000E+00  0.00000000000E+00  0.44862308743E+03  0.44862308743E+03  0.00000000000E+00 0. -1.
         -2   -1    0    0    0  501 -0.00000000000E+00 -0.00000000000E+00 -0.46335453525E+02  0.46335453525E+02  0.00000000000E+00 0. -1.
         25    1    1    2    0    0 -0.66909925516E+02 -0.28304210388E+02  0.14397959928E+03  0.20101788842E+03  0.12000000000E+03 0.  0.
         25    1    1    2    0    0  0.66909925516E+02  0.28304210388E+02  0.25830803463E+03  0.29394065253E+03  0.12000000000E+03 0.  0.
<mgrwt>
<rscale>  0 0.28835502E+03</rscale>
<asrwt>0</asrwt>
<pdfrwt beam="1">  1        2 0.69018934E-01 0.28835502E+03</pdfrwt>
<pdfrwt beam="2">  1       -2 0.71285316E-02 0.28835502E+03</pdfrwt>
<totfact> 0.79348831E+03</totfact>
</mgrwt>
</event>
<event>
 4    1  0.1777979E-004  0.2841446E+03  0.7818608E-02  0.1093447E+00
          2   -1    0    0  501    0  0.00000000000E+00  0.00000000000E+00  0.98478933429E+03  0.98478933429E+03  0.00000000000E+00 0. -1.
         -2   -1    0    0    0  501 -0.00000000000E+00 -0.00000000000E+00 -0.20496305284E+02  0.20496305284E+02  0.00000000000E+00 0. -1.
         25    1    1    2    0    0 -0.48210307275E+02  0.45175738287E+02  0.61544090585E+03  0.63050185539E+03  0.12000000000E+03 0.  0.
         25    1    1    2    0    0  0.48210307275E+02 -0.45175738287E+02  0.34885212316E+03  0.37478378419E+03  0.12000000000E+03 0.  0.
<mgrwt>
<rscale>  0 0.28414463E+03</rscale>
<asrwt>0</asrwt>
<pdfrwt beam="1">  1        2 0.15150602E+00 0.28414463E+03</pdfrwt>
<pdfrwt beam="2">  1       -2 0.31532785E-02 0.28414463E+03</pdfrwt>
<totfact> 0.10536068E+04</totfact>
</mgrwt>
</event>
<event>
 4    1  0.1777979E-004  0.3548974E+03  0.7818608E-02  0.1060623E+00
         -1   -1    0    0    0  501 -0.00000000000E+00  0.00000000000E+00  0.41113368591E+02  0.41113368591E+02  0.00000000000E+00 0. -1.
          1   -1    0    0  501    0  0.00000000000E+00 -0.00000000000E+00 -0.76588312066E+03  0.76588312066E+03  0.00000000000E+00 0. -1.
         25    1    1    2    0    0  0.76385167092E+02  0.87808343755E+02 -0.49773437595E+03  0.52505667122E+03  0.12000000000E+03 0.  0.
         25    1    1    2    0    0 -0.76385167092E+02 -0.87808343755E+02 -0.22703537611E+03  0.28193981803E+03  0.12000000000E+03 0.  0.
<mgrwt>
<rscale>  0 0.35489737E+03</rscale>
<asrwt>0</asrwt>
<pdfrwt beam="1">  1        1 0.11782816E+00 0.35489737E+03</pdfrwt>
<pdfrwt beam="2">  1       -1 0.63251342E-02 0.35489737E+03</pdfrwt>
<totfact> 0.30476486E+03</totfact>
</mgrwt>
</event>
<event>
 4    1  0.1777979E-004  0.2979879E+03  0.7818608E-02  0.1086251E+00
          2   -1    0    0  501    0  0.00000000000E+00  0.00000000000E+00  0.14234736603E+04  0.14234736603E+04  0.00000000000E+00 0.  1.
         -2   -1    0    0    0  501 -0.00000000000E+00 -0.00000000000E+00 -0.15595086757E+02  0.15595086757E+02  0.00000000000E+00 0.  1.
         25    1    1    2    0    0 -0.69254760048E+01 -0.87260439620E+02  0.64744516644E+03  0.66426469881E+03  0.12000000000E+03 0.  0.
         25    1    1    2    0    0  0.69254760048E+01  0.87260439620E+02  0.76043340713E+03  0.77480404827E+03  0.12000000000E+03 0.  0.
<mgrwt>
<rscale>  0 0.29798789E+03</rscale>
<asrwt>0</asrwt>
<pdfrwt beam="1">  1        2 0.21899584E+00 0.29798789E+03</pdfrwt>
<pdfrwt beam="2">  1       -2 0.23992452E-02 0.29798789E+03</pdfrwt>
<totfact> 0.88786361E+03</totfact>
</mgrwt>
</event>
<event>
 4    1  0.1777979E-004  0.2441896E+03  0.7818608E-02  0.1117033E+00
         -2   -1    0    0    0  501 -0.00000000000E+00  0.00000000000E+00  0.13779149875E+02  0.13779149875E+02  0.00000000000E+00 0.  1.
          2   -1    0    0  501    0  0.00000000000E+00 -0.00000000000E+00 -0.10818622550E+04  0.10818622550E+04  0.00000000000E+00 0.  1.
         25    1    1    2    0    0  0.13992367416E+02 -0.78643935753E+01 -0.46316824213E+03  0.47873004454E+03  0.12000000000E+03 0.  0.
         25    1    1    2    0    0 -0.13992367416E+02  0.78643935753E+01 -0.60491486302E+03  0.61691136036E+03  0.12000000000E+03 0.  0.
<mgrwt>
<rscale>  0 0.24418962E+03</rscale>
<asrwt>0</asrwt>
<pdfrwt beam="1">  1        2 0.16644043E+00 0.24418962E+03</pdfrwt>
<pdfrwt beam="2">  1       -2 0.21198682E-02 0.24418962E+03</pdfrwt>
<totfact> 0.16487216E+04</totfact>
</mgrwt>
</event>
<event>
 4    1  0.1777979E-004  0.2618380E+03  0.7818608E-02  0.1106044E+00
         -1   -1    0    0    0  501 -0.00000000000E+00  0.00000000000E+00  0.85704851689E+01  0.85704851689E+01  0.00000000000E+00 0.  1.
          1   -1    0    0  501    0  0.00000000000E+00 -0.00000000000E+00 -0.19998622485E+04  0.19998622485E+04  0.00000000000E+00 0.  1.
         25    1    1    2    0    0 -0.43821119521E+02  0.76569999108E+01 -0.12072283405E+04  0.12139930751E+04  0.12000000000E+03 0.  0.
         25    1    1    2    0    0  0.43821119521E+02 -0.76569999108E+01 -0.78406342279E+03  0.79443965857E+03  0.12000000000E+03 0.  0.
<mgrwt>
<rscale>  0 0.26183804E+03</rscale>
<asrwt>0</asrwt>
<pdfrwt beam="1">  1        1 0.30767106E+00 0.26183804E+03</pdfrwt>
<pdfrwt beam="2">  1       -1 0.13185364E-02 0.26183804E+03</pdfrwt>
<totfact> 0.42484926E+03</totfact>
</mgrwt>
</event>
<event>
 4    1  0.1777979E-004  0.3915550E+03  0.7818608E-02  0.1046744E+00
          2   -1    0    0  501    0  0.00000000000E+00  0.00000000000E+00  0.60561273347E+03  0.60561273347E+03  0.00000000000E+00 0. -1.
         -2   -1    0    0    0  501 -0.00000000000E+00 -0.00000000000E+00 -0.63289338028E+02  0.63289338028E+02  0.00000000000E+00 0. -1.
         25    1    1    2    0    0 -0.10881595176E+03 -0.74036717010E+02  0.13230881402E+03  0.22187376837E+03  0.12000000000E+03 0.  0.
         25    1    1    2    0    0  0.10881595176E+03  0.74036717010E+02  0.41001458142E+03  0.44702830313E+03  0.12000000000E+03 0.  0.
<mgrwt>
<rscale>  0 0.39155500E+03</rscale>
<asrwt>0</asrwt>
<pdfrwt beam="1">  1        2 0.93171186E-01 0.39155500E+03</pdfrwt>
<pdfrwt beam="2">  1       -2 0.97368216E-02 0.39155500E+03</pdfrwt>
<totfact> 0.34754125E+03</totfact>
</mgrwt>
</event>
<event>
 4    1  0.1777979E-004  0.2730604E+03  0.7818608E-02  0.1099541E+00
          2   -1    0    0  501    0  0.00000000000E+00  0.00000000000E+00  0.32187760047E+03  0.32187760047E+03  0.00000000000E+00 0. -1.
         -2   -1    0    0    0  501 -0.00000000000E+00 -0.00000000000E+00 -0.57911766154E+02  0.57911766154E+02  0.00000000000E+00 0. -1.
         25    1    1    2    0    0  0.42299059898E+02 -0.14536165298E+02  0.66155466027E+02  0.14414248595E+03  0.12000000000E+03 0.  0.
         25    1    1    2    0    0 -0.42299059898E+02  0.14536165298E+02  0.19781036829E+03  0.23564688068E+03  0.12000000000E+03 0.  0.
<mgrwt>
<rscale>  0 0.27306044E+03</rscale>
<asrwt>0</asrwt>
<pdfrwt beam="1">  1        2 0.49519630E-01 0.27306044E+03</pdfrwt>
<pdfrwt beam="2">  1       -2 0.89095026E-02 0.27306044E+03</pdfrwt>
<totfact> 0.80147954E+03</totfact>
</mgrwt>
</event>
<event>
 4    1  0.1777979E-004  0.3502852E+03  0.7818608E-02  0.1062498E+00
          1   -1    0    0  501    0  0.00000000000E+00  0.00000000000E+00  0.41412936770E+03  0.41412936770E+03  0.00000000000E+00 0. -1.
         -1   -1    0    0    0  501 -0.00000000000E+00 -0.00000000000E+00 -0.74070868504E+02  0.74070868504E+02  0.00000000000E+00 0. -1.
         25    1    1    2    0    0  0.10267848640E+03 -0.73585219538E+02  0.14520432662E+03  0.22680818454E+03  0.12000000000E+03 0.  0.
         25    1    1    2    0    0 -0.10267848640E+03  0.73585219538E+02  0.19485417258E+03  0.26139205167E+03  0.12000000000E+03 0.  0.
<mgrwt>
<rscale>  0 0.35028515E+03</rscale>
<asrwt>0</asrwt>
<pdfrwt beam="1">  1        1 0.63712209E-01 0.35028515E+03</pdfrwt>
<pdfrwt beam="2">  1       -1 0.11395518E-01 0.35028515E+03</pdfrwt>
<totfact> 0.28863064E+03</totfact>
</mgrwt>
</event>
<event>
 4    1  0.1777979E-004  0.3160288E+03  0.7818608E-02  0.1077492E+00
          4   -1    0    0  501    0  0.00000000000E+00  0.00000000000E+00  0.75750651943E+03  0.75750651943E+03  0.00000000000E+00 0. -1.
         -4   -1    0    0    0  501 -0.00000000000E+00 -0.00000000000E+00 -0.32961488948E+02  0.32961488948E+02  0.00000000000E+00 0. -1.
         25    1    1    2    0    0  0.69864028171E+02 -0.62602082514E+02  0.46746024901E+03  0.49164935429E+03  0.12000000000E+03 0.  0.
         25    1    1    2    0    0 -0.69864028171E+02  0.62602082514E+02  0.25708478147E+03  0.29881865408E+03  0.12000000000E+03 0.  0.
<mgrwt>
<rscale>  0 0.31602875E+03</rscale>
<asrwt>0</asrwt>
<pdfrwt beam="1">  1        4 0.11653945E+00 0.31602875E+03</pdfrwt>
<pdfrwt beam="2">  1       -4 0.50709989E-02 0.31602875E+03</pdfrwt>
<totfact> 0.26318598E+02</totfact>
</mgrwt>
</event>
<event>
 4    1  0.1777979E-004  0.3000003E+03  0.7818608E-02  0.1085240E+00
         -1   -1    0    0    0  501 -0.00000000000E+00  0.00000000000E+00  0.56193070068E+02  0.56193070068E+02  0.00000000000E+00 0. -1.
          1   -1    0    0  501    0  0.00000000000E+00 -0.00000000000E+00 -0.40040612012E+03  0.40040612012E+03  0.00000000000E+00 0. -1.
         25    1    1    2    0    0  0.43901589577E+02  0.77389869622E+02 -0.15148881035E+03  0.21275667122E+03  0.12000000000E+03 0.  0.
         25    1    1    2    0    0 -0.43901589577E+02 -0.77389869622E+02 -0.19272423970E+03  0.24384251896E+03  0.12000000000E+03 0.  0.
<mgrwt>
<rscale>  0 0.30000033E+03</rscale>
<asrwt>0</asrwt>
<pdfrwt beam="1">  1        1 0.61600943E-01 0.30000033E+03</pdfrwt>
<pdfrwt beam="2">  1       -1 0.86450875E-02 0.30000033E+03</pdfrwt>
<totfact> 0.46144429E+03</totfact>
</mgrwt>
</event>
<event>
 4    1  0.1777979E-004  0.3990774E+03  0.7818608E-02  0.1044100E+00
         -1   -1    0    0    0  501 -0.00000000000E+00  0.00000000000E+00  0.44699622487E+02  0.44699622487E+02  0.00000000000E+00 0.  1.
          1   -1    0    0  501    0  0.00000000000E+00 -0.00000000000E+00 -0.89073891077E+03  0.89073891077E+03  0.00000000000E+00 0.  1.
         25    1    1    2    0    0  0.10566990108E+03  0.81550065551E+02 -0.21868562287E+03  0.28291331329E+03  0.12000000000E+03 0.  0.
         25    1    1    2    0    0 -0.10566990108E+03 -0.81550065551E+02 -0.62735366542E+03  0.65252521997E+03  0.12000000000E+03 0.  0.
<mgrwt>
<rscale>  0 0.39907740E+03</rscale>
<asrwt>0</asrwt>
<pdfrwt beam="1">  1        1 0.13703675E+00 0.39907740E+03</pdfrwt>
<pdfrwt beam="2">  1       -1 0.68768652E-02 0.39907740E+03</pdfrwt>
<totfact> 0.21129877E+03</totfact>
</mgrwt>
</event>
<event>
 4    1  0.1777979E-004  0.5272998E+03  0.7818608E-02  0.1006889E+00
         -2   -1    0    0    0  501 -0.00000000000E+00  0.00000000000E+00  0.31141120146E+03  0.31141120146E+03  0.00000000000E+00 0.  1.
          2   -1    0    0  501    0  0.00000000000E+00 -0.00000000000E+00 -0.22321376998E+03  0.22321376998E+03  0.00000000000E+00 0.  1.
         25    1    1    2    0    0  0.48308349502E+02  0.22956107544E+03  0.53126584474E+02  0.26880181913E+03  0.12000000000E+03 0.  0.
         25    1    1    2    0    0 -0.48308349502E+02 -0.22956107544E+03  0.35070847002E+02  0.26582315230E+03  0.12000000000E+03 0.  0.
<mgrwt>
<rscale>  0 0.52729979E+03</rscale>
<asrwt>0</asrwt>
<pdfrwt beam="1">  1        2 0.34340580E-01 0.52729979E+03</pdfrwt>
<pdfrwt beam="2">  1       -2 0.47909416E-01 0.52729979E+03</pdfrwt>
<totfact> 0.63485945E+02</totfact>
</mgrwt>
</event>
<event>
 4    1  0.1777979E-004  0.2610746E+03  0.7818608E-02  0.1106499E+00
          2   -1    0    0  501    0  0.00000000000E+00  0.00000000000E+00  0.13370967042E+03  0.13370967042E+03  0.00000000000E+00 0.  1.
         -2   -1    0    0    0  501 -0.00000000000E+00 -0.00000000000E+00 -0.12744024196E+03  0.12744024196E+03  0.00000000000E+00 0.  1.
         25    1    1    2    0    0  0.20475211639E+02 -0.32261016580E+02  0.37495531001E+02  0.13139985665E+03  0.12000000000E+03 0.  0.
         25    1    1    2    0    0 -0.20475211639E+02  0.32261016580E+02 -0.31226102545E+02  0.12975005573E+03  0.12000000000E+03 0.  0.
<mgrwt>
<rscale>  0 0.26107465E+03</rscale>
<asrwt>0</asrwt>
<pdfrwt beam="1">  1        2 0.20570718E-01 0.26107465E+03</pdfrwt>
<pdfrwt beam="2">  1       -2 0.19606191E-01 0.26107465E+03</pdfrwt>
<totfact> 0.57869092E+03</totfact>
</mgrwt>
</event>
<event>
 4    1  0.1777979E-004  0.2751246E+03  0.7818608E-02  0.1098382E+00
         -2   -1    0    0    0  501 -0.00000000000E+00  0.00000000000E+00  0.74693144580E+02  0.74693144580E+02  0.00000000000E+00 0.  1.
          2   -1    0    0  501    0  0.00000000000E+00 -0.00000000000E+00 -0.25334843493E+03  0.25334843493E+03  0.00000000000E+00 0.  1.
         25    1    1    2    0    0 -0.39122780826E+02 -0.22838786625E+02 -0.14860003063E+03  0.19630122582E+03  0.12000000000E+03 0.  0.
         25    1    1    2    0    0  0.39122780826E+02  0.22838786625E+02 -0.30055259718E+02  0.13174035369E+03  0.12000000000E+03 0.  0.
<mgrwt>
<rscale>  0 0.27512464E+03</rscale>
<asrwt>0</asrwt>
<pdfrwt beam="1">  1        2 0.38976682E-01 0.27512464E+03</pdfrwt>
<pdfrwt beam="2">  1       -2 0.11491253E-01 0.27512464E+03</pdfrwt>
<totfact> 0.69194428E+03</totfact>
</mgrwt>
</event>
<event>
 4    1  0.1777979E-004  0.3755962E+03  0.7818608E-02  0.1052574E+00
          2   -1    0    0  501    0  0.00000000000E+00  0.00000000000E+00  0.13107013321E+03  0.13107013321E+03  0.00000000000E+00 0. -1.
         -2   -1    0    0    0  501 -0.00000000000E+00 -0.00000000000E+00 -0.26907827875E+03  0.26907827875E+03  0.00000000000E+00 0. -1.
         25    1    1    2    0    0 -0.73526153995E+01 -0.13896399355E+03 -0.11030787219E+03  0.21431957243E+03  0.12000000000E+03 0.  0.
         25    1    1    2    0    0  0.73526153995E+01  0.13896399355E+03 -0.27700273344E+02  0.18582883953E+03  0.12000000000E+03 0.  0.
<mgrwt>
<rscale>  0 0.37559620E+03</rscale>
<asrwt>0</asrwt>
<pdfrwt beam="1">  1        2 0.20164636E-01 0.37559620E+03</pdfrwt>
<pdfrwt beam="2">  1       -2 0.41396658E-01 0.37559620E+03</pdfrwt>
<totfact> 0.15433758E+03</totfact>
</mgrwt>
</event>
<event>
 4    1  0.1777979E-004  0.4745003E+03  0.7818608E-02  0.1020658E+00
         -1   -1    0    0    0  501 -0.00000000000E+00  0.00000000000E+00  0.59527808688E+02  0.59527808688E+02  0.00000000000E+00 0.  1.
          1   -1    0    0  501    0  0.00000000000E+00 -0.00000000000E+00 -0.94556872923E+03  0.94556872923E+03  0.00000000000E+00 0.  1.
         25    1    1    2    0    0 -0.18792194780E+03 -0.64390660514E+02 -0.33867106010E+03  0.41055925586E+03  0.12000000000E+03 0.  0.
         25    1    1    2    0    0  0.18792194780E+03  0.64390660514E+02 -0.54736986044E+03  0.59453728205E+03  0.12000000000E+03 0.  0.
<mgrwt>
<rscale>  0 0.47450030E+03</rscale>
<asrwt>0</asrwt>
<pdfrwt beam="1">  1        1 0.14547211E+00 0.47450030E+03</pdfrwt>
<pdfrwt beam="2">  1       -1 0.91581246E-02 0.47450030E+03</pdfrwt>
<totfact> 0.12261137E+03</totfact>
</mgrwt>
</event>
<event>
 4    1  0.1777979E-004  0.3038586E+03  0.7818608E-02  0.1083327E+00
         -2   -1    0    0    0  501 -0.00000000000E+00  0.00000000000E+00  0.18735293698E+03  0.18735293698E+03  0.00000000000E+00 0.  1.
          2   -1    0    0  501    0  0.00000000000E+00 -0.00000000000E+00 -0.12320336604E+03  0.12320336604E+03  0.00000000000E+00 0.  1.
         25    1    1    2    0    0 -0.37013075571E+02 -0.53241835288E+01 -0.55153970254E+02  0.13725988171E+03  0.12000000000E+03 0.  0.
         25    1    1    2    0    0  0.37013075571E+02  0.53241835288E+01  0.11930354120E+03  0.17329642130E+03  0.12000000000E+03 0.  0.
<mgrwt>
<rscale>  0 0.30385860E+03</rscale>
<asrwt>0</asrwt>
<pdfrwt beam="1">  1        2 0.18954364E-01 0.30385860E+03</pdfrwt>
<pdfrwt beam="2">  1       -2 0.28823529E-01 0.30385860E+03</pdfrwt>
<totfact> 0.32493198E+03</totfact>
</mgrwt>
</event>
<event>
 4    1  0.1777979E-004  0.3182823E+03  0.7818608E-02  0.1076443E+00
          2   -1    0    0  501    0  0.00000000000E+00  0.00000000000E+00  0.27670856590E+03  0.27670856590E+03  0.00000000000E+00 0.  1.
         -2   -1    0    0    0  501 -0.00000000000E+00 -0.00000000000E+00 -0.91525576351E+02  0.91525576351E+02  0.00000000000E+00 0.  1.
         25    1    1    2    0    0  0.10315515960E+03  0.27340828705E+01  0.11186243731E+03  0.19380832552E+03  0.12000000000E+03 0.  0.
         25    1    1    2    0    0 -0.10315515960E+03 -0.27340828705E+01  0.73320552244E+02  0.17442581673E+03  0.12000000000E+03 0.  0.
<mgrwt>
<rscale>  0 0.31828233E+03</rscale>
<asrwt>0</asrwt>
<pdfrwt beam="1">  1        2 0.42570548E-01 0.31828233E+03</pdfrwt>
<pdfrwt beam="2">  1       -2 0.14080858E-01 0.31828233E+03</pdfrwt>
<totfact> 0.45399275E+03</totfact>
</mgrwt>
</event>
<event>
 4    1  0.1777979E-004  0.2937041E+03  0.7818608E-02  0.1088431E+00
          1   -1    0    0  501    0  0.00000000000E+00  0.00000000000E+00  0.42560560782E+03  0.42560560782E+03  0.00000000000E+00 0. -1.
         -1   -1    0    0    0  501 -0.00000000000E+00 -0.00000000000E+00 -0.50670218117E+02  0.50670218117E+02  0.00000000000E+00 0. -1.
         25    1    1    2    0    0 -0.80515949640E+02  0.23310606518E+02  0.16832666578E+03  0.22306965041E+03  0.12000000000E+03 0.  0.
         25    1    1    2    0    0  0.80515949640E+02 -0.23310606518E+02  0.20660872392E+03  0.25320617553E+03  0.12000000000E+03 0.  0.
<mgrwt>
<rscale>  0 0.29370413E+03</rscale>
<asrwt>0</asrwt>
<pdfrwt beam="1">  1        1 0.65477783E-01 0.29370413E+03</pdfrwt>
<pdfrwt beam="2">  1       -1 0.77954185E-02 0.29370413E+03</pdfrwt>
<totfact> 0.49948050E+03</totfact>
</mgrwt>
</event>
<event>
 4    1  0.1777979E-004  0.5159237E+03  0.7818608E-02  0.1009704E+00
          1   -1    0    0  501    0  0.00000000000E+00  0.00000000000E+00  0.12895650564E+04  0.12895650564E+04  0.00000000000E+00 0.  1.
         -1   -1    0    0    0  501 -0.00000000000E+00 -0.00000000000E+00 -0.51602130177E+02  0.51602130177E+02  0.00000000000E+00 0.  1.
         25    1    1    2    0    0  0.17658422855E+03 -0.27805256963E+02  0.24961552797E+03  0.32964076492E+03  0.12000000000E+03 0.  0.
         25    1    1    2    0    0 -0.17658422855E+03  0.27805256963E+02  0.98834739822E+03  0.10115264216E+04  0.12000000000E+03 0.  0.
<mgrwt>
<rscale>  0 0.51592365E+03</rscale>
<asrwt>0</asrwt>
<pdfrwt beam="1">  1        1 0.19839460E+00 0.51592365E+03</pdfrwt>
<pdfrwt beam="2">  1       -1 0.79387902E-02 0.51592365E+03</pdfrwt>
<totfact> 0.85409170E+02</totfact>
</mgrwt>
</event>
<event>
 4    1  0.1777979E-004  0.3277903E+03  0.7818608E-02  0.1072119E+00
          2   -1    0    0  501    0  0.00000000000E+00  0.00000000000E+00  0.72434054685E+03  0.72434054685E+03  0.00000000000E+00 0. -1.
         -2   -1    0    0    0  501 -0.00000000000E+00 -0.00000000000E+00 -0.37084236486E+02  0.37084236486E+02  0.00000000000E+00 0. -1.
         25    1    1    2    0    0 -0.72074055014E+02 -0.69783403140E+02  0.45736081487E+03  0.48336663904E+03  0.12000000000E+03 0.  0.
         25    1    1    2    0    0  0.72074055014E+02  0.69783403140E+02  0.22989549549E+03  0.27805814429E+03  0.12000000000E+03 0.  0.
<mgrwt>
<rscale>  0 0.32779028E+03</rscale>
<asrwt>0</asrwt>
<pdfrwt beam="1">  1        2 0.11143700E+00 0.32779028E+03</pdfrwt>
<pdfrwt beam="2">  1       -2 0.57052677E-02 0.32779028E+03</pdfrwt>
<totfact> 0.64494506E+03</totfact>
</mgrwt>
</event>
<event>
 4    1  0.1777979E-004  0.2983972E+03  0.7818608E-02  0.1086045E+00
          2   -1    0    0  501    0  0.00000000000E+00  0.00000000000E+00  0.13962643105E+04  0.13962643105E+04  0.00000000000E+00 0.  1.
         -2   -1    0    0    0  501 -0.00000000000E+00 -0.00000000000E+00 -0.15942697593E+02  0.15942697593E+02  0.00000000000E+00 0.  1.
         25    1    1    2    0    0  0.79818949035E+02  0.27346901742E+02  0.81901579304E+03  0.83204914933E+03  0.12000000000E+03 0.  0.
         25    1    1    2    0    0 -0.79818949035E+02 -0.27346901742E+02  0.56130581982E+03  0.58015785871E+03  0.12000000000E+03 0.  0.
<mgrwt>
<rscale>  0 0.29839718E+03</rscale>
<asrwt>0</asrwt>
<pdfrwt beam="1">  1        2 0.21480980E+00 0.29839718E+03</pdfrwt>
<pdfrwt beam="2">  1       -2 0.24527238E-02 0.29839718E+03</pdfrwt>
<totfact> 0.88913664E+03</totfact>
</mgrwt>
</event>
<event>
 4    1  0.1777979E-004  0.4331609E+03  0.7818608E-02  0.1032866E+00
          2   -1    0    0  501    0  0.00000000000E+00  0.00000000000E+00  0.11439193713E+04  0.11439193713E+04  0.00000000000E+00 0.  1.
         -2   -1    0    0    0  501 -0.00000000000E+00 -0.00000000000E+00 -0.41005586373E+02  0.41005586373E+02  0.00000000000E+00 0.  1.
         25    1    1    2    0    0  0.57924855263E+02 -0.15816440603E+03  0.72737974397E+03  0.75620933619E+03  0.12000000000E+03 0.  0.
         25    1    1    2    0    0 -0.57924855263E+02  0.15816440603E+03  0.37553404096E+03  0.42871562149E+03  0.12000000000E+03 0.  0.
<mgrwt>
<rscale>  0 0.43316087E+03</rscale>
<asrwt>0</asrwt>
<pdfrwt beam="1">  1        2 0.17598757E+00 0.43316087E+03</pdfrwt>
<pdfrwt beam="2">  1       -2 0.63085526E-02 0.43316087E+03</pdfrwt>
<totfact> 0.29551172E+03</totfact>
</mgrwt>
</event>
<event>
 4    1  0.1777979E-004  0.2772281E+03  0.7818608E-02  0.1097213E+00
          1   -1    0    0  501    0  0.00000000000E+00  0.00000000000E+00  0.13647144665E+04  0.13647144665E+04  0.00000000000E+00 0. -1.
         -1   -1    0    0    0  501 -0.00000000000E+00 -0.00000000000E+00 -0.14079025188E+02  0.14079025188E+02  0.00000000000E+00 0. -1.
         25    1    1    2    0    0 -0.15492311293E+02  0.62357321659E+02  0.54511059682E+03  0.56184874303E+03  0.12000000000E+03 0.  0.
         25    1    1    2    0    0  0.15492311293E+02 -0.62357321659E+02  0.80552484444E+03  0.81694474861E+03  0.12000000000E+03 0.  0.
<mgrwt>
<rscale>  0 0.27722806E+03</rscale>
<asrwt>0</asrwt>
<pdfrwt beam="1">  1        1 0.20995597E+00 0.27722806E+03</pdfrwt>
<pdfrwt beam="2">  1       -1 0.21660049E-02 0.27722806E+03</pdfrwt>
<totfact> 0.53788807E+03</totfact>
</mgrwt>
</event>
<event>
 4    1  0.1777979E-004  0.2680538E+03  0.7818608E-02  0.1102399E+00
          2   -1    0    0  501    0  0.00000000000E+00  0.00000000000E+00  0.20947330554E+03  0.20947330554E+03  0.00000000000E+00 0.  1.
         -2   -1    0    0    0  501 -0.00000000000E+00 -0.00000000000E+00 -0.85754176237E+02  0.85754176237E+02  0.00000000000E+00 0.  1.
         25    1    1    2    0    0  0.21042683078E+02  0.41261629007E+02  0.10333173082E+03  0.16499322148E+03  0.12000000000E+03 0.  0.
         25    1    1    2    0    0 -0.21042683078E+02 -0.41261629007E+02  0.20387398488E+02  0.13023426030E+03  0.12000000000E+03 0.  0.
<mgrwt>
<rscale>  0 0.26805381E+03</rscale>
<asrwt>0</asrwt>
<pdfrwt beam="1">  1        2 0.32226662E-01 0.26805381E+03</pdfrwt>
<pdfrwt beam="2">  1       -2 0.13192950E-01 0.26805381E+03</pdfrwt>
<totfact> 0.67949780E+03</totfact>
</mgrwt>
</event>
<event>
 4    1  0.1777979E-004  0.2469056E+03  0.7818608E-02  0.1115276E+00
         -2   -1    0    0    0  501 -0.00000000000E+00  0.00000000000E+00  0.16082393531E+02  0.16082393531E+02  0.00000000000E+00 0.  1.
          2   -1    0    0  501    0  0.00000000000E+00 -0.00000000000E+00 -0.94765675999E+03  0.94765675999E+03  0.00000000000E+00 0.  1.
         25    1    1    2    0    0  0.11039346662E+02 -0.57675727736E+01 -0.36359475906E+03  0.38308782398E+03  0.12000000000E+03 0.  0.
         25    1    1    2    0    0 -0.11039346662E+02  0.57675727736E+01 -0.56797960740E+03  0.58065132954E+03  0.12000000000E+03 0.  0.
<mgrwt>
<rscale>  0 0.24690556E+03</rscale>
<asrwt>0</asrwt>
<pdfrwt beam="1">  1        2 0.14579344E+00 0.24690556E+03</pdfrwt>
<pdfrwt beam="2">  1       -2 0.24742128E-02 0.24690556E+03</pdfrwt>
<totfact> 0.15844728E+04</totfact>
</mgrwt>
</event>
<event>
 4    1  0.1777979E-004  0.3434205E+03  0.7818608E-02  0.1065348E+00
         -1   -1    0    0    0  501 -0.00000000000E+00  0.00000000000E+00  0.12578985076E+02  0.12578985076E+02  0.00000000000E+00 0.  1.
          1   -1    0    0  501    0  0.00000000000E+00 -0.00000000000E+00 -0.23439413421E+04  0.23439413421E+04  0.00000000000E+00 0.  1.
         25    1    1    2    0    0 -0.10826981807E+03  0.52018468809E+02 -0.13414490503E+04  0.13521515556E+04  0.12000000000E+03 0.  0.
         25    1    1    2    0    0  0.10826981807E+03 -0.52018468809E+02 -0.98991330670E+03  0.10043687716E+04  0.12000000000E+03 0.  0.
<mgrwt>
<rscale>  0 0.34342046E+03</rscale>
<asrwt>0</asrwt>
<pdfrwt beam="1">  1        1 0.36060645E+00 0.34342046E+03</pdfrwt>
<pdfrwt beam="2">  1       -1 0.19352280E-02 0.34342046E+03</pdfrwt>
<totfact> 0.14389061E+03</totfact>
</mgrwt>
</event>
<event>
 4    1  0.1777979E-004  0.2595491E+03  0.7818608E-02  0.1107414E+00
         -2   -1    0    0    0  501 -0.00000000000E+00  0.00000000000E+00  0.21243082271E+02  0.21243082271E+02  0.00000000000E+00 0. -1.
          2   -1    0    0  501    0  0.00000000000E+00 -0.00000000000E+00 -0.79279638613E+03  0.79279638613E+03  0.00000000000E+00 0. -1.
         25    1    1    2    0    0 -0.43740954293E+02  0.21834974600E+02 -0.40826276699E+03  0.42833225901E+03  0.12000000000E+03 0.  0.
         25    1    1    2    0    0  0.43740954293E+02 -0.21834974600E+02 -0.36329053687E+03  0.38570720939E+03  0.12000000000E+03 0.  0.
<mgrwt>
<rscale>  0 0.25954914E+03</rscale>
<asrwt>0</asrwt>
<pdfrwt beam="1">  1        2 0.12196869E+00 0.25954914E+03</pdfrwt>
<pdfrwt beam="2">  1       -2 0.32681662E-02 0.25954914E+03</pdfrwt>
<totfact> 0.13283698E+04</totfact>
</mgrwt>
</event>
<event>
 4    1  0.1777979E-004  0.2553400E+03  0.7818608E-02  0.1109976E+00
         -2   -1    0    0    0  501 -0.00000000000E+00  0.00000000000E+00  0.95203841998E+01  0.95203841998E+01  0.00000000000E+00 0. -1.
          2   -1    0    0  501    0  0.00000000000E+00 -0.00000000000E+00 -0.17120772993E+04  0.17120772993E+04  0.00000000000E+00 0. -1.
         25    1    1    2    0    0  0.76952527440E+00 -0.34447152147E+02 -0.67131453971E+03  0.68282531418E+03  0.12000000000E+03 0.  0.
         25    1    1    2    0    0 -0.76952527440E+00  0.34447152147E+02 -0.10312423754E+04  0.10387723693E+04  0.12000000000E+03 0.  0.
<mgrwt>
<rscale>  0 0.25534004E+03</rscale>
<asrwt>0</asrwt>
<pdfrwt beam="1">  1        2 0.26339647E+00 0.25534004E+03</pdfrwt>
<pdfrwt beam="2">  1       -2 0.14646747E-02 0.25534004E+03</pdfrwt>
<totfact> 0.12836218E+04</totfact>
</mgrwt>
</event>
<event>
 4    1  0.1777979E-004  0.3081194E+03  0.7818608E-02  0.1081251E+00
         -2   -1    0    0    0  501 -0.00000000000E+00  0.00000000000E+00  0.13531714663E+02  0.13531714663E+02  0.00000000000E+00 0. -1.
          2   -1    0    0  501    0  0.00000000000E+00 -0.00000000000E+00 -0.17539822636E+04  0.17539822636E+04  0.00000000000E+00 0. -1.
         25    1    1    2    0    0  0.31930341608E+02  0.49759363368E+02 -0.43188903433E+03  0.45213236882E+03  0.12000000000E+03 0.  0.
         25    1    1    2    0    0 -0.31930341608E+02 -0.49759363368E+02 -0.13085615146E+04  0.13153816094E+04  0.12000000000E+03 0.  0.
<mgrwt>
<rscale>  0 0.30811938E+03</rscale>
<asrwt>0</asrwt>
<pdfrwt beam="1">  1        2 0.26984335E+00 0.30811938E+03</pdfrwt>
<pdfrwt beam="2">  1       -2 0.20818028E-02 0.30811938E+03</pdfrwt>
<totfact> 0.73011808E+03</totfact>
</mgrwt>
</event>
<event>
 4    1  0.1777979E-004  0.2597129E+03  0.7818608E-02  0.1107316E+00
          3   -1    0    0  501    0  0.00000000000E+00  0.00000000000E+00  0.28752586665E+02  0.28752586665E+02  0.00000000000E+00 0.  1.
         -3   -1    0    0    0  501 -0.00000000000E+00 -0.00000000000E+00 -0.58647563002E+03  0.58647563002E+03  0.00000000000E+00 0.  1.
         25    1    1    2    0    0 -0.39373765964E+02  0.14416677452E+02 -0.21598319477E+03  0.25061299738E+03  0.12000000000E+03 0.  0.
         25    1    1    2    0    0  0.39373765964E+02 -0.14416677452E+02 -0.34173984858E+03  0.36461521930E+03  0.12000000000E+03 0.  0.
<mgrwt>
<rscale>  0 0.25971285E+03</rscale>
<asrwt>0</asrwt>
<pdfrwt beam="1">  1        3 0.44234749E-02 0.25971285E+03</pdfrwt>
<pdfrwt beam="2">  1       -3 0.90227020E-01 0.25971285E+03</pdfrwt>
<totfact> 0.79872190E+02</totfact>
</mgrwt>
</event>
<event>
 4    1  0.1777979E-004  0.2519361E+03  0.7818608E-02  0.1112087E+00
          1   -1    0    0  501    0  0.00000000000E+00  0.00000000000E+00  0.26095124861E+02  0.26095124861E+02  0.00000000000E+00 0.  1.
         -1   -1    0    0    0  501 -0.00000000000E+00 -0.00000000000E+00 -0.60808098594E+03  0.60808098594E+03  0.00000000000E+00 0.  1.
         25    1    1    2    0    0  0.25051958819E+02  0.28473324788E+02 -0.30469228780E+03  0.32966000836E+03  0.12000000000E+03 0.  0.
         25    1    1    2    0    0 -0.25051958819E+02 -0.28473324788E+02 -0.27729357328E+03  0.30451610244E+03  0.12000000000E+03 0.  0.
<mgrwt>
<rscale>  0 0.25193610E+03</rscale>
<asrwt>0</asrwt>
<pdfrwt beam="1">  1        1 0.40146346E-02 0.25193610E+03</pdfrwt>
<pdfrwt beam="2">  1       -1 0.93550921E-01 0.25193610E+03</pdfrwt>
<totfact> 0.26295274E+03</totfact>
</mgrwt>
</event>
<event>
 4    1  0.1777979E-004  0.3016689E+03  0.7818608E-02  0.1084409E+00
          2   -1    0    0  501    0  0.00000000000E+00  0.00000000000E+00  0.12437109735E+04  0.12437109735E+04  0.00000000000E+00 0.  1.
         -2   -1    0    0    0  501 -0.00000000000E+00 -0.00000000000E+00 -0.18292865899E+02  0.18292865899E+02  0.00000000000E+00 0.  1.
         25    1    1    2    0    0 -0.78090711522E+02 -0.44058278088E+02  0.53884533210E+03  0.55927952137E+03  0.12000000000E+03 0.  0.
         25    1    1    2    0    0  0.78090711522E+02  0.44058278088E+02  0.68657277546E+03  0.70272431799E+03  0.12000000000E+03 0.  0.
<mgrwt>
<rscale>  0 0.30166894E+03</rscale>
<asrwt>0</asrwt>
<pdfrwt beam="1">  1        2 0.19134008E+00 0.30166894E+03</pdfrwt>
<pdfrwt beam="2">  1       -2 0.28142880E-02 0.30166894E+03</pdfrwt>
<totfact> 0.88065270E+03</totfact>
</mgrwt>
</event>
<event>
 4    1  0.1777979E-004  0.3385219E+03  0.7818608E-02  0.1067427E+00
          4   -1    0    0  501    0  0.00000000000E+00  0.00000000000E+00  0.73184963331E+02  0.73184963331E+02  0.00000000000E+00 0.  1.
         -4   -1    0    0    0  501 -0.00000000000E+00 -0.00000000000E+00 -0.39146376050E+03  0.39146376050E+03  0.00000000000E+00 0.  1.
         25    1    1    2    0    0 -0.56833446819E+02 -0.73980267195E+02 -0.56919965264E+02  0.16230527735E+03  0.12000000000E+03 0.  0.
         25    1    1    2    0    0  0.56833446819E+02  0.73980267195E+02 -0.26135883190E+03  0.30234344647E+03  0.12000000000E+03 0.  0.
<mgrwt>
<rscale>  0 0.33852185E+03</rscale>
<asrwt>0</asrwt>
<pdfrwt beam="1">  1        4 0.11259225E-01 0.33852185E+03</pdfrwt>
<pdfrwt beam="2">  1       -4 0.60225194E-01 0.33852185E+03</pdfrwt>
<totfact> 0.31266813E+02</totfact>
</mgrwt>
</event>
<event>
 4    1  0.1777979E-004  0.2530057E+03  0.7818608E-02  0.1111420E+00
          1   -1    0    0  501    0  0.00000000000E+00  0.00000000000E+00  0.81808169624E+02  0.81808169624E+02  0.00000000000E+00 0.  1.
         -1   -1    0    0    0  501 -0.00000000000E+00 -0.00000000000E+00 -0.19561574074E+03  0.19561574074E+03  0.00000000000E+00 0.  1.
         25    1    1    2    0    0 -0.43447749005E+01 -0.25077866566E+02 -0.90792755342E+02  0.15261422241E+03  0.12000000000E+03 0.  0.
         25    1    1    2    0    0  0.43447749005E+01  0.25077866566E+02 -0.23014815772E+02  0.12480968795E+03  0.12000000000E+03 0.  0.
<mgrwt>
<rscale>  0 0.25300566E+03</rscale>
<asrwt>0</asrwt>
<pdfrwt beam="1">  1        1 0.12585872E-01 0.25300566E+03</pdfrwt>
<pdfrwt beam="2">  1       -1 0.30094729E-01 0.25300566E+03</pdfrwt>
<totfact> 0.47340995E+03</totfact>
</mgrwt>
</event>
<event>
 4    1  0.1777979E-004  0.2425938E+03  0.7818608E-02  0.1118077E+00
         -4   -1    0    0    0  501 -0.00000000000E+00  0.00000000000E+00  0.21235180789E+03  0.21235180789E+03  0.00000000000E+00 0. -1.
          4   -1    0    0  501    0  0.00000000000E+00 -0.00000000000E+00 -0.69285680554E+02  0.69285680554E+02  0.00000000000E+00 0. -1.
         25    1    1    2    0    0  0.17634916132E+02  0.24767710786E+00  0.73128215563E+02  0.14162904901E+03  0.12000000000E+03 0.  0.
         25    1    1    2    0    0 -0.17634916132E+02 -0.24767710786E+00  0.69937911775E+02  0.14000843944E+03  0.12000000000E+03 0.  0.
<mgrwt>
<rscale>  0 0.24259381E+03</rscale>
<asrwt>0</asrwt>
<pdfrwt beam="1">  1        4 0.10659336E-01 0.24259381E+03</pdfrwt>
<pdfrwt beam="2">  1       -4 0.32669509E-01 0.24259381E+03</pdfrwt>
<totfact> 0.11326901E+03</totfact>
</mgrwt>
</event>
<event>
 4    1  0.1777979E-004  0.2620922E+03  0.7818608E-02  0.1105893E+00
          2   -1    0    0  501    0  0.00000000000E+00  0.00000000000E+00  0.21774809215E+04  0.21774809215E+04  0.00000000000E+00 0. -1.
         -2   -1    0    0    0  501 -0.00000000000E+00 -0.00000000000E+00 -0.78866745297E+01  0.78866745297E+01  0.00000000000E+00 0. -1.
         25    1    1    2    0    0  0.39265236967E+02 -0.69885034240E+01  0.13715238931E+04  0.13773410570E+04  0.12000000000E+03 0.  0.
         25    1    1    2    0    0 -0.39265236967E+02  0.69885034240E+01  0.79807035390E+03  0.80802653903E+03  0.12000000000E+03 0.  0.
<mgrwt>
<rscale>  0 0.26209222E+03</rscale>
<asrwt>0</asrwt>
<pdfrwt beam="1">  1        2 0.33499659E+00 0.26209222E+03</pdfrwt>
<pdfrwt beam="2">  1       -2 0.12133363E-02 0.26209222E+03</pdfrwt>
<totfact> 0.96232390E+03</totfact>
</mgrwt>
</event>
<event>
 4    1  0.1777979E-004  0.2827892E+03  0.7818608E-02  0.1094175E+00
          1   -1    0    0  501    0  0.00000000000E+00  0.00000000000E+00  0.45479487488E+02  0.45479487488E+02  0.00000000000E+00 0. -1.
         -1   -1    0    0    0  501 -0.00000000000E+00 -0.00000000000E+00 -0.43959228793E+03  0.43959228793E+03  0.00000000000E+00 0. -1.
         25    1    1    2    0    0 -0.41012087436E+02 -0.62416472711E+02 -0.20361611357E+03  0.24786554639E+03  0.12000000000E+03 0.  0.
         25    1    1    2    0    0  0.41012087436E+02  0.62416472711E+02 -0.19049668687E+03  0.23720622903E+03  0.12000000000E+03 0.  0.
<mgrwt>
<rscale>  0 0.28278919E+03</rscale>
<asrwt>0</asrwt>
<pdfrwt beam="1">  1        1 0.69968445E-02 0.28278919E+03</pdfrwt>
<pdfrwt beam="2">  1       -1 0.67629580E-01 0.28278919E+03</pdfrwt>
<totfact> 0.23971948E+03</totfact>
</mgrwt>
</event>
<event>
 4    1  0.1777979E-004  0.2996321E+03  0.7818608E-02  0.1085425E+00
         -1   -1    0    0    0  501 -0.00000000000E+00  0.00000000000E+00  0.26336503938E+02  0.26336503938E+02  0.00000000000E+00 0.  1.
          1   -1    0    0  501    0  0.00000000000E+00 -0.00000000000E+00 -0.85223349472E+03  0.85223349472E+03  0.00000000000E+00 0.  1.
         25    1    1    2    0    0  0.40731307851E+02  0.63081890202E+02 -0.55678851213E+03  0.57450135905E+03  0.12000000000E+03 0.  0.
         25    1    1    2    0    0 -0.40731307851E+02 -0.63081890202E+02 -0.26910847866E+03  0.30406863961E+03  0.12000000000E+03 0.  0.
<mgrwt>
<rscale>  0 0.29963211E+03</rscale>
<asrwt>0</asrwt>
<pdfrwt beam="1">  1        1 0.13111284E+00 0.29963211E+03</pdfrwt>
<pdfrwt beam="2">  1       -1 0.40517701E-02 0.29963211E+03</pdfrwt>
<totfact> 0.50367123E+03</totfact>
</mgrwt>
</event>
<event>
 4    1  0.1777979E-004  0.3021027E+03  0.7818608E-02  0.1084194E+00
         -1   -1    0    0    0  501 -0.00000000000E+00  0.00000000000E+00  0.87893737623E+02  0.87893737623E+02  0.00000000000E+00 0. -1.
          1   -1    0    0  501    0  0.00000000000E+00 -0.00000000000E+00 -0.25959193885E+03  0.25959193885E+03  0.00000000000E+00 0. -1.
         25    1    1    2    0    0 -0.48868064976E+02  0.86484039777E+01  0.29018499018E+01  0.12988958156E+03  0.12000000000E+03 0.  0.
         25    1    1    2    0    0  0.48868064976E+02 -0.86484039777E+01 -0.17460005112E+03  0.21759609491E+03  0.12000000000E+03 0.  0.
<mgrwt>
<rscale>  0 0.30210267E+03</rscale>
<asrwt>0</asrwt>
<pdfrwt beam="1">  1        1 0.39937221E-01 0.30210267E+03</pdfrwt>
<pdfrwt beam="2">  1       -1 0.13522114E-01 0.30210267E+03</pdfrwt>
<totfact> 0.39845305E+03</totfact>
</mgrwt>
</event>
<event>
 4    1  0.1777979E-004  0.3744359E+03  0.7818608E-02  0.1053010E+00
         -2   -1    0    0    0  501 -0.00000000000E+00  0.00000000000E+00  0.76697525211E+02  0.76697525211E+02  0.00000000000E+00 0. -1.
          2   -1    0    0  501    0  0.00000000000E+00 -0.00000000000E+00 -0.45699727037E+03  0.45699727037E+03  0.00000000000E+00 0. -1.
         25    1    1    2    0    0  0.11998323587E+03 -0.47480680657E+02 -0.28029756102E+03  0.33108475447E+03  0.12000000000E+03 0.  0.
         25    1    1    2    0    0 -0.11998323587E+03  0.47480680657E+02 -0.10000218413E+03  0.20261004111E+03  0.12000000000E+03 0.  0.
<mgrwt>
<rscale>  0 0.37443589E+03</rscale>
<asrwt>0</asrwt>
<pdfrwt beam="1">  1        2 0.70307272E-01 0.37443589E+03</pdfrwt>
<pdfrwt beam="2">  1       -2 0.11799619E-01 0.37443589E+03</pdfrwt>
<totfact> 0.35173042E+03</totfact>
</mgrwt>
</event>
<event>
 4    1  0.1777979E-004  0.4378056E+03  0.7818608E-02  0.1031422E+00
          2   -1    0    0  501    0  0.00000000000E+00  0.00000000000E+00  0.33855984957E+03  0.33855984957E+03  0.00000000000E+00 0. -1.
         -2   -1    0    0    0  501 -0.00000000000E+00 -0.00000000000E+00 -0.14153611460E+03  0.14153611460E+03  0.00000000000E+00 0. -1.
         25    1    1    2    0    0  0.12755092840E+03 -0.11774468807E+03  0.16231637450E+03  0.26623233525E+03  0.12000000000E+03 0.  0.
         25    1    1    2    0    0 -0.12755092840E+03  0.11774468807E+03  0.34707360475E+02  0.21386362892E+03  0.12000000000E+03 0.  0.
<mgrwt>
<rscale>  0 0.43780564E+03</rscale>
<asrwt>0</asrwt>
<pdfrwt beam="1">  1        2 0.52086130E-01 0.43780564E+03</pdfrwt>
<pdfrwt beam="2">  1       -2 0.21774787E-01 0.43780564E+03</pdfrwt>
<totfact> 0.17499285E+03</totfact>
</mgrwt>
</event>
<event>
 4    1  0.1777979E-004  0.2719606E+03  0.7818608E-02  0.1100163E+00
          1   -1    0    0  501    0  0.00000000000E+00  0.00000000000E+00  0.21615347758E+02  0.21615347758E+02  0.00000000000E+00 0. -1.
         -1   -1    0    0    0  501 -0.00000000000E+00 -0.00000000000E+00 -0.85544056543E+03  0.85544056543E+03  0.00000000000E+00 0. -1.
         25    1    1    2    0    0 -0.21317842711E+02  0.35536259354E+02 -0.25980258343E+03  0.28916199353E+03  0.12000000000E+03 0.  0.
         25    1    1    2    0    0  0.21317842711E+02 -0.35536259354E+02 -0.57402263424E+03  0.58789391965E+03  0.12000000000E+03 0.  0.
<mgrwt>
<rscale>  0 0.27196062E+03</rscale>
<asrwt>0</asrwt>
<pdfrwt beam="1">  1        1 0.33254374E-02 0.27196062E+03</pdfrwt>
<pdfrwt beam="2">  1       -1 0.13160627E+00 0.27196062E+03</pdfrwt>
<totfact> 0.15555058E+03</totfact>
</mgrwt>
</event>
<event>
 4    1  0.1777979E-004  0.2763374E+03  0.7818608E-02  0.1097706E+00
         -3   -1    0    0    0  501 -0.00000000000E+00  0.00000000000E+00  0.33042719002E+02  0.33042719002E+02  0.00000000000E+00 0.  1.
          3   -1    0    0  501    0  0.00000000000E+00 -0.00000000000E+00 -0.57775461715E+03  0.57775461715E+03  0.00000000000E+00 0.  1.
         25    1    1    2    0    0 -0.18873561014E+02 -0.43250944829E+02 -0.38206789331E+03  0.40324028895E+03  0.12000000000E+03 0.  0.
         25    1    1    2    0    0  0.18873561014E+02  0.43250944829E+02 -0.16264400484E+03  0.20755704721E+03  0.12000000000E+03 0.  0.
<mgrwt>
<rscale>  0 0.27633736E+03</rscale>
<asrwt>0</asrwt>
<pdfrwt beam="1">  1        3 0.88885324E-01 0.27633736E+03</pdfrwt>
<pdfrwt beam="2">  1       -3 0.50834953E-02 0.27633736E+03</pdfrwt>
<totfact> 0.66724730E+02</totfact>
</mgrwt>
</event>
<event>
 4    1  0.1777979E-004  0.2483984E+03  0.7818608E-02  0.1114321E+00
         -1   -1    0    0    0  501 -0.00000000000E+00  0.00000000000E+00  0.24097095528E+02  0.24097095528E+02  0.00000000000E+00 0.  1.
          1   -1    0    0  501    0  0.00000000000E+00 -0.00000000000E+00 -0.64013715876E+03  0.64013715876E+03  0.00000000000E+00 0.  1.
         25    1    1    2    0    0 -0.16079933787E+02 -0.11107308121E+02 -0.24018563703E+03  0.26920452597E+03  0.12000000000E+03 0.  0.
         25    1    1    2    0    0  0.16079933787E+02  0.11107308121E+02 -0.37585442620E+03  0.39502972832E+03  0.12000000000E+03 0.  0.
<mgrwt>
<rscale>  0 0.24839844E+03</rscale>
<asrwt>0</asrwt>
<pdfrwt beam="1">  1        1 0.98482643E-01 0.24839844E+03</pdfrwt>
<pdfrwt beam="2">  1       -1 0.37072453E-02 0.24839844E+03</pdfrwt>
<totfact> 0.87670208E+03</totfact>
</mgrwt>
</event>
<event>
 4    1  0.1777979E-004  0.2500120E+03  0.7818608E-02  0.1113297E+00
         -2   -1    0    0    0  501 -0.00000000000E+00  0.00000000000E+00  0.29156695285E+02  0.29156695285E+02  0.00000000000E+00 0. -1.
          2   -1    0    0  501    0  0.00000000000E+00 -0.00000000000E+00 -0.53594894075E+03  0.53594894075E+03  0.00000000000E+00 0. -1.
         25    1    1    2    0    0 -0.34606149797E+02 -0.21466931115E+01 -0.26453973663E+03  0.29254651964E+03  0.12000000000E+03 0.  0.
         25    1    1    2    0    0  0.34606149797E+02  0.21466931115E+01 -0.24225250883E+03  0.27255911639E+03  0.12000000000E+03 0.  0.
<mgrwt>
<rscale>  0 0.25001200E+03</rscale>
<asrwt>0</asrwt>
<pdfrwt beam="1">  1        2 0.82453678E-01 0.25001200E+03</pdfrwt>
<pdfrwt beam="2">  1       -2 0.44856457E-02 0.25001200E+03</pdfrwt>
<totfact> 0.13139096E+04</totfact>
</mgrwt>
</event>
<event>
 4    1  0.1777979E-004  0.2580816E+03  0.7818608E-02  0.1108301E+00
          1   -1    0    0  501    0  0.00000000000E+00  0.00000000000E+00  0.71995113477E+03  0.71995113477E+03  0.00000000000E+00 0.  1.
         -1   -1    0    0    0  501 -0.00000000000E+00 -0.00000000000E+00 -0.23128691858E+02  0.23128691858E+02  0.00000000000E+00 0.  1.
         25    1    1    2    0    0  0.95379248012E+01 -0.26928860806E+02  0.23932654431E+03  0.26924585487E+03  0.12000000000E+03 0.  0.
         25    1    1    2    0    0 -0.95379248012E+01  0.26928860806E+02  0.45749589860E+03  0.47383397175E+03  0.12000000000E+03 0.  0.
<mgrwt>
<rscale>  0 0.25808160E+03</rscale>
<asrwt>0</asrwt>
<pdfrwt beam="1">  1        1 0.11076170E+00 0.25808160E+03</pdfrwt>
<pdfrwt beam="2">  1       -1 0.35582608E-02 0.25808160E+03</pdfrwt>
<totfact> 0.78753875E+03</totfact>
</mgrwt>
</event>
<event>
 4    1  0.1777979E-004  0.2755410E+03  0.7818608E-02  0.1098150E+00
          1   -1    0    0  501    0  0.00000000000E+00  0.00000000000E+00  0.17799816279E+03  0.17799816279E+03  0.00000000000E+00 0.  1.
         -1   -1    0    0    0  501 -0.00000000000E+00 -0.00000000000E+00 -0.10663433884E+03  0.10663433884E+03  0.00000000000E+00 0.  1.
         25    1    1    2    0    0  0.67646330732E+02  0.11720896221E+01  0.37563139527E+02  0.14278791723E+03  0.12000000000E+03 0.  0.
         25    1    1    2    0    0 -0.67646330732E+02 -0.11720896221E+01  0.33800684432E+02  0.14184458440E+03  0.12000000000E+03 0.  0.
<mgrwt>
<rscale>  0 0.27554104E+03</rscale>
<asrwt>0</asrwt>
<pdfrwt beam="1">  1        1 0.27384333E-01 0.27554104E+03</pdfrwt>
<pdfrwt beam="2">  1       -1 0.16405283E-01 0.27554104E+03</pdfrwt>
<totfact> 0.47058500E+03</totfact>
</mgrwt>
</event>
<event>
 4    1  0.1777979E-004  0.2424878E+03  0.7818608E-02  0.1118147E+00
          1   -1    0    0  501    0  0.00000000000E+00  0.00000000000E+00  0.75308946281E+03  0.75308946281E+03  0.00000000000E+00 0. -1.
         -1   -1    0    0    0  501 -0.00000000000E+00 -0.00000000000E+00 -0.19519708324E+02  0.19519708324E+02  0.00000000000E+00 0. -1.
         25    1    1    2    0    0  0.87617885687E+01 -0.12843881007E+02  0.34244606297E+03  0.36319559505E+03  0.12000000000E+03 0.  0.
         25    1    1    2    0    0 -0.87617885687E+01  0.12843881007E+02  0.39112369152E+03  0.40941357609E+03  0.12000000000E+03 0.  0.
<mgrwt>
<rscale>  0 0.24248783E+03</rscale>
<asrwt>0</asrwt>
<pdfrwt beam="1">  1        1 0.11585989E+00 0.24248783E+03</pdfrwt>
<pdfrwt beam="2">  1       -1 0.30030326E-02 0.24248783E+03</pdfrwt>
<totfact> 0.94424645E+03</totfact>
</mgrwt>
</event>
<event>
 4    1  0.1777979E-004  0.2433766E+03  0.7818608E-02  0.1117564E+00
         -1   -1    0    0    0  501 -0.00000000000E+00  0.00000000000E+00  0.45487235386E+03  0.45487235386E+03  0.00000000000E+00 0.  1.
          1   -1    0    0  501    0  0.00000000000E+00 -0.00000000000E+00 -0.32554273659E+02  0.32554273659E+02  0.00000000000E+00 0.  1.
         25    1    1    2    0    0  0.11508113035E+01 -0.20166579343E+02  0.21146800069E+03  0.24398100460E+03  0.12000000000E+03 0.  0.
         25    1    1    2    0    0 -0.11508113035E+01  0.20166579343E+02  0.21085007951E+03  0.24344562292E+03  0.12000000000E+03 0.  0.
<mgrwt>
<rscale>  0 0.24337657E+03</rscale>
<asrwt>0</asrwt>
<pdfrwt beam="1">  1        1 0.50083501E-02 0.24337657E+03</pdfrwt>
<pdfrwt beam="2">  1       -1 0.69980357E-01 0.24337657E+03</pdfrwt>
<totfact> 0.35332757E+03</totfact>
</mgrwt>
</event>
<event>
 4    1  0.1777979E-004  0.3754838E+03  0.7818608E-02  0.1052616E+00
          1   -1    0    0  501    0  0.00000000000E+00  0.00000000000E+00  0.45282122927E+03  0.45282122927E+03  0.00000000000E+00 0.  1.
         -1   -1    0    0    0  501 -0.00000000000E+00 -0.00000000000E+00 -0.77838732136E+02  0.77838732136E+02  0.00000000000E+00 0.  1.
         25    1    1    2    0    0 -0.13140112408E+03  0.59630163793E+02  0.19456021517E+03  0.27032515453E+03  0.12000000000E+03 0.  0.
         25    1    1    2    0    0  0.13140112408E+03 -0.59630163793E+02  0.18042228196E+03  0.26033480687E+03  0.12000000000E+03 0.  0.
<mgrwt>
<rscale>  0 0.37548385E+03</rscale>
<asrwt>0</asrwt>
<pdfrwt beam="1">  1        1 0.69664803E-01 0.37548385E+03</pdfrwt>
<pdfrwt beam="2">  1       -1 0.11975190E-01 0.37548385E+03</pdfrwt>
<totfact> 0.23771025E+03</totfact>
</mgrwt>
</event>
<event>
 4    1  0.1777979E-004  0.3026853E+03  0.7818608E-02  0.1083906E+00
         -2   -1    0    0    0  501 -0.00000000000E+00  0.00000000000E+00  0.23038369869E+02  0.23038369869E+02  0.00000000000E+00 0.  1.
          2   -1    0    0  501    0  0.00000000000E+00 -0.00000000000E+00 -0.99419381311E+03  0.99419381311E+03  0.00000000000E+00 0.  1.
         25    1    1    2    0    0 -0.10339015539E+02  0.90699133133E+02 -0.52957286145E+03  0.55061841921E+03  0.12000000000E+03 0.  0.
         25    1    1    2    0    0  0.10339015539E+02 -0.90699133133E+02 -0.44158258179E+03  0.46661376377E+03  0.12000000000E+03 0.  0.
<mgrwt>
<rscale>  0 0.30268535E+03</rscale>
<asrwt>0</asrwt>
<pdfrwt beam="1">  1        2 0.15295286E+00 0.30268535E+03</pdfrwt>
<pdfrwt beam="2">  1       -2 0.35443654E-02 0.30268535E+03</pdfrwt>
<totfact> 0.87416711E+03</totfact>
</mgrwt>
</event>
<event>
 4    1  0.1777979E-004  0.2644902E+03  0.7818608E-02  0.1104475E+00
          1   -1    0    0  501    0  0.00000000000E+00  0.00000000000E+00  0.11106460013E+04  0.11106460013E+04  0.00000000000E+00 0.  1.
         -1   -1    0    0    0  501 -0.00000000000E+00 -0.00000000000E+00 -0.15746484213E+02  0.15746484213E+02  0.00000000000E+00 0.  1.
         25    1    1    2    0    0 -0.76497091242E+01 -0.51604119422E+02  0.46583460580E+03  0.48386297973E+03  0.12000000000E+03 0.  0.
         25    1    1    2    0    0  0.76497091242E+01  0.51604119422E+02  0.62906491134E+03  0.64252950583E+03  0.12000000000E+03 0.  0.
<mgrwt>
<rscale>  0 0.26449022E+03</rscale>
<asrwt>0</asrwt>
<pdfrwt beam="1">  1        1 0.17086855E+00 0.26449022E+03</pdfrwt>
<pdfrwt beam="2">  1       -1 0.24225369E-02 0.26449022E+03</pdfrwt>
<totfact> 0.68460875E+03</totfact>
</mgrwt>
</event>
<event>
 4    1  0.1777979E-004  0.2678982E+03  0.7818608E-02  0.1102489E+00
          1   -1    0    0  501    0  0.00000000000E+00  0.00000000000E+00  0.24096705094E+03  0.24096705094E+03  0.00000000000E+00 0.  1.
         -1   -1    0    0    0  501 -0.00000000000E+00 -0.00000000000E+00 -0.74459803841E+02  0.74459803841E+02  0.00000000000E+00 0.  1.
         25    1    1    2    0    0 -0.44275013952E+02 -0.39769886881E+02  0.84033371565E+02  0.15812504008E+03  0.12000000000E+03 0.  0.
         25    1    1    2    0    0  0.44275013952E+02  0.39769886881E+02  0.82473875532E+02  0.15730181470E+03  0.12000000000E+03 0.  0.
<mgrwt>
<rscale>  0 0.26789818E+03</rscale>
<asrwt>0</asrwt>
<pdfrwt beam="1">  1        1 0.37071854E-01 0.26789818E+03</pdfrwt>
<pdfrwt beam="2">  1       -1 0.11455355E-01 0.26789818E+03</pdfrwt>
<totfact> 0.56548346E+03</totfact>
</mgrwt>
</event>
<event>
 4    1  0.1777979E-004  0.2854534E+03  0.7818608E-02  0.1092747E+00
         -2   -1    0    0    0  501 -0.00000000000E+00  0.00000000000E+00  0.22403034645E+02  0.22403034645E+02  0.00000000000E+00 0. -1.
          2   -1    0    0  501    0  0.00000000000E+00 -0.00000000000E+00 -0.90929263432E+03  0.90929263432E+03  0.00000000000E+00 0. -1.
         25    1    1    2    0    0 -0.33920621998E+02 -0.63121007212E+02 -0.53781903588E+03  0.55568352999E+03  0.12000000000E+03 0.  0.
         25    1    1    2    0    0  0.33920621998E+02  0.63121007212E+02 -0.34907056380E+03  0.37601213898E+03  0.12000000000E+03 0.  0.
<mgrwt>
<rscale>  0 0.28545342E+03</rscale>
<asrwt>0</asrwt>
<pdfrwt beam="1">  1        2 0.13989117E+00 0.28545342E+03</pdfrwt>
<pdfrwt beam="2">  1       -2 0.34466208E-02 0.28545342E+03</pdfrwt>
<totfact> 0.10293861E+04</totfact>
</mgrwt>
</event>
<event>
 4    1  0.1777979E-004  0.2769122E+03  0.7818608E-02  0.1097388E+00
         -1   -1    0    0    0  501 -0.00000000000E+00  0.00000000000E+00  0.60041877357E+03  0.60041877357E+03  0.00000000000E+00 0.  1.
          1   -1    0    0  501    0  0.00000000000E+00 -0.00000000000E+00 -0.31927859312E+02  0.31927859312E+02  0.00000000000E+00 0.  1.
         25    1    1    2    0    0 -0.47344687013E+02 -0.16375089902E+02  0.17567590206E+03  0.21856734779E+03  0.12000000000E+03 0.  0.
         25    1    1    2    0    0  0.47344687013E+02  0.16375089902E+02  0.39281501220E+03  0.41377928509E+03  0.12000000000E+03 0.  0.
<mgrwt>
<rscale>  0 0.27691216E+03</rscale>
<asrwt>0</asrwt>
<pdfrwt beam="1">  1        1 0.49119788E-02 0.27691216E+03</pdfrwt>
<pdfrwt beam="2">  1       -1 0.92372111E-01 0.27691216E+03</pdfrwt>
<totfact> 0.20467316E+03</totfact>
</mgrwt>
</event>
<event>
 4    1  0.1777979E-004  0.2419403E+03  0.7818608E-02  0.1118507E+00
          1   -1    0    0  501    0  0.00000000000E+00  0.00000000000E+00  0.80986461430E+02  0.80986461430E+02  0.00000000000E+00 0. -1.
         -1   -1    0    0    0  501 -0.00000000000E+00 -0.00000000000E+00 -0.18069410392E+03  0.18069410392E+03  0.00000000000E+00 0. -1.
         25    1    1    2    0    0  0.14989356375E+02 -0.26488529314E+00 -0.46604523649E+02  0.12960220906E+03  0.12000000000E+03 0.  0.
         25    1    1    2    0    0 -0.14989356375E+02  0.26488529314E+00 -0.53103118836E+02  0.13207835628E+03  0.12000000000E+03 0.  0.
<mgrwt>
<rscale>  0 0.24194029E+03</rscale>
<asrwt>0</asrwt>
<pdfrwt beam="1">  1        1 0.12459456E-01 0.24194029E+03</pdfrwt>
<pdfrwt beam="2">  1       -1 0.27799093E-01 0.24194029E+03</pdfrwt>
<totfact> 0.54769166E+03</totfact>
</mgrwt>
</event>
<event>
 4    1  0.1777979E-004  0.2490427E+03  0.7818608E-02  0.1113911E+00
         -2   -1    0    0    0  501 -0.00000000000E+00  0.00000000000E+00  0.48286793066E+02  0.48286793066E+02  0.00000000000E+00 0. -1.
          2   -1    0    0  501    0  0.00000000000E+00 -0.00000000000E+00 -0.32111408026E+03  0.32111408026E+03  0.00000000000E+00 0. -1.
         25    1    1    2    0    0 -0.21125040457E+02  0.24320554413E+02 -0.14862822985E+03  0.19372172674E+03  0.12000000000E+03 0.  0.
         25    1    1    2    0    0  0.21125040457E+02 -0.24320554413E+02 -0.12419905734E+03  0.17567914659E+03  0.12000000000E+03 0.  0.
<mgrwt>
<rscale>  0 0.24904272E+03</rscale>
<asrwt>0</asrwt>
<pdfrwt beam="1">  1        2 0.49402165E-01 0.24904272E+03</pdfrwt>
<pdfrwt beam="2">  1       -2 0.74287376E-02 0.24904272E+03</pdfrwt>
<totfact> 0.10632737E+04</totfact>
</mgrwt>
</event>
<event>
 4    1  0.1777979E-004  0.2833071E+03  0.7818608E-02  0.1093896E+00
          2   -1    0    0  501    0  0.00000000000E+00  0.00000000000E+00  0.48613882932E+03  0.48613882932E+03  0.00000000000E+00 0. -1.
         -2   -1    0    0    0  501 -0.00000000000E+00 -0.00000000000E+00 -0.41275725600E+02  0.41275725600E+02  0.00000000000E+00 0. -1.
         25    1    1    2    0    0  0.55426895075E+02 -0.50886611825E+02  0.22622168861E+03  0.26690417823E+03  0.12000000000E+03 0.  0.
         25    1    1    2    0    0 -0.55426895075E+02  0.50886611825E+02  0.21864141512E+03  0.26051037669E+03  0.12000000000E+03 0.  0.
<mgrwt>
<rscale>  0 0.28330713E+03</rscale>
<asrwt>0</asrwt>
<pdfrwt beam="1">  1        2 0.74790585E-01 0.28330713E+03</pdfrwt>
<pdfrwt beam="2">  1       -2 0.63501120E-02 0.28330713E+03</pdfrwt>
<totfact> 0.86751690E+03</totfact>
</mgrwt>
</event>
<event>
 4    1  0.1777979E-004  0.5905882E+03  0.7818608E-02  0.9925127E-01
          2   -1    0    0  501    0  0.00000000000E+00  0.00000000000E+00  0.16776166860E+03  0.16776166860E+03  0.00000000000E+00 0. -1.
         -2   -1    0    0    0  501 -0.00000000000E+00 -0.00000000000E+00 -0.51977675318E+03  0.51977675318E+03  0.00000000000E+00 0. -1.
         25    1    1    2    0    0 -0.59352621851E+02  0.13179884225E+03 -0.44123382481E+03  0.47956329791E+03  0.12000000000E+03 0.  0.
         25    1    1    2    0    0  0.59352621851E+02 -0.13179884225E+03  0.89218740231E+02  0.20797512387E+03  0.12000000000E+03 0.  0.
<mgrwt>
<rscale>  0 0.59058823E+03</rscale>
<asrwt>0</asrwt>
<pdfrwt beam="1">  1        2 0.25809487E-01 0.59058823E+03</pdfrwt>
<pdfrwt beam="2">  1       -2 0.79965655E-01 0.59058823E+03</pdfrwt>
<totfact> 0.29552744E+02</totfact>
</mgrwt>
</event>
<event>
 4    1  0.1777979E-004  0.2586897E+03  0.7818608E-02  0.1107933E+00
         -2   -1    0    0    0  501 -0.00000000000E+00  0.00000000000E+00  0.42533191772E+02  0.42533191772E+02  0.00000000000E+00 0. -1.
          2   -1    0    0  501    0  0.00000000000E+00 -0.00000000000E+00 -0.39334210567E+03  0.39334210567E+03  0.00000000000E+00 0. -1.
         25    1    1    2    0    0 -0.22203126894E+02  0.42834519989E+02 -0.17797101998E+03  0.22000331565E+03  0.12000000000E+03 0.  0.
         25    1    1    2    0    0  0.22203126894E+02 -0.42834519989E+02 -0.17283789392E+03  0.21587198179E+03  0.12000000000E+03 0.  0.
<mgrwt>
<rscale>  0 0.25868974E+03</rscale>
<asrwt>0</asrwt>
<pdfrwt beam="1">  1        2 0.60514172E-01 0.25868974E+03</pdfrwt>
<pdfrwt beam="2">  1       -2 0.65435678E-02 0.25868974E+03</pdfrwt>
<totfact> 0.10413340E+04</totfact>
</mgrwt>
</event>
<event>
 4    1  0.1777979E-004  0.2713823E+03  0.7818608E-02  0.1100491E+00
          4   -1    0    0  501    0  0.00000000000E+00  0.00000000000E+00  0.14689757175E+03  0.14689757175E+03  0.00000000000E+00 0. -1.
         -4   -1    0    0    0  501 -0.00000000000E+00 -0.00000000000E+00 -0.12533960602E+03  0.12533960602E+03  0.00000000000E+00 0. -1.
         25    1    1    2    0    0  0.22965291083E+02  0.48012063737E+02  0.45231327982E+02  0.13884680727E+03  0.12000000000E+03 0.  0.
         25    1    1    2    0    0 -0.22965291083E+02 -0.48012063737E+02 -0.23673362252E+02  0.13339037049E+03  0.12000000000E+03 0.  0.
<mgrwt>
<rscale>  0 0.27138227E+03</rscale>
<asrwt>0</asrwt>
<pdfrwt beam="1">  1        4 0.22599627E-01 0.27138227E+03</pdfrwt>
<pdfrwt beam="2">  1       -4 0.19283016E-01 0.27138227E+03</pdfrwt>
<totfact> 0.81461829E+02</totfact>
</mgrwt>
</event>
<event>
 4    1  0.1777979E-004  0.3150103E+03  0.7818608E-02  0.1077969E+00
         -2   -1    0    0    0  501 -0.00000000000E+00  0.00000000000E+00  0.77409749736E+02  0.77409749736E+02  0.00000000000E+00 0.  1.
          2   -1    0    0  501    0  0.00000000000E+00 -0.00000000000E+00 -0.32047481039E+03  0.32047481039E+03  0.00000000000E+00 0.  1.
         25    1    1    2    0    0  0.12776693689E+02  0.98206824761E+02 -0.90592108926E+02  0.18004098014E+03  0.12000000000E+03 0.  0.
         25    1    1    2    0    0 -0.12776693689E+02 -0.98206824761E+02 -0.15247295173E+03  0.21784357998E+03  0.12000000000E+03 0.  0.
<mgrwt>
<rscale>  0 0.31501032E+03</rscale>
<asrwt>0</asrwt>
<pdfrwt beam="1">  1        2 0.49303816E-01 0.31501032E+03</pdfrwt>
<pdfrwt beam="2">  1       -2 0.11909193E-01 0.31501032E+03</pdfrwt>
<totfact> 0.50907348E+03</totfact>
</mgrwt>
</event>
<event>
 4    1  0.1777979E-004  0.2462836E+03  0.7818608E-02  0.1115676E+00
         -2   -1    0    0    0  501 -0.00000000000E+00  0.00000000000E+00  0.61123224246E+01  0.61123224246E+01  0.00000000000E+00 0. -1.
          2   -1    0    0  501    0  0.00000000000E+00 -0.00000000000E+00 -0.24808731964E+04  0.24808731964E+04  0.00000000000E+00 0. -1.
         25    1    1    2    0    0 -0.27033291658E+02  0.52127317546E+01 -0.12127995148E+04  0.12190326634E+04  0.12000000000E+03 0.  0.
         25    1    1    2    0    0  0.27033291658E+02 -0.52127317546E+01 -0.12619613592E+04  0.12679528554E+04  0.12000000000E+03 0.  0.
<mgrwt>
<rscale>  0 0.24628355E+03</rscale>
<asrwt>0</asrwt>
<pdfrwt beam="1">  1        2 0.38167260E+00 0.24628355E+03</pdfrwt>
<pdfrwt beam="2">  1       -2 0.94035779E-03 0.24628355E+03</pdfrwt>
<totfact> 0.95706858E+03</totfact>
</mgrwt>
</event>
<event>
 4    1  0.1777979E-004  0.3751579E+03  0.7818608E-02  0.1052738E+00
         -1   -1    0    0    0  501 -0.00000000000E+00  0.00000000000E+00  0.29928466813E+02  0.29928466813E+02  0.00000000000E+00 0.  1.
          1   -1    0    0  501    0  0.00000000000E+00 -0.00000000000E+00 -0.11756655799E+04  0.11756655799E+04  0.00000000000E+00 0.  1.
         25    1    1    2    0    0  0.83375416323E+02  0.16105985184E+01 -0.19492535622E+03  0.24361844875E+03  0.12000000000E+03 0.  0.
         25    1    1    2    0    0 -0.83375416323E+02 -0.16105985184E+01 -0.95081175687E+03  0.96197559796E+03  0.12000000000E+03 0.  0.
<mgrwt>
<rscale>  0 0.37515793E+03</rscale>
<asrwt>0</asrwt>
<pdfrwt beam="1">  1        1 0.18087164E+00 0.37515793E+03</pdfrwt>
<pdfrwt beam="2">  1       -1 0.46043791E-02 0.37515793E+03</pdfrwt>
<totfact> 0.23756121E+03</totfact>
</mgrwt>
</event>
<event>
 4    1  0.1777979E-004  0.2717884E+03  0.7818608E-02  0.1100260E+00
         -3   -1    0    0    0  501 -0.00000000000E+00  0.00000000000E+00  0.31114973096E+02  0.31114973096E+02  0.00000000000E+00 0.  1.
          3   -1    0    0  501    0  0.00000000000E+00 -0.00000000000E+00 -0.59351599658E+03  0.59351599658E+03  0.00000000000E+00 0.  1.
         25    1    1    2    0    0  0.20128913033E+01 -0.24249805027E+02 -0.14571960827E+03  0.19033210189E+03  0.12000000000E+03 0.  0.
         25    1    1    2    0    0 -0.20128913033E+01  0.24249805027E+02 -0.41668141522E+03  0.43429886779E+03  0.12000000000E+03 0.  0.
<mgrwt>
<rscale>  0 0.27178840E+03</rscale>
<asrwt>0</asrwt>
<pdfrwt beam="1">  1        3 0.91310142E-01 0.27178840E+03</pdfrwt>
<pdfrwt beam="2">  1       -3 0.47869196E-02 0.27178840E+03</pdfrwt>
<totfact> 0.69026333E+02</totfact>
</mgrwt>
</event>
<event>
 4    1  0.1777979E-004  0.2597226E+03  0.7818608E-02  0.1107310E+00
          1   -1    0    0  501    0  0.00000000000E+00  0.00000000000E+00  0.69172430028E+03  0.69172430028E+03  0.00000000000E+00 0. -1.
         -1   -1    0    0    0  501 -0.00000000000E+00 -0.00000000000E+00 -0.24379591911E+02  0.24379591911E+02  0.00000000000E+00 0. -1.
         25    1    1    2    0    0 -0.27851262261E+02  0.40854964824E+02  0.32161136979E+03  0.34681218856E+03  0.12000000000E+03 0.  0.
         25    1    1    2    0    0  0.27851262261E+02 -0.40854964824E+02  0.34573333858E+03  0.36929170363E+03  0.12000000000E+03 0.  0.
<mgrwt>
<rscale>  0 0.25972259E+03</rscale>
<asrwt>0</asrwt>
<pdfrwt beam="1">  1        1 0.10641911E+00 0.25972259E+03</pdfrwt>
<pdfrwt beam="2">  1       -1 0.37507070E-02 0.25972259E+03</pdfrwt>
<totfact> 0.77242282E+03</totfact>
</mgrwt>
</event>
<event>
 4    1  0.1777979E-004  0.3925625E+03  0.7818608E-02  0.1046386E+00
          2   -1    0    0  501    0  0.00000000000E+00  0.00000000000E+00  0.40897772127E+03  0.40897772127E+03  0.00000000000E+00 0. -1.
         -2   -1    0    0    0  501 -0.00000000000E+00 -0.00000000000E+00 -0.94201532074E+02  0.94201532074E+02  0.00000000000E+00 0. -1.
         25    1    1    2    0    0  0.39453804144E+02  0.97572161904E+01 -0.34770208112E+02  0.13138026222E+03  0.12000000000E+03 0.  0.
         25    1    1    2    0    0 -0.39453804144E+02 -0.97572161904E+01  0.34954639731E+03  0.37179899112E+03  0.12000000000E+03 0.  0.
<mgrwt>
<rscale>  0 0.39256249E+03</rscale>
<asrwt>0</asrwt>
<pdfrwt beam="1">  1        2 0.62919649E-01 0.39256249E+03</pdfrwt>
<pdfrwt beam="2">  1       -2 0.14492544E-01 0.39256249E+03</pdfrwt>
<totfact> 0.28405546E+03</totfact>
</mgrwt>
</event>
<event>
 4    1  0.1777979E-004  0.3257773E+03  0.7818608E-02  0.1073021E+00
          2   -1    0    0  501    0  0.00000000000E+00  0.00000000000E+00  0.42223501919E+04  0.42223501919E+04  0.00000000000E+00 0.  1.
         -2   -1    0    0    0  501 -0.00000000000E+00 -0.00000000000E+00 -0.62838729587E+01  0.62838729587E+01  0.00000000000E+00 0.  1.
         25    1    1    2    0    0 -0.46347647417E+02 -0.25241154071E+02  0.85308197053E+03  0.86309563127E+03  0.12000000000E+03 0.  0.
         25    1    1    2    0    0  0.46347647417E+02  0.25241154071E+02  0.33629843484E+04  0.33655384336E+04  0.12000000000E+03 0.  0.
<mgrwt>
<rscale>  0 0.32577730E+03</rscale>
<asrwt>0</asrwt>
<pdfrwt beam="1">  1        2 0.64959007E+00 0.32577730E+03</pdfrwt>
<pdfrwt beam="2">  1       -2 0.96675306E-03 0.32577730E+03</pdfrwt>
<totfact> 0.65727282E+02</totfact>
</mgrwt>
</event>
<event>
 4    1  0.1777979E-004  0.2422332E+03  0.7818608E-02  0.1118314E+00
         -2   -1    0    0    0  501 -0.00000000000E+00  0.00000000000E+00  0.37275849142E+03  0.37275849142E+03  0.00000000000E+00 0. -1.
          2   -1    0    0  501    0  0.00000000000E+00 -0.00000000000E+00 -0.39353177758E+02  0.39353177758E+02  0.00000000000E+00 0. -1.
         25    1    1    2    0    0 -0.74642941832E+01 -0.12248811714E+02  0.15314742737E+03  0.19508942459E+03  0.12000000000E+03 0.  0.
         25    1    1    2    0    0  0.74642941832E+01  0.12248811714E+02  0.18025788629E+03  0.21702224459E+03  0.12000000000E+03 0.  0.
<mgrwt>
<rscale>  0 0.24223320E+03</rscale>
<asrwt>0</asrwt>
<pdfrwt beam="1">  1        2 0.60543353E-02 0.24223320E+03</pdfrwt>
<pdfrwt beam="2">  1       -2 0.57347458E-01 0.24223320E+03</pdfrwt>
<totfact> 0.35095577E+03</totfact>
</mgrwt>
</event>
<event>
 4    1  0.1777979E-004  0.2802779E+03  0.7818608E-02  0.1095537E+00
          1   -1    0    0  501    0  0.00000000000E+00  0.00000000000E+00  0.61955525226E+03  0.61955525226E+03  0.00000000000E+00 0.  1.
         -1   -1    0    0    0  501 -0.00000000000E+00 -0.00000000000E+00 -0.31698433083E+02  0.31698433083E+02  0.00000000000E+00 0.  1.
         25    1    1    2    0    0  0.38652860898E+02 -0.47551146585E+02  0.20442380498E+03  0.24483514298E+03  0.12000000000E+03 0.  0.
         25    1    1    2    0    0 -0.38652860898E+02  0.47551146585E+02  0.38343301420E+03  0.40641854236E+03  0.12000000000E+03 0.  0.
<mgrwt>
<rscale>  0 0.28027794E+03</rscale>
<asrwt>0</asrwt>
<pdfrwt beam="1">  1        1 0.95316183E-01 0.28027794E+03</pdfrwt>
<pdfrwt beam="2">  1       -1 0.48766825E-02 0.28027794E+03</pdfrwt>
<totfact> 0.61266123E+03</totfact>
</mgrwt>
</event>
<event>
 4    1  0.1777979E-004  0.4965025E+03  0.7818608E-02  0.1014696E+00
         -1   -1    0    0    0  501 -0.00000000000E+00  0.00000000000E+00  0.15703266172E+03  0.15703266172E+03  0.00000000000E+00 0. -1.
          1   -1    0    0  501    0  0.00000000000E+00 -0.00000000000E+00 -0.39245778583E+03  0.39245778583E+03  0.00000000000E+00 0. -1.
         25    1    1    2    0    0  0.15928701049E+03 -0.11271316699E+03 -0.11836298071E+02  0.22938332040E+03  0.12000000000E+03 0.  0.
         25    1    1    2    0    0 -0.15928701049E+03  0.11271316699E+03 -0.22358882604E+03  0.32010712715E+03  0.12000000000E+03 0.  0.
<mgrwt>
<rscale>  0 0.49650253E+03</rscale>
<asrwt>0</asrwt>
<pdfrwt beam="1">  1        1 0.60378120E-01 0.49650253E+03</pdfrwt>
<pdfrwt beam="2">  1       -1 0.24158871E-01 0.49650253E+03</pdfrwt>
<totfact> 0.91758342E+02</totfact>
</mgrwt>
</event>
<event>
 4    1  0.1777979E-004  0.5111491E+03  0.7818608E-02  0.1010909E+00
          1   -1    0    0  501    0  0.00000000000E+00  0.00000000000E+00  0.73342218349E+03  0.73342218349E+03  0.00000000000E+00 0. -1.
         -1   -1    0    0    0  501 -0.00000000000E+00 -0.00000000000E+00 -0.89059688137E+02  0.89059688137E+02  0.00000000000E+00 0. -1.
         25    1    1    2    0    0 -0.17134637786E+03  0.13454240632E+03  0.22757161165E+03  0.33712027340E+03  0.12000000000E+03 0.  0.
         25    1    1    2    0    0  0.17134637786E+03 -0.13454240632E+03  0.41679088370E+03  0.48536159823E+03  0.12000000000E+03 0.  0.
<mgrwt>
<rscale>  0 0.51114910E+03</rscale>
<asrwt>0</asrwt>
<pdfrwt beam="1">  1        1 0.11283418E+00 0.51114910E+03</pdfrwt>
<pdfrwt beam="2">  1       -1 0.13701491E-01 0.51114910E+03</pdfrwt>
<totfact> 0.97437014E+02</totfact>
</mgrwt>
</event>
<event>
 4    1  0.1777979E-004  0.2907348E+03  0.7818608E-02  0.1089966E+00
         -3   -1    0    0    0  501 -0.00000000000E+00  0.00000000000E+00  0.61029132587E+02  0.61029132587E+02  0.00000000000E+00 0.  1.
          3   -1    0    0  501    0  0.00000000000E+00 -0.00000000000E+00 -0.34625573746E+03  0.34625573746E+03  0.00000000000E+00 0.  1.
         25    1    1    2    0    0 -0.50987643040E+01  0.81520687333E+02 -0.15347057626E+03  0.21124591745E+03  0.12000000000E+03 0.  0.
         25    1    1    2    0    0  0.50987643040E+01 -0.81520687333E+02 -0.13175602861E+03  0.19603895260E+03  0.12000000000E+03 0.  0.
<mgrwt>
<rscale>  0 0.29073484E+03</rscale>
<asrwt>0</asrwt>
<pdfrwt beam="1">  1        3 0.53270113E-01 0.29073484E+03</pdfrwt>
<pdfrwt beam="2">  1       -3 0.93890973E-02 0.29073484E+03</pdfrwt>
<totfact> 0.73612711E+02</totfact>
</mgrwt>
</event>
<event>
 4    1  0.1777979E-004  0.3201634E+03  0.7818608E-02  0.1075574E+00
          2   -1    0    0  501    0  0.00000000000E+00  0.00000000000E+00  0.21277970518E+03  0.21277970518E+03  0.00000000000E+00 0. -1.
         -2   -1    0    0    0  501 -0.00000000000E+00 -0.00000000000E+00 -0.12043516211E+03  0.12043516211E+03  0.00000000000E+00 0. -1.
         25    1    1    2    0    0 -0.82419901099E+02  0.54529645506E+02  0.64096601854E+01  0.15558793681E+03  0.12000000000E+03 0.  0.
         25    1    1    2    0    0  0.82419901099E+02 -0.54529645506E+02  0.85934882891E+02  0.17762693049E+03  0.12000000000E+03 0.  0.
<mgrwt>
<rscale>  0 0.32016345E+03</rscale>
<asrwt>0</asrwt>
<pdfrwt beam="1">  1        2 0.32735339E-01 0.32016345E+03</pdfrwt>
<pdfrwt beam="2">  1       -2 0.18528487E-01 0.32016345E+03</pdfrwt>
<totfact> 0.38183446E+03</totfact>
</mgrwt>
</event>
<event>
 4    1  0.1777979E-004  0.2862778E+03  0.7818608E-02  0.1092309E+00
         -3   -1    0    0    0  501 -0.00000000000E+00  0.00000000000E+00  0.47879635478E+02  0.47879635478E+02  0.00000000000E+00 0. -1.
          3   -1    0    0  501    0  0.00000000000E+00 -0.00000000000E+00 -0.42792204544E+03  0.42792204544E+03  0.00000000000E+00 0. -1.
         25    1    1    2    0    0 -0.42419444329E+01  0.57582615853E+02 -0.10278454797E+03  0.16822132755E+03  0.12000000000E+03 0.  0.
         25    1    1    2    0    0  0.42419444329E+01 -0.57582615853E+02 -0.27725786199E+03  0.30758035336E+03  0.12000000000E+03 0.  0.
<mgrwt>
<rscale>  0 0.28627785E+03</rscale>
<asrwt>0</asrwt>
<pdfrwt beam="1">  1        3 0.65834162E-01 0.28627785E+03</pdfrwt>
<pdfrwt beam="2">  1       -3 0.73660976E-02 0.28627785E+03</pdfrwt>
<totfact> 0.70642587E+02</totfact>
</mgrwt>
</event>
<event>
 4    1  0.1777979E-004  0.2640321E+03  0.7818608E-02  0.1104745E+00
          2   -1    0    0  501    0  0.00000000000E+00  0.00000000000E+00  0.16859861635E+04  0.16859861635E+04  0.00000000000E+00 0.  1.
         -2   -1    0    0    0  501 -0.00000000000E+00 -0.00000000000E+00 -0.10337118413E+02  0.10337118413E+02  0.00000000000E+00 0.  1.
         25    1    1    2    0    0 -0.19876658953E+02 -0.11490955915E+02  0.51651861785E+03  0.53077170820E+03  0.12000000000E+03 0.  0.
         25    1    1    2    0    0  0.19876658953E+02  0.11490955915E+02  0.11591304273E+04  0.11655515738E+04  0.12000000000E+03 0.  0.
<mgrwt>
<rscale>  0 0.26403211E+03</rscale>
<asrwt>0</asrwt>
<pdfrwt beam="1">  1        2 0.25938227E+00 0.26403211E+03</pdfrwt>
<pdfrwt beam="2">  1       -2 0.15903272E-02 0.26403211E+03</pdfrwt>
<totfact> 0.11755592E+04</totfact>
</mgrwt>
</event>
<event>
 4    1  0.1777979E-004  0.2884808E+03  0.7818608E-02  0.1091145E+00
         -2   -1    0    0    0  501 -0.00000000000E+00  0.00000000000E+00  0.19074428010E+02  0.19074428010E+02  0.00000000000E+00 0.  1.
          2   -1    0    0  501    0  0.00000000000E+00 -0.00000000000E+00 -0.10907429016E+04  0.10907429016E+04  0.00000000000E+00 0.  1.
         25    1    1    2    0    0 -0.58152143794E+01 -0.64578302986E+02 -0.35534275740E+03  0.38062139873E+03  0.12000000000E+03 0.  0.
         25    1    1    2    0    0  0.58152143794E+01  0.64578302986E+02 -0.71632571616E+03  0.72919593085E+03  0.12000000000E+03 0.  0.
<mgrwt>
<rscale>  0 0.28848083E+03</rscale>
<asrwt>0</asrwt>
<pdfrwt beam="1">  1        2 0.16780656E+00 0.28848083E+03</pdfrwt>
<pdfrwt beam="2">  1       -2 0.29345280E-02 0.28848083E+03</pdfrwt>
<totfact> 0.10126260E+04</totfact>
</mgrwt>
</event>
<event>
 4    1  0.1777979E-004  0.2641198E+03  0.7818608E-02  0.1104693E+00
         -2   -1    0    0    0  501 -0.00000000000E+00  0.00000000000E+00  0.12114114523E+02  0.12114114523E+02  0.00000000000E+00 0. -1.
          2   -1    0    0  501    0  0.00000000000E+00 -0.00000000000E+00 -0.14396280900E+04  0.14396280900E+04  0.00000000000E+00 0. -1.
         25    1    1    2    0    0  0.91278400175E+01  0.52965260152E+02 -0.78134044953E+03  0.79232665885E+03  0.12000000000E+03 0.  0.
         25    1    1    2    0    0 -0.91278400175E+01 -0.52965260152E+02 -0.64617352594E+03  0.65941554567E+03  0.12000000000E+03 0.  0.
<mgrwt>
<rscale>  0 0.26411982E+03</rscale>
<asrwt>0</asrwt>
<pdfrwt beam="1">  1        2 0.22148108E+00 0.26411982E+03</pdfrwt>
<pdfrwt beam="2">  1       -2 0.18637113E-02 0.26411982E+03</pdfrwt>
<totfact> 0.12596186E+04</totfact>
</mgrwt>
</event>
<event>
 4    1  0.1777979E-004  0.2815482E+03  0.7818608E-02  0.1094846E+00
         -2   -1    0    0    0  501 -0.00000000000E+00  0.00000000000E+00  0.21463495137E+02  0.21463495137E+02  0.00000000000E+00 0.  1.
          2   -1    0    0  501    0  0.00000000000E+00 -0.00000000000E+00 -0.92330498695E+03  0.92330498695E+03  0.00000000000E+00 0.  1.
         25    1    1    2    0    0 -0.23417587307E+02 -0.69416575190E+02 -0.42712001953E+03  0.44966493680E+03  0.12000000000E+03 0.  0.
         25    1    1    2    0    0  0.23417587307E+02  0.69416575190E+02 -0.47472147229E+03  0.49510354529E+03  0.12000000000E+03 0.  0.
<mgrwt>
<rscale>  0 0.28154823E+03</rscale>
<asrwt>0</asrwt>
<pdfrwt beam="1">  1        2 0.14204696E+00 0.28154823E+03</pdfrwt>
<pdfrwt beam="2">  1       -2 0.33020752E-02 0.28154823E+03</pdfrwt>
<totfact> 0.10746149E+04</totfact>
</mgrwt>
</event>
<event>
 4    1  0.1777979E-004  0.2983247E+03  0.7818608E-02  0.1086081E+00
          2   -1    0    0  501    0  0.00000000000E+00  0.00000000000E+00  0.57596723381E+03  0.57596723381E+03  0.00000000000E+00 0. -1.
         -2   -1    0    0    0  501 -0.00000000000E+00 -0.00000000000E+00 -0.38629643671E+02  0.38629643671E+02  0.00000000000E+00 0. -1.
         25    1    1    2    0    0  0.22102952174E+02 -0.83326783333E+02  0.22657311639E+03  0.27049449234E+03  0.12000000000E+03 0.  0.
         25    1    1    2    0    0 -0.22102952174E+02  0.83326783333E+02  0.31076447376E+03  0.34410238515E+03  0.12000000000E+03 0.  0.
<mgrwt>
<rscale>  0 0.29832472E+03</rscale>
<asrwt>0</asrwt>
<pdfrwt beam="1">  1        2 0.88610338E-01 0.29832472E+03</pdfrwt>
<pdfrwt beam="2">  1       -2 0.59430225E-02 0.29832472E+03</pdfrwt>
<totfact> 0.79402485E+03</totfact>
</mgrwt>
</event>
<event>
 4    1  0.1777979E-004  0.2484710E+03  0.7818608E-02  0.1114275E+00
         -1   -1    0    0    0  501 -0.00000000000E+00  0.00000000000E+00  0.41202666058E+02  0.41202666058E+02  0.00000000000E+00 0.  1.
          1   -1    0    0  501    0  0.00000000000E+00 -0.00000000000E+00 -0.37459843838E+03  0.37459843838E+03  0.00000000000E+00 0.  1.
         25    1    1    2    0    0  0.63740231852E+01 -0.29138185962E+02 -0.18683432886E+03  0.22404626418E+03  0.12000000000E+03 0.  0.
         25    1    1    2    0    0 -0.63740231852E+01  0.29138185962E+02 -0.14656144347E+03  0.19175484026E+03  0.12000000000E+03 0.  0.
<mgrwt>
<rscale>  0 0.24847096E+03</rscale>
<asrwt>0</asrwt>
<pdfrwt beam="1">  1        1 0.57630530E-01 0.24847096E+03</pdfrwt>
<pdfrwt beam="2">  1       -1 0.63388716E-02 0.24847096E+03</pdfrwt>
<totfact> 0.80092756E+03</totfact>
</mgrwt>
</event>
<event>
 4    1  0.1777979E-004  0.3310180E+03  0.7818608E-02  0.1070687E+00
         -2   -1    0    0    0  501 -0.00000000000E+00  0.00000000000E+00  0.14477314691E+02  0.14477314691E+02  0.00000000000E+00 0. -1.
          2   -1    0    0  501    0  0.00000000000E+00 -0.00000000000E+00 -0.18921483075E+04  0.18921483075E+04  0.00000000000E+00 0. -1.
         25    1    1    2    0    0  0.70059821997E+02  0.71439451233E+02 -0.62434087263E+03  0.64359420374E+03  0.12000000000E+03 0.  0.
         25    1    1    2    0    0 -0.70059821997E+02 -0.71439451233E+02 -0.12533301202E+04  0.12630314185E+04  0.12000000000E+03 0.  0.
<mgrwt>
<rscale>  0 0.33101798E+03</rscale>
<asrwt>0</asrwt>
<pdfrwt beam="1">  1        2 0.29109986E+00 0.33101798E+03</pdfrwt>
<pdfrwt beam="2">  1       -2 0.22272783E-02 0.33101798E+03</pdfrwt>
<totfact> 0.55855446E+03</totfact>
</mgrwt>
</event>
<event>
 4    1  0.1777979E-004  0.4889427E+03  0.7818608E-02  0.1016706E+00
         -2   -1    0    0    0  501 -0.00000000000E+00  0.00000000000E+00  0.13565843908E+04  0.13565843908E+04  0.00000000000E+00 0.  1.
          2   -1    0    0  501    0  0.00000000000E+00 -0.00000000000E+00 -0.44056411295E+02  0.44056411295E+02  0.00000000000E+00 0.  1.
         25    1    1    2    0    0  0.60772795122E+02  0.20230377741E+03  0.73451034197E+03  0.77364435850E+03  0.12000000000E+03 0.  0.
         25    1    1    2    0    0 -0.60772795122E+02 -0.20230377741E+03  0.57801763754E+03  0.62699644360E+03  0.12000000000E+03 0.  0.
<mgrwt>
<rscale>  0 0.48894270E+03</rscale>
<asrwt>0</asrwt>
<pdfrwt beam="1">  1        2 0.67779105E-02 0.48894270E+03</pdfrwt>
<pdfrwt beam="2">  1       -2 0.20870526E+00 0.48894270E+03</pdfrwt>
<totfact> 0.13263354E+02</totfact>
</mgrwt>
</event>
<event>
 4    1  0.1777979E-004  0.3564741E+03  0.7818608E-02  0.1059989E+00
          1   -1    0    0  501    0  0.00000000000E+00  0.00000000000E+00  0.43634957912E+02  0.43634957912E+02  0.00000000000E+00 0. -1.
         -1   -1    0    0    0  501 -0.00000000000E+00 -0.00000000000E+00 -0.72805020202E+03  0.72805020202E+03  0.00000000000E+00 0. -1.
         25    1    1    2    0    0 -0.54691195432E+02 -0.95579168126E+02 -0.49893975825E+03  0.52484987053E+03  0.12000000000E+03 0.  0.
         25    1    1    2    0    0  0.54691195432E+02  0.95579168126E+02 -0.18547548586E+03  0.24683528940E+03  0.12000000000E+03 0.  0.
<mgrwt>
<rscale>  0 0.35647407E+03</rscale>
<asrwt>0</asrwt>
<pdfrwt beam="1">  1        1 0.67130705E-02 0.35647407E+03</pdfrwt>
<pdfrwt beam="2">  1       -1 0.11200772E+00 0.35647407E+03</pdfrwt>
<totfact> 0.86295376E+02</totfact>
</mgrwt>
</event>
<event>
 4    1  0.1777979E-004  0.2871178E+03  0.7818608E-02  0.1091864E+00
          1   -1    0    0  501    0  0.00000000000E+00  0.00000000000E+00  0.23416131642E+04  0.23416131642E+04  0.00000000000E+00 0.  1.
         -1   -1    0    0    0  501 -0.00000000000E+00 -0.00000000000E+00 -0.88012633639E+01  0.88012633639E+01  0.00000000000E+00 0.  1.
         25    1    1    2    0    0 -0.45107584121E+01 -0.54761554843E+02  0.16287638678E+04  0.16341024790E+04  0.12000000000E+03 0.  0.
         25    1    1    2    0    0  0.45107584121E+01  0.54761554843E+02  0.70404803304E+03  0.71631194856E+03  0.12000000000E+03 0.  0.
<mgrwt>
<rscale>  0 0.28711777E+03</rscale>
<asrwt>0</asrwt>
<pdfrwt beam="1">  1        1 0.36024768E+00 0.28711777E+03</pdfrwt>
<pdfrwt beam="2">  1       -1 0.13540424E-02 0.28711777E+03</pdfrwt>
<totfact> 0.24440883E+03</totfact>
</mgrwt>
</event>
<event>
 4    1  0.1777979E-004  0.2474097E+03  0.7818608E-02  0.1114953E+00
         -1   -1    0    0    0  501 -0.00000000000E+00  0.00000000000E+00  0.74606420097E+02  0.74606420097E+02  0.00000000000E+00 0. -1.
          1   -1    0    0  501    0  0.00000000000E+00 -0.00000000000E+00 -0.20511486757E+03  0.20511486757E+03  0.00000000000E+00 0. -1.
         25    1    1    2    0    0  0.89648004949E+01 -0.21476518014E+02 -0.43764575230E+02  0.12983430409E+03  0.12000000000E+03 0.  0.
         25    1    1    2    0    0 -0.89648004949E+01  0.21476518014E+02 -0.86743872245E+02  0.14988698358E+03  0.12000000000E+03 0.  0.
<mgrwt>
<rscale>  0 0.24740967E+03</rscale>
<asrwt>0</asrwt>
<pdfrwt beam="1">  1        1 0.31556134E-01 0.24740967E+03</pdfrwt>
<pdfrwt beam="2">  1       -1 0.11477911E-01 0.24740967E+03</pdfrwt>
<totfact> 0.68804975E+03</totfact>
</mgrwt>
</event>
<event>
 4    1  0.1777979E-004  0.2994996E+03  0.7818608E-02  0.1085491E+00
         -2   -1    0    0    0  501 -0.00000000000E+00  0.00000000000E+00  0.33077845832E+02  0.33077845832E+02  0.00000000000E+00 0.  1.
          2   -1    0    0  501    0  0.00000000000E+00 -0.00000000000E+00 -0.67794637972E+03  0.67794637972E+03  0.00000000000E+00 0.  1.
         25    1    1    2    0    0 -0.24679629054E+01 -0.13101137456E+02 -0.53273828062E+03  0.54624885014E+03  0.12000000000E+03 0.  0.
         25    1    1    2    0    0  0.24679629054E+01  0.13101137456E+02 -0.11213025327E+03  0.16477537541E+03  0.12000000000E+03 0.  0.
<mgrwt>
<rscale>  0 0.29949962E+03</rscale>
<asrwt>0</asrwt>
<pdfrwt beam="1">  1        2 0.10429945E+00 0.29949962E+03</pdfrwt>
<pdfrwt beam="2">  1       -2 0.50888992E-02 0.29949962E+03</pdfrwt>
<totfact> 0.83096028E+03</totfact>
</mgrwt>
</event>
<event>
 4    1  0.1777979E-004  0.2580485E+03  0.7818608E-02  0.1108321E+00
          1   -1    0    0  501    0  0.00000000000E+00  0.00000000000E+00  0.67953643358E+03  0.67953643358E+03  0.00000000000E+00 0.  1.
         -1   -1    0    0    0  501 -0.00000000000E+00 -0.00000000000E+00 -0.24497967892E+02  0.24497967892E+02  0.00000000000E+00 0.  1.
         25    1    1    2    0    0 -0.45850667691E+02  0.78809722963E+01  0.35235551829E+03  0.37512505212E+03  0.12000000000E+03 0.  0.
         25    1    1    2    0    0  0.45850667691E+02 -0.78809722963E+01  0.30268294740E+03  0.32890934936E+03  0.12000000000E+03 0.  0.
<mgrwt>
<rscale>  0 0.25804854E+03</rscale>
<asrwt>0</asrwt>
<pdfrwt beam="1">  1        1 0.10454405E+00 0.25804854E+03</pdfrwt>
<pdfrwt beam="2">  1       -1 0.37689187E-02 0.25804854E+03</pdfrwt>
<totfact> 0.78670280E+03</totfact>
</mgrwt>
</event>
<event>
 4    1  0.1777979E-004  0.2725842E+03  0.7818608E-02  0.1099810E+00
         -1   -1    0    0    0  501 -0.00000000000E+00  0.00000000000E+00  0.19986388572E+02  0.19986388572E+02  0.00000000000E+00 0. -1.
          1   -1    0    0  501    0  0.00000000000E+00 -0.00000000000E+00 -0.92940952681E+03  0.92940952681E+03  0.00000000000E+00 0. -1.
         25    1    1    2    0    0  0.64594673391E+02 -0.11995759928E+01 -0.45915711271E+03  0.47895632887E+03  0.12000000000E+03 0.  0.
         25    1    1    2    0    0 -0.64594673391E+02  0.11995759928E+01 -0.45026602552E+03  0.47043958651E+03  0.12000000000E+03 0.  0.
<mgrwt>
<rscale>  0 0.27258423E+03</rscale>
<asrwt>0</asrwt>
<pdfrwt beam="1">  1        1 0.14298605E+00 0.27258423E+03</pdfrwt>
<pdfrwt beam="2">  1       -1 0.30748296E-02 0.27258423E+03</pdfrwt>
<totfact> 0.65771556E+03</totfact>
</mgrwt>
</event>
<event>
 4    1  0.1777979E-004  0.2553426E+03  0.7818608E-02  0.1109974E+00
          2   -1    0    0  501    0  0.00000000000E+00  0.00000000000E+00  0.56072894654E+03  0.56072894654E+03  0.00000000000E+00 0. -1.
         -2   -1    0    0    0  501 -0.00000000000E+00 -0.00000000000E+00 -0.29069240176E+02  0.29069240176E+02  0.00000000000E+00 0. -1.
         25    1    1    2    0    0 -0.10731264134E+02 -0.41492774706E+02  0.28418596400E+03  0.31144577781E+03  0.12000000000E+03 0.  0.
         25    1    1    2    0    0  0.10731264134E+02  0.41492774706E+02  0.24747374236E+03  0.27835240890E+03  0.12000000000E+03 0.  0.
<mgrwt>
<rscale>  0 0.25534263E+03</rscale>
<asrwt>0</asrwt>
<pdfrwt beam="1">  1        2 0.86265983E-01 0.25534263E+03</pdfrwt>
<pdfrwt beam="2">  1       -2 0.44721912E-02 0.25534263E+03</pdfrwt>
<totfact> 0.12550809E+04</totfact>
</mgrwt>
</event>
<event>
 4    1  0.1777979E-004  0.4720825E+03  0.7818608E-02  0.1021334E+00
         -1   -1    0    0    0  501 -0.00000000000E+00  0.00000000000E+00  0.62723299520E+03  0.62723299520E+03  0.00000000000E+00 0. -1.
          1   -1    0    0  501    0  0.00000000000E+00 -0.00000000000E+00 -0.88827376118E+02  0.88827376118E+02  0.00000000000E+00 0. -1.
         25    1    1    2    0    0  0.27245739715E+02 -0.19203034804E+03  0.17697020409E+03  0.28868051205E+03  0.12000000000E+03 0.  0.
         25    1    1    2    0    0 -0.27245739715E+02  0.19203034804E+03  0.36143541499E+03  0.42737985927E+03  0.12000000000E+03 0.  0.
<mgrwt>
<rscale>  0 0.47208246E+03</rscale>
<asrwt>0</asrwt>
<pdfrwt beam="1">  1        1 0.13665751E-01 0.47208246E+03</pdfrwt>
<pdfrwt beam="2">  1       -1 0.96497381E-01 0.47208246E+03</pdfrwt>
<totfact> 0.45927234E+02</totfact>
</mgrwt>
</event>
<event>
 4    1  0.1777979E-004  0.2969858E+03  0.7818608E-02  0.1086757E+00
          2   -1    0    0  501    0  0.00000000000E+00  0.00000000000E+00  0.29452709192E+03  0.29452709192E+03  0.00000000000E+00 0.  1.
         -2   -1    0    0    0  501 -0.00000000000E+00 -0.00000000000E+00 -0.74866262007E+02  0.74866262007E+02  0.00000000000E+00 0.  1.
         25    1    1    2    0    0  0.42663466047E+02 -0.75269581265E+02  0.93879516396E+02  0.17521142884E+03  0.12000000000E+03 0.  0.
         25    1    1    2    0    0 -0.42663466047E+02  0.75269581265E+02  0.12578131352E+03  0.19418192508E+03  0.12000000000E+03 0.  0.
<mgrwt>
<rscale>  0 0.29698581E+03</rscale>
<asrwt>0</asrwt>
<pdfrwt beam="1">  1        2 0.45311860E-01 0.29698581E+03</pdfrwt>
<pdfrwt beam="2">  1       -2 0.11517887E-01 0.29698581E+03</pdfrwt>
<totfact> 0.58756764E+03</totfact>
</mgrwt>
</event>
<event>
 4    1  0.1777979E-004  0.2706971E+03  0.7818608E-02  0.1100881E+00
          1   -1    0    0  501    0  0.00000000000E+00  0.00000000000E+00  0.61599073874E+03  0.61599073874E+03  0.00000000000E+00 0. -1.
         -1   -1    0    0    0  501 -0.00000000000E+00 -0.00000000000E+00 -0.29739449551E+02  0.29739449551E+02  0.00000000000E+00 0. -1.
         25    1    1    2    0    0 -0.96023099275E+01  0.87213695981E+01  0.14702952175E+03  0.19022604161E+03  0.12000000000E+03 0.  0.
         25    1    1    2    0    0  0.96023099275E+01 -0.87213695981E+01  0.43922176745E+03  0.45550414668E+03  0.12000000000E+03 0.  0.
<mgrwt>
<rscale>  0 0.27069707E+03</rscale>
<asrwt>0</asrwt>
<pdfrwt beam="1">  1        1 0.94767796E-01 0.27069707E+03</pdfrwt>
<pdfrwt beam="2">  1       -1 0.45753004E-02 0.27069707E+03</pdfrwt>
<totfact> 0.67877561E+03</totfact>
</mgrwt>
</event>
<event>
 4    1  0.1777979E-004  0.3172873E+03  0.7818608E-02  0.1076905E+00
          2   -1    0    0  501    0  0.00000000000E+00  0.00000000000E+00  0.56691878057E+03  0.56691878057E+03  0.00000000000E+00 0.  1.
         -2   -1    0    0    0  501 -0.00000000000E+00 -0.00000000000E+00 -0.44394024311E+02  0.44394024311E+02  0.00000000000E+00 0.  1.
         25    1    1    2    0    0 -0.29836804396E+01  0.96687390492E+02  0.33362095533E+03  0.36750550427E+03  0.12000000000E+03 0.  0.
         25    1    1    2    0    0  0.29836804396E+01 -0.96687390492E+02  0.18890380093E+03  0.24380730062E+03  0.12000000000E+03 0.  0.
<mgrwt>
<rscale>  0 0.31728729E+03</rscale>
<asrwt>0</asrwt>
<pdfrwt beam="1">  1        2 0.87218269E-01 0.31728729E+03</pdfrwt>
<pdfrwt beam="2">  1       -2 0.68298503E-02 0.31728729E+03</pdfrwt>
<totfact> 0.65350777E+03</totfact>
</mgrwt>
</event>
<event>
 4    1  0.1777979E-004  0.2663386E+03  0.7818608E-02  0.1103394E+00
         -2   -1    0    0    0  501 -0.00000000000E+00  0.00000000000E+00  0.25587751432E+02  0.25587751432E+02  0.00000000000E+00 0.  1.
          2   -1    0    0  501    0  0.00000000000E+00 -0.00000000000E+00 -0.69306853100E+03  0.69306853100E+03  0.00000000000E+00 0.  1.
         25    1    1    2    0    0 -0.29218608051E+02  0.35391495380E+02 -0.42828731480E+03  0.44714238115E+03  0.12000000000E+03 0.  0.
         25    1    1    2    0    0  0.29218608051E+02 -0.35391495380E+02 -0.23919346478E+03  0.27151390129E+03  0.12000000000E+03 0.  0.
<mgrwt>
<rscale>  0 0.26633862E+03</rscale>
<asrwt>0</asrwt>
<pdfrwt beam="1">  1        2 0.10662593E+00 0.26633862E+03</pdfrwt>
<pdfrwt beam="2">  1       -2 0.39365772E-02 0.26633862E+03</pdfrwt>
<totfact> 0.11884736E+04</totfact>
</mgrwt>
</event>
<event>
 4    1  0.1777979E-004  0.2488284E+03  0.7818608E-02  0.1114047E+00
          1   -1    0    0  501    0  0.00000000000E+00  0.00000000000E+00  0.10747521908E+03  0.10747521908E+03  0.00000000000E+00 0. -1.
         -1   -1    0    0    0  501 -0.00000000000E+00 -0.00000000000E+00 -0.14402291765E+03  0.14402291765E+03  0.00000000000E+00 0. -1.
         25    1    1    2    0    0  0.72445810531E+01  0.12549019341E+02 -0.48067786362E+02  0.13007872204E+03  0.12000000000E+03 0.  0.
         25    1    1    2    0    0 -0.72445810531E+01 -0.12549019341E+02  0.11520087790E+02  0.12141941469E+03  0.12000000000E+03 0.  0.
<mgrwt>
<rscale>  0 0.24882841E+03</rscale>
<asrwt>0</asrwt>
<pdfrwt beam="1">  1        1 0.16534649E-01 0.24882841E+03</pdfrwt>
<pdfrwt beam="2">  1       -1 0.22157372E-01 0.24882841E+03</pdfrwt>
<totfact> 0.55096534E+03</totfact>
</mgrwt>
</event>
<event>
 4    1  0.1777979E-004  0.2522493E+03  0.7818608E-02  0.1111892E+00
         -1   -1    0    0    0  501 -0.00000000000E+00  0.00000000000E+00  0.71233097538E+03  0.71233097538E+03  0.00000000000E+00 0.  1.
          1   -1    0    0  501    0  0.00000000000E+00 -0.00000000000E+00 -0.22331507155E+02  0.22331507155E+02  0.00000000000E+00 0.  1.
         25    1    1    2    0    0 -0.36494310607E+02  0.45760014925E+01  0.38121841120E+03  0.40134804289E+03  0.12000000000E+03 0.  0.
         25    1    1    2    0    0  0.36494310607E+02 -0.45760014925E+01  0.30878105702E+03  0.33331443964E+03  0.12000000000E+03 0.  0.
<mgrwt>
<rscale>  0 0.25224928E+03</rscale>
<asrwt>0</asrwt>
<pdfrwt beam="1">  1        1 0.34356170E-02 0.25224928E+03</pdfrwt>
<pdfrwt beam="2">  1       -1 0.10958936E+00 0.25224928E+03</pdfrwt>
<totfact> 0.22945253E+03</totfact>
</mgrwt>
</event>
<event>
 4    1  0.1777979E-004  0.4752011E+03  0.7818608E-02  0.1020462E+00
          2   -1    0    0  501    0  0.00000000000E+00  0.00000000000E+00  0.10692004360E+04  0.10692004360E+04  0.00000000000E+00 0. -1.
         -2   -1    0    0    0  501 -0.00000000000E+00 -0.00000000000E+00 -0.52800226819E+02  0.52800226819E+02  0.00000000000E+00 0. -1.
         25    1    1    2    0    0  0.20304083362E+03 -0.22397427541E+02  0.46551688981E+03  0.52233437526E+03  0.12000000000E+03 0.  0.
         25    1    1    2    0    0 -0.20304083362E+03  0.22397427541E+02  0.55088331937E+03  0.59966628756E+03  0.12000000000E+03 0.  0.
<mgrwt>
<rscale>  0 0.47520112E+03</rscale>
<asrwt>0</asrwt>
<pdfrwt beam="1">  1        2 0.16449236E+00 0.47520112E+03</pdfrwt>
<pdfrwt beam="2">  1       -2 0.81231126E-02 0.47520112E+03</pdfrwt>
<totfact> 0.22007639E+03</totfact>
</mgrwt>
</event>
<event>
 4    1  0.1777979E-004  0.2525843E+03  0.7818608E-02  0.1111682E+00
         -2   -1    0    0    0  501 -0.00000000000E+00  0.00000000000E+00  0.16043063316E+03  0.16043063316E+03  0.00000000000E+00 0. -1.
          2   -1    0    0  501    0  0.00000000000E+00 -0.00000000000E+00 -0.99418126446E+02  0.99418126446E+02  0.00000000000E+00 0. -1.
         25    1    1    2    0    0  0.17530341787E+00  0.37599295315E+02  0.42502465118E+02  0.13274109115E+03  0.12000000000E+03 0.  0.
         25    1    1    2    0    0 -0.17530341787E+00 -0.37599295315E+02  0.18510041595E+02  0.12710766845E+03  0.12000000000E+03 0.  0.
<mgrwt>
<rscale>  0 0.25258435E+03</rscale>
<asrwt>0</asrwt>
<pdfrwt beam="1">  1        2 0.15295096E-01 0.25258435E+03</pdfrwt>
<pdfrwt beam="2">  1       -2 0.24681636E-01 0.25258435E+03</pdfrwt>
<totfact> 0.54721169E+03</totfact>
</mgrwt>
</event>
<event>
 4    1  0.1777979E-004  0.3649205E+03  0.7818608E-02  0.1056652E+00
         -2   -1    0    0    0  501 -0.00000000000E+00  0.00000000000E+00  0.19475784714E+02  0.19475784714E+02  0.00000000000E+00 0. -1.
          2   -1    0    0  501    0  0.00000000000E+00 -0.00000000000E+00 -0.17093913090E+04  0.17093913090E+04  0.00000000000E+00 0. -1.
         25    1    1    2    0    0  0.10692387602E+03 -0.20269857315E+02 -0.12426994383E+04  0.12532140584E+04  0.12000000000E+03 0.  0.
         25    1    1    2    0    0 -0.10692387602E+03  0.20269857315E+02 -0.44721608598E+03  0.47565303525E+03  0.12000000000E+03 0.  0.
<mgrwt>
<rscale>  0 0.36492047E+03</rscale>
<asrwt>0</asrwt>
<pdfrwt beam="1">  1        2 0.26298328E+00 0.36492047E+03</pdfrwt>
<pdfrwt beam="2">  1       -2 0.29962746E-02 0.36492047E+03</pdfrwt>
<totfact> 0.44843756E+03</totfact>
</mgrwt>
</event>
<event>
 4    1  0.1777979E-004  0.2708043E+03  0.7818608E-02  0.1100820E+00
         -1   -1    0    0    0  501 -0.00000000000E+00  0.00000000000E+00  0.13488152374E+02  0.13488152374E+02  0.00000000000E+00 0. -1.
          1   -1    0    0  501    0  0.00000000000E+00 -0.00000000000E+00 -0.13592476329E+04  0.13592476329E+04  0.00000000000E+00 0. -1.
         25    1    1    2    0    0 -0.30434911418E+02  0.18101528545E+02 -0.93529060825E+03  0.94362199585E+03  0.12000000000E+03 0.  0.
         25    1    1    2    0    0  0.30434911418E+02 -0.18101528545E+02 -0.41046887229E+03  0.42911378944E+03  0.12000000000E+03 0.  0.
<mgrwt>
<rscale>  0 0.27080428E+03</rscale>
<asrwt>0</asrwt>
<pdfrwt beam="1">  1        1 0.20911507E+00 0.27080428E+03</pdfrwt>
<pdfrwt beam="2">  1       -1 0.20750999E-02 0.27080428E+03</pdfrwt>
<totfact> 0.57745977E+03</totfact>
</mgrwt>
</event>
<event>
 4    1  0.1777979E-004  0.3022045E+03  0.7818608E-02  0.1084144E+00
          2   -1    0    0  501    0  0.00000000000E+00  0.00000000000E+00  0.74250955616E+03  0.74250955616E+03  0.00000000000E+00 0. -1.
         -2   -1    0    0    0  501 -0.00000000000E+00 -0.00000000000E+00 -0.30749630639E+02  0.30749630639E+02  0.00000000000E+00 0. -1.
         25    1    1    2    0    0 -0.74433196957E+02 -0.37884243371E+02  0.25823245660E+03  0.29674824068E+03  0.12000000000E+03 0.  0.
         25    1    1    2    0    0  0.74433196957E+02  0.37884243371E+02  0.45352746893E+03  0.47651094613E+03  0.12000000000E+03 0.  0.
<mgrwt>
<rscale>  0 0.30220453E+03</rscale>
<asrwt>0</asrwt>
<pdfrwt beam="1">  1        2 0.11423223E+00 0.30220453E+03</pdfrwt>
<pdfrwt beam="2">  1       -2 0.47307130E-02 0.30220453E+03</pdfrwt>
<totfact> 0.83098569E+03</totfact>
</mgrwt>
</event>
<event>
 4    1  0.1777979E-004  0.2933598E+03  0.7818608E-02  0.1088608E+00
         -2   -1    0    0    0  501 -0.00000000000E+00  0.00000000000E+00  0.96216996912E+02  0.96216996912E+02  0.00000000000E+00 0.  1.
          2   -1    0    0  501    0  0.00000000000E+00 -0.00000000000E+00 -0.22360904619E+03  0.22360904619E+03  0.00000000000E+00 0.  1.
         25    1    1    2    0    0  0.70320181020E-01  0.41266844041E+02  0.16507505817E+02  0.12796661717E+03  0.12000000000E+03 0.  0.
         25    1    1    2    0    0 -0.70320181020E-01 -0.41266844041E+02 -0.14389955510E+03  0.19185942593E+03  0.12000000000E+03 0.  0.
<mgrwt>
<rscale>  0 0.29335979E+03</rscale>
<asrwt>0</asrwt>
<pdfrwt beam="1">  1        2 0.34401391E-01 0.29335979E+03</pdfrwt>
<pdfrwt beam="2">  1       -2 0.14802615E-01 0.29335979E+03</pdfrwt>
<totfact> 0.52552910E+03</totfact>
</mgrwt>
</event>
<event>
 4    1  0.1777979E-004  0.2452890E+03  0.7818608E-02  0.1116319E+00
          1   -1    0    0  501    0  0.00000000000E+00  0.00000000000E+00  0.14706943201E+02  0.14706943201E+02  0.00000000000E+00 0. -1.
         -1   -1    0    0    0  501 -0.00000000000E+00 -0.00000000000E+00 -0.10227604259E+04  0.10227604259E+04  0.00000000000E+00 0. -1.
         25    1    1    2    0    0 -0.24082371727E+02 -0.40608707147E+00 -0.47084308220E+03  0.48649083608E+03  0.12000000000E+03 0.  0.
         25    1    1    2    0    0  0.24082371727E+02  0.40608707147E+00 -0.53721040047E+03  0.55097653300E+03  0.12000000000E+03 0.  0.
<mgrwt>
<rscale>  0 0.24528905E+03</rscale>
<asrwt>0</asrwt>
<pdfrwt beam="1">  1        1 0.22626070E-02 0.24528905E+03</pdfrwt>
<pdfrwt beam="2">  1       -1 0.15734774E+00 0.24528905E+03</pdfrwt>
<totfact> 0.16841709E+03</totfact>
</mgrwt>
</event>
<event>
 4    1  0.1777979E-004  0.3744431E+03  0.7818608E-02  0.1053007E+00
          1   -1    0    0  501    0  0.00000000000E+00  0.00000000000E+00  0.34170731712E+02  0.34170731712E+02  0.00000000000E+00 0. -1.
         -1   -1    0    0    0  501 -0.00000000000E+00 -0.00000000000E+00 -0.10257873269E+04  0.10257873269E+04  0.00000000000E+00 0. -1.
         25    1    1    2    0    0  0.11453837038E+03 -0.35586070293E+02 -0.27172200351E+03  0.32034084017E+03  0.12000000000E+03 0.  0.
         25    1    1    2    0    0 -0.11453837038E+03  0.35586070293E+02 -0.71989459166E+03  0.73961721843E+03  0.12000000000E+03 0.  0.
<mgrwt>
<rscale>  0 0.37444307E+03</rscale>
<asrwt>0</asrwt>
<pdfrwt beam="1">  1        1 0.52570359E-02 0.37444307E+03</pdfrwt>
<pdfrwt beam="2">  1       -1 0.15781343E+00 0.37444307E+03</pdfrwt>
<totfact> 0.51275484E+02</totfact>
</mgrwt>
</event>
<event>
 4    1  0.1777979E-004  0.2970742E+03  0.7818608E-02  0.1086712E+00
          1   -1    0    0  501    0  0.00000000000E+00  0.00000000000E+00  0.15268054370E+03  0.15268054370E+03  0.00000000000E+00 0. -1.
         -1   -1    0    0    0  501 -0.00000000000E+00 -0.00000000000E+00 -0.14450605923E+03  0.14450605923E+03  0.00000000000E+00 0. -1.
         25    1    1    2    0    0 -0.20454547759E+02 -0.19074198151E+02 -0.78896251472E+02  0.14631073800E+03  0.12000000000E+03 0.  0.
         25    1    1    2    0    0  0.20454547759E+02  0.19074198151E+02  0.87070735938E+02  0.15087586492E+03  0.12000000000E+03 0.  0.
<mgrwt>
<rscale>  0 0.29707416E+03</rscale>
<asrwt>0</asrwt>
<pdfrwt beam="1">  1        1 0.23489314E-01 0.29707416E+03</pdfrwt>
<pdfrwt beam="2">  1       -1 0.22231701E-01 0.29707416E+03</pdfrwt>
<totfact> 0.35028924E+03</totfact>
</mgrwt>
</event>
<event>
 4    1  0.1777979E-004  0.3942986E+03  0.7818608E-02  0.1045772E+00
         -2   -1    0    0    0  501 -0.00000000000E+00  0.00000000000E+00  0.36599053939E+02  0.36599053939E+02  0.00000000000E+00 0. -1.
          2   -1    0    0  501    0  0.00000000000E+00 -0.00000000000E+00 -0.10619903497E+04  0.10619903497E+04  0.00000000000E+00 0. -1.
         25    1    1    2    0    0  0.51591314552E+02  0.14494957031E+03 -0.43409750624E+03  0.47593348968E+03  0.12000000000E+03 0.  0.
         25    1    1    2    0    0 -0.51591314552E+02 -0.14494957031E+03 -0.59129378951E+03  0.62265591396E+03  0.12000000000E+03 0.  0.
<mgrwt>
<rscale>  0 0.39429858E+03</rscale>
<asrwt>0</asrwt>
<pdfrwt beam="1">  1        2 0.16338314E+00 0.39429858E+03</pdfrwt>
<pdfrwt beam="2">  1       -2 0.56306233E-02 0.39429858E+03</pdfrwt>
<totfact> 0.39445160E+03</totfact>
</mgrwt>
</event>
<event>
 4    1  0.1777979E-004  0.3038424E+03  0.7818608E-02  0.1083335E+00
          1   -1    0    0  501    0  0.00000000000E+00  0.00000000000E+00  0.41248560246E+03  0.41248560246E+03  0.00000000000E+00 0.  1.
         -1   -1    0    0    0  501 -0.00000000000E+00 -0.00000000000E+00 -0.55953587038E+02  0.55953587038E+02  0.00000000000E+00 0.  1.
         25    1    1    2    0    0  0.21273337777E+02  0.52035006239E+02  0.29280901714E+03  0.32139900015E+03  0.12000000000E+03 0.  0.
         25    1    1    2    0    0 -0.21273337777E+02 -0.52035006239E+02  0.63722998277E+02  0.14704018935E+03  0.12000000000E+03 0.  0.
<mgrwt>
<rscale>  0 0.30384239E+03</rscale>
<asrwt>0</asrwt>
<pdfrwt beam="1">  1        1 0.63459321E-01 0.30384239E+03</pdfrwt>
<pdfrwt beam="2">  1       -1 0.86082444E-02 0.30384239E+03</pdfrwt>
<totfact> 0.44715362E+03</totfact>
</mgrwt>
</event>
<event>
 4    1  0.1777979E-004  0.3323973E+03  0.7818608E-02  0.1070081E+00
         -1   -1    0    0    0  501 -0.00000000000E+00  0.00000000000E+00  0.47237394137E+02  0.47237394137E+02  0.00000000000E+00 0. -1.
          1   -1    0    0  501    0  0.00000000000E+00 -0.00000000000E+00 -0.58474847126E+03  0.58474847126E+03  0.00000000000E+00 0. -1.
         25    1    1    2    0    0  0.51415859647E+02  0.21706134484E+02 -0.45990201562E+03  0.47856515843E+03  0.12000000000E+03 0.  0.
         25    1    1    2    0    0 -0.51415859647E+02 -0.21706134484E+02 -0.77609061506E+02  0.15342070696E+03  0.12000000000E+03 0.  0.
<mgrwt>
<rscale>  0 0.33239732E+03</rscale>
<asrwt>0</asrwt>
<pdfrwt beam="1">  1        1 0.89961301E-01 0.33239732E+03</pdfrwt>
<pdfrwt beam="2">  1       -1 0.72672916E-02 0.33239732E+03</pdfrwt>
<totfact> 0.36454625E+03</totfact>
</mgrwt>
</event>
<event>
 4    1  0.1777979E-004  0.4098200E+03  0.7818608E-02  0.1040431E+00
          2   -1    0    0  501    0  0.00000000000E+00  0.00000000000E+00  0.83142633482E+03  0.83142633482E+03  0.00000000000E+00 0. -1.
         -2   -1    0    0    0  501 -0.00000000000E+00 -0.00000000000E+00 -0.50501287644E+02  0.50501287644E+02  0.00000000000E+00 0. -1.
         25    1    1    2    0    0  0.43956199998E+02  0.15709248960E+02  0.73349488744E+03  0.74471046583E+03  0.12000000000E+03 0.  0.
         25    1    1    2    0    0 -0.43956199998E+02 -0.15709248960E+02  0.47430159737E+02  0.13721715663E+03  0.12000000000E+03 0.  0.
<mgrwt>
<rscale>  0 0.40981996E+03</rscale>
<asrwt>0</asrwt>
<pdfrwt beam="1">  1        2 0.12791173E+00 0.40981996E+03</pdfrwt>
<pdfrwt beam="2">  1       -2 0.77694295E-02 0.40981996E+03</pdfrwt>
<totfact> 0.33574606E+03</totfact>
</mgrwt>
</event>
<event>
 4    1  0.1777979E-004  0.2505387E+03  0.7818608E-02  0.1112965E+00
         -1   -1    0    0    0  501 -0.00000000000E+00  0.00000000000E+00  0.68042736442E+01  0.68042736442E+01  0.00000000000E+00 0. -1.
          1   -1    0    0  501    0  0.00000000000E+00 -0.00000000000E+00 -0.23062578859E+04  0.23062578859E+04  0.00000000000E+00 0. -1.
         25    1    1    2    0    0 -0.35782215487E+02 -0.24891720846E+01 -0.11274027759E+04  0.11343383896E+04  0.12000000000E+03 0.  0.
         25    1    1    2    0    0  0.35782215487E+02  0.24891720846E+01 -0.11720508363E+04  0.11787237699E+04  0.12000000000E+03 0.  0.
<mgrwt>
<rscale>  0 0.25053870E+03</rscale>
<asrwt>0</asrwt>
<pdfrwt beam="1">  1        1 0.35480913E+00 0.25053870E+03</pdfrwt>
<pdfrwt beam="2">  1       -1 0.10468107E-02 0.25053870E+03</pdfrwt>
<totfact> 0.37492165E+03</totfact>
</mgrwt>
</event>
<event>
 4    1  0.1777979E-004  0.3067368E+03  0.7818608E-02  0.1081921E+00
          4   -1    0    0  501    0  0.00000000000E+00  0.00000000000E+00  0.56706786446E+03  0.56706786446E+03  0.00000000000E+00 0.  1.
         -4   -1    0    0    0  501 -0.00000000000E+00 -0.00000000000E+00 -0.41479815187E+02  0.41479815187E+02  0.00000000000E+00 0.  1.
         25    1    1    2    0    0 -0.61058659784E+02 -0.69247667989E+02  0.21425956947E+03  0.26235579385E+03  0.12000000000E+03 0.  0.
         25    1    1    2    0    0  0.61058659784E+02  0.69247667989E+02  0.31132847981E+03  0.34619188580E+03  0.12000000000E+03 0.  0.
<mgrwt>
<rscale>  0 0.30673683E+03</rscale>
<asrwt>0</asrwt>
<pdfrwt beam="1">  1        4 0.87241205E-01 0.30673683E+03</pdfrwt>
<pdfrwt beam="2">  1       -4 0.63815104E-02 0.30673683E+03</pdfrwt>
<totfact> 0.35561405E+02</totfact>
</mgrwt>
</event>
<event>
 4    1  0.1777979E-004  0.3856555E+03  0.7818608E-02  0.1048863E+00
         -2   -1    0    0    0  501 -0.00000000000E+00  0.00000000000E+00  0.47833994859E+03  0.47833994859E+03  0.00000000000E+00 0.  1.
          2   -1    0    0  501    0  0.00000000000E+00 -0.00000000000E+00 -0.77732467699E+02  0.77732467699E+02  0.00000000000E+00 0.  1.
         25    1    1    2    0    0 -0.14970909597E+03 -0.29512258505E+01  0.22770044389E+03  0.29777342946E+03  0.12000000000E+03 0.  0.
         25    1    1    2    0    0  0.14970909597E+03  0.29512258505E+01  0.17290703701E+03  0.25829898683E+03  0.12000000000E+03 0.  0.
<mgrwt>
<rscale>  0 0.38565552E+03</rscale>
<asrwt>0</asrwt>
<pdfrwt beam="1">  1        2 0.11958842E-01 0.38565552E+03</pdfrwt>
<pdfrwt beam="2">  1       -2 0.73590759E-01 0.38565552E+03</pdfrwt>
<totfact> 0.88391290E+02</totfact>
</mgrwt>
</event>
<event>
 4    1  0.1777979E-004  0.2954643E+03  0.7818608E-02  0.1087530E+00
         -2   -1    0    0    0  501 -0.00000000000E+00  0.00000000000E+00  0.83146889227E+02  0.83146889227E+02  0.00000000000E+00 0. -1.
          2   -1    0    0  501    0  0.00000000000E+00 -0.00000000000E+00 -0.26248480631E+03  0.26248480631E+03  0.00000000000E+00 0. -1.
         25    1    1    2    0    0  0.53407439170E+01 -0.63853392625E+02 -0.15706170253E+03  0.20778392069E+03  0.12000000000E+03 0.  0.
         25    1    1    2    0    0 -0.53407439170E+01  0.63853392625E+02 -0.22276214551E+02  0.13784777485E+03  0.12000000000E+03 0.  0.
<mgrwt>
<rscale>  0 0.29546435E+03</rscale>
<asrwt>0</asrwt>
<pdfrwt beam="1">  1        2 0.40382277E-01 0.29546435E+03</pdfrwt>
<pdfrwt beam="2">  1       -2 0.12791829E-01 0.29546435E+03</pdfrwt>
<totfact> 0.56125666E+03</totfact>
</mgrwt>
</event>
<event>
 4    1  0.1777979E-004  0.3233542E+03  0.7818608E-02  0.1074116E+00
          1   -1    0    0  501    0  0.00000000000E+00  0.00000000000E+00  0.14914727330E+04  0.14914727330E+04  0.00000000000E+00 0.  1.
         -1   -1    0    0    0  501 -0.00000000000E+00 -0.00000000000E+00 -0.17525956222E+02  0.17525956222E+02  0.00000000000E+00 0.  1.
         25    1    1    2    0    0 -0.16265969603E+02  0.57206373574E+02  0.31432511921E+03  0.34166859895E+03  0.12000000000E+03 0.  0.
         25    1    1    2    0    0  0.16265969603E+02 -0.57206373574E+02  0.11596216576E+04  0.11673300903E+04  0.12000000000E+03 0.  0.
<mgrwt>
<rscale>  0 0.32335421E+03</rscale>
<asrwt>0</asrwt>
<pdfrwt beam="1">  1        1 0.22945724E+00 0.32335421E+03</pdfrwt>
<pdfrwt beam="2">  1       -1 0.26963021E-02 0.32335421E+03</pdfrwt>
<totfact> 0.32058117E+03</totfact>
</mgrwt>
</event>
<event>
 4    1  0.1777979E-004  0.2741747E+03  0.7818608E-02  0.1098914E+00
         -1   -1    0    0    0  501 -0.00000000000E+00  0.00000000000E+00  0.46445563446E+02  0.46445563446E+02  0.00000000000E+00 0. -1.
          1   -1    0    0  501    0  0.00000000000E+00 -0.00000000000E+00 -0.40462281722E+03  0.40462281722E+03  0.00000000000E+00 0. -1.
         25    1    1    2    0    0  0.31998248758E+02 -0.34122235005E+02 -0.10183981728E+03  0.16419367597E+03  0.12000000000E+03 0.  0.
         25    1    1    2    0    0 -0.31998248758E+02  0.34122235005E+02 -0.25633743649E+03  0.28687470469E+03  0.12000000000E+03 0.  0.
<mgrwt>
<rscale>  0 0.27417465E+03</rscale>
<asrwt>0</asrwt>
<pdfrwt beam="1">  1        1 0.62249664E-01 0.27417465E+03</pdfrwt>
<pdfrwt beam="2">  1       -1 0.71454714E-02 0.27417465E+03</pdfrwt>
<totfact> 0.60759501E+03</totfact>
</mgrwt>
</event>
<event>
 4    1  0.1777979E-004  0.2526927E+03  0.7818608E-02  0.1111615E+00
         -1   -1    0    0    0  501 -0.00000000000E+00  0.00000000000E+00  0.35638666094E+02  0.35638666094E+02  0.00000000000E+00 0.  1.
          1   -1    0    0  501    0  0.00000000000E+00 -0.00000000000E+00 -0.44792364711E+03  0.44792364711E+03  0.00000000000E+00 0.  1.
         25    1    1    2    0    0  0.26264959523E+02 -0.17571118680E+02 -0.25162145141E+03  0.28055649542E+03  0.12000000000E+03 0.  0.
         25    1    1    2    0    0 -0.26264959523E+02  0.17571118680E+02 -0.16066352960E+03  0.20300581778E+03  0.12000000000E+03 0.  0.
<mgrwt>
<rscale>  0 0.25269271E+03</rscale>
<asrwt>0</asrwt>
<pdfrwt beam="1">  1        1 0.68911326E-01 0.25269271E+03</pdfrwt>
<pdfrwt beam="2">  1       -1 0.54828720E-02 0.25269271E+03</pdfrwt>
<totfact> 0.79248261E+03</totfact>
</mgrwt>
</event>
<event>
 4    1  0.1777979E-004  0.3065087E+03  0.7818608E-02  0.1082032E+00
          1   -1    0    0  501    0  0.00000000000E+00  0.00000000000E+00  0.17539299435E+04  0.17539299435E+04  0.00000000000E+00 0. -1.
         -1   -1    0    0    0  501 -0.00000000000E+00 -0.00000000000E+00 -0.13391009945E+02  0.13391009945E+02  0.00000000000E+00 0. -1.
         25    1    1    2    0    0 -0.41323945129E+02  0.20924030643E+02  0.13506622629E+04  0.13567733900E+04  0.12000000000E+03 0.  0.
         25    1    1    2    0    0  0.41323945129E+02 -0.20924030643E+02  0.38987667071E+03  0.41054756346E+03  0.12000000000E+03 0.  0.
<mgrwt>
<rscale>  0 0.30650868E+03</rscale>
<asrwt>0</asrwt>
<pdfrwt beam="1">  1        1 0.26983519E+00 0.30650868E+03</pdfrwt>
<pdfrwt beam="2">  1       -1 0.20601568E-02 0.30650868E+03</pdfrwt>
<totfact> 0.32002977E+03</totfact>
</mgrwt>
</event>
<event>
 4    1  0.1777979E-004  0.2541462E+03  0.7818608E-02  0.1110712E+00
         -1   -1    0    0    0  501 -0.00000000000E+00  0.00000000000E+00  0.27384083210E+03  0.27384083210E+03  0.00000000000E+00 0. -1.
          1   -1    0    0  501    0  0.00000000000E+00 -0.00000000000E+00 -0.58967008037E+02  0.58967008037E+02  0.00000000000E+00 0. -1.
         25    1    1    2    0    0  0.10987886937E+02  0.35592870200E+02  0.13228278181E+03  0.18244539027E+03  0.12000000000E+03 0.  0.
         25    1    1    2    0    0 -0.10987886937E+02 -0.35592870200E+02  0.82591042251E+02  0.15036244986E+03  0.12000000000E+03 0.  0.
<mgrwt>
<rscale>  0 0.25414621E+03</rscale>
<asrwt>0</asrwt>
<pdfrwt beam="1">  1        1 0.90718475E-02 0.25414621E+03</pdfrwt>
<pdfrwt beam="2">  1       -1 0.42129358E-01 0.25414621E+03</pdfrwt>
<totfact> 0.40833084E+03</totfact>
</mgrwt>
</event>
<event>
 4    1  0.1777979E-004  0.2617862E+03  0.7818608E-02  0.1106075E+00
          2   -1    0    0  501    0  0.00000000000E+00  0.00000000000E+00  0.12751948583E+04  0.12751948583E+04  0.00000000000E+00 0. -1.
         -2   -1    0    0    0  501 -0.00000000000E+00 -0.00000000000E+00 -0.13435595647E+02  0.13435595647E+02  0.00000000000E+00 0. -1.
         25    1    1    2    0    0  0.28817741341E+02  0.96154263259E+01  0.84030582655E+03  0.84937435844E+03  0.12000000000E+03 0.  0.
         25    1    1    2    0    0 -0.28817741341E+02 -0.96154263259E+01  0.42145343614E+03  0.43925609555E+03  0.12000000000E+03 0.  0.
<mgrwt>
<rscale>  0 0.26178619E+03</rscale>
<asrwt>0</asrwt>
<pdfrwt beam="1">  1        2 0.19618373E+00 0.26178619E+03</pdfrwt>
<pdfrwt beam="2">  1       -2 0.20670157E-02 0.26178619E+03</pdfrwt>
<totfact> 0.13303549E+04</totfact>
</mgrwt>
</event>
<event>
 4    1  0.1777979E-004  0.2918056E+03  0.7818608E-02  0.1089410E+00
          1   -1    0    0  501    0  0.00000000000E+00  0.00000000000E+00  0.96899629786E+03  0.96899629786E+03  0.00000000000E+00 0. -1.
         -1   -1    0    0    0  501 -0.00000000000E+00 -0.00000000000E+00 -0.21968732727E+02  0.21968732727E+02  0.00000000000E+00 0. -1.
         25    1    1    2    0    0  0.14319754250E+02 -0.57253179228E+02  0.67166661900E+03  0.68484963968E+03  0.12000000000E+03 0.  0.
         25    1    1    2    0    0 -0.14319754250E+02  0.57253179228E+02  0.27536094613E+03  0.30611539090E+03  0.12000000000E+03 0.  0.
<mgrwt>
<rscale>  0 0.29180556E+03</rscale>
<asrwt>0</asrwt>
<pdfrwt beam="1">  1        1 0.14907632E+00 0.29180556E+03</pdfrwt>
<pdfrwt beam="2">  1       -1 0.33798058E-02 0.29180556E+03</pdfrwt>
<totfact> 0.53395561E+03</totfact>
</mgrwt>
</event>
<event>
 4    1  0.1777979E-004  0.2671373E+03  0.7818608E-02  0.1102929E+00
         -1   -1    0    0    0  501 -0.00000000000E+00  0.00000000000E+00  0.33808872638E+02  0.33808872638E+02  0.00000000000E+00 0. -1.
          1   -1    0    0  501    0  0.00000000000E+00 -0.00000000000E+00 -0.52768955025E+03  0.52768955025E+03  0.00000000000E+00 0. -1.
         25    1    1    2    0    0 -0.27632487358E+02  0.42814404009E+02 -0.30800292672E+03  0.33445841359E+03  0.12000000000E+03 0.  0.
         25    1    1    2    0    0  0.27632487358E+02 -0.42814404009E+02 -0.18587775089E+03  0.22704000930E+03  0.12000000000E+03 0.  0.
<mgrwt>
<rscale>  0 0.26713733E+03</rscale>
<asrwt>0</asrwt>
<pdfrwt beam="1">  1        1 0.81183008E-01 0.26713733E+03</pdfrwt>
<pdfrwt beam="2">  1       -1 0.52013650E-02 0.26713733E+03</pdfrwt>
<totfact> 0.69220797E+03</totfact>
</mgrwt>
</event>
<event>
 4    1  0.1777979E-004  0.2974537E+03  0.7818608E-02  0.1086520E+00
         -1   -1    0    0    0  501 -0.00000000000E+00  0.00000000000E+00  0.41770598571E+02  0.41770598571E+02  0.00000000000E+00 0. -1.
          1   -1    0    0  501    0  0.00000000000E+00 -0.00000000000E+00 -0.52955135763E+03  0.52955135763E+03  0.00000000000E+00 0. -1.
         25    1    1    2    0    0  0.39589130514E+02 -0.47083968690E+02 -0.12339781131E+03  0.18278736061E+03  0.12000000000E+03 0.  0.
         25    1    1    2    0    0 -0.39589130514E+02  0.47083968690E+02 -0.36438294775E+03  0.38853459559E+03  0.12000000000E+03 0.  0.
<mgrwt>
<rscale>  0 0.29745371E+03</rscale>
<asrwt>0</asrwt>
<pdfrwt beam="1">  1        1 0.81469439E-01 0.29745371E+03</pdfrwt>
<pdfrwt beam="2">  1       -1 0.64262460E-02 0.29745371E+03</pdfrwt>
<totfact> 0.50238725E+03</totfact>
</mgrwt>
</event>
<event>
 4    1  0.1777979E-004  0.2998643E+03  0.7818608E-02  0.1085308E+00
          2   -1    0    0  501    0  0.00000000000E+00  0.00000000000E+00  0.70352868957E+03  0.70352868957E+03  0.00000000000E+00 0.  1.
         -2   -1    0    0    0  501 -0.00000000000E+00 -0.00000000000E+00 -0.31952709944E+02  0.31952709944E+02  0.00000000000E+00 0.  1.
         25    1    1    2    0    0 -0.64177267116E+02  0.11661149799E+02  0.48747887690E+03  0.50625128094E+03  0.12000000000E+03 0.  0.
         25    1    1    2    0    0  0.64177267116E+02 -0.11661149799E+02  0.18409710272E+03  0.22923011857E+03  0.12000000000E+03 0.  0.
<mgrwt>
<rscale>  0 0.29986429E+03</rscale>
<asrwt>0</asrwt>
<pdfrwt beam="1">  1        2 0.10823517E+00 0.29986429E+03</pdfrwt>
<pdfrwt beam="2">  1       -2 0.49158021E-02 0.29986429E+03</pdfrwt>
<totfact> 0.83749268E+03</totfact>
</mgrwt>
</event>
<event>
 4    1  0.1777979E-004  0.2562153E+03  0.7818608E-02  0.1109439E+00
         -1   -1    0    0    0  501 -0.00000000000E+00  0.00000000000E+00  0.13127723002E+03  0.13127723002E+03  0.00000000000E+00 0. -1.
          1   -1    0    0  501    0  0.00000000000E+00 -0.00000000000E+00 -0.12501454993E+03  0.12501454993E+03  0.00000000000E+00 0. -1.
         25    1    1    2    0    0  0.37628881213E+02  0.23009954661E+02  0.11268455555E+02  0.12834472644E+03  0.12000000000E+03 0.  0.
         25    1    1    2    0    0 -0.37628881213E+02 -0.23009954661E+02 -0.50057754639E+01  0.12794705351E+03  0.12000000000E+03 0.  0.
<mgrwt>
<rscale>  0 0.25621525E+03</rscale>
<asrwt>0</asrwt>
<pdfrwt beam="1">  1        1 0.19233008E-01 0.25621525E+03</pdfrwt>
<pdfrwt beam="2">  1       -1 0.20196497E-01 0.25621525E+03</pdfrwt>
<totfact> 0.52748116E+03</totfact>
</mgrwt>
</event>
<event>
 4    1  0.1777979E-004  0.3524109E+03  0.7818608E-02  0.1061630E+00
          1   -1    0    0  501    0  0.00000000000E+00  0.00000000000E+00  0.12510561549E+04  0.12510561549E+04  0.00000000000E+00 0.  1.
         -1   -1    0    0    0  501 -0.00000000000E+00 -0.00000000000E+00 -0.24817719518E+02  0.24817719518E+02  0.00000000000E+00 0.  1.
         25    1    1    2    0    0 -0.72967917673E+02 -0.33952593649E+02  0.24799057853E+03  0.28701293118E+03  0.12000000000E+03 0.  0.
         25    1    1    2    0    0  0.72967917673E+02  0.33952593649E+02  0.97824785684E+03  0.98886094323E+03  0.12000000000E+03 0.  0.
<mgrwt>
<rscale>  0 0.35241090E+03</rscale>
<asrwt>0</asrwt>
<pdfrwt beam="1">  1        1 0.19247013E+00 0.35241090E+03</pdfrwt>
<pdfrwt beam="2">  1       -1 0.38181117E-02 0.35241090E+03</pdfrwt>
<totfact> 0.27851002E+03</totfact>
</mgrwt>
</event>
<event>
 4    1  0.1777979E-004  0.2597510E+03  0.7818608E-02  0.1107293E+00
          4   -1    0    0  501    0  0.00000000000E+00  0.00000000000E+00  0.91730519690E+03  0.91730519690E+03  0.00000000000E+00 0. -1.
         -4   -1    0    0    0  501 -0.00000000000E+00 -0.00000000000E+00 -0.18388256616E+02  0.18388256616E+02  0.00000000000E+00 0. -1.
         25    1    1    2    0    0 -0.43053732834E+02 -0.24658865329E+02  0.44066434938E+03  0.45939825028E+03  0.12000000000E+03 0.  0.
         25    1    1    2    0    0  0.43053732834E+02  0.24658865329E+02  0.45825259091E+03  0.47629520323E+03  0.12000000000E+03 0.  0.
<mgrwt>
<rscale>  0 0.25975098E+03</rscale>
<asrwt>0</asrwt>
<pdfrwt beam="1">  1        4 0.14112384E+00 0.25975098E+03</pdfrwt>
<pdfrwt beam="2">  1       -4 0.28289633E-02 0.25975098E+03</pdfrwt>
<totfact> 0.40686605E+02</totfact>
</mgrwt>
</event>
<event>
 4    1  0.1777979E-004  0.3208442E+03  0.7818608E-02  0.1075261E+00
         -2   -1    0    0    0  501 -0.00000000000E+00  0.00000000000E+00  0.37088727631E+02  0.37088727631E+02  0.00000000000E+00 0.  1.
          2   -1    0    0  501    0  0.00000000000E+00 -0.00000000000E+00 -0.69388313335E+03  0.69388313335E+03  0.00000000000E+00 0.  1.
         25    1    1    2    0    0 -0.75651546417E+02  0.52217903370E+02 -0.45077645241E+03  0.47544639651E+03  0.12000000000E+03 0.  0.
         25    1    1    2    0    0  0.75651546417E+02 -0.52217903370E+02 -0.20601795331E+03  0.25552546447E+03  0.12000000000E+03 0.  0.
<mgrwt>
<rscale>  0 0.32084415E+03</rscale>
<asrwt>0</asrwt>
<pdfrwt beam="1">  1        2 0.10675124E+00 0.32084415E+03</pdfrwt>
<pdfrwt beam="2">  1       -2 0.57059587E-02 0.32084415E+03</pdfrwt>
<totfact> 0.67936867E+03</totfact>
</mgrwt>
</event>
<event>
 4    1  0.1777979E-004  0.2944058E+03  0.7818608E-02  0.1088071E+00
         -2   -1    0    0    0  501 -0.00000000000E+00  0.00000000000E+00  0.12873628213E+02  0.12873628213E+02  0.00000000000E+00 0.  1.
          2   -1    0    0  501    0  0.00000000000E+00 -0.00000000000E+00 -0.16831852025E+04  0.16831852025E+04  0.00000000000E+00 0.  1.
         25    1    1    2    0    0  0.68554597291E+02 -0.29139269439E+02 -0.59624135821E+03  0.61274186006E+03  0.12000000000E+03 0.  0.
         25    1    1    2    0    0 -0.68554597291E+02  0.29139269439E+02 -0.10740702161E+04  0.10833169706E+04  0.12000000000E+03 0.  0.
<mgrwt>
<rscale>  0 0.29440585E+03</rscale>
<asrwt>0</asrwt>
<pdfrwt beam="1">  1        2 0.25895136E+00 0.29440585E+03</pdfrwt>
<pdfrwt beam="2">  1       -2 0.19805598E-02 0.29440585E+03</pdfrwt>
<totfact> 0.85617041E+03</totfact>
</mgrwt>
</event>
<event>
 4    1  0.1777979E-004  0.3252364E+03  0.7818608E-02  0.1073264E+00
          2   -1    0    0  501    0  0.00000000000E+00  0.00000000000E+00  0.13183735439E+04  0.13183735439E+04  0.00000000000E+00 0.  1.
         -2   -1    0    0    0  501 -0.00000000000E+00 -0.00000000000E+00 -0.20058565925E+02  0.20058565925E+02  0.00000000000E+00 0.  1.
         25    1    1    2    0    0 -0.50884581531E+02 -0.91641591186E+02  0.51534759363E+03  0.53941687416E+03  0.12000000000E+03 0.  0.
         25    1    1    2    0    0  0.50884581531E+02  0.91641591186E+02  0.78296738439E+03  0.79901523571E+03  0.12000000000E+03 0.  0.
<mgrwt>
<rscale>  0 0.32523642E+03</rscale>
<asrwt>0</asrwt>
<pdfrwt beam="1">  1        2 0.20282663E+00 0.32523642E+03</pdfrwt>
<pdfrwt beam="2">  1       -2 0.30859343E-02 0.32523642E+03</pdfrwt>
<totfact> 0.69793888E+03</totfact>
</mgrwt>
</event>
<event>
 4    1  0.1777979E-004  0.3056287E+03  0.7818608E-02  0.1082460E+00
          1   -1    0    0  501    0  0.00000000000E+00  0.00000000000E+00  0.24499988303E+03  0.24499988303E+03  0.00000000000E+00 0.  1.
         -1   -1    0    0    0  501 -0.00000000000E+00 -0.00000000000E+00 -0.95315275130E+02  0.95315275130E+02  0.00000000000E+00 0.  1.
         25    1    1    2    0    0 -0.77692633070E+02 -0.50665829223E+02  0.54038775181E+02  0.16100733122E+03  0.12000000000E+03 0.  0.
         25    1    1    2    0    0  0.77692633070E+02  0.50665829223E+02  0.95645832717E+02  0.17930782694E+03  0.12000000000E+03 0.  0.
<mgrwt>
<rscale>  0 0.30562874E+03</rscale>
<asrwt>0</asrwt>
<pdfrwt beam="1">  1        1 0.37692289E-01 0.30562874E+03</pdfrwt>
<pdfrwt beam="2">  1       -1 0.14663889E-01 0.30562874E+03</pdfrwt>
<totfact> 0.37703952E+03</totfact>
</mgrwt>
</event>
<event>
 4    1  0.1777979E-004  0.2592959E+03  0.7818608E-02  0.1107567E+00
          1   -1    0    0  501    0  0.00000000000E+00  0.00000000000E+00  0.16921386468E+03  0.16921386468E+03  0.00000000000E+00 0. -1.
         -1   -1    0    0    0  501 -0.00000000000E+00 -0.00000000000E+00 -0.99333386916E+02  0.99333386916E+02  0.00000000000E+00 0. -1.
         25    1    1    2    0    0 -0.29794067231E+02  0.34134476176E+02  0.15406297645E+02  0.12919056820E+03  0.12000000000E+03 0.  0.
         25    1    1    2    0    0  0.29794067231E+02 -0.34134476176E+02  0.54474180119E+02  0.13935668339E+03  0.12000000000E+03 0.  0.
<mgrwt>
<rscale>  0 0.25929586E+03</rscale>
<asrwt>0</asrwt>
<pdfrwt beam="1">  1        1 0.26032902E-01 0.25929586E+03</pdfrwt>
<pdfrwt beam="2">  1       -1 0.15282060E-01 0.25929586E+03</pdfrwt>
<totfact> 0.56060138E+03</totfact>
</mgrwt>
</event>
<event>
 4    1  0.1777979E-004  0.2664738E+03  0.7818608E-02  0.1103315E+00
          2   -1    0    0  501    0  0.00000000000E+00  0.00000000000E+00  0.54309593017E+03  0.54309593017E+03  0.00000000000E+00 0. -1.
         -2   -1    0    0    0  501 -0.00000000000E+00 -0.00000000000E+00 -0.32686812806E+02  0.32686812806E+02  0.00000000000E+00 0. -1.
         25    1    1    2    0    0  0.38932584908E+01 -0.33049072121E+02  0.35757650363E+03  0.37864013862E+03  0.12000000000E+03 0.  0.
         25    1    1    2    0    0 -0.38932584908E+01  0.33049072121E+02  0.15283261373E+03  0.19714260435E+03  0.12000000000E+03 0.  0.
<mgrwt>
<rscale>  0 0.26647383E+03</rscale>
<asrwt>0</asrwt>
<pdfrwt beam="1">  1        2 0.83553214E-01 0.26647383E+03</pdfrwt>
<pdfrwt beam="2">  1       -2 0.50287408E-02 0.26647383E+03</pdfrwt>
<totfact> 0.10917261E+04</totfact>
</mgrwt>
</event>
<event>
 4    1  0.1777979E-004  0.2477207E+03  0.7818608E-02  0.1114754E+00
         -2   -1    0    0    0  501 -0.00000000000E+00  0.00000000000E+00  0.10872608611E+02  0.10872608611E+02  0.00000000000E+00 0.  1.
          2   -1    0    0  501    0  0.00000000000E+00 -0.00000000000E+00 -0.14110128648E+04  0.14110128648E+04  0.00000000000E+00 0.  1.
         25    1    1    2    0    0  0.30075268968E+01 -0.30174820829E+02 -0.67325466559E+03  0.68453736915E+03  0.12000000000E+03 0.  0.
         25    1    1    2    0    0 -0.30075268968E+01  0.30174820829E+02 -0.72688559059E+03  0.73734810425E+03  0.12000000000E+03 0.  0.
<mgrwt>
<rscale>  0 0.24772073E+03</rscale>
<asrwt>0</asrwt>
<pdfrwt beam="1">  1        2 0.21707871E+00 0.24772073E+03</pdfrwt>
<pdfrwt beam="2">  1       -2 0.16727105E-02 0.24772073E+03</pdfrwt>
<totfact> 0.15262655E+04</totfact>
</mgrwt>
</event>
<event>
 4    1  0.1777979E-004  0.3160111E+03  0.7818608E-02  0.1077500E+00
         -2   -1    0    0    0  501 -0.00000000000E+00  0.00000000000E+00  0.22093337645E+02  0.22093337645E+02  0.00000000000E+00 0. -1.
          2   -1    0    0  501    0  0.00000000000E+00 -0.00000000000E+00 -0.11300129566E+04  0.11300129566E+04  0.00000000000E+00 0. -1.
         25    1    1    2    0    0 -0.97132779436E+02  0.22320225925E+02 -0.46224922636E+03  0.48785993543E+03  0.12000000000E+03 0.  0.
         25    1    1    2    0    0  0.97132779436E+02 -0.22320225925E+02 -0.64567039262E+03  0.66424635884E+03  0.12000000000E+03 0.  0.
<mgrwt>
<rscale>  0 0.31601113E+03</rscale>
<asrwt>0</asrwt>
<pdfrwt beam="1">  1        2 0.17384815E+00 0.31601113E+03</pdfrwt>
<pdfrwt beam="2">  1       -2 0.33989750E-02 0.31601113E+03</pdfrwt>
<totfact> 0.77242183E+03</totfact>
</mgrwt>
</event>
<event>
 4    1  0.1777979E-004  0.2426258E+03  0.7818608E-02  0.1118056E+00
          2   -1    0    0  501    0  0.00000000000E+00  0.00000000000E+00  0.32510420435E+03  0.32510420435E+03  0.00000000000E+00 0.  1.
         -2   -1    0    0    0  501 -0.00000000000E+00 -0.00000000000E+00 -0.45268004368E+02  0.45268004368E+02  0.00000000000E+00 0.  1.
         25    1    1    2    0    0  0.16737706322E+02 -0.45183649010E+01  0.14607208283E+03  0.18983577065E+03  0.12000000000E+03 0.  0.
         25    1    1    2    0    0 -0.16737706322E+02  0.45183649010E+01  0.13376411715E+03  0.18053643807E+03  0.12000000000E+03 0.  0.
<mgrwt>
<rscale>  0 0.24262579E+03</rscale>
<asrwt>0</asrwt>
<pdfrwt beam="1">  1        2 0.50016030E-01 0.24262579E+03</pdfrwt>
<pdfrwt beam="2">  1       -2 0.69643086E-02 0.24262579E+03</pdfrwt>
<totfact> 0.11581036E+04</totfact>
</mgrwt>
</event>
<event>
 4    1  0.1777979E-004  0.5401310E+03  0.7818608E-02  0.1003804E+00
          2   -1    0    0  501    0  0.00000000000E+00  0.00000000000E+00  0.69443918934E+02  0.69443918934E+02  0.00000000000E+00 0. -1.
         -2   -1    0    0    0  501 -0.00000000000E+00 -0.00000000000E+00 -0.10502771745E+04  0.10502771745E+04  0.00000000000E+00 0. -1.
         25    1    1    2    0    0  0.98719831914E+02  0.14558985067E+03 -0.83477688942E+03  0.86150708932E+03  0.12000000000E+03 0.  0.
         25    1    1    2    0    0 -0.98719831914E+02 -0.14558985067E+03 -0.14605636614E+03  0.25821400411E+03  0.12000000000E+03 0.  0.
<mgrwt>
<rscale>  0 0.54013096E+03</rscale>
<asrwt>0</asrwt>
<pdfrwt beam="1">  1        2 0.10683680E-01 0.54013096E+03</pdfrwt>
<pdfrwt beam="2">  1       -2 0.16158111E+00 0.54013096E+03</pdfrwt>
<totfact> 0.15279191E+02</totfact>
</mgrwt>
</event>
<event>
 4    1  0.1777979E-004  0.2741164E+03  0.7818608E-02  0.1098947E+00
          1   -1    0    0  501    0  0.00000000000E+00  0.00000000000E+00  0.20992640952E+03  0.20992640952E+03  0.00000000000E+00 0. -1.
         -1   -1    0    0    0  501 -0.00000000000E+00 -0.00000000000E+00 -0.89483500294E+02  0.89483500294E+02  0.00000000000E+00 0. -1.
         25    1    1    2    0    0  0.25065907260E+02  0.92406010077E+01 -0.59603819374E+01  0.12308214560E+03  0.12000000000E+03 0.  0.
         25    1    1    2    0    0 -0.25065907260E+02 -0.92406010077E+01  0.12640329116E+03  0.17632776421E+03  0.12000000000E+03 0.  0.
<mgrwt>
<rscale>  0 0.27411640E+03</rscale>
<asrwt>0</asrwt>
<pdfrwt beam="1">  1        1 0.32296371E-01 0.27411640E+03</pdfrwt>
<pdfrwt beam="2">  1       -1 0.13766692E-01 0.27411640E+03</pdfrwt>
<totfact> 0.50463450E+03</totfact>
</mgrwt>
</event>
<event>
 4    1  0.1777979E-004  0.2539490E+03  0.7818608E-02  0.1110834E+00
          3   -1    0    0  501    0  0.00000000000E+00  0.00000000000E+00  0.61597397365E+03  0.61597397365E+03  0.00000000000E+00 0. -1.
         -3   -1    0    0    0  501 -0.00000000000E+00 -0.00000000000E+00 -0.26174025028E+02  0.26174025028E+02  0.00000000000E+00 0. -1.
         25    1    1    2    0    0  0.36254888974E+02  0.11189771433E+02  0.33743019975E+03  0.36013715118E+03  0.12000000000E+03 0.  0.
         25    1    1    2    0    0 -0.36254888974E+02 -0.11189771433E+02  0.25236974887E+03  0.28201084750E+03  0.12000000000E+03 0.  0.
<mgrwt>
<rscale>  0 0.25394896E+03</rscale>
<asrwt>0</asrwt>
<pdfrwt beam="1">  1        3 0.94765215E-01 0.25394896E+03</pdfrwt>
<pdfrwt beam="2">  1       -3 0.40267736E-02 0.25394896E+03</pdfrwt>
<totfact> 0.82921422E+02</totfact>
</mgrwt>
</event>
<event>
 4    1  0.1777979E-004  0.3362730E+03  0.7818608E-02  0.1068394E+00
         -1   -1    0    0    0  501 -0.00000000000E+00  0.00000000000E+00  0.33216559375E+03  0.33216559375E+03  0.00000000000E+00 0. -1.
          1   -1    0    0  501    0  0.00000000000E+00 -0.00000000000E+00 -0.85107806248E+02  0.85107806248E+02  0.00000000000E+00 0. -1.
         25    1    1    2    0    0  0.10282218388E+03  0.42324735066E+02  0.17168547317E+03  0.23714908053E+03  0.12000000000E+03 0.  0.
         25    1    1    2    0    0 -0.10282218388E+03 -0.42324735066E+02  0.75372314329E+02  0.18012431947E+03  0.12000000000E+03 0.  0.
<mgrwt>
<rscale>  0 0.33627301E+03</rscale>
<asrwt>0</asrwt>
<pdfrwt beam="1">  1        1 0.13093509E-01 0.33627301E+03</pdfrwt>
<pdfrwt beam="2">  1       -1 0.51102398E-01 0.33627301E+03</pdfrwt>
<totfact> 0.17660550E+03</totfact>
</mgrwt>
</event>
<event>
 4    1  0.1777979E-004  0.2965255E+03  0.7818608E-02  0.1086990E+00
          3   -1    0    0  501    0  0.00000000000E+00  0.00000000000E+00  0.44523245366E+03  0.44523245366E+03  0.00000000000E+00 0. -1.
         -3   -1    0    0    0  501 -0.00000000000E+00 -0.00000000000E+00 -0.49371610538E+02  0.49371610538E+02  0.00000000000E+00 0. -1.
         25    1    1    2    0    0 -0.21207288988E+02  0.21058085566E+02  0.33434629452E+03  0.35648371174E+03  0.12000000000E+03 0.  0.
         25    1    1    2    0    0  0.21207288988E+02 -0.21058085566E+02  0.61514548599E+02  0.13812035246E+03  0.12000000000E+03 0.  0.
<mgrwt>
<rscale>  0 0.29652550E+03</rscale>
<asrwt>0</asrwt>
<pdfrwt beam="1">  1        3 0.68497298E-01 0.29652550E+03</pdfrwt>
<pdfrwt beam="2">  1       -3 0.75956327E-02 0.29652550E+03</pdfrwt>
<totfact> 0.61956121E+02</totfact>
</mgrwt>
</event>
<event>
 4    1  0.1777979E-004  0.2600139E+03  0.7818608E-02  0.1107135E+00
         -3   -1    0    0    0  501 -0.00000000000E+00  0.00000000000E+00  0.74513365118E+02  0.74513365118E+02  0.00000000000E+00 0. -1.
          3   -1    0    0  501    0  0.00000000000E+00 -0.00000000000E+00 -0.22682915886E+03  0.22682915886E+03  0.00000000000E+00 0. -1.
         25    1    1    2    0    0  0.32900933222E+02  0.33940753213E+02 -0.57207848452E+02  0.14109282072E+03  0.12000000000E+03 0.  0.
         25    1    1    2    0    0 -0.32900933222E+02 -0.33940753213E+02 -0.95107945288E+02  0.16024970325E+03  0.12000000000E+03 0.  0.
<mgrwt>
<rscale>  0 0.26001388E+03</rscale>
<asrwt>0</asrwt>
<pdfrwt beam="1">  1        3 0.34896793E-01 0.26001388E+03</pdfrwt>
<pdfrwt beam="2">  1       -3 0.11463595E-01 0.26001388E+03</pdfrwt>
<totfact> 0.11982315E+03</totfact>
</mgrwt>
</event>
<event>
 4    1  0.1777979E-004  0.2686549E+03  0.7818608E-02  0.1102052E+00
          2   -1    0    0  501    0  0.00000000000E+00  0.00000000000E+00  0.47831627944E+03  0.47831627944E+03  0.00000000000E+00 0.  1.
         -2   -1    0    0    0  501 -0.00000000000E+00 -0.00000000000E+00 -0.37723721635E+02  0.37723721635E+02  0.00000000000E+00 0.  1.
         25    1    1    2    0    0 -0.19953668793E+02 -0.56767824979E+02  0.21105724941E+03  0.25013176004E+03  0.12000000000E+03 0.  0.
         25    1    1    2    0    0  0.19953668793E+02  0.56767824979E+02  0.22953530839E+03  0.26590824104E+03  0.12000000000E+03 0.  0.
<mgrwt>
<rscale>  0 0.26865495E+03</rscale>
<asrwt>0</asrwt>
<pdfrwt beam="1">  1        2 0.73587115E-01 0.26865495E+03</pdfrwt>
<pdfrwt beam="2">  1       -2 0.58036498E-02 0.26865495E+03</pdfrwt>
<totfact> 0.10121433E+04</totfact>
</mgrwt>
</event>
<event>
 4    1  0.1777979E-004  0.2894272E+03  0.7818608E-02  0.1090649E+00
          1   -1    0    0  501    0  0.00000000000E+00  0.00000000000E+00  0.56023976309E+03  0.56023976309E+03  0.00000000000E+00 0. -1.
         -1   -1    0    0    0  501 -0.00000000000E+00 -0.00000000000E+00 -0.37380467775E+02  0.37380467775E+02  0.00000000000E+00 0. -1.
         25    1    1    2    0    0 -0.80835710258E+02 -0.17851328312E+01  0.26577349862E+03  0.30261056049E+03  0.12000000000E+03 0.  0.
         25    1    1    2    0    0  0.80835710258E+02  0.17851328312E+01  0.25708579670E+03  0.29500967038E+03  0.12000000000E+03 0.  0.
<mgrwt>
<rscale>  0 0.28942719E+03</rscale>
<asrwt>0</asrwt>
<pdfrwt beam="1">  1        1 0.86190727E-01 0.28942719E+03</pdfrwt>
<pdfrwt beam="2">  1       -1 0.57508416E-02 0.28942719E+03</pdfrwt>
<totfact> 0.55011457E+03</totfact>
</mgrwt>
</event>
<event>
 4    1  0.1777979E-004  0.3131472E+03  0.7818608E-02  0.1078847E+00
         -4   -1    0    0    0  501 -0.00000000000E+00  0.00000000000E+00  0.46283379340E+03  0.46283379340E+03  0.00000000000E+00 0.  1.
          4   -1    0    0  501    0  0.00000000000E+00 -0.00000000000E+00 -0.52967822390E+02  0.52967822390E+02  0.00000000000E+00 0.  1.
         25    1    1    2    0    0 -0.69656657168E+02  0.59678595711E+02  0.13698488293E+03  0.20390792733E+03  0.12000000000E+03 0.  0.
         25    1    1    2    0    0  0.69656657168E+02 -0.59678595711E+02  0.27288108807E+03  0.31189368846E+03  0.12000000000E+03 0.  0.
<mgrwt>
<rscale>  0 0.31314724E+03</rscale>
<asrwt>0</asrwt>
<pdfrwt beam="1">  1        4 0.81488960E-02 0.31314724E+03</pdfrwt>
<pdfrwt beam="2">  1       -4 0.71205196E-01 0.31314724E+03</pdfrwt>
<totfact> 0.37376164E+02</totfact>
</mgrwt>
</event>
<event>
 4    1  0.1777979E-004  0.2701840E+03  0.7818608E-02  0.1101174E+00
         -2   -1    0    0    0  501 -0.00000000000E+00  0.00000000000E+00  0.12094207696E+02  0.12094207696E+02  0.00000000000E+00 0.  1.
          2   -1    0    0  501    0  0.00000000000E+00 -0.00000000000E+00 -0.15089747931E+04  0.15089747931E+04  0.00000000000E+00 0.  1.
         25    1    1    2    0    0 -0.11240902735E+02  0.61019801888E+02 -0.74684360026E+03  0.75896319896E+03  0.12000000000E+03 0.  0.
         25    1    1    2    0    0  0.11240902735E+02 -0.61019801888E+02 -0.75003698514E+03  0.76210580183E+03  0.12000000000E+03 0.  0.
<mgrwt>
<rscale>  0 0.27018405E+03</rscale>
<asrwt>0</asrwt>
<pdfrwt beam="1">  1        2 0.23214985E+00 0.27018405E+03</pdfrwt>
<pdfrwt beam="2">  1       -2 0.18606482E-02 0.27018405E+03</pdfrwt>
<totfact> 0.11596348E+04</totfact>
</mgrwt>
</event>
<event>
 4    1  0.1777979E-004  0.2541912E+03  0.7818608E-02  0.1110684E+00
         -2   -1    0    0    0  501 -0.00000000000E+00  0.00000000000E+00  0.11791041384E+02  0.11791041384E+02  0.00000000000E+00 0.  1.
          2   -1    0    0  501    0  0.00000000000E+00 -0.00000000000E+00 -0.13699631776E+04  0.13699631776E+04  0.00000000000E+00 0.  1.
         25    1    1    2    0    0 -0.32192220117E+02 -0.21688800616E+02 -0.59373238599E+03  0.60698013912E+03  0.12000000000E+03 0.  0.
         25    1    1    2    0    0  0.32192220117E+02  0.21688800616E+02 -0.76443975020E+03  0.77477407984E+03  0.12000000000E+03 0.  0.
<mgrwt>
<rscale>  0 0.25419121E+03</rscale>
<asrwt>0</asrwt>
<pdfrwt beam="1">  1        2 0.21076368E+00 0.25419121E+03</pdfrwt>
<pdfrwt beam="2">  1       -2 0.18140054E-02 0.25419121E+03</pdfrwt>
<totfact> 0.14279009E+04</totfact>
</mgrwt>
</event>
<event>
 4    1  0.1777979E-004  0.3195113E+03  0.7818608E-02  0.1075874E+00
         -1   -1    0    0    0  501 -0.00000000000E+00  0.00000000000E+00  0.14985489907E+03  0.14985489907E+03  0.00000000000E+00 0. -1.
          1   -1    0    0  501    0  0.00000000000E+00 -0.00000000000E+00 -0.17031054831E+03  0.17031054831E+03  0.00000000000E+00 0. -1.
         25    1    1    2    0    0 -0.16403272626E+02 -0.30315545442E+02  0.89644527241E+02  0.15370179216E+03  0.12000000000E+03 0.  0.
         25    1    1    2    0    0  0.16403272626E+02  0.30315545442E+02 -0.11010017648E+03  0.16646365522E+03  0.12000000000E+03 0.  0.
<mgrwt>
<rscale>  0 0.31951131E+03</rscale>
<asrwt>0</asrwt>
<pdfrwt beam="1">  1        1 0.26201623E-01 0.31951131E+03</pdfrwt>
<pdfrwt beam="2">  1       -1 0.23054600E-01 0.31951131E+03</pdfrwt>
<totfact> 0.28735102E+03</totfact>
</mgrwt>
</event>
<event>
 4    1  0.1777979E-004  0.2940831E+03  0.7818608E-02  0.1088236E+00
         -1   -1    0    0    0  501 -0.00000000000E+00  0.00000000000E+00  0.21134764356E+02  0.21134764356E+02  0.00000000000E+00 0.  1.
          1   -1    0    0  501    0  0.00000000000E+00 -0.00000000000E+00 -0.10230166790E+04  0.10230166790E+04  0.00000000000E+00 0.  1.
         25    1    1    2    0    0 -0.68033246325E+02  0.46734758537E+02 -0.42917486023E+03  0.45321487279E+03  0.12000000000E+03 0.  0.
         25    1    1    2    0    0  0.68033246325E+02 -0.46734758537E+02 -0.57270705439E+03  0.59093657055E+03  0.12000000000E+03 0.  0.
<mgrwt>
<rscale>  0 0.29408309E+03</rscale>
<asrwt>0</asrwt>
<pdfrwt beam="1">  1        1 0.15738719E+00 0.29408309E+03</pdfrwt>
<pdfrwt beam="2">  1       -1 0.32515020E-02 0.29408309E+03</pdfrwt>
<totfact> 0.51506120E+03</totfact>
</mgrwt>
</event>
<event>
 4    1  0.1777979E-004  0.2598149E+03  0.7818608E-02  0.1107255E+00
         -1   -1    0    0    0  501 -0.00000000000E+00  0.00000000000E+00  0.24983878542E+03  0.24983878542E+03  0.00000000000E+00 0.  1.
          1   -1    0    0  501    0  0.00000000000E+00 -0.00000000000E+00 -0.67547334896E+02  0.67547334896E+02  0.00000000000E+00 0.  1.
         25    1    1    2    0    0 -0.25650913801E+02  0.29663066809E+02  0.53730946169E+02  0.13720379546E+03  0.12000000000E+03 0.  0.
         25    1    1    2    0    0  0.25650913801E+02 -0.29663066809E+02  0.12856050435E+03  0.18018232485E+03  0.12000000000E+03 0.  0.
<mgrwt>
<rscale>  0 0.25981489E+03</rscale>
<asrwt>0</asrwt>
<pdfrwt beam="1">  1        1 0.10391898E-01 0.25981489E+03</pdfrwt>
<pdfrwt beam="2">  1       -1 0.38436736E-01 0.25981489E+03</pdfrwt>
<totfact> 0.40061743E+03</totfact>
</mgrwt>
</event>
<event>
 4    1  0.1777979E-004  0.2835704E+03  0.7818608E-02  0.1093755E+00
          2   -1    0    0  501    0  0.00000000000E+00  0.00000000000E+00  0.99354256362E+03  0.99354256362E+03  0.00000000000E+00 0.  1.
         -2   -1    0    0    0  501 -0.00000000000E+00 -0.00000000000E+00 -0.20233697384E+02  0.20233697384E+02  0.00000000000E+00 0.  1.
         25    1    1    2    0    0  0.21102973014E+01 -0.47263973497E+01  0.21730757414E+03  0.24829291968E+03  0.12000000000E+03 0.  0.
         25    1    1    2    0    0 -0.21102973014E+01  0.47263973497E+01  0.75600129210E+03  0.76548334133E+03  0.12000000000E+03 0.  0.
<mgrwt>
<rscale>  0 0.28357038E+03</rscale>
<asrwt>0</asrwt>
<pdfrwt beam="1">  1        2 0.15285266E+00 0.28357038E+03</pdfrwt>
<pdfrwt beam="2">  1       -2 0.31128773E-02 0.28357038E+03</pdfrwt>
<totfact> 0.10607464E+04</totfact>
</mgrwt>
</event>
<event>
 4    1  0.1777979E-004  0.5282021E+03  0.7818608E-02  0.1006669E+00
         -2   -1    0    0    0  501 -0.00000000000E+00  0.00000000000E+00  0.85387423529E+02  0.85387423529E+02  0.00000000000E+00 0. -1.
          2   -1    0    0  501    0  0.00000000000E+00 -0.00000000000E+00 -0.81685772783E+03  0.81685772783E+03  0.00000000000E+00 0. -1.
         25    1    1    2    0    0  0.13526868859E+03 -0.18405120264E+03 -0.26945714597E+03  0.37306784480E+03  0.12000000000E+03 0.  0.
         25    1    1    2    0    0 -0.13526868859E+03  0.18405120264E+03 -0.46201315832E+03  0.52917730656E+03  0.12000000000E+03 0.  0.
<mgrwt>
<rscale>  0 0.52820215E+03</rscale>
<asrwt>0</asrwt>
<pdfrwt beam="1">  1        2 0.12567041E+00 0.52820215E+03</pdfrwt>
<pdfrwt beam="2">  1       -2 0.13136527E-01 0.52820215E+03</pdfrwt>
<totfact> 0.14725268E+03</totfact>
</mgrwt>
</event>
<event>
 4    1  0.1777979E-004  0.3297356E+03  0.7818608E-02  0.1071254E+00
         -1   -1    0    0    0  501 -0.00000000000E+00  0.00000000000E+00  0.42623571123E+02  0.42623571123E+02  0.00000000000E+00 0.  1.
          1   -1    0    0  501    0  0.00000000000E+00 -0.00000000000E+00 -0.63770784126E+03  0.63770784126E+03  0.00000000000E+00 0.  1.
         25    1    1    2    0    0  0.96461973548E+02 -0.72446116178E+01 -0.17681055071E+03  0.23456207618E+03  0.12000000000E+03 0.  0.
         25    1    1    2    0    0 -0.96461973548E+02  0.72446116178E+01 -0.41827371942E+03  0.44576933620E+03  0.12000000000E+03 0.  0.
<mgrwt>
<rscale>  0 0.32973556E+03</rscale>
<asrwt>0</asrwt>
<pdfrwt beam="1">  1        1 0.98108896E-01 0.32973556E+03</pdfrwt>
<pdfrwt beam="2">  1       -1 0.65574726E-02 0.32973556E+03</pdfrwt>
<totfact> 0.37743236E+03</totfact>
</mgrwt>
</event>
<event>
 4    1  0.1777979E-004  0.2674386E+03  0.7818608E-02  0.1102755E+00
          3   -1    0    0  501    0  0.00000000000E+00  0.00000000000E+00  0.52485272086E+03  0.52485272086E+03  0.00000000000E+00 0. -1.
         -3   -1    0    0    0  501 -0.00000000000E+00 -0.00000000000E+00 -0.34068323005E+02  0.34068323005E+02  0.00000000000E+00 0. -1.
         25    1    1    2    0    0  0.41361308874E+02  0.41834468911E+02  0.23605255711E+03  0.27125945214E+03  0.12000000000E+03 0.  0.
         25    1    1    2    0    0 -0.41361308874E+02 -0.41834468911E+02  0.25473184075E+03  0.28766159172E+03  0.12000000000E+03 0.  0.
<mgrwt>
<rscale>  0 0.26743861E+03</rscale>
<asrwt>0</asrwt>
<pdfrwt beam="1">  1        3 0.80746567E-01 0.26743861E+03</pdfrwt>
<pdfrwt beam="2">  1       -3 0.52412808E-02 0.26743861E+03</pdfrwt>
<totfact> 0.78347027E+02</totfact>
</mgrwt>
</event>
<event>
 4    1  0.1777979E-004  0.2411944E+03  0.7818608E-02  0.1119000E+00
         -1   -1    0    0    0  501 -0.00000000000E+00  0.00000000000E+00  0.84179791092E+02  0.84179791092E+02  0.00000000000E+00 0.  1.
          1   -1    0    0  501    0  0.00000000000E+00 -0.00000000000E+00 -0.17276927547E+03  0.17276927547E+03  0.00000000000E+00 0.  1.
         25    1    1    2    0    0  0.84376412757E+01 -0.42265576253E+01 -0.52168306315E+02  0.13118913737E+03  0.12000000000E+03 0.  0.
         25    1    1    2    0    0 -0.84376412757E+01  0.42265576253E+01 -0.36421178064E+02  0.12575992920E+03  0.12000000000E+03 0.  0.
<mgrwt>
<rscale>  0 0.24119437E+03</rscale>
<asrwt>0</asrwt>
<pdfrwt beam="1">  1        1 0.26579888E-01 0.24119437E+03</pdfrwt>
<pdfrwt beam="2">  1       -1 0.12950737E-01 0.24119437E+03</pdfrwt>
<totfact> 0.70679373E+03</totfact>
</mgrwt>
</event>
<event>
 4    1  0.1777979E-004  0.4230065E+03  0.7818608E-02  0.1036092E+00
         -2   -1    0    0    0  501 -0.00000000000E+00  0.00000000000E+00  0.10000992690E+03  0.10000992690E+03  0.00000000000E+00 0.  1.
          2   -1    0    0  501    0  0.00000000000E+00 -0.00000000000E+00 -0.44729179155E+03  0.44729179155E+03  0.00000000000E+00 0.  1.
         25    1    1    2    0    0  0.11242952901E+03 -0.74022906145E+02 -0.31663095268E+03  0.36438297137E+03  0.12000000000E+03 0.  0.
         25    1    1    2    0    0 -0.11242952901E+03  0.74022906145E+02 -0.30650911968E+02  0.18291874707E+03  0.12000000000E+03 0.  0.
<mgrwt>
<rscale>  0 0.42300647E+03</rscale>
<asrwt>0</asrwt>
<pdfrwt beam="1">  1        2 0.68814121E-01 0.42300647E+03</pdfrwt>
<pdfrwt beam="2">  1       -2 0.15386143E-01 0.42300647E+03</pdfrwt>
<totfact> 0.23293870E+03</totfact>
</mgrwt>
</event>
<event>
 4    1  0.1777979E-004  0.3237300E+03  0.7818608E-02  0.1073945E+00
          2   -1    0    0  501    0  0.00000000000E+00  0.00000000000E+00  0.15625015322E+04  0.15625015322E+04  0.00000000000E+00 0.  1.
         -2   -1    0    0    0  501 -0.00000000000E+00 -0.00000000000E+00 -0.16768165582E+02  0.16768165582E+02  0.00000000000E+00 0.  1.
         25    1    1    2    0    0  0.61311716941E+02 -0.57477652442E+02  0.11086405351E+04  0.11182784283E+04  0.12000000000E+03 0.  0.
         25    1    1    2    0    0 -0.61311716941E+02  0.57477652442E+02  0.43709283155E+03  0.46099126950E+03  0.12000000000E+03 0.  0.
<mgrwt>
<rscale>  0 0.32373004E+03</rscale>
<asrwt>0</asrwt>
<pdfrwt beam="1">  1        2 0.24038474E+00 0.32373004E+03</pdfrwt>
<pdfrwt beam="2">  1       -2 0.25797190E-02 0.32373004E+03</pdfrwt>
<totfact> 0.67160993E+03</totfact>
</mgrwt>
</event>
<event>
 4    1  0.1777979E-004  0.3223192E+03  0.7818608E-02  0.1074587E+00
          1   -1    0    0  501    0  0.00000000000E+00  0.00000000000E+00  0.15780614484E+04  0.15780614484E+04  0.00000000000E+00 0. -1.
         -1   -1    0    0    0  501 -0.00000000000E+00 -0.00000000000E+00 -0.16458429597E+02  0.16458429597E+02  0.00000000000E+00 0. -1.
         25    1    1    2    0    0  0.71133077234E+02  0.26094296480E+02  0.40302309281E+03  0.42728028310E+03  0.12000000000E+03 0.  0.
         25    1    1    2    0    0 -0.71133077234E+02 -0.26094296480E+02  0.11585799260E+04  0.11672395949E+04  0.12000000000E+03 0.  0.
<mgrwt>
<rscale>  0 0.32231918E+03</rscale>
<asrwt>0</asrwt>
<pdfrwt beam="1">  1        1 0.24277857E+00 0.32231918E+03</pdfrwt>
<pdfrwt beam="2">  1       -1 0.25320673E-02 0.32231918E+03</pdfrwt>
<totfact> 0.30814103E+03</totfact>
</mgrwt>
</event>
<event>
 4    1  0.1777979E-004  0.2983970E+03  0.7818608E-02  0.1086045E+00
          2   -1    0    0  501    0  0.00000000000E+00  0.00000000000E+00  0.15478844407E+04  0.15478844407E+04  0.00000000000E+00 0. -1.
         -2   -1    0    0    0  501 -0.00000000000E+00 -0.00000000000E+00 -0.14381043667E+02  0.14381043667E+02  0.00000000000E+00 0. -1.
         25    1    1    2    0    0  0.90661787812E+01 -0.16028029637E+02  0.12207989651E+04  0.12268207719E+04  0.12000000000E+03 0.  0.
         25    1    1    2    0    0 -0.90661787812E+01  0.16028029637E+02  0.31270443199E+03  0.33544471246E+03  0.12000000000E+03 0.  0.
<mgrwt>
<rscale>  0 0.29839701E+03</rscale>
<asrwt>0</asrwt>
<pdfrwt beam="1">  1        2 0.23813594E+00 0.29839701E+03</pdfrwt>
<pdfrwt beam="2">  1       -2 0.22124695E-02 0.29839701E+03</pdfrwt>
<totfact> 0.85801198E+03</totfact>
</mgrwt>
</event>
<event>
 4    1  0.1777979E-004  0.3263913E+03  0.7818608E-02  0.1072745E+00
          1   -1    0    0  501    0  0.00000000000E+00  0.00000000000E+00  0.64849053937E+03  0.64849053937E+03  0.00000000000E+00 0.  1.
         -1   -1    0    0    0  501 -0.00000000000E+00 -0.00000000000E+00 -0.41068945612E+02  0.41068945612E+02  0.00000000000E+00 0.  1.
         25    1    1    2    0    0  0.73790408699E+02 -0.73526407549E+02  0.38224062108E+03  0.41395537130E+03  0.12000000000E+03 0.  0.
         25    1    1    2    0    0 -0.73790408699E+02  0.73526407549E+02  0.22518097268E+03  0.27560411368E+03  0.12000000000E+03 0.  0.
<mgrwt>
<rscale>  0 0.32639132E+03</rscale>
<asrwt>0</asrwt>
<pdfrwt beam="1">  1        1 0.99767768E-01 0.32639132E+03</pdfrwt>
<pdfrwt beam="2">  1       -1 0.63182998E-02 0.32639132E+03</pdfrwt>
<totfact> 0.38985788E+03</totfact>
</mgrwt>
</event>
<event>
 4    1  0.1777979E-004  0.2531503E+03  0.7818608E-02  0.1111330E+00
         -2   -1    0    0    0  501 -0.00000000000E+00  0.00000000000E+00  0.61773011629E+02  0.61773011629E+02  0.00000000000E+00 0.  1.
          2   -1    0    0  501    0  0.00000000000E+00 -0.00000000000E+00 -0.25935715730E+03  0.25935715730E+03  0.00000000000E+00 0.  1.
         25    1    1    2    0    0 -0.75047923520E+01  0.36370523014E+02 -0.79052754743E+02  0.14841992752E+03  0.12000000000E+03 0.  0.
         25    1    1    2    0    0  0.75047923520E+01 -0.36370523014E+02 -0.11853139093E+03  0.17271024141E+03  0.12000000000E+03 0.  0.
<mgrwt>
<rscale>  0 0.25315033E+03</rscale>
<asrwt>0</asrwt>
<pdfrwt beam="1">  1        2 0.39901101E-01 0.25315033E+03</pdfrwt>
<pdfrwt beam="2">  1       -2 0.95035403E-02 0.25315033E+03</pdfrwt>
<totfact> 0.91011972E+03</totfact>
</mgrwt>
</event>
<event>
 4    1  0.1777979E-004  0.2605053E+03  0.7818608E-02  0.1106840E+00
          1   -1    0    0  501    0  0.00000000000E+00  0.00000000000E+00  0.11952049155E+03  0.11952049155E+03  0.00000000000E+00 0.  1.
         -1   -1    0    0    0  501 -0.00000000000E+00 -0.00000000000E+00 -0.14194845317E+03  0.14194845317E+03  0.00000000000E+00 0.  1.
         25    1    1    2    0    0  0.25169878590E+02 -0.16299709671E+02  0.29760381029E+02  0.12721982394E+03  0.12000000000E+03 0.  0.
         25    1    1    2    0    0 -0.25169878590E+02  0.16299709671E+02 -0.52188342642E+02  0.13424912078E+03  0.12000000000E+03 0.  0.
<mgrwt>
<rscale>  0 0.26050527E+03</rscale>
<asrwt>0</asrwt>
<pdfrwt beam="1">  1        1 0.18387768E-01 0.26050527E+03</pdfrwt>
<pdfrwt beam="2">  1       -1 0.21838223E-01 0.26050527E+03</pdfrwt>
<totfact> 0.49238597E+03</totfact>
</mgrwt>
</event>
<event>
 4    1  0.1777979E-004  0.3476277E+03  0.7818608E-02  0.1063593E+00
          4   -1    0    0  501    0  0.00000000000E+00  0.00000000000E+00  0.11304811381E+03  0.11304811381E+03  0.00000000000E+00 0. -1.
         -4   -1    0    0    0  501 -0.00000000000E+00 -0.00000000000E+00 -0.26724242460E+03  0.26724242460E+03  0.00000000000E+00 0. -1.
         25    1    1    2    0    0  0.12509783750E+03 -0.12397185403E+02 -0.73985061409E+02  0.18888342559E+03  0.12000000000E+03 0.  0.
         25    1    1    2    0    0 -0.12509783750E+03  0.12397185403E+02 -0.80209249374E+02  0.19140711282E+03  0.12000000000E+03 0.  0.
<mgrwt>
<rscale>  0 0.34762769E+03</rscale>
<asrwt>0</asrwt>
<pdfrwt beam="1">  1        4 0.17392018E-01 0.34762769E+03</pdfrwt>
<pdfrwt beam="2">  1       -4 0.41114219E-01 0.34762769E+03</pdfrwt>
<totfact> 0.32115925E+02</totfact>
</mgrwt>
</event>
<event>
 4    1  0.1777979E-004  0.3640361E+03  0.7818608E-02  0.1056997E+00
         -4   -1    0    0    0  501 -0.00000000000E+00  0.00000000000E+00  0.10545532242E+04  0.10545532242E+04  0.00000000000E+00 0.  1.
          4   -1    0    0  501    0  0.00000000000E+00 -0.00000000000E+00 -0.31416682040E+02  0.31416682040E+02  0.00000000000E+00 0.  1.
         25    1    1    2    0    0 -0.49330639792E+02 -0.70598509948E+02  0.82886119842E+03  0.84191956140E+03  0.12000000000E+03 0.  0.
         25    1    1    2    0    0  0.49330639792E+02  0.70598509948E+02  0.19427534375E+03  0.24405034484E+03  0.12000000000E+03 0.  0.
<mgrwt>
<rscale>  0 0.36403606E+03</rscale>
<asrwt>0</asrwt>
<pdfrwt beam="1">  1        4 0.48333365E-02 0.36403606E+03</pdfrwt>
<pdfrwt beam="2">  1       -4 0.16223893E+00 0.36403606E+03</pdfrwt>
<totfact> 0.12421391E+02</totfact>
</mgrwt>
</event>
<event>
 4    1  0.1777979E-004  0.3256298E+03  0.7818608E-02  0.1073087E+00
         -1   -1    0    0    0  501 -0.00000000000E+00  0.00000000000E+00  0.14356762274E+02  0.14356762274E+02  0.00000000000E+00 0. -1.
          1   -1    0    0  501    0  0.00000000000E+00 -0.00000000000E+00 -0.18464249839E+04  0.18464249839E+04  0.00000000000E+00 0. -1.
         25    1    1    2    0    0  0.64002665487E+02  0.79537706098E+02 -0.68138841724E+03  0.69936597217E+03  0.12000000000E+03 0.  0.
         25    1    1    2    0    0 -0.64002665487E+02 -0.79537706098E+02 -0.11506798043E+04  0.11614157740E+04  0.12000000000E+03 0.  0.
<mgrwt>
<rscale>  0 0.32562976E+03</rscale>
<asrwt>0</asrwt>
<pdfrwt beam="1">  1        1 0.28406531E+00 0.32562976E+03</pdfrwt>
<pdfrwt beam="2">  1       -1 0.22087332E-02 0.32562976E+03</pdfrwt>
<totfact> 0.25124718E+03</totfact>
</mgrwt>
</event>
<event>
 4    1  0.1777979E-004  0.3343949E+03  0.7818608E-02  0.1069209E+00
         -2   -1    0    0    0  501 -0.00000000000E+00  0.00000000000E+00  0.25652071834E+03  0.25652071834E+03  0.00000000000E+00 0.  1.
          2   -1    0    0  501    0  0.00000000000E+00 -0.00000000000E+00 -0.10897748115E+03  0.10897748115E+03  0.00000000000E+00 0.  1.
         25    1    1    2    0    0 -0.72437066383E+02  0.26875064401E+02  0.16896793697E+03  0.22117766930E+03  0.12000000000E+03 0.  0.
         25    1    1    2    0    0  0.72437066383E+02 -0.26875064401E+02 -0.21424699777E+02  0.14432053019E+03  0.12000000000E+03 0.  0.
<mgrwt>
<rscale>  0 0.33439487E+03</rscale>
<asrwt>0</asrwt>
<pdfrwt beam="1">  1        2 0.16765766E-01 0.33439487E+03</pdfrwt>
<pdfrwt beam="2">  1       -2 0.39464726E-01 0.33439487E+03</pdfrwt>
<totfact> 0.20948423E+03</totfact>
</mgrwt>
</event>
<event>
 4    1  0.1777979E-004  0.3341021E+03  0.7818608E-02  0.1069336E+00
          1   -1    0    0  501    0  0.00000000000E+00  0.00000000000E+00  0.35750049906E+03  0.35750049906E+03  0.00000000000E+00 0. -1.
         -1   -1    0    0    0  501 -0.00000000000E+00 -0.00000000000E+00 -0.78058795938E+02  0.78058795938E+02  0.00000000000E+00 0. -1.
         25    1    1    2    0    0 -0.39572266961E+02  0.57446714381E+02  0.18542751926E+02  0.14003543464E+03  0.12000000000E+03 0.  0.
         25    1    1    2    0    0  0.39572266961E+02 -0.57446714381E+02  0.26089895120E+03  0.29552386036E+03  0.12000000000E+03 0.  0.
<mgrwt>
<rscale>  0 0.33410213E+03</rscale>
<asrwt>0</asrwt>
<pdfrwt beam="1">  1        1 0.55000076E-01 0.33410213E+03</pdfrwt>
<pdfrwt beam="2">  1       -1 0.12009046E-01 0.33410213E+03</pdfrwt>
<totfact> 0.32102731E+03</totfact>
</mgrwt>
</event>
<event>
 4    1  0.1777979E-004  0.2777755E+03  0.7818608E-02  0.1096910E+00
         -1   -1    0    0    0  501 -0.00000000000E+00  0.00000000000E+00  0.23106781491E+02  0.23106781491E+02  0.00000000000E+00 0.  1.
          1   -1    0    0  501    0  0.00000000000E+00 -0.00000000000E+00 -0.83481139606E+03  0.83481139606E+03  0.00000000000E+00 0.  1.
         25    1    1    2    0    0  0.21633395514E+02  0.64073220232E+02 -0.35091263125E+03  0.37697885368E+03  0.12000000000E+03 0.  0.
         25    1    1    2    0    0 -0.21633395514E+02 -0.64073220232E+02 -0.46079198332E+03  0.48093932387E+03  0.12000000000E+03 0.  0.
<mgrwt>
<rscale>  0 0.27777548E+03</rscale>
<asrwt>0</asrwt>
<pdfrwt beam="1">  1        1 0.12843252E+00 0.27777548E+03</pdfrwt>
<pdfrwt beam="2">  1       -1 0.35548894E-02 0.27777548E+03</pdfrwt>
<totfact> 0.63116664E+03</totfact>
</mgrwt>
</event>
<event>
 4    1  0.1777979E-004  0.2642049E+03  0.7818608E-02  0.1104643E+00
         -1   -1    0    0    0  501 -0.00000000000E+00  0.00000000000E+00  0.19913409179E+02  0.19913409179E+02  0.00000000000E+00 0.  1.
          1   -1    0    0  501    0  0.00000000000E+00 -0.00000000000E+00 -0.87634707171E+03  0.87634707171E+03  0.00000000000E+00 0.  1.
         25    1    1    2    0    0  0.30056473607E+02 -0.13477112170E+02 -0.27780262790E+03  0.30439994124E+03  0.12000000000E+03 0.  0.
         25    1    1    2    0    0 -0.30056473607E+02  0.13477112170E+02 -0.57863103463E+03  0.59186053965E+03  0.12000000000E+03 0.  0.
<mgrwt>
<rscale>  0 0.26420490E+03</rscale>
<asrwt>0</asrwt>
<pdfrwt beam="1">  1        1 0.13482261E+00 0.26420490E+03</pdfrwt>
<pdfrwt beam="2">  1       -1 0.30636017E-02 0.26420490E+03</pdfrwt>
<totfact> 0.72718182E+03</totfact>
</mgrwt>
</event>
<event>
 4    1  0.1777979E-004  0.2691565E+03  0.7818608E-02  0.1101763E+00
          2   -1    0    0  501    0  0.00000000000E+00  0.00000000000E+00  0.14813146032E+04  0.14813146032E+04  0.00000000000E+00 0.  1.
         -2   -1    0    0    0  501 -0.00000000000E+00 -0.00000000000E+00 -0.12226506770E+02  0.12226506770E+02  0.00000000000E+00 0.  1.
         25    1    1    2    0    0  0.48505103616E+02 -0.29055532860E+02  0.86038875025E+03  0.87055486365E+03  0.12000000000E+03 0.  0.
         25    1    1    2    0    0 -0.48505103616E+02  0.29055532860E+02  0.60869934621E+03  0.62298624635E+03  0.12000000000E+03 0.  0.
<mgrwt>
<rscale>  0 0.26915648E+03</rscale>
<asrwt>0</asrwt>
<pdfrwt beam="1">  1        2 0.22789441E+00 0.26915648E+03</pdfrwt>
<pdfrwt beam="2">  1       -2 0.18810022E-02 0.26915648E+03</pdfrwt>
<totfact> 0.11807278E+04</totfact>
</mgrwt>
</event>
<event>
 4    1  0.1777979E-004  0.3726524E+03  0.7818608E-02  0.1053683E+00
          1   -1    0    0  501    0  0.00000000000E+00  0.00000000000E+00  0.10826068047E+04  0.10826068047E+04  0.00000000000E+00 0. -1.
         -1   -1    0    0    0  501 -0.00000000000E+00 -0.00000000000E+00 -0.32068392148E+02  0.32068392148E+02  0.00000000000E+00 0. -1.
         25    1    1    2    0    0 -0.12236431303E+03 -0.23896436484E+02  0.31860843329E+03  0.36256778475E+03  0.12000000000E+03 0.  0.
         25    1    1    2    0    0  0.12236431303E+03  0.23896436484E+02  0.73192997925E+03  0.75210741208E+03  0.12000000000E+03 0.  0.
<mgrwt>
<rscale>  0 0.37265244E+03</rscale>
<asrwt>0</asrwt>
<pdfrwt beam="1">  1        1 0.16655487E+00 0.37265244E+03</pdfrwt>
<pdfrwt beam="2">  1       -1 0.49335996E-02 0.37265244E+03</pdfrwt>
<totfact> 0.24989087E+03</totfact>
</mgrwt>
</event>
<event>
 4    1  0.1777979E-004  0.2927391E+03  0.7818608E-02  0.1088928E+00
          2   -1    0    0  501    0  0.00000000000E+00  0.00000000000E+00  0.21144788276E+03  0.21144788276E+03  0.00000000000E+00 0. -1.
         -2   -1    0    0    0  501 -0.00000000000E+00 -0.00000000000E+00 -0.10132069846E+03  0.10132069846E+03  0.00000000000E+00 0. -1.
         25    1    1    2    0    0 -0.38264867550E+02 -0.16088135746E+02  0.13285328301E+03  0.18377438071E+03  0.12000000000E+03 0.  0.
         25    1    1    2    0    0  0.38264867550E+02  0.16088135746E+02 -0.22726098708E+02  0.12899420050E+03  0.12000000000E+03 0.  0.
<mgrwt>
<rscale>  0 0.29273911E+03</rscale>
<asrwt>0</asrwt>
<pdfrwt beam="1">  1        2 0.32530443E-01 0.29273911E+03</pdfrwt>
<pdfrwt beam="2">  1       -2 0.15587800E-01 0.29273911E+03</pdfrwt>
<totfact> 0.51271472E+03</totfact>
</mgrwt>
</event>
<event>
 4    1  0.1777979E-004  0.2478516E+03  0.7818608E-02  0.1114670E+00
          2   -1    0    0  501    0  0.00000000000E+00  0.00000000000E+00  0.14802840997E+04  0.14802840997E+04  0.00000000000E+00 0.  1.
         -2   -1    0    0    0  501 -0.00000000000E+00 -0.00000000000E+00 -0.10374766046E+02  0.10374766046E+02  0.00000000000E+00 0.  1.
         25    1    1    2    0    0  0.22632742300E+02 -0.20719468979E+02  0.75905986396E+03  0.76909909276E+03  0.12000000000E+03 0.  0.
         25    1    1    2    0    0 -0.22632742300E+02  0.20719468979E+02  0.71084946967E+03  0.72155977296E+03  0.12000000000E+03 0.  0.
<mgrwt>
<rscale>  0 0.24785158E+03</rscale>
<asrwt>0</asrwt>
<pdfrwt beam="1">  1        2 0.22773585E+00 0.24785158E+03</pdfrwt>
<pdfrwt beam="2">  1       -2 0.15961190E-02 0.24785158E+03</pdfrwt>
<totfact> 0.15002754E+04</totfact>
</mgrwt>
</event>
<event>
 4    1  0.1777979E-004  0.5858893E+03  0.7818608E-02  0.9935122E-01
         -1   -1    0    0    0  501 -0.00000000000E+00  0.00000000000E+00  0.24714248745E+03  0.24714248745E+03  0.00000000000E+00 0.  1.
          1   -1    0    0  501    0  0.00000000000E+00 -0.00000000000E+00 -0.34723513374E+03  0.34723513374E+03  0.00000000000E+00 0.  1.
         25    1    1    2    0    0 -0.18956682883E+03 -0.14741482432E+03 -0.16900490137E+03  0.31722132607E+03  0.12000000000E+03 0.  0.
         25    1    1    2    0    0  0.18956682883E+03  0.14741482432E+03  0.68912255080E+02  0.27715629512E+03  0.12000000000E+03 0.  0.
<mgrwt>
<rscale>  0 0.58588925E+03</rscale>
<asrwt>0</asrwt>
<pdfrwt beam="1">  1        1 0.53420790E-01 0.58588925E+03</pdfrwt>
<pdfrwt beam="2">  1       -1 0.38021921E-01 0.58588925E+03</pdfrwt>
<totfact> 0.48899176E+02</totfact>
</mgrwt>
</event>
<event>
 4    1  0.1777979E-004  0.2805369E+03  0.7818608E-02  0.1095396E+00
          1   -1    0    0  501    0  0.00000000000E+00  0.00000000000E+00  0.11359327748E+04  0.11359327748E+04  0.00000000000E+00 0. -1.
         -1   -1    0    0    0  501 -0.00000000000E+00 -0.00000000000E+00 -0.17320770745E+02  0.17320770745E+02  0.00000000000E+00 0. -1.
         25    1    1    2    0    0 -0.53498851025E+02 -0.33006270347E+02  0.70887034337E+03  0.72169848597E+03  0.12000000000E+03 0.  0.
         25    1    1    2    0    0  0.53498851025E+02  0.33006270347E+02  0.40974166069E+03  0.43155505958E+03  0.12000000000E+03 0.  0.
<mgrwt>
<rscale>  0 0.28053685E+03</rscale>
<asrwt>0</asrwt>
<pdfrwt beam="1">  1        1 0.17475883E+00 0.28053685E+03</pdfrwt>
<pdfrwt beam="2">  1       -1 0.26647349E-02 0.28053685E+03</pdfrwt>
<totfact> 0.57152265E+03</totfact>
</mgrwt>
</event>
<event>
 4    1  0.1777979E-004  0.3475326E+03  0.7818608E-02  0.1063632E+00
          1   -1    0    0  501    0  0.00000000000E+00  0.00000000000E+00  0.22496080532E+03  0.22496080532E+03  0.00000000000E+00 0.  1.
         -1   -1    0    0    0  501 -0.00000000000E+00 -0.00000000000E+00 -0.13422216864E+03  0.13422216864E+03  0.00000000000E+00 0.  1.
         25    1    1    2    0    0  0.10170602820E+02  0.68737168506E+02  0.15360089090E+03  0.20693349942E+03  0.12000000000E+03 0.  0.
         25    1    1    2    0    0 -0.10170602820E+02 -0.68737168506E+02 -0.62862254217E+02  0.15224947455E+03  0.12000000000E+03 0.  0.
<mgrwt>
<rscale>  0 0.34753260E+03</rscale>
<asrwt>0</asrwt>
<pdfrwt beam="1">  1        1 0.34609355E-01 0.34753260E+03</pdfrwt>
<pdfrwt beam="2">  1       -1 0.20649564E-01 0.34753260E+03</pdfrwt>
<totfact> 0.24233314E+03</totfact>
</mgrwt>
</event>
<event>
 4    1  0.1777979E-004  0.2703501E+03  0.7818608E-02  0.1101079E+00
         -2   -1    0    0    0  501 -0.00000000000E+00  0.00000000000E+00  0.65165489243E+01  0.65165489243E+01  0.00000000000E+00 0.  1.
          2   -1    0    0  501    0  0.00000000000E+00 -0.00000000000E+00 -0.28039825343E+04  0.28039825343E+04  0.00000000000E+00 0.  1.
         25    1    1    2    0    0  0.54017736034E+02  0.13923158497E+02 -0.16854226774E+04  0.16906097632E+04  0.12000000000E+03 0.  0.
         25    1    1    2    0    0 -0.54017736034E+02 -0.13923158497E+02 -0.11120433080E+04  0.11198893200E+04  0.12000000000E+03 0.  0.
<mgrwt>
<rscale>  0 0.27035006E+03</rscale>
<asrwt>0</asrwt>
<pdfrwt beam="1">  1        2 0.43138088E+00 0.27035006E+03</pdfrwt>
<pdfrwt beam="2">  1       -2 0.10025484E-02 0.27035006E+03</pdfrwt>
<totfact> 0.57583148E+03</totfact>
</mgrwt>
</event>
<event>
 4    1  0.1777979E-004  0.2865090E+03  0.7818608E-02  0.1092186E+00
         -1   -1    0    0    0  501 -0.00000000000E+00  0.00000000000E+00  0.59279843060E+02  0.59279843060E+02  0.00000000000E+00 0. -1.
          1   -1    0    0  501    0  0.00000000000E+00 -0.00000000000E+00 -0.34618594751E+03  0.34618594751E+03  0.00000000000E+00 0. -1.
         25    1    1    2    0    0 -0.44177186136E+02 -0.52089160478E+02 -0.89435183431E+02  0.16451004969E+03  0.12000000000E+03 0.  0.
         25    1    1    2    0    0  0.44177186136E+02  0.52089160478E+02 -0.19747092102E+03  0.24095574088E+03  0.12000000000E+03 0.  0.
<mgrwt>
<rscale>  0 0.28650898E+03</rscale>
<asrwt>0</asrwt>
<pdfrwt beam="1">  1        1 0.53259376E-01 0.28650898E+03</pdfrwt>
<pdfrwt beam="2">  1       -1 0.91199760E-02 0.28650898E+03</pdfrwt>
<totfact> 0.51119879E+03</totfact>
</mgrwt>
</event>
<event>
 4    1  0.1777979E-004  0.3175192E+03  0.7818608E-02  0.1076797E+00
          2   -1    0    0  501    0  0.00000000000E+00  0.00000000000E+00  0.47334423405E+02  0.47334423405E+02  0.00000000000E+00 0.  1.
         -2   -1    0    0    0  501 -0.00000000000E+00 -0.00000000000E+00 -0.53247964847E+03  0.53247964847E+03  0.00000000000E+00 0.  1.
         25    1    1    2    0    0  0.68634138547E+02 -0.37992507599E+02 -0.11804362226E+03  0.18571045303E+03  0.12000000000E+03 0.  0.
         25    1    1    2    0    0 -0.68634138547E+02  0.37992507599E+02 -0.36710160280E+03  0.39410361884E+03  0.12000000000E+03 0.  0.
<mgrwt>
<rscale>  0 0.31751924E+03</rscale>
<asrwt>0</asrwt>
<pdfrwt beam="1">  1        2 0.72822189E-02 0.31751924E+03</pdfrwt>
<pdfrwt beam="2">  1       -2 0.81919947E-01 0.31751924E+03</pdfrwt>
<totfact> 0.13012006E+03</totfact>
</mgrwt>
</event>
<event>
 4    1  0.1777979E-004  0.3028055E+03  0.7818608E-02  0.1083847E+00
          2   -1    0    0  501    0  0.00000000000E+00  0.00000000000E+00  0.25818890705E+04  0.25818890705E+04  0.00000000000E+00 0. -1.
         -2   -1    0    0    0  501 -0.00000000000E+00 -0.00000000000E+00 -0.88783016999E+01  0.88783016999E+01  0.00000000000E+00 0. -1.
         25    1    1    2    0    0  0.26398951118E+02  0.86827155130E+02  0.14314336666E+04  0.14393186588E+04  0.12000000000E+03 0.  0.
         25    1    1    2    0    0 -0.26398951118E+02 -0.86827155130E+02  0.11415771022E+04  0.11514487135E+04  0.12000000000E+03 0.  0.
<mgrwt>
<rscale>  0 0.30280548E+03</rscale>
<asrwt>0</asrwt>
<pdfrwt beam="1">  1        2 0.39721310E+00 0.30280548E+03</pdfrwt>
<pdfrwt beam="2">  1       -2 0.13658946E-02 0.30280548E+03</pdfrwt>
<totfact> 0.48867572E+03</totfact>
</mgrwt>
</event>
<event>
 4    1  0.1777979E-004  0.3966086E+03  0.7818608E-02  0.1044960E+00
          2   -1    0    0  501    0  0.00000000000E+00  0.00000000000E+00  0.88829027448E+03  0.88829027448E+03  0.00000000000E+00 0.  1.
         -2   -1    0    0    0  501 -0.00000000000E+00 -0.00000000000E+00 -0.44269982352E+02  0.44269982352E+02  0.00000000000E+00 0.  1.
         25    1    1    2    0    0 -0.11923951369E+02  0.15163524435E+03  0.32255203693E+03  0.37626485947E+03  0.12000000000E+03 0.  0.
         25    1    1    2    0    0  0.11923951369E+02 -0.15163524435E+03  0.52146825520E+03  0.55629539736E+03  0.12000000000E+03 0.  0.
<mgrwt>
<rscale>  0 0.39660860E+03</rscale>
<asrwt>0</asrwt>
<pdfrwt beam="1">  1        2 0.13666003E+00 0.39660860E+03</pdfrwt>
<pdfrwt beam="2">  1       -2 0.68107672E-02 0.39660860E+03</pdfrwt>
<totfact> 0.37783319E+03</totfact>
</mgrwt>
</event>
<event>
 4    1  0.1777979E-004  0.3516729E+03  0.7818608E-02  0.1061931E+00
         -4   -1    0    0    0  501 -0.00000000000E+00  0.00000000000E+00  0.26476811967E+03  0.26476811967E+03  0.00000000000E+00 0.  1.
          4   -1    0    0  501    0  0.00000000000E+00 -0.00000000000E+00 -0.11677557687E+03  0.11677557687E+03  0.00000000000E+00 0.  1.
         25    1    1    2    0    0 -0.18001082783E+02 -0.97415307665E+01  0.21165755269E+03  0.24416768012E+03  0.12000000000E+03 0.  0.
         25    1    1    2    0    0  0.18001082783E+02  0.97415307665E+01 -0.63665009889E+02  0.13737601642E+03  0.12000000000E+03 0.  0.
<mgrwt>
<rscale>  0 0.35167286E+03</rscale>
<asrwt>0</asrwt>
<pdfrwt beam="1">  1        4 0.17965473E-01 0.35167286E+03</pdfrwt>
<pdfrwt beam="2">  1       -4 0.40733557E-01 0.35167286E+03</pdfrwt>
<totfact> 0.30902983E+02</totfact>
</mgrwt>
</event>
<event>
 4    1  0.1777979E-004  0.3199878E+03  0.7818608E-02  0.1075655E+00
          2   -1    0    0  501    0  0.00000000000E+00  0.00000000000E+00  0.17932916514E+04  0.17932916514E+04  0.00000000000E+00 0. -1.
         -2   -1    0    0    0  501 -0.00000000000E+00 -0.00000000000E+00 -0.14274334590E+02  0.14274334590E+02  0.00000000000E+00 0. -1.
         25    1    1    2    0    0  0.47263949070E+02  0.94304548936E+02  0.84197216648E+03  0.85699729168E+03  0.12000000000E+03 0.  0.
         25    1    1    2    0    0 -0.47263949070E+02 -0.94304548936E+02  0.93704515035E+03  0.95056869432E+03  0.12000000000E+03 0.  0.
<mgrwt>
<rscale>  0 0.31998778E+03</rscale>
<asrwt>0</asrwt>
<pdfrwt beam="1">  1        2 0.27589084E+00 0.31998778E+03</pdfrwt>
<pdfrwt beam="2">  1       -2 0.21960529E-02 0.31998778E+03</pdfrwt>
<totfact> 0.64325207E+03</totfact>
</mgrwt>
</event>
<event>
 4    1  0.1777979E-004  0.2642450E+03  0.7818608E-02  0.1104619E+00
         -2   -1    0    0    0  501 -0.00000000000E+00  0.00000000000E+00  0.76801661361E+01  0.76801661361E+01  0.00000000000E+00 0. -1.
          2   -1    0    0  501    0  0.00000000000E+00 -0.00000000000E+00 -0.22729131894E+04  0.22729131894E+04  0.00000000000E+00 0. -1.
         25    1    1    2    0    0  0.21759741556E+02 -0.48498390232E+02 -0.12637251963E+04  0.12705223146E+04  0.12000000000E+03 0.  0.
         25    1    1    2    0    0 -0.21759741556E+02  0.48498390232E+02 -0.10015078269E+04  0.10100710409E+04  0.12000000000E+03 0.  0.
<mgrwt>
<rscale>  0 0.26424497E+03</rscale>
<asrwt>0</asrwt>
<pdfrwt beam="1">  1        2 0.34967913E+00 0.26424497E+03</pdfrwt>
<pdfrwt beam="2">  1       -2 0.11815634E-02 0.26424497E+03</pdfrwt>
<totfact> 0.88988118E+03</totfact>
</mgrwt>
</event>
<event>
 4    1  0.1777979E-004  0.2674286E+03  0.7818608E-02  0.1102760E+00
          2   -1    0    0  501    0  0.00000000000E+00  0.00000000000E+00  0.14182447453E+02  0.14182447453E+02  0.00000000000E+00 0. -1.
         -2   -1    0    0    0  501 -0.00000000000E+00 -0.00000000000E+00 -0.12606792139E+04  0.12606792139E+04  0.00000000000E+00 0. -1.
         25    1    1    2    0    0 -0.30415236545E+02 -0.41686575321E+02 -0.75947930486E+03  0.77063069734E+03  0.12000000000E+03 0.  0.
         25    1    1    2    0    0  0.30415236545E+02  0.41686575321E+02 -0.48701746157E+03  0.50423096399E+03  0.12000000000E+03 0.  0.
<mgrwt>
<rscale>  0 0.26742862E+03</rscale>
<asrwt>0</asrwt>
<pdfrwt beam="1">  1        2 0.21819151E-02 0.26742862E+03</pdfrwt>
<pdfrwt beam="2">  1       -2 0.19395063E+00 0.26742862E+03</pdfrwt>
<totfact> 0.76476692E+02</totfact>
</mgrwt>
</event>
<event>
 4    1  0.1777979E-004  0.3134410E+03  0.7818608E-02  0.1078708E+00
         -2   -1    0    0    0  501 -0.00000000000E+00  0.00000000000E+00  0.50670811702E+02  0.50670811702E+02  0.00000000000E+00 0.  1.
          2   -1    0    0  501    0  0.00000000000E+00 -0.00000000000E+00 -0.48472300972E+03  0.48472300972E+03  0.00000000000E+00 0.  1.
         25    1    1    2    0    0 -0.98658386990E+02  0.17918530519E+02 -0.23467494803E+03  0.28200511040E+03  0.12000000000E+03 0.  0.
         25    1    1    2    0    0  0.98658386990E+02 -0.17918530519E+02 -0.19937724998E+03  0.25338871102E+03  0.12000000000E+03 0.  0.
<mgrwt>
<rscale>  0 0.31344096E+03</rscale>
<asrwt>0</asrwt>
<pdfrwt beam="1">  1        2 0.74572768E-01 0.31344096E+03</pdfrwt>
<pdfrwt beam="2">  1       -2 0.77955097E-02 0.31344096E+03</pdfrwt>
<totfact> 0.63502308E+03</totfact>
</mgrwt>
</event>
<event>
 4    1  0.1777979E-004  0.2570047E+03  0.7818608E-02  0.1108956E+00
          2   -1    0    0  501    0  0.00000000000E+00  0.00000000000E+00  0.13327167689E+02  0.13327167689E+02  0.00000000000E+00 0. -1.
         -2   -1    0    0    0  501 -0.00000000000E+00 -0.00000000000E+00 -0.12390368051E+04  0.12390368051E+04  0.00000000000E+00 0. -1.
         25    1    1    2    0    0  0.14302978369E+02  0.11349942008E+02 -0.40729746024E+03  0.42499954999E+03  0.12000000000E+03 0.  0.
         25    1    1    2    0    0 -0.14302978369E+02 -0.11349942008E+02 -0.81841217722E+03  0.82736442285E+03  0.12000000000E+03 0.  0.
<mgrwt>
<rscale>  0 0.25700468E+03</rscale>
<asrwt>0</asrwt>
<pdfrwt beam="1">  1        2 0.20503331E-02 0.25700468E+03</pdfrwt>
<pdfrwt beam="2">  1       -2 0.19062109E+00 0.25700468E+03</pdfrwt>
<totfact> 0.87476383E+02</totfact>
</mgrwt>
</event>
<event>
 4    1  0.1777979E-004  0.2418311E+03  0.7818608E-02  0.1118579E+00
          2   -1    0    0  501    0  0.00000000000E+00  0.00000000000E+00  0.10185504834E+04  0.10185504834E+04  0.00000000000E+00 0. -1.
         -2   -1    0    0    0  501 -0.00000000000E+00 -0.00000000000E+00 -0.14354295371E+02  0.14354295371E+02  0.00000000000E+00 0. -1.
         25    1    1    2    0    0 -0.28051345541E+01  0.11433184756E+02  0.46342372766E+03  0.47885293969E+03  0.12000000000E+03 0.  0.
         25    1    1    2    0    0  0.28051345541E+01 -0.11433184756E+02  0.54077246039E+03  0.55405183910E+03  0.12000000000E+03 0.  0.
<mgrwt>
<rscale>  0 0.24183114E+03</rscale>
<asrwt>0</asrwt>
<pdfrwt beam="1">  1        2 0.15670002E+00 0.24183114E+03</pdfrwt>
<pdfrwt beam="2">  1       -2 0.22083539E-02 0.24183114E+03</pdfrwt>
<totfact> 0.16928828E+04</totfact>
</mgrwt>
</event>
<event>
 4    1  0.1777979E-004  0.2715753E+03  0.7818608E-02  0.1100381E+00
         -2   -1    0    0    0  501 -0.00000000000E+00  0.00000000000E+00  0.24449793320E+02  0.24449793320E+02  0.00000000000E+00 0.  1.
          2   -1    0    0  501    0  0.00000000000E+00 -0.00000000000E+00 -0.75412831387E+03  0.75412831387E+03  0.00000000000E+00 0.  1.
         25    1    1    2    0    0  0.92704804723E+01  0.41116051362E+02 -0.22849400638E+03  0.26150713650E+03  0.12000000000E+03 0.  0.
         25    1    1    2    0    0 -0.92704804723E+01 -0.41116051362E+02 -0.50118451417E+03  0.51707097069E+03  0.12000000000E+03 0.  0.
<mgrwt>
<rscale>  0 0.27157527E+03</rscale>
<asrwt>0</asrwt>
<pdfrwt beam="1">  1        2 0.11601973E+00 0.27157527E+03</pdfrwt>
<pdfrwt beam="2">  1       -2 0.37615070E-02 0.27157527E+03</pdfrwt>
<totfact> 0.11482101E+04</totfact>
</mgrwt>
</event>
<event>
 4    1  0.1777979E-004  0.3999033E+03  0.7818608E-02  0.1043813E+00
         -1   -1    0    0    0  501 -0.00000000000E+00  0.00000000000E+00  0.16784748289E+02  0.16784748289E+02  0.00000000000E+00 0.  1.
          1   -1    0    0  501    0  0.00000000000E+00 -0.00000000000E+00 -0.23819633218E+04  0.23819633218E+04  0.00000000000E+00 0.  1.
         25    1    1    2    0    0  0.55498722708E+02  0.13844543523E+03 -0.15289063819E+04  0.15408445644E+04  0.12000000000E+03 0.  0.
         25    1    1    2    0    0 -0.55498722708E+02 -0.13844543523E+03 -0.83627219158E+03  0.85790350574E+03  0.12000000000E+03 0.  0.
<mgrwt>
<rscale>  0 0.39990326E+03</rscale>
<asrwt>0</asrwt>
<pdfrwt beam="1">  1        1 0.36645561E+00 0.39990326E+03</pdfrwt>
<pdfrwt beam="2">  1       -1 0.25822710E-02 0.39990326E+03</pdfrwt>
<totfact> 0.88193831E+02</totfact>
</mgrwt>
</event>
<event>
 4    1  0.1777979E-004  0.2790056E+03  0.7818608E-02  0.1096233E+00
         -2   -1    0    0    0  501 -0.00000000000E+00  0.00000000000E+00  0.24100312158E+02  0.24100312158E+02  0.00000000000E+00 0. -1.
          2   -1    0    0  501    0  0.00000000000E+00 -0.00000000000E+00 -0.80750142653E+03  0.80750142653E+03  0.00000000000E+00 0. -1.
         25    1    1    2    0    0  0.26783460797E+02 -0.50834905813E+02 -0.26667568142E+03  0.29802258384E+03  0.12000000000E+03 0.  0.
         25    1    1    2    0    0 -0.26783460797E+02  0.50834905813E+02 -0.51672543295E+03  0.53357915484E+03  0.12000000000E+03 0.  0.
<mgrwt>
<rscale>  0 0.27900564E+03</rscale>
<asrwt>0</asrwt>
<pdfrwt beam="1">  1        2 0.12423098E+00 0.27900564E+03</pdfrwt>
<pdfrwt beam="2">  1       -2 0.37077407E-02 0.27900564E+03</pdfrwt>
<totfact> 0.10773770E+04</totfact>
</mgrwt>
</event>
<event>
 4    1  0.1777979E-004  0.2406211E+03  0.7818608E-02  0.1119380E+00
         -2   -1    0    0    0  501 -0.00000000000E+00  0.00000000000E+00  0.25317761114E+02  0.25317761114E+02  0.00000000000E+00 0. -1.
          2   -1    0    0  501    0  0.00000000000E+00 -0.00000000000E+00 -0.57171840878E+03  0.57171840878E+03  0.00000000000E+00 0. -1.
         25    1    1    2    0    0  0.82014052451E+01  0.44376915185E+00 -0.27984433091E+03  0.30459860394E+03  0.12000000000E+03 0.  0.
         25    1    1    2    0    0 -0.82014052451E+01 -0.44376915185E+00 -0.26655631675E+03  0.29243756595E+03  0.12000000000E+03 0.  0.
<mgrwt>
<rscale>  0 0.24062111E+03</rscale>
<asrwt>0</asrwt>
<pdfrwt beam="1">  1        2 0.87956685E-01 0.24062111E+03</pdfrwt>
<pdfrwt beam="2">  1       -2 0.38950399E-02 0.24062111E+03</pdfrwt>
<totfact> 0.15068830E+04</totfact>
</mgrwt>
</event>
<event>
 4    1  0.1777979E-004  0.4888648E+03  0.7818608E-02  0.1016727E+00
          1   -1    0    0  501    0  0.00000000000E+00  0.00000000000E+00  0.10881378109E+04  0.10881378109E+04  0.00000000000E+00 0.  1.
         -1   -1    0    0    0  501 -0.00000000000E+00 -0.00000000000E+00 -0.54907741957E+02  0.54907741957E+02  0.00000000000E+00 0.  1.
         25    1    1    2    0    0 -0.67294482057E+02 -0.19137651006E+03  0.66803116534E+03  0.70839194927E+03  0.12000000000E+03 0.  0.
         25    1    1    2    0    0  0.67294482057E+02  0.19137651006E+03  0.36519890358E+03  0.43465360357E+03  0.12000000000E+03 0.  0.
<mgrwt>
<rscale>  0 0.48886477E+03</rscale>
<asrwt>0</asrwt>
<pdfrwt beam="1">  1        1 0.16740580E+00 0.48886477E+03</pdfrwt>
<pdfrwt beam="2">  1       -1 0.84473457E-02 0.48886477E+03</pdfrwt>
<totfact> 0.10832189E+03</totfact>
</mgrwt>
</event>
<event>
 4    1  0.1777979E-004  0.3370688E+03  0.7818608E-02  0.1068051E+00
          2   -1    0    0  501    0  0.00000000000E+00  0.00000000000E+00  0.53391936421E+02  0.53391936421E+02  0.00000000000E+00 0.  1.
         -2   -1    0    0    0  501 -0.00000000000E+00 -0.00000000000E+00 -0.53198753056E+03  0.53198753056E+03  0.00000000000E+00 0.  1.
         25    1    1    2    0    0 -0.40961029597E+02  0.10104971787E+03 -0.31916590423E+03  0.35798844374E+03  0.12000000000E+03 0.  0.
         25    1    1    2    0    0  0.40961029597E+02 -0.10104971787E+03 -0.15942968991E+03  0.22739102324E+03  0.12000000000E+03 0.  0.
<mgrwt>
<rscale>  0 0.33706880E+03</rscale>
<asrwt>0</asrwt>
<pdfrwt beam="1">  1        2 0.82141434E-02 0.33706880E+03</pdfrwt>
<pdfrwt beam="2">  1       -2 0.81844242E-01 0.33706880E+03</pdfrwt>
<totfact> 0.11184343E+03</totfact>
</mgrwt>
</event>
<event>
 4    1  0.1777979E-004  0.2865617E+03  0.7818608E-02  0.1092158E+00
         -2   -1    0    0    0  501 -0.00000000000E+00  0.00000000000E+00  0.35764378200E+02  0.35764378200E+02  0.00000000000E+00 0.  1.
          2   -1    0    0  501    0  0.00000000000E+00 -0.00000000000E+00 -0.57401800755E+03  0.57401800755E+03  0.00000000000E+00 0.  1.
         25    1    1    2    0    0  0.33806155688E+02 -0.70515557542E+02 -0.27711635206E+03  0.31194354072E+03  0.12000000000E+03 0.  0.
         25    1    1    2    0    0 -0.33806155688E+02  0.70515557542E+02 -0.26113727729E+03  0.29783884503E+03  0.12000000000E+03 0.  0.
<mgrwt>
<rscale>  0 0.28656167E+03</rscale>
<asrwt>0</asrwt>
<pdfrwt beam="1">  1        2 0.88310453E-01 0.28656167E+03</pdfrwt>
<pdfrwt beam="2">  1       -2 0.55022126E-02 0.28656167E+03</pdfrwt>
<totfact> 0.89592338E+03</totfact>
</mgrwt>
</event>
<event>
 4    1  0.1777979E-004  0.2498112E+03  0.7818608E-02  0.1113424E+00
          2   -1    0    0  501    0  0.00000000000E+00  0.00000000000E+00  0.50173963713E+03  0.50173963713E+03  0.00000000000E+00 0. -1.
         -2   -1    0    0    0  501 -0.00000000000E+00 -0.00000000000E+00 -0.31094624773E+02  0.31094624773E+02  0.00000000000E+00 0. -1.
         25    1    1    2    0    0 -0.32921063504E+02 -0.69211732926E+00  0.21223830172E+03  0.24602717770E+03  0.12000000000E+03 0.  0.
         25    1    1    2    0    0  0.32921063504E+02  0.69211732926E+00  0.25840671064E+03  0.28680708421E+03  0.12000000000E+03 0.  0.
<mgrwt>
<rscale>  0 0.24981117E+03</rscale>
<asrwt>0</asrwt>
<pdfrwt beam="1">  1        2 0.77190708E-01 0.24981117E+03</pdfrwt>
<pdfrwt beam="2">  1       -2 0.47837888E-02 0.24981117E+03</pdfrwt>
<totfact> 0.12837536E+04</totfact>
</mgrwt>
</event>
<event>
 4    1  0.1777979E-004  0.2986306E+03  0.7818608E-02  0.1085927E+00
         -2   -1    0    0    0  501 -0.00000000000E+00  0.00000000000E+00  0.13346249651E+02  0.13346249651E+02  0.00000000000E+00 0. -1.
          2   -1    0    0  501    0  0.00000000000E+00 -0.00000000000E+00 -0.16705115291E+04  0.16705115291E+04  0.00000000000E+00 0. -1.
         25    1    1    2    0    0  0.33307539555E+02  0.68470752706E+02 -0.57034796608E+03  0.58778774960E+03  0.12000000000E+03 0.  0.
         25    1    1    2    0    0 -0.33307539555E+02 -0.68470752706E+02 -0.10868173134E+04  0.10960700292E+04  0.12000000000E+03 0.  0.
<mgrwt>
<rscale>  0 0.29863063E+03</rscale>
<asrwt>0</asrwt>
<pdfrwt beam="1">  1        2 0.25700176E+00 0.29863063E+03</pdfrwt>
<pdfrwt beam="2">  1       -2 0.20532693E-02 0.29863063E+03</pdfrwt>
<totfact> 0.82458797E+03</totfact>
</mgrwt>
</event>
<event>
 4    1  0.1777979E-004  0.3189826E+03  0.7818608E-02  0.1076118E+00
         -2   -1    0    0    0  501 -0.00000000000E+00  0.00000000000E+00  0.33551721227E+03  0.33551721227E+03  0.00000000000E+00 0. -1.
          2   -1    0    0  501    0  0.00000000000E+00 -0.00000000000E+00 -0.75815710176E+02  0.75815710176E+02  0.00000000000E+00 0. -1.
         25    1    1    2    0    0  0.13878678975E+02 -0.95687397354E+02  0.76858422222E+02  0.17220892198E+03  0.12000000000E+03 0.  0.
         25    1    1    2    0    0 -0.13878678975E+02  0.95687397354E+02  0.18284307987E+03  0.23912400047E+03  0.12000000000E+03 0.  0.
<mgrwt>
<rscale>  0 0.31898261E+03</rscale>
<asrwt>0</asrwt>
<pdfrwt beam="1">  1        2 0.11663956E-01 0.31898261E+03</pdfrwt>
<pdfrwt beam="2">  1       -2 0.51618032E-01 0.31898261E+03</pdfrwt>
<totfact> 0.19111446E+03</totfact>
</mgrwt>
</event>
<event>
 4    1  0.1777979E-004  0.2643903E+03  0.7818608E-02  0.1104534E+00
         -2   -1    0    0    0  501 -0.00000000000E+00  0.00000000000E+00  0.13226563200E+02  0.13226563200E+02  0.00000000000E+00 0. -1.
          2   -1    0    0  501    0  0.00000000000E+00 -0.00000000000E+00 -0.13212470380E+04  0.13212470380E+04  0.00000000000E+00 0. -1.
         25    1    1    2    0    0 -0.55838023678E-01  0.27270904594E+02 -0.41027687912E+03  0.42833494242E+03  0.12000000000E+03 0.  0.
         25    1    1    2    0    0  0.55838023678E-01 -0.27270904594E+02 -0.89774359569E+03  0.90613865879E+03  0.12000000000E+03 0.  0.
<mgrwt>
<rscale>  0 0.26439030E+03</rscale>
<asrwt>0</asrwt>
<pdfrwt beam="1">  1        2 0.20326887E+00 0.26439030E+03</pdfrwt>
<pdfrwt beam="2">  1       -2 0.20348550E-02 0.26439030E+03</pdfrwt>
<totfact> 0.12842107E+04</totfact>
</mgrwt>
</event>
<event>
 4    1  0.1777979E-004  0.2559516E+03  0.7818608E-02  0.1109600E+00
         -1   -1    0    0    0  501 -0.00000000000E+00  0.00000000000E+00  0.18140076221E+02  0.18140076221E+02  0.00000000000E+00 0. -1.
          1   -1    0    0  501    0  0.00000000000E+00 -0.00000000000E+00 -0.90285177008E+03  0.90285177008E+03  0.00000000000E+00 0. -1.
         25    1    1    2    0    0 -0.23761701110E+02 -0.23293986601E+02 -0.54852546992E+03  0.56248326145E+03  0.12000000000E+03 0.  0.
         25    1    1    2    0    0  0.23761701110E+02  0.23293986601E+02 -0.33618622394E+03  0.35850858486E+03  0.12000000000E+03 0.  0.
<mgrwt>
<rscale>  0 0.25595156E+03</rscale>
<asrwt>0</asrwt>
<pdfrwt beam="1">  1        1 0.13890025E+00 0.25595156E+03</pdfrwt>
<pdfrwt beam="2">  1       -1 0.27907815E-02 0.25595156E+03</pdfrwt>
<totfact> 0.79433067E+03</totfact>
</mgrwt>
</event>
<event>
 4    1  0.1777979E-004  0.2413571E+03  0.7818608E-02  0.1118892E+00
          3   -1    0    0  501    0  0.00000000000E+00  0.00000000000E+00  0.44027753201E+02  0.44027753201E+02  0.00000000000E+00 0. -1.
         -3   -1    0    0    0  501 -0.00000000000E+00 -0.00000000000E+00 -0.33077575708E+03  0.33077575708E+03  0.00000000000E+00 0. -1.
         25    1    1    2    0    0 -0.37604852228E+01 -0.12195133625E+02 -0.14233128507E+03  0.18660401186E+03  0.12000000000E+03 0.  0.
         25    1    1    2    0    0  0.37604852228E+01  0.12195133625E+02 -0.14441671881E+03  0.18819949842E+03  0.12000000000E+03 0.  0.
<mgrwt>
<rscale>  0 0.24135711E+03</rscale>
<asrwt>0</asrwt>
<pdfrwt beam="1">  1        3 0.67735006E-02 0.24135711E+03</pdfrwt>
<pdfrwt beam="2">  1       -3 0.50888577E-01 0.24135711E+03</pdfrwt>
<totfact> 0.13524038E+03</totfact>
</mgrwt>
</event>
<event>
 4    1  0.1777979E-004  0.3076506E+03  0.7818608E-02  0.1081477E+00
         -2   -1    0    0    0  501 -0.00000000000E+00  0.00000000000E+00  0.19700315871E+02  0.19700315871E+02  0.00000000000E+00 0. -1.
          2   -1    0    0  501    0  0.00000000000E+00 -0.00000000000E+00 -0.12011088368E+04  0.12011088368E+04  0.00000000000E+00 0. -1.
         25    1    1    2    0    0 -0.90561467592E+02  0.17954703222E+02 -0.48286988491E+03  0.50605046837E+03  0.12000000000E+03 0.  0.
         25    1    1    2    0    0  0.90561467592E+02 -0.17954703222E+02 -0.69853863605E+03  0.71475868434E+03  0.12000000000E+03 0.  0.
<mgrwt>
<rscale>  0 0.30765060E+03</rscale>
<asrwt>0</asrwt>
<pdfrwt beam="1">  1        2 0.18478595E+00 0.30765060E+03</pdfrwt>
<pdfrwt beam="2">  1       -2 0.30308182E-02 0.30765060E+03</pdfrwt>
<totfact> 0.83391646E+03</totfact>
</mgrwt>
</event>
<event>
 4    1  0.1777979E-004  0.3570582E+03  0.7818608E-02  0.1059755E+00
          1   -1    0    0  501    0  0.00000000000E+00  0.00000000000E+00  0.67898261282E+03  0.67898261282E+03  0.00000000000E+00 0.  1.
         -1   -1    0    0    0  501 -0.00000000000E+00 -0.00000000000E+00 -0.46941755187E+02  0.46941755187E+02  0.00000000000E+00 0.  1.
         25    1    1    2    0    0 -0.22314334278E+02  0.87214804706E+02  0.51280108878E+03  0.53429327932E+03  0.12000000000E+03 0.  0.
         25    1    1    2    0    0  0.22314334278E+02 -0.87214804706E+02  0.11923976885E+03  0.19163108868E+03  0.12000000000E+03 0.  0.
<mgrwt>
<rscale>  0 0.35705818E+03</rscale>
<asrwt>0</asrwt>
<pdfrwt beam="1">  1        1 0.10445886E+00 0.35705818E+03</pdfrwt>
<pdfrwt beam="2">  1       -1 0.72218090E-02 0.35705818E+03</pdfrwt>
<totfact> 0.29787417E+03</totfact>
</mgrwt>
</event>
<event>
 4    1  0.1777979E-004  0.3737844E+03  0.7818608E-02  0.1053255E+00
         -1   -1    0    0    0  501 -0.00000000000E+00  0.00000000000E+00  0.29106236643E+02  0.29106236643E+02  0.00000000000E+00 0.  1.
          1   -1    0    0  501    0  0.00000000000E+00 -0.00000000000E+00 -0.12000414835E+04  0.12000414835E+04  0.00000000000E+00 0.  1.
         25    1    1    2    0    0 -0.10341643054E+03  0.41028390756E+02 -0.28859338913E+03  0.33175959851E+03  0.12000000000E+03 0.  0.
         25    1    1    2    0    0  0.10341643054E+03 -0.41028390756E+02 -0.88234185776E+03  0.89738812167E+03  0.12000000000E+03 0.  0.
<mgrwt>
<rscale>  0 0.37378438E+03</rscale>
<asrwt>0</asrwt>
<pdfrwt beam="1">  1        1 0.18462176E+00 0.37378438E+03</pdfrwt>
<pdfrwt beam="2">  1       -1 0.44778827E-02 0.37378438E+03</pdfrwt>
<totfact> 0.23806966E+03</totfact>
</mgrwt>
</event>
<event>
 4    1  0.1777979E-004  0.2703148E+03  0.7818608E-02  0.1101100E+00
         -2   -1    0    0    0  501 -0.00000000000E+00  0.00000000000E+00  0.58905253826E+01  0.58905253826E+01  0.00000000000E+00 0.  1.
          2   -1    0    0  501    0  0.00000000000E+00 -0.00000000000E+00 -0.31011711108E+04  0.31011711108E+04  0.00000000000E+00 0.  1.
         25    1    1    2    0    0 -0.56483099479E+02 -0.17131341456E+02 -0.17727934381E+04  0.17778302499E+04  0.12000000000E+03 0.  0.
         25    1    1    2    0    0  0.56483099479E+02  0.17131341456E+02 -0.13224871474E+04  0.13292313863E+04  0.12000000000E+03 0.  0.
<mgrwt>
<rscale>  0 0.27031483E+03</rscale>
<asrwt>0</asrwt>
<pdfrwt beam="1">  1        2 0.47710416E+00 0.27031483E+03</pdfrwt>
<pdfrwt beam="2">  1       -2 0.90623295E-03 0.27031483E+03</pdfrwt>
<totfact> 0.44596658E+03</totfact>
</mgrwt>
</event>
<event>
 4    1  0.1777979E-004  0.2509080E+03  0.7818608E-02  0.1112732E+00
          2   -1    0    0  501    0  0.00000000000E+00  0.00000000000E+00  0.55868184186E+03  0.55868184186E+03  0.00000000000E+00 0. -1.
         -2   -1    0    0    0  501 -0.00000000000E+00 -0.00000000000E+00 -0.28171150623E+02  0.28171150623E+02  0.00000000000E+00 0. -1.
         25    1    1    2    0    0  0.21978995736E+02  0.27739714502E+02  0.24354718650E+03  0.27380248367E+03  0.12000000000E+03 0.  0.
         25    1    1    2    0    0 -0.21978995736E+02 -0.27739714502E+02  0.28696350474E+03  0.31305050881E+03  0.12000000000E+03 0.  0.
<mgrwt>
<rscale>  0 0.25090803E+03</rscale>
<asrwt>0</asrwt>
<pdfrwt beam="1">  1        2 0.85951044E-01 0.25090803E+03</pdfrwt>
<pdfrwt beam="2">  1       -2 0.43340236E-02 0.25090803E+03</pdfrwt>
<totfact> 0.13203637E+04</totfact>
</mgrwt>
</event>
<event>
 4    1  0.1777979E-004  0.2410353E+03  0.7818608E-02  0.1119105E+00
         -2   -1    0    0    0  501 -0.00000000000E+00  0.00000000000E+00  0.10083029264E+03  0.10083029264E+03  0.00000000000E+00 0.  1.
          2   -1    0    0  501    0  0.00000000000E+00 -0.00000000000E+00 -0.14404897382E+03  0.14404897382E+03  0.00000000000E+00 0.  1.
         25    1    1    2    0    0 -0.34515142582E+01 -0.40214108763E+01 -0.11633607417E+02  0.12067901855E+03  0.12000000000E+03 0.  0.
         25    1    1    2    0    0  0.34515142582E+01  0.40214108763E+01 -0.31585073759E+02  0.12420024791E+03  0.12000000000E+03 0.  0.
<mgrwt>
<rscale>  0 0.24103527E+03</rscale>
<asrwt>0</asrwt>
<pdfrwt beam="1">  1        2 0.22161381E-01 0.24103527E+03</pdfrwt>
<pdfrwt beam="2">  1       -2 0.15512353E-01 0.24103527E+03</pdfrwt>
<totfact> 0.78526623E+03</totfact>
</mgrwt>
</event>
<event>
 4    1  0.1777979E-004  0.2828768E+03  0.7818608E-02  0.1094128E+00
         -1   -1    0    0    0  501 -0.00000000000E+00  0.00000000000E+00  0.92531328100E+02  0.92531328100E+02  0.00000000000E+00 0. -1.
          1   -1    0    0  501    0  0.00000000000E+00 -0.00000000000E+00 -0.21619506281E+03  0.21619506281E+03  0.00000000000E+00 0. -1.
         25    1    1    2    0    0 -0.39215323474E+02  0.62408773764E+01 -0.13109826742E+03  0.18210861008E+03  0.12000000000E+03 0.  0.
         25    1    1    2    0    0  0.39215323474E+02 -0.62408773764E+01  0.74345327064E+01  0.12661778083E+03  0.12000000000E+03 0.  0.
<mgrwt>
<rscale>  0 0.28287677E+03</rscale>
<asrwt>0</asrwt>
<pdfrwt beam="1">  1        1 0.33260778E-01 0.28287677E+03</pdfrwt>
<pdfrwt beam="2">  1       -1 0.14235589E-01 0.28287677E+03</pdfrwt>
<totfact> 0.46167912E+03</totfact>
</mgrwt>
</event>
<event>
 4    1  0.1777979E-004  0.2985648E+03  0.7818608E-02  0.1085960E+00
         -1   -1    0    0    0  501 -0.00000000000E+00  0.00000000000E+00  0.13496989932E+02  0.13496989932E+02  0.00000000000E+00 0. -1.
          1   -1    0    0  501    0  0.00000000000E+00 -0.00000000000E+00 -0.16511261320E+04  0.16511261320E+04  0.00000000000E+00 0. -1.
         25    1    1    2    0    0 -0.65346939713E+02 -0.37893737517E+02 -0.10790781632E+04  0.10883546481E+04  0.12000000000E+03 0.  0.
         25    1    1    2    0    0  0.65346939713E+02  0.37893737517E+02 -0.55855097893E+03  0.57626847383E+03  0.12000000000E+03 0.  0.
<mgrwt>
<rscale>  0 0.29856479E+03</rscale>
<asrwt>0</asrwt>
<pdfrwt beam="1">  1        1 0.25401929E+00 0.29856479E+03</pdfrwt>
<pdfrwt beam="2">  1       -1 0.20764609E-02 0.29856479E+03</pdfrwt>
<totfact> 0.36939393E+03</totfact>
</mgrwt>
</event>
<event>
 4    1  0.1777979E-004  0.4382727E+03  0.7818608E-02  0.1031278E+00
         -2   -1    0    0    0  501 -0.00000000000E+00  0.00000000000E+00  0.91777451207E+03  0.91777451207E+03  0.00000000000E+00 0.  1.
          2   -1    0    0  501    0  0.00000000000E+00 -0.00000000000E+00 -0.52323017745E+02  0.52323017745E+02  0.00000000000E+00 0.  1.
         25    1    1    2    0    0 -0.13760563826E+03  0.20558386018E+02  0.16837958942E+03  0.24921806726E+03  0.12000000000E+03 0.  0.
         25    1    1    2    0    0  0.13760563826E+03 -0.20558386018E+02  0.69707190491E+03  0.72087946255E+03  0.12000000000E+03 0.  0.
<mgrwt>
<rscale>  0 0.43827266E+03</rscale>
<asrwt>0</asrwt>
<pdfrwt beam="1">  1        2 0.80496957E-02 0.43827266E+03</pdfrwt>
<pdfrwt beam="2">  1       -2 0.14119607E+00 0.43827266E+03</pdfrwt>
<totfact> 0.31326813E+02</totfact>
</mgrwt>
</event>
<event>
 4    1  0.1777979E-004  0.2855962E+03  0.7818608E-02  0.1092671E+00
         -2   -1    0    0    0  501 -0.00000000000E+00  0.00000000000E+00  0.91849489964E+02  0.91849489964E+02  0.00000000000E+00 0. -1.
          2   -1    0    0  501    0  0.00000000000E+00 -0.00000000000E+00 -0.22200781416E+03  0.22200781416E+03  0.00000000000E+00 0. -1.
         25    1    1    2    0    0  0.66924987888E+02  0.32471009911E+01 -0.22491208033E+02  0.13926719681E+03  0.12000000000E+03 0.  0.
         25    1    1    2    0    0 -0.66924987888E+02 -0.32471009911E+01 -0.10766711616E+03  0.17459010731E+03  0.12000000000E+03 0.  0.
<mgrwt>
<rscale>  0 0.28559625E+03</rscale>
<asrwt>0</asrwt>
<pdfrwt beam="1">  1        2 0.34155048E-01 0.28559625E+03</pdfrwt>
<pdfrwt beam="2">  1       -2 0.14130691E-01 0.28559625E+03</pdfrwt>
<totfact> 0.57131774E+03</totfact>
</mgrwt>
</event>
<event>
 4    1  0.1777979E-004  0.3065721E+03  0.7818608E-02  0.1082001E+00
          3   -1    0    0  501    0  0.00000000000E+00  0.00000000000E+00  0.17443957940E+03  0.17443957940E+03  0.00000000000E+00 0. -1.
         -3   -1    0    0    0  501 -0.00000000000E+00 -0.00000000000E+00 -0.13469768209E+03  0.13469768209E+03  0.00000000000E+00 0. -1.
         25    1    1    2    0    0 -0.33553275176E+01  0.74905220108E+02 -0.39567640197E+02  0.14692735747E+03  0.12000000000E+03 0.  0.
         25    1    1    2    0    0  0.33553275176E+01 -0.74905220108E+02  0.79309537514E+02  0.16220990402E+03  0.12000000000E+03 0.  0.
<mgrwt>
<rscale>  0 0.30657206E+03</rscale>
<asrwt>0</asrwt>
<pdfrwt beam="1">  1        3 0.26836858E-01 0.30657206E+03</pdfrwt>
<pdfrwt beam="2">  1       -3 0.20722720E-01 0.30657206E+03</pdfrwt>
<totfact> 0.71394323E+02</totfact>
</mgrwt>
</event>
<event>
 4    1  0.1777979E-004  0.4337909E+03  0.7818608E-02  0.1032669E+00
         -2   -1    0    0    0  501 -0.00000000000E+00  0.00000000000E+00  0.23791318856E+03  0.23791318856E+03  0.00000000000E+00 0.  1.
          2   -1    0    0  501    0  0.00000000000E+00 -0.00000000000E+00 -0.19773444908E+03  0.19773444908E+03  0.00000000000E+00 0.  1.
         25    1    1    2    0    0 -0.14521529499E+03 -0.71764858615E+02 -0.60290431932E+02  0.21041058199E+03  0.12000000000E+03 0.  0.
         25    1    1    2    0    0  0.14521529499E+03  0.71764858615E+02  0.10046917141E+03  0.22523705565E+03  0.12000000000E+03 0.  0.
<mgrwt>
<rscale>  0 0.43379089E+03</rscale>
<asrwt>0</asrwt>
<pdfrwt beam="1">  1        2 0.30420685E-01 0.43379089E+03</pdfrwt>
<pdfrwt beam="2">  1       -2 0.36602029E-01 0.43379089E+03</pdfrwt>
<totfact> 0.12280287E+03</totfact>
</mgrwt>
</event>
<event>
 4    1  0.1777979E-004  0.2465614E+03  0.7818608E-02  0.1115497E+00
          2   -1    0    0  501    0  0.00000000000E+00  0.00000000000E+00  0.23068242066E+03  0.23068242066E+03  0.00000000000E+00 0. -1.
         -2   -1    0    0    0  501 -0.00000000000E+00 -0.00000000000E+00 -0.65883334847E+02  0.65883334847E+02  0.00000000000E+00 0. -1.
         25    1    1    2    0    0  0.20471516413E+02 -0.15186966895E+02  0.67746992114E+02  0.14014057902E+03  0.12000000000E+03 0.  0.
         25    1    1    2    0    0 -0.20471516413E+02  0.15186966895E+02  0.97052093703E+02  0.15642517649E+03  0.12000000000E+03 0.  0.
<mgrwt>
<rscale>  0 0.24656137E+03</rscale>
<asrwt>0</asrwt>
<pdfrwt beam="1">  1        2 0.35489603E-01 0.24656137E+03</pdfrwt>
<pdfrwt beam="2">  1       -2 0.10135898E-01 0.24656137E+03</pdfrwt>
<totfact> 0.93150626E+03</totfact>
</mgrwt>
</event>
<event>
 4    1  0.1777979E-004  0.2841431E+03  0.7818608E-02  0.1093447E+00
         -1   -1    0    0    0  501 -0.00000000000E+00  0.00000000000E+00  0.29050898659E+02  0.29050898659E+02  0.00000000000E+00 0. -1.
          1   -1    0    0  501    0  0.00000000000E+00 -0.00000000000E+00 -0.69479167545E+03  0.69479167545E+03  0.00000000000E+00 0. -1.
         25    1    1    2    0    0 -0.49272206259E+02 -0.48538088214E+02 -0.25228747190E+03  0.28780664481E+03  0.12000000000E+03 0.  0.
         25    1    1    2    0    0  0.49272206259E+02  0.48538088214E+02 -0.41345330489E+03  0.43603592930E+03  0.12000000000E+03 0.  0.
<mgrwt>
<rscale>  0 0.28414308E+03</rscale>
<asrwt>0</asrwt>
<pdfrwt beam="1">  1        1 0.10689102E+00 0.28414308E+03</pdfrwt>
<pdfrwt beam="2">  1       -1 0.44693695E-02 0.28414308E+03</pdfrwt>
<totfact> 0.59276403E+03</totfact>
</mgrwt>
</event>
<event>
 4    1  0.1777979E-004  0.3242905E+03  0.7818608E-02  0.1073691E+00
         -2   -1    0    0    0  501 -0.00000000000E+00  0.00000000000E+00  0.15271270486E+03  0.15271270486E+03  0.00000000000E+00 0.  1.
          2   -1    0    0  501    0  0.00000000000E+00 -0.00000000000E+00 -0.17216038231E+03  0.17216038231E+03  0.00000000000E+00 0.  1.
         25    1    1    2    0    0  0.40772437162E+02  0.90444792412E+02 -0.55064686623E+02  0.16515075483E+03  0.12000000000E+03 0.  0.
         25    1    1    2    0    0 -0.40772437162E+02 -0.90444792412E+02  0.35617009179E+02  0.15972233234E+03  0.12000000000E+03 0.  0.
<mgrwt>
<rscale>  0 0.32429047E+03</rscale>
<asrwt>0</asrwt>
<pdfrwt beam="1">  1        2 0.26486213E-01 0.32429047E+03</pdfrwt>
<pdfrwt beam="2">  1       -2 0.23494262E-01 0.32429047E+03</pdfrwt>
<totfact> 0.32034053E+03</totfact>
</mgrwt>
</event>
<event>
 4    1  0.1777979E-004  0.3214432E+03  0.7818608E-02  0.1074987E+00
         -2   -1    0    0    0  501 -0.00000000000E+00  0.00000000000E+00  0.37250884899E+03  0.37250884899E+03  0.00000000000E+00 0.  1.
          2   -1    0    0  501    0  0.00000000000E+00 -0.00000000000E+00 -0.69344489564E+02  0.69344489564E+02  0.00000000000E+00 0.  1.
         25    1    1    2    0    0  0.81791689903E+02  0.68745930339E+02  0.14616124471E+03  0.21720725801E+03  0.12000000000E+03 0.  0.
         25    1    1    2    0    0 -0.81791689903E+02 -0.68745930339E+02  0.15700311472E+03  0.22464608055E+03  0.12000000000E+03 0.  0.
<mgrwt>
<rscale>  0 0.32144322E+03</rscale>
<asrwt>0</asrwt>
<pdfrwt beam="1">  1        2 0.10668383E-01 0.32144322E+03</pdfrwt>
<pdfrwt beam="2">  1       -2 0.57309052E-01 0.32144322E+03</pdfrwt>
<totfact> 0.17244266E+03</totfact>
</mgrwt>
</event>
<event>
 4    1  0.1777979E-004  0.3775010E+03  0.7818608E-02  0.1051861E+00
         -1   -1    0    0    0  501 -0.00000000000E+00  0.00000000000E+00  0.33359706901E+03  0.33359706901E+03  0.00000000000E+00 0. -1.
          1   -1    0    0  501    0  0.00000000000E+00 -0.00000000000E+00 -0.10679577683E+03  0.10679577683E+03  0.00000000000E+00 0. -1.
         25    1    1    2    0    0 -0.10359747561E+03 -0.99260052185E+02  0.83847105458E+02  0.20497641817E+03  0.12000000000E+03 0.  0.
         25    1    1    2    0    0  0.10359747561E+03  0.99260052185E+02  0.14295418672E+03  0.23541642766E+03  0.12000000000E+03 0.  0.
<mgrwt>
<rscale>  0 0.37750104E+03</rscale>
<asrwt>0</asrwt>
<pdfrwt beam="1">  1        1 0.16430120E-01 0.37750104E+03</pdfrwt>
<pdfrwt beam="2">  1       -1 0.51322626E-01 0.37750104E+03</pdfrwt>
<totfact> 0.12981913E+03</totfact>
</mgrwt>
</event>
<event>
 4    1  0.1777979E-004  0.2537850E+03  0.7818608E-02  0.1110936E+00
         -1   -1    0    0    0  501 -0.00000000000E+00  0.00000000000E+00  0.53359044088E+02  0.53359044088E+02  0.00000000000E+00 0.  1.
          1   -1    0    0  501    0  0.00000000000E+00 -0.00000000000E+00 -0.30176157092E+03  0.30176157092E+03  0.00000000000E+00 0.  1.
         25    1    1    2    0    0  0.35455640993E+02  0.20720876884E+02 -0.12966600634E+03  0.18138282834E+03  0.12000000000E+03 0.  0.
         25    1    1    2    0    0 -0.35455640993E+02 -0.20720876884E+02 -0.11873652049E+03  0.17373778666E+03  0.12000000000E+03 0.  0.
<mgrwt>
<rscale>  0 0.25378502E+03</rscale>
<asrwt>0</asrwt>
<pdfrwt beam="1">  1        1 0.46424857E-01 0.25378502E+03</pdfrwt>
<pdfrwt beam="2">  1       -1 0.82090838E-02 0.25378502E+03</pdfrwt>
<totfact> 0.71137448E+03</totfact>
</mgrwt>
</event>
<event>
 4    1  0.1777979E-004  0.2712273E+03  0.7818608E-02  0.1100579E+00
         -1   -1    0    0    0  501 -0.00000000000E+00  0.00000000000E+00  0.91510170152E+03  0.91510170152E+03  0.00000000000E+00 0.  1.
          1   -1    0    0  501    0  0.00000000000E+00 -0.00000000000E+00 -0.20097280417E+02  0.20097280417E+02  0.00000000000E+00 0.  1.
         25    1    1    2    0    0  0.32126538217E+02  0.11421649368E+02  0.26412397333E+03  0.29210279325E+03  0.12000000000E+03 0.  0.
         25    1    1    2    0    0 -0.32126538217E+02 -0.11421649368E+02  0.63088044777E+03  0.64309618869E+03  0.12000000000E+03 0.  0.
<mgrwt>
<rscale>  0 0.27122725E+03</rscale>
<asrwt>0</asrwt>
<pdfrwt beam="1">  1        1 0.30918900E-02 0.27122725E+03</pdfrwt>
<pdfrwt beam="2">  1       -1 0.14078485E+00 0.27122725E+03</pdfrwt>
<totfact> 0.14545803E+03</totfact>
</mgrwt>
</event>
<event>
 4    1  0.1777979E-004  0.2893725E+03  0.7818608E-02  0.1090677E+00
         -1   -1    0    0    0  501 -0.00000000000E+00  0.00000000000E+00  0.74716371875E+01  0.74716371875E+01  0.00000000000E+00 0. -1.
          1   -1    0    0  501    0  0.00000000000E+00 -0.00000000000E+00 -0.28018112906E+04  0.28018112906E+04  0.00000000000E+00 0. -1.
         25    1    1    2    0    0 -0.32142956450E+02  0.46455915943E+02 -0.83587237461E+03  0.84632969250E+03  0.12000000000E+03 0.  0.
         25    1    1    2    0    0  0.32142956450E+02 -0.46455915943E+02 -0.19584672788E+04  0.19629532353E+04  0.12000000000E+03 0.  0.
<mgrwt>
<rscale>  0 0.28937254E+03</rscale>
<asrwt>0</asrwt>
<pdfrwt beam="1">  1        1 0.43104839E+00 0.28937254E+03</pdfrwt>
<pdfrwt beam="2">  1       -1 0.11494813E-02 0.28937254E+03</pdfrwt>
<totfact> 0.15235227E+03</totfact>
</mgrwt>
</event>
<event>
 4    1  0.1777979E-004  0.2459253E+03  0.7818608E-02  0.1115907E+00
         -1   -1    0    0    0  501 -0.00000000000E+00  0.00000000000E+00  0.10805725639E+03  0.10805725639E+03  0.00000000000E+00 0. -1.
          1   -1    0    0  501    0  0.00000000000E+00 -0.00000000000E+00 -0.13992412282E+03  0.13992412282E+03  0.00000000000E+00 0. -1.
         25    1    1    2    0    0 -0.16280214073E+02  0.25683933009E+01  0.54136983737E+01  0.12124747480E+03  0.12000000000E+03 0.  0.
         25    1    1    2    0    0  0.16280214073E+02 -0.25683933009E+01 -0.37280564801E+02  0.12673390441E+03  0.12000000000E+03 0.  0.
<mgrwt>
<rscale>  0 0.24592533E+03</rscale>
<asrwt>0</asrwt>
<pdfrwt beam="1">  1        1 0.21526788E-01 0.24592533E+03</pdfrwt>
<pdfrwt beam="2">  1       -1 0.16624193E-01 0.24592533E+03</pdfrwt>
<totfact> 0.62338940E+03</totfact>
</mgrwt>
</event>
<event>
 4    1  0.1777979E-004  0.4238753E+03  0.7818608E-02  0.1035812E+00
          2   -1    0    0  501    0  0.00000000000E+00  0.00000000000E+00  0.72320051877E+03  0.72320051877E+03  0.00000000000E+00 0. -1.
         -2   -1    0    0    0  501 -0.00000000000E+00 -0.00000000000E+00 -0.62109435020E+02  0.62109435020E+02  0.00000000000E+00 0. -1.
         25    1    1    2    0    0 -0.92948424847E+02  0.12186146241E+03  0.17522915397E+03  0.26190624678E+03  0.12000000000E+03 0.  0.
         25    1    1    2    0    0  0.92948424847E+02 -0.12186146241E+03  0.48586192977E+03  0.52340370700E+03  0.12000000000E+03 0.  0.
<mgrwt>
<rscale>  0 0.42387534E+03</rscale>
<asrwt>0</asrwt>
<pdfrwt beam="1">  1        2 0.11126161E+00 0.42387534E+03</pdfrwt>
<pdfrwt beam="2">  1       -2 0.95552982E-02 0.42387534E+03</pdfrwt>
<totfact> 0.28903197E+03</totfact>
</mgrwt>
</event>
<event>
 4    1  0.1777979E-004  0.2715782E+03  0.7818608E-02  0.1100380E+00
          1   -1    0    0  501    0  0.00000000000E+00  0.00000000000E+00  0.59673132065E+03  0.59673132065E+03  0.00000000000E+00 0. -1.
         -1   -1    0    0    0  501 -0.00000000000E+00 -0.00000000000E+00 -0.30899464849E+02  0.30899464849E+02  0.00000000000E+00 0. -1.
         25    1    1    2    0    0  0.29984706691E+02 -0.54943765461E+02  0.30831419608E+03  0.33671285022E+03  0.12000000000E+03 0.  0.
         25    1    1    2    0    0 -0.29984706691E+02  0.54943765461E+02  0.25751765972E+03  0.29091793528E+03  0.12000000000E+03 0.  0.
<mgrwt>
<rscale>  0 0.27157819E+03</rscale>
<asrwt>0</asrwt>
<pdfrwt beam="1">  1        1 0.91804810E-01 0.27157819E+03</pdfrwt>
<pdfrwt beam="2">  1       -1 0.47537643E-02 0.27157819E+03</pdfrwt>
<totfact> 0.67011054E+03</totfact>
</mgrwt>
</event>
<event>
 4    1  0.1777979E-004  0.2976547E+03  0.7818608E-02  0.1086419E+00
          4   -1    0    0  501    0  0.00000000000E+00  0.00000000000E+00  0.76221234258E+02  0.76221234258E+02  0.00000000000E+00 0. -1.
         -4   -1    0    0    0  501 -0.00000000000E+00 -0.00000000000E+00 -0.29059583943E+03  0.29059583943E+03  0.00000000000E+00 0. -1.
         25    1    1    2    0    0  0.31045870776E+02  0.80048404185E+02 -0.13114645932E+03  0.19741070613E+03  0.12000000000E+03 0.  0.
         25    1    1    2    0    0 -0.31045870776E+02 -0.80048404185E+02 -0.83228145851E+02  0.16940636755E+03  0.12000000000E+03 0.  0.
<mgrwt>
<rscale>  0 0.29765466E+03</rscale>
<asrwt>0</asrwt>
<pdfrwt beam="1">  1        4 0.11726344E-01 0.29765466E+03</pdfrwt>
<pdfrwt beam="2">  1       -4 0.44707052E-01 0.29765466E+03</pdfrwt>
<totfact> 0.53287548E+02</totfact>
</mgrwt>
</event>
<event>
 4    1  0.1777979E-004  0.2725630E+03  0.7818608E-02  0.1099822E+00
         -2   -1    0    0    0  501 -0.00000000000E+00  0.00000000000E+00  0.20072869198E+02  0.20072869198E+02  0.00000000000E+00 0. -1.
          2   -1    0    0  501    0  0.00000000000E+00 -0.00000000000E+00 -0.92526131223E+03  0.92526131223E+03  0.00000000000E+00 0. -1.
         25    1    1    2    0    0 -0.12223368047E+01 -0.47610613814E+02 -0.30123957029E+03  0.32774005456E+03  0.12000000000E+03 0.  0.
         25    1    1    2    0    0  0.12223368047E+01  0.47610613814E+02 -0.60394887275E+03  0.61759412687E+03  0.12000000000E+03 0.  0.
<mgrwt>
<rscale>  0 0.27256302E+03</rscale>
<asrwt>0</asrwt>
<pdfrwt beam="1">  1        2 0.14234789E+00 0.27256302E+03</pdfrwt>
<pdfrwt beam="2">  1       -2 0.30881338E-02 0.27256302E+03</pdfrwt>
<totfact> 0.11829005E+04</totfact>
</mgrwt>
</event>
<event>
 4    1  0.1777979E-004  0.3136551E+03  0.7818608E-02  0.1078607E+00
         -1   -1    0    0    0  501 -0.00000000000E+00  0.00000000000E+00  0.28090147489E+03  0.28090147489E+03  0.00000000000E+00 0. -1.
          1   -1    0    0  501    0  0.00000000000E+00 -0.00000000000E+00 -0.87556972509E+02  0.87556972509E+02  0.00000000000E+00 0. -1.
         25    1    1    2    0    0  0.42144035406E+02 -0.50921073704E+02  0.70090583183E+01  0.13717945315E+03  0.12000000000E+03 0.  0.
         25    1    1    2    0    0 -0.42144035406E+02  0.50921073704E+02  0.18633544406E+03  0.23127899425E+03  0.12000000000E+03 0.  0.
<mgrwt>
<rscale>  0 0.31365511E+03</rscale>
<asrwt>0</asrwt>
<pdfrwt beam="1">  1        1 0.13470304E-01 0.31365511E+03</pdfrwt>
<pdfrwt beam="2">  1       -1 0.43215611E-01 0.31365511E+03</pdfrwt>
<totfact> 0.23108932E+03</totfact>
</mgrwt>
</event>
<event>
 4    1  0.1777979E-004  0.2991350E+03  0.7818608E-02  0.1085674E+00
         -2   -1    0    0    0  501 -0.00000000000E+00  0.00000000000E+00  0.46878150508E+02  0.46878150508E+02  0.00000000000E+00 0. -1.
          2   -1    0    0  501    0  0.00000000000E+00 -0.00000000000E+00 -0.47720401005E+03  0.47720401005E+03  0.00000000000E+00 0. -1.
         25    1    1    2    0    0  0.63245064764E+02  0.52616435522E+02 -0.15442124275E+03  0.21216584955E+03  0.12000000000E+03 0.  0.
         25    1    1    2    0    0 -0.63245064764E+02 -0.52616435522E+02 -0.27590461679E+03  0.31191631100E+03  0.12000000000E+03 0.  0.
<mgrwt>
<rscale>  0 0.29913503E+03</rscale>
<asrwt>0</asrwt>
<pdfrwt beam="1">  1        2 0.73416000E-01 0.29913503E+03</pdfrwt>
<pdfrwt beam="2">  1       -2 0.72120233E-02 0.29913503E+03</pdfrwt>
<totfact> 0.72857062E+03</totfact>
</mgrwt>
</event>
<event>
 4    1  0.1777979E-004  0.4898865E+03  0.7818608E-02  0.1016453E+00
          2   -1    0    0  501    0  0.00000000000E+00  0.00000000000E+00  0.27642877453E+04  0.27642877453E+04  0.00000000000E+00 0.  1.
         -2   -1    0    0    0  501 -0.00000000000E+00 -0.00000000000E+00 -0.21704398263E+02  0.21704398263E+02  0.00000000000E+00 0.  1.
         25    1    1    2    0    0  0.86959039688E+02  0.70448508084E+01  0.24796863877E+04  0.24841207873E+04  0.12000000000E+03 0.  0.
         25    1    1    2    0    0 -0.86959039688E+02 -0.70448508084E+01  0.26289695931E+03  0.30187135624E+03  0.12000000000E+03 0.  0.
<mgrwt>
<rscale>  0 0.48988653E+03</rscale>
<asrwt>0</asrwt>
<pdfrwt beam="1">  1        2 0.42527476E+00 0.48988653E+03</pdfrwt>
<pdfrwt beam="2">  1       -2 0.33391404E-02 0.48988653E+03</pdfrwt>
<totfact> 0.10011666E+03</totfact>
</mgrwt>
</event>
<event>
 4    1  0.1777979E-004  0.2761130E+03  0.7818608E-02  0.1097831E+00
         -1   -1    0    0    0  501 -0.00000000000E+00  0.00000000000E+00  0.59257735242E+02  0.59257735242E+02  0.00000000000E+00 0.  1.
          1   -1    0    0  501    0  0.00000000000E+00 -0.00000000000E+00 -0.32163904922E+03  0.32163904922E+03  0.00000000000E+00 0.  1.
         25    1    1    2    0    0  0.37878968479E+02 -0.56023351819E+02 -0.11838514384E+03  0.18162729554E+03  0.12000000000E+03 0.  0.
         25    1    1    2    0    0 -0.37878968479E+02  0.56023351819E+02 -0.14399617014E+03  0.19926948892E+03  0.12000000000E+03 0.  0.
<mgrwt>
<rscale>  0 0.27611303E+03</rscale>
<asrwt>0</asrwt>
<pdfrwt beam="1">  1        1 0.49482930E-01 0.27611303E+03</pdfrwt>
<pdfrwt beam="2">  1       -1 0.91165747E-02 0.27611303E+03</pdfrwt>
<totfact> 0.56075089E+03</totfact>
</mgrwt>
</event>
<event>
 4    1  0.1777979E-004  0.5223460E+03  0.7818608E-02  0.1008105E+00
         -2   -1    0    0    0  501 -0.00000000000E+00  0.00000000000E+00  0.58360123278E+02  0.58360123278E+02  0.00000000000E+00 0.  1.
          2   -1    0    0  501    0  0.00000000000E+00 -0.00000000000E+00 -0.11688004312E+04  0.11688004312E+04  0.00000000000E+00 0.  1.
         25    1    1    2    0    0 -0.12473893526E+03 -0.14588312138E+03 -0.86126111301E+03  0.89051243218E+03  0.12000000000E+03 0.  0.
         25    1    1    2    0    0  0.12473893526E+03  0.14588312138E+03 -0.24917919490E+03  0.33664812230E+03  0.12000000000E+03 0.  0.
<mgrwt>
<rscale>  0 0.52234601E+03</rscale>
<asrwt>0</asrwt>
<pdfrwt beam="1">  1        2 0.17981544E+00 0.52234601E+03</pdfrwt>
<pdfrwt beam="2">  1       -2 0.89784812E-02 0.52234601E+03</pdfrwt>
<totfact> 0.16340447E+03</totfact>
</mgrwt>
</event>
<event>
 4    1  0.1777979E-004  0.9054692E+03  0.7818608E-02  0.9418770E-01
         -2   -1    0    0    0  501 -0.00000000000E+00  0.00000000000E+00  0.10466603955E+03  0.10466603955E+03  0.00000000000E+00 0.  1.
          2   -1    0    0  501    0  0.00000000000E+00 -0.00000000000E+00 -0.19583108078E+04  0.19583108078E+04  0.00000000000E+00 0.  1.
         25    1    1    2    0    0 -0.42568133112E+03 -0.22436804897E+02 -0.11412856758E+04  0.12241899361E+04  0.12000000000E+03 0.  0.
         25    1    1    2    0    0  0.42568133112E+03  0.22436804897E+02 -0.71235909247E+03  0.83878691126E+03  0.12000000000E+03 0.  0.
<mgrwt>
<rscale>  0 0.90546924E+03</rscale>
<asrwt>0</asrwt>
<pdfrwt beam="1">  1        2 0.30127860E+00 0.90546924E+03</pdfrwt>
<pdfrwt beam="2">  1       -2 0.16102467E-01 0.90546924E+03</pdfrwt>
<totfact> 0.22117064E+02</totfact>
</mgrwt>
</event>
<event>
 4    1  0.1777979E-004  0.3292794E+03  0.7818608E-02  0.1071456E+00
         -2   -1    0    0    0  501 -0.00000000000E+00  0.00000000000E+00  0.88043824687E+01  0.88043824687E+01  0.00000000000E+00 0. -1.
          2   -1    0    0  501    0  0.00000000000E+00 -0.00000000000E+00 -0.30787208356E+04  0.30787208356E+04  0.00000000000E+00 0. -1.
         25    1    1    2    0    0 -0.18440187127E+02 -0.10798943603E+03 -0.17838321006E+04  0.17912171063E+04  0.12000000000E+03 0.  0.
         25    1    1    2    0    0  0.18440187127E+02  0.10798943603E+03 -0.12860843526E+04  0.12963081118E+04  0.12000000000E+03 0.  0.
<mgrwt>
<rscale>  0 0.32927943E+03</rscale>
<asrwt>0</asrwt>
<pdfrwt beam="1">  1        2 0.47365006E+00 0.32927943E+03</pdfrwt>
<pdfrwt beam="2">  1       -2 0.13545184E-02 0.32927943E+03</pdfrwt>
<totfact> 0.25461425E+03</totfact>
</mgrwt>
</event>
<event>
 4    1  0.1777979E-004  0.3393877E+03  0.7818608E-02  0.1067057E+00
          1   -1    0    0  501    0  0.00000000000E+00  0.00000000000E+00  0.96660274856E+03  0.96660274856E+03  0.00000000000E+00 0. -1.
         -1   -1    0    0    0  501 -0.00000000000E+00 -0.00000000000E+00 -0.29790936594E+02  0.29790936594E+02  0.00000000000E+00 0. -1.
         25    1    1    2    0    0 -0.10976589455E+03 -0.35070869770E+01  0.32653535215E+03  0.36480979629E+03  0.12000000000E+03 0.  0.
         25    1    1    2    0    0  0.10976589455E+03  0.35070869770E+01  0.61027645981E+03  0.63158388886E+03  0.12000000000E+03 0.  0.
<mgrwt>
<rscale>  0 0.33938769E+03</rscale>
<asrwt>0</asrwt>
<pdfrwt beam="1">  1        1 0.14870809E+00 0.33938769E+03</pdfrwt>
<pdfrwt beam="2">  1       -1 0.45832217E-02 0.33938769E+03</pdfrwt>
<totfact> 0.34095647E+03</totfact>
</mgrwt>
</event>
<event>
 4    1  0.1777979E-004  0.3183501E+03  0.7818608E-02  0.1076411E+00
          2   -1    0    0  501    0  0.00000000000E+00  0.00000000000E+00  0.54693014165E+03  0.54693014165E+03  0.00000000000E+00 0.  1.
         -2   -1    0    0    0  501 -0.00000000000E+00 -0.00000000000E+00 -0.46325289042E+02  0.46325289042E+02  0.00000000000E+00 0.  1.
         25    1    1    2    0    0  0.59796141370E+02 -0.68626927536E+02  0.34626006006E+03  0.37759934176E+03  0.12000000000E+03 0.  0.
         25    1    1    2    0    0 -0.59796141370E+02  0.68626927536E+02  0.15434479255E+03  0.21565608893E+03  0.12000000000E+03 0.  0.
<mgrwt>
<rscale>  0 0.31835010E+03</rscale>
<asrwt>0</asrwt>
<pdfrwt beam="1">  1        2 0.84143094E-01 0.31835010E+03</pdfrwt>
<pdfrwt beam="2">  1       -2 0.71269679E-02 0.31835010E+03</pdfrwt>
<totfact> 0.63744741E+03</totfact>
</mgrwt>
</event>
<event>
 4    1  0.1777979E-004  0.2724355E+03  0.7818608E-02  0.1099894E+00
         -2   -1    0    0    0  501 -0.00000000000E+00  0.00000000000E+00  0.11897121365E+03  0.11897121365E+03  0.00000000000E+00 0. -1.
          2   -1    0    0  501    0  0.00000000000E+00 -0.00000000000E+00 -0.15596436633E+03  0.15596436633E+03  0.00000000000E+00 0. -1.
         25    1    1    2    0    0 -0.27264226004E+02  0.29258898242E+02 -0.69515922847E+02  0.14433254891E+03  0.12000000000E+03 0.  0.
         25    1    1    2    0    0  0.27264226004E+02 -0.29258898242E+02  0.32522770160E+02  0.13060303107E+03  0.12000000000E+03 0.  0.
<mgrwt>
<rscale>  0 0.27243546E+03</rscale>
<asrwt>0</asrwt>
<pdfrwt beam="1">  1        2 0.23994518E-01 0.27243546E+03</pdfrwt>
<pdfrwt beam="2">  1       -2 0.18303264E-01 0.27243546E+03</pdfrwt>
<totfact> 0.54729440E+03</totfact>
</mgrwt>
</event>
<event>
 4    1  0.1777979E-004  0.3439612E+03  0.7818608E-02  0.1065121E+00
          2   -1    0    0  501    0  0.00000000000E+00  0.00000000000E+00  0.14857993268E+04  0.14857993268E+04  0.00000000000E+00 0. -1.
         -2   -1    0    0    0  501 -0.00000000000E+00 -0.00000000000E+00 -0.19906679427E+02  0.19906679427E+02  0.00000000000E+00 0. -1.
         25    1    1    2    0    0  0.22444309903E+02 -0.10425822409E+03  0.46296115444E+03  0.49000668858E+03  0.12000000000E+03 0.  0.
         25    1    1    2    0    0 -0.22444309903E+02  0.10425822409E+03  0.10029314929E+04  0.10156993176E+04  0.12000000000E+03 0.  0.
<mgrwt>
<rscale>  0 0.34396122E+03</rscale>
<asrwt>0</asrwt>
<pdfrwt beam="1">  1        2 0.22858442E+00 0.34396122E+03</pdfrwt>
<pdfrwt beam="2">  1       -2 0.30625672E-02 0.34396122E+03</pdfrwt>
<totfact> 0.57184499E+03</totfact>
</mgrwt>
</event>
<event>
 4    1  0.1777979E-004  0.2572707E+03  0.7818608E-02  0.1108794E+00
         -1   -1    0    0    0  501 -0.00000000000E+00  0.00000000000E+00  0.13977137042E+03  0.13977137042E+03  0.00000000000E+00 0.  1.
          1   -1    0    0  501    0  0.00000000000E+00 -0.00000000000E+00 -0.11838658604E+03  0.11838658604E+03  0.00000000000E+00 0.  1.
         25    1    1    2    0    0  0.17526793577E+02 -0.21761155399E+02  0.47783620151E+02  0.13215146890E+03  0.12000000000E+03 0.  0.
         25    1    1    2    0    0 -0.17526793577E+02  0.21761155399E+02 -0.26398835765E+02  0.12600648756E+03  0.12000000000E+03 0.  0.
<mgrwt>
<rscale>  0 0.25727072E+03</rscale>
<asrwt>0</asrwt>
<pdfrwt beam="1">  1        1 0.18213321E-01 0.25727072E+03</pdfrwt>
<pdfrwt beam="2">  1       -1 0.21503288E-01 0.25727072E+03</pdfrwt>
<totfact> 0.51104286E+03</totfact>
</mgrwt>
</event>
<event>
 4    1  0.1777979E-004  0.2843210E+03  0.7818608E-02  0.1093352E+00
         -2   -1    0    0    0  501 -0.00000000000E+00  0.00000000000E+00  0.41777894116E+02  0.41777894116E+02  0.00000000000E+00 0. -1.
          2   -1    0    0  501    0  0.00000000000E+00 -0.00000000000E+00 -0.48373932270E+03  0.48373932270E+03  0.00000000000E+00 0. -1.
         25    1    1    2    0    0  0.38909148492E+02 -0.29086806209E+02 -0.32953956935E+03  0.35405690489E+03  0.12000000000E+03 0.  0.
         25    1    1    2    0    0 -0.38909148492E+02  0.29086806209E+02 -0.11242185923E+03  0.17146031192E+03  0.12000000000E+03 0.  0.
<mgrwt>
<rscale>  0 0.28432102E+03</rscale>
<asrwt>0</asrwt>
<pdfrwt beam="1">  1        2 0.74421434E-01 0.28432102E+03</pdfrwt>
<pdfrwt beam="2">  1       -2 0.64273684E-02 0.28432102E+03</pdfrwt>
<totfact> 0.85630991E+03</totfact>
</mgrwt>
</event>
<event>
 4    1  0.1777979E-004  0.5356201E+03  0.7818608E-02  0.1004878E+00
          1   -1    0    0  501    0  0.00000000000E+00  0.00000000000E+00  0.85832045785E+03  0.85832045785E+03  0.00000000000E+00 0.  1.
         -1   -1    0    0    0  501 -0.00000000000E+00 -0.00000000000E+00 -0.83561133682E+02  0.83561133682E+02  0.00000000000E+00 0.  1.
         25    1    1    2    0    0 -0.22417565985E+03  0.69556035450E+02  0.30434881756E+03  0.40264248570E+03  0.12000000000E+03 0.  0.
         25    1    1    2    0    0  0.22417565985E+03 -0.69556035450E+02  0.47041050660E+03  0.53923910583E+03  0.12000000000E+03 0.  0.
<mgrwt>
<rscale>  0 0.53562013E+03</rscale>
<asrwt>0</asrwt>
<pdfrwt beam="1">  1        1 0.13204930E+00 0.53562013E+03</pdfrwt>
<pdfrwt beam="2">  1       -1 0.12855560E-01 0.53562013E+03</pdfrwt>
<totfact> 0.84198777E+02</totfact>
</mgrwt>
</event>
<event>
 4    1  0.1777979E-004  0.2739937E+03  0.7818608E-02  0.1099015E+00
         -2   -1    0    0    0  501 -0.00000000000E+00  0.00000000000E+00  0.10092487591E+02  0.10092487591E+02  0.00000000000E+00 0. -1.
          2   -1    0    0  501    0  0.00000000000E+00 -0.00000000000E+00 -0.18596144446E+04  0.18596144446E+04  0.00000000000E+00 0. -1.
         25    1    1    2    0    0 -0.49228810297E+02  0.18416134176E+02 -0.11981864277E+04  0.12053270698E+04  0.12000000000E+03 0.  0.
         25    1    1    2    0    0  0.49228810297E+02 -0.18416134176E+02 -0.65133552936E+03  0.66437986240E+03  0.12000000000E+03 0.  0.
<mgrwt>
<rscale>  0 0.27399369E+03</rscale>
<asrwt>0</asrwt>
<pdfrwt beam="1">  1        2 0.28609457E+00 0.27399369E+03</pdfrwt>
<pdfrwt beam="2">  1       -2 0.15526902E-02 0.27399369E+03</pdfrwt>
<totfact> 0.98756346E+03</totfact>
</mgrwt>
</event>
<event>
 4    1  0.1777979E-004  0.2796766E+03  0.7818608E-02  0.1095866E+00
         -1   -1    0    0    0  501 -0.00000000000E+00  0.00000000000E+00  0.76547856801E+02  0.76547856801E+02  0.00000000000E+00 0. -1.
          1   -1    0    0  501    0  0.00000000000E+00 -0.00000000000E+00 -0.25545784349E+03  0.25545784349E+03  0.00000000000E+00 0. -1.
         25    1    1    2    0    0 -0.62092996123E+02 -0.16402693117E+02 -0.12755650011E+03  0.18653484722E+03  0.12000000000E+03 0.  0.
         25    1    1    2    0    0  0.62092996123E+02  0.16402693117E+02 -0.51353486585E+02  0.14547085307E+03  0.12000000000E+03 0.  0.
<mgrwt>
<rscale>  0 0.27967660E+03</rscale>
<asrwt>0</asrwt>
<pdfrwt beam="1">  1        1 0.39301206E-01 0.27967660E+03</pdfrwt>
<pdfrwt beam="2">  1       -1 0.11776593E-01 0.27967660E+03</pdfrwt>
<totfact> 0.50404593E+03</totfact>
</mgrwt>
</event>
<event>
 4    1  0.1777979E-004  0.3359956E+03  0.7818608E-02  0.1068514E+00
          1   -1    0    0  501    0  0.00000000000E+00  0.00000000000E+00  0.32221774241E+02  0.32221774241E+02  0.00000000000E+00 0. -1.
         -1   -1    0    0    0  501 -0.00000000000E+00 -0.00000000000E+00 -0.87590659546E+03  0.87590659546E+03  0.00000000000E+00 0. -1.
         25    1    1    2    0    0  0.38348884506E+02 -0.81658913103E+02 -0.62562066231E+03  0.64338171263E+03  0.12000000000E+03 0.  0.
         25    1    1    2    0    0 -0.38348884506E+02  0.81658913103E+02 -0.21806415891E+03  0.26474665707E+03  0.12000000000E+03 0.  0.
<mgrwt>
<rscale>  0 0.33599562E+03</rscale>
<asrwt>0</asrwt>
<pdfrwt beam="1">  1        1 0.49571962E-02 0.33599562E+03</pdfrwt>
<pdfrwt beam="2">  1       -1 0.13475486E+00 0.33599562E+03</pdfrwt>
<totfact> 0.84062855E+02</totfact>
</mgrwt>
</event>
<event>
 4    1  0.1777979E-004  0.6200955E+03  0.7818608E-02  0.9864570E-01
          2   -1    0    0  501    0  0.00000000000E+00  0.00000000000E+00  0.16104129005E+04  0.16104129005E+04  0.00000000000E+00 0.  1.
         -2   -1    0    0    0  501 -0.00000000000E+00 -0.00000000000E+00 -0.59692517364E+02  0.59692517364E+02  0.00000000000E+00 0.  1.
         25    1    1    2    0    0 -0.26790097247E+03 -0.76598889391E+02  0.94763226317E+03  0.99501016432E+03  0.12000000000E+03 0.  0.
         25    1    1    2    0    0  0.26790097247E+03  0.76598889391E+02  0.60308811995E+03  0.67509525353E+03  0.12000000000E+03 0.  0.
<mgrwt>
<rscale>  0 0.62009548E+03</rscale>
<asrwt>0</asrwt>
<pdfrwt beam="1">  1        2 0.24775580E+00 0.62009548E+03</pdfrwt>
<pdfrwt beam="2">  1       -2 0.91834654E-02 0.62009548E+03</pdfrwt>
<totfact> 0.88535773E+02</totfact>
</mgrwt>
</event>
<event>
 4    1  0.1777979E-004  0.2774970E+03  0.7818608E-02  0.1097064E+00
          1   -1    0    0  501    0  0.00000000000E+00  0.00000000000E+00  0.74684893266E+03  0.74684893266E+03  0.00000000000E+00 0.  1.
         -1   -1    0    0    0  501 -0.00000000000E+00 -0.00000000000E+00 -0.25776495827E+02  0.25776495827E+02  0.00000000000E+00 0.  1.
         25    1    1    2    0    0 -0.68026225810E+02  0.80489421739E+01  0.39562189171E+03  0.41905731597E+03  0.12000000000E+03 0.  0.
         25    1    1    2    0    0  0.68026225810E+02 -0.80489421739E+01  0.32545054512E+03  0.35356811252E+03  0.12000000000E+03 0.  0.
<mgrwt>
<rscale>  0 0.27749702E+03</rscale>
<asrwt>0</asrwt>
<pdfrwt beam="1">  1        1 0.11489982E+00 0.27749702E+03</pdfrwt>
<pdfrwt beam="2">  1       -1 0.39656153E-02 0.27749702E+03</pdfrwt>
<totfact> 0.63637963E+03</totfact>
</mgrwt>
</event>
<event>
 4    1  0.1777979E-004  0.2481288E+03  0.7818608E-02  0.1114493E+00
         -2   -1    0    0    0  501 -0.00000000000E+00  0.00000000000E+00  0.38018611094E+02  0.38018611094E+02  0.00000000000E+00 0.  1.
          2   -1    0    0  501    0  0.00000000000E+00 -0.00000000000E+00 -0.40485363263E+03  0.40485363263E+03  0.00000000000E+00 0.  1.
         25    1    1    2    0    0 -0.25505399675E+02  0.18299634847E+02 -0.18799270095E+03  0.22522579261E+03  0.12000000000E+03 0.  0.
         25    1    1    2    0    0  0.25505399675E+02 -0.18299634847E+02 -0.17884232059E+03  0.21764645111E+03  0.12000000000E+03 0.  0.
<mgrwt>
<rscale>  0 0.24812878E+03</rscale>
<asrwt>0</asrwt>
<pdfrwt beam="1">  1        2 0.62285177E-01 0.24812878E+03</pdfrwt>
<pdfrwt beam="2">  1       -2 0.58490169E-02 0.24812878E+03</pdfrwt>
<totfact> 0.11966396E+04</totfact>
</mgrwt>
</event>
<event>
 4    1  0.1777979E-004  0.3005061E+03  0.7818608E-02  0.1084988E+00
          1   -1    0    0  501    0  0.00000000000E+00  0.00000000000E+00  0.89218519944E+02  0.89218519944E+02  0.00000000000E+00 0. -1.
         -1   -1    0    0    0  501 -0.00000000000E+00 -0.00000000000E+00 -0.25304137605E+03  0.25304137605E+03  0.00000000000E+00 0. -1.
         25    1    1    2    0    0 -0.26152559777E+01 -0.83733996236E+01  0.20587441347E+02  0.12206881717E+03  0.12000000000E+03 0.  0.
         25    1    1    2    0    0  0.26152559777E+01  0.83733996236E+01 -0.18441029746E+03  0.22019107882E+03  0.12000000000E+03 0.  0.
<mgrwt>
<rscale>  0 0.30050609E+03</rscale>
<asrwt>0</asrwt>
<pdfrwt beam="1">  1        1 0.13725926E-01 0.30050609E+03</pdfrwt>
<pdfrwt beam="2">  1       -1 0.38929442E-01 0.30050609E+03</pdfrwt>
<totfact> 0.27147727E+03</totfact>
</mgrwt>
</event>
<event>
 4    1  0.1777979E-004  0.2995793E+03  0.7818608E-02  0.1085451E+00
         -1   -1    0    0    0  501 -0.00000000000E+00  0.00000000000E+00  0.75353624657E+02  0.75353624657E+02  0.00000000000E+00 0. -1.
          1   -1    0    0  501    0  0.00000000000E+00 -0.00000000000E+00 -0.29775530844E+03  0.29775530844E+03  0.00000000000E+00 0. -1.
         25    1    1    2    0    0 -0.10647570763E+02 -0.81966548014E+02 -0.15443504267E+03  0.21232538276E+03  0.12000000000E+03 0.  0.
         25    1    1    2    0    0  0.10647570763E+02  0.81966548014E+02 -0.67966641105E+02  0.16078355034E+03  0.12000000000E+03 0.  0.
<mgrwt>
<rscale>  0 0.29957932E+03</rscale>
<asrwt>0</asrwt>
<pdfrwt beam="1">  1        1 0.45808509E-01 0.29957932E+03</pdfrwt>
<pdfrwt beam="2">  1       -1 0.11592865E-01 0.29957932E+03</pdfrwt>
<totfact> 0.42684985E+03</totfact>
</mgrwt>
</event>
<event>
 4    1  0.1777979E-004  0.2657961E+03  0.7818608E-02  0.1103710E+00
          2   -1    0    0  501    0  0.00000000000E+00  0.00000000000E+00  0.11739091994E+02  0.11739091994E+02  0.00000000000E+00 0. -1.
         -2   -1    0    0    0  501 -0.00000000000E+00 -0.00000000000E+00 -0.15045360782E+04  0.15045360782E+04  0.00000000000E+00 0. -1.
         25    1    1    2    0    0  0.68151566633E+01  0.56436051600E+02 -0.71493838735E+03  0.72716461134E+03  0.12000000000E+03 0.  0.
         25    1    1    2    0    0 -0.68151566633E+01 -0.56436051600E+02 -0.77785859889E+03  0.78911055889E+03  0.12000000000E+03 0.  0.
<mgrwt>
<rscale>  0 0.26579607E+03</rscale>
<asrwt>0</asrwt>
<pdfrwt beam="1">  1        2 0.18060138E-02 0.26579607E+03</pdfrwt>
<pdfrwt beam="2">  1       -2 0.23146714E+00 0.26579607E+03</pdfrwt>
<totfact> 0.58269175E+02</totfact>
</mgrwt>
</event>
<event>
 4    1  0.1777979E-004  0.3527091E+03  0.7818608E-02  0.1061509E+00
          2   -1    0    0  501    0  0.00000000000E+00  0.00000000000E+00  0.41684046091E+03  0.41684046091E+03  0.00000000000E+00 0. -1.
         -2   -1    0    0    0  501 -0.00000000000E+00 -0.00000000000E+00 -0.74611105263E+02  0.74611105263E+02  0.00000000000E+00 0. -1.
         25    1    1    2    0    0 -0.97945380054E+02  0.81337642924E+02  0.14021412760E+03  0.22420774119E+03  0.12000000000E+03 0.  0.
         25    1    1    2    0    0  0.97945380054E+02 -0.81337642924E+02  0.20201522804E+03  0.26724382498E+03  0.12000000000E+03 0.  0.
<mgrwt>
<rscale>  0 0.35270910E+03</rscale>
<asrwt>0</asrwt>
<pdfrwt beam="1">  1        2 0.64129301E-01 0.35270910E+03</pdfrwt>
<pdfrwt beam="2">  1       -2 0.11478632E-01 0.35270910E+03</pdfrwt>
<totfact> 0.40686429E+03</totfact>
</mgrwt>
</event>
<event>
 4    1  0.1777979E-004  0.2556146E+03  0.7818608E-02  0.1109807E+00
          2   -1    0    0  501    0  0.00000000000E+00  0.00000000000E+00  0.83981483885E+03  0.83981483885E+03  0.00000000000E+00 0. -1.
         -2   -1    0    0    0  501 -0.00000000000E+00 -0.00000000000E+00 -0.19450361098E+02  0.19450361098E+02  0.00000000000E+00 0. -1.
         25    1    1    2    0    0 -0.24199100425E+02  0.10547996539E+02  0.29191218729E+03  0.31671687954E+03  0.12000000000E+03 0.  0.
         25    1    1    2    0    0  0.24199100425E+02 -0.10547996539E+02  0.52845229046E+03  0.54254832042E+03  0.12000000000E+03 0.  0.
<mgrwt>
<rscale>  0 0.25561457E+03</rscale>
<asrwt>0</asrwt>
<pdfrwt beam="1">  1        2 0.12920225E+00 0.25561457E+03</pdfrwt>
<pdfrwt beam="2">  1       -2 0.29923639E-02 0.25561457E+03</pdfrwt>
<totfact> 0.14060651E+04</totfact>
</mgrwt>
</event>
<event>
 4    1  0.1777979E-004  0.2439320E+03  0.7818608E-02  0.1117201E+00
         -1   -1    0    0    0  501 -0.00000000000E+00  0.00000000000E+00  0.16640797692E+02  0.16640797692E+02  0.00000000000E+00 0. -1.
          1   -1    0    0  501    0  0.00000000000E+00 -0.00000000000E+00 -0.89393004329E+03  0.89393004329E+03  0.00000000000E+00 0. -1.
         25    1    1    2    0    0  0.93371313708E+01 -0.19581052574E+02 -0.43020684434E+03  0.44715604497E+03  0.12000000000E+03 0.  0.
         25    1    1    2    0    0 -0.93371313708E+01  0.19581052574E+02 -0.44708240126E+03  0.46341479601E+03  0.12000000000E+03 0.  0.
<mgrwt>
<rscale>  0 0.24393203E+03</rscale>
<asrwt>0</asrwt>
<pdfrwt beam="1">  1        1 0.13752773E+00 0.24393203E+03</pdfrwt>
<pdfrwt beam="2">  1       -1 0.25601222E-02 0.24393203E+03</pdfrwt>
<totfact> 0.91483096E+03</totfact>
</mgrwt>
</event>
<event>
 4    1  0.1777979E-004  0.2945274E+03  0.7818608E-02  0.1088009E+00
         -2   -1    0    0    0  501 -0.00000000000E+00  0.00000000000E+00  0.10466167981E+03  0.10466167981E+03  0.00000000000E+00 0. -1.
          2   -1    0    0  501    0  0.00000000000E+00 -0.00000000000E+00 -0.20720668483E+03  0.20720668483E+03  0.00000000000E+00 0. -1.
         25    1    1    2    0    0  0.21213399352E+02  0.81472901688E+02 -0.36344298684E+02  0.15102566030E+03  0.12000000000E+03 0.  0.
         25    1    1    2    0    0 -0.21213399352E+02 -0.81472901688E+02 -0.66200706333E+02  0.16084270434E+03  0.12000000000E+03 0.  0.
<mgrwt>
<rscale>  0 0.29452742E+03</rscale>
<asrwt>0</asrwt>
<pdfrwt beam="1">  1        2 0.31877951E-01 0.29452742E+03</pdfrwt>
<pdfrwt beam="2">  1       -2 0.16101797E-01 0.29452742E+03</pdfrwt>
<totfact> 0.49673685E+03</totfact>
</mgrwt>
</event>
<event>
 4    1  0.1777979E-004  0.2832772E+03  0.7818608E-02  0.1093912E+00
          1   -1    0    0  501    0  0.00000000000E+00  0.00000000000E+00  0.90588039527E+03  0.90588039527E+03  0.00000000000E+00 0.  1.
         -1   -1    0    0    0  501 -0.00000000000E+00 -0.00000000000E+00 -0.22145851574E+02  0.22145851574E+02  0.00000000000E+00 0.  1.
         25    1    1    2    0    0  0.59857764690E+02 -0.11818193623E+01  0.29255965879E+03  0.32183148174E+03  0.12000000000E+03 0.  0.
         25    1    1    2    0    0 -0.59857764690E+02  0.11818193623E+01  0.59117488491E+03  0.60619476510E+03  0.12000000000E+03 0.  0.
<mgrwt>
<rscale>  0 0.28327720E+03</rscale>
<asrwt>0</asrwt>
<pdfrwt beam="1">  1        1 0.13936619E+00 0.28327720E+03</pdfrwt>
<pdfrwt beam="2">  1       -1 0.34070548E-02 0.28327720E+03</pdfrwt>
<totfact> 0.58996839E+03</totfact>
</mgrwt>
</event>
<event>
 4    1  0.1777979E-004  0.2616072E+03  0.7818608E-02  0.1106181E+00
         -1   -1    0    0    0  501 -0.00000000000E+00  0.00000000000E+00  0.79526215909E+02  0.79526215909E+02  0.00000000000E+00 0. -1.
          1   -1    0    0  501    0  0.00000000000E+00 -0.00000000000E+00 -0.21514398107E+03  0.21514398107E+03  0.00000000000E+00 0. -1.
         25    1    1    2    0    0  0.45855039330E+02 -0.48805454487E+01 -0.95007786349E+02  0.15985300692E+03  0.12000000000E+03 0.  0.
         25    1    1    2    0    0 -0.45855039330E+02  0.48805454487E+01 -0.40609978816E+02  0.13481719006E+03  0.12000000000E+03 0.  0.
<mgrwt>
<rscale>  0 0.26160724E+03</rscale>
<asrwt>0</asrwt>
<pdfrwt beam="1">  1        1 0.33099074E-01 0.26160724E+03</pdfrwt>
<pdfrwt beam="2">  1       -1 0.12234803E-01 0.26160724E+03</pdfrwt>
<totfact> 0.58786898E+03</totfact>
</mgrwt>
</event>
<event>
 4    1  0.1777979E-004  0.2538528E+03  0.7818608E-02  0.1110894E+00
         -3   -1    0    0    0  501 -0.00000000000E+00  0.00000000000E+00  0.21473086837E+03  0.21473086837E+03  0.00000000000E+00 0. -1.
          3   -1    0    0  501    0  0.00000000000E+00 -0.00000000000E+00 -0.75025600675E+02  0.75025600675E+02  0.00000000000E+00 0. -1.
         25    1    1    2    0    0 -0.90176999931E+01 -0.39060828391E+01  0.23999670701E+02  0.12277035713E+03  0.12000000000E+03 0.  0.
         25    1    1    2    0    0  0.90176999931E+01  0.39060828391E+01  0.11570559699E+03  0.16698611191E+03  0.12000000000E+03 0.  0.
<mgrwt>
<rscale>  0 0.25385281E+03</rscale>
<asrwt>0</asrwt>
<pdfrwt beam="1">  1        3 0.11542400E-01 0.25385281E+03</pdfrwt>
<pdfrwt beam="2">  1       -3 0.33035518E-01 0.25385281E+03</pdfrwt>
<totfact> 0.13104783E+03</totfact>
</mgrwt>
</event>
<event>
 4    1  0.1777979E-004  0.2588865E+03  0.7818608E-02  0.1107814E+00
          2   -1    0    0  501    0  0.00000000000E+00  0.00000000000E+00  0.25003286421E+03  0.25003286421E+03  0.00000000000E+00 0.  1.
         -2   -1    0    0    0  501 -0.00000000000E+00 -0.00000000000E+00 -0.67013403121E+02  0.67013403121E+02  0.00000000000E+00 0.  1.
         25    1    1    2    0    0  0.19427547191E+02  0.10899646900E+02  0.14431660686E+03  0.18900665308E+03  0.12000000000E+03 0.  0.
         25    1    1    2    0    0 -0.19427547191E+02 -0.10899646900E+02  0.38702854228E+02  0.12803961425E+03  0.12000000000E+03 0.  0.
<mgrwt>
<rscale>  0 0.25888649E+03</rscale>
<asrwt>0</asrwt>
<pdfrwt beam="1">  1        2 0.38466594E-01 0.25888649E+03</pdfrwt>
<pdfrwt beam="2">  1       -2 0.10309754E-01 0.25888649E+03</pdfrwt>
<totfact> 0.83286739E+03</totfact>
</mgrwt>
</event>
<event>
 4    1  0.1777979E-004  0.2802264E+03  0.7818608E-02  0.1095565E+00
          1   -1    0    0  501    0  0.00000000000E+00  0.00000000000E+00  0.11971932868E+04  0.11971932868E+04  0.00000000000E+00 0.  1.
         -1   -1    0    0    0  501 -0.00000000000E+00 -0.00000000000E+00 -0.16398113068E+02  0.16398113068E+02  0.00000000000E+00 0.  1.
         25    1    1    2    0    0  0.10203176118E+02 -0.31327581595E+02  0.31153647666E+03  0.33547056273E+03  0.12000000000E+03 0.  0.
         25    1    1    2    0    0 -0.10203176118E+02  0.31327581595E+02  0.86925869704E+03  0.87812083710E+03  0.12000000000E+03 0.  0.
<mgrwt>
<rscale>  0 0.28022641E+03</rscale>
<asrwt>0</asrwt>
<pdfrwt beam="1">  1        1 0.18418351E+00 0.28022641E+03</pdfrwt>
<pdfrwt beam="2">  1       -1 0.25227876E-02 0.28022641E+03</pdfrwt>
<totfact> 0.56066497E+03</totfact>
</mgrwt>
</event>
<event>
 4    1  0.1777979E-004  0.3090349E+03  0.7818608E-02  0.1080809E+00
          2   -1    0    0  501    0  0.00000000000E+00  0.00000000000E+00  0.17952201459E+03  0.17952201459E+03  0.00000000000E+00 0.  1.
         -2   -1    0    0    0  501 -0.00000000000E+00 -0.00000000000E+00 -0.13299561434E+03  0.13299561434E+03  0.00000000000E+00 0.  1.
         25    1    1    2    0    0  0.42599993383E+02 -0.26425560212E+02  0.10764559078E+03  0.16882133421E+03  0.12000000000E+03 0.  0.
         25    1    1    2    0    0 -0.42599993383E+02  0.26425560212E+02 -0.61119190527E+02  0.14369629473E+03  0.12000000000E+03 0.  0.
<mgrwt>
<rscale>  0 0.30903489E+03</rscale>
<asrwt>0</asrwt>
<pdfrwt beam="1">  1        2 0.27618772E-01 0.30903489E+03</pdfrwt>
<pdfrwt beam="2">  1       -2 0.20460864E-01 0.30903489E+03</pdfrwt>
<totfact> 0.38829869E+03</totfact>
</mgrwt>
</event>
<event>
 4    1  0.1777979E-004  0.2572501E+03  0.7818608E-02  0.1108807E+00
          1   -1    0    0  501    0  0.00000000000E+00  0.00000000000E+00  0.27037117064E+03  0.27037117064E+03  0.00000000000E+00 0. -1.
         -1   -1    0    0    0  501 -0.00000000000E+00 -0.00000000000E+00 -0.61191462652E+02  0.61191462652E+02  0.00000000000E+00 0. -1.
         25    1    1    2    0    0  0.24982038141E+02 -0.17055852768E+02  0.59398316264E+02  0.13727040584E+03  0.12000000000E+03 0.  0.
         25    1    1    2    0    0 -0.24982038141E+02  0.17055852768E+02  0.14978139173E+03  0.19429222746E+03  0.12000000000E+03 0.  0.
<mgrwt>
<rscale>  0 0.25725013E+03</rscale>
<asrwt>0</asrwt>
<pdfrwt beam="1">  1        1 0.41595564E-01 0.25725013E+03</pdfrwt>
<pdfrwt beam="2">  1       -1 0.94140713E-02 0.25725013E+03</pdfrwt>
<totfact> 0.66217942E+03</totfact>
</mgrwt>
</event>
<event>
 4    1  0.1777979E-004  0.2857644E+03  0.7818608E-02  0.1092582E+00
         -3   -1    0    0    0  501 -0.00000000000E+00  0.00000000000E+00  0.97099658659E+02  0.97099658659E+02  0.00000000000E+00 0. -1.
          3   -1    0    0  501    0  0.00000000000E+00 -0.00000000000E+00 -0.21025124366E+03  0.21025124366E+03  0.00000000000E+00 0. -1.
         25    1    1    2    0    0  0.25350449605E+02  0.86583391558E+01  0.21707759926E+02  0.12485527211E+03  0.12000000000E+03 0.  0.
         25    1    1    2    0    0 -0.25350449605E+02 -0.86583391558E+01 -0.13485934493E+03  0.18249563021E+03  0.12000000000E+03 0.  0.
<mgrwt>
<rscale>  0 0.28576441E+03</rscale>
<asrwt>0</asrwt>
<pdfrwt beam="1">  1        3 0.32346345E-01 0.28576441E+03</pdfrwt>
<pdfrwt beam="2">  1       -3 0.14938409E-01 0.28576441E+03</pdfrwt>
<totfact> 0.88971483E+02</totfact>
</mgrwt>
</event>
<event>
 4    1  0.1777979E-004  0.2618913E+03  0.7818608E-02  0.1106012E+00
          1   -1    0    0  501    0  0.00000000000E+00  0.00000000000E+00  0.17218479179E+04  0.17218479179E+04  0.00000000000E+00 0. -1.
         -1   -1    0    0    0  501 -0.00000000000E+00 -0.00000000000E+00 -0.99583509634E+01  0.99583509634E+01  0.00000000000E+00 0. -1.
         25    1    1    2    0    0  0.50718659707E+02  0.11837309354E+02  0.89465108005E+03  0.90416428782E+03  0.12000000000E+03 0.  0.
         25    1    1    2    0    0 -0.50718659707E+02 -0.11837309354E+02  0.81723848684E+03  0.82764198100E+03  0.12000000000E+03 0.  0.
<mgrwt>
<rscale>  0 0.26189132E+03</rscale>
<asrwt>0</asrwt>
<pdfrwt beam="1">  1        1 0.26489944E+00 0.26189132E+03</pdfrwt>
<pdfrwt beam="2">  1       -1 0.15320554E-02 0.26189132E+03</pdfrwt>
<totfact> 0.51752117E+03</totfact>
</mgrwt>
</event>
<event>
 4    1  0.1777979E-004  0.3377106E+03  0.7818608E-02  0.1067775E+00
          2   -1    0    0  501    0  0.00000000000E+00  0.00000000000E+00  0.81358724182E+03  0.81358724182E+03  0.00000000000E+00 0.  1.
         -2   -1    0    0    0  501 -0.00000000000E+00 -0.00000000000E+00 -0.35044934557E+02  0.35044934557E+02  0.00000000000E+00 0.  1.
         25    1    1    2    0    0  0.54182478931E+01  0.60884562188E+02  0.13330289608E+03  0.18948865250E+03  0.12000000000E+03 0.  0.
         25    1    1    2    0    0 -0.54182478931E+01 -0.60884562188E+02  0.64523941119E+03  0.65914352388E+03  0.12000000000E+03 0.  0.
<mgrwt>
<rscale>  0 0.33771060E+03</rscale>
<asrwt>0</asrwt>
<pdfrwt beam="1">  1        2 0.12516725E+00 0.33771060E+03</pdfrwt>
<pdfrwt beam="2">  1       -2 0.53915290E-02 0.33771060E+03</pdfrwt>
<totfact> 0.60781409E+03</totfact>
</mgrwt>
</event>
<event>
 4    1  0.1777979E-004  0.2620046E+03  0.7818608E-02  0.1105945E+00
         -3   -1    0    0    0  501 -0.00000000000E+00  0.00000000000E+00  0.37622095895E+03  0.37622095895E+03  0.00000000000E+00 0.  1.
          3   -1    0    0  501    0  0.00000000000E+00 -0.00000000000E+00 -0.45615752956E+02  0.45615752956E+02  0.00000000000E+00 0.  1.
         25    1    1    2    0    0  0.15975069723E+02  0.21009752714E+02  0.23846609262E+03  0.26825862501E+03  0.12000000000E+03 0.  0.
         25    1    1    2    0    0 -0.15975069723E+02 -0.21009752714E+02  0.92139113375E+02  0.15357808690E+03  0.12000000000E+03 0.  0.
<mgrwt>
<rscale>  0 0.26200460E+03</rscale>
<asrwt>0</asrwt>
<pdfrwt beam="1">  1        3 0.70178084E-02 0.26200460E+03</pdfrwt>
<pdfrwt beam="2">  1       -3 0.57880146E-01 0.26200460E+03</pdfrwt>
<totfact> 0.99074310E+02</totfact>
</mgrwt>
</event>
<event>
 4    1  0.1777979E-004  0.2798814E+03  0.7818608E-02  0.1095754E+00
         -1   -1    0    0    0  501 -0.00000000000E+00  0.00000000000E+00  0.70324790676E+01  0.70324790676E+01  0.00000000000E+00 0.  1.
          1   -1    0    0  501    0  0.00000000000E+00 -0.00000000000E+00 -0.27847072781E+04  0.27847072781E+04  0.00000000000E+00 0.  1.
         25    1    1    2    0    0  0.42512263924E+02  0.38084915146E+02 -0.18265496938E+04  0.18313769512E+04  0.12000000000E+03 0.  0.
         25    1    1    2    0    0 -0.42512263924E+02 -0.38084915146E+02 -0.95112510523E+03  0.96036280600E+03  0.12000000000E+03 0.  0.
<mgrwt>
<rscale>  0 0.27988137E+03</rscale>
<asrwt>0</asrwt>
<pdfrwt beam="1">  1        1 0.42841681E+00 0.27988137E+03</pdfrwt>
<pdfrwt beam="2">  1       -1 0.10819191E-02 0.27988137E+03</pdfrwt>
<totfact> 0.17103258E+03</totfact>
</mgrwt>
</event>
<event>
 4    1  0.1777979E-004  0.2639146E+03  0.7818608E-02  0.1104814E+00
          1   -1    0    0  501    0  0.00000000000E+00  0.00000000000E+00  0.57542512956E+03  0.57542512956E+03  0.00000000000E+00 0. -1.
         -1   -1    0    0    0  501 -0.00000000000E+00 -0.00000000000E+00 -0.30260626558E+02  0.30260626558E+02  0.00000000000E+00 0. -1.
         25    1    1    2    0    0 -0.40546198211E+01  0.42979768186E+01  0.39781925348E+03  0.41556596466E+03  0.12000000000E+03 0.  0.
         25    1    1    2    0    0  0.40546198211E+01 -0.42979768186E+01  0.14734524952E+03  0.19011979146E+03  0.12000000000E+03 0.  0.
<mgrwt>
<rscale>  0 0.26391457E+03</rscale>
<asrwt>0</asrwt>
<pdfrwt beam="1">  1        1 0.88526935E-01 0.26391457E+03</pdfrwt>
<pdfrwt beam="2">  1       -1 0.46554814E-02 0.26391457E+03</pdfrwt>
<totfact> 0.72624194E+03</totfact>
</mgrwt>
</event>
<event>
 4    1  0.1777979E-004  0.2609133E+03  0.7818608E-02  0.1106596E+00
          1   -1    0    0  501    0  0.00000000000E+00  0.00000000000E+00  0.14532330787E+03  0.14532330787E+03  0.00000000000E+00 0.  1.
         -1   -1    0    0    0  501 -0.00000000000E+00 -0.00000000000E+00 -0.11711089708E+03  0.11711089708E+03  0.00000000000E+00 0.  1.
         25    1    1    2    0    0  0.11774592587E+02 -0.39839428490E+01 -0.35826190618E+02  0.12584923029E+03  0.12000000000E+03 0.  0.
         25    1    1    2    0    0 -0.11774592587E+02  0.39839428490E+01  0.64038601408E+02  0.13658497466E+03  0.12000000000E+03 0.  0.
<mgrwt>
<rscale>  0 0.26091334E+03</rscale>
<asrwt>0</asrwt>
<pdfrwt beam="1">  1        1 0.22357432E-01 0.26091334E+03</pdfrwt>
<pdfrwt beam="2">  1       -1 0.18017061E-01 0.26091334E+03</pdfrwt>
<totfact> 0.52325514E+03</totfact>
</mgrwt>
</event>
<event>
 4    1  0.1777979E-004  0.2561918E+03  0.7818608E-02  0.1109453E+00
         -2   -1    0    0    0  501 -0.00000000000E+00  0.00000000000E+00  0.88197044279E+03  0.88197044279E+03  0.00000000000E+00 0. -1.
          2   -1    0    0  501    0  0.00000000000E+00 -0.00000000000E+00 -0.18604429701E+02  0.18604429701E+02  0.00000000000E+00 0. -1.
         25    1    1    2    0    0  0.21964537209E+01  0.46465277568E+01  0.27518022277E+03  0.30025084451E+03  0.12000000000E+03 0.  0.
         25    1    1    2    0    0 -0.21964537209E+01 -0.46465277568E+01  0.58818579032E+03  0.60032402798E+03  0.12000000000E+03 0.  0.
<mgrwt>
<rscale>  0 0.25619178E+03</rscale>
<asrwt>0</asrwt>
<pdfrwt beam="1">  1        2 0.28622206E-02 0.25619178E+03</pdfrwt>
<pdfrwt beam="2">  1       -2 0.13568773E+00 0.25619178E+03</pdfrwt>
<totfact> 0.13650531E+03</totfact>
</mgrwt>
</event>
<event>
 4    1  0.1777979E-004  0.2484569E+03  0.7818608E-02  0.1114284E+00
         -2   -1    0    0    0  501 -0.00000000000E+00  0.00000000000E+00  0.43883840778E+03  0.43883840778E+03  0.00000000000E+00 0. -1.
          2   -1    0    0  501    0  0.00000000000E+00 -0.00000000000E+00 -0.35167175279E+02  0.35167175279E+02  0.00000000000E+00 0. -1.
         25    1    1    2    0    0  0.45345954055E+01 -0.11043074460E+02  0.14491428920E+03  0.18852761937E+03  0.12000000000E+03 0.  0.
         25    1    1    2    0    0 -0.45345954055E+01  0.11043074460E+02  0.25875694330E+03  0.28547796370E+03  0.12000000000E+03 0.  0.
<mgrwt>
<rscale>  0 0.24845690E+03</rscale>
<asrwt>0</asrwt>
<pdfrwt beam="1">  1        2 0.54103350E-02 0.24845690E+03</pdfrwt>
<pdfrwt beam="2">  1       -2 0.67513597E-01 0.24845690E+03</pdfrwt>
<totfact> 0.28956282E+03</totfact>
</mgrwt>
</event>
<event>
 4    1  0.1777979E-004  0.4318968E+03  0.7818608E-02  0.1033262E+00
         -2   -1    0    0    0  501 -0.00000000000E+00  0.00000000000E+00  0.10102176223E+03  0.10102176223E+03  0.00000000000E+00 0.  1.
          2   -1    0    0  501    0  0.00000000000E+00 -0.00000000000E+00 -0.46162052249E+03  0.46162052249E+03  0.00000000000E+00 0.  1.
         25    1    1    2    0    0 -0.15162523646E+03 -0.52456671323E+02 -0.28526209292E+03  0.34859199123E+03  0.12000000000E+03 0.  0.
         25    1    1    2    0    0  0.15162523646E+03  0.52456671323E+02 -0.75336667345E+02  0.21405029349E+03  0.12000000000E+03 0.  0.
<mgrwt>
<rscale>  0 0.43189683E+03</rscale>
<asrwt>0</asrwt>
<pdfrwt beam="1">  1        2 0.71018542E-01 0.43189683E+03</pdfrwt>
<pdfrwt beam="2">  1       -2 0.15541810E-01 0.43189683E+03</pdfrwt>
<totfact> 0.22112209E+03</totfact>
</mgrwt>
</event>
<event>
 4    1  0.1777979E-004  0.2692771E+03  0.7818608E-02  0.1101694E+00
          2   -1    0    0  501    0  0.00000000000E+00  0.00000000000E+00  0.17337822230E+04  0.17337822230E+04  0.00000000000E+00 0. -1.
         -2   -1    0    0    0  501 -0.00000000000E+00 -0.00000000000E+00 -0.10455489393E+02  0.10455489393E+02  0.00000000000E+00 0. -1.
         25    1    1    2    0    0 -0.51305180509E+02  0.10478348944E+02  0.65831537439E+03  0.67120872275E+03  0.12000000000E+03 0.  0.
         25    1    1    2    0    0  0.51305180509E+02 -0.10478348944E+02  0.10650113592E+04  0.10730289896E+04  0.12000000000E+03 0.  0.
<mgrwt>
<rscale>  0 0.26927712E+03</rscale>
<asrwt>0</asrwt>
<pdfrwt beam="1">  1        2 0.26673550E+00 0.26927712E+03</pdfrwt>
<pdfrwt beam="2">  1       -2 0.16085382E-02 0.26927712E+03</pdfrwt>
<totfact> 0.10915407E+04</totfact>
</mgrwt>
</event>
<event>
 4    1  0.1777979E-004  0.2616963E+03  0.7818608E-02  0.1106128E+00
         -1   -1    0    0    0  501 -0.00000000000E+00  0.00000000000E+00  0.16199554730E+02  0.16199554730E+02  0.00000000000E+00 0. -1.
          1   -1    0    0  501    0  0.00000000000E+00 -0.00000000000E+00 -0.10568959514E+04  0.10568959514E+04  0.00000000000E+00 0. -1.
         25    1    1    2    0    0 -0.29126212110E+02 -0.41341544270E+01 -0.69699599393E+03  0.70786216386E+03  0.12000000000E+03 0.  0.
         25    1    1    2    0    0  0.29126212110E+02  0.41341544270E+01 -0.34370040273E+03  0.36523334226E+03  0.12000000000E+03 0.  0.
<mgrwt>
<rscale>  0 0.26169634E+03</rscale>
<asrwt>0</asrwt>
<pdfrwt beam="1">  1        1 0.16259945E+00 0.26169634E+03</pdfrwt>
<pdfrwt beam="2">  1       -1 0.24922381E-02 0.26169634E+03</pdfrwt>
<totfact> 0.71807503E+03</totfact>
</mgrwt>
</event>
<event>
 4    1  0.1777979E-004  0.3266135E+03  0.7818608E-02  0.1072645E+00
          1   -1    0    0  501    0  0.00000000000E+00  0.00000000000E+00  0.28988217782E+03  0.28988217782E+03  0.00000000000E+00 0. -1.
         -1   -1    0    0    0  501 -0.00000000000E+00 -0.00000000000E+00 -0.91999794645E+02  0.91999794645E+02  0.00000000000E+00 0. -1.
         25    1    1    2    0    0 -0.73613267580E+01 -0.92802710127E+02  0.28763171734E+02  0.15457636361E+03  0.12000000000E+03 0.  0.
         25    1    1    2    0    0  0.73613267580E+01  0.92802710127E+02  0.16911921144E+03  0.22730560885E+03  0.12000000000E+03 0.  0.
<mgrwt>
<rscale>  0 0.32661354E+03</rscale>
<asrwt>0</asrwt>
<pdfrwt beam="1">  1        1 0.44597258E-01 0.32661354E+03</pdfrwt>
<pdfrwt beam="2">  1       -1 0.14153815E-01 0.32661354E+03</pdfrwt>
<totfact> 0.32308754E+03</totfact>
</mgrwt>
</event>
<event>
 4    1  0.1777979E-004  0.3993648E+03  0.7818608E-02  0.1044000E+00
          2   -1    0    0  501    0  0.00000000000E+00  0.00000000000E+00  0.56924661514E+02  0.56924661514E+02  0.00000000000E+00 0. -1.
         -2   -1    0    0    0  501 -0.00000000000E+00 -0.00000000000E+00 -0.70045315622E+03  0.70045315622E+03  0.00000000000E+00 0. -1.
         25    1    1    2    0    0  0.52128072428E+02 -0.82726456490E+02 -0.82539578520E+02  0.17542458368E+03  0.12000000000E+03 0.  0.
         25    1    1    2    0    0 -0.52128072428E+02  0.82726456490E+02 -0.56098891619E+03  0.58195323405E+03  0.12000000000E+03 0.  0.
<mgrwt>
<rscale>  0 0.39936479E+03</rscale>
<asrwt>0</asrwt>
<pdfrwt beam="1">  1        2 0.87576401E-02 0.39936479E+03</pdfrwt>
<pdfrwt beam="2">  1       -2 0.10776203E+00 0.39936479E+03</pdfrwt>
<totfact> 0.54784384E+02</totfact>
</mgrwt>
</event>
<event>
 4    1  0.1777979E-004  0.2661211E+03  0.7818608E-02  0.1103520E+00
          1   -1    0    0  501    0  0.00000000000E+00  0.00000000000E+00  0.12983996332E+04  0.12983996332E+04  0.00000000000E+00 0.  1.
         -1   -1    0    0    0  501 -0.00000000000E+00 -0.00000000000E+00 -0.13636099162E+02  0.13636099162E+02  0.00000000000E+00 0.  1.
         25    1    1    2    0    0 -0.18247054723E+02  0.43293489930E+02  0.47902657851E+03  0.49605820646E+03  0.12000000000E+03 0.  0.
         25    1    1    2    0    0  0.18247054723E+02 -0.43293489930E+02  0.80573695549E+03  0.81597752587E+03  0.12000000000E+03 0.  0.
<mgrwt>
<rscale>  0 0.26612107E+03</rscale>
<asrwt>0</asrwt>
<pdfrwt beam="1">  1        1 0.19975369E+00 0.26612107E+03</pdfrwt>
<pdfrwt beam="2">  1       -1 0.20978624E-02 0.26612107E+03</pdfrwt>
<totfact> 0.62491779E+03</totfact>
</mgrwt>
</event>
<event>
 4    1  0.1777979E-004  0.2518383E+03  0.7818608E-02  0.1112149E+00
         -1   -1    0    0    0  501 -0.00000000000E+00  0.00000000000E+00  0.70914083093E+01  0.70914083093E+01  0.00000000000E+00 0. -1.
          1   -1    0    0  501    0  0.00000000000E+00 -0.00000000000E+00 -0.22358938213E+04  0.22358938213E+04  0.00000000000E+00 0. -1.
         25    1    1    2    0    0 -0.11208749977E+02  0.31369463644E+02 -0.94874204621E+03  0.95688094848E+03  0.12000000000E+03 0.  0.
         25    1    1    2    0    0  0.11208749977E+02 -0.31369463644E+02 -0.12800603668E+04  0.12861042811E+04  0.12000000000E+03 0.  0.
<mgrwt>
<rscale>  0 0.25183833E+03</rscale>
<asrwt>0</asrwt>
<pdfrwt beam="1">  1        1 0.34398359E+00 0.25183833E+03</pdfrwt>
<pdfrwt beam="2">  1       -1 0.10909861E-02 0.25183833E+03</pdfrwt>
<totfact> 0.39262852E+03</totfact>
</mgrwt>
</event>
<event>
 4    1  0.1777979E-004  0.2500362E+03  0.7818608E-02  0.1113282E+00
         -2   -1    0    0    0  501 -0.00000000000E+00  0.00000000000E+00  0.10600839487E+02  0.10600839487E+02  0.00000000000E+00 0.  1.
          2   -1    0    0  501    0  0.00000000000E+00 -0.00000000000E+00 -0.14743668712E+04  0.14743668712E+04  0.00000000000E+00 0.  1.
         25    1    1    2    0    0 -0.16527618660E+02  0.26359576146E+00 -0.54822494417E+03  0.56144796826E+03  0.12000000000E+03 0.  0.
         25    1    1    2    0    0  0.16527618660E+02 -0.26359576146E+00 -0.91554108756E+03  0.92351974243E+03  0.12000000000E+03 0.  0.
<mgrwt>
<rscale>  0 0.25003621E+03</rscale>
<asrwt>0</asrwt>
<pdfrwt beam="1">  1        2 0.22682551E+00 0.25003621E+03</pdfrwt>
<pdfrwt beam="2">  1       -2 0.16308995E-02 0.25003621E+03</pdfrwt>
<totfact> 0.14647921E+04</totfact>
</mgrwt>
</event>
<event>
 4    1  0.1777979E-004  0.4457137E+03  0.7818608E-02  0.1029008E+00
          3   -1    0    0  501    0  0.00000000000E+00  0.00000000000E+00  0.82346477874E+03  0.82346477874E+03  0.00000000000E+00 0.  1.
         -3   -1    0    0    0  501 -0.00000000000E+00 -0.00000000000E+00 -0.60312440130E+02  0.60312440130E+02  0.00000000000E+00 0.  1.
         25    1    1    2    0    0  0.60262233278E+02  0.89485789431E+00  0.28916427858E+02  0.13736264896E+03  0.12000000000E+03 0.  0.
         25    1    1    2    0    0 -0.60262233278E+02 -0.89485789431E+00  0.73423591075E+03  0.74641456991E+03  0.12000000000E+03 0.  0.
<mgrwt>
<rscale>  0 0.44571368E+03</rscale>
<asrwt>0</asrwt>
<pdfrwt beam="1">  1        3 0.12668688E+00 0.44571368E+03</pdfrwt>
<pdfrwt beam="2">  1       -3 0.92788376E-02 0.44571368E+03</pdfrwt>
<totfact> 0.11274714E+02</totfact>
</mgrwt>
</event>
<event>
 4    1  0.1777979E-004  0.3214829E+03  0.7818608E-02  0.1074969E+00
          1   -1    0    0  501    0  0.00000000000E+00  0.00000000000E+00  0.41995652796E+03  0.41995652796E+03  0.00000000000E+00 0. -1.
         -1   -1    0    0    0  501 -0.00000000000E+00 -0.00000000000E+00 -0.61524964619E+02  0.61524964619E+02  0.00000000000E+00 0. -1.
         25    1    1    2    0    0  0.88397955824E+02  0.48955423900E+02  0.23167722161E+03  0.27979486618E+03  0.12000000000E+03 0.  0.
         25    1    1    2    0    0 -0.88397955824E+02 -0.48955423900E+02  0.12675434172E+03  0.20168662640E+03  0.12000000000E+03 0.  0.
<mgrwt>
<rscale>  0 0.32148288E+03</rscale>
<asrwt>0</asrwt>
<pdfrwt beam="1">  1        1 0.64608695E-01 0.32148288E+03</pdfrwt>
<pdfrwt beam="2">  1       -1 0.94653794E-02 0.32148288E+03</pdfrwt>
<totfact> 0.37785385E+03</totfact>
</mgrwt>
</event>
<event>
 4    1  0.1777979E-004  0.2530455E+03  0.7818608E-02  0.1111395E+00
         -1   -1    0    0    0  501 -0.00000000000E+00  0.00000000000E+00  0.12220909692E+03  0.12220909692E+03  0.00000000000E+00 0. -1.
          1   -1    0    0  501    0  0.00000000000E+00 -0.00000000000E+00 -0.13098868803E+03  0.13098868803E+03  0.00000000000E+00 0. -1.
         25    1    1    2    0    0  0.15242670000E+02  0.21740267918E+02 -0.34458352116E+02  0.12764151467E+03  0.12000000000E+03 0.  0.
         25    1    1    2    0    0 -0.15242670000E+02 -0.21740267918E+02  0.25678761010E+02  0.12555627027E+03  0.12000000000E+03 0.  0.
<mgrwt>
<rscale>  0 0.25304552E+03</rscale>
<asrwt>0</asrwt>
<pdfrwt beam="1">  1        1 0.20152106E-01 0.25304552E+03</pdfrwt>
<pdfrwt beam="2">  1       -1 0.18801399E-01 0.25304552E+03</pdfrwt>
<totfact> 0.55749896E+03</totfact>
</mgrwt>
</event>
<event>
 4    1  0.1777979E-004  0.3085544E+03  0.7818608E-02  0.1081041E+00
         -1   -1    0    0    0  501 -0.00000000000E+00  0.00000000000E+00  0.10564305453E+03  0.10564305453E+03  0.00000000000E+00 0. -1.
          1   -1    0    0  501    0  0.00000000000E+00 -0.00000000000E+00 -0.22530066455E+03  0.22530066455E+03  0.00000000000E+00 0. -1.
         25    1    1    2    0    0  0.74558651029E+02 -0.56494916058E+02 -0.87190332470E+02  0.17536482561E+03  0.12000000000E+03 0.  0.
         25    1    1    2    0    0 -0.74558651029E+02  0.56494916058E+02 -0.32467277556E+02  0.15557889348E+03  0.12000000000E+03 0.  0.
<mgrwt>
<rscale>  0 0.30855437E+03</rscale>
<asrwt>0</asrwt>
<pdfrwt beam="1">  1        1 0.34661640E-01 0.30855437E+03</pdfrwt>
<pdfrwt beam="2">  1       -1 0.16252778E-01 0.30855437E+03</pdfrwt>
<totfact> 0.35572734E+03</totfact>
</mgrwt>
</event>
<event>
 4    1  0.1777979E-004  0.2950922E+03  0.7818608E-02  0.1087720E+00
         -1   -1    0    0    0  501 -0.00000000000E+00  0.00000000000E+00  0.64925087259E+02  0.64925087259E+02  0.00000000000E+00 0. -1.
          1   -1    0    0  501    0  0.00000000000E+00 -0.00000000000E+00 -0.33530724960E+03  0.33530724960E+03  0.00000000000E+00 0. -1.
         25    1    1    2    0    0 -0.36100995460E+02  0.25085396254E+02 -0.35180529487E+02  0.13255273906E+03  0.12000000000E+03 0.  0.
         25    1    1    2    0    0  0.36100995460E+02 -0.25085396254E+02 -0.23520163285E+03  0.26767959779E+03  0.12000000000E+03 0.  0.
<mgrwt>
<rscale>  0 0.29509221E+03</rscale>
<asrwt>0</asrwt>
<pdfrwt beam="1">  1        1 0.51585730E-01 0.29509221E+03</pdfrwt>
<pdfrwt beam="2">  1       -1 0.99884752E-02 0.29509221E+03</pdfrwt>
<totfact> 0.46294085E+03</totfact>
</mgrwt>
</event>
<event>
 4    1  0.1777979E-004  0.2493927E+03  0.7818608E-02  0.1113689E+00
         -2   -1    0    0    0  501 -0.00000000000E+00  0.00000000000E+00  0.39151521678E+02  0.39151521678E+02  0.00000000000E+00 0. -1.
          2   -1    0    0  501    0  0.00000000000E+00 -0.00000000000E+00 -0.39715383781E+03  0.39715383781E+03  0.00000000000E+00 0. -1.
         25    1    1    2    0    0 -0.26602483432E+02  0.83955041095E+01 -0.14530393747E+03  0.19050304685E+03  0.12000000000E+03 0.  0.
         25    1    1    2    0    0  0.26602483432E+02 -0.83955041095E+01 -0.21269837866E+03  0.24580231264E+03  0.12000000000E+03 0.  0.
<mgrwt>
<rscale>  0 0.24939268E+03</rscale>
<asrwt>0</asrwt>
<pdfrwt beam="1">  1        2 0.61100589E-01 0.24939268E+03</pdfrwt>
<pdfrwt beam="2">  1       -2 0.60233111E-02 0.24939268E+03</pdfrwt>
<totfact> 0.11684124E+04</totfact>
</mgrwt>
</event>
<event>
 4    1  0.1777979E-004  0.3144054E+03  0.7818608E-02  0.1078253E+00
          2   -1    0    0  501    0  0.00000000000E+00  0.00000000000E+00  0.36987048253E+03  0.36987048253E+03  0.00000000000E+00 0. -1.
         -2   -1    0    0    0  501 -0.00000000000E+00 -0.00000000000E+00 -0.66814452746E+02  0.66814452746E+02  0.00000000000E+00 0. -1.
         25    1    1    2    0    0 -0.94985231310E+02  0.14637582002E+02  0.19709317666E+03  0.24996434398E+03  0.12000000000E+03 0.  0.
         25    1    1    2    0    0  0.94985231310E+02 -0.14637582002E+02  0.10596285313E+03  0.18672059130E+03  0.12000000000E+03 0.  0.
<mgrwt>
<rscale>  0 0.31440543E+03</rscale>
<asrwt>0</asrwt>
<pdfrwt beam="1">  1        2 0.56903150E-01 0.31440543E+03</pdfrwt>
<pdfrwt beam="2">  1       -2 0.10279147E-01 0.31440543E+03</pdfrwt>
<totfact> 0.55219803E+03</totfact>
</mgrwt>
</event>
<event>
 4    1  0.1777979E-004  0.3054227E+03  0.7818608E-02  0.1082561E+00
         -1   -1    0    0    0  501 -0.00000000000E+00  0.00000000000E+00  0.46124940610E+03  0.46124940610E+03  0.00000000000E+00 0.  1.
          1   -1    0    0  501    0  0.00000000000E+00 -0.00000000000E+00 -0.50559973271E+02  0.50559973271E+02  0.00000000000E+00 0.  1.
         25    1    1    2    0    0  0.16149358658E+01 -0.76913799430E+02  0.29716580309E+03  0.32958436717E+03  0.12000000000E+03 0.  0.
         25    1    1    2    0    0 -0.16149358658E+01  0.76913799430E+02  0.11352362974E+03  0.18222501220E+03  0.12000000000E+03 0.  0.
<mgrwt>
<rscale>  0 0.30542271E+03</rscale>
<asrwt>0</asrwt>
<pdfrwt beam="1">  1        1 0.77784577E-02 0.30542271E+03</pdfrwt>
<pdfrwt beam="2">  1       -1 0.70961444E-01 0.30542271E+03</pdfrwt>
<totfact> 0.18866735E+03</totfact>
</mgrwt>
</event>
<event>
 4    1  0.1777979E-004  0.2654109E+03  0.7818608E-02  0.1103935E+00
          2   -1    0    0  501    0  0.00000000000E+00  0.00000000000E+00  0.37595746236E+03  0.37595746236E+03  0.00000000000E+00 0. -1.
         -2   -1    0    0    0  501 -0.00000000000E+00 -0.00000000000E+00 -0.46842380162E+02  0.46842380162E+02  0.00000000000E+00 0. -1.
         25    1    1    2    0    0 -0.19618132764E+02 -0.27562791948E+01  0.79989239382E+02  0.14557041810E+03  0.12000000000E+03 0.  0.
         25    1    1    2    0    0  0.19618132764E+02  0.27562791948E+01  0.24912584281E+03  0.27722942442E+03  0.12000000000E+03 0.  0.
<mgrwt>
<rscale>  0 0.26541094E+03</rscale>
<asrwt>0</asrwt>
<pdfrwt beam="1">  1        2 0.57839607E-01 0.26541094E+03</pdfrwt>
<pdfrwt beam="2">  1       -2 0.72065203E-02 0.26541094E+03</pdfrwt>
<totfact> 0.94306846E+03</totfact>
</mgrwt>
</event>
<event>
 4    1  0.1777979E-004  0.2580840E+03  0.7818608E-02  0.1108300E+00
         -2   -1    0    0    0  501 -0.00000000000E+00  0.00000000000E+00  0.25121687591E+02  0.25121687591E+02  0.00000000000E+00 0.  1.
          2   -1    0    0  501    0  0.00000000000E+00 -0.00000000000E+00 -0.66284709049E+03  0.66284709049E+03  0.00000000000E+00 0.  1.
         25    1    1    2    0    0 -0.44508233231E+02  0.13386399105E+02 -0.34438355876E+03  0.36764142048E+03  0.12000000000E+03 0.  0.
         25    1    1    2    0    0  0.44508233231E+02 -0.13386399105E+02 -0.29334184414E+03  0.32032735761E+03  0.12000000000E+03 0.  0.
<mgrwt>
<rscale>  0 0.25808400E+03</rscale>
<asrwt>0</asrwt>
<pdfrwt beam="1">  1        2 0.10197646E+00 0.25808400E+03</pdfrwt>
<pdfrwt beam="2">  1       -2 0.38648756E-02 0.25808400E+03</pdfrwt>
<totfact> 0.12871867E+04</totfact>
</mgrwt>
</event>
<event>
 4    1  0.1777979E-004  0.2737318E+03  0.7818608E-02  0.1099163E+00
         -2   -1    0    0    0  501 -0.00000000000E+00  0.00000000000E+00  0.28046501050E+02  0.28046501050E+02  0.00000000000E+00 0.  1.
          2   -1    0    0  501    0  0.00000000000E+00 -0.00000000000E+00 -0.66790057019E+03  0.66790057019E+03  0.00000000000E+00 0.  1.
         25    1    1    2    0    0 -0.35496845792E+01 -0.55034075717E+02 -0.41127552003E+03  0.43195937671E+03  0.12000000000E+03 0.  0.
         25    1    1    2    0    0  0.35496845792E+01  0.55034075717E+02 -0.22857854911E+03  0.26398769453E+03  0.12000000000E+03 0.  0.
<mgrwt>
<rscale>  0 0.27373180E+03</rscale>
<asrwt>0</asrwt>
<pdfrwt beam="1">  1        2 0.10275393E+00 0.27373180E+03</pdfrwt>
<pdfrwt beam="2">  1       -2 0.43148464E-02 0.27373180E+03</pdfrwt>
<totfact> 0.10833396E+04</totfact>
</mgrwt>
</event>
<event>
 4    1  0.1777979E-004  0.3152336E+03  0.7818608E-02  0.1077864E+00
          2   -1    0    0  501    0  0.00000000000E+00  0.00000000000E+00  0.17241779978E+04  0.17241779978E+04  0.00000000000E+00 0.  1.
         -2   -1    0    0    0  501 -0.00000000000E+00 -0.00000000000E+00 -0.14408638604E+02  0.14408638604E+02  0.00000000000E+00 0.  1.
         25    1    1    2    0    0  0.31137498125E+02  0.55149267069E+02  0.12972074261E+04  0.13042845133E+04  0.12000000000E+03 0.  0.
         25    1    1    2    0    0 -0.31137498125E+02 -0.55149267069E+02  0.41256193316E+03  0.43430212311E+03  0.12000000000E+03 0.  0.
<mgrwt>
<rscale>  0 0.31523361E+03</rscale>
<asrwt>0</asrwt>
<pdfrwt beam="1">  1        2 0.26525799E+00 0.31523361E+03</pdfrwt>
<pdfrwt beam="2">  1       -2 0.22167150E-02 0.31523361E+03</pdfrwt>
<totfact> 0.69001344E+03</totfact>
</mgrwt>
</event>
<event>
 4    1  0.1777979E-004  0.3199533E+03  0.7818608E-02  0.1075671E+00
         -1   -1    0    0    0  501 -0.00000000000E+00  0.00000000000E+00  0.24964987865E+02  0.24964987865E+02  0.00000000000E+00 0. -1.
          1   -1    0    0  501    0  0.00000000000E+00 -0.00000000000E+00 -0.10251369442E+04  0.10251369442E+04  0.00000000000E+00 0. -1.
         25    1    1    2    0    0 -0.90844420814E+01 -0.72482366108E+02 -0.75124969505E+03  0.76427241531E+03  0.12000000000E+03 0.  0.
         25    1    1    2    0    0  0.90844420814E+01  0.72482366108E+02 -0.24892226124E+03  0.28582951671E+03  0.12000000000E+03 0.  0.
<mgrwt>
<rscale>  0 0.31995332E+03</rscale>
<asrwt>0</asrwt>
<pdfrwt beam="1">  1        1 0.15771337E+00 0.31995332E+03</pdfrwt>
<pdfrwt beam="2">  1       -1 0.38407676E-02 0.31995332E+03</pdfrwt>
<totfact> 0.40104932E+03</totfact>
</mgrwt>
</event>
<event>
 4    1  0.1777979E-004  0.2681460E+03  0.7818608E-02  0.1102345E+00
         -2   -1    0    0    0  501 -0.00000000000E+00  0.00000000000E+00  0.62158531721E+02  0.62158531721E+02  0.00000000000E+00 0.  1.
          2   -1    0    0  501    0  0.00000000000E+00 -0.00000000000E+00 -0.28918906447E+03  0.28918906447E+03  0.00000000000E+00 0.  1.
         25    1    1    2    0    0 -0.55686249967E+02 -0.17622471513E+02 -0.96732482848E+02  0.16482925461E+03  0.12000000000E+03 0.  0.
         25    1    1    2    0    0  0.55686249967E+02  0.17622471513E+02 -0.13029804990E+03  0.18651834158E+03  0.12000000000E+03 0.  0.
<mgrwt>
<rscale>  0 0.26814599E+03</rscale>
<asrwt>0</asrwt>
<pdfrwt beam="1">  1        2 0.44490625E-01 0.26814599E+03</pdfrwt>
<pdfrwt beam="2">  1       -2 0.95628511E-02 0.26814599E+03</pdfrwt>
<totfact> 0.80363810E+03</totfact>
</mgrwt>
</event>
<event>
 4    1  0.1777979E-004  0.2632308E+03  0.7818608E-02  0.1105218E+00
          2   -1    0    0  501    0  0.00000000000E+00  0.00000000000E+00  0.21955883008E+04  0.21955883008E+04  0.00000000000E+00 0. -1.
         -2   -1    0    0    0  501 -0.00000000000E+00 -0.00000000000E+00 -0.78897355143E+01  0.78897355143E+01  0.00000000000E+00 0. -1.
         25    1    1    2    0    0  0.10350520787E+02 -0.31470962024E+02  0.73623884814E+03  0.74668949118E+03  0.12000000000E+03 0.  0.
         25    1    1    2    0    0 -0.10350520787E+02  0.31470962024E+02  0.14514597171E+04  0.14567885451E+04  0.12000000000E+03 0.  0.
<mgrwt>
<rscale>  0 0.26323078E+03</rscale>
<asrwt>0</asrwt>
<pdfrwt beam="1">  1        2 0.33778233E+00 0.26323078E+03</pdfrwt>
<pdfrwt beam="2">  1       -2 0.12138072E-02 0.26323078E+03</pdfrwt>
<totfact> 0.94077400E+03</totfact>
</mgrwt>
</event>
<event>
 4    1  0.1777979E-004  0.2643490E+03  0.7818608E-02  0.1104558E+00
         -2   -1    0    0    0  501 -0.00000000000E+00  0.00000000000E+00  0.15796571810E+02  0.15796571810E+02  0.00000000000E+00 0.  1.
          2   -1    0    0  501    0  0.00000000000E+00 -0.00000000000E+00 -0.11059426994E+04  0.11059426994E+04  0.00000000000E+00 0.  1.
         25    1    1    2    0    0  0.28381404496E+02 -0.46676574260E+01 -0.74603353479E+03  0.75617017012E+03  0.12000000000E+03 0.  0.
         25    1    1    2    0    0 -0.28381404496E+02  0.46676574260E+01 -0.34411259277E+03  0.36556910106E+03  0.12000000000E+03 0.  0.
<mgrwt>
<rscale>  0 0.26434904E+03</rscale>
<asrwt>0</asrwt>
<pdfrwt beam="1">  1        2 0.17014503E+00 0.26434904E+03</pdfrwt>
<pdfrwt beam="2">  1       -2 0.24302419E-02 0.26434904E+03</pdfrwt>
<totfact> 0.13087260E+04</totfact>
</mgrwt>
</event>
<event>
 4    1  0.1777979E-004  0.3053028E+03  0.7818608E-02  0.1082619E+00
          3   -1    0    0  501    0  0.00000000000E+00  0.00000000000E+00  0.35700757429E+03  0.35700757429E+03  0.00000000000E+00 0. -1.
         -3   -1    0    0    0  501 -0.00000000000E+00 -0.00000000000E+00 -0.65271603584E+02  0.65271603584E+02  0.00000000000E+00 0. -1.
         25    1    1    2    0    0 -0.84220284458E+02  0.36496523392E+02  0.17608920539E+03  0.23201823374E+03  0.12000000000E+03 0.  0.
         25    1    1    2    0    0  0.84220284458E+02 -0.36496523392E+02  0.11564676532E+03  0.19026094413E+03  0.12000000000E+03 0.  0.
<mgrwt>
<rscale>  0 0.30530285E+03</rscale>
<asrwt>0</asrwt>
<pdfrwt beam="1">  1        3 0.54924241E-01 0.30530285E+03</pdfrwt>
<pdfrwt beam="2">  1       -3 0.10041785E-01 0.30530285E+03</pdfrwt>
<totfact> 0.62097248E+02</totfact>
</mgrwt>
</event>
<event>
 4    1  0.1777979E-004  0.3209606E+03  0.7818608E-02  0.1075208E+00
         -2   -1    0    0    0  501 -0.00000000000E+00  0.00000000000E+00  0.77596975010E+02  0.77596975010E+02  0.00000000000E+00 0. -1.
          2   -1    0    0  501    0  0.00000000000E+00 -0.00000000000E+00 -0.33189340215E+03  0.33189340215E+03  0.00000000000E+00 0. -1.
         25    1    1    2    0    0 -0.73641208953E+02  0.20318269017E+02 -0.22192137739E+03  0.26359999517E+03  0.12000000000E+03 0.  0.
         25    1    1    2    0    0  0.73641208953E+02 -0.20318269017E+02 -0.32375049757E+02  0.14589038199E+03  0.12000000000E+03 0.  0.
<mgrwt>
<rscale>  0 0.32096058E+03</rscale>
<asrwt>0</asrwt>
<pdfrwt beam="1">  1        2 0.51060523E-01 0.32096058E+03</pdfrwt>
<pdfrwt beam="2">  1       -2 0.11937996E-01 0.32096058E+03</pdfrwt>
<totfact> 0.48848159E+03</totfact>
</mgrwt>
</event>
<event>
 4    1  0.1777979E-004  0.2549248E+03  0.7818608E-02  0.1110231E+00
          1   -1    0    0  501    0  0.00000000000E+00  0.00000000000E+00  0.11356545601E+04  0.11356545601E+04  0.00000000000E+00 0.  1.
         -1   -1    0    0    0  501 -0.00000000000E+00 -0.00000000000E+00 -0.14305985317E+02  0.14305985317E+02  0.00000000000E+00 0.  1.
         25    1    1    2    0    0 -0.14465493317E+02 -0.40464723215E+02  0.56015719885E+03  0.57447604975E+03  0.12000000000E+03 0.  0.
         25    1    1    2    0    0  0.14465493317E+02  0.40464723215E+02  0.56119137591E+03  0.57548449564E+03  0.12000000000E+03 0.  0.
<mgrwt>
<rscale>  0 0.25492475E+03</rscale>
<asrwt>0</asrwt>
<pdfrwt beam="1">  1        1 0.17471602E+00 0.25492475E+03</pdfrwt>
<pdfrwt beam="2">  1       -1 0.22009217E-02 0.25492475E+03</pdfrwt>
<totfact> 0.75552025E+03</totfact>
</mgrwt>
</event>
<event>
 4    1  0.1777979E-004  0.3556288E+03  0.7818608E-02  0.1060328E+00
          1   -1    0    0  501    0  0.00000000000E+00  0.00000000000E+00  0.13601896590E+04  0.13601896590E+04  0.00000000000E+00 0. -1.
         -1   -1    0    0    0  501 -0.00000000000E+00 -0.00000000000E+00 -0.23245257591E+02  0.23245257591E+02  0.00000000000E+00 0. -1.
         25    1    1    2    0    0 -0.12883701338E+01 -0.12914903441E+03  0.75860411504E+03  0.77882047761E+03  0.12000000000E+03 0.  0.
         25    1    1    2    0    0  0.12883701338E+01  0.12914903441E+03  0.57834028633E+03  0.60461443894E+03  0.12000000000E+03 0.  0.
<mgrwt>
<rscale>  0 0.35562879E+03</rscale>
<asrwt>0</asrwt>
<pdfrwt beam="1">  1        1 0.20925989E+00 0.35562879E+03</pdfrwt>
<pdfrwt beam="2">  1       -1 0.35761945E-02 0.35562879E+03</pdfrwt>
<totfact> 0.25827169E+03</totfact>
</mgrwt>
</event>
<event>
 4    1  0.1777979E-004  0.2436630E+03  0.7818608E-02  0.1117376E+00
          2   -1    0    0  501    0  0.00000000000E+00  0.00000000000E+00  0.81796750243E+02  0.81796750243E+02  0.00000000000E+00 0. -1.
         -2   -1    0    0    0  501 -0.00000000000E+00 -0.00000000000E+00 -0.18146088455E+03  0.18146088455E+03  0.00000000000E+00 0. -1.
         25    1    1    2    0    0  0.10281482253E+02  0.11377353527E+02 -0.65404981856E+02  0.13752441493E+03  0.12000000000E+03 0.  0.
         25    1    1    2    0    0 -0.10281482253E+02 -0.11377353527E+02 -0.34259152454E+02  0.12573321986E+03  0.12000000000E+03 0.  0.
<mgrwt>
<rscale>  0 0.24366297E+03</rscale>
<asrwt>0</asrwt>
<pdfrwt beam="1">  1        2 0.12584116E-01 0.24366297E+03</pdfrwt>
<pdfrwt beam="2">  1       -2 0.27917059E-01 0.24366297E+03</pdfrwt>
<totfact> 0.55431931E+03</totfact>
</mgrwt>
</event>
<event>
 4    1  0.1777979E-004  0.5551531E+03  0.7818608E-02  0.1000308E+00
          1   -1    0    0  501    0  0.00000000000E+00  0.00000000000E+00  0.33266420076E+03  0.33266420076E+03  0.00000000000E+00 0. -1.
         -1   -1    0    0    0  501 -0.00000000000E+00 -0.00000000000E+00 -0.23161114100E+03  0.23161114100E+03  0.00000000000E+00 0. -1.
         25    1    1    2    0    0 -0.20693296998E+03  0.10307655982E+02 -0.92213359291E+02  0.25657514585E+03  0.12000000000E+03 0.  0.
         25    1    1    2    0    0  0.20693296998E+03 -0.10307655982E+02  0.19326641905E+03  0.30770019592E+03  0.12000000000E+03 0.  0.
<mgrwt>
<rscale>  0 0.55515308E+03</rscale>
<asrwt>0</asrwt>
<pdfrwt beam="1">  1        1 0.51179108E-01 0.55515308E+03</pdfrwt>
<pdfrwt beam="2">  1       -1 0.35632483E-01 0.55515308E+03</pdfrwt>
<totfact> 0.58088743E+02</totfact>
</mgrwt>
</event>
<event>
 4    1  0.1777979E-004  0.3842588E+03  0.7818608E-02  0.1049371E+00
         -3   -1    0    0    0  501 -0.00000000000E+00  0.00000000000E+00  0.41099036984E+03  0.41099036984E+03  0.00000000000E+00 0.  1.
          3   -1    0    0  501    0  0.00000000000E+00 -0.00000000000E+00 -0.89816467700E+02  0.89816467700E+02  0.00000000000E+00 0.  1.
         25    1    1    2    0    0 -0.30623808259E+02 -0.14650250325E+03  0.17443528798E+03  0.25928453634E+03  0.12000000000E+03 0.  0.
         25    1    1    2    0    0  0.30623808259E+02  0.14650250325E+03  0.14673861416E+03  0.24152230120E+03  0.12000000000E+03 0.  0.
<mgrwt>
<rscale>  0 0.38425878E+03</rscale>
<asrwt>0</asrwt>
<pdfrwt beam="1">  1        3 0.13817918E-01 0.38425878E+03</pdfrwt>
<pdfrwt beam="2">  1       -3 0.63229287E-01 0.38425878E+03</pdfrwt>
<totfact> 0.27406653E+02</totfact>
</mgrwt>
</event>
<event>
 4    1  0.1777979E-004  0.3621935E+03  0.7818608E-02  0.1057719E+00
          2   -1    0    0  501    0  0.00000000000E+00  0.00000000000E+00  0.54930518066E+03  0.54930518066E+03  0.00000000000E+00 0. -1.
         -2   -1    0    0    0  501 -0.00000000000E+00 -0.00000000000E+00 -0.59704587918E+02  0.59704587918E+02  0.00000000000E+00 0. -1.
         25    1    1    2    0    0 -0.51952933779E-01 -0.10461887984E+03  0.99659764730E+02  0.18782220695E+03  0.12000000000E+03 0.  0.
         25    1    1    2    0    0  0.51952933779E-01  0.10461887984E+03  0.38994082801E+03  0.42118756163E+03  0.12000000000E+03 0.  0.
<mgrwt>
<rscale>  0 0.36219354E+03</rscale>
<asrwt>0</asrwt>
<pdfrwt beam="1">  1        2 0.84508486E-01 0.36219354E+03</pdfrwt>
<pdfrwt beam="2">  1       -2 0.91853216E-02 0.36219354E+03</pdfrwt>
<totfact> 0.42684103E+03</totfact>
</mgrwt>
</event>
<event>
 4    1  0.1777979E-004  0.3586808E+03  0.7818608E-02  0.1059107E+00
         -1   -1    0    0    0  501 -0.00000000000E+00  0.00000000000E+00  0.41316218171E+03  0.41316218171E+03  0.00000000000E+00 0. -1.
          1   -1    0    0  501    0  0.00000000000E+00 -0.00000000000E+00 -0.77845875599E+02  0.77845875599E+02  0.00000000000E+00 0. -1.
         25    1    1    2    0    0 -0.28765105808E+02  0.12724681945E+03  0.20499219014E+03  0.27099996751E+03  0.12000000000E+03 0.  0.
         25    1    1    2    0    0  0.28765105808E+02 -0.12724681945E+03  0.13032411597E+03  0.22000808979E+03  0.12000000000E+03 0.  0.
<mgrwt>
<rscale>  0 0.35868076E+03</rscale>
<asrwt>0</asrwt>
<pdfrwt beam="1">  1        1 0.11976289E-01 0.35868076E+03</pdfrwt>
<pdfrwt beam="2">  1       -1 0.63563411E-01 0.35868076E+03</pdfrwt>
<totfact> 0.13112053E+03</totfact>
</mgrwt>
</event>
<event>
 4    1  0.1777979E-004  0.2659119E+03  0.7818608E-02  0.1103642E+00
         -2   -1    0    0    0  501 -0.00000000000E+00  0.00000000000E+00  0.16287988518E+02  0.16287988518E+02  0.00000000000E+00 0. -1.
          2   -1    0    0  501    0  0.00000000000E+00 -0.00000000000E+00 -0.10852960738E+04  0.10852960738E+04  0.00000000000E+00 0. -1.
         25    1    1    2    0    0 -0.45914856811E+02 -0.33375167218E+02 -0.56528661481E+03  0.58066430297E+03  0.12000000000E+03 0.  0.
         25    1    1    2    0    0  0.45914856811E+02  0.33375167218E+02 -0.50372147049E+03  0.52091975936E+03  0.12000000000E+03 0.  0.
<mgrwt>
<rscale>  0 0.26591194E+03</rscale>
<asrwt>0</asrwt>
<pdfrwt beam="1">  1        2 0.16696870E+00 0.26591194E+03</pdfrwt>
<pdfrwt beam="2">  1       -2 0.25058433E-02 0.26591194E+03</pdfrwt>
<totfact> 0.12864660E+04</totfact>
</mgrwt>
</event>
<event>
 4    1  0.1777979E-004  0.2760185E+03  0.7818608E-02  0.1097884E+00
         -2   -1    0    0    0  501 -0.00000000000E+00  0.00000000000E+00  0.12689074747E+02  0.12689074747E+02  0.00000000000E+00 0.  1.
          2   -1    0    0  501    0  0.00000000000E+00 -0.00000000000E+00 -0.15010197199E+04  0.15010197199E+04  0.00000000000E+00 0.  1.
         25    1    1    2    0    0 -0.64626487825E+02  0.13446440562E+02 -0.65090979811E+03  0.66516235234E+03  0.12000000000E+03 0.  0.
         25    1    1    2    0    0  0.64626487825E+02 -0.13446440562E+02 -0.83742084708E+03  0.84854644235E+03  0.12000000000E+03 0.  0.
<mgrwt>
<rscale>  0 0.27601849E+03</rscale>
<asrwt>0</asrwt>
<pdfrwt beam="1">  1        2 0.23092595E+00 0.27601849E+03</pdfrwt>
<pdfrwt beam="2">  1       -2 0.19521667E-02 0.27601849E+03</pdfrwt>
<totfact> 0.10917815E+04</totfact>
</mgrwt>
</event>
<event>
 4    1  0.1777979E-004  0.2466628E+03  0.7818608E-02  0.1115432E+00
         -1   -1    0    0    0  501 -0.00000000000E+00  0.00000000000E+00  0.89334588288E+01  0.89334588288E+01  0.00000000000E+00 0.  1.
          1   -1    0    0  501    0  0.00000000000E+00 -0.00000000000E+00 -0.17026585336E+04  0.17026585336E+04  0.00000000000E+00 0.  1.
         25    1    1    2    0    0 -0.92169257374E+01 -0.26927981224E+02 -0.85206454565E+03  0.86094370190E+03  0.12000000000E+03 0.  0.
         25    1    1    2    0    0  0.92169257374E+01  0.26927981224E+02 -0.84166052907E+03  0.85064829048E+03  0.12000000000E+03 0.  0.
<mgrwt>
<rscale>  0 0.24666276E+03</rscale>
<asrwt>0</asrwt>
<pdfrwt beam="1">  1        1 0.26194718E+00 0.24666276E+03</pdfrwt>
<pdfrwt beam="2">  1       -1 0.13743798E-02 0.24666276E+03</pdfrwt>
<totfact> 0.62318661E+03</totfact>
</mgrwt>
</event>
<event>
 4    1  0.1777979E-004  0.2512980E+03  0.7818608E-02  0.1112487E+00
         -2   -1    0    0    0  501 -0.00000000000E+00  0.00000000000E+00  0.27911810331E+02  0.27911810331E+02  0.00000000000E+00 0. -1.
          2   -1    0    0  501    0  0.00000000000E+00 -0.00000000000E+00 -0.56562696105E+03  0.56562696105E+03  0.00000000000E+00 0. -1.
         25    1    1    2    0    0 -0.19507448620E+01  0.75561250637E+01 -0.35488921432E+03  0.37470956069E+03  0.12000000000E+03 0.  0.
         25    1    1    2    0    0  0.19507448620E+01 -0.75561250637E+01 -0.18282593640E+03  0.21882921069E+03  0.12000000000E+03 0.  0.
<mgrwt>
<rscale>  0 0.25129801E+03</rscale>
<asrwt>0</asrwt>
<pdfrwt beam="1">  1        2 0.87019533E-01 0.25129801E+03</pdfrwt>
<pdfrwt beam="2">  1       -2 0.42941247E-02 0.25129801E+03</pdfrwt>
<totfact> 0.13202470E+04</totfact>
</mgrwt>
</event>
<event>
 4    1  0.1777979E-004  0.2913658E+03  0.7818608E-02  0.1089638E+00
         -3   -1    0    0    0  501 -0.00000000000E+00  0.00000000000E+00  0.32507657523E+03  0.32507657523E+03  0.00000000000E+00 0.  1.
          3   -1    0    0  501    0  0.00000000000E+00 -0.00000000000E+00 -0.65287724147E+02  0.65287724147E+02  0.00000000000E+00 0.  1.
         25    1    1    2    0    0 -0.72332281293E+02  0.37339604062E+02  0.11107526083E+03  0.18265792760E+03  0.12000000000E+03 0.  0.
         25    1    1    2    0    0  0.72332281293E+02 -0.37339604062E+02  0.14871359026E+03  0.20770637177E+03  0.12000000000E+03 0.  0.
<mgrwt>
<rscale>  0 0.29136582E+03</rscale>
<asrwt>0</asrwt>
<pdfrwt beam="1">  1        3 0.10044265E-01 0.29136582E+03</pdfrwt>
<pdfrwt beam="2">  1       -3 0.50011780E-01 0.29136582E+03</pdfrwt>
<totfact> 0.74740230E+02</totfact>
</mgrwt>
</event>
<event>
 4    1  0.1777979E-004  0.2499332E+03  0.7818608E-02  0.1113347E+00
          2   -1    0    0  501    0  0.00000000000E+00  0.00000000000E+00  0.99247011036E+03  0.99247011036E+03  0.00000000000E+00 0.  1.
         -2   -1    0    0    0  501 -0.00000000000E+00 -0.00000000000E+00 -0.15735132409E+02  0.15735132409E+02  0.00000000000E+00 0.  1.
         25    1    1    2    0    0  0.32727019682E+01 -0.33518821787E+02  0.52499089613E+03  0.53958286019E+03  0.12000000000E+03 0.  0.
         25    1    1    2    0    0 -0.32727019682E+01  0.33518821787E+02  0.45174408181E+03  0.46862238257E+03  0.12000000000E+03 0.  0.
<mgrwt>
<rscale>  0 0.24993318E+03</rscale>
<asrwt>0</asrwt>
<pdfrwt beam="1">  1        2 0.15268766E+00 0.24993318E+03</pdfrwt>
<pdfrwt beam="2">  1       -2 0.24207904E-02 0.24993318E+03</pdfrwt>
<totfact> 0.15357988E+04</totfact>
</mgrwt>
</event>
<event>
 4    1  0.1777979E-004  0.2923166E+03  0.7818608E-02  0.1089146E+00
         -1   -1    0    0    0  501 -0.00000000000E+00  0.00000000000E+00  0.86522312455E+02  0.86522312455E+02  0.00000000000E+00 0.  1.
          1   -1    0    0  501    0  0.00000000000E+00 -0.00000000000E+00 -0.24689880829E+03  0.24689880829E+03  0.00000000000E+00 0.  1.
         25    1    1    2    0    0 -0.47856016635E+02 -0.66436910015E+02 -0.61860333656E+02  0.15789478212E+03  0.12000000000E+03 0.  0.
         25    1    1    2    0    0  0.47856016635E+02  0.66436910015E+02 -0.98516162176E+02  0.17552633862E+03  0.12000000000E+03 0.  0.
<mgrwt>
<rscale>  0 0.29231665E+03</rscale>
<asrwt>0</asrwt>
<pdfrwt beam="1">  1        1 0.37984432E-01 0.29231665E+03</pdfrwt>
<pdfrwt beam="2">  1       -1 0.13311125E-01 0.29231665E+03</pdfrwt>
<totfact> 0.43469850E+03</totfact>
</mgrwt>
</event>
<event>
 4    1  0.1777979E-004  0.3050482E+03  0.7818608E-02  0.1082744E+00
          3   -1    0    0  501    0  0.00000000000E+00  0.00000000000E+00  0.23705097968E+02  0.23705097968E+02  0.00000000000E+00 0. -1.
         -3   -1    0    0    0  501 -0.00000000000E+00 -0.00000000000E+00 -0.98137563124E+03  0.98137563124E+03  0.00000000000E+00 0. -1.
         25    1    1    2    0    0 -0.12101199345E+01 -0.27467007566E+01 -0.78887462658E+03  0.79795500200E+03  0.12000000000E+03 0.  0.
         25    1    1    2    0    0  0.12101199345E+01  0.27467007566E+01 -0.16879590669E+03  0.20712572721E+03  0.12000000000E+03 0.  0.
<mgrwt>
<rscale>  0 0.30504823E+03</rscale>
<asrwt>0</asrwt>
<pdfrwt beam="1">  1        3 0.36469382E-02 0.30504823E+03</pdfrwt>
<pdfrwt beam="2">  1       -3 0.15098087E+00 0.30504823E+03</pdfrwt>
<totfact> 0.32253389E+02</totfact>
</mgrwt>
</event>
<event>
 4    1  0.1777979E-004  0.2413573E+03  0.7818608E-02  0.1118892E+00
          2   -1    0    0  501    0  0.00000000000E+00  0.00000000000E+00  0.23069597689E+04  0.23069597689E+04  0.00000000000E+00 0.  1.
         -2   -1    0    0    0  501 -0.00000000000E+00 -0.00000000000E+00 -0.63127838042E+01  0.63127838042E+01  0.00000000000E+00 0.  1.
         25    1    1    2    0    0  0.90414129601E+01 -0.72677738136E+01  0.12017326708E+04  0.12077648694E+04  0.12000000000E+03 0.  0.
         25    1    1    2    0    0 -0.90414129601E+01  0.72677738136E+01  0.10989143143E+04  0.11055076834E+04  0.12000000000E+03 0.  0.
<mgrwt>
<rscale>  0 0.24135731E+03</rscale>
<asrwt>0</asrwt>
<pdfrwt beam="1">  1        2 0.35491622E+00 0.24135731E+03</pdfrwt>
<pdfrwt beam="2">  1       -2 0.97119935E-03 0.24135731E+03</pdfrwt>
<totfact> 0.11333014E+04</totfact>
</mgrwt>
</event>
<event>
 4    1  0.1777979E-004  0.2533053E+03  0.7818608E-02  0.1111234E+00
          2   -1    0    0  501    0  0.00000000000E+00  0.00000000000E+00  0.29183727454E+03  0.29183727454E+03  0.00000000000E+00 0. -1.
         -2   -1    0    0    0  501 -0.00000000000E+00 -0.00000000000E+00 -0.54965188178E+02  0.54965188178E+02  0.00000000000E+00 0. -1.
         25    1    1    2    0    0  0.47353953907E+01  0.10741432196E+01  0.63376199958E+02  0.13579440517E+03  0.12000000000E+03 0.  0.
         25    1    1    2    0    0 -0.47353953907E+01 -0.10741432196E+01  0.17349588640E+03  0.21100805755E+03  0.12000000000E+03 0.  0.
<mgrwt>
<rscale>  0 0.25330528E+03</rscale>
<asrwt>0</asrwt>
<pdfrwt beam="1">  1        2 0.44898041E-01 0.25330528E+03</pdfrwt>
<pdfrwt beam="2">  1       -2 0.84561830E-02 0.25330528E+03</pdfrwt>
<totfact> 0.96349433E+03</totfact>
</mgrwt>
</event>
<event>
 4    1  0.1777979E-004  0.2794965E+03  0.7818608E-02  0.1095964E+00
         -2   -1    0    0    0  501 -0.00000000000E+00  0.00000000000E+00  0.11884234920E+03  0.11884234920E+03  0.00000000000E+00 0.  1.
          2   -1    0    0  501    0  0.00000000000E+00 -0.00000000000E+00 -0.16433175863E+03  0.16433175863E+03  0.00000000000E+00 0.  1.
         25    1    1    2    0    0  0.38138872485E+02 -0.57208645314E+02 -0.24266664871E+01  0.13832314124E+03  0.12000000000E+03 0.  0.
         25    1    1    2    0    0 -0.38138872485E+02  0.57208645314E+02 -0.43062742944E+02  0.14485096659E+03  0.12000000000E+03 0.  0.
<mgrwt>
<rscale>  0 0.27949649E+03</rscale>
<asrwt>0</asrwt>
<pdfrwt beam="1">  1        2 0.25281809E-01 0.27949649E+03</pdfrwt>
<pdfrwt beam="2">  1       -2 0.18283438E-01 0.27949649E+03</pdfrwt>
<totfact> 0.51761152E+03</totfact>
</mgrwt>
</event>
<event>
 4    1  0.1777979E-004  0.2509789E+03  0.7818608E-02  0.1112688E+00
          3   -1    0    0  501    0  0.00000000000E+00  0.00000000000E+00  0.44330902414E+02  0.44330902414E+02  0.00000000000E+00 0. -1.
         -3   -1    0    0    0  501 -0.00000000000E+00 -0.00000000000E+00 -0.35522867576E+03  0.35522867576E+03  0.00000000000E+00 0. -1.
         25    1    1    2    0    0  0.28660394360E+02  0.50627504810E+01 -0.11983072442E+03  0.17206525553E+03  0.12000000000E+03 0.  0.
         25    1    1    2    0    0 -0.28660394360E+02 -0.50627504810E+01 -0.19106704893E+03  0.22749432264E+03  0.12000000000E+03 0.  0.
<mgrwt>
<rscale>  0 0.25097895E+03</rscale>
<asrwt>0</asrwt>
<pdfrwt beam="1">  1        3 0.68201389E-02 0.25097895E+03</pdfrwt>
<pdfrwt beam="2">  1       -3 0.54650565E-01 0.25097895E+03</pdfrwt>
<totfact> 0.11622681E+03</totfact>
</mgrwt>
</event>
<event>
 4    1  0.1777979E-004  0.2862140E+03  0.7818608E-02  0.1092343E+00
          3   -1    0    0  501    0  0.00000000000E+00  0.00000000000E+00  0.27924673165E+03  0.27924673165E+03  0.00000000000E+00 0.  1.
         -3   -1    0    0    0  501 -0.00000000000E+00 -0.00000000000E+00 -0.73338772975E+02  0.73338772975E+02  0.00000000000E+00 0.  1.
         25    1    1    2    0    0 -0.11847767493E+02  0.56857068814E+02  0.38865649839E+02  0.13886552706E+03  0.12000000000E+03 0.  0.
         25    1    1    2    0    0  0.11847767493E+02 -0.56857068814E+02  0.16704230884E+03  0.21371997756E+03  0.12000000000E+03 0.  0.
<mgrwt>
<rscale>  0 0.28621399E+03</rscale>
<asrwt>0</asrwt>
<pdfrwt beam="1">  1        3 0.42961035E-01 0.28621399E+03</pdfrwt>
<pdfrwt beam="2">  1       -3 0.11282888E-01 0.28621399E+03</pdfrwt>
<totfact> 0.83136000E+02</totfact>
</mgrwt>
</event>
<event>
 4    1  0.1777979E-004  0.2588916E+03  0.7818608E-02  0.1107811E+00
         -1   -1    0    0    0  501 -0.00000000000E+00  0.00000000000E+00  0.70222774578E+02  0.70222774578E+02  0.00000000000E+00 0. -1.
          1   -1    0    0  501    0  0.00000000000E+00 -0.00000000000E+00 -0.23861517879E+03  0.23861517879E+03  0.00000000000E+00 0. -1.
         25    1    1    2    0    0 -0.42735363033E+02 -0.18333253318E+02 -0.10080315939E+03  0.16347384003E+03  0.12000000000E+03 0.  0.
         25    1    1    2    0    0  0.42735363033E+02  0.18333253318E+02 -0.67589244823E+02  0.14536411334E+03  0.12000000000E+03 0.  0.
<mgrwt>
<rscale>  0 0.25889164E+03</rscale>
<asrwt>0</asrwt>
<pdfrwt beam="1">  1        1 0.36710027E-01 0.25889164E+03</pdfrwt>
<pdfrwt beam="2">  1       -1 0.10803504E-01 0.25889164E+03</pdfrwt>
<totfact> 0.62626396E+03</totfact>
</mgrwt>
</event>
<event>
 4    1  0.1777979E-004  0.2646580E+03  0.7818608E-02  0.1104376E+00
          2   -1    0    0  501    0  0.00000000000E+00  0.00000000000E+00  0.13360018819E+02  0.13360018819E+02  0.00000000000E+00 0. -1.
         -2   -1    0    0    0  501 -0.00000000000E+00 -0.00000000000E+00 -0.13106988374E+04  0.13106988374E+04  0.00000000000E+00 0. -1.
         25    1    1    2    0    0 -0.17418717751E+02  0.17671184806E+02 -0.89857836900E+03  0.90689512499E+03  0.12000000000E+03 0.  0.
         25    1    1    2    0    0  0.17418717751E+02 -0.17671184806E+02 -0.39876044958E+03  0.41716373123E+03  0.12000000000E+03 0.  0.
<mgrwt>
<rscale>  0 0.26465798E+03</rscale>
<asrwt>0</asrwt>
<pdfrwt beam="1">  1        2 0.20553869E-02 0.26465798E+03</pdfrwt>
<pdfrwt beam="2">  1       -2 0.20164603E+00 0.26465798E+03</pdfrwt>
<totfact> 0.74177800E+02</totfact>
</mgrwt>
</event>
<event>
 4    1  0.1777979E-004  0.2647151E+03  0.7818608E-02  0.1104343E+00
          1   -1    0    0  501    0  0.00000000000E+00  0.00000000000E+00  0.12234299366E+04  0.12234299366E+04  0.00000000000E+00 0.  1.
         -1   -1    0    0    0  501 -0.00000000000E+00 -0.00000000000E+00 -0.14319181556E+02  0.14319181556E+02  0.00000000000E+00 0.  1.
         25    1    1    2    0    0 -0.13811286540E+02 -0.23536581282E+01  0.85731676760E+03  0.86578769415E+03  0.12000000000E+03 0.  0.
         25    1    1    2    0    0  0.13811286540E+02  0.23536581282E+01  0.35179398743E+03  0.37196142399E+03  0.12000000000E+03 0.  0.
<mgrwt>
<rscale>  0 0.26471506E+03</rscale>
<asrwt>0</asrwt>
<pdfrwt beam="1">  1        1 0.18821991E+00 0.26471506E+03</pdfrwt>
<pdfrwt beam="2">  1       -1 0.22029520E-02 0.26471506E+03</pdfrwt>
<totfact> 0.65517291E+03</totfact>
</mgrwt>
</event>
<event>
 4    1  0.1777979E-004  0.2862185E+03  0.7818608E-02  0.1092340E+00
          2   -1    0    0  501    0  0.00000000000E+00  0.00000000000E+00  0.46924184650E+03  0.46924184650E+03  0.00000000000E+00 0. -1.
         -2   -1    0    0    0  501 -0.00000000000E+00 -0.00000000000E+00 -0.43645428833E+02  0.43645428833E+02  0.00000000000E+00 0. -1.
         25    1    1    2    0    0 -0.62181001319E+02 -0.40874376538E+02  0.25455740195E+03  0.29109562428E+03  0.12000000000E+03 0.  0.
         25    1    1    2    0    0  0.62181001319E+02  0.40874376538E+02  0.17103901571E+03  0.22179165105E+03  0.12000000000E+03 0.  0.
<mgrwt>
<rscale>  0 0.28621853E+03</rscale>
<asrwt>0</asrwt>
<pdfrwt beam="1">  1        2 0.72191050E-01 0.28621853E+03</pdfrwt>
<pdfrwt beam="2">  1       -2 0.67146817E-02 0.28621853E+03</pdfrwt>
<totfact> 0.82811936E+03</totfact>
</mgrwt>
</event>
<event>
 4    1  0.1777979E-004  0.3261240E+03  0.7818608E-02  0.1072865E+00
         -1   -1    0    0    0  501 -0.00000000000E+00  0.00000000000E+00  0.17353044832E+03  0.17353044832E+03  0.00000000000E+00 0. -1.
          1   -1    0    0  501    0  0.00000000000E+00 -0.00000000000E+00 -0.15322503116E+03  0.15322503116E+03  0.00000000000E+00 0. -1.
         25    1    1    2    0    0  0.59936777541E+02 -0.70917618706E+02 -0.49691358336E+02  0.15965887710E+03  0.12000000000E+03 0.  0.
         25    1    1    2    0    0 -0.59936777541E+02  0.70917618706E+02  0.69996775500E+02  0.16709660238E+03  0.12000000000E+03 0.  0.
<mgrwt>
<rscale>  0 0.32612395E+03</rscale>
<asrwt>0</asrwt>
<pdfrwt beam="1">  1        1 0.23573082E-01 0.32612395E+03</pdfrwt>
<pdfrwt beam="2">  1       -1 0.26696992E-01 0.32612395E+03</pdfrwt>
<totfact> 0.25762964E+03</totfact>
</mgrwt>
</event>
<event>
 4    1  0.1777979E-004  0.2490056E+03  0.7818608E-02  0.1113935E+00
         -1   -1    0    0    0  501 -0.00000000000E+00  0.00000000000E+00  0.27119588858E+02  0.27119588858E+02  0.00000000000E+00 0.  1.
          1   -1    0    0  501    0  0.00000000000E+00 -0.00000000000E+00 -0.57157738586E+03  0.57157738586E+03  0.00000000000E+00 0.  1.
         25    1    1    2    0    0  0.50435999542E+01 -0.15175728292E+02 -0.20232868009E+03  0.23578090554E+03  0.12000000000E+03 0.  0.
         25    1    1    2    0    0 -0.50435999542E+01  0.15175728292E+02 -0.34212911691E+03  0.36291606918E+03  0.12000000000E+03 0.  0.
<mgrwt>
<rscale>  0 0.24900557E+03</rscale>
<asrwt>0</asrwt>
<pdfrwt beam="1">  1        1 0.87934981E-01 0.24900557E+03</pdfrwt>
<pdfrwt beam="2">  1       -1 0.41722445E-02 0.24900557E+03</pdfrwt>
<totfact> 0.86114338E+03</totfact>
</mgrwt>
</event>
<event>
 4    1  0.1777979E-004  0.4017180E+03  0.7818608E-02  0.1043186E+00
          2   -1    0    0  501    0  0.00000000000E+00  0.00000000000E+00  0.24078841369E+04  0.24078841369E+04  0.00000000000E+00 0. -1.
         -2   -1    0    0    0  501 -0.00000000000E+00 -0.00000000000E+00 -0.16755095717E+02  0.16755095717E+02  0.00000000000E+00 0. -1.
         25    1    1    2    0    0  0.11285791505E+03  0.58205907479E+02  0.17936598421E+04  0.18021488467E+04  0.12000000000E+03 0.  0.
         25    1    1    2    0    0 -0.11285791505E+03 -0.58205907479E+02  0.59746919910E+03  0.62249038589E+03  0.12000000000E+03 0.  0.
<mgrwt>
<rscale>  0 0.40171796E+03</rscale>
<asrwt>0</asrwt>
<pdfrwt beam="1">  1        2 0.37044344E+00 0.40171796E+03</pdfrwt>
<pdfrwt beam="2">  1       -2 0.25777089E-02 0.40171796E+03</pdfrwt>
<totfact> 0.23677618E+03</totfact>
</mgrwt>
</event>
<event>
 4    1  0.1777979E-004  0.2570521E+03  0.7818608E-02  0.1108927E+00
         -1   -1    0    0    0  501 -0.00000000000E+00  0.00000000000E+00  0.73558604110E+01  0.73558604110E+01  0.00000000000E+00 0.  1.
          1   -1    0    0  501    0  0.00000000000E+00 -0.00000000000E+00 -0.22456842415E+04  0.22456842415E+04  0.00000000000E+00 0.  1.
         25    1    1    2    0    0 -0.49799137128E+01  0.45649806847E+02 -0.11472056288E+04  0.11543783865E+04  0.12000000000E+03 0.  0.
         25    1    1    2    0    0  0.49799137128E+01 -0.45649806847E+02 -0.10911227523E+04  0.10986617154E+04  0.12000000000E+03 0.  0.
<mgrwt>
<rscale>  0 0.25705206E+03</rscale>
<asrwt>0</asrwt>
<pdfrwt beam="1">  1        1 0.34549014E+00 0.25705206E+03</pdfrwt>
<pdfrwt beam="2">  1       -1 0.11316700E-02 0.25705206E+03</pdfrwt>
<totfact> 0.36691325E+03</totfact>
</mgrwt>
</event>
<event>
 4    1  0.1777979E-004  0.4065703E+03  0.7818608E-02  0.1041528E+00
         -2   -1    0    0    0  501 -0.00000000000E+00  0.00000000000E+00  0.12091912827E+03  0.12091912827E+03  0.00000000000E+00 0.  1.
          2   -1    0    0  501    0  0.00000000000E+00 -0.00000000000E+00 -0.34175603712E+03  0.34175603712E+03  0.00000000000E+00 0.  1.
         25    1    1    2    0    0  0.56611567372E+02  0.11426956720E+03  0.70899318617E+01  0.17525030865E+03  0.12000000000E+03 0.  0.
         25    1    1    2    0    0 -0.56611567372E+02 -0.11426956720E+03 -0.22792684072E+03  0.28742485674E+03  0.12000000000E+03 0.  0.
<mgrwt>
<rscale>  0 0.40657025E+03</rscale>
<asrwt>0</asrwt>
<pdfrwt beam="1">  1        2 0.52577852E-01 0.40657025E+03</pdfrwt>
<pdfrwt beam="2">  1       -2 0.18602943E-01 0.40657025E+03</pdfrwt>
<totfact> 0.22726924E+03</totfact>
</mgrwt>
</event>
<event>
 4    1  0.1777979E-004  0.4185310E+03  0.7818608E-02  0.1037545E+00
          2   -1    0    0  501    0  0.00000000000E+00  0.00000000000E+00  0.24020305212E+04  0.24020305212E+04  0.00000000000E+00 0. -1.
         -2   -1    0    0    0  501 -0.00000000000E+00 -0.00000000000E+00 -0.18231264762E+02  0.18231264762E+02  0.00000000000E+00 0. -1.
         25    1    1    2    0    0 -0.50143892332E+02  0.39115721604E+02  0.21125678472E+04  0.21169287561E+04  0.12000000000E+03 0.  0.
         25    1    1    2    0    0  0.50143892332E+02 -0.39115721604E+02  0.27123140925E+03  0.30333302982E+03  0.12000000000E+03 0.  0.
<mgrwt>
<rscale>  0 0.41853102E+03</rscale>
<asrwt>0</asrwt>
<pdfrwt beam="1">  1        2 0.36954291E+00 0.41853102E+03</pdfrwt>
<pdfrwt beam="2">  1       -2 0.28048119E-02 0.41853102E+03</pdfrwt>
<totfact> 0.20990639E+03</totfact>
</mgrwt>
</event>
<event>
 4    1  0.1777979E-004  0.2575426E+03  0.7818608E-02  0.1108629E+00
          1   -1    0    0  501    0  0.00000000000E+00  0.00000000000E+00  0.13729465785E+04  0.13729465785E+04  0.00000000000E+00 0.  1.
         -1   -1    0    0    0  501 -0.00000000000E+00 -0.00000000000E+00 -0.12077705499E+02  0.12077705499E+02  0.00000000000E+00 0.  1.
         25    1    1    2    0    0  0.38391890050E+02 -0.22961321705E+02  0.60810592274E+03  0.62144506820E+03  0.12000000000E+03 0.  0.
         25    1    1    2    0    0 -0.38391890050E+02  0.22961321705E+02  0.75276295021E+03  0.76357921575E+03  0.12000000000E+03 0.  0.
<mgrwt>
<rscale>  0 0.25754257E+03</rscale>
<asrwt>0</asrwt>
<pdfrwt beam="1">  1        1 0.21122243E+00 0.25754257E+03</pdfrwt>
<pdfrwt beam="2">  1       -1 0.18581096E-02 0.25754257E+03</pdfrwt>
<totfact> 0.66374021E+03</totfact>
</mgrwt>
</event>
<event>
 4    1  0.1777979E-004  0.3614058E+03  0.7818608E-02  0.1058029E+00
         -2   -1    0    0    0  501 -0.00000000000E+00  0.00000000000E+00  0.42718407819E+03  0.42718407819E+03  0.00000000000E+00 0. -1.
          2   -1    0    0  501    0  0.00000000000E+00 -0.00000000000E+00 -0.76439016821E+02  0.76439016821E+02  0.00000000000E+00 0. -1.
         25    1    1    2    0    0 -0.13388774303E+03 -0.12755018920E+02  0.19326777427E+03  0.26427457466E+03  0.12000000000E+03 0.  0.
         25    1    1    2    0    0  0.13388774303E+03  0.12755018920E+02  0.15747728710E+03  0.23934852035E+03  0.12000000000E+03 0.  0.
<mgrwt>
<rscale>  0 0.36140576E+03</rscale>
<asrwt>0</asrwt>
<pdfrwt beam="1">  1        2 0.11759849E-01 0.36140576E+03</pdfrwt>
<pdfrwt beam="2">  1       -2 0.65720626E-01 0.36140576E+03</pdfrwt>
<totfact> 0.11503185E+03</totfact>
</mgrwt>
</event>
<event>
 4    1  0.1777979E-004  0.2593040E+03  0.7818608E-02  0.1107562E+00
         -1   -1    0    0    0  501 -0.00000000000E+00  0.00000000000E+00  0.20843959010E+03  0.20843959010E+03  0.00000000000E+00 0. -1.
          1   -1    0    0  501    0  0.00000000000E+00 -0.00000000000E+00 -0.80645118960E+02  0.80645118960E+02  0.00000000000E+00 0. -1.
         25    1    1    2    0    0  0.39504231156E+02  0.10372672337E+02  0.94254282780E+02  0.15796216773E+03  0.12000000000E+03 0.  0.
         25    1    1    2    0    0 -0.39504231156E+02 -0.10372672337E+02  0.33540188361E+02  0.13112254133E+03  0.12000000000E+03 0.  0.
<mgrwt>
<rscale>  0 0.25930396E+03</rscale>
<asrwt>0</asrwt>
<pdfrwt beam="1">  1        1 0.12406941E-01 0.25930396E+03</pdfrwt>
<pdfrwt beam="2">  1       -1 0.32067629E-01 0.25930396E+03</pdfrwt>
<totfact> 0.43329508E+03</totfact>
</mgrwt>
</event>
<event>
 4    1  0.1777979E-004  0.2612607E+03  0.7818608E-02  0.1106388E+00
          2   -1    0    0  501    0  0.00000000000E+00  0.00000000000E+00  0.10304332746E+04  0.10304332746E+04  0.00000000000E+00 0.  1.
         -2   -1    0    0    0  501 -0.00000000000E+00 -0.00000000000E+00 -0.16560306657E+02  0.16560306657E+02  0.00000000000E+00 0.  1.
         25    1    1    2    0    0 -0.39766664394E+02 -0.52152305790E+01  0.37672744151E+03  0.39740678330E+03  0.12000000000E+03 0.  0.
         25    1    1    2    0    0  0.39766664394E+02  0.52152305790E+01  0.63714552649E+03  0.64958679801E+03  0.12000000000E+03 0.  0.
<mgrwt>
<rscale>  0 0.26126072E+03</rscale>
<asrwt>0</asrwt>
<pdfrwt beam="1">  1        2 0.15852815E+00 0.26126072E+03</pdfrwt>
<pdfrwt beam="2">  1       -2 0.25477403E-02 0.26126072E+03</pdfrwt>
<totfact> 0.13526984E+04</totfact>
</mgrwt>
</event>
<event>
 4    1  0.1777979E-004  0.2471934E+03  0.7818608E-02  0.1115091E+00
         -2   -1    0    0    0  501 -0.00000000000E+00  0.00000000000E+00  0.19180033976E+03  0.19180033976E+03  0.00000000000E+00 0. -1.
          2   -1    0    0  501    0  0.00000000000E+00 -0.00000000000E+00 -0.79646101598E+02  0.79646101598E+02  0.00000000000E+00 0. -1.
         25    1    1    2    0    0 -0.17098683733E+02 -0.24156509218E+02  0.56623340083E+02  0.13594890424E+03  0.12000000000E+03 0.  0.
         25    1    1    2    0    0  0.17098683733E+02  0.24156509218E+02  0.55530898081E+02  0.13549753712E+03  0.12000000000E+03 0.  0.
<mgrwt>
<rscale>  0 0.24719344E+03</rscale>
<asrwt>0</asrwt>
<pdfrwt beam="1">  1        2 0.12253246E-01 0.24719344E+03</pdfrwt>
<pdfrwt beam="2">  1       -2 0.29507745E-01 0.24719344E+03</pdfrwt>
<totfact> 0.51844014E+03</totfact>
</mgrwt>
</event>
<event>
 4    1  0.1777979E-004  0.1004488E+04  0.7818608E-02  0.9303636E-01
          1   -1    0    0  501    0  0.00000000000E+00  0.00000000000E+00  0.52726910294E+03  0.52726910294E+03  0.00000000000E+00 0. -1.
         -1   -1    0    0    0  501 -0.00000000000E+00 -0.00000000000E+00 -0.47840632124E+03  0.47840632124E+03  0.00000000000E+00 0. -1.
         25    1    1    2    0    0 -0.29193346864E+03  0.20860862816E+03 -0.30627140369E+03  0.48676984559E+03  0.12000000000E+03 0.  0.
         25    1    1    2    0    0  0.29193346864E+03 -0.20860862816E+03  0.35513418539E+03  0.51890557859E+03  0.12000000000E+03 0.  0.
<mgrwt>
<rscale>  0 0.10044877E+04</rscale>
<asrwt>0</asrwt>
<pdfrwt beam="1">  1        1 0.81118324E-01 0.10044877E+04</pdfrwt>
<pdfrwt beam="2">  1       -1 0.73600972E-01 0.10044877E+04</pdfrwt>
<totfact> 0.76773575E+01</totfact>
</mgrwt>
</event>
<event>
 4    1  0.1777979E-004  0.5228297E+03  0.7818608E-02  0.1007986E+00
         -2   -1    0    0    0  501 -0.00000000000E+00  0.00000000000E+00  0.20116230008E+02  0.20116230008E+02  0.00000000000E+00 0. -1.
          2   -1    0    0  501    0  0.00000000000E+00 -0.00000000000E+00 -0.33971434310E+04  0.33971434310E+04  0.00000000000E+00 0. -1.
         25    1    1    2    0    0  0.22679098611E+03 -0.21801483589E+02 -0.13941528963E+04  0.14177347264E+04  0.12000000000E+03 0.  0.
         25    1    1    2    0    0 -0.22679098611E+03  0.21801483589E+02 -0.19828743046E+04  0.19995249346E+04  0.12000000000E+03 0.  0.
<mgrwt>
<rscale>  0 0.52282968E+03</rscale>
<asrwt>0</asrwt>
<pdfrwt beam="1">  1        2 0.52263708E+00 0.52282968E+03</pdfrwt>
<pdfrwt beam="2">  1       -2 0.30948068E-02 0.52282968E+03</pdfrwt>
<totfact> 0.45613504E+02</totfact>
</mgrwt>
</event>
<event>
 4    1  0.1777979E-004  0.2777500E+03  0.7818608E-02  0.1096924E+00
          1   -1    0    0  501    0  0.00000000000E+00  0.00000000000E+00  0.67398734493E+01  0.67398734493E+01  0.00000000000E+00 0. -1.
         -1   -1    0    0    0  501 -0.00000000000E+00 -0.00000000000E+00 -0.28615172335E+04  0.28615172335E+04  0.00000000000E+00 0. -1.
         25    1    1    2    0    0  0.66537461225E+02  0.12827076726E+02 -0.16046051214E+04  0.16105121431E+04  0.12000000000E+03 0.  0.
         25    1    1    2    0    0 -0.66537461225E+02 -0.12827076726E+02 -0.12501722387E+04  0.12577449638E+04  0.12000000000E+03 0.  0.
<mgrwt>
<rscale>  0 0.27774999E+03</rscale>
<asrwt>0</asrwt>
<pdfrwt beam="1">  1        1 0.10369039E-02 0.27774999E+03</pdfrwt>
<pdfrwt beam="2">  1       -1 0.44023331E+00 0.27774999E+03</pdfrwt>
<totfact> 0.72134041E+01</totfact>
</mgrwt>
</event>
<event>
 4    1  0.1777979E-004  0.3184837E+03  0.7818608E-02  0.1076349E+00
         -1   -1    0    0    0  501 -0.00000000000E+00  0.00000000000E+00  0.36022867462E+02  0.36022867462E+02  0.00000000000E+00 0. -1.
          1   -1    0    0  501    0  0.00000000000E+00 -0.00000000000E+00 -0.70394079841E+03  0.70394079841E+03  0.00000000000E+00 0. -1.
         25    1    1    2    0    0 -0.10150307365E+03 -0.30798500580E+01 -0.39299364192E+03  0.42326866412E+03  0.12000000000E+03 0.  0.
         25    1    1    2    0    0  0.10150307365E+03  0.30798500580E+01 -0.27492428902E+03  0.31669500174E+03  0.12000000000E+03 0.  0.
<mgrwt>
<rscale>  0 0.31848370E+03</rscale>
<asrwt>0</asrwt>
<pdfrwt beam="1">  1        1 0.10829857E+00 0.31848370E+03</pdfrwt>
<pdfrwt beam="2">  1       -1 0.55419803E-02 0.31848370E+03</pdfrwt>
<totfact> 0.42194542E+03</totfact>
</mgrwt>
</event>
<event>
 4    1  0.1777979E-004  0.3264743E+03  0.7818608E-02  0.1072708E+00
          2   -1    0    0  501    0  0.00000000000E+00  0.00000000000E+00  0.23336979468E+04  0.23336979468E+04  0.00000000000E+00 0.  1.
         -2   -1    0    0    0  501 -0.00000000000E+00 -0.00000000000E+00 -0.11418087607E+02  0.11418087607E+02  0.00000000000E+00 0.  1.
         25    1    1    2    0    0 -0.83987463864E+02 -0.72051832443E+02  0.11539318174E+04  0.11654200959E+04  0.12000000000E+03 0.  0.
         25    1    1    2    0    0  0.83987463864E+02  0.72051832443E+02  0.11683480418E+04  0.11796959385E+04  0.12000000000E+03 0.  0.
<mgrwt>
<rscale>  0 0.32647430E+03</rscale>
<asrwt>0</asrwt>
<pdfrwt beam="1">  1        2 0.35903007E+00 0.32647430E+03</pdfrwt>
<pdfrwt beam="2">  1       -2 0.17566307E-02 0.32647430E+03</pdfrwt>
<totfact> 0.46141307E+03</totfact>
</mgrwt>
</event>
<event>
 4    1  0.1777979E-004  0.3875060E+03  0.7818608E-02  0.1048194E+00
          2   -1    0    0  501    0  0.00000000000E+00  0.00000000000E+00  0.17507567454E+03  0.17507567454E+03  0.00000000000E+00 0.  1.
         -2   -1    0    0    0  501 -0.00000000000E+00 -0.00000000000E+00 -0.21442286843E+03  0.21442286843E+03  0.00000000000E+00 0.  1.
         25    1    1    2    0    0 -0.13111265699E+03 -0.55576116960E+02 -0.73436896642E+02  0.20018044707E+03  0.12000000000E+03 0.  0.
         25    1    1    2    0    0  0.13111265699E+03  0.55576116960E+02  0.34089702752E+02  0.18931809590E+03  0.12000000000E+03 0.  0.
<mgrwt>
<rscale>  0 0.38750602E+03</rscale>
<asrwt>0</asrwt>
<pdfrwt beam="1">  1        2 0.26934719E-01 0.38750602E+03</pdfrwt>
<pdfrwt beam="2">  1       -2 0.32988133E-01 0.38750602E+03</pdfrwt>
<totfact> 0.17085408E+03</totfact>
</mgrwt>
</event>
<event>
 4    1  0.1777979E-004  0.2462832E+03  0.7818608E-02  0.1115677E+00
          2   -1    0    0  501    0  0.00000000000E+00  0.00000000000E+00  0.52451087079E+03  0.52451087079E+03  0.00000000000E+00 0. -1.
         -2   -1    0    0    0  501 -0.00000000000E+00 -0.00000000000E+00 -0.28910456069E+02  0.28910456069E+02  0.00000000000E+00 0. -1.
         25    1    1    2    0    0 -0.74545816969E+01 -0.26310597952E+02  0.25679704245E+03  0.28476751810E+03  0.12000000000E+03 0.  0.
         25    1    1    2    0    0  0.74545816969E+01  0.26310597952E+02  0.23880337226E+03  0.26865380875E+03  0.12000000000E+03 0.  0.
<mgrwt>
<rscale>  0 0.24628316E+03</rscale>
<asrwt>0</asrwt>
<pdfrwt beam="1">  1        2 0.80693973E-01 0.24628316E+03</pdfrwt>
<pdfrwt beam="2">  1       -2 0.44477628E-02 0.24628316E+03</pdfrwt>
<totfact> 0.13626263E+04</totfact>
</mgrwt>
</event>
<event>
 4    1  0.1777979E-004  0.3081507E+03  0.7818608E-02  0.1081236E+00
         -2   -1    0    0    0  501 -0.00000000000E+00  0.00000000000E+00  0.13916934464E+02  0.13916934464E+02  0.00000000000E+00 0. -1.
          2   -1    0    0  501    0  0.00000000000E+00 -0.00000000000E+00 -0.17057786350E+04  0.17057786350E+04  0.00000000000E+00 0. -1.
         25    1    1    2    0    0 -0.42323456487E+02 -0.81910692624E+02 -0.10075373677E+04  0.10188386447E+04  0.12000000000E+03 0.  0.
         25    1    1    2    0    0  0.42323456487E+02  0.81910692624E+02 -0.68432433277E+03  0.70085692474E+03  0.12000000000E+03 0.  0.
<mgrwt>
<rscale>  0 0.30815067E+03</rscale>
<asrwt>0</asrwt>
<pdfrwt beam="1">  1        2 0.26242748E+00 0.30815067E+03</pdfrwt>
<pdfrwt beam="2">  1       -2 0.21410669E-02 0.30815067E+03</pdfrwt>
<totfact> 0.74274710E+03</totfact>
</mgrwt>
</event>
<event>
 4    1  0.1777979E-004  0.2648753E+03  0.7818608E-02  0.1104249E+00
          2   -1    0    0  501    0  0.00000000000E+00  0.00000000000E+00  0.10491824334E+04  0.10491824334E+04  0.00000000000E+00 0.  1.
         -2   -1    0    0    0  501 -0.00000000000E+00 -0.00000000000E+00 -0.16717527788E+02  0.16717527788E+02  0.00000000000E+00 0.  1.
         25    1    1    2    0    0  0.37015067568E+02  0.99545340530E+01  0.35175670697E+03  0.37363349539E+03  0.12000000000E+03 0.  0.
         25    1    1    2    0    0 -0.37015067568E+02 -0.99545340530E+01  0.68070819860E+03  0.69226646576E+03  0.12000000000E+03 0.  0.
<mgrwt>
<rscale>  0 0.26487534E+03</rscale>
<asrwt>0</asrwt>
<pdfrwt beam="1">  1        2 0.16141263E+00 0.26487534E+03</pdfrwt>
<pdfrwt beam="2">  1       -2 0.25719282E-02 0.26487534E+03</pdfrwt>
<totfact> 0.13003920E+04</totfact>
</mgrwt>
</event>
<event>
 4    1  0.1777979E-004  0.2571787E+03  0.7818608E-02  0.1108850E+00
         -2   -1    0    0    0  501 -0.00000000000E+00  0.00000000000E+00  0.45836348203E+02  0.45836348203E+02  0.00000000000E+00 0.  1.
          2   -1    0    0  501    0  0.00000000000E+00 -0.00000000000E+00 -0.36074466246E+03  0.36074466246E+03  0.00000000000E+00 0.  1.
         25    1    1    2    0    0  0.32655990289E+02 -0.38768246421E+01 -0.20877407750E+03  0.24303921269E+03  0.12000000000E+03 0.  0.
         25    1    1    2    0    0 -0.32655990289E+02  0.38768246421E+01 -0.10613423676E+03  0.16354179797E+03  0.12000000000E+03 0.  0.
<mgrwt>
<rscale>  0 0.25717868E+03</rscale>
<asrwt>0</asrwt>
<pdfrwt beam="1">  1        2 0.55499179E-01 0.25717868E+03</pdfrwt>
<pdfrwt beam="2">  1       -2 0.70517459E-02 0.25717868E+03</pdfrwt>
<totfact> 0.10184533E+04</totfact>
</mgrwt>
</event>
<event>
 4    1  0.1777979E-004  0.2873891E+03  0.7818608E-02  0.1091720E+00
         -1   -1    0    0    0  501 -0.00000000000E+00  0.00000000000E+00  0.42679439455E+03  0.42679439455E+03  0.00000000000E+00 0. -1.
          1   -1    0    0  501    0  0.00000000000E+00 -0.00000000000E+00 -0.48379554004E+02  0.48379554004E+02  0.00000000000E+00 0. -1.
         25    1    1    2    0    0 -0.73685177643E+02  0.26959390012E+02  0.17336493091E+03  0.22497047225E+03  0.12000000000E+03 0.  0.
         25    1    1    2    0    0  0.73685177643E+02 -0.26959390012E+02  0.20504990964E+03  0.25020347631E+03  0.12000000000E+03 0.  0.
<mgrwt>
<rscale>  0 0.28738909E+03</rscale>
<asrwt>0</asrwt>
<pdfrwt beam="1">  1        1 0.74430086E-02 0.28738909E+03</pdfrwt>
<pdfrwt beam="2">  1       -1 0.65660674E-01 0.28738909E+03</pdfrwt>
<totfact> 0.23359994E+03</totfact>
</mgrwt>
</event>
<event>
 4    1  0.1777979E-004  0.2542962E+03  0.7818608E-02  0.1110619E+00
          2   -1    0    0  501    0  0.00000000000E+00  0.00000000000E+00  0.57564352893E+03  0.57564352893E+03  0.00000000000E+00 0. -1.
         -2   -1    0    0    0  501 -0.00000000000E+00 -0.00000000000E+00 -0.28084458068E+02  0.28084458068E+02  0.00000000000E+00 0. -1.
         25    1    1    2    0    0  0.97757217126E+01 -0.12671937396E+02  0.36604962705E+03  0.38554957165E+03  0.12000000000E+03 0.  0.
         25    1    1    2    0    0 -0.97757217126E+01  0.12671937396E+02  0.18150944381E+03  0.21817841535E+03  0.12000000000E+03 0.  0.
<mgrwt>
<rscale>  0 0.25429618E+03</rscale>
<asrwt>0</asrwt>
<pdfrwt beam="1">  1        2 0.88560535E-01 0.25429618E+03</pdfrwt>
<pdfrwt beam="2">  1       -2 0.43206863E-02 0.25429618E+03</pdfrwt>
<totfact> 0.12827024E+04</totfact>
</mgrwt>
</event>
<event>
 4    1  0.1777979E-004  0.6056428E+03  0.7818608E-02  0.9893768E-01
          1   -1    0    0  501    0  0.00000000000E+00  0.00000000000E+00  0.22135888260E+04  0.22135888260E+04  0.00000000000E+00 0. -1.
         -1   -1    0    0    0  501 -0.00000000000E+00 -0.00000000000E+00 -0.41426303730E+02  0.41426303730E+02  0.00000000000E+00 0. -1.
         25    1    1    2    0    0  0.12731566039E+03  0.11498759782E+03  0.27144865834E+03  0.34280577467E+03  0.12000000000E+03 0.  0.
         25    1    1    2    0    0 -0.12731566039E+03 -0.11498759782E+03  0.19007138639E+04  0.19122093550E+04  0.12000000000E+03 0.  0.
<mgrwt>
<rscale>  0 0.60564281E+03</rscale>
<asrwt>0</asrwt>
<pdfrwt beam="1">  1        1 0.34055203E+00 0.60564281E+03</pdfrwt>
<pdfrwt beam="2">  1       -1 0.63732792E-02 0.60564281E+03</pdfrwt>
<totfact> 0.28546038E+02</totfact>
</mgrwt>
</event>
<event>
 4    1  0.1777979E-004  0.2461040E+03  0.7818608E-02  0.1115792E+00
          3   -1    0    0  501    0  0.00000000000E+00  0.00000000000E+00  0.30119750295E+03  0.30119750295E+03  0.00000000000E+00 0.  1.
         -3   -1    0    0    0  501 -0.00000000000E+00 -0.00000000000E+00 -0.50271972547E+02  0.50271972547E+02  0.00000000000E+00 0.  1.
         25    1    1    2    0    0 -0.10803612111E+02  0.28121693065E+00  0.89759543231E+02  0.15024504224E+03  0.12000000000E+03 0.  0.
         25    1    1    2    0    0  0.10803612111E+02 -0.28121693065E+00  0.16116598717E+03  0.20122443326E+03  0.12000000000E+03 0.  0.
<mgrwt>
<rscale>  0 0.24610398E+03</rscale>
<asrwt>0</asrwt>
<pdfrwt beam="1">  1        3 0.46338076E-01 0.24610398E+03</pdfrwt>
<pdfrwt beam="2">  1       -3 0.77341499E-02 0.24610398E+03</pdfrwt>
<totfact> 0.13181349E+03</totfact>
</mgrwt>
</event>
<event>
 4    1  0.1777979E-004  0.2530114E+03  0.7818608E-02  0.1111416E+00
         -2   -1    0    0    0  501 -0.00000000000E+00  0.00000000000E+00  0.49369287727E+02  0.49369287727E+02  0.00000000000E+00 0.  1.
          2   -1    0    0  501    0  0.00000000000E+00 -0.00000000000E+00 -0.32416287049E+03  0.32416287049E+03  0.00000000000E+00 0.  1.
         25    1    1    2    0    0 -0.54807312992E+01  0.24624282458E+02 -0.18331317801E+03  0.22054504060E+03  0.12000000000E+03 0.  0.
         25    1    1    2    0    0  0.54807312992E+01 -0.24624282458E+02 -0.91480404752E+02  0.15298711761E+03  0.12000000000E+03 0.  0.
<mgrwt>
<rscale>  0 0.25301138E+03</rscale>
<asrwt>0</asrwt>
<pdfrwt beam="1">  1        2 0.49871209E-01 0.25301138E+03</pdfrwt>
<pdfrwt beam="2">  1       -2 0.75952753E-02 0.25301138E+03</pdfrwt>
<totfact> 0.10176555E+04</totfact>
</mgrwt>
</event>
<event>
 4    1  0.1777979E-004  0.2912337E+03  0.7818608E-02  0.1089707E+00
         -1   -1    0    0    0  501 -0.00000000000E+00  0.00000000000E+00  0.74816766302E+02  0.74816766302E+02  0.00000000000E+00 0.  1.
          1   -1    0    0  501    0  0.00000000000E+00 -0.00000000000E+00 -0.28341606292E+03  0.28341606292E+03  0.00000000000E+00 0.  1.
         25    1    1    2    0    0  0.27464079816E+01  0.14269272276E+02 -0.20417748558E+03  0.23727536852E+03  0.12000000000E+03 0.  0.
         25    1    1    2    0    0 -0.27464079816E+01 -0.14269272276E+02 -0.44218110436E+01  0.12095746071E+03  0.12000000000E+03 0.  0.
<mgrwt>
<rscale>  0 0.29123374E+03</rscale>
<asrwt>0</asrwt>
<pdfrwt beam="1">  1        1 0.43602471E-01 0.29123374E+03</pdfrwt>
<pdfrwt beam="2">  1       -1 0.11510272E-01 0.29123374E+03</pdfrwt>
<totfact> 0.45899050E+03</totfact>
</mgrwt>
</event>
<event>
 4    1  0.1777979E-004  0.3494854E+03  0.7818608E-02  0.1062826E+00
          2   -1    0    0  501    0  0.00000000000E+00  0.00000000000E+00  0.14094643860E+04  0.14094643860E+04  0.00000000000E+00 0.  1.
         -2   -1    0    0    0  501 -0.00000000000E+00 -0.00000000000E+00 -0.21664261270E+02  0.21664261270E+02  0.00000000000E+00 0.  1.
         25    1    1    2    0    0 -0.76902488156E+02  0.99053842754E+02  0.77675075793E+03  0.79590665055E+03  0.12000000000E+03 0.  0.
         25    1    1    2    0    0  0.76902488156E+02 -0.99053842754E+02  0.61104936683E+03  0.63522199674E+03  0.12000000000E+03 0.  0.
<mgrwt>
<rscale>  0 0.34948536E+03</rscale>
<asrwt>0</asrwt>
<pdfrwt beam="1">  1        2 0.21684060E+00 0.34948536E+03</pdfrwt>
<pdfrwt beam="2">  1       -2 0.33329644E-02 0.34948536E+03</pdfrwt>
<totfact> 0.55423963E+03</totfact>
</mgrwt>
</event>
<event>
 4    1  0.1777979E-004  0.8973192E+03  0.7818608E-02  0.9428939E-01
          2   -1    0    0  501    0  0.00000000000E+00  0.00000000000E+00  0.56268576144E+03  0.56268576144E+03  0.00000000000E+00 0.  1.
         -2   -1    0    0    0  501 -0.00000000000E+00 -0.00000000000E+00 -0.35774038376E+03  0.35774038376E+03  0.00000000000E+00 0.  1.
         25    1    1    2    0    0  0.34901445544E+03  0.18548252778E+03 -0.77196521574E+02  0.42020728357E+03  0.12000000000E+03 0.  0.
         25    1    1    2    0    0 -0.34901445544E+03 -0.18548252778E+03  0.28214189925E+03  0.50021886163E+03  0.12000000000E+03 0.  0.
<mgrwt>
<rscale>  0 0.89731916E+03</rscale>
<asrwt>0</asrwt>
<pdfrwt beam="1">  1        2 0.86567040E-01 0.89731916E+03</pdfrwt>
<pdfrwt beam="2">  1       -2 0.55036982E-01 0.89731916E+03</pdfrwt>
<totfact> 0.16696642E+02</totfact>
</mgrwt>
</event>
<event>
 4    1  0.1777979E-004  0.2888558E+03  0.7818608E-02  0.1090948E+00
         -1   -1    0    0    0  501 -0.00000000000E+00  0.00000000000E+00  0.98715006285E+01  0.98715006285E+01  0.00000000000E+00 0.  1.
          1   -1    0    0  501    0  0.00000000000E+00 -0.00000000000E+00 -0.21130948988E+04  0.21130948988E+04  0.00000000000E+00 0.  1.
         25    1    1    2    0    0  0.28622770629E+02 -0.63691201199E+02 -0.13440826893E+04  0.13512342904E+04  0.12000000000E+03 0.  0.
         25    1    1    2    0    0 -0.28622770629E+02  0.63691201199E+02 -0.75914070894E+03  0.77173210901E+03  0.12000000000E+03 0.  0.
<mgrwt>
<rscale>  0 0.28885580E+03</rscale>
<asrwt>0</asrwt>
<pdfrwt beam="1">  1        1 0.32509147E+00 0.28885580E+03</pdfrwt>
<pdfrwt beam="2">  1       -1 0.15186927E-02 0.28885580E+03</pdfrwt>
<totfact> 0.29185120E+03</totfact>
</mgrwt>
</event>
<event>
 4    1  0.1777979E-004  0.2833107E+03  0.7818608E-02  0.1093894E+00
          2   -1    0    0  501    0  0.00000000000E+00  0.00000000000E+00  0.11247358322E+04  0.11247358322E+04  0.00000000000E+00 0.  1.
         -2   -1    0    0    0  501 -0.00000000000E+00 -0.00000000000E+00 -0.17840839198E+02  0.17840839198E+02  0.00000000000E+00 0.  1.
         25    1    1    2    0    0  0.17814760668E+02  0.37066773207E+02  0.80771252662E+03  0.81761288947E+03  0.12000000000E+03 0.  0.
         25    1    1    2    0    0 -0.17814760668E+02 -0.37066773207E+02  0.29918246639E+03  0.32496378194E+03  0.12000000000E+03 0.  0.
<mgrwt>
<rscale>  0 0.28331065E+03</rscale>
<asrwt>0</asrwt>
<pdfrwt beam="1">  1        2 0.17303623E+00 0.28331065E+03</pdfrwt>
<pdfrwt beam="2">  1       -2 0.27447454E-02 0.28331065E+03</pdfrwt>
<totfact> 0.10677868E+04</totfact>
</mgrwt>
</event>
<event>
 4    1  0.1777979E-004  0.2560877E+03  0.7818608E-02  0.1109517E+00
         -2   -1    0    0    0  501 -0.00000000000E+00  0.00000000000E+00  0.83842078505E+01  0.83842078505E+01  0.00000000000E+00 0.  1.
          2   -1    0    0  501    0  0.00000000000E+00 -0.00000000000E+00 -0.19554886223E+04  0.19554886223E+04  0.00000000000E+00 0.  1.
         25    1    1    2    0    0 -0.42152849493E+02 -0.60504120850E+01 -0.10769390608E+04  0.10844405059E+04  0.12000000000E+03 0.  0.
         25    1    1    2    0    0  0.42152849493E+02  0.60504120850E+01 -0.87016535368E+03  0.87943232426E+03  0.12000000000E+03 0.  0.
<mgrwt>
<rscale>  0 0.25608767E+03</rscale>
<asrwt>0</asrwt>
<pdfrwt beam="1">  1        2 0.30084432E+00 0.25608767E+03</pdfrwt>
<pdfrwt beam="2">  1       -2 0.12898785E-02 0.25608767E+03</pdfrwt>
<totfact> 0.11519177E+04</totfact>
</mgrwt>
</event>
<event>
 4    1  0.1777979E-004  0.2600130E+03  0.7818608E-02  0.1107135E+00
         -2   -1    0    0    0  501 -0.00000000000E+00  0.00000000000E+00  0.28289685534E+03  0.28289685534E+03  0.00000000000E+00 0.  1.
          2   -1    0    0  501    0  0.00000000000E+00 -0.00000000000E+00 -0.59745053977E+02  0.59745053977E+02  0.00000000000E+00 0.  1.
         25    1    1    2    0    0  0.36564824975E+02 -0.55320080615E+01  0.15595421551E+03  0.20022314271E+03  0.12000000000E+03 0.  0.
         25    1    1    2    0    0 -0.36564824975E+02  0.55320080615E+01  0.67197585846E+02  0.14241876661E+03  0.12000000000E+03 0.  0.
<mgrwt>
<rscale>  0 0.26001298E+03</rscale>
<asrwt>0</asrwt>
<pdfrwt beam="1">  1        2 0.91915469E-02 0.26001298E+03</pdfrwt>
<pdfrwt beam="2">  1       -2 0.43522592E-01 0.26001298E+03</pdfrwt>
<totfact> 0.35775633E+03</totfact>
</mgrwt>
</event>
<event>
 4    1  0.1777979E-004  0.2691424E+03  0.7818608E-02  0.1101771E+00
         -2   -1    0    0    0  501 -0.00000000000E+00  0.00000000000E+00  0.12183688928E+02  0.12183688928E+02  0.00000000000E+00 0.  1.
          2   -1    0    0  501    0  0.00000000000E+00 -0.00000000000E+00 -0.14863650503E+04  0.14863650503E+04  0.00000000000E+00 0.  1.
         25    1    1    2    0    0 -0.28566118257E+01 -0.60837811810E+02 -0.73653864391E+03  0.74873130932E+03  0.12000000000E+03 0.  0.
         25    1    1    2    0    0  0.28566118257E+01  0.60837811810E+02 -0.73764271750E+03  0.74981742995E+03  0.12000000000E+03 0.  0.
<mgrwt>
<rscale>  0 0.26914241E+03</rscale>
<asrwt>0</asrwt>
<pdfrwt beam="1">  1        2 0.22867146E+00 0.26914241E+03</pdfrwt>
<pdfrwt beam="2">  1       -2 0.18744144E-02 0.26914241E+03</pdfrwt>
<totfact> 0.11794500E+04</totfact>
</mgrwt>
</event>
<event>
 4    1  0.1777979E-004  0.2957707E+03  0.7818608E-02  0.1087374E+00
          2   -1    0    0  501    0  0.00000000000E+00  0.00000000000E+00  0.25632870377E+03  0.25632870377E+03  0.00000000000E+00 0.  1.
         -2   -1    0    0    0  501 -0.00000000000E+00 -0.00000000000E+00 -0.85320423063E+02  0.85320423063E+02  0.00000000000E+00 0.  1.
         25    1    1    2    0    0 -0.58000324127E+02 -0.21968221545E+02  0.15503623647E+03  0.20562800144E+03  0.12000000000E+03 0.  0.
         25    1    1    2    0    0  0.58000324127E+02  0.21968221545E+02  0.15972044238E+02  0.13602112540E+03  0.12000000000E+03 0.  0.
<mgrwt>
<rscale>  0 0.29577068E+03</rscale>
<asrwt>0</asrwt>
<pdfrwt beam="1">  1        2 0.39435185E-01 0.29577068E+03</pdfrwt>
<pdfrwt beam="2">  1       -2 0.13126219E-01 0.29577068E+03</pdfrwt>
<totfact> 0.55213169E+03</totfact>
</mgrwt>
</event>
<event>
 4    1  0.1777979E-004  0.2700899E+03  0.7818608E-02  0.1101228E+00
          1   -1    0    0  501    0  0.00000000000E+00  0.00000000000E+00  0.67240292530E+03  0.67240292530E+03  0.00000000000E+00 0.  1.
         -1   -1    0    0    0  501 -0.00000000000E+00 -0.00000000000E+00 -0.27122339362E+02  0.27122339362E+02  0.00000000000E+00 0.  1.
         25    1    1    2    0    0 -0.19638730408E+02  0.58734495740E+02  0.32603662020E+03  0.35289559141E+03  0.12000000000E+03 0.  0.
         25    1    1    2    0    0  0.19638730408E+02 -0.58734495740E+02  0.31924396573E+03  0.34662967325E+03  0.12000000000E+03 0.  0.
<mgrwt>
<rscale>  0 0.27008991E+03</rscale>
<asrwt>0</asrwt>
<pdfrwt beam="1">  1        1 0.10344659E+00 0.27008991E+03</pdfrwt>
<pdfrwt beam="2">  1       -1 0.41726681E-02 0.27008991E+03</pdfrwt>
<totfact> 0.68766351E+03</totfact>
</mgrwt>
</event>
<event>
 4    1  0.1777979E-004  0.3652004E+03  0.7818608E-02  0.1056544E+00
          1   -1    0    0  501    0  0.00000000000E+00  0.00000000000E+00  0.18131383751E+03  0.18131383751E+03  0.00000000000E+00 0. -1.
         -1   -1    0    0    0  501 -0.00000000000E+00 -0.00000000000E+00 -0.18389564013E+03  0.18389564013E+03  0.00000000000E+00 0. -1.
         25    1    1    2    0    0 -0.12946898561E+03  0.33754993382E+02  0.30977635014E+02  0.18237662045E+03  0.12000000000E+03 0.  0.
         25    1    1    2    0    0  0.12946898561E+03 -0.33754993382E+02 -0.33559437634E+02  0.18283285719E+03  0.12000000000E+03 0.  0.
<mgrwt>
<rscale>  0 0.36520035E+03</rscale>
<asrwt>0</asrwt>
<pdfrwt beam="1">  1        1 0.27894437E-01 0.36520035E+03</pdfrwt>
<pdfrwt beam="2">  1       -1 0.28291637E-01 0.36520035E+03</pdfrwt>
<totfact> 0.18855640E+03</totfact>
</mgrwt>
</event>
<event>
 4    1  0.1777979E-004  0.3101341E+03  0.7818608E-02  0.1080282E+00
         -2   -1    0    0    0  501 -0.00000000000E+00  0.00000000000E+00  0.22270982489E+02  0.22270982489E+02  0.00000000000E+00 0. -1.
          2   -1    0    0  501    0  0.00000000000E+00 -0.00000000000E+00 -0.10796912059E+04  0.10796912059E+04  0.00000000000E+00 0. -1.
         25    1    1    2    0    0  0.65717737462E+02 -0.70752132751E+02 -0.46503987622E+03  0.48988444738E+03  0.12000000000E+03 0.  0.
         25    1    1    2    0    0 -0.65717737462E+02  0.70752132751E+02 -0.59238034716E+03  0.61207774098E+03  0.12000000000E+03 0.  0.
<mgrwt>
<rscale>  0 0.31013406E+03</rscale>
<asrwt>0</asrwt>
<pdfrwt beam="1">  1        2 0.16610634E+00 0.31013406E+03</pdfrwt>
<pdfrwt beam="2">  1       -2 0.34263050E-02 0.31013406E+03</pdfrwt>
<totfact> 0.81685805E+03</totfact>
</mgrwt>
</event>
<event>
 4    1  0.1777979E-004  0.2503624E+03  0.7818608E-02  0.1113076E+00
          2   -1    0    0  501    0  0.00000000000E+00  0.00000000000E+00  0.35341274302E+03  0.35341274302E+03  0.00000000000E+00 0. -1.
         -2   -1    0    0    0  501 -0.00000000000E+00 -0.00000000000E+00 -0.44340038658E+02  0.44340038658E+02  0.00000000000E+00 0. -1.
         25    1    1    2    0    0  0.29422427254E+02  0.10015634955E+02  0.12682068044E+03  0.17734000439E+03  0.12000000000E+03 0.  0.
         25    1    1    2    0    0 -0.29422427254E+02 -0.10015634955E+02  0.18225202393E+03  0.22041277729E+03  0.12000000000E+03 0.  0.
<mgrwt>
<rscale>  0 0.25036241E+03</rscale>
<asrwt>0</asrwt>
<pdfrwt beam="1">  1        2 0.54371189E-01 0.25036241E+03</pdfrwt>
<pdfrwt beam="2">  1       -2 0.68215447E-02 0.25036241E+03</pdfrwt>
<totfact> 0.10947180E+04</totfact>
</mgrwt>
</event>
<event>
 4    1  0.1777979E-004  0.2735966E+03  0.7818608E-02  0.1099239E+00
         -3   -1    0    0    0  501 -0.00000000000E+00  0.00000000000E+00  0.18266873018E+04  0.18266873018E+04  0.00000000000E+00 0. -1.
          3   -1    0    0  501    0  0.00000000000E+00 -0.00000000000E+00 -0.10244648161E+02  0.10244648161E+02  0.00000000000E+00 0. -1.
         25    1    1    2    0    0  0.50824578078E+01  0.59757824793E+02  0.10879940346E+04  0.10962334826E+04  0.12000000000E+03 0.  0.
         25    1    1    2    0    0 -0.50824578078E+01 -0.59757824793E+02  0.72844861905E+03  0.74069846739E+03  0.12000000000E+03 0.  0.
<mgrwt>
<rscale>  0 0.27359655E+03</rscale>
<asrwt>0</asrwt>
<pdfrwt beam="1">  1        3 0.15761012E-02 0.27359655E+03</pdfrwt>
<pdfrwt beam="2">  1       -3 0.28102856E+00 0.27359655E+03</pdfrwt>
<totfact> 0.19243183E+02</totfact>
</mgrwt>
</event>
<event>
 4    1  0.1777979E-004  0.4266025E+03  0.7818608E-02  0.1034939E+00
          2   -1    0    0  501    0  0.00000000000E+00  0.00000000000E+00  0.46504435197E+03  0.46504435197E+03  0.00000000000E+00 0. -1.
         -2   -1    0    0    0  501 -0.00000000000E+00 -0.00000000000E+00 -0.97834569276E+02  0.97834569276E+02  0.00000000000E+00 0. -1.
         25    1    1    2    0    0  0.16731580886E+03 -0.46982112944E+02  0.22308952160E+03  0.30719836178E+03  0.12000000000E+03 0.  0.
         25    1    1    2    0    0 -0.16731580886E+03  0.46982112944E+02  0.14412026109E+03  0.25568055946E+03  0.12000000000E+03 0.  0.
<mgrwt>
<rscale>  0 0.42660246E+03</rscale>
<asrwt>0</asrwt>
<pdfrwt beam="1">  1        2 0.71545284E-01 0.42660246E+03</pdfrwt>
<pdfrwt beam="2">  1       -2 0.15051472E-01 0.42660246E+03</pdfrwt>
<totfact> 0.23135969E+03</totfact>
</mgrwt>
</event>
<event>
 4    1  0.1777979E-004  0.2466450E+03  0.7818608E-02  0.1115444E+00
          1   -1    0    0  501    0  0.00000000000E+00  0.00000000000E+00  0.75413053630E+03  0.75413053630E+03  0.00000000000E+00 0. -1.
         -1   -1    0    0    0  501 -0.00000000000E+00 -0.00000000000E+00 -0.20166855244E+02  0.20166855244E+02  0.00000000000E+00 0. -1.
         25    1    1    2    0    0  0.24421752720E+02  0.88765730999E+01  0.33074672730E+03  0.35280109577E+03  0.12000000000E+03 0.  0.
         25    1    1    2    0    0 -0.24421752720E+02 -0.88765730999E+01  0.40321695375E+03  0.42149629577E+03  0.12000000000E+03 0.  0.
<mgrwt>
<rscale>  0 0.24664502E+03</rscale>
<asrwt>0</asrwt>
<pdfrwt beam="1">  1        1 0.11602006E+00 0.24664502E+03</pdfrwt>
<pdfrwt beam="2">  1       -1 0.31025937E-02 0.24664502E+03</pdfrwt>
<totfact> 0.89867001E+03</totfact>
</mgrwt>
</event>
<event>
 4    1  0.1777979E-004  0.3692824E+03  0.7818608E-02  0.1054968E+00
         -2   -1    0    0    0  501 -0.00000000000E+00  0.00000000000E+00  0.22679756503E+02  0.22679756503E+02  0.00000000000E+00 0.  1.
          2   -1    0    0  501    0  0.00000000000E+00 -0.00000000000E+00 -0.15032074444E+04  0.15032074444E+04  0.00000000000E+00 0.  1.
         25    1    1    2    0    0  0.90975765639E+02 -0.86870516785E+02 -0.99729164844E+03  0.10123308297E+04  0.12000000000E+03 0.  0.
         25    1    1    2    0    0 -0.90975765639E+02  0.86870516785E+02 -0.48323603946E+03  0.51355637125E+03  0.12000000000E+03 0.  0.
<mgrwt>
<rscale>  0 0.36928243E+03</rscale>
<asrwt>0</asrwt>
<pdfrwt beam="1">  1        2 0.23126274E+00 0.36928243E+03</pdfrwt>
<pdfrwt beam="2">  1       -2 0.34891925E-02 0.36928243E+03</pdfrwt>
<totfact> 0.45999800E+03</totfact>
</mgrwt>
</event>
<event>
 4    1  0.1777979E-004  0.2793104E+03  0.7818608E-02  0.1096066E+00
          2   -1    0    0  501    0  0.00000000000E+00  0.00000000000E+00  0.51103959551E+02  0.51103959551E+02  0.00000000000E+00 0. -1.
         -2   -1    0    0    0  501 -0.00000000000E+00 -0.00000000000E+00 -0.38164515446E+03  0.38164515446E+03  0.00000000000E+00 0. -1.
         25    1    1    2    0    0 -0.42413903729E+02 -0.19931584907E+02 -0.81729671570E+02  0.15256456509E+03  0.12000000000E+03 0.  0.
         25    1    1    2    0    0  0.42413903729E+02  0.19931584907E+02 -0.24881152334E+03  0.28018454892E+03  0.12000000000E+03 0.  0.
<mgrwt>
<rscale>  0 0.27931043E+03</rscale>
<asrwt>0</asrwt>
<pdfrwt beam="1">  1        2 0.78621475E-02 0.27931043E+03</pdfrwt>
<pdfrwt beam="2">  1       -2 0.58714640E-01 0.27931043E+03</pdfrwt>
<totfact> 0.24002029E+03</totfact>
</mgrwt>
</event>
<event>
 4    1  0.1777979E-004  0.3883752E+03  0.7818608E-02  0.1047881E+00
          2   -1    0    0  501    0  0.00000000000E+00  0.00000000000E+00  0.99654325140E+03  0.99654325140E+03  0.00000000000E+00 0. -1.
         -2   -1    0    0    0  501 -0.00000000000E+00 -0.00000000000E+00 -0.37839628470E+02  0.37839628470E+02  0.00000000000E+00 0. -1.
         25    1    1    2    0    0 -0.10769641142E+03 -0.83071561273E+02  0.29464776870E+03  0.34600102446E+03  0.12000000000E+03 0.  0.
         25    1    1    2    0    0  0.10769641142E+03  0.83071561273E+02  0.66405585423E+03  0.68838185541E+03  0.12000000000E+03 0.  0.
<mgrwt>
<rscale>  0 0.38837521E+03</rscale>
<asrwt>0</asrwt>
<pdfrwt beam="1">  1        2 0.15331433E+00 0.38837521E+03</pdfrwt>
<pdfrwt beam="2">  1       -2 0.58214821E-02 0.38837521E+03</pdfrwt>
<totfact> 0.41091523E+03</totfact>
</mgrwt>
</event>
<event>
 4    1  0.1777979E-004  0.2512004E+03  0.7818608E-02  0.1112549E+00
          1   -1    0    0  501    0  0.00000000000E+00  0.00000000000E+00  0.29248806438E+03  0.29248806438E+03  0.00000000000E+00 0.  1.
         -1   -1    0    0    0  501 -0.00000000000E+00 -0.00000000000E+00 -0.53935235802E+02  0.53935235802E+02  0.00000000000E+00 0.  1.
         25    1    1    2    0    0  0.21752368284E+02 -0.29091140667E+02  0.12959208274E+03  0.18031519043E+03  0.12000000000E+03 0.  0.
         25    1    1    2    0    0 -0.21752368284E+02  0.29091140667E+02  0.10896074584E+03  0.16610810975E+03  0.12000000000E+03 0.  0.
<mgrwt>
<rscale>  0 0.25120042E+03</rscale>
<asrwt>0</asrwt>
<pdfrwt beam="1">  1        1 0.44998163E-01 0.25120042E+03</pdfrwt>
<pdfrwt beam="2">  1       -1 0.82977288E-02 0.25120042E+03</pdfrwt>
<totfact> 0.72745329E+03</totfact>
</mgrwt>
</event>
<event>
 4    1  0.1777979E-004  0.2879557E+03  0.7818608E-02  0.1091421E+00
         -2   -1    0    0    0  501 -0.00000000000E+00  0.00000000000E+00  0.18930515880E+02  0.18930515880E+02  0.00000000000E+00 0. -1.
          2   -1    0    0  501    0  0.00000000000E+00 -0.00000000000E+00 -0.10950369597E+04  0.10950369597E+04  0.00000000000E+00 0. -1.
         25    1    1    2    0    0  0.42261073711E+02 -0.41433368746E+02 -0.74373770155E+03  0.75567750469E+03  0.12000000000E+03 0.  0.
         25    1    1    2    0    0 -0.42261073711E+02  0.41433368746E+02 -0.33236874224E+03  0.35828997086E+03  0.12000000000E+03 0.  0.
<mgrwt>
<rscale>  0 0.28795565E+03</rscale>
<asrwt>0</asrwt>
<pdfrwt beam="1">  1        2 0.16846723E+00 0.28795565E+03</pdfrwt>
<pdfrwt beam="2">  1       -2 0.29123870E-02 0.28795565E+03</pdfrwt>
<totfact> 0.10181052E+04</totfact>
</mgrwt>
</event>
<event>
 4    1  0.1777979E-004  0.2784374E+03  0.7818608E-02  0.1096545E+00
          2   -1    0    0  501    0  0.00000000000E+00  0.00000000000E+00  0.16265658712E+04  0.16265658712E+04  0.00000000000E+00 0.  1.
         -2   -1    0    0    0  501 -0.00000000000E+00 -0.00000000000E+00 -0.11915808894E+02  0.11915808894E+02  0.00000000000E+00 0.  1.
         25    1    1    2    0    0  0.59941062454E+02 -0.32538438422E+02  0.91425043996E+03  0.92461102519E+03  0.12000000000E+03 0.  0.
         25    1    1    2    0    0 -0.59941062454E+02  0.32538438422E+02  0.70039962232E+03  0.71387065488E+03  0.12000000000E+03 0.  0.
<mgrwt>
<rscale>  0 0.27843741E+03</rscale>
<asrwt>0</asrwt>
<pdfrwt beam="1">  1        2 0.25024073E+00 0.27843741E+03</pdfrwt>
<pdfrwt beam="2">  1       -2 0.18332027E-02 0.27843741E+03</pdfrwt>
<totfact> 0.10269642E+04</totfact>
</mgrwt>
</event>
<event>
 4    1  0.1777979E-004  0.2790427E+03  0.7818608E-02  0.1096213E+00
          2   -1    0    0  501    0  0.00000000000E+00  0.00000000000E+00  0.17930265383E+03  0.17930265383E+03  0.00000000000E+00 0.  1.
         -2   -1    0    0    0  501 -0.00000000000E+00 -0.00000000000E+00 -0.10856622056E+03  0.10856622056E+03  0.00000000000E+00 0.  1.
         25    1    1    2    0    0 -0.67705153918E+02 -0.21950287246E+02  0.34708872064E+02  0.14377242009E+03  0.12000000000E+03 0.  0.
         25    1    1    2    0    0  0.67705153918E+02  0.21950287246E+02  0.36027561207E+02  0.14409645431E+03  0.12000000000E+03 0.  0.
<mgrwt>
<rscale>  0 0.27904273E+03</rscale>
<asrwt>0</asrwt>
<pdfrwt beam="1">  1        2 0.27585024E-01 0.27904273E+03</pdfrwt>
<pdfrwt beam="2">  1       -2 0.16702496E-01 0.27904273E+03</pdfrwt>
<totfact> 0.54693142E+03</totfact>
</mgrwt>
</event>
<event>
 4    1  0.1777979E-004  0.2426808E+03  0.7818608E-02  0.1118020E+00
          2   -1    0    0  501    0  0.00000000000E+00  0.00000000000E+00  0.16849536686E+03  0.16849536686E+03  0.00000000000E+00 0.  1.
         -2   -1    0    0    0  501 -0.00000000000E+00 -0.00000000000E+00 -0.87382163747E+02  0.87382163747E+02  0.00000000000E+00 0.  1.
         25    1    1    2    0    0  0.11263828711E+02 -0.36157045984E+01  0.26272096634E+02  0.12341057580E+03  0.12000000000E+03 0.  0.
         25    1    1    2    0    0 -0.11263828711E+02  0.36157045984E+01  0.54841106481E+02  0.13246695481E+03  0.12000000000E+03 0.  0.
<mgrwt>
<rscale>  0 0.24268078E+03</rscale>
<asrwt>0</asrwt>
<pdfrwt beam="1">  1        2 0.25922364E-01 0.24268078E+03</pdfrwt>
<pdfrwt beam="2">  1       -2 0.13443410E-01 0.24268078E+03</pdfrwt>
<totfact> 0.83371106E+03</totfact>
</mgrwt>
</event>
<event>
 4    1  0.1777979E-004  0.4153421E+03  0.7818608E-02  0.1038593E+00
         -2   -1    0    0    0  501 -0.00000000000E+00  0.00000000000E+00  0.26156086684E+02  0.26156086684E+02  0.00000000000E+00 0. -1.
          2   -1    0    0  501    0  0.00000000000E+00 -0.00000000000E+00 -0.16488423756E+04  0.16488423756E+04  0.00000000000E+00 0. -1.
         25    1    1    2    0    0 -0.13658506392E+03  0.81779717231E+02 -0.10459360109E+04  0.10647654862E+04  0.12000000000E+03 0.  0.
         25    1    1    2    0    0  0.13658506392E+03 -0.81779717231E+02 -0.57675027802E+03  0.61023297603E+03  0.12000000000E+03 0.  0.
<mgrwt>
<rscale>  0 0.41534210E+03</rscale>
<asrwt>0</asrwt>
<pdfrwt beam="1">  1        2 0.25366805E+00 0.41534210E+03</pdfrwt>
<pdfrwt beam="2">  1       -2 0.40240135E-02 0.41534210E+03</pdfrwt>
<totfact> 0.30913186E+03</totfact>
</mgrwt>
</event>
<event>
 4    1  0.1777979E-004  0.3540052E+03  0.7818608E-02  0.1060983E+00
          2   -1    0    0  501    0  0.00000000000E+00  0.00000000000E+00  0.71047337190E+03  0.71047337190E+03  0.00000000000E+00 0. -1.
         -2   -1    0    0    0  501 -0.00000000000E+00 -0.00000000000E+00 -0.44097254896E+02  0.44097254896E+02  0.00000000000E+00 0. -1.
         25    1    1    2    0    0 -0.98949774985E+02  0.80560452667E+02  0.38748466737E+03  0.42523571340E+03  0.12000000000E+03 0.  0.
         25    1    1    2    0    0  0.98949774985E+02 -0.80560452667E+02  0.27889144964E+03  0.32933491340E+03  0.12000000000E+03 0.  0.
<mgrwt>
<rscale>  0 0.35400523E+03</rscale>
<asrwt>0</asrwt>
<pdfrwt beam="1">  1        2 0.10930359E+00 0.35400523E+03</pdfrwt>
<pdfrwt beam="2">  1       -2 0.67841936E-02 0.35400523E+03</pdfrwt>
<totfact> 0.50609875E+03</totfact>
</mgrwt>
</event>
<event>
 4    1  0.1777979E-004  0.2855338E+03  0.7818608E-02  0.1092704E+00
          2   -1    0    0  501    0  0.00000000000E+00  0.00000000000E+00  0.14099322276E+04  0.14099322276E+04  0.00000000000E+00 0.  1.
         -2   -1    0    0    0  501 -0.00000000000E+00 -0.00000000000E+00 -0.14456285979E+02  0.14456285979E+02  0.00000000000E+00 0.  1.
         25    1    1    2    0    0  0.40254031998E+02  0.33133757487E+02  0.41273061352E+03  0.43297204565E+03  0.12000000000E+03 0.  0.
         25    1    1    2    0    0 -0.40254031998E+02 -0.33133757487E+02  0.98274532814E+03  0.99141646797E+03  0.12000000000E+03 0.  0.
<mgrwt>
<rscale>  0 0.28553377E+03</rscale>
<asrwt>0</asrwt>
<pdfrwt beam="1">  1        2 0.21691254E+00 0.28553377E+03</pdfrwt>
<pdfrwt beam="2">  1       -2 0.22240451E-02 0.28553377E+03</pdfrwt>
<totfact> 0.10094299E+04</totfact>
</mgrwt>
</event>
<event>
 4    1  0.1777979E-004  0.3088423E+03  0.7818608E-02  0.1080902E+00
          3   -1    0    0  501    0  0.00000000000E+00  0.00000000000E+00  0.26008852635E+03  0.26008852635E+03  0.00000000000E+00 0.  1.
         -3   -1    0    0    0  501 -0.00000000000E+00 -0.00000000000E+00 -0.91683762636E+02  0.91683762636E+02  0.00000000000E+00 0.  1.
         25    1    1    2    0    0  0.72980885493E+02 -0.58199693632E+02  0.53375974060E+02  0.16112854680E+03  0.12000000000E+03 0.  0.
         25    1    1    2    0    0 -0.72980885493E+02  0.58199693632E+02  0.11502878965E+03  0.19064374219E+03  0.12000000000E+03 0.  0.
<mgrwt>
<rscale>  0 0.30884232E+03</rscale>
<asrwt>0</asrwt>
<pdfrwt beam="1">  1        3 0.40013619E-01 0.30884232E+03</pdfrwt>
<pdfrwt beam="2">  1       -3 0.14105194E-01 0.30884232E+03</pdfrwt>
<totfact> 0.65798239E+02</totfact>
</mgrwt>
</event>
<event>
 4    1  0.1777979E-004  0.2440892E+03  0.7818608E-02  0.1117098E+00
          2   -1    0    0  501    0  0.00000000000E+00  0.00000000000E+00  0.37748680843E+02  0.37748680843E+02  0.00000000000E+00 0.  1.
         -2   -1    0    0    0  501 -0.00000000000E+00 -0.00000000000E+00 -0.39458036997E+03  0.39458036997E+03  0.00000000000E+00 0.  1.
         25    1    1    2    0    0  0.18900939298E+00 -0.17067495279E+02 -0.15314586414E+03  0.19530742644E+03  0.12000000000E+03 0.  0.
         25    1    1    2    0    0 -0.18900939298E+00  0.17067495279E+02 -0.20368582499E+03  0.23702162437E+03  0.12000000000E+03 0.  0.
<mgrwt>
<rscale>  0 0.24408923E+03</rscale>
<asrwt>0</asrwt>
<pdfrwt beam="1">  1        2 0.58074891E-02 0.24408923E+03</pdfrwt>
<pdfrwt beam="2">  1       -2 0.60704675E-01 0.24408923E+03</pdfrwt>
<totfact> 0.32962514E+03</totfact>
</mgrwt>
</event>
<event>
 4    1  0.1777979E-004  0.2816905E+03  0.7818608E-02  0.1094769E+00
         -2   -1    0    0    0  501 -0.00000000000E+00  0.00000000000E+00  0.51060599144E+02  0.51060599144E+02  0.00000000000E+00 0.  1.
          2   -1    0    0  501    0  0.00000000000E+00 -0.00000000000E+00 -0.38850678083E+03  0.38850678083E+03  0.00000000000E+00 0.  1.
         25    1    1    2    0    0  0.16934270773E+01 -0.25948531590E+02 -0.27639717607E+03  0.30244271015E+03  0.12000000000E+03 0.  0.
         25    1    1    2    0    0 -0.16934270773E+01  0.25948531590E+02 -0.61049005624E+02  0.13712466982E+03  0.12000000000E+03 0.  0.
<mgrwt>
<rscale>  0 0.28169053E+03</rscale>
<asrwt>0</asrwt>
<pdfrwt beam="1">  1        2 0.59770276E-01 0.28169053E+03</pdfrwt>
<pdfrwt beam="2">  1       -2 0.78554766E-02 0.28169053E+03</pdfrwt>
<totfact> 0.79773141E+03</totfact>
</mgrwt>
</event>
<event>
 4    1  0.1777979E-004  0.2962118E+03  0.7818608E-02  0.1087150E+00
         -3   -1    0    0    0  501 -0.00000000000E+00  0.00000000000E+00  0.21286864915E+03  0.21286864915E+03  0.00000000000E+00 0. -1.
          3   -1    0    0  501    0  0.00000000000E+00 -0.00000000000E+00 -0.10304643170E+03  0.10304643170E+03  0.00000000000E+00 0. -1.
         25    1    1    2    0    0 -0.68470142654E+02  0.52975622627E+02  0.48100603467E+02  0.15558999030E+03  0.12000000000E+03 0.  0.
         25    1    1    2    0    0  0.68470142654E+02 -0.52975622627E+02  0.61721613976E+02  0.16032509055E+03  0.12000000000E+03 0.  0.
<mgrwt>
<rscale>  0 0.29621178E+03</rscale>
<asrwt>0</asrwt>
<pdfrwt beam="1">  1        3 0.15853297E-01 0.29621178E+03</pdfrwt>
<pdfrwt beam="2">  1       -3 0.32749023E-01 0.29621178E+03</pdfrwt>
<totfact> 0.78661611E+02</totfact>
</mgrwt>
</event>
<event>
 4    1  0.1777979E-004  0.3832842E+03  0.7818608E-02  0.1049727E+00
          1   -1    0    0  501    0  0.00000000000E+00  0.00000000000E+00  0.88963522660E+02  0.88963522660E+02  0.00000000000E+00 0. -1.
         -1   -1    0    0    0  501 -0.00000000000E+00 -0.00000000000E+00 -0.41282873437E+03  0.41282873437E+03  0.00000000000E+00 0. -1.
         25    1    1    2    0    0  0.68964771248E+02 -0.88134535956E+01 -0.33508707148E+03  0.36265294995E+03  0.12000000000E+03 0.  0.
         25    1    1    2    0    0 -0.68964771248E+02  0.88134535956E+01  0.11221859766E+02  0.13913930708E+03  0.12000000000E+03 0.  0.
<mgrwt>
<rscale>  0 0.38328422E+03</rscale>
<asrwt>0</asrwt>
<pdfrwt beam="1">  1        1 0.13686696E-01 0.38328422E+03</pdfrwt>
<pdfrwt beam="2">  1       -1 0.63512114E-01 0.38328422E+03</pdfrwt>
<totfact> 0.10988888E+03</totfact>
</mgrwt>
</event>
<event>
 4    1  0.1777979E-004  0.3025999E+03  0.7818608E-02  0.1083948E+00
          2   -1    0    0  501    0  0.00000000000E+00  0.00000000000E+00  0.43206643743E+03  0.43206643743E+03  0.00000000000E+00 0.  1.
         -2   -1    0    0    0  501 -0.00000000000E+00 -0.00000000000E+00 -0.52981832910E+02  0.52981832910E+02  0.00000000000E+00 0.  1.
         25    1    1    2    0    0  0.55646046709E+02 -0.66983685387E+02  0.14123098970E+03  0.20476691401E+03  0.12000000000E+03 0.  0.
         25    1    1    2    0    0 -0.55646046709E+02  0.66983685387E+02  0.23785361482E+03  0.28028135633E+03  0.12000000000E+03 0.  0.
<mgrwt>
<rscale>  0 0.30259988E+03</rscale>
<asrwt>0</asrwt>
<pdfrwt beam="1">  1        2 0.66471757E-01 0.30259988E+03</pdfrwt>
<pdfrwt beam="2">  1       -2 0.81510515E-02 0.30259988E+03</pdfrwt>
<totfact> 0.67199530E+03</totfact>
</mgrwt>
</event>
<event>
 4    1  0.1777979E-004  0.2734220E+03  0.7818608E-02  0.1099337E+00
          2   -1    0    0  501    0  0.00000000000E+00  0.00000000000E+00  0.22766960205E+04  0.22766960205E+04  0.00000000000E+00 0.  1.
         -2   -1    0    0    0  501 -0.00000000000E+00 -0.00000000000E+00 -0.82092196526E+01  0.82092196526E+01  0.00000000000E+00 0.  1.
         25    1    1    2    0    0  0.60701218335E+02 -0.21164204859E+02  0.10294222024E+04  0.10383846264E+04  0.12000000000E+03 0.  0.
         25    1    1    2    0    0 -0.60701218335E+02  0.21164204859E+02  0.12390645985E+04  0.12465206138E+04  0.12000000000E+03 0.  0.
<mgrwt>
<rscale>  0 0.27342200E+03</rscale>
<asrwt>0</asrwt>
<pdfrwt beam="1">  1        2 0.35026042E+00 0.27342200E+03</pdfrwt>
<pdfrwt beam="2">  1       -2 0.12629587E-02 0.27342200E+03</pdfrwt>
<totfact> 0.80394474E+03</totfact>
</mgrwt>
</event>
<event>
 4    1  0.1777979E-004  0.2668365E+03  0.7818608E-02  0.1103104E+00
         -2   -1    0    0    0  501 -0.00000000000E+00  0.00000000000E+00  0.37789293213E+02  0.37789293213E+02  0.00000000000E+00 0.  1.
          2   -1    0    0  501    0  0.00000000000E+00 -0.00000000000E+00 -0.47104436585E+03  0.47104436585E+03  0.00000000000E+00 0.  1.
         25    1    1    2    0    0 -0.48328714002E+02 -0.31261577974E+02 -0.19879176526E+03  0.23923025893E+03  0.12000000000E+03 0.  0.
         25    1    1    2    0    0  0.48328714002E+02  0.31261577974E+02 -0.23446330738E+03  0.26960340013E+03  0.12000000000E+03 0.  0.
<mgrwt>
<rscale>  0 0.26683653E+03</rscale>
<asrwt>0</asrwt>
<pdfrwt beam="1">  1        2 0.72468368E-01 0.26683653E+03</pdfrwt>
<pdfrwt beam="2">  1       -2 0.58137371E-02 0.26683653E+03</pdfrwt>
<totfact> 0.10264628E+04</totfact>
</mgrwt>
</event>
<event>
 4    1  0.1777979E-004  0.2876173E+03  0.7818608E-02  0.1091600E+00
         -2   -1    0    0    0  501 -0.00000000000E+00  0.00000000000E+00  0.66414670777E+02  0.66414670777E+02  0.00000000000E+00 0. -1.
          2   -1    0    0  501    0  0.00000000000E+00 -0.00000000000E+00 -0.31139091598E+03  0.31139091598E+03  0.00000000000E+00 0. -1.
         25    1    1    2    0    0  0.25145275108E+02  0.69455695580E+02 -0.16020719611E+03  0.21336054976E+03  0.12000000000E+03 0.  0.
         25    1    1    2    0    0 -0.25145275108E+02 -0.69455695580E+02 -0.84769049094E+02  0.16444503700E+03  0.12000000000E+03 0.  0.
<mgrwt>
<rscale>  0 0.28761728E+03</rscale>
<asrwt>0</asrwt>
<pdfrwt beam="1">  1        2 0.47906295E-01 0.28761728E+03</pdfrwt>
<pdfrwt beam="2">  1       -2 0.10217642E-01 0.28761728E+03</pdfrwt>
<totfact> 0.66978600E+03</totfact>
</mgrwt>
</event>
<event>
 4    1  0.1777979E-004  0.4460517E+03  0.7818608E-02  0.1028906E+00
          1   -1    0    0  501    0  0.00000000000E+00  0.00000000000E+00  0.41996328188E+03  0.41996328188E+03  0.00000000000E+00 0.  1.
         -1   -1    0    0    0  501 -0.00000000000E+00 -0.00000000000E+00 -0.11844021067E+03  0.11844021067E+03  0.00000000000E+00 0.  1.
         25    1    1    2    0    0  0.11589644294E+03 -0.82941825148E+02  0.29873732668E+03  0.35207289330E+03  0.12000000000E+03 0.  0.
         25    1    1    2    0    0 -0.11589644294E+03  0.82941825148E+02  0.27857445380E+01  0.18633059925E+03  0.12000000000E+03 0.  0.
<mgrwt>
<rscale>  0 0.44605174E+03</rscale>
<asrwt>0</asrwt>
<pdfrwt beam="1">  1        1 0.64609735E-01 0.44605174E+03</pdfrwt>
<pdfrwt beam="2">  1       -1 0.18221571E-01 0.44605174E+03</pdfrwt>
<totfact> 0.13405155E+03</totfact>
</mgrwt>
</event>
<event>
 4    1  0.1777979E-004  0.2843957E+03  0.7818608E-02  0.1093312E+00
         -1   -1    0    0    0  501 -0.00000000000E+00  0.00000000000E+00  0.42941202868E+03  0.42941202868E+03  0.00000000000E+00 0.  1.
          1   -1    0    0  501    0  0.00000000000E+00 -0.00000000000E+00 -0.47088178452E+02  0.47088178452E+02  0.00000000000E+00 0.  1.
         25    1    1    2    0    0  0.22796457609E+02  0.42543822107E+02  0.92172561059E+02  0.15882517524E+03  0.12000000000E+03 0.  0.
         25    1    1    2    0    0 -0.22796457609E+02 -0.42543822107E+02  0.29015128917E+03  0.31767503189E+03  0.12000000000E+03 0.  0.
<mgrwt>
<rscale>  0 0.28439571E+03</rscale>
<asrwt>0</asrwt>
<pdfrwt beam="1">  1        1 0.72443354E-02 0.28439571E+03</pdfrwt>
<pdfrwt beam="2">  1       -1 0.66063386E-01 0.28439571E+03</pdfrwt>
<totfact> 0.23944812E+03</totfact>
</mgrwt>
</event>
<event>
 4    1  0.1777979E-004  0.2733751E+03  0.7818608E-02  0.1099363E+00
          2   -1    0    0  501    0  0.00000000000E+00  0.00000000000E+00  0.31069891527E+04  0.31069891527E+04  0.00000000000E+00 0.  1.
         -2   -1    0    0    0  501 -0.00000000000E+00 -0.00000000000E+00 -0.60133715616E+01  0.60133715616E+01  0.00000000000E+00 0.  1.
         25    1    1    2    0    0 -0.32727863223E+02  0.17673667459E+02  0.93726234765E+03  0.94564484870E+03  0.12000000000E+03 0.  0.
         25    1    1    2    0    0  0.32727863223E+02 -0.17673667459E+02  0.21637134335E+04  0.21673576756E+04  0.12000000000E+03 0.  0.
<mgrwt>
<rscale>  0 0.27337506E+03</rscale>
<asrwt>0</asrwt>
<pdfrwt beam="1">  1        2 0.47799705E+00 0.27337506E+03</pdfrwt>
<pdfrwt beam="2">  1       -2 0.92513656E-03 0.27337506E+03</pdfrwt>
<totfact> 0.42921211E+03</totfact>
</mgrwt>
</event>
<event>
 4    1  0.1777979E-004  0.3121028E+03  0.7818608E-02  0.1079342E+00
          2   -1    0    0  501    0  0.00000000000E+00  0.00000000000E+00  0.12178798436E+04  0.12178798436E+04  0.00000000000E+00 0. -1.
         -2   -1    0    0    0  501 -0.00000000000E+00 -0.00000000000E+00 -0.19995432627E+02  0.19995432627E+02  0.00000000000E+00 0. -1.
         25    1    1    2    0    0  0.94046572101E+02 -0.29881541374E+02  0.65701348531E+03  0.67513286405E+03  0.12000000000E+03 0.  0.
         25    1    1    2    0    0 -0.94046572101E+02  0.29881541374E+02  0.54087092569E+03  0.56274241220E+03  0.12000000000E+03 0.  0.
<mgrwt>
<rscale>  0 0.31210277E+03</rscale>
<asrwt>0</asrwt>
<pdfrwt beam="1">  1        2 0.18736607E+00 0.31210277E+03</pdfrwt>
<pdfrwt beam="2">  1       -2 0.30762214E-02 0.31210277E+03</pdfrwt>
<totfact> 0.79805720E+03</totfact>
</mgrwt>
</event>
<event>
 4    1  0.1777979E-004  0.3211560E+03  0.7818608E-02  0.1075119E+00
         -2   -1    0    0    0  501 -0.00000000000E+00  0.00000000000E+00  0.35574243446E+02  0.35574243446E+02  0.00000000000E+00 0.  1.
          2   -1    0    0  501    0  0.00000000000E+00 -0.00000000000E+00 -0.72483035632E+03  0.72483035632E+03  0.00000000000E+00 0.  1.
         25    1    1    2    0    0  0.10461070298E+03  0.15234968569E+02 -0.31033397700E+03  0.34911700149E+03  0.12000000000E+03 0.  0.
         25    1    1    2    0    0 -0.10461070298E+03 -0.15234968569E+02 -0.37892213587E+03  0.41128759828E+03  0.12000000000E+03 0.  0.
<mgrwt>
<rscale>  0 0.32115598E+03</rscale>
<asrwt>0</asrwt>
<pdfrwt beam="1">  1        2 0.11151235E+00 0.32115598E+03</pdfrwt>
<pdfrwt beam="2">  1       -2 0.54729612E-02 0.32115598E+03</pdfrwt>
<totfact> 0.68652920E+03</totfact>
</mgrwt>
</event>
<event>
 4    1  0.1777979E-004  0.3223502E+03  0.7818608E-02  0.1074573E+00
         -1   -1    0    0    0  501 -0.00000000000E+00  0.00000000000E+00  0.11975291197E+03  0.11975291197E+03  0.00000000000E+00 0. -1.
          1   -1    0    0  501    0  0.00000000000E+00 -0.00000000000E+00 -0.21692507498E+03  0.21692507498E+03  0.00000000000E+00 0. -1.
         25    1    1    2    0    0 -0.39733518533E+02 -0.61925700389E+02  0.33413823588E+02  0.14467214131E+03  0.12000000000E+03 0.  0.
         25    1    1    2    0    0  0.39733518533E+02  0.61925700389E+02 -0.13058598660E+03  0.19200584564E+03  0.12000000000E+03 0.  0.
<mgrwt>
<rscale>  0 0.32235018E+03</rscale>
<asrwt>0</asrwt>
<pdfrwt beam="1">  1        1 0.33373088E-01 0.32235018E+03</pdfrwt>
<pdfrwt beam="2">  1       -1 0.18423525E-01 0.32235018E+03</pdfrwt>
<totfact> 0.30521944E+03</totfact>
</mgrwt>
</event>
<event>
 4    1  0.1777979E-004  0.3078346E+03  0.7818608E-02  0.1081388E+00
         -1   -1    0    0    0  501 -0.00000000000E+00  0.00000000000E+00  0.18107325248E+02  0.18107325248E+02  0.00000000000E+00 0. -1.
          1   -1    0    0  501    0  0.00000000000E+00 -0.00000000000E+00 -0.13083401290E+04  0.13083401290E+04  0.00000000000E+00 0. -1.
         25    1    1    2    0    0  0.21134054305E+02 -0.93424397842E+02 -0.59875272385E+03  0.61812586961E+03  0.12000000000E+03 0.  0.
         25    1    1    2    0    0 -0.21134054305E+02  0.93424397842E+02 -0.69148007992E+03  0.70832158466E+03  0.12000000000E+03 0.  0.
<mgrwt>
<rscale>  0 0.30783463E+03</rscale>
<asrwt>0</asrwt>
<pdfrwt beam="1">  1        1 0.20128316E+00 0.30783463E+03</pdfrwt>
<pdfrwt beam="2">  1       -1 0.27857414E-02 0.30783463E+03</pdfrwt>
<totfact> 0.40612774E+03</totfact>
</mgrwt>
</event>
<event>
 4    1  0.1777979E-004  0.2494011E+03  0.7818608E-02  0.1113684E+00
         -1   -1    0    0    0  501 -0.00000000000E+00  0.00000000000E+00  0.20114492534E+02  0.20114492534E+02  0.00000000000E+00 0.  1.
          1   -1    0    0  501    0  0.00000000000E+00 -0.00000000000E+00 -0.77308594968E+03  0.77308594968E+03  0.00000000000E+00 0.  1.
         25    1    1    2    0    0 -0.47635518439E+01 -0.57203245433E+01 -0.27125187095E+03  0.29670354065E+03  0.12000000000E+03 0.  0.
         25    1    1    2    0    0  0.47635518439E+01  0.57203245433E+01 -0.48171958620E+03  0.49649690157E+03  0.12000000000E+03 0.  0.
<mgrwt>
<rscale>  0 0.24940114E+03</rscale>
<asrwt>0</asrwt>
<pdfrwt beam="1">  1        1 0.11893630E+00 0.24940114E+03</pdfrwt>
<pdfrwt beam="2">  1       -1 0.30945372E-02 0.24940114E+03</pdfrwt>
<totfact> 0.86939531E+03</totfact>
</mgrwt>
</event>
<event>
 4    1  0.1777979E-004  0.2668421E+03  0.7818608E-02  0.1103101E+00
          1   -1    0    0  501    0  0.00000000000E+00  0.00000000000E+00  0.22348738216E+03  0.22348738216E+03  0.00000000000E+00 0.  1.
         -1   -1    0    0    0  501 -0.00000000000E+00 -0.00000000000E+00 -0.79651790859E+02  0.79651790859E+02  0.00000000000E+00 0.  1.
         25    1    1    2    0    0 -0.12041159579E+02 -0.56944036059E+02  0.76100690030E+02  0.15355431544E+03  0.12000000000E+03 0.  0.
         25    1    1    2    0    0  0.12041159579E+02  0.56944036059E+02  0.67734901267E+02  0.14958485758E+03  0.12000000000E+03 0.  0.
<mgrwt>
<rscale>  0 0.26684205E+03</rscale>
<asrwt>0</asrwt>
<pdfrwt beam="1">  1        1 0.34382674E-01 0.26684205E+03</pdfrwt>
<pdfrwt beam="2">  1       -1 0.12254122E-01 0.26684205E+03</pdfrwt>
<totfact> 0.55944212E+03</totfact>
</mgrwt>
</event>
<event>
 4    1  0.1777979E-004  0.3142678E+03  0.7818608E-02  0.1078318E+00
         -2   -1    0    0    0  501 -0.00000000000E+00  0.00000000000E+00  0.39091408206E+02  0.39091408206E+02  0.00000000000E+00 0.  1.
          2   -1    0    0  501    0  0.00000000000E+00 -0.00000000000E+00 -0.63162382792E+03  0.63162382792E+03  0.00000000000E+00 0.  1.
         25    1    1    2    0    0  0.56404314107E+02 -0.81820733157E+02 -0.33974274427E+03  0.37376625223E+03  0.12000000000E+03 0.  0.
         25    1    1    2    0    0 -0.56404314107E+02  0.81820733157E+02 -0.25278967545E+03  0.29694898390E+03  0.12000000000E+03 0.  0.
<mgrwt>
<rscale>  0 0.31426782E+03</rscale>
<asrwt>0</asrwt>
<pdfrwt beam="1">  1        2 0.97172894E-01 0.31426782E+03</pdfrwt>
<pdfrwt beam="2">  1       -2 0.60140630E-02 0.31426782E+03</pdfrwt>
<totfact> 0.70104525E+03</totfact>
</mgrwt>
</event>
<event>
 4    1  0.1777979E-004  0.3877392E+03  0.7818608E-02  0.1048110E+00
          1   -1    0    0  501    0  0.00000000000E+00  0.00000000000E+00  0.89339937799E+03  0.89339937799E+03  0.00000000000E+00 0.  1.
         -1   -1    0    0    0  501 -0.00000000000E+00 -0.00000000000E+00 -0.42070126574E+02  0.42070126574E+02  0.00000000000E+00 0.  1.
         25    1    1    2    0    0  0.11313731294E+03  0.65246078229E+02  0.61453364116E+03  0.63961605547E+03  0.12000000000E+03 0.  0.
         25    1    1    2    0    0 -0.11313731294E+03 -0.65246078229E+02  0.23679561026E+03  0.29585344910E+03  0.12000000000E+03 0.  0.
<mgrwt>
<rscale>  0 0.38773922E+03</rscale>
<asrwt>0</asrwt>
<pdfrwt beam="1">  1        1 0.13744604E+00 0.38773922E+03</pdfrwt>
<pdfrwt beam="2">  1       -1 0.64723278E-02 0.38773922E+03</pdfrwt>
<totfact> 0.23071058E+03</totfact>
</mgrwt>
</event>
<event>
 4    1  0.1777979E-004  0.3312355E+03  0.7818608E-02  0.1070592E+00
          1   -1    0    0  501    0  0.00000000000E+00  0.00000000000E+00  0.29685424484E+02  0.29685424484E+02  0.00000000000E+00 0. -1.
         -1   -1    0    0    0  501 -0.00000000000E+00 -0.00000000000E+00 -0.92399659347E+03  0.92399659347E+03  0.00000000000E+00 0. -1.
         25    1    1    2    0    0 -0.73322070345E+02 -0.53657676761E+02 -0.64608825646E+03  0.66338925783E+03  0.12000000000E+03 0.  0.
         25    1    1    2    0    0  0.73322070345E+02  0.53657676761E+02 -0.24822291252E+03  0.29029276012E+03  0.12000000000E+03 0.  0.
<mgrwt>
<rscale>  0 0.33123545E+03</rscale>
<asrwt>0</asrwt>
<pdfrwt beam="1">  1        1 0.45669884E-02 0.33123545E+03</pdfrwt>
<pdfrwt beam="2">  1       -1 0.14215332E+00 0.33123545E+03</pdfrwt>
<totfact> 0.82282571E+02</totfact>
</mgrwt>
</event>
<event>
 4    1  0.1777979E-004  0.2569818E+03  0.7818608E-02  0.1108970E+00
         -2   -1    0    0    0  501 -0.00000000000E+00  0.00000000000E+00  0.18933844891E+02  0.18933844891E+02  0.00000000000E+00 0.  1.
          2   -1    0    0  501    0  0.00000000000E+00 -0.00000000000E+00 -0.87197904144E+03  0.87197904144E+03  0.00000000000E+00 0.  1.
         25    1    1    2    0    0  0.36464288346E+02 -0.65790605511E+01 -0.33240672161E+03  0.35534090242E+03  0.12000000000E+03 0.  0.
         25    1    1    2    0    0 -0.36464288346E+02  0.65790605511E+01 -0.52063847494E+03  0.53557198391E+03  0.12000000000E+03 0.  0.
<mgrwt>
<rscale>  0 0.25698184E+03</rscale>
<asrwt>0</asrwt>
<pdfrwt beam="1">  1        2 0.13415063E+00 0.25698184E+03</pdfrwt>
<pdfrwt beam="2">  1       -2 0.29128989E-02 0.25698184E+03</pdfrwt>
<totfact> 0.13936331E+04</totfact>
</mgrwt>
</event>
<event>
 4    1  0.1777979E-004  0.3121729E+03  0.7818608E-02  0.1079309E+00
          1   -1    0    0  501    0  0.00000000000E+00  0.00000000000E+00  0.12627910306E+04  0.12627910306E+04  0.00000000000E+00 0.  1.
         -1   -1    0    0    0  501 -0.00000000000E+00 -0.00000000000E+00 -0.19292961084E+02  0.19292961084E+02  0.00000000000E+00 0.  1.
         25    1    1    2    0    0 -0.63117669118E+02  0.77316270351E+02  0.62648968286E+03  0.64563996821E+03  0.12000000000E+03 0.  0.
         25    1    1    2    0    0  0.63117669118E+02 -0.77316270351E+02  0.61700838664E+03  0.63644402346E+03  0.12000000000E+03 0.  0.
<mgrwt>
<rscale>  0 0.31217289E+03</rscale>
<asrwt>0</asrwt>
<pdfrwt beam="1">  1        1 0.19427548E+00 0.31217289E+03</pdfrwt>
<pdfrwt beam="2">  1       -1 0.29681489E-02 0.31217289E+03</pdfrwt>
<totfact> 0.39749543E+03</totfact>
</mgrwt>
</event>
<event>
 4    1  0.1777979E-004  0.3214808E+03  0.7818608E-02  0.1074970E+00
          2   -1    0    0  501    0  0.00000000000E+00  0.00000000000E+00  0.11949851760E+04  0.11949851760E+04  0.00000000000E+00 0.  1.
         -2   -1    0    0    0  501 -0.00000000000E+00 -0.00000000000E+00 -0.21621587075E+02  0.21621587075E+02  0.00000000000E+00 0.  1.
         25    1    1    2    0    0  0.20524481206E+02 -0.90432102771E+02  0.38506764522E+03  0.41385542275E+03  0.12000000000E+03 0.  0.
         25    1    1    2    0    0 -0.20524481206E+02  0.90432102771E+02  0.78829594372E+03  0.80275134034E+03  0.12000000000E+03 0.  0.
<mgrwt>
<rscale>  0 0.32148080E+03</rscale>
<asrwt>0</asrwt>
<pdfrwt beam="1">  1        2 0.18384382E+00 0.32148080E+03</pdfrwt>
<pdfrwt beam="2">  1       -2 0.33263990E-02 0.32148080E+03</pdfrwt>
<totfact> 0.73191711E+03</totfact>
</mgrwt>
</event>
<event>
 4    1  0.1777979E-004  0.2740759E+03  0.7818608E-02  0.1098969E+00
         -2   -1    0    0    0  501 -0.00000000000E+00  0.00000000000E+00  0.28017221520E+02  0.28017221520E+02  0.00000000000E+00 0. -1.
          2   -1    0    0  501    0  0.00000000000E+00 -0.00000000000E+00 -0.67028071182E+03  0.67028071182E+03  0.00000000000E+00 0. -1.
         25    1    1    2    0    0 -0.46648873306E+01  0.49597930787E+02 -0.21014216967E+03  0.24706567424E+03  0.12000000000E+03 0.  0.
         25    1    1    2    0    0  0.46648873306E+01 -0.49597930787E+02 -0.43212132063E+03  0.45123225910E+03  0.12000000000E+03 0.  0.
<mgrwt>
<rscale>  0 0.27407593E+03</rscale>
<asrwt>0</asrwt>
<pdfrwt beam="1">  1        2 0.10312011E+00 0.27407593E+03</pdfrwt>
<pdfrwt beam="2">  1       -2 0.43103419E-02 0.27407593E+03</pdfrwt>
<totfact> 0.10804906E+04</totfact>
</mgrwt>
</event>
<event>
 4    1  0.1777979E-004  0.3288765E+03  0.7818608E-02  0.1071635E+00
          2   -1    0    0  501    0  0.00000000000E+00  0.00000000000E+00  0.95068601527E+02  0.95068601527E+02  0.00000000000E+00 0. -1.
         -2   -1    0    0    0  501 -0.00000000000E+00 -0.00000000000E+00 -0.28442554535E+03  0.28442554535E+03  0.00000000000E+00 0. -1.
         25    1    1    2    0    0 -0.28697746754E+02 -0.93901366996E+02 -0.31487642683E+02  0.15821662060E+03  0.12000000000E+03 0.  0.
         25    1    1    2    0    0  0.28697746754E+02  0.93901366996E+02 -0.15786930114E+03  0.22127752627E+03  0.12000000000E+03 0.  0.
<mgrwt>
<rscale>  0 0.32887650E+03</rscale>
<asrwt>0</asrwt>
<pdfrwt beam="1">  1        2 0.14625939E-01 0.32887650E+03</pdfrwt>
<pdfrwt beam="2">  1       -2 0.43757776E-01 0.32887650E+03</pdfrwt>
<totfact> 0.20170384E+03</totfact>
</mgrwt>
</event>
<event>
 4    1  0.1777979E-004  0.2445573E+03  0.7818608E-02  0.1116794E+00
          2   -1    0    0  501    0  0.00000000000E+00  0.00000000000E+00  0.18018643183E+04  0.18018643183E+04  0.00000000000E+00 0.  1.
         -2   -1    0    0    0  501 -0.00000000000E+00 -0.00000000000E+00 -0.82981104490E+01  0.82981104490E+01  0.00000000000E+00 0.  1.
         25    1    1    2    0    0  0.19350424679E+02 -0.67049756686E+01  0.98203989552E+03  0.98955634100E+03  0.12000000000E+03 0.  0.
         25    1    1    2    0    0 -0.19350424679E+02  0.67049756686E+01  0.81152631234E+03  0.82060608775E+03  0.12000000000E+03 0.  0.
<mgrwt>
<rscale>  0 0.24455731E+03</rscale>
<asrwt>0</asrwt>
<pdfrwt beam="1">  1        2 0.27720959E+00 0.24455731E+03</pdfrwt>
<pdfrwt beam="2">  1       -2 0.12766338E-02 0.24455731E+03</pdfrwt>
<totfact> 0.14056730E+04</totfact>
</mgrwt>
</event>
<event>
 4    1  0.1777979E-004  0.6565229E+03  0.7818608E-02  0.9794616E-01
          1   -1    0    0  501    0  0.00000000000E+00  0.00000000000E+00  0.29326949586E+04  0.29326949586E+04  0.00000000000E+00 0.  1.
         -1   -1    0    0    0  501 -0.00000000000E+00 -0.00000000000E+00 -0.36742851955E+02  0.36742851955E+02  0.00000000000E+00 0.  1.
         25    1    1    2    0    0 -0.15742275193E+02  0.24288882987E+03  0.22833537536E+04  0.22994232248E+04  0.12000000000E+03 0.  0.
         25    1    1    2    0    0  0.15742275193E+02 -0.24288882987E+03  0.61259835304E+03  0.67001458570E+03  0.12000000000E+03 0.  0.
<mgrwt>
<rscale>  0 0.65652289E+03</rscale>
<asrwt>0</asrwt>
<pdfrwt beam="1">  1        1 0.45118365E+00 0.65652289E+03</pdfrwt>
<pdfrwt beam="2">  1       -1 0.56527488E-02 0.65652289E+03</pdfrwt>
<totfact> 0.10980398E+02</totfact>
</mgrwt>
</event>
<event>
 4    1  0.1777979E-004  0.3468998E+03  0.7818608E-02  0.1063895E+00
          2   -1    0    0  501    0  0.00000000000E+00  0.00000000000E+00  0.12030362423E+04  0.12030362423E+04  0.00000000000E+00 0. -1.
         -2   -1    0    0    0  501 -0.00000000000E+00 -0.00000000000E+00 -0.25007450378E+02  0.25007450378E+02  0.00000000000E+00 0. -1.
         25    1    1    2    0    0  0.38607219046E+02  0.78930898268E+02  0.27309040082E+03  0.31096458172E+03  0.12000000000E+03 0.  0.
         25    1    1    2    0    0 -0.38607219046E+02 -0.78930898268E+02  0.90493839108E+03  0.91707911094E+03  0.12000000000E+03 0.  0.
<mgrwt>
<rscale>  0 0.34689981E+03</rscale>
<asrwt>0</asrwt>
<pdfrwt beam="1">  1        2 0.18508245E+00 0.34689981E+03</pdfrwt>
<pdfrwt beam="2">  1       -2 0.38473010E-02 0.34689981E+03</pdfrwt>
<totfact> 0.58230293E+03</totfact>
</mgrwt>
</event>
<event>
 4    1  0.1777979E-004  0.2485697E+03  0.7818608E-02  0.1114212E+00
          2   -1    0    0  501    0  0.00000000000E+00  0.00000000000E+00  0.47912193501E+03  0.47912193501E+03  0.00000000000E+00 0.  1.
         -2   -1    0    0    0  501 -0.00000000000E+00 -0.00000000000E+00 -0.32239646190E+02  0.32239646190E+02  0.00000000000E+00 0.  1.
         25    1    1    2    0    0 -0.19812467517E+01  0.19282450478E+02  0.27672993185E+03  0.30225021657E+03  0.12000000000E+03 0.  0.
         25    1    1    2    0    0  0.19812467517E+01 -0.19282450478E+02  0.17015235698E+03  0.20911136464E+03  0.12000000000E+03 0.  0.
<mgrwt>
<rscale>  0 0.24856968E+03</rscale>
<asrwt>0</asrwt>
<pdfrwt beam="1">  1        2 0.73711062E-01 0.24856968E+03</pdfrwt>
<pdfrwt beam="2">  1       -2 0.49599459E-02 0.24856968E+03</pdfrwt>
<totfact> 0.12789921E+04</totfact>
</mgrwt>
</event>
<event>
 4    1  0.1777979E-004  0.2886840E+03  0.7818608E-02  0.1091038E+00
         -2   -1    0    0    0  501 -0.00000000000E+00  0.00000000000E+00  0.16233884324E+02  0.16233884324E+02  0.00000000000E+00 0.  1.
          2   -1    0    0  501    0  0.00000000000E+00 -0.00000000000E+00 -0.12834032465E+04  0.12834032465E+04  0.00000000000E+00 0.  1.
         25    1    1    2    0    0  0.18788481742E+02  0.62997222881E+02 -0.42664430175E+03  0.44804800786E+03  0.12000000000E+03 0.  0.
         25    1    1    2    0    0 -0.18788481742E+02 -0.62997222881E+02 -0.84052506046E+03  0.85158912299E+03  0.12000000000E+03 0.  0.
<mgrwt>
<rscale>  0 0.28868405E+03</rscale>
<asrwt>0</asrwt>
<pdfrwt beam="1">  1        2 0.19744663E+00 0.28868405E+03</pdfrwt>
<pdfrwt beam="2">  1       -2 0.24975210E-02 0.28868405E+03</pdfrwt>
<totfact> 0.99817670E+03</totfact>
</mgrwt>
</event>
<event>
 4    1  0.1777979E-004  0.2527537E+03  0.7818608E-02  0.1111577E+00
          1   -1    0    0  501    0  0.00000000000E+00  0.00000000000E+00  0.17872352617E+03  0.17872352617E+03  0.00000000000E+00 0. -1.
         -1   -1    0    0    0  501 -0.00000000000E+00 -0.00000000000E+00 -0.89362110355E+02  0.89362110355E+02  0.00000000000E+00 0. -1.
         25    1    1    2    0    0  0.34433914495E+02 -0.19485501136E+02  0.42141265230E+02  0.13319634176E+03  0.12000000000E+03 0.  0.
         25    1    1    2    0    0 -0.34433914495E+02  0.19485501136E+02  0.47220150586E+02  0.13488929477E+03  0.12000000000E+03 0.  0.
<mgrwt>
<rscale>  0 0.25275373E+03</rscale>
<asrwt>0</asrwt>
<pdfrwt beam="1">  1        1 0.27495927E-01 0.25275373E+03</pdfrwt>
<pdfrwt beam="2">  1       -1 0.13748017E-01 0.25275373E+03</pdfrwt>
<totfact> 0.61769379E+03</totfact>
</mgrwt>
</event>
<event>
 4    1  0.1777979E-004  0.2681799E+03  0.7818608E-02  0.1102326E+00
          2   -1    0    0  501    0  0.00000000000E+00  0.00000000000E+00  0.17326328651E+04  0.17326328651E+04  0.00000000000E+00 0.  1.
         -2   -1    0    0    0  501 -0.00000000000E+00 -0.00000000000E+00 -0.10377334676E+02  0.10377334676E+02  0.00000000000E+00 0.  1.
         25    1    1    2    0    0  0.50297013987E+02 -0.29092370756E+02  0.95394773346E+03  0.96321982632E+03  0.12000000000E+03 0.  0.
         25    1    1    2    0    0 -0.50297013987E+02  0.29092370756E+02  0.76830779696E+03  0.77979037345E+03  0.12000000000E+03 0.  0.
<mgrwt>
<rscale>  0 0.26817987E+03</rscale>
<asrwt>0</asrwt>
<pdfrwt beam="1">  1        2 0.26655867E+00 0.26817987E+03</pdfrwt>
<pdfrwt beam="2">  1       -2 0.15965144E-02 0.26817987E+03</pdfrwt>
<totfact> 0.11050489E+04</totfact>
</mgrwt>
</event>
<event>
 4    1  0.1777979E-004  0.2777326E+03  0.7818608E-02  0.1096934E+00
          2   -1    0    0  501    0  0.00000000000E+00  0.00000000000E+00  0.55797221455E+03  0.55797221455E+03  0.00000000000E+00 0. -1.
         -2   -1    0    0    0  501 -0.00000000000E+00 -0.00000000000E+00 -0.34560590905E+02  0.34560590905E+02  0.00000000000E+00 0. -1.
         25    1    1    2    0    0 -0.57586018355E+01 -0.12271367307E+01  0.41027193280E+03  0.42750172655E+03  0.12000000000E+03 0.  0.
         25    1    1    2    0    0  0.57586018355E+01  0.12271367307E+01  0.11313969084E+03  0.16503107890E+03  0.12000000000E+03 0.  0.
<mgrwt>
<rscale>  0 0.27773260E+03</rscale>
<asrwt>0</asrwt>
<pdfrwt beam="1">  1        2 0.85841872E-01 0.27773260E+03</pdfrwt>
<pdfrwt beam="2">  1       -2 0.53170144E-02 0.27773260E+03</pdfrwt>
<totfact> 0.97412731E+03</totfact>
</mgrwt>
</event>
<event>
 4    1  0.1777979E-004  0.2526229E+03  0.7818608E-02  0.1111658E+00
         -1   -1    0    0    0  501 -0.00000000000E+00  0.00000000000E+00  0.58305459373E+02  0.58305459373E+02  0.00000000000E+00 0.  1.
          1   -1    0    0  501    0  0.00000000000E+00 -0.00000000000E+00 -0.27363781310E+03  0.27363781310E+03  0.00000000000E+00 0.  1.
         25    1    1    2    0    0 -0.31261246918E+02 -0.12711245955E+01 -0.13919358160E+03  0.18642353519E+03  0.12000000000E+03 0.  0.
         25    1    1    2    0    0  0.31261246918E+02  0.12711245955E+01 -0.76138772132E+02  0.14551973728E+03  0.12000000000E+03 0.  0.
<mgrwt>
<rscale>  0 0.25262287E+03</rscale>
<asrwt>0</asrwt>
<pdfrwt beam="1">  1        1 0.42098124E-01 0.25262287E+03</pdfrwt>
<pdfrwt beam="2">  1       -1 0.89700709E-02 0.25262287E+03</pdfrwt>
<totfact> 0.70204656E+03</totfact>
</mgrwt>
</event>
<event>
 4    1  0.1777979E-004  0.2909079E+03  0.7818608E-02  0.1089876E+00
         -1   -1    0    0    0  501 -0.00000000000E+00  0.00000000000E+00  0.13501446919E+03  0.13501446919E+03  0.00000000000E+00 0.  1.
          1   -1    0    0  501    0  0.00000000000E+00 -0.00000000000E+00 -0.15670060507E+03  0.15670060507E+03  0.00000000000E+00 0.  1.
         25    1    1    2    0    0  0.39200457215E+02 -0.38131790639E+02 -0.72382232515E+02  0.15043236649E+03  0.12000000000E+03 0.  0.
         25    1    1    2    0    0 -0.39200457215E+02  0.38131790639E+02  0.50696096635E+02  0.14128270778E+03  0.12000000000E+03 0.  0.
<mgrwt>
<rscale>  0 0.29090788E+03</rscale>
<asrwt>0</asrwt>
<pdfrwt beam="1">  1        1 0.24107785E-01 0.29090788E+03</pdfrwt>
<pdfrwt beam="2">  1       -1 0.20771457E-01 0.29090788E+03</pdfrwt>
<totfact> 0.37858568E+03</totfact>
</mgrwt>
</event>
<event>
 4    1  0.1777979E-004  0.2804068E+03  0.7818608E-02  0.1095467E+00
         -2   -1    0    0    0  501 -0.00000000000E+00  0.00000000000E+00  0.22337405447E+03  0.22337405447E+03  0.00000000000E+00 0.  1.
          2   -1    0    0  501    0  0.00000000000E+00 -0.00000000000E+00 -0.88000322630E+02  0.88000322630E+02  0.00000000000E+00 0.  1.
         25    1    1    2    0    0  0.15734029099E+02  0.70312314776E+02  0.58692482687E+02  0.15177677294E+03  0.12000000000E+03 0.  0.
         25    1    1    2    0    0 -0.15734029099E+02 -0.70312314776E+02  0.76681249150E+02  0.15959760415E+03  0.12000000000E+03 0.  0.
<mgrwt>
<rscale>  0 0.28040677E+03</rscale>
<asrwt>0</asrwt>
<pdfrwt beam="1">  1        2 0.13538511E-01 0.28040677E+03</pdfrwt>
<pdfrwt beam="2">  1       -2 0.34365239E-01 0.28040677E+03</pdfrwt>
<totfact> 0.34918543E+03</totfact>
</mgrwt>
</event>
<event>
 4    1  0.1777979E-004  0.3382459E+03  0.7818608E-02  0.1067545E+00
          2   -1    0    0  501    0  0.00000000000E+00  0.00000000000E+00  0.20181405401E+04  0.20181405401E+04  0.00000000000E+00 0. -1.
         -2   -1    0    0    0  501 -0.00000000000E+00 -0.00000000000E+00 -0.14172736570E+02  0.14172736570E+02  0.00000000000E+00 0. -1.
         25    1    1    2    0    0 -0.93165909117E+02  0.64707451602E+02  0.78239938161E+03  0.79963474991E+03  0.12000000000E+03 0.  0.
         25    1    1    2    0    0  0.93165909117E+02 -0.64707451602E+02  0.12215684220E+04  0.12326785268E+04  0.12000000000E+03 0.  0.
<mgrwt>
<rscale>  0 0.33824591E+03</rscale>
<asrwt>0</asrwt>
<pdfrwt beam="1">  1        2 0.31048293E+00 0.33824591E+03</pdfrwt>
<pdfrwt beam="2">  1       -2 0.21804226E-02 0.33824591E+03</pdfrwt>
<totfact> 0.49432160E+03</totfact>
</mgrwt>
</event>
<event>
 4    1  0.1777979E-004  0.4130180E+03  0.7818608E-02  0.1039363E+00
         -3   -1    0    0    0  501 -0.00000000000E+00  0.00000000000E+00  0.29541687332E+03  0.29541687332E+03  0.00000000000E+00 0. -1.
          3   -1    0    0  501    0  0.00000000000E+00 -0.00000000000E+00 -0.14435858943E+03  0.14435858943E+03  0.00000000000E+00 0. -1.
         25    1    1    2    0    0 -0.53218450599E+02 -0.10205864444E+03 -0.54870292813E+02  0.17509688581E+03  0.12000000000E+03 0.  0.
         25    1    1    2    0    0  0.53218450599E+02  0.10205864444E+03  0.20592857670E+03  0.26467857693E+03  0.12000000000E+03 0.  0.
<mgrwt>
<rscale>  0 0.41301798E+03</rscale>
<asrwt>0</asrwt>
<pdfrwt beam="1">  1        3 0.22209014E-01 0.41301798E+03</pdfrwt>
<pdfrwt beam="2">  1       -3 0.45448750E-01 0.41301798E+03</pdfrwt>
<totfact> 0.23465847E+02</totfact>
</mgrwt>
</event>
<event>
 4    1  0.1777979E-004  0.3270157E+03  0.7818608E-02  0.1072465E+00
          1   -1    0    0  501    0  0.00000000000E+00  0.00000000000E+00  0.66934197357E+03  0.66934197357E+03  0.00000000000E+00 0. -1.
         -1   -1    0    0    0  501 -0.00000000000E+00 -0.00000000000E+00 -0.39941946977E+02  0.39941946977E+02  0.00000000000E+00 0. -1.
         25    1    1    2    0    0  0.48154441728E+02  0.64261968577E+02  0.14829159991E+03  0.20697548035E+03  0.12000000000E+03 0.  0.
         25    1    1    2    0    0 -0.48154441728E+02 -0.64261968577E+02  0.48110842669E+03  0.50230844020E+03  0.12000000000E+03 0.  0.
<mgrwt>
<rscale>  0 0.32701573E+03</rscale>
<asrwt>0</asrwt>
<pdfrwt beam="1">  1        1 0.10297568E+00 0.32701573E+03</pdfrwt>
<pdfrwt beam="2">  1       -1 0.61449154E-02 0.32701573E+03</pdfrwt>
<totfact> 0.38858424E+03</totfact>
</mgrwt>
</event>
<event>
 4    1  0.1777979E-004  0.3505441E+03  0.7818608E-02  0.1062392E+00
         -2   -1    0    0    0  501 -0.00000000000E+00  0.00000000000E+00  0.19632552699E+02  0.19632552699E+02  0.00000000000E+00 0. -1.
          2   -1    0    0  501    0  0.00000000000E+00 -0.00000000000E+00 -0.15647631621E+04  0.15647631621E+04  0.00000000000E+00 0. -1.
         25    1    1    2    0    0 -0.83142638890E+02  0.61206608494E+02 -0.11126451493E+04  0.11238497121E+04  0.12000000000E+03 0.  0.
         25    1    1    2    0    0  0.83142638890E+02 -0.61206608494E+02 -0.43248546015E+03  0.46054600266E+03  0.12000000000E+03 0.  0.
<mgrwt>
<rscale>  0 0.35054412E+03</rscale>
<asrwt>0</asrwt>
<pdfrwt beam="1">  1        2 0.24073285E+00 0.35054412E+03</pdfrwt>
<pdfrwt beam="2">  1       -2 0.30203920E-02 0.35054412E+03</pdfrwt>
<totfact> 0.52939119E+03</totfact>
</mgrwt>
</event>
<event>
 4    1  0.1777979E-004  0.2519128E+03  0.7818608E-02  0.1112102E+00
          2   -1    0    0  501    0  0.00000000000E+00  0.00000000000E+00  0.61186649100E+03  0.61186649100E+03  0.00000000000E+00 0.  1.
         -2   -1    0    0    0  501 -0.00000000000E+00 -0.00000000000E+00 -0.25928879578E+02  0.25928879578E+02  0.00000000000E+00 0.  1.
         25    1    1    2    0    0  0.29954697684E+01 -0.21000857334E+02  0.21230755113E+03  0.24479482248E+03  0.12000000000E+03 0.  0.
         25    1    1    2    0    0 -0.29954697684E+01  0.21000857334E+02  0.37363006030E+03  0.39300054810E+03  0.12000000000E+03 0.  0.
<mgrwt>
<rscale>  0 0.25191278E+03</rscale>
<asrwt>0</asrwt>
<pdfrwt beam="1">  1        2 0.94133295E-01 0.25191278E+03</pdfrwt>
<pdfrwt beam="2">  1       -2 0.39890589E-02 0.25191278E+03</pdfrwt>
<totfact> 0.13473598E+04</totfact>
</mgrwt>
</event>
<event>
 4    1  0.1777979E-004  0.2874892E+03  0.7818608E-02  0.1091667E+00
         -2   -1    0    0    0  501 -0.00000000000E+00  0.00000000000E+00  0.12564705139E+03  0.12564705139E+03  0.00000000000E+00 0. -1.
          2   -1    0    0  501    0  0.00000000000E+00 -0.00000000000E+00 -0.16444885127E+03  0.16444885127E+03  0.00000000000E+00 0. -1.
         25    1    1    2    0    0  0.43220243517E+02 -0.29273560802E+02 -0.79417765755E+02  0.15307551185E+03  0.12000000000E+03 0.  0.
         25    1    1    2    0    0 -0.43220243517E+02  0.29273560802E+02  0.40615965872E+02  0.13702039080E+03  0.12000000000E+03 0.  0.
<mgrwt>
<rscale>  0 0.28748922E+03</rscale>
<asrwt>0</asrwt>
<pdfrwt beam="1">  1        2 0.25299823E-01 0.28748922E+03</pdfrwt>
<pdfrwt beam="2">  1       -2 0.19330316E-01 0.28748922E+03</pdfrwt>
<totfact> 0.47096158E+03</totfact>
</mgrwt>
</event>
<event>
 4    1  0.1777979E-004  0.3030710E+03  0.7818608E-02  0.1083715E+00
         -1   -1    0    0    0  501 -0.00000000000E+00  0.00000000000E+00  0.79262274604E+02  0.79262274604E+02  0.00000000000E+00 0. -1.
          1   -1    0    0  501    0  0.00000000000E+00 -0.00000000000E+00 -0.28970920021E+03  0.28970920021E+03  0.00000000000E+00 0. -1.
         25    1    1    2    0    0 -0.88857575922E+02 -0.15420241147E+02 -0.13045589204E+03  0.19887733004E+03  0.12000000000E+03 0.  0.
         25    1    1    2    0    0  0.88857575922E+02  0.15420241147E+02 -0.79991033569E+02  0.17009414478E+03  0.12000000000E+03 0.  0.
<mgrwt>
<rscale>  0 0.30307102E+03</rscale>
<asrwt>0</asrwt>
<pdfrwt beam="1">  1        1 0.44570647E-01 0.30307102E+03</pdfrwt>
<pdfrwt beam="2">  1       -1 0.12194196E-01 0.30307102E+03</pdfrwt>
<totfact> 0.40834078E+03</totfact>
</mgrwt>
</event>
<event>
 4    1  0.1777979E-004  0.2719463E+03  0.7818608E-02  0.1100171E+00
          1   -1    0    0  501    0  0.00000000000E+00  0.00000000000E+00  0.15868072034E+04  0.15868072034E+04  0.00000000000E+00 0.  1.
         -1   -1    0    0    0  501 -0.00000000000E+00 -0.00000000000E+00 -0.11651507456E+02  0.11651507456E+02  0.00000000000E+00 0.  1.
         25    1    1    2    0    0 -0.27096499216E+02 -0.39215893363E+02  0.53705538397E+03  0.55235911508E+03  0.12000000000E+03 0.  0.
         25    1    1    2    0    0  0.27096499216E+02  0.39215893363E+02  0.10381003120E+04  0.10460995958E+04  0.12000000000E+03 0.  0.
<mgrwt>
<rscale>  0 0.27194629E+03</rscale>
<asrwt>0</asrwt>
<pdfrwt beam="1">  1        1 0.24412401E+00 0.27194629E+03</pdfrwt>
<pdfrwt beam="2">  1       -1 0.17925409E-02 0.27194629E+03</pdfrwt>
<totfact> 0.50466181E+03</totfact>
</mgrwt>
</event>
<event>
 4    1  0.1777979E-004  0.2570281E+03  0.7818608E-02  0.1108942E+00
          2   -1    0    0  501    0  0.00000000000E+00  0.00000000000E+00  0.31348022333E+03  0.31348022333E+03  0.00000000000E+00 0.  1.
         -2   -1    0    0    0  501 -0.00000000000E+00 -0.00000000000E+00 -0.52685503554E+02  0.52685503554E+02  0.00000000000E+00 0.  1.
         25    1    1    2    0    0 -0.11340380822E+02 -0.41616589786E+02  0.10763389782E+03  0.16687001152E+03  0.12000000000E+03 0.  0.
         25    1    1    2    0    0  0.11340380822E+02  0.41616589786E+02  0.15316082195E+03  0.19929571537E+03  0.12000000000E+03 0.  0.
<mgrwt>
<rscale>  0 0.25702812E+03</rscale>
<asrwt>0</asrwt>
<pdfrwt beam="1">  1        2 0.48227725E-01 0.25702812E+03</pdfrwt>
<pdfrwt beam="2">  1       -2 0.81054623E-02 0.25702812E+03</pdfrwt>
<totfact> 0.95400062E+03</totfact>
</mgrwt>
</event>
<event>
 4    1  0.1777979E-004  0.3940357E+03  0.7818608E-02  0.1045865E+00
         -1   -1    0    0    0  501 -0.00000000000E+00  0.00000000000E+00  0.38360317939E+03  0.38360317939E+03  0.00000000000E+00 0.  1.
          1   -1    0    0  501    0  0.00000000000E+00 -0.00000000000E+00 -0.10118799951E+03  0.10118799951E+03  0.00000000000E+00 0.  1.
         25    1    1    2    0    0 -0.94625296827E+02 -0.21389116459E+02  0.29191384576E+03  0.33018954321E+03  0.12000000000E+03 0.  0.
         25    1    1    2    0    0  0.94625296827E+02  0.21389116459E+02 -0.94986658859E+01  0.15460163568E+03  0.12000000000E+03 0.  0.
<mgrwt>
<rscale>  0 0.39403573E+03</rscale>
<asrwt>0</asrwt>
<pdfrwt beam="1">  1        1 0.15567385E-01 0.39403573E+03</pdfrwt>
<pdfrwt beam="2">  1       -1 0.59015873E-01 0.39403573E+03</pdfrwt>
<totfact> 0.10688145E+03</totfact>
</mgrwt>
</event>
<event>
 4    1  0.1777979E-004  0.3611255E+03  0.7818608E-02  0.1058139E+00
         -2   -1    0    0    0  501 -0.00000000000E+00  0.00000000000E+00  0.41971521940E+02  0.41971521940E+02  0.00000000000E+00 0. -1.
          2   -1    0    0  501    0  0.00000000000E+00 -0.00000000000E+00 -0.77678642112E+03  0.77678642112E+03  0.00000000000E+00 0. -1.
         25    1    1    2    0    0  0.63845458577E+02 -0.11248788918E+02 -0.99142828785E+02  0.16861814354E+03  0.12000000000E+03 0.  0.
         25    1    1    2    0    0 -0.63845458577E+02  0.11248788918E+02 -0.63567207039E+03  0.65013979951E+03  0.12000000000E+03 0.  0.
<mgrwt>
<rscale>  0 0.36112551E+03</rscale>
<asrwt>0</asrwt>
<pdfrwt beam="1">  1        2 0.11950560E+00 0.36112551E+03</pdfrwt>
<pdfrwt beam="2">  1       -2 0.64571575E-02 0.36112551E+03</pdfrwt>
<totfact> 0.48888848E+03</totfact>
</mgrwt>
</event>
<event>
 4    1  0.1777979E-004  0.3044473E+03  0.7818608E-02  0.1083038E+00
         -2   -1    0    0    0  501 -0.00000000000E+00  0.00000000000E+00  0.27367740626E+02  0.27367740626E+02  0.00000000000E+00 0. -1.
          2   -1    0    0  501    0  0.00000000000E+00 -0.00000000000E+00 -0.84669184682E+03  0.84669184682E+03  0.00000000000E+00 0. -1.
         25    1    1    2    0    0 -0.29997338566E+02  0.68386349180E+02 -0.57195474326E+03  0.58915936844E+03  0.12000000000E+03 0.  0.
         25    1    1    2    0    0  0.29997338566E+02 -0.68386349180E+02 -0.24736936293E+03  0.28490021901E+03  0.12000000000E+03 0.  0.
<mgrwt>
<rscale>  0 0.30444732E+03</rscale>
<asrwt>0</asrwt>
<pdfrwt beam="1">  1        2 0.13026030E+00 0.30444732E+03</pdfrwt>
<pdfrwt beam="2">  1       -2 0.42104210E-02 0.30444732E+03</pdfrwt>
<totfact> 0.83889871E+03</totfact>
</mgrwt>
</event>
<event>
 4    1  0.1777979E-004  0.2440609E+03  0.7818608E-02  0.1117117E+00
          1   -1    0    0  501    0  0.00000000000E+00  0.00000000000E+00  0.27921625410E+04  0.27921625410E+04  0.00000000000E+00 0.  1.
         -1   -1    0    0    0  501 -0.00000000000E+00 -0.00000000000E+00 -0.53332983467E+01  0.53332983467E+01  0.00000000000E+00 0.  1.
         25    1    1    2    0    0 -0.18507293007E+01  0.20651493604E+02  0.13035058240E+04  0.13091819364E+04  0.12000000000E+03 0.  0.
         25    1    1    2    0    0  0.18507293007E+01 -0.20651493604E+02  0.14833234186E+04  0.14883139029E+04  0.12000000000E+03 0.  0.
<mgrwt>
<rscale>  0 0.24406094E+03</rscale>
<asrwt>0</asrwt>
<pdfrwt beam="1">  1        1 0.42956230E+00 0.24406094E+03</pdfrwt>
<pdfrwt beam="2">  1       -1 0.82050967E-03 0.24406094E+03</pdfrwt>
<totfact> 0.25275985E+03</totfact>
</mgrwt>
</event>
<event>
 4    1  0.1777979E-004  0.3877195E+03  0.7818608E-02  0.1048117E+00
         -3   -1    0    0    0  501 -0.00000000000E+00  0.00000000000E+00  0.18748794646E+02  0.18748794646E+02  0.00000000000E+00 0. -1.
          3   -1    0    0  501    0  0.00000000000E+00 -0.00000000000E+00 -0.20044805391E+04  0.20044805391E+04  0.00000000000E+00 0. -1.
         25    1    1    2    0    0  0.13540621357E+03  0.18114839541E+02 -0.13436416984E+04  0.13558893774E+04  0.12000000000E+03 0.  0.
         25    1    1    2    0    0 -0.13540621357E+03 -0.18114839541E+02 -0.64209004608E+03  0.66733995636E+03  0.12000000000E+03 0.  0.
<mgrwt>
<rscale>  0 0.38771946E+03</rscale>
<asrwt>0</asrwt>
<pdfrwt beam="1">  1        3 0.30838167E+00 0.38771946E+03</pdfrwt>
<pdfrwt beam="2">  1       -3 0.28844295E-02 0.38771946E+03</pdfrwt>
<totfact> 0.55398170E+01</totfact>
</mgrwt>
</event>
<event>
 4    1  0.1777979E-004  0.2813584E+03  0.7818608E-02  0.1094949E+00
          1   -1    0    0  501    0  0.00000000000E+00  0.00000000000E+00  0.38265381435E+03  0.38265381435E+03  0.00000000000E+00 0.  1.
         -1   -1    0    0    0  501 -0.00000000000E+00 -0.00000000000E+00 -0.51719430788E+02  0.51719430788E+02  0.00000000000E+00 0.  1.
         25    1    1    2    0    0  0.64515547097E+00 -0.35511700557E+02  0.26467206429E+03  0.29276748234E+03  0.12000000000E+03 0.  0.
         25    1    1    2    0    0 -0.64515547097E+00  0.35511700557E+02  0.66262319276E+02  0.14160576280E+03  0.12000000000E+03 0.  0.
<mgrwt>
<rscale>  0 0.28135840E+03</rscale>
<asrwt>0</asrwt>
<pdfrwt beam="1">  1        1 0.58869816E-01 0.28135840E+03</pdfrwt>
<pdfrwt beam="2">  1       -1 0.79568357E-02 0.28135840E+03</pdfrwt>
<totfact> 0.55443823E+03</totfact>
</mgrwt>
</event>
<event>
 4    1  0.1777979E-004  0.2687088E+03  0.7818608E-02  0.1102021E+00
         -1   -1    0    0    0  501 -0.00000000000E+00  0.00000000000E+00  0.12759294380E+03  0.12759294380E+03  0.00000000000E+00 0.  1.
          1   -1    0    0  501    0  0.00000000000E+00 -0.00000000000E+00 -0.14147419718E+03  0.14147419718E+03  0.00000000000E+00 0.  1.
         25    1    1    2    0    0 -0.80702668945E+01 -0.59499024288E+02 -0.16061648437E+00  0.13418378776E+03  0.12000000000E+03 0.  0.
         25    1    1    2    0    0  0.80702668945E+01  0.59499024288E+02 -0.13720636898E+02  0.13488335322E+03  0.12000000000E+03 0.  0.
<mgrwt>
<rscale>  0 0.26870883E+03</rscale>
<asrwt>0</asrwt>
<pdfrwt beam="1">  1        1 0.21765261E-01 0.26870883E+03</pdfrwt>
<pdfrwt beam="2">  1       -1 0.19629684E-01 0.26870883E+03</pdfrwt>
<totfact> 0.47199661E+03</totfact>
</mgrwt>
</event>
<event>
 4    1  0.1777979E-004  0.3596839E+03  0.7818608E-02  0.1058709E+00
          2   -1    0    0  501    0  0.00000000000E+00  0.00000000000E+00  0.64873979835E+03  0.64873979835E+03  0.00000000000E+00 0. -1.
         -2   -1    0    0    0  501 -0.00000000000E+00 -0.00000000000E+00 -0.49855303120E+02  0.49855303120E+02  0.00000000000E+00 0. -1.
         25    1    1    2    0    0 -0.10692483693E+03  0.61876189516E+02  0.19886577928E+03  0.26307638007E+03  0.12000000000E+03 0.  0.
         25    1    1    2    0    0  0.10692483693E+03 -0.61876189516E+02  0.40001871595E+03  0.43551872141E+03  0.12000000000E+03 0.  0.
<mgrwt>
<rscale>  0 0.35968386E+03</rscale>
<asrwt>0</asrwt>
<pdfrwt beam="1">  1        2 0.99806117E-01 0.35968386E+03</pdfrwt>
<pdfrwt beam="2">  1       -2 0.76700471E-02 0.35968386E+03</pdfrwt>
<totfact> 0.46671397E+03</totfact>
</mgrwt>
</event>
<event>
 4    1  0.1777979E-004  0.2681633E+03  0.7818608E-02  0.1102335E+00
         -1   -1    0    0    0  501 -0.00000000000E+00  0.00000000000E+00  0.58995145513E+02  0.58995145513E+02  0.00000000000E+00 0.  1.
          1   -1    0    0  501    0  0.00000000000E+00 -0.00000000000E+00 -0.30473511458E+03  0.30473511458E+03  0.00000000000E+00 0.  1.
         25    1    1    2    0    0 -0.54256975614E+01 -0.56482604976E+02 -0.97200071894E+02  0.16452226851E+03  0.12000000000E+03 0.  0.
         25    1    1    2    0    0  0.54256975614E+01  0.56482604976E+02 -0.14853989717E+03  0.19920799158E+03  0.12000000000E+03 0.  0.
<mgrwt>
<rscale>  0 0.26816333E+03</rscale>
<asrwt>0</asrwt>
<pdfrwt beam="1">  1        1 0.46882326E-01 0.26816333E+03</pdfrwt>
<pdfrwt beam="2">  1       -1 0.90761762E-02 0.26816333E+03</pdfrwt>
<totfact> 0.60372744E+03</totfact>
</mgrwt>
</event>
<event>
 4    1  0.1777979E-004  0.2622654E+03  0.7818608E-02  0.1105790E+00
          2   -1    0    0  501    0  0.00000000000E+00  0.00000000000E+00  0.14844064678E+03  0.14844064678E+03  0.00000000000E+00 0.  1.
         -2   -1    0    0    0  501 -0.00000000000E+00 -0.00000000000E+00 -0.11584286583E+03  0.11584286583E+03  0.00000000000E+00 0.  1.
         25    1    1    2    0    0  0.37812820287E+02 -0.22004224487E+02 -0.13624633722E+02  0.12845086966E+03  0.12000000000E+03 0.  0.
         25    1    1    2    0    0 -0.37812820287E+02  0.22004224487E+02  0.46222414669E+02  0.13583264295E+03  0.12000000000E+03 0.  0.
<mgrwt>
<rscale>  0 0.26226544E+03</rscale>
<asrwt>0</asrwt>
<pdfrwt beam="1">  1        2 0.22837023E-01 0.26226544E+03</pdfrwt>
<pdfrwt beam="2">  1       -2 0.17821979E-01 0.26226544E+03</pdfrwt>
<totfact> 0.60432309E+03</totfact>
</mgrwt>
</event>
<event>
 4    1  0.1777979E-004  0.2837357E+03  0.7818608E-02  0.1093666E+00
          2   -1    0    0  501    0  0.00000000000E+00  0.00000000000E+00  0.15517955944E+03  0.15517955944E+03  0.00000000000E+00 0. -1.
         -2   -1    0    0    0  501 -0.00000000000E+00 -0.00000000000E+00 -0.12969806156E+03  0.12969806156E+03  0.00000000000E+00 0. -1.
         25    1    1    2    0    0 -0.46382179263E+02 -0.41965100335E+02 -0.30023058847E+02  0.13861370878E+03  0.12000000000E+03 0.  0.
         25    1    1    2    0    0  0.46382179263E+02  0.41965100335E+02  0.55504556734E+02  0.14626391222E+03  0.12000000000E+03 0.  0.
<mgrwt>
<rscale>  0 0.28373571E+03</rscale>
<asrwt>0</asrwt>
<pdfrwt beam="1">  1        2 0.23873778E-01 0.28373571E+03</pdfrwt>
<pdfrwt beam="2">  1       -2 0.19953548E-01 0.28373571E+03</pdfrwt>
<totfact> 0.47589768E+03</totfact>
</mgrwt>
</event>
<event>
 4    1  0.1777979E-004  0.2889833E+03  0.7818608E-02  0.1090881E+00
          1   -1    0    0  501    0  0.00000000000E+00  0.00000000000E+00  0.80695628953E+03  0.80695628953E+03  0.00000000000E+00 0.  1.
         -1   -1    0    0    0  501 -0.00000000000E+00 -0.00000000000E+00 -0.25872329262E+02  0.25872329262E+02  0.00000000000E+00 0.  1.
         25    1    1    2    0    0  0.48224298460E+02 -0.64406503447E+02  0.38473636479E+03  0.41096940402E+03  0.12000000000E+03 0.  0.
         25    1    1    2    0    0 -0.48224298460E+02  0.64406503447E+02  0.39634759548E+03  0.42185921477E+03  0.12000000000E+03 0.  0.
<mgrwt>
<rscale>  0 0.28898331E+03</rscale>
<asrwt>0</asrwt>
<pdfrwt beam="1">  1        1 0.12414710E+00 0.28898331E+03</pdfrwt>
<pdfrwt beam="2">  1       -1 0.39803590E-02 0.28898331E+03</pdfrwt>
<totfact> 0.56306549E+03</totfact>
</mgrwt>
</event>
<event>
 4    1  0.1777979E-004  0.2607626E+03  0.7818608E-02  0.1106686E+00
         -2   -1    0    0    0  501 -0.00000000000E+00  0.00000000000E+00  0.10667751176E+03  0.10667751176E+03  0.00000000000E+00 0.  1.
          2   -1    0    0  501    0  0.00000000000E+00 -0.00000000000E+00 -0.15935204887E+03  0.15935204887E+03  0.00000000000E+00 0.  1.
         25    1    1    2    0    0 -0.11161344234E+02 -0.29244893178E+02 -0.67392372869E+02  0.14114379654E+03  0.12000000000E+03 0.  0.
         25    1    1    2    0    0  0.11161344234E+02  0.29244893178E+02  0.14717835755E+02  0.12488576409E+03  0.12000000000E+03 0.  0.
<mgrwt>
<rscale>  0 0.26076257E+03</rscale>
<asrwt>0</asrwt>
<pdfrwt beam="1">  1        2 0.24515700E-01 0.26076257E+03</pdfrwt>
<pdfrwt beam="2">  1       -2 0.16411925E-01 0.26076257E+03</pdfrwt>
<totfact> 0.64055606E+03</totfact>
</mgrwt>
</event>
<event>
 4    1  0.1777979E-004  0.3254622E+03  0.7818608E-02  0.1073163E+00
          2   -1    0    0  501    0  0.00000000000E+00  0.00000000000E+00  0.20176215982E+04  0.20176215982E+04  0.00000000000E+00 0.  1.
         -2   -1    0    0    0  501 -0.00000000000E+00 -0.00000000000E+00 -0.13125062766E+02  0.13125062766E+02  0.00000000000E+00 0.  1.
         25    1    1    2    0    0 -0.89467790296E+02  0.65120030761E+01  0.13985728863E+04  0.14065749216E+04  0.12000000000E+03 0.  0.
         25    1    1    2    0    0  0.89467790296E+02 -0.65120030761E+01  0.60592364912E+03  0.62417173938E+03  0.12000000000E+03 0.  0.
<mgrwt>
<rscale>  0 0.32546220E+03</rscale>
<asrwt>0</asrwt>
<pdfrwt beam="1">  1        2 0.31040308E+00 0.32546220E+03</pdfrwt>
<pdfrwt beam="2">  1       -2 0.20192420E-02 0.32546220E+03</pdfrwt>
<totfact> 0.55435120E+03</totfact>
</mgrwt>
</event>
<event>
 4    1  0.1777979E-004  0.4556766E+03  0.7818608E-02  0.1026043E+00
          2   -1    0    0  501    0  0.00000000000E+00  0.00000000000E+00  0.90093791966E+03  0.90093791966E+03  0.00000000000E+00 0.  1.
         -2   -1    0    0    0  501 -0.00000000000E+00 -0.00000000000E+00 -0.57618060262E+02  0.57618060262E+02  0.00000000000E+00 0.  1.
         25    1    1    2    0    0  0.18246091120E+03  0.53973177645E+02  0.34566222305E+03  0.41241661031E+03  0.12000000000E+03 0.  0.
         25    1    1    2    0    0 -0.18246091120E+03 -0.53973177645E+02  0.49765763635E+03  0.54613936961E+03  0.12000000000E+03 0.  0.
<mgrwt>
<rscale>  0 0.45567662E+03</rscale>
<asrwt>0</asrwt>
<pdfrwt beam="1">  1        2 0.13860582E+00 0.45567662E+03</pdfrwt>
<pdfrwt beam="2">  1       -2 0.88643176E-02 0.45567662E+03</pdfrwt>
<totfact> 0.24469929E+03</totfact>
</mgrwt>
</event>
<event>
 4    1  0.1777979E-004  0.2560101E+03  0.7818608E-02  0.1109564E+00
         -1   -1    0    0    0  501 -0.00000000000E+00  0.00000000000E+00  0.11571039769E+02  0.11571039769E+02  0.00000000000E+00 0.  1.
          1   -1    0    0  501    0  0.00000000000E+00 -0.00000000000E+00 -0.14160605766E+04  0.14160605766E+04  0.00000000000E+00 0.  1.
         25    1    1    2    0    0 -0.16090389985E+02  0.10733027476E+01 -0.93386894564E+03  0.94168532975E+03  0.12000000000E+03 0.  0.
         25    1    1    2    0    0  0.16090389985E+02 -0.10733027476E+01 -0.47062059114E+03  0.48594628657E+03  0.12000000000E+03 0.  0.
<mgrwt>
<rscale>  0 0.25601010E+03</rscale>
<asrwt>0</asrwt>
<pdfrwt beam="1">  1        1 0.21785542E+00 0.25601010E+03</pdfrwt>
<pdfrwt beam="2">  1       -1 0.17801604E-02 0.25601010E+03</pdfrwt>
<totfact> 0.66092789E+03</totfact>
</mgrwt>
</event>
<event>
 4    1  0.1777979E-004  0.2712160E+03  0.7818608E-02  0.1100586E+00
         -2   -1    0    0    0  501 -0.00000000000E+00  0.00000000000E+00  0.54134216349E+02  0.54134216349E+02  0.00000000000E+00 0. -1.
          2   -1    0    0  501    0  0.00000000000E+00 -0.00000000000E+00 -0.33970247017E+03  0.33970247017E+03  0.00000000000E+00 0. -1.
         25    1    1    2    0    0  0.43168180559E+01 -0.47660074489E+02 -0.20264594478E+03  0.24032373281E+03  0.12000000000E+03 0.  0.
         25    1    1    2    0    0 -0.43168180559E+01  0.47660074489E+02 -0.82922309043E+02  0.15351295371E+03  0.12000000000E+03 0.  0.
<mgrwt>
<rscale>  0 0.27121598E+03</rscale>
<asrwt>0</asrwt>
<pdfrwt beam="1">  1        2 0.52261919E-01 0.27121598E+03</pdfrwt>
<pdfrwt beam="2">  1       -2 0.83283409E-02 0.27121598E+03</pdfrwt>
<totfact> 0.84056317E+03</totfact>
</mgrwt>
</event>
<event>
 4    1  0.1777979E-004  0.2733341E+03  0.7818608E-02  0.1099386E+00
         -1   -1    0    0    0  501 -0.00000000000E+00  0.00000000000E+00  0.26370191701E+03  0.26370191701E+03  0.00000000000E+00 0.  1.
          1   -1    0    0  501    0  0.00000000000E+00 -0.00000000000E+00 -0.70829528894E+02  0.70829528894E+02  0.00000000000E+00 0.  1.
         25    1    1    2    0    0  0.44027857685E+02 -0.40015382710E+02  0.63183258640E+02  0.14809391371E+03  0.12000000000E+03 0.  0.
         25    1    1    2    0    0 -0.44027857685E+02  0.40015382710E+02  0.12968912947E+03  0.18643753219E+03  0.12000000000E+03 0.  0.
<mgrwt>
<rscale>  0 0.27333410E+03</rscale>
<asrwt>0</asrwt>
<pdfrwt beam="1">  1        1 0.10896851E-01 0.27333410E+03</pdfrwt>
<pdfrwt beam="2">  1       -1 0.40569525E-01 0.27333410E+03</pdfrwt>
<totfact> 0.34221380E+03</totfact>
</mgrwt>
</event>
<event>
 4    1  0.1777979E-004  0.3047842E+03  0.7818608E-02  0.1082873E+00
          2   -1    0    0  501    0  0.00000000000E+00  0.00000000000E+00  0.12614881379E+04  0.12614881379E+04  0.00000000000E+00 0.  1.
         -2   -1    0    0    0  501 -0.00000000000E+00 -0.00000000000E+00 -0.18409494288E+02  0.18409494288E+02  0.00000000000E+00 0.  1.
         25    1    1    2    0    0  0.92468965412E+02 -0.16513184210E+02  0.62323916387E+03  0.64159975857E+03  0.12000000000E+03 0.  0.
         25    1    1    2    0    0 -0.92468965412E+02  0.16513184210E+02  0.61983947972E+03  0.63829787360E+03  0.12000000000E+03 0.  0.
<mgrwt>
<rscale>  0 0.30478424E+03</rscale>
<asrwt>0</asrwt>
<pdfrwt beam="1">  1        2 0.19407503E+00 0.30478424E+03</pdfrwt>
<pdfrwt beam="2">  1       -2 0.28322309E-02 0.30478424E+03</pdfrwt>
<totfact> 0.85266587E+03</totfact>
</mgrwt>
</event>
<event>
 4    1  0.1777979E-004  0.3634706E+03  0.7818608E-02  0.1057218E+00
         -1   -1    0    0    0  501 -0.00000000000E+00  0.00000000000E+00  0.20989596263E+03  0.20989596263E+03  0.00000000000E+00 0.  1.
          1   -1    0    0  501    0  0.00000000000E+00 -0.00000000000E+00 -0.15735282322E+03  0.15735282322E+03  0.00000000000E+00 0.  1.
         25    1    1    2    0    0 -0.15226053599E+02  0.13479803878E+03  0.41440227176E+02  0.18579460809E+03  0.12000000000E+03 0.  0.
         25    1    1    2    0    0  0.15226053599E+02 -0.13479803878E+03  0.11102912231E+02  0.18145417776E+03  0.12000000000E+03 0.  0.
<mgrwt>
<rscale>  0 0.36347062E+03</rscale>
<asrwt>0</asrwt>
<pdfrwt beam="1">  1        1 0.24208126E-01 0.36347062E+03</pdfrwt>
<pdfrwt beam="2">  1       -1 0.32291687E-01 0.36347062E+03</pdfrwt>
<totfact> 0.18020724E+03</totfact>
</mgrwt>
</event>
<event>
 4    1  0.1777979E-004  0.2665317E+03  0.7818608E-02  0.1103281E+00
          3   -1    0    0  501    0  0.00000000000E+00  0.00000000000E+00  0.10370074753E+02  0.10370074753E+02  0.00000000000E+00 0.  1.
         -3   -1    0    0    0  501 -0.00000000000E+00 -0.00000000000E+00 -0.17126000620E+04  0.17126000620E+04  0.00000000000E+00 0.  1.
         25    1    1    2    0    0  0.22142646641E+02  0.11819712081E+02 -0.51336658230E+03  0.52780228326E+03  0.12000000000E+03 0.  0.
         25    1    1    2    0    0 -0.22142646641E+02 -0.11819712081E+02 -0.11888634049E+04  0.11951678534E+04  0.12000000000E+03 0.  0.
<mgrwt>
<rscale>  0 0.26653173E+03</rscale>
<asrwt>0</asrwt>
<pdfrwt beam="1">  1        3 0.15953964E-02 0.26653173E+03</pdfrwt>
<pdfrwt beam="2">  1       -3 0.26347689E+00 0.26653173E+03</pdfrwt>
<totfact> 0.23494754E+02</totfact>
</mgrwt>
</event>
<event>
 4    1  0.1777979E-004  0.2463369E+03  0.7818608E-02  0.1115642E+00
          2   -1    0    0  501    0  0.00000000000E+00  0.00000000000E+00  0.16380794994E+03  0.16380794994E+03  0.00000000000E+00 0.  1.
         -2   -1    0    0    0  501 -0.00000000000E+00 -0.00000000000E+00 -0.92611326115E+02  0.92611326115E+02  0.00000000000E+00 0.  1.
         25    1    1    2    0    0  0.15131172106E+02 -0.22149522952E+02  0.43026034540E+02  0.13027199770E+03  0.12000000000E+03 0.  0.
         25    1    1    2    0    0 -0.15131172106E+02  0.22149522952E+02  0.28170589286E+02  0.12614727836E+03  0.12000000000E+03 0.  0.
<mgrwt>
<rscale>  0 0.24633694E+03</rscale>
<asrwt>0</asrwt>
<pdfrwt beam="1">  1        2 0.25201223E-01 0.24633694E+03</pdfrwt>
<pdfrwt beam="2">  1       -2 0.14247896E-01 0.24633694E+03</pdfrwt>
<totfact> 0.78284172E+03</totfact>
</mgrwt>
</event>
<event>
 4    1  0.1777979E-004  0.2445000E+03  0.7818608E-02  0.1116831E+00
         -4   -1    0    0    0  501 -0.00000000000E+00  0.00000000000E+00  0.24431941227E+03  0.24431941227E+03  0.00000000000E+00 0. -1.
          4   -1    0    0  501    0  0.00000000000E+00 -0.00000000000E+00 -0.61170194406E+02  0.61170194406E+02  0.00000000000E+00 0. -1.
         25    1    1    2    0    0  0.33540952722E+01  0.17257403469E+01  0.12036174434E+03  0.17000346360E+03  0.12000000000E+03 0.  0.
         25    1    1    2    0    0 -0.33540952722E+01 -0.17257403469E+01  0.62787473526E+02  0.13548614308E+03  0.12000000000E+03 0.  0.
<mgrwt>
<rscale>  0 0.24450003E+03</rscale>
<asrwt>0</asrwt>
<pdfrwt beam="1">  1        4 0.94107993E-02 0.24450003E+03</pdfrwt>
<pdfrwt beam="2">  1       -4 0.37587601E-01 0.24450003E+03</pdfrwt>
<totfact> 0.10665495E+03</totfact>
</mgrwt>
</event>
<event>
 4    1  0.1777979E-004  0.3687290E+03  0.7818608E-02  0.1055180E+00
         -2   -1    0    0    0  501 -0.00000000000E+00  0.00000000000E+00  0.94917712192E+02  0.94917712192E+02  0.00000000000E+00 0.  1.
          2   -1    0    0  501    0  0.00000000000E+00 -0.00000000000E+00 -0.35810255683E+03  0.35810255683E+03  0.00000000000E+00 0.  1.
         25    1    1    2    0    0  0.44295311495E+02 -0.12883174739E+03 -0.92151096721E+02  0.20359645965E+03  0.12000000000E+03 0.  0.
         25    1    1    2    0    0 -0.44295311495E+02  0.12883174739E+03 -0.17103374792E+03  0.24942380937E+03  0.12000000000E+03 0.  0.
<mgrwt>
<rscale>  0 0.36872904E+03</rscale>
<asrwt>0</asrwt>
<pdfrwt beam="1">  1        2 0.55092700E-01 0.36872904E+03</pdfrwt>
<pdfrwt beam="2">  1       -2 0.14602725E-01 0.36872904E+03</pdfrwt>
<totfact> 0.32419318E+03</totfact>
</mgrwt>
</event>
<event>
 4    1  0.1777979E-004  0.2699732E+03  0.7818608E-02  0.1101295E+00
         -1   -1    0    0    0  501 -0.00000000000E+00  0.00000000000E+00  0.13071659794E+02  0.13071659794E+02  0.00000000000E+00 0.  1.
          1   -1    0    0  501    0  0.00000000000E+00 -0.00000000000E+00 -0.13939610692E+04  0.13939610692E+04  0.00000000000E+00 0.  1.
         25    1    1    2    0    0 -0.60633327141E+02  0.65629446036E+01 -0.74305814876E+03  0.75515222640E+03  0.12000000000E+03 0.  0.
         25    1    1    2    0    0  0.60633327141E+02 -0.65629446036E+01 -0.63783126067E+03  0.65188050261E+03  0.12000000000E+03 0.  0.
<mgrwt>
<rscale>  0 0.26997322E+03</rscale>
<asrwt>0</asrwt>
<pdfrwt beam="1">  1        1 0.21445555E+00 0.26997322E+03</pdfrwt>
<pdfrwt beam="2">  1       -1 0.20110246E-02 0.26997322E+03</pdfrwt>
<totfact> 0.57283900E+03</totfact>
</mgrwt>
</event>
<event>
 4    1  0.1777979E-004  0.2705528E+03  0.7818608E-02  0.1100964E+00
          1   -1    0    0  501    0  0.00000000000E+00  0.00000000000E+00  0.63193351841E+03  0.63193351841E+03  0.00000000000E+00 0. -1.
         -1   -1    0    0    0  501 -0.00000000000E+00 -0.00000000000E+00 -0.28958282471E+02  0.28958282471E+02  0.00000000000E+00 0. -1.
         25    1    1    2    0    0  0.33407967957E+02 -0.42191835599E+02  0.22410746093E+03  0.25984687291E+03  0.12000000000E+03 0.  0.
         25    1    1    2    0    0 -0.33407967957E+02  0.42191835599E+02  0.37886777500E+03  0.40104492797E+03  0.12000000000E+03 0.  0.
<mgrwt>
<rscale>  0 0.27055284E+03</rscale>
<asrwt>0</asrwt>
<pdfrwt beam="1">  1        1 0.97220531E-01 0.27055284E+03</pdfrwt>
<pdfrwt beam="2">  1       -1 0.44551209E-02 0.27055284E+03</pdfrwt>
<totfact> 0.68138426E+03</totfact>
</mgrwt>
</event>
<event>
 4    1  0.1777979E-004  0.2610577E+03  0.7818608E-02  0.1106509E+00
         -2   -1    0    0    0  501 -0.00000000000E+00  0.00000000000E+00  0.61252316507E+01  0.61252316507E+01  0.00000000000E+00 0. -1.
          2   -1    0    0  501    0  0.00000000000E+00 -0.00000000000E+00 -0.27815724455E+04  0.27815724455E+04  0.00000000000E+00 0. -1.
         25    1    1    2    0    0  0.12890138339E+02 -0.31159634818E+02 -0.97405196644E+03  0.98199506712E+03  0.12000000000E+03 0.  0.
         25    1    1    2    0    0 -0.12890138339E+02  0.31159634818E+02 -0.18013952474E+04  0.18057026100E+04  0.12000000000E+03 0.  0.
<mgrwt>
<rscale>  0 0.26105766E+03</rscale>
<asrwt>0</asrwt>
<pdfrwt beam="1">  1        2 0.42793524E+00 0.26105766E+03</pdfrwt>
<pdfrwt beam="2">  1       -2 0.94234110E-03 0.26105766E+03</pdfrwt>
<totfact> 0.64904191E+03</totfact>
</mgrwt>
</event>
<event>
 4    1  0.1777979E-004  0.2931588E+03  0.7818608E-02  0.1088711E+00
          1   -1    0    0  501    0  0.00000000000E+00  0.00000000000E+00  0.80384215875E+03  0.80384215875E+03  0.00000000000E+00 0. -1.
         -1   -1    0    0    0  501 -0.00000000000E+00 -0.00000000000E+00 -0.26728530592E+02  0.26728530592E+02  0.00000000000E+00 0. -1.
         25    1    1    2    0    0 -0.17328018724E+02  0.82168015137E+02  0.37211540651E+03  0.39990213641E+03  0.12000000000E+03 0.  0.
         25    1    1    2    0    0  0.17328018724E+02 -0.82168015137E+02  0.40499822165E+03  0.43066855293E+03  0.12000000000E+03 0.  0.
<mgrwt>
<rscale>  0 0.29315879E+03</rscale>
<asrwt>0</asrwt>
<pdfrwt beam="1">  1        1 0.12366801E+00 0.29315879E+03</pdfrwt>
<pdfrwt beam="2">  1       -1 0.41120822E-02 0.29315879E+03</pdfrwt>
<totfact> 0.53977702E+03</totfact>
</mgrwt>
</event>
<event>
 4    1  0.1777979E-004  0.2635326E+03  0.7818608E-02  0.1105039E+00
          2   -1    0    0  501    0  0.00000000000E+00  0.00000000000E+00  0.16734597807E+04  0.16734597807E+04  0.00000000000E+00 0.  1.
         -2   -1    0    0    0  501 -0.00000000000E+00 -0.00000000000E+00 -0.10375124831E+02  0.10375124831E+02  0.00000000000E+00 0.  1.
         25    1    1    2    0    0 -0.75682162963E+01 -0.10789188014E+02  0.49412782758E+03  0.50866098186E+03  0.12000000000E+03 0.  0.
         25    1    1    2    0    0  0.75682162963E+01  0.10789188014E+02  0.11689568282E+04  0.11751739236E+04  0.12000000000E+03 0.  0.
<mgrwt>
<rscale>  0 0.26353257E+03</rscale>
<asrwt>0</asrwt>
<pdfrwt beam="1">  1        2 0.25745514E+00 0.26353257E+03</pdfrwt>
<pdfrwt beam="2">  1       -2 0.15961744E-02 0.26353257E+03</pdfrwt>
<totfact> 0.11871051E+04</totfact>
</mgrwt>
</event>
<event>
 4    1  0.1777979E-004  0.3055733E+03  0.7818608E-02  0.1082487E+00
         -2   -1    0    0    0  501 -0.00000000000E+00  0.00000000000E+00  0.26998355329E+03  0.26998355329E+03  0.00000000000E+00 0.  1.
          2   -1    0    0  501    0  0.00000000000E+00 -0.00000000000E+00 -0.86463628704E+02  0.86463628704E+02  0.00000000000E+00 0.  1.
         25    1    1    2    0    0 -0.71142604309E+02  0.53318951920E+02  0.54149547577E+02  0.15885954263E+03  0.12000000000E+03 0.  0.
         25    1    1    2    0    0  0.71142604309E+02 -0.53318951920E+02  0.12937037701E+03  0.19758763936E+03  0.12000000000E+03 0.  0.
<mgrwt>
<rscale>  0 0.30557328E+03</rscale>
<asrwt>0</asrwt>
<pdfrwt beam="1">  1        2 0.13302097E-01 0.30557328E+03</pdfrwt>
<pdfrwt beam="2">  1       -2 0.41535931E-01 0.30557328E+03</pdfrwt>
<totfact> 0.24969709E+03</totfact>
</mgrwt>
</event>
<event>
 4    1  0.1777979E-004  0.2881470E+03  0.7818608E-02  0.1091321E+00
          2   -1    0    0  501    0  0.00000000000E+00  0.00000000000E+00  0.15168493264E+04  0.15168493264E+04  0.00000000000E+00 0. -1.
         -2   -1    0    0    0  501 -0.00000000000E+00 -0.00000000000E+00 -0.13684404814E+02  0.13684404814E+02  0.00000000000E+00 0. -1.
         25    1    1    2    0    0 -0.91217805875E+01 -0.54082375876E+02  0.10589732442E+04  0.10671609261E+04  0.12000000000E+03 0.  0.
         25    1    1    2    0    0  0.91217805875E+01  0.54082375876E+02  0.44419167740E+03  0.46337280513E+03  0.12000000000E+03 0.  0.
<mgrwt>
<rscale>  0 0.28814705E+03</rscale>
<asrwt>0</asrwt>
<pdfrwt beam="1">  1        2 0.23336130E+00 0.28814705E+03</pdfrwt>
<pdfrwt beam="2">  1       -2 0.21052942E-02 0.28814705E+03</pdfrwt>
<totfact> 0.95875283E+03</totfact>
</mgrwt>
</event>
<event>
 4    1  0.1777979E-004  0.2645651E+03  0.7818608E-02  0.1104431E+00
         -2   -1    0    0    0  501 -0.00000000000E+00  0.00000000000E+00  0.26955696804E+02  0.26955696804E+02  0.00000000000E+00 0.  1.
          2   -1    0    0  501    0  0.00000000000E+00 -0.00000000000E+00 -0.64916418810E+03  0.64916418810E+03  0.00000000000E+00 0.  1.
         25    1    1    2    0    0  0.64468455097E+01 -0.29969549458E+02 -0.19236038308E+03  0.22878429293E+03  0.12000000000E+03 0.  0.
         25    1    1    2    0    0 -0.64468455097E+01  0.29969549458E+02 -0.42984810821E+03  0.44733559197E+03  0.12000000000E+03 0.  0.
<mgrwt>
<rscale>  0 0.26456510E+03</rscale>
<asrwt>0</asrwt>
<pdfrwt beam="1">  1        2 0.99871412E-01 0.26456510E+03</pdfrwt>
<pdfrwt beam="2">  1       -2 0.41470304E-02 0.26456510E+03</pdfrwt>
<totfact> 0.11881304E+04</totfact>
</mgrwt>
</event>
<event>
 4    1  0.1777979E-004  0.3115959E+03  0.7818608E-02  0.1079583E+00
         -1   -1    0    0    0  501 -0.00000000000E+00  0.00000000000E+00  0.23190537915E+02  0.23190537915E+02  0.00000000000E+00 0.  1.
          1   -1    0    0  501    0  0.00000000000E+00 -0.00000000000E+00 -0.10466770491E+04  0.10466770491E+04  0.00000000000E+00 0.  1.
         25    1    1    2    0    0 -0.36586914981E+02  0.48181634142E+02 -0.24110663738E+03  0.27602985854E+03  0.12000000000E+03 0.  0.
         25    1    1    2    0    0  0.36586914981E+02 -0.48181634142E+02 -0.78237987379E+03  0.79383772846E+03  0.12000000000E+03 0.  0.
<mgrwt>
<rscale>  0 0.31159592E+03</rscale>
<asrwt>0</asrwt>
<pdfrwt beam="1">  1        1 0.16102727E+00 0.31159592E+03</pdfrwt>
<pdfrwt beam="2">  1       -1 0.35677743E-02 0.31159592E+03</pdfrwt>
<totfact> 0.43132968E+03</totfact>
</mgrwt>
</event>
<event>
 4    1  0.1777979E-004  0.2640985E+03  0.7818608E-02  0.1104705E+00
          2   -1    0    0  501    0  0.00000000000E+00  0.00000000000E+00  0.36628128998E+03  0.36628128998E+03  0.00000000000E+00 0.  1.
         -2   -1    0    0    0  501 -0.00000000000E+00 -0.00000000000E+00 -0.47605492229E+02  0.47605492229E+02  0.00000000000E+00 0.  1.
         25    1    1    2    0    0  0.15854633195E+02  0.46034906190E+02  0.19979449956E+03  0.23809330952E+03  0.12000000000E+03 0.  0.
         25    1    1    2    0    0 -0.15854633195E+02 -0.46034906190E+02  0.11888129819E+03  0.17579347269E+03  0.12000000000E+03 0.  0.
<mgrwt>
<rscale>  0 0.26409847E+03</rscale>
<asrwt>0</asrwt>
<pdfrwt beam="1">  1        2 0.56350966E-01 0.26409847E+03</pdfrwt>
<pdfrwt beam="2">  1       -2 0.73239221E-02 0.26409847E+03</pdfrwt>
<totfact> 0.94581854E+03</totfact>
</mgrwt>
</event>
<event>
 4    1  0.1777979E-004  0.3095600E+03  0.7818608E-02  0.1080557E+00
          1   -1    0    0  501    0  0.00000000000E+00  0.00000000000E+00  0.84519900996E+03  0.84519900996E+03  0.00000000000E+00 0.  1.
         -1   -1    0    0    0  501 -0.00000000000E+00 -0.00000000000E+00 -0.28344628061E+02  0.28344628061E+02  0.00000000000E+00 0.  1.
         25    1    1    2    0    0 -0.52167543319E+02  0.69390537012E+02  0.28158804786E+03  0.31816399529E+03  0.12000000000E+03 0.  0.
         25    1    1    2    0    0  0.52167543319E+02 -0.69390537012E+02  0.53526633404E+03  0.55537964273E+03  0.12000000000E+03 0.  0.
<mgrwt>
<rscale>  0 0.30956002E+03</rscale>
<asrwt>0</asrwt>
<pdfrwt beam="1">  1        1 0.13003060E+00 0.30956002E+03</pdfrwt>
<pdfrwt beam="2">  1       -1 0.43607127E-02 0.30956002E+03</pdfrwt>
<totfact> 0.45753225E+03</totfact>
</mgrwt>
</event>
<event>
 4    1  0.1777979E-004  0.2763955E+03  0.7818608E-02  0.1097674E+00
          1   -1    0    0  501    0  0.00000000000E+00  0.00000000000E+00  0.36431193256E+03  0.36431193256E+03  0.00000000000E+00 0. -1.
         -1   -1    0    0    0  501 -0.00000000000E+00 -0.00000000000E+00 -0.52423806522E+02  0.52423806522E+02  0.00000000000E+00 0. -1.
         25    1    1    2    0    0  0.32145275771E+02 -0.60484172821E+02  0.15196509850E+03  0.20538998291E+03  0.12000000000E+03 0.  0.
         25    1    1    2    0    0 -0.32145275771E+02  0.60484172821E+02  0.15992302753E+03  0.21134575617E+03  0.12000000000E+03 0.  0.
<mgrwt>
<rscale>  0 0.27639550E+03</rscale>
<asrwt>0</asrwt>
<pdfrwt beam="1">  1        1 0.56047988E-01 0.27639550E+03</pdfrwt>
<pdfrwt beam="2">  1       -1 0.80652012E-02 0.27639550E+03</pdfrwt>
<totfact> 0.57787239E+03</totfact>
</mgrwt>
</event>
<event>
 4    1  0.1777979E-004  0.2491480E+03  0.7818608E-02  0.1113844E+00
         -2   -1    0    0    0  501 -0.00000000000E+00  0.00000000000E+00  0.84491656769E+02  0.84491656769E+02  0.00000000000E+00 0. -1.
          2   -1    0    0  501    0  0.00000000000E+00 -0.00000000000E+00 -0.18367115701E+03  0.18367115701E+03  0.00000000000E+00 0. -1.
         25    1    1    2    0    0  0.12542140912E+02  0.25028991581E+02 -0.29892086674E+02  0.12679626400E+03  0.12000000000E+03 0.  0.
         25    1    1    2    0    0 -0.12542140912E+02 -0.25028991581E+02 -0.69287413566E+02  0.14136654978E+03  0.12000000000E+03 0.  0.
<mgrwt>
<rscale>  0 0.24914799E+03</rscale>
<asrwt>0</asrwt>
<pdfrwt beam="1">  1        2 0.28257101E-01 0.24914799E+03</pdfrwt>
<pdfrwt beam="2">  1       -2 0.12998716E-01 0.24914799E+03</pdfrwt>
<totfact> 0.80148668E+03</totfact>
</mgrwt>
</event>
<event>
 4    1  0.1777979E-004  0.3137338E+03  0.7818608E-02  0.1078570E+00
         -2   -1    0    0    0  501 -0.00000000000E+00  0.00000000000E+00  0.48878503328E+02  0.48878503328E+02  0.00000000000E+00 0.  1.
          2   -1    0    0  501    0  0.00000000000E+00 -0.00000000000E+00 -0.50343659928E+03  0.50343659928E+03  0.00000000000E+00 0.  1.
         25    1    1    2    0    0 -0.10320388088E+02  0.69088346174E+02 -0.98783516886E+02  0.17040508559E+03  0.12000000000E+03 0.  0.
         25    1    1    2    0    0  0.10320388088E+02 -0.69088346174E+02 -0.35577457907E+03  0.38191001702E+03  0.12000000000E+03 0.  0.
<mgrwt>
<rscale>  0 0.31373382E+03</rscale>
<asrwt>0</asrwt>
<pdfrwt beam="1">  1        2 0.77451785E-01 0.31373382E+03</pdfrwt>
<pdfrwt beam="2">  1       -2 0.75197697E-02 0.31373382E+03</pdfrwt>
<totfact> 0.64385054E+03</totfact>
</mgrwt>
</event>
<event>
 4    1  0.1777979E-004  0.3640664E+03  0.7818608E-02  0.1056985E+00
         -1   -1    0    0    0  501 -0.00000000000E+00  0.00000000000E+00  0.45593804266E+02  0.45593804266E+02  0.00000000000E+00 0.  1.
          1   -1    0    0  501    0  0.00000000000E+00 -0.00000000000E+00 -0.72676717633E+03  0.72676717633E+03  0.00000000000E+00 0.  1.
         25    1    1    2    0    0 -0.10171088725E+03  0.34445872782E+02 -0.16051708249E+03  0.22737052691E+03  0.12000000000E+03 0.  0.
         25    1    1    2    0    0  0.10171088725E+03 -0.34445872782E+02 -0.52065628958E+03  0.54499045369E+03  0.12000000000E+03 0.  0.
<mgrwt>
<rscale>  0 0.36406637E+03</rscale>
<asrwt>0</asrwt>
<pdfrwt beam="1">  1        1 0.11181033E+00 0.36406637E+03</pdfrwt>
<pdfrwt beam="2">  1       -1 0.70144319E-02 0.36406637E+03</pdfrwt>
<totfact> 0.28174516E+03</totfact>
</mgrwt>
</event>
<event>
 4    1  0.1777979E-004  0.2823972E+03  0.7818608E-02  0.1094387E+00
          2   -1    0    0  501    0  0.00000000000E+00  0.00000000000E+00  0.24224593829E+03  0.24224593829E+03  0.00000000000E+00 0. -1.
         -2   -1    0    0    0  501 -0.00000000000E+00 -0.00000000000E+00 -0.82300858412E+02  0.82300858412E+02  0.00000000000E+00 0. -1.
         25    1    1    2    0    0 -0.59779070607E+02  0.42985039287E+02  0.67605464236E+02  0.15617858265E+03  0.12000000000E+03 0.  0.
         25    1    1    2    0    0  0.59779070607E+02 -0.42985039287E+02  0.92339615646E+02  0.16836821405E+03  0.12000000000E+03 0.  0.
<mgrwt>
<rscale>  0 0.28239723E+03</rscale>
<asrwt>0</asrwt>
<pdfrwt beam="1">  1        2 0.37268606E-01 0.28239723E+03</pdfrwt>
<pdfrwt beam="2">  1       -2 0.12661671E-01 0.28239723E+03</pdfrwt>
<totfact> 0.62152501E+03</totfact>
</mgrwt>
</event>
<event>
 4    1  0.1777979E-004  0.2881513E+03  0.7818608E-02  0.1091318E+00
         -2   -1    0    0    0  501 -0.00000000000E+00  0.00000000000E+00  0.10543888797E+02  0.10543888797E+02  0.00000000000E+00 0.  1.
          2   -1    0    0  501    0  0.00000000000E+00 -0.00000000000E+00 -0.19687040242E+04  0.19687040242E+04  0.00000000000E+00 0.  1.
         25    1    1    2    0    0  0.45206150478E+02 -0.65352992041E+02 -0.93394079438E+03  0.94496561685E+03  0.12000000000E+03 0.  0.
         25    1    1    2    0    0 -0.45206150478E+02  0.65352992041E+02 -0.10242193410E+04  0.10342822961E+04  0.12000000000E+03 0.  0.
<mgrwt>
<rscale>  0 0.28815132E+03</rscale>
<asrwt>0</asrwt>
<pdfrwt beam="1">  1        2 0.30287738E+00 0.28815132E+03</pdfrwt>
<pdfrwt beam="2">  1       -2 0.16221376E-02 0.28815132E+03</pdfrwt>
<totfact> 0.81210181E+03</totfact>
</mgrwt>
</event>
<event>
 4    1  0.1777979E-004  0.4741202E+03  0.7818608E-02  0.1020764E+00
          2   -1    0    0  501    0  0.00000000000E+00  0.00000000000E+00  0.36171637652E+03  0.36171637652E+03  0.00000000000E+00 0. -1.
         -2   -1    0    0    0  501 -0.00000000000E+00 -0.00000000000E+00 -0.15536343250E+03  0.15536343250E+03  0.00000000000E+00 0. -1.
         25    1    1    2    0    0  0.14404855614E+03 -0.18286910654E+02 -0.53784488493E+02  0.19590091585E+03  0.12000000000E+03 0.  0.
         25    1    1    2    0    0 -0.14404855614E+03  0.18286910654E+02  0.26013743251E+03  0.32117889317E+03  0.12000000000E+03 0.  0.
<mgrwt>
<rscale>  0 0.47412023E+03</rscale>
<asrwt>0</asrwt>
<pdfrwt beam="1">  1        2 0.55648673E-01 0.47412023E+03</pdfrwt>
<pdfrwt beam="2">  1       -2 0.23902067E-01 0.47412023E+03</pdfrwt>
<totfact> 0.13812319E+03</totfact>
</mgrwt>
</event>
<event>
 4    1  0.1777979E-004  0.2750225E+03  0.7818608E-02  0.1098439E+00
         -2   -1    0    0    0  501 -0.00000000000E+00  0.00000000000E+00  0.15459439120E+02  0.15459439120E+02  0.00000000000E+00 0. -1.
          2   -1    0    0  501    0  0.00000000000E+00 -0.00000000000E+00 -0.12231588749E+04  0.12231588749E+04  0.00000000000E+00 0. -1.
         25    1    1    2    0    0  0.26634508681E+02 -0.54571009932E+02 -0.47472957191E+03  0.49341215897E+03  0.12000000000E+03 0.  0.
         25    1    1    2    0    0 -0.26634508681E+02  0.54571009932E+02 -0.73296986387E+03  0.74520615505E+03  0.12000000000E+03 0.  0.
<mgrwt>
<rscale>  0 0.27502255E+03</rscale>
<asrwt>0</asrwt>
<pdfrwt beam="1">  1        2 0.18817825E+00 0.27502255E+03</pdfrwt>
<pdfrwt beam="2">  1       -2 0.23783757E-02 0.27502255E+03</pdfrwt>
<totfact> 0.11584881E+04</totfact>
</mgrwt>
</event>
<event>
 4    1  0.1777979E-004  0.3401754E+03  0.7818608E-02  0.1066721E+00
          2   -1    0    0  501    0  0.00000000000E+00  0.00000000000E+00  0.25420058127E+04  0.25420058127E+04  0.00000000000E+00 0. -1.
         -2   -1    0    0    0  501 -0.00000000000E+00 -0.00000000000E+00 -0.11380704868E+02  0.11380704868E+02  0.00000000000E+00 0. -1.
         25    1    1    2    0    0 -0.16281969216E+02 -0.16918832063E+02  0.37786333499E+03  0.39715494373E+03  0.12000000000E+03 0.  0.
         25    1    1    2    0    0  0.16281969216E+02  0.16918832063E+02  0.21527617729E+04  0.21562315739E+04  0.12000000000E+03 0.  0.
<mgrwt>
<rscale>  0 0.34017535E+03</rscale>
<asrwt>0</asrwt>
<pdfrwt beam="1">  1        2 0.39107736E+00 0.34017535E+03</pdfrwt>
<pdfrwt beam="2">  1       -2 0.17508797E-02 0.34017535E+03</pdfrwt>
<totfact> 0.35623208E+03</totfact>
</mgrwt>
</event>
<event>
 4    1  0.1777979E-004  0.3293506E+03  0.7818608E-02  0.1071425E+00
          4   -1    0    0  501    0  0.00000000000E+00  0.00000000000E+00  0.48262555153E+03  0.48262555153E+03  0.00000000000E+00 0.  1.
         -4   -1    0    0    0  501 -0.00000000000E+00 -0.00000000000E+00 -0.56188394805E+02  0.56188394805E+02  0.00000000000E+00 0.  1.
         25    1    1    2    0    0 -0.67876861045E+02  0.83605319837E+02  0.26798970126E+03  0.31275485248E+03  0.12000000000E+03 0.  0.
         25    1    1    2    0    0  0.67876861045E+02 -0.83605319837E+02  0.15844745547E+03  0.22605909386E+03  0.12000000000E+03 0.  0.
<mgrwt>
<rscale>  0 0.32935060E+03</rscale>
<asrwt>0</asrwt>
<pdfrwt beam="1">  1        4 0.74250082E-01 0.32935060E+03</pdfrwt>
<pdfrwt beam="2">  1       -4 0.86443687E-02 0.32935060E+03</pdfrwt>
<totfact> 0.31042457E+02</totfact>
</mgrwt>
</event>
<event>
 4    1  0.1777979E-004  0.2491913E+03  0.7818608E-02  0.1113817E+00
          1   -1    0    0  501    0  0.00000000000E+00  0.00000000000E+00  0.66667415955E+03  0.66667415955E+03  0.00000000000E+00 0.  1.
         -1   -1    0    0    0  501 -0.00000000000E+00 -0.00000000000E+00 -0.23285848697E+02  0.23285848697E+02  0.00000000000E+00 0.  1.
         25    1    1    2    0    0 -0.49155874919E+01  0.32407218657E+02  0.34121030128E+03  0.36317882719E+03  0.12000000000E+03 0.  0.
         25    1    1    2    0    0  0.49155874919E+01 -0.32407218657E+02  0.30217800958E+03  0.32678118106E+03  0.12000000000E+03 0.  0.
<mgrwt>
<rscale>  0 0.24919128E+03</rscale>
<asrwt>0</asrwt>
<pdfrwt beam="1">  1        1 0.10256524E+00 0.24919128E+03</pdfrwt>
<pdfrwt beam="2">  1       -1 0.35824388E-02 0.24919128E+03</pdfrwt>
<totfact> 0.87064502E+03</totfact>
</mgrwt>
</event>
<event>
 4    1  0.1777979E-004  0.2664211E+03  0.7818608E-02  0.1103346E+00
          1   -1    0    0  501    0  0.00000000000E+00  0.00000000000E+00  0.27544356571E+03  0.27544356571E+03  0.00000000000E+00 0.  1.
         -1   -1    0    0    0  501 -0.00000000000E+00 -0.00000000000E+00 -0.64423520349E+02  0.64423520349E+02  0.00000000000E+00 0.  1.
         25    1    1    2    0    0  0.31438053411E+02 -0.29108377692E+02  0.55948793638E+02  0.13916147586E+03  0.12000000000E+03 0.  0.
         25    1    1    2    0    0 -0.31438053411E+02  0.29108377692E+02  0.15507125172E+03  0.20070561020E+03  0.12000000000E+03 0.  0.
<mgrwt>
<rscale>  0 0.26642105E+03</rscale>
<asrwt>0</asrwt>
<pdfrwt beam="1">  1        1 0.42375933E-01 0.26642105E+03</pdfrwt>
<pdfrwt beam="2">  1       -1 0.99113110E-02 0.26642105E+03</pdfrwt>
<totfact> 0.59837162E+03</totfact>
</mgrwt>
</event>
<event>
 4    1  0.1777979E-004  0.2673183E+03  0.7818608E-02  0.1102824E+00
          1   -1    0    0  501    0  0.00000000000E+00  0.00000000000E+00  0.11987923100E+03  0.11987923100E+03  0.00000000000E+00 0.  1.
         -1   -1    0    0    0  501 -0.00000000000E+00 -0.00000000000E+00 -0.14902302080E+03  0.14902302080E+03  0.00000000000E+00 0.  1.
         25    1    1    2    0    0 -0.21303111548E+02 -0.50966320437E+02  0.58802477508E+01  0.13223451022E+03  0.12000000000E+03 0.  0.
         25    1    1    2    0    0  0.21303111548E+02  0.50966320437E+02 -0.35024037554E+02  0.13666774157E+03  0.12000000000E+03 0.  0.
<mgrwt>
<rscale>  0 0.26731828E+03</rscale>
<asrwt>0</asrwt>
<pdfrwt beam="1">  1        1 0.18442959E-01 0.26731828E+03</pdfrwt>
<pdfrwt beam="2">  1       -1 0.22926618E-01 0.26731828E+03</pdfrwt>
<totfact> 0.45321720E+03</totfact>
</mgrwt>
</event>
<event>
 4    1  0.1777979E-004  0.2713249E+03  0.7818608E-02  0.1100524E+00
          2   -1    0    0  501    0  0.00000000000E+00  0.00000000000E+00  0.41638945671E+02  0.41638945671E+02  0.00000000000E+00 0. -1.
         -2   -1    0    0    0  501 -0.00000000000E+00 -0.00000000000E+00 -0.44199738675E+03  0.44199738675E+03  0.00000000000E+00 0. -1.
         25    1    1    2    0    0  0.84485658452E+01  0.30484273237E+02 -0.10248860176E+03  0.16094900643E+03  0.12000000000E+03 0.  0.
         25    1    1    2    0    0 -0.84485658452E+01 -0.30484273237E+02 -0.29786983932E+03  0.32268732599E+03  0.12000000000E+03 0.  0.
<mgrwt>
<rscale>  0 0.27132494E+03</rscale>
<asrwt>0</asrwt>
<pdfrwt beam="1">  1        2 0.64059916E-02 0.27132494E+03</pdfrwt>
<pdfrwt beam="2">  1       -2 0.67999598E-01 0.27132494E+03</pdfrwt>
<totfact> 0.22945612E+03</totfact>
</mgrwt>
</event>
<event>
 4    1  0.1777979E-004  0.3838818E+03  0.7818608E-02  0.1049508E+00
         -2   -1    0    0    0  501 -0.00000000000E+00  0.00000000000E+00  0.16956785599E+03  0.16956785599E+03  0.00000000000E+00 0. -1.
          2   -1    0    0  501    0  0.00000000000E+00 -0.00000000000E+00 -0.21726589743E+03  0.21726589743E+03  0.00000000000E+00 0. -1.
         25    1    1    2    0    0 -0.26128609917E+02  0.11624992053E+03 -0.11534682450E+03  0.20469889644E+03  0.12000000000E+03 0.  0.
         25    1    1    2    0    0  0.26128609917E+02 -0.11624992053E+03  0.67648783068E+02  0.18213485699E+03  0.12000000000E+03 0.  0.
<mgrwt>
<rscale>  0 0.38388182E+03</rscale>
<asrwt>0</asrwt>
<pdfrwt beam="1">  1        2 0.33425522E-01 0.38388182E+03</pdfrwt>
<pdfrwt beam="2">  1       -2 0.26087363E-01 0.38388182E+03</pdfrwt>
<totfact> 0.20625127E+03</totfact>
</mgrwt>
</event>
<event>
 4    1  0.1777979E-004  0.3608883E+03  0.7818608E-02  0.1058233E+00
          1   -1    0    0  501    0  0.00000000000E+00  0.00000000000E+00  0.22511835559E+02  0.22511835559E+02  0.00000000000E+00 0. -1.
         -1   -1    0    0    0  501 -0.00000000000E+00 -0.00000000000E+00 -0.14463540034E+04  0.14463540034E+04  0.00000000000E+00 0. -1.
         25    1    1    2    0    0  0.65774035959E+02  0.11377316813E+03 -0.59052947240E+03  0.61676220326E+03  0.12000000000E+03 0.  0.
         25    1    1    2    0    0 -0.65774035959E+02 -0.11377316813E+03 -0.83331269544E+03  0.85210363570E+03  0.12000000000E+03 0.  0.
<mgrwt>
<rscale>  0 0.36088826E+03</rscale>
<asrwt>0</asrwt>
<pdfrwt beam="1">  1        1 0.34633599E-02 0.36088826E+03</pdfrwt>
<pdfrwt beam="2">  1       -1 0.22251596E+00 0.36088826E+03</pdfrwt>
<totfact> 0.32983851E+02</totfact>
</mgrwt>
</event>
<event>
 4    1  0.1777979E-004  0.2964251E+03  0.7818608E-02  0.1087041E+00
         -1   -1    0    0    0  501 -0.00000000000E+00  0.00000000000E+00  0.11185396392E+03  0.11185396392E+03  0.00000000000E+00 0. -1.
          1   -1    0    0  501    0  0.00000000000E+00 -0.00000000000E+00 -0.19638966964E+03  0.19638966964E+03  0.00000000000E+00 0. -1.
         25    1    1    2    0    0 -0.37623949811E+02 -0.68087469091E+02 -0.17863347653E+01  0.14301977499E+03  0.12000000000E+03 0.  0.
         25    1    1    2    0    0  0.37623949811E+02  0.68087469091E+02 -0.82749370954E+02  0.16522385857E+03  0.12000000000E+03 0.  0.
<mgrwt>
<rscale>  0 0.29642512E+03</rscale>
<asrwt>0</asrwt>
<pdfrwt beam="1">  1        1 0.30213795E-01 0.29642512E+03</pdfrwt>
<pdfrwt beam="2">  1       -1 0.17208302E-01 0.29642512E+03</pdfrwt>
<totfact> 0.38567116E+03</totfact>
</mgrwt>
</event>
<event>
 4    1  0.1777979E-004  0.4205392E+03  0.7818608E-02  0.1036891E+00
         -1   -1    0    0    0  501 -0.00000000000E+00  0.00000000000E+00  0.23104740978E+03  0.23104740978E+03  0.00000000000E+00 0.  1.
          1   -1    0    0  501    0  0.00000000000E+00 -0.00000000000E+00 -0.19136033889E+03  0.19136033889E+03  0.00000000000E+00 0.  1.
         25    1    1    2    0    0  0.54863155307E+02 -0.13717969965E+03 -0.69912747313E+02  0.20277087573E+03  0.12000000000E+03 0.  0.
         25    1    1    2    0    0 -0.54863155307E+02  0.13717969965E+03  0.10959981820E+03  0.21963687294E+03  0.12000000000E+03 0.  0.
<mgrwt>
<rscale>  0 0.42053923E+03</rscale>
<asrwt>0</asrwt>
<pdfrwt beam="1">  1        1 0.29440052E-01 0.42053923E+03</pdfrwt>
<pdfrwt beam="2">  1       -1 0.35545756E-01 0.42053923E+03</pdfrwt>
<totfact> 0.11867118E+03</totfact>
</mgrwt>
</event>
<event>
 4    1  0.1777979E-004  0.3046862E+03  0.7818608E-02  0.1082921E+00
          4   -1    0    0  501    0  0.00000000000E+00  0.00000000000E+00  0.39744732511E+02  0.39744732511E+02  0.00000000000E+00 0. -1.
         -4   -1    0    0    0  501 -0.00000000000E+00 -0.00000000000E+00 -0.58393691875E+03  0.58393691875E+03  0.00000000000E+00 0. -1.
         25    1    1    2    0    0 -0.90815217846E+02 -0.23204177918E+02 -0.26236946488E+03  0.30335387547E+03  0.12000000000E+03 0.  0.
         25    1    1    2    0    0  0.90815217846E+02  0.23204177918E+02 -0.28182272136E+03  0.32032777579E+03  0.12000000000E+03 0.  0.
<mgrwt>
<rscale>  0 0.30468618E+03</rscale>
<asrwt>0</asrwt>
<pdfrwt beam="1">  1        4 0.61145746E-02 0.30468618E+03</pdfrwt>
<pdfrwt beam="2">  1       -4 0.89836444E-01 0.30468618E+03</pdfrwt>
<totfact> 0.35654984E+02</totfact>
</mgrwt>
</event>
<event>
 4    1  0.1777979E-004  0.3593382E+03  0.7818608E-02  0.1058846E+00
          2   -1    0    0  501    0  0.00000000000E+00  0.00000000000E+00  0.10155204659E+04  0.10155204659E+04  0.00000000000E+00 0. -1.
         -2   -1    0    0    0  501 -0.00000000000E+00 -0.00000000000E+00 -0.31787628458E+02  0.31787628458E+02  0.00000000000E+00 0. -1.
         25    1    1    2    0    0  0.11454029987E+01  0.88730503275E+02  0.78341688905E+03  0.79750638632E+03  0.12000000000E+03 0.  0.
         25    1    1    2    0    0 -0.11454029987E+01 -0.88730503275E+02  0.20031594836E+03  0.24980170801E+03  0.12000000000E+03 0.  0.
<mgrwt>
<rscale>  0 0.35933821E+03</rscale>
<asrwt>0</asrwt>
<pdfrwt beam="1">  1        2 0.15623389E+00 0.35933821E+03</pdfrwt>
<pdfrwt beam="2">  1       -2 0.48904052E-02 0.35933821E+03</pdfrwt>
<totfact> 0.52244429E+03</totfact>
</mgrwt>
</event>
<event>
 4    1  0.1777979E-004  0.4830184E+03  0.7818608E-02  0.1018309E+00
          2   -1    0    0  501    0  0.00000000000E+00  0.00000000000E+00  0.37119165134E+03  0.37119165134E+03  0.00000000000E+00 0.  1.
         -2   -1    0    0    0  501 -0.00000000000E+00 -0.00000000000E+00 -0.15713362879E+03  0.15713362879E+03  0.00000000000E+00 0.  1.
         25    1    1    2    0    0 -0.20793544645E+03  0.20215350951E+02  0.12536054447E+03  0.27158990485E+03  0.12000000000E+03 0.  0.
         25    1    1    2    0    0  0.20793544645E+03 -0.20215350951E+02  0.88697478085E+02  0.25673537529E+03  0.12000000000E+03 0.  0.
<mgrwt>
<rscale>  0 0.48301839E+03</rscale>
<asrwt>0</asrwt>
<pdfrwt beam="1">  1        2 0.57106408E-01 0.48301839E+03</pdfrwt>
<pdfrwt beam="2">  1       -2 0.24174404E-01 0.48301839E+03</pdfrwt>
<totfact> 0.13156660E+03</totfact>
</mgrwt>
</event>
<event>
 4    1  0.1777979E-004  0.3000447E+03  0.7818608E-02  0.1085218E+00
         -2   -1    0    0    0  501 -0.00000000000E+00  0.00000000000E+00  0.11640601234E+02  0.11640601234E+02  0.00000000000E+00 0.  1.
          2   -1    0    0  501    0  0.00000000000E+00 -0.00000000000E+00 -0.19334656431E+04  0.19334656431E+04  0.00000000000E+00 0.  1.
         25    1    1    2    0    0 -0.49169133693E+02 -0.71401245162E+02 -0.11185054832E+04  0.11282598359E+04  0.12000000000E+03 0.  0.
         25    1    1    2    0    0  0.49169133693E+02  0.71401245162E+02 -0.80331955875E+03  0.81684640844E+03  0.12000000000E+03 0.  0.
<mgrwt>
<rscale>  0 0.30004468E+03</rscale>
<asrwt>0</asrwt>
<pdfrwt beam="1">  1        2 0.29745625E+00 0.30004468E+03</pdfrwt>
<pdfrwt beam="2">  1       -2 0.17908618E-02 0.30004468E+03</pdfrwt>
<totfact> 0.73305178E+03</totfact>
</mgrwt>
</event>
<event>
 4    1  0.1777979E-004  0.4130917E+03  0.7818608E-02  0.1039338E+00
          4   -1    0    0  501    0  0.00000000000E+00  0.00000000000E+00  0.41399755124E+03  0.41399755124E+03  0.00000000000E+00 0.  1.
         -4   -1    0    0    0  501 -0.00000000000E+00 -0.00000000000E+00 -0.10304697549E+03  0.10304697549E+03  0.00000000000E+00 0.  1.
         25    1    1    2    0    0 -0.72631682923E+02 -0.11492053275E+03  0.31700839341E+02  0.18408431065E+03  0.12000000000E+03 0.  0.
         25    1    1    2    0    0  0.72631682923E+02  0.11492053275E+03  0.27924973641E+03  0.33296021609E+03  0.12000000000E+03 0.  0.
<mgrwt>
<rscale>  0 0.41309174E+03</rscale>
<asrwt>0</asrwt>
<pdfrwt beam="1">  1        4 0.63691930E-01 0.41309174E+03</pdfrwt>
<pdfrwt beam="2">  1       -4 0.15853381E-01 0.41309174E+03</pdfrwt>
<totfact> 0.15523848E+02</totfact>
</mgrwt>
</event>
<event>
 4    1  0.1777979E-004  0.2716246E+03  0.7818608E-02  0.1100353E+00
          2   -1    0    0  501    0  0.00000000000E+00  0.00000000000E+00  0.11751152365E+03  0.11751152365E+03  0.00000000000E+00 0. -1.
         -2   -1    0    0    0  501 -0.00000000000E+00 -0.00000000000E+00 -0.15696317411E+03  0.15696317411E+03  0.00000000000E+00 0. -1.
         25    1    1    2    0    0 -0.11865731757E+02  0.55403998582E+02  0.94664535206E+01  0.13304139353E+03  0.12000000000E+03 0.  0.
         25    1    1    2    0    0  0.11865731757E+02 -0.55403998582E+02 -0.48918103981E+02  0.14143330423E+03  0.12000000000E+03 0.  0.
<mgrwt>
<rscale>  0 0.27162461E+03</rscale>
<asrwt>0</asrwt>
<pdfrwt beam="1">  1        2 0.18078696E-01 0.27162461E+03</pdfrwt>
<pdfrwt beam="2">  1       -2 0.24148181E-01 0.27162461E+03</pdfrwt>
<totfact> 0.46886922E+03</totfact>
</mgrwt>
</event>
<event>
 4    1  0.1777979E-004  0.2592193E+03  0.7818608E-02  0.1107613E+00
          2   -1    0    0  501    0  0.00000000000E+00  0.00000000000E+00  0.74172114087E+03  0.74172114087E+03  0.00000000000E+00 0. -1.
         -2   -1    0    0    0  501 -0.00000000000E+00 -0.00000000000E+00 -0.22648217228E+02  0.22648217228E+02  0.00000000000E+00 0. -1.
         25    1    1    2    0    0 -0.31238898085E+01  0.48727017904E+02  0.37079606362E+03  0.39277703823E+03  0.12000000000E+03 0.  0.
         25    1    1    2    0    0  0.31238898085E+01 -0.48727017904E+02  0.34827686002E+03  0.37159231987E+03  0.12000000000E+03 0.  0.
<mgrwt>
<rscale>  0 0.25921930E+03</rscale>
<asrwt>0</asrwt>
<pdfrwt beam="1">  1        2 0.11411093E+00 0.25921930E+03</pdfrwt>
<pdfrwt beam="2">  1       -2 0.34843417E-02 0.25921930E+03</pdfrwt>
<totfact> 0.13119930E+04</totfact>
</mgrwt>
</event>
<event>
 4    1  0.1777979E-004  0.2938771E+03  0.7818608E-02  0.1088342E+00
         -2   -1    0    0    0  501 -0.00000000000E+00  0.00000000000E+00  0.13088813279E+03  0.13088813279E+03  0.00000000000E+00 0. -1.
          2   -1    0    0  501    0  0.00000000000E+00 -0.00000000000E+00 -0.16495717047E+03  0.16495717047E+03  0.00000000000E+00 0. -1.
         25    1    1    2    0    0  0.12968105010E+02 -0.33279244439E+02 -0.94460323355E+02  0.15683887447E+03  0.12000000000E+03 0.  0.
         25    1    1    2    0    0 -0.12968105010E+02  0.33279244439E+02  0.60391285677E+02  0.13900642879E+03  0.12000000000E+03 0.  0.
<mgrwt>
<rscale>  0 0.29387709E+03</rscale>
<asrwt>0</asrwt>
<pdfrwt beam="1">  1        2 0.25378026E-01 0.29387709E+03</pdfrwt>
<pdfrwt beam="2">  1       -2 0.20136636E-01 0.29387709E+03</pdfrwt>
<totfact> 0.43794678E+03</totfact>
</mgrwt>
</event>
<event>
 4    1  0.1777979E-004  0.2773915E+03  0.7818608E-02  0.1097122E+00
         -2   -1    0    0    0  501 -0.00000000000E+00  0.00000000000E+00  0.24168410748E+02  0.24168410748E+02  0.00000000000E+00 0.  1.
          2   -1    0    0  501    0  0.00000000000E+00 -0.00000000000E+00 -0.79593617285E+03  0.79593617285E+03  0.00000000000E+00 0.  1.
         25    1    1    2    0    0  0.18733497423E+02  0.52205268026E+02 -0.50992178582E+03  0.52677942404E+03  0.12000000000E+03 0.  0.
         25    1    1    2    0    0 -0.18733497423E+02 -0.52205268026E+02 -0.26184597628E+03  0.29332515955E+03  0.12000000000E+03 0.  0.
<mgrwt>
<rscale>  0 0.27739151E+03</rscale>
<asrwt>0</asrwt>
<pdfrwt beam="1">  1        2 0.12245171E+00 0.27739151E+03</pdfrwt>
<pdfrwt beam="2">  1       -2 0.37182173E-02 0.27739151E+03</pdfrwt>
<totfact> 0.10925183E+04</totfact>
</mgrwt>
</event>
<event>
 4    1  0.1777979E-004  0.2834407E+03  0.7818608E-02  0.1093824E+00
         -2   -1    0    0    0  501 -0.00000000000E+00  0.00000000000E+00  0.21365851503E+02  0.21365851503E+02  0.00000000000E+00 0. -1.
          2   -1    0    0  501    0  0.00000000000E+00 -0.00000000000E+00 -0.94003511867E+03  0.94003511867E+03  0.00000000000E+00 0. -1.
         25    1    1    2    0    0 -0.44983886064E+02 -0.45256751363E+02 -0.32311183392E+03  0.35053242470E+03  0.12000000000E+03 0.  0.
         25    1    1    2    0    0  0.44983886064E+02  0.45256751363E+02 -0.59555743324E+03  0.61086854547E+03  0.12000000000E+03 0.  0.
<mgrwt>
<rscale>  0 0.28344065E+03</rscale>
<asrwt>0</asrwt>
<pdfrwt beam="1">  1        2 0.14462076E+00 0.28344065E+03</pdfrwt>
<pdfrwt beam="2">  1       -2 0.32870548E-02 0.28344065E+03</pdfrwt>
<totfact> 0.10560194E+04</totfact>
</mgrwt>
</event>
<event>
 4    1  0.1777979E-004  0.2962069E+03  0.7818608E-02  0.1087152E+00
          2   -1    0    0  501    0  0.00000000000E+00  0.00000000000E+00  0.74162864745E+03  0.74162864745E+03  0.00000000000E+00 0. -1.
         -2   -1    0    0    0  501 -0.00000000000E+00 -0.00000000000E+00 -0.29576303461E+02  0.29576303461E+02  0.00000000000E+00 0. -1.
         25    1    1    2    0    0 -0.39915199248E+02 -0.89664672381E+01  0.55535080359E+03  0.56963860097E+03  0.12000000000E+03 0.  0.
         25    1    1    2    0    0  0.39915199248E+02  0.89664672381E+01  0.15670154040E+03  0.20156634994E+03  0.12000000000E+03 0.  0.
<mgrwt>
<rscale>  0 0.29620691E+03</rscale>
<asrwt>0</asrwt>
<pdfrwt beam="1">  1        2 0.11409670E+00 0.29620691E+03</pdfrwt>
<pdfrwt beam="2">  1       -2 0.45502011E-02 0.29620691E+03</pdfrwt>
<totfact> 0.88232419E+03</totfact>
</mgrwt>
</event>
<event>
 4    1  0.1777979E-004  0.4582209E+03  0.7818608E-02  0.1025298E+00
         -1   -1    0    0    0  501 -0.00000000000E+00  0.00000000000E+00  0.36694779645E+02  0.36694779645E+02  0.00000000000E+00 0.  1.
          1   -1    0    0  501    0  0.00000000000E+00 -0.00000000000E+00 -0.14304922516E+04  0.14304922516E+04  0.00000000000E+00 0.  1.
         25    1    1    2    0    0  0.19196964175E+03  0.30269482621E+02 -0.75444545969E+03  0.78826171832E+03  0.12000000000E+03 0.  0.
         25    1    1    2    0    0 -0.19196964175E+03 -0.30269482621E+02 -0.63935201227E+03  0.67892531293E+03  0.12000000000E+03 0.  0.
<mgrwt>
<rscale>  0 0.45822090E+03</rscale>
<asrwt>0</asrwt>
<pdfrwt beam="1">  1        1 0.22007568E+00 0.45822090E+03</pdfrwt>
<pdfrwt beam="2">  1       -1 0.56453521E-02 0.45822090E+03</pdfrwt>
<totfact> 0.11572126E+03</totfact>
</mgrwt>
</event>
<event>
 4    1  0.1777979E-004  0.2736845E+03  0.7818608E-02  0.1099189E+00
          2   -1    0    0  501    0  0.00000000000E+00  0.00000000000E+00  0.15233618427E+04  0.15233618427E+04  0.00000000000E+00 0.  1.
         -2   -1    0    0    0  501 -0.00000000000E+00 -0.00000000000E+00 -0.12292419766E+02  0.12292419766E+02  0.00000000000E+00 0.  1.
         25    1    1    2    0    0  0.57339465036E+02 -0.31934431787E+02  0.73160967523E+03  0.74428511948E+03  0.12000000000E+03 0.  0.
         25    1    1    2    0    0 -0.57339465036E+02  0.31934431787E+02  0.77945974766E+03  0.79136914295E+03  0.12000000000E+03 0.  0.
<mgrwt>
<rscale>  0 0.27368451E+03</rscale>
<asrwt>0</asrwt>
<pdfrwt beam="1">  1        2 0.23436321E+00 0.27368451E+03</pdfrwt>
<pdfrwt beam="2">  1       -2 0.18911427E-02 0.27368451E+03</pdfrwt>
<totfact> 0.11127311E+04</totfact>
</mgrwt>
</event>
<event>
 4    1  0.1777979E-004  0.5757032E+03  0.7818608E-02  0.9957137E-01
          1   -1    0    0  501    0  0.00000000000E+00  0.00000000000E+00  0.47040687921E+03  0.47040687921E+03  0.00000000000E+00 0. -1.
         -1   -1    0    0    0  501 -0.00000000000E+00 -0.00000000000E+00 -0.17614228041E+03  0.17614228041E+03  0.00000000000E+00 0. -1.
         25    1    1    2    0    0 -0.10441634355E+03 -0.15338018465E+03  0.35430652287E+03  0.41756600196E+03  0.12000000000E+03 0.  0.
         25    1    1    2    0    0  0.10441634355E+03  0.15338018465E+03 -0.60041924072E+02  0.22898315766E+03  0.12000000000E+03 0.  0.
<mgrwt>
<rscale>  0 0.57570319E+03</rscale>
<asrwt>0</asrwt>
<pdfrwt beam="1">  1        1 0.72370289E-01 0.57570319E+03</pdfrwt>
<pdfrwt beam="2">  1       -1 0.27098813E-01 0.57570319E+03</pdfrwt>
<totfact> 0.59282850E+02</totfact>
</mgrwt>
</event>
<event>
 4    1  0.1777979E-004  0.2713127E+03  0.7818608E-02  0.1100531E+00
          2   -1    0    0  501    0  0.00000000000E+00  0.00000000000E+00  0.59172088286E+02  0.59172088286E+02  0.00000000000E+00 0. -1.
         -2   -1    0    0    0  501 -0.00000000000E+00 -0.00000000000E+00 -0.31100211352E+03  0.31100211352E+03  0.00000000000E+00 0. -1.
         25    1    1    2    0    0 -0.23507478560E+01 -0.30268604983E+02 -0.50183443741E+02  0.13356680908E+03  0.12000000000E+03 0.  0.
         25    1    1    2    0    0  0.23507478560E+01  0.30268604983E+02 -0.20164658149E+03  0.23660739272E+03  0.12000000000E+03 0.  0.
<mgrwt>
<rscale>  0 0.27131269E+03</rscale>
<asrwt>0</asrwt>
<pdfrwt beam="1">  1        2 0.91033982E-02 0.27131269E+03</pdfrwt>
<pdfrwt beam="2">  1       -2 0.47846479E-01 0.27131269E+03</pdfrwt>
<totfact> 0.30122830E+03</totfact>
</mgrwt>
</event>
<event>
 4    1  0.1777979E-004  0.2480827E+03  0.7818608E-02  0.1114523E+00
          3   -1    0    0  501    0  0.00000000000E+00  0.00000000000E+00  0.23155397522E+02  0.23155397522E+02  0.00000000000E+00 0. -1.
         -3   -1    0    0    0  501 -0.00000000000E+00 -0.00000000000E+00 -0.66447801203E+03  0.66447801203E+03  0.00000000000E+00 0. -1.
         25    1    1    2    0    0  0.15374198729E+02 -0.20416590313E+02 -0.27007711123E+03  0.29663925761E+03  0.12000000000E+03 0.  0.
         25    1    1    2    0    0 -0.15374198729E+02  0.20416590313E+02 -0.37124550328E+03  0.39099415194E+03  0.12000000000E+03 0.  0.
<mgrwt>
<rscale>  0 0.24808267E+03</rscale>
<asrwt>0</asrwt>
<pdfrwt beam="1">  1        3 0.35623684E-02 0.24808267E+03</pdfrwt>
<pdfrwt beam="2">  1       -3 0.10222740E+00 0.24808267E+03</pdfrwt>
<totfact> 0.84185731E+02</totfact>
</mgrwt>
</event>
<event>
 4    1  0.1777979E-004  0.2512605E+03  0.7818608E-02  0.1112511E+00
         -3   -1    0    0    0  501 -0.00000000000E+00  0.00000000000E+00  0.49436752251E+03  0.49436752251E+03  0.00000000000E+00 0. -1.
          3   -1    0    0  501    0  0.00000000000E+00 -0.00000000000E+00 -0.31925565001E+02  0.31925565001E+02  0.00000000000E+00 0. -1.
         25    1    1    2    0    0 -0.20864637162E+02 -0.23390723348E+02  0.27313955658E+03  0.29997945995E+03  0.12000000000E+03 0.  0.
         25    1    1    2    0    0  0.20864637162E+02  0.23390723348E+02  0.18930240092E+03  0.22631362755E+03  0.12000000000E+03 0.  0.
<mgrwt>
<rscale>  0 0.25126052E+03</rscale>
<asrwt>0</asrwt>
<pdfrwt beam="1">  1        3 0.49116257E-02 0.25126052E+03</pdfrwt>
<pdfrwt beam="2">  1       -3 0.76056537E-01 0.25126052E+03</pdfrwt>
<totfact> 0.98252217E+02</totfact>
</mgrwt>
</event>
<event>
 4    1  0.1777979E-004  0.2976639E+03  0.7818608E-02  0.1086414E+00
          2   -1    0    0  501    0  0.00000000000E+00  0.00000000000E+00  0.91126175732E+03  0.91126175732E+03  0.00000000000E+00 0. -1.
         -2   -1    0    0    0  501 -0.00000000000E+00 -0.00000000000E+00 -0.24308000196E+02  0.24308000196E+02  0.00000000000E+00 0. -1.
         25    1    1    2    0    0 -0.57856832203E+02  0.46688592876E+02  0.29526282612E+03  0.32727262982E+03  0.12000000000E+03 0.  0.
         25    1    1    2    0    0  0.57856832203E+02 -0.46688592876E+02  0.59169093100E+03  0.60829712770E+03  0.12000000000E+03 0.  0.
<mgrwt>
<rscale>  0 0.29766391E+03</rscale>
<asrwt>0</asrwt>
<pdfrwt beam="1">  1        2 0.14019409E+00 0.29766391E+03</pdfrwt>
<pdfrwt beam="2">  1       -2 0.37396930E-02 0.29766391E+03</pdfrwt>
<totfact> 0.90916638E+03</totfact>
</mgrwt>
</event>
<event>
 4    1  0.1777979E-004  0.2591349E+03  0.7818608E-02  0.1107664E+00
         -2   -1    0    0    0  501 -0.00000000000E+00  0.00000000000E+00  0.59053239737E+03  0.59053239737E+03  0.00000000000E+00 0. -1.
          2   -1    0    0  501    0  0.00000000000E+00 -0.00000000000E+00 -0.28428124379E+02  0.28428124379E+02  0.00000000000E+00 0. -1.
         25    1    1    2    0    0 -0.54215540821E+01  0.26391465432E+02  0.37842315844E+03  0.39790701117E+03  0.12000000000E+03 0.  0.
         25    1    1    2    0    0  0.54215540821E+01 -0.26391465432E+02  0.18368111456E+03  0.22105351058E+03  0.12000000000E+03 0.  0.
<mgrwt>
<rscale>  0 0.25913493E+03</rscale>
<asrwt>0</asrwt>
<pdfrwt beam="1">  1        2 0.43735581E-02 0.25913493E+03</pdfrwt>
<pdfrwt beam="2">  1       -2 0.90851129E-01 0.25913493E+03</pdfrwt>
<totfact> 0.20034313E+03</totfact>
</mgrwt>
</event>
<event>
 4    1  0.1777979E-004  0.3003183E+03  0.7818608E-02  0.1085082E+00
          1   -1    0    0  501    0  0.00000000000E+00  0.00000000000E+00  0.10715297631E+03  0.10715297631E+03  0.00000000000E+00 0.  1.
         -1   -1    0    0    0  501 -0.00000000000E+00 -0.00000000000E+00 -0.21042601496E+03  0.21042601496E+03  0.00000000000E+00 0.  1.
         25    1    1    2    0    0  0.45817376445E+01 -0.86880455686E+02 -0.77072418801E+02  0.16706095786E+03  0.12000000000E+03 0.  0.
         25    1    1    2    0    0 -0.45817376445E+01  0.86880455686E+02 -0.26200619850E+02  0.15051803341E+03  0.12000000000E+03 0.  0.
<mgrwt>
<rscale>  0 0.30031832E+03</rscale>
<asrwt>0</asrwt>
<pdfrwt beam="1">  1        1 0.16485074E-01 0.30031832E+03</pdfrwt>
<pdfrwt beam="2">  1       -1 0.32373232E-01 0.30031832E+03</pdfrwt>
<totfact> 0.29438514E+03</totfact>
</mgrwt>
</event>
<event>
 4    1  0.1777979E-004  0.3028412E+03  0.7818608E-02  0.1083829E+00
         -2   -1    0    0    0  501 -0.00000000000E+00  0.00000000000E+00  0.13429840083E+02  0.13429840083E+02  0.00000000000E+00 0. -1.
          2   -1    0    0  501    0  0.00000000000E+00 -0.00000000000E+00 -0.17072573420E+04  0.17072573420E+04  0.00000000000E+00 0. -1.
         25    1    1    2    0    0  0.78119906933E+02 -0.44731143231E+02 -0.96399194381E+03  0.97559421009E+03  0.12000000000E+03 0.  0.
         25    1    1    2    0    0 -0.78119906933E+02  0.44731143231E+02 -0.72983555812E+03  0.74509297200E+03  0.12000000000E+03 0.  0.
<mgrwt>
<rscale>  0 0.30284117E+03</rscale>
<asrwt>0</asrwt>
<pdfrwt beam="1">  1        2 0.26265486E+00 0.30284117E+03</pdfrwt>
<pdfrwt beam="2">  1       -2 0.20661302E-02 0.30284117E+03</pdfrwt>
<totfact> 0.78137994E+03</totfact>
</mgrwt>
</event>
<event>
 4    1  0.1777979E-004  0.2905201E+03  0.7818608E-02  0.1090078E+00
          1   -1    0    0  501    0  0.00000000000E+00  0.00000000000E+00  0.15874904757E+03  0.15874904757E+03  0.00000000000E+00 0.  1.
         -1   -1    0    0    0  501 -0.00000000000E+00 -0.00000000000E+00 -0.13291719764E+03  0.13291719764E+03  0.00000000000E+00 0.  1.
         25    1    1    2    0    0  0.76082812420E+02  0.11330875525E+02 -0.15185494700E+02  0.14334427905E+03  0.12000000000E+03 0.  0.
         25    1    1    2    0    0 -0.76082812420E+02 -0.11330875525E+02  0.41017344638E+02  0.14832196616E+03  0.12000000000E+03 0.  0.
<mgrwt>
<rscale>  0 0.29052008E+03</rscale>
<asrwt>0</asrwt>
<pdfrwt beam="1">  1        1 0.24422930E-01 0.29052008E+03</pdfrwt>
<pdfrwt beam="2">  1       -1 0.20448800E-01 0.29052008E+03</pdfrwt>
<totfact> 0.38198767E+03</totfact>
</mgrwt>
</event>
<event>
 4    1  0.1777979E-004  0.2960826E+03  0.7818608E-02  0.1087215E+00
          2   -1    0    0  501    0  0.00000000000E+00  0.00000000000E+00  0.30147690569E+04  0.30147690569E+04  0.00000000000E+00 0.  1.
         -2   -1    0    0    0  501 -0.00000000000E+00 -0.00000000000E+00 -0.72696223399E+01  0.72696223399E+01  0.00000000000E+00 0.  1.
         25    1    1    2    0    0 -0.49975456744E+02  0.90900049351E+01  0.22208455546E+04  0.22246651775E+04  0.12000000000E+03 0.  0.
         25    1    1    2    0    0  0.49975456744E+02 -0.90900049351E+01  0.78665387995E+03  0.79737350176E+03  0.12000000000E+03 0.  0.
<mgrwt>
<rscale>  0 0.29608264E+03</rscale>
<asrwt>0</asrwt>
<pdfrwt beam="1">  1        2 0.46380963E+00 0.29608264E+03</pdfrwt>
<pdfrwt beam="2">  1       -2 0.11184058E-02 0.29608264E+03</pdfrwt>
<totfact> 0.36930993E+03</totfact>
</mgrwt>
</event>
<event>
 4    1  0.1777979E-004  0.3893512E+03  0.7818608E-02  0.1047531E+00
         -2   -1    0    0    0  501 -0.00000000000E+00  0.00000000000E+00  0.15812735816E+03  0.15812735816E+03  0.00000000000E+00 0. -1.
          2   -1    0    0  501    0  0.00000000000E+00 -0.00000000000E+00 -0.23967130243E+03  0.23967130243E+03  0.00000000000E+00 0. -1.
         25    1    1    2    0    0 -0.12053923376E+03 -0.51077220944E+02 -0.12225185018E+03  0.21560172599E+03  0.12000000000E+03 0.  0.
         25    1    1    2    0    0  0.12053923376E+03  0.51077220944E+02  0.40707905917E+02  0.18219693461E+03  0.12000000000E+03 0.  0.
<mgrwt>
<rscale>  0 0.38935120E+03</rscale>
<asrwt>0</asrwt>
<pdfrwt beam="1">  1        2 0.36872508E-01 0.38935120E+03</pdfrwt>
<pdfrwt beam="2">  1       -2 0.24327286E-01 0.38935120E+03</pdfrwt>
<totfact> 0.20974147E+03</totfact>
</mgrwt>
</event>
<event>
 4    1  0.1777979E-004  0.2543788E+03  0.7818608E-02  0.1110568E+00
         -1   -1    0    0    0  501 -0.00000000000E+00  0.00000000000E+00  0.58039047542E+01  0.58039047542E+01  0.00000000000E+00 0. -1.
          1   -1    0    0  501    0  0.00000000000E+00 -0.00000000000E+00 -0.27872863379E+04  0.27872863379E+04  0.00000000000E+00 0. -1.
         25    1    1    2    0    0 -0.12298855422E+02  0.39436960911E+02 -0.14830053998E+04  0.14884258636E+04  0.12000000000E+03 0.  0.
         25    1    1    2    0    0  0.12298855422E+02 -0.39436960911E+02 -0.12984770334E+04  0.13046643791E+04  0.12000000000E+03 0.  0.
<mgrwt>
<rscale>  0 0.25437881E+03</rscale>
<asrwt>0</asrwt>
<pdfrwt beam="1">  1        1 0.42881271E+00 0.25437881E+03</pdfrwt>
<pdfrwt beam="2">  1       -1 0.89290962E-03 0.25437881E+03</pdfrwt>
<totfact> 0.22533631E+03</totfact>
</mgrwt>
</event>
<event>
 4    1  0.1777979E-004  0.3006302E+03  0.7818608E-02  0.1084926E+00
         -2   -1    0    0    0  501 -0.00000000000E+00  0.00000000000E+00  0.88621530118E+02  0.88621530118E+02  0.00000000000E+00 0. -1.
          2   -1    0    0  501    0  0.00000000000E+00 -0.00000000000E+00 -0.25495635678E+03  0.25495635678E+03  0.00000000000E+00 0. -1.
         25    1    1    2    0    0  0.69775482522E+02  0.55433812623E+02 -0.10134918017E+03  0.18059120096E+03  0.12000000000E+03 0.  0.
         25    1    1    2    0    0 -0.69775482522E+02 -0.55433812623E+02 -0.64985646492E+02  0.16298668594E+03  0.12000000000E+03 0.  0.
<mgrwt>
<rscale>  0 0.30063015E+03</rscale>
<asrwt>0</asrwt>
<pdfrwt beam="1">  1        2 0.39224055E-01 0.30063015E+03</pdfrwt>
<pdfrwt beam="2">  1       -2 0.13634082E-01 0.30063015E+03</pdfrwt>
<totfact> 0.52216977E+03</totfact>
</mgrwt>
</event>
<event>
 4    1  0.1777979E-004  0.2474617E+03  0.7818608E-02  0.1114920E+00
          2   -1    0    0  501    0  0.00000000000E+00  0.00000000000E+00  0.22721933425E+04  0.22721933425E+04  0.00000000000E+00 0. -1.
         -2   -1    0    0    0  501 -0.00000000000E+00 -0.00000000000E+00 -0.67376833927E+01  0.67376833927E+01  0.00000000000E+00 0. -1.
         25    1    1    2    0    0 -0.69667767713E+01  0.26154307376E+02  0.10102985669E+04  0.10177601771E+04  0.12000000000E+03 0.  0.
         25    1    1    2    0    0  0.69667767713E+01 -0.26154307376E+02  0.12551570921E+04  0.12611708487E+04  0.12000000000E+03 0.  0.
<mgrwt>
<rscale>  0 0.24746167E+03</rscale>
<asrwt>0</asrwt>
<pdfrwt beam="1">  1        2 0.34956760E+00 0.24746167E+03</pdfrwt>
<pdfrwt beam="2">  1       -2 0.10365685E-02 0.24746167E+03</pdfrwt>
<totfact> 0.10766003E+04</totfact>
</mgrwt>
</event>
<event>
 4    1  0.1777979E-004  0.2706750E+03  0.7818608E-02  0.1100894E+00
          1   -1    0    0  501    0  0.00000000000E+00  0.00000000000E+00  0.83806847408E+03  0.83806847408E+03  0.00000000000E+00 0.  1.
         -1   -1    0    0    0  501 -0.00000000000E+00 -0.00000000000E+00 -0.21855309237E+02  0.21855309237E+02  0.00000000000E+00 0.  1.
         25    1    1    2    0    0  0.51071661687E+02 -0.22867817169E+02  0.31909533319E+03  0.34547515591E+03  0.12000000000E+03 0.  0.
         25    1    1    2    0    0 -0.51071661687E+02  0.22867817169E+02  0.49711783165E+03  0.51444862740E+03  0.12000000000E+03 0.  0.
<mgrwt>
<rscale>  0 0.27067505E+03</rscale>
<asrwt>0</asrwt>
<pdfrwt beam="1">  1        1 0.12893359E+00 0.27067505E+03</pdfrwt>
<pdfrwt beam="2">  1       -1 0.33623559E-02 0.27067505E+03</pdfrwt>
<totfact> 0.68080307E+03</totfact>
</mgrwt>
</event>
<event>
 4    1  0.1777979E-004  0.2452625E+03  0.7818608E-02  0.1116336E+00
         -1   -1    0    0    0  501 -0.00000000000E+00  0.00000000000E+00  0.10031152342E+03  0.10031152342E+03  0.00000000000E+00 0.  1.
          1   -1    0    0  501    0  0.00000000000E+00 -0.00000000000E+00 -0.14991718135E+03  0.14991718135E+03  0.00000000000E+00 0.  1.
         25    1    1    2    0    0  0.65078536312E+01  0.34128936194E+01 -0.13852497916E+00  0.12022486927E+03  0.12000000000E+03 0.  0.
         25    1    1    2    0    0 -0.65078536312E+01 -0.34128936194E+01 -0.49467132946E+02  0.13000383550E+03  0.12000000000E+03 0.  0.
<mgrwt>
<rscale>  0 0.24526248E+03</rscale>
<asrwt>0</asrwt>
<pdfrwt beam="1">  1        1 0.23064182E-01 0.24526248E+03</pdfrwt>
<pdfrwt beam="2">  1       -1 0.15432542E-01 0.24526248E+03</pdfrwt>
<totfact> 0.64245082E+03</totfact>
</mgrwt>
</event>
<event>
 4    1  0.1777979E-004  0.2711768E+03  0.7818608E-02  0.1100608E+00
         -2   -1    0    0    0  501 -0.00000000000E+00  0.00000000000E+00  0.34043199431E+02  0.34043199431E+02  0.00000000000E+00 0. -1.
          2   -1    0    0  501    0  0.00000000000E+00 -0.00000000000E+00 -0.54002613518E+03  0.54002613518E+03  0.00000000000E+00 0. -1.
         25    1    1    2    0    0  0.23568630259E+02 -0.34277140217E+02 -0.15249035127E+03  0.19845329402E+03  0.12000000000E+03 0.  0.
         25    1    1    2    0    0 -0.23568630259E+02  0.34277140217E+02 -0.35349258448E+03  0.37561604060E+03  0.12000000000E+03 0.  0.
<mgrwt>
<rscale>  0 0.27117682E+03</rscale>
<asrwt>0</asrwt>
<pdfrwt beam="1">  1        2 0.83080942E-01 0.27117682E+03</pdfrwt>
<pdfrwt beam="2">  1       -2 0.52374154E-02 0.27117682E+03</pdfrwt>
<totfact> 0.10336072E+04</totfact>
</mgrwt>
</event>
<event>
 4    1  0.1777979E-004  0.2600364E+03  0.7818608E-02  0.1107121E+00
         -2   -1    0    0    0  501 -0.00000000000E+00  0.00000000000E+00  0.39167005809E+02  0.39167005809E+02  0.00000000000E+00 0.  1.
          2   -1    0    0  501    0  0.00000000000E+00 -0.00000000000E+00 -0.43160636561E+03  0.43160636561E+03  0.00000000000E+00 0.  1.
         25    1    1    2    0    0  0.45477327241E+02  0.38891968238E+01 -0.15905475687E+03  0.20440579451E+03  0.12000000000E+03 0.  0.
         25    1    1    2    0    0 -0.45477327241E+02 -0.38891968238E+01 -0.23338460293E+03  0.26636757691E+03  0.12000000000E+03 0.  0.
<mgrwt>
<rscale>  0 0.26003637E+03</rscale>
<asrwt>0</asrwt>
<pdfrwt beam="1">  1        2 0.66400978E-01 0.26003637E+03</pdfrwt>
<pdfrwt beam="2">  1       -2 0.60256934E-02 0.26003637E+03</pdfrwt>
<totfact> 0.10686369E+04</totfact>
</mgrwt>
</event>
<event>
 4    1  0.1777979E-004  0.2679413E+03  0.7818608E-02  0.1102464E+00
         -1   -1    0    0    0  501 -0.00000000000E+00  0.00000000000E+00  0.13800276474E+02  0.13800276474E+02  0.00000000000E+00 0.  1.
          1   -1    0    0  501    0  0.00000000000E+00 -0.00000000000E+00 -0.13005637245E+04  0.13005637245E+04  0.00000000000E+00 0.  1.
         25    1    1    2    0    0  0.42077063550E+02 -0.41363759001E+02 -0.60331940832E+03  0.61796096017E+03  0.12000000000E+03 0.  0.
         25    1    1    2    0    0 -0.42077063550E+02  0.41363759001E+02 -0.68344403971E+03  0.69640304081E+03  0.12000000000E+03 0.  0.
<mgrwt>
<rscale>  0 0.26794133E+03</rscale>
<asrwt>0</asrwt>
<pdfrwt beam="1">  1        1 0.20008682E+00 0.26794133E+03</pdfrwt>
<pdfrwt beam="2">  1       -1 0.21231185E-02 0.26794133E+03</pdfrwt>
<totfact> 0.61205133E+03</totfact>
</mgrwt>
</event>
<event>
 4    1  0.1777979E-004  0.2533962E+03  0.7818608E-02  0.1111177E+00
         -1   -1    0    0    0  501 -0.00000000000E+00  0.00000000000E+00  0.26358520436E+03  0.26358520436E+03  0.00000000000E+00 0.  1.
          1   -1    0    0  501    0  0.00000000000E+00 -0.00000000000E+00 -0.60900254311E+02  0.60900254311E+02  0.00000000000E+00 0.  1.
         25    1    1    2    0    0 -0.27239117768E+02 -0.23972026583E+02  0.12480752821E+03  0.17689982107E+03  0.12000000000E+03 0.  0.
         25    1    1    2    0    0  0.27239117768E+02  0.23972026583E+02  0.77877421840E+02  0.14758563761E+03  0.12000000000E+03 0.  0.
<mgrwt>
<rscale>  0 0.25339618E+03</rscale>
<asrwt>0</asrwt>
<pdfrwt beam="1">  1        1 0.93692701E-02 0.25339618E+03</pdfrwt>
<pdfrwt beam="2">  1       -1 0.40551569E-01 0.25339618E+03</pdfrwt>
<totfact> 0.41844748E+03</totfact>
</mgrwt>
</event>
<event>
 4    1  0.1777979E-004  0.2574220E+03  0.7818608E-02  0.1108702E+00
          2   -1    0    0  501    0  0.00000000000E+00  0.00000000000E+00  0.10266698426E+04  0.10266698426E+04  0.00000000000E+00 0.  1.
         -2   -1    0    0    0  501 -0.00000000000E+00 -0.00000000000E+00 -0.16136168427E+02  0.16136168427E+02  0.00000000000E+00 0.  1.
         25    1    1    2    0    0  0.86035263284E+01  0.45580693732E+02  0.48963139661E+03  0.50625144430E+03  0.12000000000E+03 0.  0.
         25    1    1    2    0    0 -0.86035263284E+01 -0.45580693732E+02  0.52090227751E+03  0.53655456668E+03  0.12000000000E+03 0.  0.
<mgrwt>
<rscale>  0 0.25742197E+03</rscale>
<asrwt>0</asrwt>
<pdfrwt beam="1">  1        2 0.15794916E+00 0.25742197E+03</pdfrwt>
<pdfrwt beam="2">  1       -2 0.24824883E-02 0.25742197E+03</pdfrwt>
<totfact> 0.14121959E+04</totfact>
</mgrwt>
</event>
<event>
 4    1  0.1777979E-004  0.2588397E+03  0.7818608E-02  0.1107842E+00
         -2   -1    0    0    0  501 -0.00000000000E+00  0.00000000000E+00  0.15365618533E+02  0.15365618533E+02  0.00000000000E+00 0.  1.
          2   -1    0    0  501    0  0.00000000000E+00 -0.00000000000E+00 -0.10900635274E+04  0.10900635274E+04  0.00000000000E+00 0.  1.
         25    1    1    2    0    0  0.39989820737E+02  0.24049453129E+02 -0.48134916378E+03  0.49827159203E+03  0.12000000000E+03 0.  0.
         25    1    1    2    0    0 -0.39989820737E+02 -0.24049453129E+02 -0.59334874509E+03  0.60715755390E+03  0.12000000000E+03 0.  0.
<mgrwt>
<rscale>  0 0.25883972E+03</rscale>
<asrwt>0</asrwt>
<pdfrwt beam="1">  1        2 0.16770215E+00 0.25883972E+03</pdfrwt>
<pdfrwt beam="2">  1       -2 0.23639403E-02 0.25883972E+03</pdfrwt>
<totfact> 0.13918435E+04</totfact>
</mgrwt>
</event>
<event>
 4    1  0.1777979E-004  0.3009068E+03  0.7818608E-02  0.1084788E+00
         -2   -1    0    0    0  501 -0.00000000000E+00  0.00000000000E+00  0.32473476515E+03  0.32473476515E+03  0.00000000000E+00 0. -1.
          2   -1    0    0  501    0  0.00000000000E+00 -0.00000000000E+00 -0.69706791052E+02  0.69706791052E+02  0.00000000000E+00 0. -1.
         25    1    1    2    0    0 -0.88762221235E+02 -0.15475449564E+02  0.14175320529E+03  0.20642720912E+03  0.12000000000E+03 0.  0.
         25    1    1    2    0    0  0.88762221235E+02  0.15475449564E+02  0.11327476881E+03  0.18801434708E+03  0.12000000000E+03 0.  0.
<mgrwt>
<rscale>  0 0.30090675E+03</rscale>
<asrwt>0</asrwt>
<pdfrwt beam="1">  1        2 0.10724122E-01 0.30090675E+03</pdfrwt>
<pdfrwt beam="2">  1       -2 0.49959194E-01 0.30090675E+03</pdfrwt>
<totfact> 0.22602328E+03</totfact>
</mgrwt>
</event>
<event>
 4    1  0.1777979E-004  0.3316626E+03  0.7818608E-02  0.1070404E+00
          4   -1    0    0  501    0  0.00000000000E+00  0.00000000000E+00  0.17868697354E+03  0.17868697354E+03  0.00000000000E+00 0.  1.
         -4   -1    0    0    0  501 -0.00000000000E+00 -0.00000000000E+00 -0.15390054884E+03  0.15390054884E+03  0.00000000000E+00 0.  1.
         25    1    1    2    0    0 -0.10754534119E+03 -0.35660627041E+02 -0.38489484268E+01  0.16508329757E+03  0.12000000000E+03 0.  0.
         25    1    1    2    0    0  0.10754534119E+03  0.35660627041E+02  0.28635373130E+02  0.16750422481E+03  0.12000000000E+03 0.  0.
<mgrwt>
<rscale>  0 0.33166262E+03</rscale>
<asrwt>0</asrwt>
<pdfrwt beam="1">  1        4 0.27490304E-01 0.33166262E+03</pdfrwt>
<pdfrwt beam="2">  1       -4 0.23677008E-01 0.33166262E+03</pdfrwt>
<totfact> 0.39808389E+02</totfact>
</mgrwt>
</event>
<event>
 4    1  0.1777979E-004  0.2564389E+03  0.7818608E-02  0.1109302E+00
         -2   -1    0    0    0  501 -0.00000000000E+00  0.00000000000E+00  0.23685863689E+03  0.23685863689E+03  0.00000000000E+00 0.  1.
          2   -1    0    0  501    0  0.00000000000E+00 -0.00000000000E+00 -0.69409429199E+02  0.69409429199E+02  0.00000000000E+00 0.  1.
         25    1    1    2    0    0 -0.22224074341E+02  0.39069591611E+02  0.89049725535E+02  0.15604549364E+03  0.12000000000E+03 0.  0.
         25    1    1    2    0    0  0.22224074341E+02 -0.39069591611E+02  0.78399482152E+02  0.15022257244E+03  0.12000000000E+03 0.  0.
<mgrwt>
<rscale>  0 0.25643886E+03</rscale>
<asrwt>0</asrwt>
<pdfrwt beam="1">  1        2 0.10678374E-01 0.25643886E+03</pdfrwt>
<pdfrwt beam="2">  1       -2 0.36439790E-01 0.25643886E+03</pdfrwt>
<totfact> 0.41647864E+03</totfact>
</mgrwt>
</event>
<event>
 4    1  0.1777979E-004  0.2546930E+03  0.7818608E-02  0.1110374E+00
          3   -1    0    0  501    0  0.00000000000E+00  0.00000000000E+00  0.10800080797E+03  0.10800080797E+03  0.00000000000E+00 0. -1.
         -3   -1    0    0    0  501 -0.00000000000E+00 -0.00000000000E+00 -0.15015744932E+03  0.15015744932E+03  0.00000000000E+00 0. -1.
         25    1    1    2    0    0  0.39741373218E+02 -0.14478166259E+02 -0.15702213832E+02  0.12820122294E+03  0.12000000000E+03 0.  0.
         25    1    1    2    0    0 -0.39741373218E+02  0.14478166259E+02 -0.26454427517E+02  0.12995703436E+03  0.12000000000E+03 0.  0.
<mgrwt>
<rscale>  0 0.25469296E+03</rscale>
<asrwt>0</asrwt>
<pdfrwt beam="1">  1        3 0.16615509E-01 0.25469296E+03</pdfrwt>
<pdfrwt beam="2">  1       -3 0.23101146E-01 0.25469296E+03</pdfrwt>
<totfact> 0.13596259E+03</totfact>
</mgrwt>
</event>
<event>
 4    1  0.1777979E-004  0.2530060E+03  0.7818608E-02  0.1111420E+00
          2   -1    0    0  501    0  0.00000000000E+00  0.00000000000E+00  0.76721301541E+03  0.76721301541E+03  0.00000000000E+00 0.  1.
         -2   -1    0    0    0  501 -0.00000000000E+00 -0.00000000000E+00 -0.20858618433E+02  0.20858618433E+02  0.00000000000E+00 0.  1.
         25    1    1    2    0    0 -0.36386996960E+02  0.14388517818E+01  0.42501085875E+03  0.44312561864E+03  0.12000000000E+03 0.  0.
         25    1    1    2    0    0  0.36386996960E+02 -0.14388517818E+01  0.32134353823E+03  0.34494601520E+03  0.12000000000E+03 0.  0.
<mgrwt>
<rscale>  0 0.25300596E+03</rscale>
<asrwt>0</asrwt>
<pdfrwt beam="1">  1        2 0.11803275E+00 0.25300596E+03</pdfrwt>
<pdfrwt beam="2">  1       -2 0.32090188E-02 0.25300596E+03</pdfrwt>
<totfact> 0.14209916E+04</totfact>
</mgrwt>
</event>
<event>
 4    1  0.1777979E-004  0.2605217E+03  0.7818608E-02  0.1106830E+00
          2   -1    0    0  501    0  0.00000000000E+00  0.00000000000E+00  0.48367103076E+02  0.48367103076E+02  0.00000000000E+00 0.  1.
         -2   -1    0    0    0  501 -0.00000000000E+00 -0.00000000000E+00 -0.35081472972E+03  0.35081472972E+03  0.00000000000E+00 0.  1.
         25    1    1    2    0    0  0.42805847930E+02  0.91369965671E+01 -0.11209714295E+03  0.16994585838E+03  0.12000000000E+03 0.  0.
         25    1    1    2    0    0 -0.42805847930E+02 -0.91369965671E+01 -0.19035048370E+03  0.22923597442E+03  0.12000000000E+03 0.  0.
<mgrwt>
<rscale>  0 0.26052172E+03</rscale>
<asrwt>0</asrwt>
<pdfrwt beam="1">  1        2 0.74410928E-02 0.26052172E+03</pdfrwt>
<pdfrwt beam="2">  1       -2 0.53971497E-01 0.26052172E+03</pdfrwt>
<totfact> 0.30519804E+03</totfact>
</mgrwt>
</event>
<event>
 4    1  0.1777979E-004  0.2493778E+03  0.7818608E-02  0.1113699E+00
         -1   -1    0    0    0  501 -0.00000000000E+00  0.00000000000E+00  0.94498450298E+02  0.94498450298E+02  0.00000000000E+00 0.  1.
          1   -1    0    0  501    0  0.00000000000E+00 -0.00000000000E+00 -0.16452466657E+03  0.16452466657E+03  0.00000000000E+00 0.  1.
         25    1    1    2    0    0 -0.10389123830E+02  0.28560440967E+02 -0.50547963276E+02  0.13371136554E+03  0.12000000000E+03 0.  0.
         25    1    1    2    0    0  0.10389123830E+02 -0.28560440967E+02 -0.19478252996E+02  0.12531175133E+03  0.12000000000E+03 0.  0.
<mgrwt>
<rscale>  0 0.24937783E+03</rscale>
<asrwt>0</asrwt>
<pdfrwt beam="1">  1        1 0.25311487E-01 0.24937783E+03</pdfrwt>
<pdfrwt beam="2">  1       -1 0.14538223E-01 0.24937783E+03</pdfrwt>
<totfact> 0.62778560E+03</totfact>
</mgrwt>
</event>
<event>
 4    1  0.1777979E-004  0.2407799E+03  0.7818608E-02  0.1119274E+00
         -1   -1    0    0    0  501 -0.00000000000E+00  0.00000000000E+00  0.75105466554E+02  0.75105466554E+02  0.00000000000E+00 0. -1.
          1   -1    0    0  501    0  0.00000000000E+00 -0.00000000000E+00 -0.19297842538E+03  0.19297842538E+03  0.00000000000E+00 0. -1.
         25    1    1    2    0    0  0.14675525089E+01 -0.95688315935E+01 -0.59087607672E+02  0.13410839507E+03  0.12000000000E+03 0.  0.
         25    1    1    2    0    0 -0.14675525089E+01  0.95688315935E+01 -0.58785351150E+02  0.13397549686E+03  0.12000000000E+03 0.  0.
<mgrwt>
<rscale>  0 0.24077986E+03</rscale>
<asrwt>0</asrwt>
<pdfrwt beam="1">  1        1 0.29688988E-01 0.24077986E+03</pdfrwt>
<pdfrwt beam="2">  1       -1 0.11554687E-01 0.24077986E+03</pdfrwt>
<totfact> 0.73440028E+03</totfact>
</mgrwt>
</event>
<event>
 4    1  0.1777979E-004  0.3966933E+03  0.7818608E-02  0.1044931E+00
         -2   -1    0    0    0  501 -0.00000000000E+00  0.00000000000E+00  0.70494340990E+02  0.70494340990E+02  0.00000000000E+00 0.  1.
          2   -1    0    0  501    0  0.00000000000E+00 -0.00000000000E+00 -0.55807860835E+03  0.55807860835E+03  0.00000000000E+00 0.  1.
         25    1    1    2    0    0 -0.12036363252E+03 -0.61285781887E+02 -0.11411168476E+03  0.21369330288E+03  0.12000000000E+03 0.  0.
         25    1    1    2    0    0  0.12036363252E+03  0.61285781887E+02 -0.37347258260E+03  0.41487964647E+03  0.12000000000E+03 0.  0.
<mgrwt>
<rscale>  0 0.39669325E+03</rscale>
<asrwt>0</asrwt>
<pdfrwt beam="1">  1        2 0.85858249E-01 0.39669325E+03</pdfrwt>
<pdfrwt beam="2">  1       -2 0.10845283E-01 0.39669325E+03</pdfrwt>
<totfact> 0.32160075E+03</totfact>
</mgrwt>
</event>
<event>
 4    1  0.1777979E-004  0.3259565E+03  0.7818608E-02  0.1072940E+00
         -1   -1    0    0    0  501 -0.00000000000E+00  0.00000000000E+00  0.69775520059E+02  0.69775520059E+02  0.00000000000E+00 0.  1.
          1   -1    0    0  501    0  0.00000000000E+00 -0.00000000000E+00 -0.38067655847E+03  0.38067655847E+03  0.00000000000E+00 0.  1.
         25    1    1    2    0    0  0.66366790699E+02  0.87299404760E+02 -0.17157650604E+03  0.23635616007E+03  0.12000000000E+03 0.  0.
         25    1    1    2    0    0 -0.66366790699E+02 -0.87299404760E+02 -0.13932453237E+03  0.21409591845E+03  0.12000000000E+03 0.  0.
<mgrwt>
<rscale>  0 0.32595647E+03</rscale>
<asrwt>0</asrwt>
<pdfrwt beam="1">  1        1 0.58565623E-01 0.32595647E+03</pdfrwt>
<pdfrwt beam="2">  1       -1 0.10734696E-01 0.32595647E+03</pdfrwt>
<totfact> 0.35286234E+03</totfact>
</mgrwt>
</event>
<event>
 4    1  0.1777979E-004  0.3027949E+03  0.7818608E-02  0.1083852E+00
         -2   -1    0    0    0  501 -0.00000000000E+00  0.00000000000E+00  0.38140226795E+02  0.38140226795E+02  0.00000000000E+00 0.  1.
          2   -1    0    0  501    0  0.00000000000E+00 -0.00000000000E+00 -0.60097134235E+03  0.60097134235E+03  0.00000000000E+00 0.  1.
         25    1    1    2    0    0 -0.40920427871E+02 -0.49673335674E+02 -0.14173736380E+03  0.19654872676E+03  0.12000000000E+03 0.  0.
         25    1    1    2    0    0  0.40920427871E+02  0.49673335674E+02 -0.42109375175E+03  0.44256284238E+03  0.12000000000E+03 0.  0.
<mgrwt>
<rscale>  0 0.30279487E+03</rscale>
<asrwt>0</asrwt>
<pdfrwt beam="1">  1        2 0.92457129E-01 0.30279487E+03</pdfrwt>
<pdfrwt beam="2">  1       -2 0.58677273E-02 0.30279487E+03</pdfrwt>
<totfact> 0.77112598E+03</totfact>
</mgrwt>
</event>
<event>
 4    1  0.1777979E-004  0.2870146E+03  0.7818608E-02  0.1091918E+00
          2   -1    0    0  501    0  0.00000000000E+00  0.00000000000E+00  0.12894826996E+04  0.12894826996E+04  0.00000000000E+00 0. -1.
         -2   -1    0    0    0  501 -0.00000000000E+00 -0.00000000000E+00 -0.15971011410E+02  0.15971011410E+02  0.00000000000E+00 0. -1.
         25    1    1    2    0    0  0.69151140959E+02  0.29747440793E+02  0.53228615451E+03  0.55081334481E+03  0.12000000000E+03 0.  0.
         25    1    1    2    0    0 -0.69151140959E+02 -0.29747440793E+02  0.74122553364E+03  0.75464036617E+03  0.12000000000E+03 0.  0.
<mgrwt>
<rscale>  0 0.28701458E+03</rscale>
<asrwt>0</asrwt>
<pdfrwt beam="1">  1        2 0.19838187E+00 0.28701458E+03</pdfrwt>
<pdfrwt beam="2">  1       -2 0.24570797E-02 0.28701458E+03</pdfrwt>
<totfact> 0.10145477E+04</totfact>
</mgrwt>
</event>
<event>
 4    1  0.1777979E-004  0.3482533E+03  0.7818608E-02  0.1063334E+00
         -3   -1    0    0    0  501 -0.00000000000E+00  0.00000000000E+00  0.51033532237E+02  0.51033532237E+02  0.00000000000E+00 0. -1.
          3   -1    0    0  501    0  0.00000000000E+00 -0.00000000000E+00 -0.59412110773E+03  0.59412110773E+03  0.00000000000E+00 0. -1.
         25    1    1    2    0    0  0.35369693030E+02  0.11648632493E+03 -0.33298626826E+03  0.37429925719E+03  0.12000000000E+03 0.  0.
         25    1    1    2    0    0 -0.35369693030E+02 -0.11648632493E+03 -0.21010130723E+03  0.27085538278E+03  0.12000000000E+03 0.  0.
<mgrwt>
<rscale>  0 0.34825335E+03</rscale>
<asrwt>0</asrwt>
<pdfrwt beam="1">  1        3 0.91403243E-01 0.34825335E+03</pdfrwt>
<pdfrwt beam="2">  1       -3 0.78513130E-02 0.34825335E+03</pdfrwt>
<totfact> 0.31569715E+02</totfact>
</mgrwt>
</event>
<event>
 4    1  0.1777979E-004  0.2730188E+03  0.7818608E-02  0.1099564E+00
         -2   -1    0    0    0  501 -0.00000000000E+00  0.00000000000E+00  0.18547736482E+02  0.18547736482E+02  0.00000000000E+00 0.  1.
          2   -1    0    0  501    0  0.00000000000E+00 -0.00000000000E+00 -0.10046948237E+04  0.10046948237E+04  0.00000000000E+00 0.  1.
         25    1    1    2    0    0  0.40771909622E+02  0.42884828411E+02 -0.39157869714E+03  0.41380591245E+03  0.12000000000E+03 0.  0.
         25    1    1    2    0    0 -0.40771909622E+02 -0.42884828411E+02 -0.59456839009E+03  0.60943664774E+03  0.12000000000E+03 0.  0.
<mgrwt>
<rscale>  0 0.27301879E+03</rscale>
<asrwt>0</asrwt>
<pdfrwt beam="1">  1        2 0.15456840E+00 0.27301879E+03</pdfrwt>
<pdfrwt beam="2">  1       -2 0.28534986E-02 0.27301879E+03</pdfrwt>
<totfact> 0.11871718E+04</totfact>
</mgrwt>
</event>
<event>
 4    1  0.1777979E-004  0.2460818E+03  0.7818608E-02  0.1115806E+00
          2   -1    0    0  501    0  0.00000000000E+00  0.00000000000E+00  0.15849417590E+04  0.15849417590E+04  0.00000000000E+00 0.  1.
         -2   -1    0    0    0  501 -0.00000000000E+00 -0.00000000000E+00 -0.95518075408E+01  0.95518075408E+01  0.00000000000E+00 0.  1.
         25    1    1    2    0    0  0.22502542616E+02 -0.14079303522E+02  0.74965433578E+03  0.75966190793E+03  0.12000000000E+03 0.  0.
         25    1    1    2    0    0 -0.22502542616E+02  0.14079303522E+02  0.82573561569E+03  0.83483165862E+03  0.12000000000E+03 0.  0.
<mgrwt>
<rscale>  0 0.24608176E+03</rscale>
<asrwt>0</asrwt>
<pdfrwt beam="1">  1        2 0.24383698E+00 0.24608176E+03</pdfrwt>
<pdfrwt beam="2">  1       -2 0.14695101E-02 0.24608176E+03</pdfrwt>
<totfact> 0.14888503E+04</totfact>
</mgrwt>
</event>
<event>
 4    1  0.1777979E-004  0.2589310E+03  0.7818608E-02  0.1107787E+00
         -2   -1    0    0    0  501 -0.00000000000E+00  0.00000000000E+00  0.42976414935E+02  0.42976414935E+02  0.00000000000E+00 0.  1.
          2   -1    0    0  501    0  0.00000000000E+00 -0.00000000000E+00 -0.39001194115E+03  0.39001194115E+03  0.00000000000E+00 0.  1.
         25    1    1    2    0    0  0.35631613908E+02 -0.22633953500E+02 -0.13326607110E+03  0.18423287836E+03  0.12000000000E+03 0.  0.
         25    1    1    2    0    0 -0.35631613908E+02  0.22633953500E+02 -0.21376945512E+03  0.24875547773E+03  0.12000000000E+03 0.  0.
<mgrwt>
<rscale>  0 0.25893099E+03</rscale>
<asrwt>0</asrwt>
<pdfrwt beam="1">  1        2 0.60001836E-01 0.25893099E+03</pdfrwt>
<pdfrwt beam="2">  1       -2 0.66117563E-02 0.25893099E+03</pdfrwt>
<totfact> 0.10343569E+04</totfact>
</mgrwt>
</event>
<event>
 4    1  0.1777979E-004  0.2702328E+03  0.7818608E-02  0.1101146E+00
          2   -1    0    0  501    0  0.00000000000E+00  0.00000000000E+00  0.12846874558E+04  0.12846874558E+04  0.00000000000E+00 0. -1.
         -2   -1    0    0    0  501 -0.00000000000E+00 -0.00000000000E+00 -0.14210808618E+02  0.14210808618E+02  0.00000000000E+00 0. -1.
         25    1    1    2    0    0  0.56931273407E+02  0.20758331369E+02  0.56997316885E+03  0.58561206564E+03  0.12000000000E+03 0.  0.
         25    1    1    2    0    0 -0.56931273407E+02 -0.20758331369E+02  0.70050347831E+03  0.71328619876E+03  0.12000000000E+03 0.  0.
<mgrwt>
<rscale>  0 0.27023284E+03</rscale>
<asrwt>0</asrwt>
<pdfrwt beam="1">  1        2 0.19764413E+00 0.27023284E+03</pdfrwt>
<pdfrwt beam="2">  1       -2 0.21862793E-02 0.27023284E+03</pdfrwt>
<totfact> 0.12112102E+04</totfact>
</mgrwt>
</event>
<event>
 4    1  0.1777979E-004  0.2714989E+03  0.7818608E-02  0.1100425E+00
         -4   -1    0    0    0  501 -0.00000000000E+00  0.00000000000E+00  0.96425537915E+02  0.96425537915E+02  0.00000000000E+00 0.  1.
          4   -1    0    0  501    0  0.00000000000E+00 -0.00000000000E+00 -0.19111031749E+03  0.19111031749E+03  0.00000000000E+00 0.  1.
         25    1    1    2    0    0  0.59975175419E+02 -0.66473375933E+00 -0.25369555131E+02  0.13653233267E+03  0.12000000000E+03 0.  0.
         25    1    1    2    0    0 -0.59975175419E+02  0.66473375933E+00 -0.69315224441E+02  0.15100352273E+03  0.12000000000E+03 0.  0.
<mgrwt>
<rscale>  0 0.27149891E+03</rscale>
<asrwt>0</asrwt>
<pdfrwt beam="1">  1        4 0.29401587E-01 0.27149891E+03</pdfrwt>
<pdfrwt beam="2">  1       -4 0.14834698E-01 0.27149891E+03</pdfrwt>
<totfact> 0.79489492E+02</totfact>
</mgrwt>
</event>
<event>
 4    1  0.1777979E-004  0.2648384E+03  0.7818608E-02  0.1104271E+00
         -1   -1    0    0    0  501 -0.00000000000E+00  0.00000000000E+00  0.66932939975E+03  0.66932939975E+03  0.00000000000E+00 0.  1.
          1   -1    0    0  501    0  0.00000000000E+00 -0.00000000000E+00 -0.26197634461E+02  0.26197634461E+02  0.00000000000E+00 0.  1.
         25    1    1    2    0    0 -0.14754366893E+02  0.18781351875E+02  0.45455843008E+03  0.47073750316E+03  0.12000000000E+03 0.  0.
         25    1    1    2    0    0  0.14754366893E+02 -0.18781351875E+02  0.18857333521E+03  0.22478953106E+03  0.12000000000E+03 0.  0.
<mgrwt>
<rscale>  0 0.26483842E+03</rscale>
<asrwt>0</asrwt>
<pdfrwt beam="1">  1        1 0.40304058E-02 0.26483842E+03</pdfrwt>
<pdfrwt beam="2">  1       -1 0.10297374E+00 0.26483842E+03</pdfrwt>
<totfact> 0.21179342E+03</totfact>
</mgrwt>
</event>
<event>
 4    1  0.1777979E-004  0.4558857E+03  0.7818608E-02  0.1025981E+00
          1   -1    0    0  501    0  0.00000000000E+00  0.00000000000E+00  0.39536465786E+03  0.39536465786E+03  0.00000000000E+00 0.  1.
         -1   -1    0    0    0  501 -0.00000000000E+00 -0.00000000000E+00 -0.13141776519E+03  0.13141776519E+03  0.00000000000E+00 0.  1.
         25    1    1    2    0    0 -0.68639764339E+02  0.17042170988E+03  0.60714993724E+02  0.22768681760E+03  0.12000000000E+03 0.  0.
         25    1    1    2    0    0  0.68639764339E+02 -0.17042170988E+03  0.20323189895E+03  0.29909560545E+03  0.12000000000E+03 0.  0.
<mgrwt>
<rscale>  0 0.45588569E+03</rscale>
<asrwt>0</asrwt>
<pdfrwt beam="1">  1        1 0.60825332E-01 0.45588569E+03</pdfrwt>
<pdfrwt beam="2">  1       -1 0.20218118E-01 0.45588569E+03</pdfrwt>
<totfact> 0.12230683E+03</totfact>
</mgrwt>
</event>
<event>
 4    1  0.1777979E-004  0.3365084E+03  0.7818608E-02  0.1068293E+00
         -2   -1    0    0    0  501 -0.00000000000E+00  0.00000000000E+00  0.86797359988E+01  0.86797359988E+01  0.00000000000E+00 0. -1.
          2   -1    0    0  501    0  0.00000000000E+00 -0.00000000000E+00 -0.32615595665E+04  0.32615595665E+04  0.00000000000E+00 0. -1.
         25    1    1    2    0    0 -0.93625108815E+02 -0.71016109415E+02 -0.15290025836E+04  0.15381995480E+04  0.12000000000E+03 0.  0.
         25    1    1    2    0    0  0.93625108815E+02  0.71016109415E+02 -0.17238772469E+04  0.17320397545E+04  0.12000000000E+03 0.  0.
<mgrwt>
<rscale>  0 0.33650840E+03</rscale>
<asrwt>0</asrwt>
<pdfrwt beam="1">  1        2 0.50177875E+00 0.33650840E+03</pdfrwt>
<pdfrwt beam="2">  1       -2 0.13353431E-02 0.33650840E+03</pdfrwt>
<totfact> 0.20030844E+03</totfact>
</mgrwt>
</event>
<event>
 4    1  0.1777979E-004  0.3143580E+03  0.7818608E-02  0.1078276E+00
          2   -1    0    0  501    0  0.00000000000E+00  0.00000000000E+00  0.13695398484E+04  0.13695398484E+04  0.00000000000E+00 0.  1.
         -2   -1    0    0    0  501 -0.00000000000E+00 -0.00000000000E+00 -0.18039083486E+02  0.18039083486E+02  0.00000000000E+00 0.  1.
         25    1    1    2    0    0 -0.81939846909E+02 -0.32410789325E+02  0.45326309587E+03  0.47708702755E+03  0.12000000000E+03 0.  0.
         25    1    1    2    0    0  0.81939846909E+02  0.32410789325E+02  0.89823766901E+03  0.91049190431E+03  0.12000000000E+03 0.  0.
<mgrwt>
<rscale>  0 0.31435804E+03</rscale>
<asrwt>0</asrwt>
<pdfrwt beam="1">  1        2 0.21069836E+00 0.31435804E+03</pdfrwt>
<pdfrwt beam="2">  1       -2 0.27752447E-02 0.31435804E+03</pdfrwt>
<totfact> 0.76593754E+03</totfact>
</mgrwt>
</event>
<event>
 4    1  0.1777979E-004  0.2824546E+03  0.7818608E-02  0.1094356E+00
         -2   -1    0    0    0  501 -0.00000000000E+00  0.00000000000E+00  0.13621280976E+03  0.13621280976E+03  0.00000000000E+00 0.  1.
          2   -1    0    0  501    0  0.00000000000E+00 -0.00000000000E+00 -0.14642640842E+03  0.14642640842E+03  0.00000000000E+00 0.  1.
         25    1    1    2    0    0  0.60473037230E+01  0.23957036946E+01  0.69122834304E+02  0.13863720821E+03  0.12000000000E+03 0.  0.
         25    1    1    2    0    0 -0.60473037230E+01 -0.23957036946E+01 -0.79336432969E+02  0.14400200997E+03  0.12000000000E+03 0.  0.
<mgrwt>
<rscale>  0 0.28245462E+03</rscale>
<asrwt>0</asrwt>
<pdfrwt beam="1">  1        2 0.22527140E-01 0.28245462E+03</pdfrwt>
<pdfrwt beam="2">  1       -2 0.20955817E-01 0.28245462E+03</pdfrwt>
<totfact> 0.46702352E+03</totfact>
</mgrwt>
</event>
<event>
 4    1  0.1777979E-004  0.3092287E+03  0.7818608E-02  0.1080716E+00
         -1   -1    0    0    0  501 -0.00000000000E+00  0.00000000000E+00  0.35587364583E+03  0.35587364583E+03  0.00000000000E+00 0.  1.
          1   -1    0    0  501    0  0.00000000000E+00 -0.00000000000E+00 -0.67174411442E+02  0.67174411442E+02  0.00000000000E+00 0.  1.
         25    1    1    2    0    0  0.57109554052E+01 -0.89309850273E+02  0.91421943970E+02  0.17540477818E+03  0.12000000000E+03 0.  0.
         25    1    1    2    0    0 -0.57109554052E+01  0.89309850273E+02  0.19727729042E+03  0.24764327910E+03  0.12000000000E+03 0.  0.
<mgrwt>
<rscale>  0 0.30922874E+03</rscale>
<asrwt>0</asrwt>
<pdfrwt beam="1">  1        1 0.10334525E-01 0.30922874E+03</pdfrwt>
<pdfrwt beam="2">  1       -1 0.54749791E-01 0.30922874E+03</pdfrwt>
<totfact> 0.21274216E+03</totfact>
</mgrwt>
</event>
<event>
 4    1  0.1777979E-004  0.2451149E+03  0.7818608E-02  0.1116432E+00
         -2   -1    0    0    0  501 -0.00000000000E+00  0.00000000000E+00  0.10101327919E+02  0.10101327919E+02  0.00000000000E+00 0.  1.
          2   -1    0    0  501    0  0.00000000000E+00 -0.00000000000E+00 -0.14869662384E+04  0.14869662384E+04  0.00000000000E+00 0.  1.
         25    1    1    2    0    0 -0.62819224629E+01 -0.23842314985E+02 -0.71691228224E+03  0.72730402100E+03  0.12000000000E+03 0.  0.
         25    1    1    2    0    0  0.62819224629E+01  0.23842314985E+02 -0.75995262824E+03  0.76976354532E+03  0.12000000000E+03 0.  0.
<mgrwt>
<rscale>  0 0.24511494E+03</rscale>
<asrwt>0</asrwt>
<pdfrwt beam="1">  1        2 0.22876402E+00 0.24511494E+03</pdfrwt>
<pdfrwt beam="2">  1       -2 0.15540505E-02 0.24511494E+03</pdfrwt>
<totfact> 0.15466189E+04</totfact>
</mgrwt>
</event>
<event>
 4    1  0.1777979E-004  0.2649413E+03  0.7818608E-02  0.1104210E+00
         -2   -1    0    0    0  501 -0.00000000000E+00  0.00000000000E+00  0.41374163982E+02  0.41374163982E+02  0.00000000000E+00 0. -1.
          2   -1    0    0  501    0  0.00000000000E+00 -0.00000000000E+00 -0.42414090366E+03  0.42414090366E+03  0.00000000000E+00 0. -1.
         25    1    1    2    0    0 -0.51065288724E+02  0.17405153376E+02 -0.16428420426E+03  0.21047542101E+03  0.12000000000E+03 0.  0.
         25    1    1    2    0    0  0.51065288724E+02 -0.17405153376E+02 -0.21848253542E+03  0.25503964664E+03  0.12000000000E+03 0.  0.
<mgrwt>
<rscale>  0 0.26494132E+03</rscale>
<asrwt>0</asrwt>
<pdfrwt beam="1">  1        2 0.65252448E-01 0.26494132E+03</pdfrwt>
<pdfrwt beam="2">  1       -2 0.63652558E-02 0.26494132E+03</pdfrwt>
<totfact> 0.10020606E+04</totfact>
</mgrwt>
</event>
<event>
 4    1  0.1777979E-004  0.2728441E+03  0.7818608E-02  0.1099663E+00
          2   -1    0    0  501    0  0.00000000000E+00  0.00000000000E+00  0.11168299951E+04  0.11168299951E+04  0.00000000000E+00 0.  1.
         -2   -1    0    0    0  501 -0.00000000000E+00 -0.00000000000E+00 -0.16664109631E+02  0.16664109631E+02  0.00000000000E+00 0.  1.
         25    1    1    2    0    0  0.25550383021E+02 -0.58457659995E+02  0.50077754108E+03  0.51889138144E+03  0.12000000000E+03 0.  0.
         25    1    1    2    0    0 -0.25550383021E+02  0.58457659995E+02  0.59938834436E+03  0.61460272326E+03  0.12000000000E+03 0.  0.
<mgrwt>
<rscale>  0 0.27284411E+03</rscale>
<asrwt>0</asrwt>
<pdfrwt beam="1">  1        2 0.17181994E+00 0.27284411E+03</pdfrwt>
<pdfrwt beam="2">  1       -2 0.25637101E-02 0.27284411E+03</pdfrwt>
<totfact> 0.11928248E+04</totfact>
</mgrwt>
</event>
<event>
 4    1  0.1777979E-004  0.4852333E+03  0.7818608E-02  0.1017707E+00
         -2   -1    0    0    0  501 -0.00000000000E+00  0.00000000000E+00  0.43522381910E+02  0.43522381910E+02  0.00000000000E+00 0. -1.
          2   -1    0    0  501    0  0.00000000000E+00 -0.00000000000E+00 -0.13524728626E+04  0.13524728626E+04  0.00000000000E+00 0. -1.
         25    1    1    2    0    0 -0.28566545471E+02 -0.89060268784E+02 -0.11981748690E+04  0.12077958419E+04  0.12000000000E+03 0.  0.
         25    1    1    2    0    0  0.28566545471E+02  0.89060268784E+02 -0.11077561167E+03  0.18819940259E+03  0.12000000000E+03 0.  0.
<mgrwt>
<rscale>  0 0.48523331E+03</rscale>
<asrwt>0</asrwt>
<pdfrwt beam="1">  1        2 0.20807272E+00 0.48523331E+03</pdfrwt>
<pdfrwt beam="2">  1       -2 0.66957519E-02 0.48523331E+03</pdfrwt>
<totfact> 0.20422803E+03</totfact>
</mgrwt>
</event>
<event>
 4    1  0.1777979E-004  0.3067807E+03  0.7818608E-02  0.1081899E+00
          2   -1    0    0  501    0  0.00000000000E+00  0.00000000000E+00  0.80935864670E+02  0.80935864670E+02  0.00000000000E+00 0.  1.
         -2   -1    0    0    0  501 -0.00000000000E+00 -0.00000000000E+00 -0.29070676633E+03  0.29070676633E+03  0.00000000000E+00 0.  1.
         25    1    1    2    0    0 -0.60543751103E+02 -0.11802230866E+02 -0.16494685341E+02  0.13592980944E+03  0.12000000000E+03 0.  0.
         25    1    1    2    0    0  0.60543751103E+02  0.11802230866E+02 -0.19327621632E+03  0.23571282155E+03  0.12000000000E+03 0.  0.
<mgrwt>
<rscale>  0 0.30678073E+03</rscale>
<asrwt>0</asrwt>
<pdfrwt beam="1">  1        2 0.12451671E-01 0.30678073E+03</pdfrwt>
<pdfrwt beam="2">  1       -2 0.44724118E-01 0.30678073E+03</pdfrwt>
<totfact> 0.23433485E+03</totfact>
</mgrwt>
</event>
<event>
 4    1  0.1777979E-004  0.2458891E+03  0.7818608E-02  0.1115931E+00
         -3   -1    0    0    0  501 -0.00000000000E+00  0.00000000000E+00  0.43754886347E+03  0.43754886347E+03  0.00000000000E+00 0. -1.
          3   -1    0    0  501    0  0.00000000000E+00 -0.00000000000E+00 -0.34545543733E+02  0.34545543733E+02  0.00000000000E+00 0. -1.
         25    1    1    2    0    0 -0.14893482859E+02  0.87073537632E+01  0.16226092191E+03  0.20254935354E+03  0.12000000000E+03 0.  0.
         25    1    1    2    0    0  0.14893482859E+02 -0.87073537632E+01  0.24074239783E+03  0.26954505366E+03  0.12000000000E+03 0.  0.
<mgrwt>
<rscale>  0 0.24588911E+03</rscale>
<asrwt>0</asrwt>
<pdfrwt beam="1">  1        3 0.53146994E-02 0.24588911E+03</pdfrwt>
<pdfrwt beam="2">  1       -3 0.67315206E-01 0.24588911E+03</pdfrwt>
<totfact> 0.11229905E+03</totfact>
</mgrwt>
</event>
<event>
 4    1  0.1777979E-004  0.3806046E+03  0.7818608E-02  0.1050711E+00
         -2   -1    0    0    0  501 -0.00000000000E+00  0.00000000000E+00  0.10980648698E+02  0.10980648698E+02  0.00000000000E+00 0. -1.
          2   -1    0    0  501    0  0.00000000000E+00 -0.00000000000E+00 -0.32980720981E+04  0.32980720981E+04  0.00000000000E+00 0. -1.
         25    1    1    2    0    0 -0.12325729279E+03  0.29074348869E+02 -0.23043788788E+04  0.23109737548E+04  0.12000000000E+03 0.  0.
         25    1    1    2    0    0  0.12325729279E+03 -0.29074348869E+02 -0.98271257053E+03  0.99807899200E+03  0.12000000000E+03 0.  0.
<mgrwt>
<rscale>  0 0.38060463E+03</rscale>
<asrwt>0</asrwt>
<pdfrwt beam="1">  1        2 0.50739522E+00 0.38060463E+03</pdfrwt>
<pdfrwt beam="2">  1       -2 0.16893322E-02 0.38060463E+03</pdfrwt>
<totfact> 0.13353513E+03</totfact>
</mgrwt>
</event>
<event>
 4    1  0.1777979E-004  0.2899061E+03  0.7818608E-02  0.1090398E+00
          3   -1    0    0  501    0  0.00000000000E+00  0.00000000000E+00  0.10064628100E+04  0.10064628100E+04  0.00000000000E+00 0.  1.
         -3   -1    0    0    0  501 -0.00000000000E+00 -0.00000000000E+00 -0.20876467990E+02  0.20876467990E+02  0.00000000000E+00 0.  1.
         25    1    1    2    0    0  0.50656825915E+02 -0.44713175162E+02  0.65308450136E+03  0.66744643828E+03  0.12000000000E+03 0.  0.
         25    1    1    2    0    0 -0.50656825915E+02  0.44713175162E+02  0.33250184064E+03  0.35989283971E+03  0.12000000000E+03 0.  0.
<mgrwt>
<rscale>  0 0.28990611E+03</rscale>
<asrwt>0</asrwt>
<pdfrwt beam="1">  1        3 0.15484039E+00 0.28990611E+03</pdfrwt>
<pdfrwt beam="2">  1       -3 0.32117651E-02 0.28990611E+03</pdfrwt>
<totfact> 0.36939331E+02</totfact>
</mgrwt>
</event>
<event>
 4    1  0.1777979E-004  0.2792311E+03  0.7818608E-02  0.1096110E+00
         -2   -1    0    0    0  501 -0.00000000000E+00  0.00000000000E+00  0.89864216160E+01  0.89864216160E+01  0.00000000000E+00 0.  1.
          2   -1    0    0  501    0  0.00000000000E+00 -0.00000000000E+00 -0.21691057296E+04  0.21691057296E+04  0.00000000000E+00 0.  1.
         25    1    1    2    0    0 -0.14917705968E+02  0.77541348897E+01 -0.53908421886E+03  0.55253457773E+03  0.12000000000E+03 0.  0.
         25    1    1    2    0    0  0.14917705968E+02 -0.77541348897E+01 -0.16210350892E+04  0.16255575735E+04  0.12000000000E+03 0.  0.
<mgrwt>
<rscale>  0 0.27923108E+03</rscale>
<asrwt>0</asrwt>
<pdfrwt beam="1">  1        2 0.33370916E+00 0.27923108E+03</pdfrwt>
<pdfrwt beam="2">  1       -2 0.13825240E-02 0.27923108E+03</pdfrwt>
<totfact> 0.80400513E+03</totfact>
</mgrwt>
</event>
<event>
 4    1  0.1777979E-004  0.2424575E+03  0.7818608E-02  0.1118166E+00
          1   -1    0    0  501    0  0.00000000000E+00  0.00000000000E+00  0.26312406423E+03  0.26312406423E+03  0.00000000000E+00 0. -1.
         -1   -1    0    0    0  501 -0.00000000000E+00 -0.00000000000E+00 -0.55853543044E+02  0.55853543044E+02  0.00000000000E+00 0. -1.
         25    1    1    2    0    0 -0.11229636912E+01 -0.13296633034E+02  0.11794752082E+03  0.16878885972E+03  0.12000000000E+03 0.  0.
         25    1    1    2    0    0  0.11229636912E+01  0.13296633034E+02  0.89323000363E+02  0.15018874755E+03  0.12000000000E+03 0.  0.
<mgrwt>
<rscale>  0 0.24245751E+03</rscale>
<asrwt>0</asrwt>
<pdfrwt beam="1">  1        1 0.40480624E-01 0.24245751E+03</pdfrwt>
<pdfrwt beam="2">  1       -1 0.85928530E-02 0.24245751E+03</pdfrwt>
<totfact> 0.78612538E+03</totfact>
</mgrwt>
</event>
<event>
 4    1  0.1777979E-004  0.2915307E+03  0.7818608E-02  0.1089553E+00
          2   -1    0    0  501    0  0.00000000000E+00  0.00000000000E+00  0.17377360186E+04  0.17377360186E+04  0.00000000000E+00 0.  1.
         -2   -1    0    0    0  501 -0.00000000000E+00 -0.00000000000E+00 -0.12227137690E+02  0.12227137690E+02  0.00000000000E+00 0.  1.
         25    1    1    2    0    0  0.31154620152E+02  0.73553110132E+02  0.99245483253E+03  0.10028695154E+04  0.12000000000E+03 0.  0.
         25    1    1    2    0    0 -0.31154620152E+02 -0.73553110132E+02  0.73305404839E+03  0.74709364087E+03  0.12000000000E+03 0.  0.
<mgrwt>
<rscale>  0 0.29153070E+03</rscale>
<asrwt>0</asrwt>
<pdfrwt beam="1">  1        2 0.26734381E+00 0.29153070E+03</pdfrwt>
<pdfrwt beam="2">  1       -2 0.18810995E-02 0.29153070E+03</pdfrwt>
<totfact> 0.86432731E+03</totfact>
</mgrwt>
</event>
<event>
 4    1  0.1777979E-004  0.2856409E+03  0.7818608E-02  0.1092647E+00
         -3   -1    0    0    0  501 -0.00000000000E+00  0.00000000000E+00  0.81728240785E+02  0.81728240785E+02  0.00000000000E+00 0. -1.
          3   -1    0    0  501    0  0.00000000000E+00 -0.00000000000E+00 -0.24957942727E+03  0.24957942727E+03  0.00000000000E+00 0. -1.
         25    1    1    2    0    0  0.56273429560E+02 -0.38601868576E+02 -0.41453203946E+02  0.14413594711E+03  0.12000000000E+03 0.  0.
         25    1    1    2    0    0 -0.56273429560E+02  0.38601868576E+02 -0.12639798254E+03  0.18717172095E+03  0.12000000000E+03 0.  0.
<mgrwt>
<rscale>  0 0.28564095E+03</rscale>
<asrwt>0</asrwt>
<pdfrwt beam="1">  1        3 0.38396834E-01 0.28564095E+03</pdfrwt>
<pdfrwt beam="2">  1       -3 0.12573576E-01 0.28564095E+03</pdfrwt>
<totfact> 0.86147286E+02</totfact>
</mgrwt>
</event>
<event>
 4    1  0.1777979E-004  0.2609605E+03  0.7818608E-02  0.1106567E+00
          2   -1    0    0  501    0  0.00000000000E+00  0.00000000000E+00  0.73570213075E+03  0.73570213075E+03  0.00000000000E+00 0. -1.
         -2   -1    0    0    0  501 -0.00000000000E+00 -0.00000000000E+00 -0.23141294276E+02  0.23141294276E+02  0.00000000000E+00 0. -1.
         25    1    1    2    0    0 -0.18999713237E+02 -0.81319096050E+01  0.49260979857E+03  0.50743623314E+03  0.12000000000E+03 0.  0.
         25    1    1    2    0    0  0.18999713237E+02  0.81319096050E+01  0.21995103791E+03  0.25140719189E+03  0.12000000000E+03 0.  0.
<mgrwt>
<rscale>  0 0.26096053E+03</rscale>
<asrwt>0</asrwt>
<pdfrwt beam="1">  1        2 0.11318493E+00 0.26096053E+03</pdfrwt>
<pdfrwt beam="2">  1       -2 0.35601997E-02 0.26096053E+03</pdfrwt>
<totfact> 0.12836022E+04</totfact>
</mgrwt>
</event>
<event>
 4    1  0.1777979E-004  0.2779513E+03  0.7818608E-02  0.1096813E+00
          2   -1    0    0  501    0  0.00000000000E+00  0.00000000000E+00  0.17282284450E+02  0.17282284450E+02  0.00000000000E+00 0.  1.
         -2   -1    0    0    0  501 -0.00000000000E+00 -0.00000000000E+00 -0.11175738597E+04  0.11175738597E+04  0.00000000000E+00 0.  1.
         25    1    1    2    0    0  0.58526825068E+02  0.12412956674E+02 -0.40097853600E+03  0.42280404099E+03  0.12000000000E+03 0.  0.
         25    1    1    2    0    0 -0.58526825068E+02 -0.12412956674E+02 -0.69931303923E+03  0.71205210314E+03  0.12000000000E+03 0.  0.
<mgrwt>
<rscale>  0 0.27795129E+03</rscale>
<asrwt>0</asrwt>
<pdfrwt beam="1">  1        2 0.26588118E-02 0.27795129E+03</pdfrwt>
<pdfrwt beam="2">  1       -2 0.17193451E+00 0.27795129E+03</pdfrwt>
<totfact> 0.81640323E+02</totfact>
</mgrwt>
</event>
<event>
 4    1  0.1777979E-004  0.3027225E+03  0.7818608E-02  0.1083888E+00
         -2   -1    0    0    0  501 -0.00000000000E+00  0.00000000000E+00  0.62385546556E+03  0.62385546556E+03  0.00000000000E+00 0. -1.
          2   -1    0    0  501    0  0.00000000000E+00 -0.00000000000E+00 -0.36723626473E+02  0.36723626473E+02  0.00000000000E+00 0. -1.
         25    1    1    2    0    0  0.30562920004E+02  0.50242665963E+02  0.44866309293E+03  0.46814206019E+03  0.12000000000E+03 0.  0.
         25    1    1    2    0    0 -0.30562920004E+02 -0.50242665963E+02  0.13846874616E+03  0.19243703184E+03  0.12000000000E+03 0.  0.
<mgrwt>
<rscale>  0 0.30272255E+03</rscale>
<asrwt>0</asrwt>
<pdfrwt beam="1">  1        2 0.56497892E-02 0.30272255E+03</pdfrwt>
<pdfrwt beam="2">  1       -2 0.95977756E-01 0.30272255E+03</pdfrwt>
<totfact> 0.12643644E+03</totfact>
</mgrwt>
</event>
<event>
 4    1  0.1777979E-004  0.3218548E+03  0.7818608E-02  0.1074799E+00
         -2   -1    0    0    0  501 -0.00000000000E+00  0.00000000000E+00  0.40275871781E+02  0.40275871781E+02  0.00000000000E+00 0.  1.
          2   -1    0    0  501    0  0.00000000000E+00 -0.00000000000E+00 -0.64300592812E+03  0.64300592812E+03  0.00000000000E+00 0.  1.
         25    1    1    2    0    0 -0.99030868637E+02  0.41066495888E+02 -0.29709041138E+03  0.33787021556E+03  0.12000000000E+03 0.  0.
         25    1    1    2    0    0  0.99030868637E+02 -0.41066495888E+02 -0.30563964495E+03  0.34541158434E+03  0.12000000000E+03 0.  0.
<mgrwt>
<rscale>  0 0.32185478E+03</rscale>
<asrwt>0</asrwt>
<pdfrwt beam="1">  1        2 0.98923976E-01 0.32185478E+03</pdfrwt>
<pdfrwt beam="2">  1       -2 0.61962888E-02 0.32185478E+03</pdfrwt>
<totfact> 0.65588074E+03</totfact>
</mgrwt>
</event>
<event>
 4    1  0.1777979E-004  0.2614996E+03  0.7818608E-02  0.1106246E+00
         -2   -1    0    0    0  501 -0.00000000000E+00  0.00000000000E+00  0.11873274838E+02  0.11873274838E+02  0.00000000000E+00 0.  1.
          2   -1    0    0  501    0  0.00000000000E+00 -0.00000000000E+00 -0.14398314653E+04  0.14398314653E+04  0.00000000000E+00 0.  1.
         25    1    1    2    0    0 -0.13385645078E+02 -0.22247254349E+02 -0.46438562465E+03  0.48034167443E+03  0.12000000000E+03 0.  0.
         25    1    1    2    0    0  0.13385645078E+02  0.22247254349E+02 -0.96357256577E+03  0.97136306566E+03  0.12000000000E+03 0.  0.
<mgrwt>
<rscale>  0 0.26149963E+03</rscale>
<asrwt>0</asrwt>
<pdfrwt beam="1">  1        2 0.22151228E+00 0.26149963E+03</pdfrwt>
<pdfrwt beam="2">  1       -2 0.18266598E-02 0.26149963E+03</pdfrwt>
<totfact> 0.12966059E+04</totfact>
</mgrwt>
</event>
<event>
 4    1  0.1777979E-004  0.3361666E+03  0.7818608E-02  0.1068440E+00
         -2   -1    0    0    0  501 -0.00000000000E+00  0.00000000000E+00  0.85175950079E+02  0.85175950079E+02  0.00000000000E+00 0.  1.
          2   -1    0    0  501    0  0.00000000000E+00 -0.00000000000E+00 -0.33168984041E+03  0.33168984041E+03  0.00000000000E+00 0.  1.
         25    1    1    2    0    0  0.10274552226E+03 -0.57119608386E+02 -0.13034864976E+03  0.21262657995E+03  0.12000000000E+03 0.  0.
         25    1    1    2    0    0 -0.10274552226E+03  0.57119608386E+02 -0.11616524056E+03  0.20423921054E+03  0.12000000000E+03 0.  0.
<mgrwt>
<rscale>  0 0.33616661E+03</rscale>
<asrwt>0</asrwt>
<pdfrwt beam="1">  1        2 0.51029206E-01 0.33616661E+03</pdfrwt>
<pdfrwt beam="2">  1       -2 0.13103992E-01 0.33616661E+03</pdfrwt>
<totfact> 0.42047844E+03</totfact>
</mgrwt>
</event>
<event>
 4    1  0.1777979E-004  0.3067611E+03  0.7818608E-02  0.1081909E+00
         -2   -1    0    0    0  501 -0.00000000000E+00  0.00000000000E+00  0.17477990743E+02  0.17477990743E+02  0.00000000000E+00 0.  1.
          2   -1    0    0  501    0  0.00000000000E+00 -0.00000000000E+00 -0.13460120621E+04  0.13460120621E+04  0.00000000000E+00 0.  1.
         25    1    1    2    0    0  0.44390483475E+02  0.74298618306E+02 -0.48455287788E+03  0.50663822514E+03  0.12000000000E+03 0.  0.
         25    1    1    2    0    0 -0.44390483475E+02 -0.74298618306E+02 -0.84398119344E+03  0.85685182767E+03  0.12000000000E+03 0.  0.
<mgrwt>
<rscale>  0 0.30676106E+03</rscale>
<asrwt>0</asrwt>
<pdfrwt beam="1">  1        2 0.20707880E+00 0.30676106E+03</pdfrwt>
<pdfrwt beam="2">  1       -2 0.26889213E-02 0.30676106E+03</pdfrwt>
<totfact> 0.82681301E+03</totfact>
</mgrwt>
</event>
<event>
 4    1  0.1777979E-004  0.2557924E+03  0.7818608E-02  0.1109698E+00
         -3   -1    0    0    0  501 -0.00000000000E+00  0.00000000000E+00  0.41867800828E+03  0.41867800828E+03  0.00000000000E+00 0.  1.
          3   -1    0    0  501    0  0.00000000000E+00 -0.00000000000E+00 -0.39069256400E+02  0.39069256400E+02  0.00000000000E+00 0.  1.
         25    1    1    2    0    0 -0.22193268466E+02  0.34402053223E+02  0.21982343620E+03  0.25376836984E+03  0.12000000000E+03 0.  0.
         25    1    1    2    0    0  0.22193268466E+02 -0.34402053223E+02  0.15978531569E+03  0.20397889484E+03  0.12000000000E+03 0.  0.
<mgrwt>
<rscale>  0 0.25579240E+03</rscale>
<asrwt>0</asrwt>
<pdfrwt beam="1">  1        3 0.60106551E-02 0.25579240E+03</pdfrwt>
<pdfrwt beam="2">  1       -3 0.64411998E-01 0.25579240E+03</pdfrwt>
<totfact> 0.10161124E+03</totfact>
</mgrwt>
</event>
<event>
 4    1  0.1777979E-004  0.2554904E+03  0.7818608E-02  0.1109883E+00
         -1   -1    0    0    0  501 -0.00000000000E+00  0.00000000000E+00  0.39583004304E+02  0.39583004304E+02  0.00000000000E+00 0.  1.
          1   -1    0    0  501    0  0.00000000000E+00 -0.00000000000E+00 -0.41226881315E+03  0.41226881315E+03  0.00000000000E+00 0.  1.
         25    1    1    2    0    0 -0.68581054824E+01  0.22424942358E+02 -0.25177811337E+03  0.27989664168E+03  0.12000000000E+03 0.  0.
         25    1    1    2    0    0  0.68581054824E+01 -0.22424942358E+02 -0.12090769547E+03  0.17195517577E+03  0.12000000000E+03 0.  0.
<mgrwt>
<rscale>  0 0.25549042E+03</rscale>
<asrwt>0</asrwt>
<pdfrwt beam="1">  1        1 0.63425970E-01 0.25549042E+03</pdfrwt>
<pdfrwt beam="2">  1       -1 0.60896931E-02 0.25549042E+03</pdfrwt>
<totfact> 0.75364791E+03</totfact>
</mgrwt>
</event>
<event>
 4    1  0.1777979E-004  0.2491673E+03  0.7818608E-02  0.1113832E+00
         -2   -1    0    0    0  501 -0.00000000000E+00  0.00000000000E+00  0.62923101938E+02  0.62923101938E+02  0.00000000000E+00 0. -1.
          2   -1    0    0  501    0  0.00000000000E+00 -0.00000000000E+00 -0.24666744618E+03  0.24666744618E+03  0.00000000000E+00 0. -1.
         25    1    1    2    0    0 -0.29152098757E+02  0.12988594368E+02 -0.79290820191E+02  0.14732814603E+03  0.12000000000E+03 0.  0.
         25    1    1    2    0    0  0.29152098757E+02 -0.12988594368E+02 -0.10445352405E+03  0.16226240209E+03  0.12000000000E+03 0.  0.
<mgrwt>
<rscale>  0 0.24916726E+03</rscale>
<asrwt>0</asrwt>
<pdfrwt beam="1">  1        2 0.37948838E-01 0.24916726E+03</pdfrwt>
<pdfrwt beam="2">  1       -2 0.96804772E-02 0.24916726E+03</pdfrwt>
<totfact> 0.93239325E+03</totfact>
</mgrwt>
</event>
<event>
 4    1  0.1777979E-004  0.2597100E+03  0.7818608E-02  0.1107318E+00
         -2   -1    0    0    0  501 -0.00000000000E+00  0.00000000000E+00  0.14508744666E+03  0.14508744666E+03  0.00000000000E+00 0.  1.
          2   -1    0    0  501    0  0.00000000000E+00 -0.00000000000E+00 -0.11622181306E+03  0.11622181306E+03  0.00000000000E+00 0.  1.
         25    1    1    2    0    0 -0.47364982619E+02  0.14508548159E+02  0.11519029468E+02  0.13033275716E+03  0.12000000000E+03 0.  0.
         25    1    1    2    0    0  0.47364982619E+02 -0.14508548159E+02  0.17346604127E+02  0.13097650256E+03  0.12000000000E+03 0.  0.
<mgrwt>
<rscale>  0 0.25971004E+03</rscale>
<asrwt>0</asrwt>
<pdfrwt beam="1">  1        2 0.17880279E-01 0.25971004E+03</pdfrwt>
<pdfrwt beam="2">  1       -2 0.22321146E-01 0.25971004E+03</pdfrwt>
<totfact> 0.54388511E+03</totfact>
</mgrwt>
</event>
<event>
 4    1  0.1777979E-004  0.2864571E+03  0.7818608E-02  0.1092214E+00
          2   -1    0    0  501    0  0.00000000000E+00  0.00000000000E+00  0.10082899275E+04  0.10082899275E+04  0.00000000000E+00 0.  1.
         -2   -1    0    0    0  501 -0.00000000000E+00 -0.00000000000E+00 -0.20345752740E+02  0.20345752740E+02  0.00000000000E+00 0.  1.
         25    1    1    2    0    0  0.41503136948E+02 -0.65646112116E+02  0.52658699737E+03  0.54564254619E+03  0.12000000000E+03 0.  0.
         25    1    1    2    0    0 -0.41503136948E+02  0.65646112116E+02  0.46135717742E+03  0.48299313408E+03  0.12000000000E+03 0.  0.
<mgrwt>
<rscale>  0 0.28645710E+03</rscale>
<asrwt>0</asrwt>
<pdfrwt beam="1">  1        2 0.15512149E+00 0.28645710E+03</pdfrwt>
<pdfrwt beam="2">  1       -2 0.31301166E-02 0.28645710E+03</pdfrwt>
<totfact> 0.10306500E+04</totfact>
</mgrwt>
</event>
<event>
 4    1  0.1777979E-004  0.2843207E+03  0.7818608E-02  0.1093352E+00
         -1   -1    0    0    0  501 -0.00000000000E+00  0.00000000000E+00  0.11799222025E+03  0.11799222025E+03  0.00000000000E+00 0.  1.
          1   -1    0    0  501    0  0.00000000000E+00 -0.00000000000E+00 -0.17127880874E+03  0.17127880874E+03  0.00000000000E+00 0.  1.
         25    1    1    2    0    0  0.50477665893E+02  0.50391948484E+01 -0.84521183952E+02  0.15529719500E+03  0.12000000000E+03 0.  0.
         25    1    1    2    0    0 -0.50477665893E+02 -0.50391948484E+01  0.31234595458E+02  0.13397383398E+03  0.12000000000E+03 0.  0.
<mgrwt>
<rscale>  0 0.28432071E+03</rscale>
<asrwt>0</asrwt>
<pdfrwt beam="1">  1        1 0.26350586E-01 0.28432071E+03</pdfrwt>
<pdfrwt beam="2">  1       -1 0.18152649E-01 0.28432071E+03</pdfrwt>
<totfact> 0.42042965E+03</totfact>
</mgrwt>
</event>
<event>
 4    1  0.1777979E-004  0.3103565E+03  0.7818608E-02  0.1080175E+00
          1   -1    0    0  501    0  0.00000000000E+00  0.00000000000E+00  0.14299595133E+04  0.14299595133E+04  0.00000000000E+00 0.  1.
         -1   -1    0    0    0  501 -0.00000000000E+00 -0.00000000000E+00 -0.16839841938E+02  0.16839841938E+02  0.00000000000E+00 0.  1.
         25    1    1    2    0    0  0.34476634441E+01  0.93947951021E+02  0.57127409116E+03  0.59126321644E+03  0.12000000000E+03 0.  0.
         25    1    1    2    0    0 -0.34476634441E+01 -0.93947951021E+02  0.84184558018E+03  0.85553613878E+03  0.12000000000E+03 0.  0.
<mgrwt>
<rscale>  0 0.31035652E+03</rscale>
<asrwt>0</asrwt>
<pdfrwt beam="1">  1        1 0.21999368E+00 0.31035652E+03</pdfrwt>
<pdfrwt beam="2">  1       -1 0.25907460E-02 0.31035652E+03</pdfrwt>
<totfact> 0.37388327E+03</totfact>
</mgrwt>
</event>
<event>
 4    1  0.1777979E-004  0.3161871E+03  0.7818608E-02  0.1077418E+00
         -2   -1    0    0    0  501 -0.00000000000E+00  0.00000000000E+00  0.18553538434E+02  0.18553538434E+02  0.00000000000E+00 0.  1.
          2   -1    0    0  501    0  0.00000000000E+00 -0.00000000000E+00 -0.13471049185E+04  0.13471049185E+04  0.00000000000E+00 0.  1.
         25    1    1    2    0    0  0.21408342345E+02  0.57316514165E+02 -0.30680099903E+03  0.33506768409E+03  0.12000000000E+03 0.  0.
         25    1    1    2    0    0 -0.21408342345E+02 -0.57316514165E+02 -0.10217503810E+04  0.10305907728E+04  0.12000000000E+03 0.  0.
<mgrwt>
<rscale>  0 0.31618705E+03</rscale>
<asrwt>0</asrwt>
<pdfrwt beam="1">  1        2 0.20724699E+00 0.31618705E+03</pdfrwt>
<pdfrwt beam="2">  1       -2 0.28543895E-02 0.31618705E+03</pdfrwt>
<totfact> 0.75573178E+03</totfact>
</mgrwt>
</event>
<event>
 4    1  0.1777979E-004  0.2700489E+03  0.7818608E-02  0.1101252E+00
          1   -1    0    0  501    0  0.00000000000E+00  0.00000000000E+00  0.65537979428E+03  0.65537979428E+03  0.00000000000E+00 0. -1.
         -1   -1    0    0    0  501 -0.00000000000E+00 -0.00000000000E+00 -0.27818369152E+02  0.27818369152E+02  0.00000000000E+00 0. -1.
         25    1    1    2    0    0  0.27021239844E+02  0.52486309950E+02  0.36088297247E+03  0.38486553490E+03  0.12000000000E+03 0.  0.
         25    1    1    2    0    0 -0.27021239844E+02 -0.52486309950E+02  0.26667845265E+03  0.29833262853E+03  0.12000000000E+03 0.  0.
<mgrwt>
<rscale>  0 0.27004886E+03</rscale>
<asrwt>0</asrwt>
<pdfrwt beam="1">  1        1 0.10082765E+00 0.27004886E+03</pdfrwt>
<pdfrwt beam="2">  1       -1 0.42797496E-02 0.27004886E+03</pdfrwt>
<totfact> 0.68697397E+03</totfact>
</mgrwt>
</event>
<event>
 4    1  0.1777979E-004  0.3590433E+03  0.7818608E-02  0.1058963E+00
          2   -1    0    0  501    0  0.00000000000E+00  0.00000000000E+00  0.11863301775E+03  0.11863301775E+03  0.00000000000E+00 0.  1.
         -2   -1    0    0    0  501 -0.00000000000E+00 -0.00000000000E+00 -0.27166146229E+03  0.27166146229E+03  0.00000000000E+00 0.  1.
         25    1    1    2    0    0  0.12955829299E+03 -0.62684019318E+01 -0.11094741001E+03  0.20864796173E+03  0.12000000000E+03 0.  0.
         25    1    1    2    0    0 -0.12955829299E+03  0.62684019318E+01 -0.42081034537E+02  0.18164651831E+03  0.12000000000E+03 0.  0.
<mgrwt>
<rscale>  0 0.35904328E+03</rscale>
<asrwt>0</asrwt>
<pdfrwt beam="1">  1        2 0.18251234E-01 0.35904328E+03</pdfrwt>
<pdfrwt beam="2">  1       -2 0.41794070E-01 0.35904328E+03</pdfrwt>
<totfact> 0.17000537E+03</totfact>
</mgrwt>
</event>
<event>
 4    1  0.1777979E-004  0.2815157E+03  0.7818608E-02  0.1094864E+00
         -1   -1    0    0    0  501 -0.00000000000E+00  0.00000000000E+00  0.14703647889E+02  0.14703647889E+02  0.00000000000E+00 0. -1.
          1   -1    0    0  501    0  0.00000000000E+00 -0.00000000000E+00 -0.13474736082E+04  0.13474736082E+04  0.00000000000E+00 0. -1.
         25    1    1    2    0    0  0.40698168181E+02 -0.36428411156E+02 -0.42788896513E+03  0.44774137235E+03  0.12000000000E+03 0.  0.
         25    1    1    2    0    0 -0.40698168181E+02  0.36428411156E+02 -0.90488099514E+03  0.91443588370E+03  0.12000000000E+03 0.  0.
<mgrwt>
<rscale>  0 0.28151574E+03</rscale>
<asrwt>0</asrwt>
<pdfrwt beam="1">  1        1 0.20730372E+00 0.28151574E+03</pdfrwt>
<pdfrwt beam="2">  1       -1 0.22620987E-02 0.28151574E+03</pdfrwt>
<totfact> 0.51855912E+03</totfact>
</mgrwt>
</event>
<event>
 4    1  0.1777979E-004  0.2858540E+03  0.7818608E-02  0.1092534E+00
         -2   -1    0    0    0  501 -0.00000000000E+00  0.00000000000E+00  0.29334202323E+03  0.29334202323E+03  0.00000000000E+00 0. -1.
          2   -1    0    0  501    0  0.00000000000E+00 -0.00000000000E+00 -0.69639258090E+02  0.69639258090E+02  0.00000000000E+00 0. -1.
         25    1    1    2    0    0  0.48625142925E+02 -0.13536268761E+02  0.18676485970E+03  0.22765928032E+03  0.12000000000E+03 0.  0.
         25    1    1    2    0    0 -0.48625142925E+02  0.13536268761E+02  0.36937905440E+02  0.13532200100E+03  0.12000000000E+03 0.  0.
<mgrwt>
<rscale>  0 0.28585395E+03</rscale>
<asrwt>0</asrwt>
<pdfrwt beam="1">  1        2 0.10713732E-01 0.28585395E+03</pdfrwt>
<pdfrwt beam="2">  1       -2 0.45129541E-01 0.28585395E+03</pdfrwt>
<totfact> 0.27633921E+03</totfact>
</mgrwt>
</event>
<event>
 4    1  0.1777979E-004  0.2976295E+03  0.7818608E-02  0.1086432E+00
          2   -1    0    0  501    0  0.00000000000E+00  0.00000000000E+00  0.12486280292E+03  0.12486280292E+03  0.00000000000E+00 0.  1.
         -2   -1    0    0    0  501 -0.00000000000E+00 -0.00000000000E+00 -0.17736135802E+03  0.17736135802E+03  0.00000000000E+00 0.  1.
         25    1    1    2    0    0  0.39245349836E+02 -0.78254989874E+02 -0.35432973561E+02  0.15270735588E+03  0.12000000000E+03 0.  0.
         25    1    1    2    0    0 -0.39245349836E+02  0.78254989874E+02 -0.17065581539E+02  0.14951680507E+03  0.12000000000E+03 0.  0.
<mgrwt>
<rscale>  0 0.29762954E+03</rscale>
<asrwt>0</asrwt>
<pdfrwt beam="1">  1        2 0.19209662E-01 0.29762954E+03</pdfrwt>
<pdfrwt beam="2">  1       -2 0.27286363E-01 0.29762954E+03</pdfrwt>
<totfact> 0.35294229E+03</totfact>
</mgrwt>
</event>
<event>
 4    1  0.1777979E-004  0.2447443E+03  0.7818608E-02  0.1116672E+00
         -1   -1    0    0    0  501 -0.00000000000E+00  0.00000000000E+00  0.11785600134E+03  0.11785600134E+03  0.00000000000E+00 0. -1.
          1   -1    0    0  501    0  0.00000000000E+00 -0.00000000000E+00 -0.12706132276E+03  0.12706132276E+03  0.00000000000E+00 0. -1.
         25    1    1    2    0    0  0.11335360256E+02 -0.20664999726E+02 -0.90110927872E+01  0.12262435484E+03  0.12000000000E+03 0.  0.
         25    1    1    2    0    0 -0.11335360256E+02  0.20664999726E+02 -0.19422863788E+00  0.12229296926E+03  0.12000000000E+03 0.  0.
<mgrwt>
<rscale>  0 0.24474427E+03</rscale>
<asrwt>0</asrwt>
<pdfrwt beam="1">  1        1 0.19547896E-01 0.24474427E+03</pdfrwt>
<pdfrwt beam="2">  1       -1 0.18131692E-01 0.24474427E+03</pdfrwt>
<totfact> 0.61383641E+03</totfact>
</mgrwt>
</event>
<event>
 4    1  0.1777979E-004  0.3991965E+03  0.7818608E-02  0.1044058E+00
         -2   -1    0    0    0  501 -0.00000000000E+00  0.00000000000E+00  0.19006496027E+04  0.19006496027E+04  0.00000000000E+00 0. -1.
          2   -1    0    0  501    0  0.00000000000E+00 -0.00000000000E+00 -0.20960973322E+02  0.20960973322E+02  0.00000000000E+00 0. -1.
         25    1    1    2    0    0 -0.11810927929E+03  0.14117419733E+02  0.42835970549E+03  0.46047925109E+03  0.12000000000E+03 0.  0.
         25    1    1    2    0    0  0.11810927929E+03 -0.14117419733E+02  0.14513289239E+04  0.14611313249E+04  0.12000000000E+03 0.  0.
<mgrwt>
<rscale>  0 0.39919652E+03</rscale>
<asrwt>0</asrwt>
<pdfrwt beam="1">  1        2 0.32247666E-02 0.39919652E+03</pdfrwt>
<pdfrwt beam="2">  1       -2 0.29240750E+00 0.39919652E+03</pdfrwt>
<totfact> 0.11385133E+02</totfact>
</mgrwt>
</event>
<event>
 4    1  0.1777979E-004  0.2549282E+03  0.7818608E-02  0.1110229E+00
          2   -1    0    0  501    0  0.00000000000E+00  0.00000000000E+00  0.12972626574E+04  0.12972626574E+04  0.00000000000E+00 0.  1.
         -2   -1    0    0    0  501 -0.00000000000E+00 -0.00000000000E+00 -0.12524141440E+02  0.12524141440E+02  0.00000000000E+00 0.  1.
         25    1    1    2    0    0  0.26708556780E+02 -0.31148703914E+02  0.70806811500E+03  0.71933583550E+03  0.12000000000E+03 0.  0.
         25    1    1    2    0    0 -0.26708556780E+02  0.31148703914E+02  0.57667040099E+03  0.59045096336E+03  0.12000000000E+03 0.  0.
<mgrwt>
<rscale>  0 0.25492823E+03</rscale>
<asrwt>0</asrwt>
<pdfrwt beam="1">  1        2 0.19957876E+00 0.25492823E+03</pdfrwt>
<pdfrwt beam="2">  1       -2 0.19267920E-02 0.25492823E+03</pdfrwt>
<totfact> 0.14328237E+04</totfact>
</mgrwt>
</event>
<event>
 4    1  0.1777979E-004  0.3585904E+03  0.7818608E-02  0.1059143E+00
         -2   -1    0    0    0  501 -0.00000000000E+00  0.00000000000E+00  0.36782645691E+03  0.36782645691E+03  0.00000000000E+00 0. -1.
          2   -1    0    0  501    0  0.00000000000E+00 -0.00000000000E+00 -0.87396558135E+02  0.87396558135E+02  0.00000000000E+00 0. -1.
         25    1    1    2    0    0 -0.27183691845E+02  0.54952690601E+02  0.29035743921E+03  0.32010341112E+03  0.12000000000E+03 0.  0.
         25    1    1    2    0    0  0.27183691845E+02 -0.54952690601E+02 -0.99275404312E+01  0.13511960393E+03  0.12000000000E+03 0.  0.
<mgrwt>
<rscale>  0 0.35859039E+03</rscale>
<asrwt>0</asrwt>
<pdfrwt beam="1">  1        2 0.13445625E-01 0.35859039E+03</pdfrwt>
<pdfrwt beam="2">  1       -2 0.56588685E-01 0.35859039E+03</pdfrwt>
<totfact> 0.13352246E+03</totfact>
</mgrwt>
</event>
<event>
 4    1  0.1777979E-004  0.2692044E+03  0.7818608E-02  0.1101736E+00
         -1   -1    0    0    0  501 -0.00000000000E+00  0.00000000000E+00  0.23194968473E+02  0.23194968473E+02  0.00000000000E+00 0.  1.
          1   -1    0    0  501    0  0.00000000000E+00 -0.00000000000E+00 -0.78110701723E+03  0.78110701723E+03  0.00000000000E+00 0.  1.
         25    1    1    2    0    0 -0.17146798154E+02 -0.21049975613E+02 -0.21584187558E+03  0.24844482167E+03  0.12000000000E+03 0.  0.
         25    1    1    2    0    0  0.17146798154E+02  0.21049975613E+02 -0.54207017318E+03  0.55585716403E+03  0.12000000000E+03 0.  0.
<mgrwt>
<rscale>  0 0.26920440E+03</rscale>
<asrwt>0</asrwt>
<pdfrwt beam="1">  1        1 0.12017030E+00 0.26920440E+03</pdfrwt>
<pdfrwt beam="2">  1       -1 0.35684569E-02 0.26920440E+03</pdfrwt>
<totfact> 0.69502198E+03</totfact>
</mgrwt>
</event>
<event>
 4    1  0.1777979E-004  0.2722677E+03  0.7818608E-02  0.1099989E+00
          1   -1    0    0  501    0  0.00000000000E+00  0.00000000000E+00  0.51584192731E+03  0.51584192731E+03  0.00000000000E+00 0. -1.
         -1   -1    0    0    0  501 -0.00000000000E+00 -0.00000000000E+00 -0.35926545801E+02  0.35926545801E+02  0.00000000000E+00 0. -1.
         25    1    1    2    0    0  0.51199288121E+02 -0.31133384643E+02  0.19278769245E+03  0.23485686940E+03  0.12000000000E+03 0.  0.
         25    1    1    2    0    0 -0.51199288121E+02  0.31133384643E+02  0.28712768906E+03  0.31691160371E+03  0.12000000000E+03 0.  0.
<mgrwt>
<rscale>  0 0.27226765E+03</rscale>
<asrwt>0</asrwt>
<pdfrwt beam="1">  1        1 0.79360291E-01 0.27226765E+03</pdfrwt>
<pdfrwt beam="2">  1       -1 0.55271612E-02 0.27226765E+03</pdfrwt>
<totfact> 0.65178374E+03</totfact>
</mgrwt>
</event>
<event>
 4    1  0.1777979E-004  0.2503106E+03  0.7818608E-02  0.1113109E+00
         -1   -1    0    0    0  501 -0.00000000000E+00  0.00000000000E+00  0.43269161960E+02  0.43269161960E+02  0.00000000000E+00 0.  1.
          1   -1    0    0  501    0  0.00000000000E+00 -0.00000000000E+00 -0.36200960749E+03  0.36200960749E+03  0.00000000000E+00 0.  1.
         25    1    1    2    0    0  0.34716071285E+02 -0.75978397829E+01 -0.16092284271E+03  0.20386047700E+03  0.12000000000E+03 0.  0.
         25    1    1    2    0    0 -0.34716071285E+02  0.75978397829E+01 -0.15781760281E+03  0.20141829245E+03  0.12000000000E+03 0.  0.
<mgrwt>
<rscale>  0 0.25031063E+03</rscale>
<asrwt>0</asrwt>
<pdfrwt beam="1">  1        1 0.55693787E-01 0.25031063E+03</pdfrwt>
<pdfrwt beam="2">  1       -1 0.66567940E-02 0.25031063E+03</pdfrwt>
<totfact> 0.77709491E+03</totfact>
</mgrwt>
</event>
<event>
 4    1  0.1777979E-004  0.2689464E+03  0.7818608E-02  0.1101884E+00
         -1   -1    0    0    0  501 -0.00000000000E+00  0.00000000000E+00  0.16765294324E+03  0.16765294324E+03  0.00000000000E+00 0.  1.
          1   -1    0    0  501    0  0.00000000000E+00 -0.00000000000E+00 -0.10785999454E+03  0.10785999454E+03  0.00000000000E+00 0.  1.
         25    1    1    2    0    0 -0.42727758335E+02  0.39443571595E+02  0.47686798840E+02  0.14161739814E+03  0.12000000000E+03 0.  0.
         25    1    1    2    0    0  0.42727758335E+02 -0.39443571595E+02  0.12106149857E+02  0.13389553965E+03  0.12000000000E+03 0.  0.
<mgrwt>
<rscale>  0 0.26894643E+03</rscale>
<asrwt>0</asrwt>
<pdfrwt beam="1">  1        1 0.16593845E-01 0.26894643E+03</pdfrwt>
<pdfrwt beam="2">  1       -1 0.25792761E-01 0.26894643E+03</pdfrwt>
<totfact> 0.42775619E+03</totfact>
</mgrwt>
</event>
<event>
 4    1  0.1777979E-004  0.2619564E+03  0.7818608E-02  0.1105973E+00
          2   -1    0    0  501    0  0.00000000000E+00  0.00000000000E+00  0.17916800571E+03  0.17916800571E+03  0.00000000000E+00 0.  1.
         -2   -1    0    0    0  501 -0.00000000000E+00 -0.00000000000E+00 -0.95749755247E+02  0.95749755247E+02  0.00000000000E+00 0.  1.
         25    1    1    2    0    0  0.51206805891E+02  0.44051047777E+01  0.30516011361E+02  0.13406255580E+03  0.12000000000E+03 0.  0.
         25    1    1    2    0    0 -0.51206805891E+02 -0.44051047777E+01  0.52902239098E+02  0.14085520515E+03  0.12000000000E+03 0.  0.
<mgrwt>
<rscale>  0 0.26195643E+03</rscale>
<asrwt>0</asrwt>
<pdfrwt beam="1">  1        2 0.27564309E-01 0.26195643E+03</pdfrwt>
<pdfrwt beam="2">  1       -2 0.14730732E-01 0.26195643E+03</pdfrwt>
<totfact> 0.67270162E+03</totfact>
</mgrwt>
</event>
<event>
 4    1  0.1777979E-004  0.2603400E+03  0.7818608E-02  0.1106939E+00
          2   -1    0    0  501    0  0.00000000000E+00  0.00000000000E+00  0.97451388079E+02  0.97451388079E+02  0.00000000000E+00 0. -1.
         -2   -1    0    0    0  501 -0.00000000000E+00 -0.00000000000E+00 -0.17387369719E+03  0.17387369719E+03  0.00000000000E+00 0. -1.
         25    1    1    2    0    0 -0.46424330102E+02  0.14900103279E+02 -0.24742960673E+02  0.13186904719E+03  0.12000000000E+03 0.  0.
         25    1    1    2    0    0  0.46424330102E+02 -0.14900103279E+02 -0.51679348443E+02  0.13945603809E+03  0.12000000000E+03 0.  0.
<mgrwt>
<rscale>  0 0.26034003E+03</rscale>
<asrwt>0</asrwt>
<pdfrwt beam="1">  1        2 0.14992521E-01 0.26034003E+03</pdfrwt>
<pdfrwt beam="2">  1       -2 0.26749800E-01 0.26034003E+03</pdfrwt>
<totfact> 0.48649647E+03</totfact>
</mgrwt>
</event>
<event>
 4    1  0.1777979E-004  0.2807831E+03  0.7818608E-02  0.1095262E+00
          2   -1    0    0  501    0  0.00000000000E+00  0.00000000000E+00  0.18379873441E+04  0.18379873441E+04  0.00000000000E+00 0.  1.
         -2   -1    0    0    0  501 -0.00000000000E+00 -0.00000000000E+00 -0.10723570857E+02  0.10723570857E+02  0.00000000000E+00 0.  1.
         25    1    1    2    0    0 -0.66984822886E+02 -0.27953979981E+02  0.95599397491E+03  0.96622609753E+03  0.12000000000E+03 0.  0.
         25    1    1    2    0    0  0.66984822886E+02  0.27953979981E+02  0.87126979834E+03  0.88248481743E+03  0.12000000000E+03 0.  0.
<mgrwt>
<rscale>  0 0.28078310E+03</rscale>
<asrwt>0</asrwt>
<pdfrwt beam="1">  1        2 0.28276703E+00 0.28078310E+03</pdfrwt>
<pdfrwt beam="2">  1       -2 0.16497816E-02 0.28078310E+03</pdfrwt>
<totfact> 0.92781658E+03</totfact>
</mgrwt>
</event>
<event>
 4    1  0.1777979E-004  0.2516678E+03  0.7818608E-02  0.1112255E+00
         -2   -1    0    0    0  501 -0.00000000000E+00  0.00000000000E+00  0.17409867366E+02  0.17409867366E+02  0.00000000000E+00 0. -1.
          2   -1    0    0  501    0  0.00000000000E+00 -0.00000000000E+00 -0.90949426454E+03  0.90949426454E+03  0.00000000000E+00 0. -1.
         25    1    1    2    0    0  0.35492477157E+02 -0.83986977445E+00 -0.49459044132E+03  0.51017656351E+03  0.12000000000E+03 0.  0.
         25    1    1    2    0    0 -0.35492477157E+02  0.83986977445E+00 -0.39749395586E+03  0.41672756839E+03  0.12000000000E+03 0.  0.
<mgrwt>
<rscale>  0 0.25166783E+03</rscale>
<asrwt>0</asrwt>
<pdfrwt beam="1">  1        2 0.13992221E+00 0.25166783E+03</pdfrwt>
<pdfrwt beam="2">  1       -2 0.26784409E-02 0.25166783E+03</pdfrwt>
<totfact> 0.14910477E+04</totfact>
</mgrwt>
</event>
<event>
 4    1  0.1777979E-004  0.2641339E+03  0.7818608E-02  0.1104685E+00
         -1   -1    0    0    0  501 -0.00000000000E+00  0.00000000000E+00  0.71989454646E+02  0.71989454646E+02  0.00000000000E+00 0.  1.
          1   -1    0    0  501    0  0.00000000000E+00 -0.00000000000E+00 -0.24228105317E+03  0.24228105317E+03  0.00000000000E+00 0.  1.
         25    1    1    2    0    0 -0.22895466977E+02  0.43120241925E+02 -0.54622387913E+02  0.14059574294E+03  0.12000000000E+03 0.  0.
         25    1    1    2    0    0  0.22895466977E+02 -0.43120241925E+02 -0.11566921061E+03  0.17367476488E+03  0.12000000000E+03 0.  0.
<mgrwt>
<rscale>  0 0.26413391E+03</rscale>
<asrwt>0</asrwt>
<pdfrwt beam="1">  1        1 0.37274009E-01 0.26413391E+03</pdfrwt>
<pdfrwt beam="2">  1       -1 0.11075301E-01 0.26413391E+03</pdfrwt>
<totfact> 0.59159647E+03</totfact>
</mgrwt>
</event>
<event>
 4    1  0.1777979E-004  0.3302229E+03  0.7818608E-02  0.1071038E+00
          2   -1    0    0  501    0  0.00000000000E+00  0.00000000000E+00  0.12159364481E+03  0.12159364481E+03  0.00000000000E+00 0. -1.
         -2   -1    0    0    0  501 -0.00000000000E+00 -0.00000000000E+00 -0.22420404653E+03  0.22420404653E+03  0.00000000000E+00 0. -1.
         25    1    1    2    0    0 -0.79412327257E+02  0.65657091623E+02 -0.16932917104E+01  0.15817723805E+03  0.12000000000E+03 0.  0.
         25    1    1    2    0    0  0.79412327257E+02 -0.65657091623E+02 -0.10091711000E+03  0.18762045329E+03  0.12000000000E+03 0.  0.
<mgrwt>
<rscale>  0 0.33022288E+03</rscale>
<asrwt>0</asrwt>
<pdfrwt beam="1">  1        2 0.18706715E-01 0.33022288E+03</pdfrwt>
<pdfrwt beam="2">  1       -2 0.34492930E-01 0.33022288E+03</pdfrwt>
<totfact> 0.23765636E+03</totfact>
</mgrwt>
</event>
<event>
 4    1  0.1777979E-004  0.3268670E+03  0.7818608E-02  0.1072532E+00
          3   -1    0    0  501    0  0.00000000000E+00  0.00000000000E+00  0.13623729543E+02  0.13623729543E+02  0.00000000000E+00 0. -1.
         -3   -1    0    0    0  501 -0.00000000000E+00 -0.00000000000E+00 -0.19605873162E+04  0.19605873162E+04  0.00000000000E+00 0. -1.
         25    1    1    2    0    0  0.13463212785E+02  0.47780714945E+02 -0.15728008038E+04  0.15781529151E+04  0.12000000000E+03 0.  0.
         25    1    1    2    0    0 -0.13463212785E+02 -0.47780714945E+02 -0.37416278285E+03  0.39605813069E+03  0.12000000000E+03 0.  0.
<mgrwt>
<rscale>  0 0.32686701E+03</rscale>
<asrwt>0</asrwt>
<pdfrwt beam="1">  1        3 0.20959598E-02 0.32686701E+03</pdfrwt>
<pdfrwt beam="2">  1       -3 0.30162862E+00 0.32686701E+03</pdfrwt>
<totfact> 0.96876877E+01</totfact>
</mgrwt>
</event>
<event>
 4    1  0.1777979E-004  0.3032676E+03  0.7818608E-02  0.1083619E+00
         -1   -1    0    0    0  501 -0.00000000000E+00  0.00000000000E+00  0.11228243035E+04  0.11228243035E+04  0.00000000000E+00 0. -1.
          1   -1    0    0  501    0  0.00000000000E+00 -0.00000000000E+00 -0.20477651184E+02  0.20477651184E+02  0.00000000000E+00 0. -1.
         25    1    1    2    0    0 -0.31460291179E+02  0.89780462121E+01  0.22419828037E+03  0.25638881442E+03  0.12000000000E+03 0.  0.
         25    1    1    2    0    0  0.31460291179E+02 -0.89780462121E+01  0.87814837189E+03  0.88691314022E+03  0.12000000000E+03 0.  0.
<mgrwt>
<rscale>  0 0.30326757E+03</rscale>
<asrwt>0</asrwt>
<pdfrwt beam="1">  1        1 0.31504088E-02 0.30326757E+03</pdfrwt>
<pdfrwt beam="2">  1       -1 0.17274215E+00 0.30326757E+03</pdfrwt>
<totfact> 0.81941219E+02</totfact>
</mgrwt>
</event>
<event>
 4    1  0.1777979E-004  0.4148431E+03  0.7818608E-02  0.1038758E+00
         -2   -1    0    0    0  501 -0.00000000000E+00  0.00000000000E+00  0.16897397892E+03  0.16897397892E+03  0.00000000000E+00 0.  1.
          2   -1    0    0  501    0  0.00000000000E+00 -0.00000000000E+00 -0.25461730674E+03  0.25461730674E+03  0.00000000000E+00 0.  1.
         25    1    1    2    0    0  0.14133310505E+03  0.84971370236E+02 -0.81414453211E+02  0.21959848254E+03  0.12000000000E+03 0.  0.
         25    1    1    2    0    0 -0.14133310505E+03 -0.84971370236E+02 -0.42288746055E+01  0.20399280312E+03  0.12000000000E+03 0.  0.
<mgrwt>
<rscale>  0 0.41484310E+03</rscale>
<asrwt>0</asrwt>
<pdfrwt beam="1">  1        2 0.39171893E-01 0.41484310E+03</pdfrwt>
<pdfrwt beam="2">  1       -2 0.25995997E-01 0.41484310E+03</pdfrwt>
<totfact> 0.17453617E+03</totfact>
</mgrwt>
</event>
<event>
 4    1  0.1777979E-004  0.3731548E+03  0.7818608E-02  0.1053493E+00
         -1   -1    0    0    0  501 -0.00000000000E+00  0.00000000000E+00  0.41192333557E+02  0.41192333557E+02  0.00000000000E+00 0. -1.
          1   -1    0    0  501    0  0.00000000000E+00 -0.00000000000E+00 -0.84508759048E+03  0.84508759048E+03  0.00000000000E+00 0. -1.
         25    1    1    2    0    0  0.22576954767E+02 -0.11555640968E+03 -0.20975336984E+03  0.26881123277E+03  0.12000000000E+03 0.  0.
         25    1    1    2    0    0 -0.22576954767E+02  0.11555640968E+03 -0.59414188709E+03  0.61746869127E+03  0.12000000000E+03 0.  0.
<mgrwt>
<rscale>  0 0.37315482E+03</rscale>
<asrwt>0</asrwt>
<pdfrwt beam="1">  1        1 0.13001347E+00 0.37315482E+03</pdfrwt>
<pdfrwt beam="2">  1       -1 0.63372823E-02 0.37315482E+03</pdfrwt>
<totfact> 0.26068414E+03</totfact>
</mgrwt>
</event>
<event>
 4    1  0.1777979E-004  0.2775090E+03  0.7818608E-02  0.1097057E+00
          2   -1    0    0  501    0  0.00000000000E+00  0.00000000000E+00  0.41482030949E+03  0.41482030949E+03  0.00000000000E+00 0. -1.
         -2   -1    0    0    0  501 -0.00000000000E+00 -0.00000000000E+00 -0.46412421015E+02  0.46412421015E+02  0.00000000000E+00 0. -1.
         25    1    1    2    0    0 -0.59957764047E+02  0.12878109247E+02  0.23912785089E+03  0.27448662671E+03  0.12000000000E+03 0.  0.
         25    1    1    2    0    0  0.59957764047E+02 -0.12878109247E+02  0.12928003758E+03  0.18674610380E+03  0.12000000000E+03 0.  0.
<mgrwt>
<rscale>  0 0.27750903E+03</rscale>
<asrwt>0</asrwt>
<pdfrwt beam="1">  1        2 0.63818507E-01 0.27750903E+03</pdfrwt>
<pdfrwt beam="2">  1       -2 0.71403727E-02 0.27750903E+03</pdfrwt>
<totfact> 0.86128366E+03</totfact>
</mgrwt>
</event>
<event>
 4    1  0.1777979E-004  0.3598296E+03  0.7818608E-02  0.1058651E+00
          1   -1    0    0  501    0  0.00000000000E+00  0.00000000000E+00  0.50859687466E+02  0.50859687466E+02  0.00000000000E+00 0. -1.
         -1   -1    0    0    0  501 -0.00000000000E+00 -0.00000000000E+00 -0.63644394372E+03  0.63644394372E+03  0.00000000000E+00 0. -1.
         25    1    1    2    0    0 -0.99336615819E+02 -0.54952056677E+02 -0.42895621189E+03  0.45966392451E+03  0.12000000000E+03 0.  0.
         25    1    1    2    0    0  0.99336615819E+02  0.54952056677E+02 -0.15662804437E+03  0.22763970668E+03  0.12000000000E+03 0.  0.
<mgrwt>
<rscale>  0 0.35982963E+03</rscale>
<asrwt>0</asrwt>
<pdfrwt beam="1">  1        1 0.78245670E-02 0.35982963E+03</pdfrwt>
<pdfrwt beam="2">  1       -1 0.97914457E-01 0.35982963E+03</pdfrwt>
<totfact> 0.94959243E+02</totfact>
</mgrwt>
</event>
<event>
 4    1  0.1777979E-004  0.2588212E+03  0.7818608E-02  0.1107854E+00
         -2   -1    0    0    0  501 -0.00000000000E+00  0.00000000000E+00  0.25063691817E+04  0.25063691817E+04  0.00000000000E+00 0. -1.
          2   -1    0    0  501    0  0.00000000000E+00 -0.00000000000E+00 -0.66818164283E+01  0.66818164283E+01  0.00000000000E+00 0. -1.
         25    1    1    2    0    0 -0.45798281165E+02  0.15304494970E+02  0.12879328757E+04  0.12944121455E+04  0.12000000000E+03 0.  0.
         25    1    1    2    0    0  0.45798281165E+02 -0.15304494970E+02  0.12117544896E+04  0.12186388526E+04  0.12000000000E+03 0.  0.
<mgrwt>
<rscale>  0 0.25882116E+03</rscale>
<asrwt>0</asrwt>
<pdfrwt beam="1">  1        2 0.10279738E-02 0.25882116E+03</pdfrwt>
<pdfrwt beam="2">  1       -2 0.38559451E+00 0.25882116E+03</pdfrwt>
<totfact> 0.15471365E+02</totfact>
</mgrwt>
</event>
<event>
 4    1  0.1777979E-004  0.2809731E+03  0.7818608E-02  0.1095159E+00
         -2   -1    0    0    0  501 -0.00000000000E+00  0.00000000000E+00  0.28250417182E+02  0.28250417182E+02  0.00000000000E+00 0. -1.
          2   -1    0    0  501    0  0.00000000000E+00 -0.00000000000E+00 -0.69862574163E+03  0.69862574163E+03  0.00000000000E+00 0. -1.
         25    1    1    2    0    0 -0.28049081551E+02  0.65474455626E+01 -0.16151470858E+03  0.20326490378E+03  0.12000000000E+03 0.  0.
         25    1    1    2    0    0  0.28049081551E+02 -0.65474455626E+01 -0.50886061587E+03  0.52361125504E+03  0.12000000000E+03 0.  0.
<mgrwt>
<rscale>  0 0.28097309E+03</rscale>
<asrwt>0</asrwt>
<pdfrwt beam="1">  1        2 0.10748088E+00 0.28097309E+03</pdfrwt>
<pdfrwt beam="2">  1       -2 0.43462182E-02 0.28097309E+03</pdfrwt>
<totfact> 0.10159990E+04</totfact>
</mgrwt>
</event>
<event>
 4    1  0.1777979E-004  0.5159509E+03  0.7818608E-02  0.1009697E+00
          4   -1    0    0  501    0  0.00000000000E+00  0.00000000000E+00  0.29766397474E+03  0.29766397474E+03  0.00000000000E+00 0. -1.
         -4   -1    0    0    0  501 -0.00000000000E+00 -0.00000000000E+00 -0.22357868538E+03  0.22357868538E+03  0.00000000000E+00 0. -1.
         25    1    1    2    0    0  0.21550000508E+03 -0.37730977207E+02  0.10319277656E+03  0.27002338411E+03  0.12000000000E+03 0.  0.
         25    1    1    2    0    0 -0.21550000508E+03  0.37730977207E+02 -0.29107487204E+02  0.25121927602E+03  0.12000000000E+03 0.  0.
<mgrwt>
<rscale>  0 0.51595085E+03</rscale>
<asrwt>0</asrwt>
<pdfrwt beam="1">  1        4 0.45794458E-01 0.51595085E+03</pdfrwt>
<pdfrwt beam="2">  1       -4 0.34396721E-01 0.51595085E+03</pdfrwt>
<totfact> 0.74377492E+01</totfact>
</mgrwt>
</event>
<event>
 4    1  0.1777979E-004  0.3594536E+03  0.7818608E-02  0.1058800E+00
          2   -1    0    0  501    0  0.00000000000E+00  0.00000000000E+00  0.31324860900E+03  0.31324860900E+03  0.00000000000E+00 0.  1.
         -2   -1    0    0    0  501 -0.00000000000E+00 -0.00000000000E+00 -0.10311848358E+03  0.10311848358E+03  0.00000000000E+00 0.  1.
         25    1    1    2    0    0 -0.27907589142E+02 -0.12351465620E+03  0.15511548976E+03  0.23344275313E+03  0.12000000000E+03 0.  0.
         25    1    1    2    0    0  0.27907589142E+02  0.12351465620E+03  0.55014635666E+02  0.18292433945E+03  0.12000000000E+03 0.  0.
<mgrwt>
<rscale>  0 0.35945359E+03</rscale>
<asrwt>0</asrwt>
<pdfrwt beam="1">  1        2 0.48192093E-01 0.35945359E+03</pdfrwt>
<pdfrwt beam="2">  1       -2 0.15864382E-01 0.35945359E+03</pdfrwt>
<totfact> 0.32651827E+03</totfact>
</mgrwt>
</event>
<event>
 4    1  0.1777979E-004  0.2700586E+03  0.7818608E-02  0.1101246E+00
          4   -1    0    0  501    0  0.00000000000E+00  0.00000000000E+00  0.39247072093E+02  0.39247072093E+02  0.00000000000E+00 0. -1.
         -4   -1    0    0    0  501 -0.00000000000E+00 -0.00000000000E+00 -0.46456755072E+03  0.46456755072E+03  0.00000000000E+00 0. -1.
         25    1    1    2    0    0 -0.31949560427E+02 -0.51703412558E+02 -0.19067343722E+03  0.23334604548E+03  0.12000000000E+03 0.  0.
         25    1    1    2    0    0  0.31949560427E+02  0.51703412558E+02 -0.23464704140E+03  0.27046857733E+03  0.12000000000E+03 0.  0.
<mgrwt>
<rscale>  0 0.27005863E+03</rscale>
<asrwt>0</asrwt>
<pdfrwt beam="1">  1        4 0.60380112E-02 0.27005863E+03</pdfrwt>
<pdfrwt beam="2">  1       -4 0.71471930E-01 0.27005863E+03</pdfrwt>
<totfact> 0.59827552E+02</totfact>
</mgrwt>
</event>
<event>
 4    1  0.1777979E-004  0.2729225E+03  0.7818608E-02  0.1099619E+00
         -2   -1    0    0    0  501 -0.00000000000E+00  0.00000000000E+00  0.48902031517E+02  0.48902031517E+02  0.00000000000E+00 0.  1.
          2   -1    0    0  501    0  0.00000000000E+00 -0.00000000000E+00 -0.38079548066E+03  0.38079548066E+03  0.00000000000E+00 0.  1.
         25    1    1    2    0    0 -0.58274129991E+02  0.26439103570E+02 -0.14821971546E+03  0.20115661678E+03  0.12000000000E+03 0.  0.
         25    1    1    2    0    0  0.58274129991E+02 -0.26439103570E+02 -0.18367373368E+03  0.22854089540E+03  0.12000000000E+03 0.  0.
<mgrwt>
<rscale>  0 0.27292250E+03</rscale>
<asrwt>0</asrwt>
<pdfrwt beam="1">  1        2 0.58583920E-01 0.27292250E+03</pdfrwt>
<pdfrwt beam="2">  1       -2 0.75233895E-02 0.27292250E+03</pdfrwt>
<totfact> 0.87097390E+03</totfact>
</mgrwt>
</event>
<event>
 4    1  0.1777979E-004  0.2453021E+03  0.7818608E-02  0.1116310E+00
          1   -1    0    0  501    0  0.00000000000E+00  0.00000000000E+00  0.11176750593E+03  0.11176750593E+03  0.00000000000E+00 0. -1.
         -1   -1    0    0    0  501 -0.00000000000E+00 -0.00000000000E+00 -0.13459440345E+03  0.13459440345E+03  0.00000000000E+00 0. -1.
         25    1    1    2    0    0  0.85949496976E+01 -0.27096549298E+01 -0.35223794872E+02  0.12538712500E+03  0.12000000000E+03 0.  0.
         25    1    1    2    0    0 -0.85949496976E+01  0.27096549298E+01  0.12396897351E+02  0.12097478437E+03  0.12000000000E+03 0.  0.
<mgrwt>
<rscale>  0 0.24530211E+03</rscale>
<asrwt>0</asrwt>
<pdfrwt beam="1">  1        1 0.17195001E-01 0.24530211E+03</pdfrwt>
<pdfrwt beam="2">  1       -1 0.20706831E-01 0.24530211E+03</pdfrwt>
<totfact> 0.58452313E+03</totfact>
</mgrwt>
</event>
<event>
 4    1  0.1777979E-004  0.2812125E+03  0.7818608E-02  0.1095029E+00
          1   -1    0    0  501    0  0.00000000000E+00  0.00000000000E+00  0.55665908236E+03  0.55665908236E+03  0.00000000000E+00 0.  1.
         -1   -1    0    0    0  501 -0.00000000000E+00 -0.00000000000E+00 -0.35515665327E+02  0.35515665327E+02  0.00000000000E+00 0.  1.
         25    1    1    2    0    0 -0.58766784627E+02  0.16683648309E+02  0.17533948179E+03  0.22107874835E+03  0.12000000000E+03 0.  0.
         25    1    1    2    0    0  0.58766784627E+02 -0.16683648309E+02  0.34580393524E+03  0.37109599934E+03  0.12000000000E+03 0.  0.
<mgrwt>
<rscale>  0 0.28121250E+03</rscale>
<asrwt>0</asrwt>
<pdfrwt beam="1">  1        1 0.85639853E-01 0.28121250E+03</pdfrwt>
<pdfrwt beam="2">  1       -1 0.54639489E-02 0.28121250E+03</pdfrwt>
<totfact> 0.59896748E+03</totfact>
</mgrwt>
</event>
<event>
 4    1  0.1777979E-004  0.2964727E+03  0.7818608E-02  0.1087017E+00
          3   -1    0    0  501    0  0.00000000000E+00  0.00000000000E+00  0.45128246200E+03  0.45128246200E+03  0.00000000000E+00 0.  1.
         -3   -1    0    0    0  501 -0.00000000000E+00 -0.00000000000E+00 -0.48692374850E+02  0.48692374850E+02  0.00000000000E+00 0.  1.
         25    1    1    2    0    0 -0.70396120909E+02 -0.36457558268E+02  0.14074261321E+03  0.20122934817E+03  0.12000000000E+03 0.  0.
         25    1    1    2    0    0  0.70396120909E+02  0.36457558268E+02  0.26184747394E+03  0.29874548867E+03  0.12000000000E+03 0.  0.
<mgrwt>
<rscale>  0 0.29647270E+03</rscale>
<asrwt>0</asrwt>
<pdfrwt beam="1">  1        3 0.69428068E-01 0.29647270E+03</pdfrwt>
<pdfrwt beam="2">  1       -3 0.74911349E-02 0.29647270E+03</pdfrwt>
<totfact> 0.61577068E+02</totfact>
</mgrwt>
</event>
<event>
 4    1  0.1777979E-004  0.2511223E+03  0.7818608E-02  0.1112598E+00
         -2   -1    0    0    0  501 -0.00000000000E+00  0.00000000000E+00  0.11481679502E+02  0.11481679502E+02  0.00000000000E+00 0.  1.
          2   -1    0    0  501    0  0.00000000000E+00 -0.00000000000E+00 -0.13731091481E+04  0.13731091481E+04  0.00000000000E+00 0.  1.
         25    1    1    2    0    0  0.34350498437E+02 -0.47193143529E+01 -0.75128677632E+03  0.76159966448E+03  0.12000000000E+03 0.  0.
         25    1    1    2    0    0 -0.34350498437E+02  0.47193143529E+01 -0.61034069230E+03  0.62299116314E+03  0.12000000000E+03 0.  0.
<mgrwt>
<rscale>  0 0.25112227E+03</rscale>
<asrwt>0</asrwt>
<pdfrwt beam="1">  1        2 0.21124746E+00 0.25112227E+03</pdfrwt>
<pdfrwt beam="2">  1       -2 0.17664131E-02 0.25112227E+03</pdfrwt>
<totfact> 0.14781910E+04</totfact>
</mgrwt>
</event>
<event>
 4    1  0.1777979E-004  0.2861822E+03  0.7818608E-02  0.1092359E+00
         -2   -1    0    0    0  501 -0.00000000000E+00  0.00000000000E+00  0.27985193417E+02  0.27985193417E+02  0.00000000000E+00 0.  1.
          2   -1    0    0  501    0  0.00000000000E+00 -0.00000000000E+00 -0.73163931633E+03  0.73163931633E+03  0.00000000000E+00 0.  1.
         25    1    1    2    0    0  0.52447135401E+02 -0.10392102788E+02 -0.20129143354E+03  0.24036834032E+03  0.12000000000E+03 0.  0.
         25    1    1    2    0    0 -0.52447135401E+02  0.10392102788E+02 -0.50236268937E+03  0.51925616942E+03  0.12000000000E+03 0.  0.
<mgrwt>
<rscale>  0 0.28618223E+03</rscale>
<asrwt>0</asrwt>
<pdfrwt beam="1">  1        2 0.11255990E+00 0.28618223E+03</pdfrwt>
<pdfrwt beam="2">  1       -2 0.43054144E-02 0.28618223E+03</pdfrwt>
<totfact> 0.97455364E+03</totfact>
</mgrwt>
</event>
<event>
 4    1  0.1777979E-004  0.2904439E+03  0.7818608E-02  0.1090118E+00
         -4   -1    0    0    0  501 -0.00000000000E+00  0.00000000000E+00  0.55433603042E+02  0.55433603042E+02  0.00000000000E+00 0.  1.
          4   -1    0    0  501    0  0.00000000000E+00 -0.00000000000E+00 -0.38044450883E+03  0.38044450883E+03  0.00000000000E+00 0.  1.
         25    1    1    2    0    0 -0.46148207994E+02 -0.13642283743E+02 -0.63256847859E+02  0.14393469980E+03  0.12000000000E+03 0.  0.
         25    1    1    2    0    0  0.46148207994E+02  0.13642283743E+02 -0.26175405793E+03  0.29194341207E+03  0.12000000000E+03 0.  0.
<mgrwt>
<rscale>  0 0.29044387E+03</rscale>
<asrwt>0</asrwt>
<pdfrwt beam="1">  1        4 0.58529923E-01 0.29044387E+03</pdfrwt>
<pdfrwt beam="2">  1       -4 0.85282468E-02 0.29044387E+03</pdfrwt>
<totfact> 0.52331461E+02</totfact>
</mgrwt>
</event>
<event>
 4    1  0.1777979E-004  0.2996949E+03  0.7818608E-02  0.1085393E+00
          1   -1    0    0  501    0  0.00000000000E+00  0.00000000000E+00  0.11206333459E+03  0.11206333459E+03  0.00000000000E+00 0. -1.
         -1   -1    0    0    0  501 -0.00000000000E+00 -0.00000000000E+00 -0.20037112139E+03  0.20037112139E+03  0.00000000000E+00 0. -1.
         25    1    1    2    0    0  0.87243652143E+02 -0.75550331052E+01 -0.23679211382E+02  0.15043017788E+03  0.12000000000E+03 0.  0.
         25    1    1    2    0    0 -0.87243652143E+02  0.75550331052E+01 -0.64628575422E+02  0.16200427811E+03  0.12000000000E+03 0.  0.
<mgrwt>
<rscale>  0 0.29969488E+03</rscale>
<asrwt>0</asrwt>
<pdfrwt beam="1">  1        1 0.17240513E-01 0.29969488E+03</pdfrwt>
<pdfrwt beam="2">  1       -1 0.30826326E-01 0.29969488E+03</pdfrwt>
<totfact> 0.30198573E+03</totfact>
</mgrwt>
</event>
<event>
 4    1  0.1777979E-004  0.2823941E+03  0.7818608E-02  0.1094388E+00
          2   -1    0    0  501    0  0.00000000000E+00  0.00000000000E+00  0.25287972128E+03  0.25287972128E+03  0.00000000000E+00 0.  1.
         -2   -1    0    0    0  501 -0.00000000000E+00 -0.00000000000E+00 -0.78838318994E+02  0.78838318994E+02  0.00000000000E+00 0.  1.
         25    1    1    2    0    0  0.28230990705E+02 -0.14897878492E+02  0.80672750321E+01  0.12443478833E+03  0.12000000000E+03 0.  0.
         25    1    1    2    0    0 -0.28230990705E+02  0.14897878492E+02  0.16597412726E+03  0.20728325195E+03  0.12000000000E+03 0.  0.
<mgrwt>
<rscale>  0 0.28239414E+03</rscale>
<asrwt>0</asrwt>
<pdfrwt beam="1">  1        2 0.38904572E-01 0.28239414E+03</pdfrwt>
<pdfrwt beam="2">  1       -2 0.12128972E-01 0.28239414E+03</pdfrwt>
<totfact> 0.63609059E+03</totfact>
</mgrwt>
</event>
<event>
 4    1  0.1777979E-004  0.2872753E+03  0.7818608E-02  0.1091780E+00
          2   -1    0    0  501    0  0.00000000000E+00  0.00000000000E+00  0.15569903397E+04  0.15569903397E+04  0.00000000000E+00 0.  1.
         -2   -1    0    0    0  501 -0.00000000000E+00 -0.00000000000E+00 -0.13251061554E+02  0.13251061554E+02  0.00000000000E+00 0.  1.
         25    1    1    2    0    0  0.72652582252E+02  0.21211598806E+02  0.89451305426E+03  0.90569417238E+03  0.12000000000E+03 0.  0.
         25    1    1    2    0    0 -0.72652582252E+02 -0.21211598806E+02  0.64922622393E+03  0.66454722892E+03  0.12000000000E+03 0.  0.
<mgrwt>
<rscale>  0 0.28727530E+03</rscale>
<asrwt>0</asrwt>
<pdfrwt beam="1">  1        2 0.23953683E+00 0.28727530E+03</pdfrwt>
<pdfrwt beam="2">  1       -2 0.20386261E-02 0.28727530E+03</pdfrwt>
<totfact> 0.95687553E+03</totfact>
</mgrwt>
</event>
<event>
 4    1  0.1777979E-004  0.2678903E+03  0.7818608E-02  0.1102493E+00
          2   -1    0    0  501    0  0.00000000000E+00  0.00000000000E+00  0.12169243612E+03  0.12169243612E+03  0.00000000000E+00 0. -1.
         -2   -1    0    0    0  501 -0.00000000000E+00 -0.00000000000E+00 -0.14743155306E+03  0.14743155306E+03  0.00000000000E+00 0. -1.
         25    1    1    2    0    0  0.52417815356E+02 -0.27553965532E+02 -0.69725629680E+01  0.13399800378E+03  0.12000000000E+03 0.  0.
         25    1    1    2    0    0 -0.52417815356E+02  0.27553965532E+02 -0.18766553975E+02  0.13512598540E+03  0.12000000000E+03 0.  0.
<mgrwt>
<rscale>  0 0.26789031E+03</rscale>
<asrwt>0</asrwt>
<pdfrwt beam="1">  1        2 0.18721913E-01 0.26789031E+03</pdfrwt>
<pdfrwt beam="2">  1       -2 0.22681777E-01 0.26789031E+03</pdfrwt>
<totfact> 0.50212485E+03</totfact>
</mgrwt>
</event>
<event>
 4    1  0.1777979E-004  0.2518151E+03  0.7818608E-02  0.1112163E+00
          3   -1    0    0  501    0  0.00000000000E+00  0.00000000000E+00  0.17511727062E+03  0.17511727062E+03  0.00000000000E+00 0.  1.
         -3   -1    0    0    0  501 -0.00000000000E+00 -0.00000000000E+00 -0.90526237645E+02  0.90526237645E+02  0.00000000000E+00 0.  1.
         25    1    1    2    0    0  0.26101912458E+02  0.26525383692E+02  0.50981884645E+02  0.13558782532E+03  0.12000000000E+03 0.  0.
         25    1    1    2    0    0 -0.26101912458E+02 -0.26525383692E+02  0.33609148330E+02  0.13005568294E+03  0.12000000000E+03 0.  0.
<mgrwt>
<rscale>  0 0.25181507E+03</rscale>
<asrwt>0</asrwt>
<pdfrwt beam="1">  1        3 0.26941118E-01 0.25181507E+03</pdfrwt>
<pdfrwt beam="2">  1       -3 0.13927114E-01 0.25181507E+03</pdfrwt>
<totfact> 0.13919625E+03</totfact>
</mgrwt>
</event>
<event>
 4    1  0.1777979E-004  0.3005965E+03  0.7818608E-02  0.1084943E+00
         -2   -1    0    0    0  501 -0.00000000000E+00  0.00000000000E+00  0.31512046057E+02  0.31512046057E+02  0.00000000000E+00 0. -1.
          2   -1    0    0  501    0  0.00000000000E+00 -0.00000000000E+00 -0.71685509002E+03  0.71685509002E+03  0.00000000000E+00 0. -1.
         25    1    1    2    0    0 -0.41798854417E+02 -0.53645050989E+02 -0.49131239607E+03  0.51030658066E+03  0.12000000000E+03 0.  0.
         25    1    1    2    0    0  0.41798854417E+02  0.53645050989E+02 -0.19403064789E+03  0.23806055542E+03  0.12000000000E+03 0.  0.
<mgrwt>
<rscale>  0 0.30059654E+03</rscale>
<asrwt>0</asrwt>
<pdfrwt beam="1">  1        2 0.11028539E+00 0.30059654E+03</pdfrwt>
<pdfrwt beam="2">  1       -2 0.48480074E-02 0.30059654E+03</pdfrwt>
<totfact> 0.83601838E+03</totfact>
</mgrwt>
</event>
<event>
 4    1  0.1777979E-004  0.3043570E+03  0.7818608E-02  0.1083083E+00
         -1   -1    0    0    0  501 -0.00000000000E+00  0.00000000000E+00  0.40538747750E+02  0.40538747750E+02  0.00000000000E+00 0. -1.
          1   -1    0    0  501    0  0.00000000000E+00 -0.00000000000E+00 -0.57126315405E+03  0.57126315405E+03  0.00000000000E+00 0. -1.
         25    1    1    2    0    0  0.22672835397E+02  0.89516910077E+02 -0.23481339352E+03  0.27940054480E+03  0.12000000000E+03 0.  0.
         25    1    1    2    0    0 -0.22672835397E+02 -0.89516910077E+02 -0.29591101277E+03  0.33240135700E+03  0.12000000000E+03 0.  0.
<mgrwt>
<rscale>  0 0.30435698E+03</rscale>
<asrwt>0</asrwt>
<pdfrwt beam="1">  1        1 0.87886646E-01 0.30435698E+03</pdfrwt>
<pdfrwt beam="2">  1       -1 0.62367299E-02 0.30435698E+03</pdfrwt>
<totfact> 0.47436457E+03</totfact>
</mgrwt>
</event>
<event>
 4    1  0.1777979E-004  0.2485684E+03  0.7818608E-02  0.1114213E+00
          3   -1    0    0  501    0  0.00000000000E+00  0.00000000000E+00  0.33520333072E+02  0.33520333072E+02  0.00000000000E+00 0.  1.
         -3   -1    0    0    0  501 -0.00000000000E+00 -0.00000000000E+00 -0.46081190016E+03  0.46081190016E+03  0.00000000000E+00 0.  1.
         25    1    1    2    0    0 -0.17836679483E+02  0.15946443884E+02 -0.17034231941E+03  0.20973540948E+03  0.12000000000E+03 0.  0.
         25    1    1    2    0    0  0.17836679483E+02 -0.15946443884E+02 -0.25694924767E+03  0.28459682375E+03  0.12000000000E+03 0.  0.
<mgrwt>
<rscale>  0 0.24856845E+03</rscale>
<asrwt>0</asrwt>
<pdfrwt beam="1">  1        3 0.51569747E-02 0.24856845E+03</pdfrwt>
<pdfrwt beam="2">  1       -3 0.70894134E-01 0.24856845E+03</pdfrwt>
<totfact> 0.10565011E+03</totfact>
</mgrwt>
</event>
<event>
 4    1  0.1777979E-004  0.2492378E+03  0.7818608E-02  0.1113787E+00
          2   -1    0    0  501    0  0.00000000000E+00  0.00000000000E+00  0.98830188945E+03  0.98830188945E+03  0.00000000000E+00 0. -1.
         -2   -1    0    0    0  501 -0.00000000000E+00 -0.00000000000E+00 -0.15713693637E+02  0.15713693637E+02  0.00000000000E+00 0. -1.
         25    1    1    2    0    0 -0.78937827199E+01  0.24467175166E+02  0.57352598243E+03  0.58650917042E+03  0.12000000000E+03 0.  0.
         25    1    1    2    0    0  0.78937827199E+01 -0.24467175166E+02  0.39906221338E+03  0.41750641266E+03  0.12000000000E+03 0.  0.
<mgrwt>
<rscale>  0 0.24923782E+03</rscale>
<asrwt>0</asrwt>
<pdfrwt beam="1">  1        2 0.15204640E+00 0.24923782E+03</pdfrwt>
<pdfrwt beam="2">  1       -2 0.24174921E-02 0.24923782E+03</pdfrwt>
<totfact> 0.15478012E+04</totfact>
</mgrwt>
</event>
<event>
 4    1  0.1777979E-004  0.3275165E+03  0.7818608E-02  0.1072241E+00
          2   -1    0    0  501    0  0.00000000000E+00  0.00000000000E+00  0.36235727197E+04  0.36235727197E+04  0.00000000000E+00 0. -1.
         -2   -1    0    0    0  501 -0.00000000000E+00 -0.00000000000E+00 -0.74006411884E+01  0.74006411884E+01  0.00000000000E+00 0. -1.
         25    1    1    2    0    0 -0.96813109933E+02  0.65217875865E+01  0.12007131175E+04  0.12105896507E+04  0.12000000000E+03 0.  0.
         25    1    1    2    0    0  0.96813109933E+02 -0.65217875865E+01  0.24154589610E+04  0.24203837101E+04  0.12000000000E+03 0.  0.
<mgrwt>
<rscale>  0 0.32751648E+03</rscale>
<asrwt>0</asrwt>
<pdfrwt beam="1">  1        2 0.55747131E+00 0.32751648E+03</pdfrwt>
<pdfrwt beam="2">  1       -2 0.11385631E-02 0.32751648E+03</pdfrwt>
<totfact> 0.14644933E+03</totfact>
</mgrwt>
</event>
<event>
 4    1  0.1777979E-004  0.2659891E+03  0.7818608E-02  0.1103597E+00
          1   -1    0    0  501    0  0.00000000000E+00  0.00000000000E+00  0.13316588021E+03  0.13316588021E+03  0.00000000000E+00 0.  1.
         -1   -1    0    0    0  501 -0.00000000000E+00 -0.00000000000E+00 -0.13282340966E+03  0.13282340966E+03  0.00000000000E+00 0.  1.
         25    1    1    2    0    0 -0.19370647022E+02 -0.49327104569E+02 -0.21718530456E+02  0.13296646110E+03  0.12000000000E+03 0.  0.
         25    1    1    2    0    0  0.19370647022E+02  0.49327104569E+02  0.22061001006E+02  0.13302282878E+03  0.12000000000E+03 0.  0.
<mgrwt>
<rscale>  0 0.26598907E+03</rscale>
<asrwt>0</asrwt>
<pdfrwt beam="1">  1        1 0.20487059E-01 0.26598907E+03</pdfrwt>
<pdfrwt beam="2">  1       -1 0.20434371E-01 0.26598907E+03</pdfrwt>
<totfact> 0.47772560E+03</totfact>
</mgrwt>
</event>
<event>
 4    1  0.1777979E-004  0.3916022E+03  0.7818608E-02  0.1046727E+00
         -2   -1    0    0    0  501 -0.00000000000E+00  0.00000000000E+00  0.15472270135E+02  0.15472270135E+02  0.00000000000E+00 0.  1.
          2   -1    0    0  501    0  0.00000000000E+00 -0.00000000000E+00 -0.24778563161E+04  0.24778563161E+04  0.00000000000E+00 0.  1.
         25    1    1    2    0    0 -0.70053503849E+02 -0.13783722961E+03 -0.12669079710E+04  0.12819369728E+04  0.12000000000E+03 0.  0.
         25    1    1    2    0    0  0.70053503849E+02  0.13783722961E+03 -0.11954760750E+04  0.12113916135E+04  0.12000000000E+03 0.  0.
<mgrwt>
<rscale>  0 0.39160216E+03</rscale>
<asrwt>0</asrwt>
<pdfrwt beam="1">  1        2 0.38120843E+00 0.39160216E+03</pdfrwt>
<pdfrwt beam="2">  1       -2 0.23803507E-02 0.39160216E+03</pdfrwt>
<totfact> 0.24422719E+03</totfact>
</mgrwt>
</event>
<event>
 4    1  0.1777979E-004  0.2503450E+03  0.7818608E-02  0.1113087E+00
         -2   -1    0    0    0  501 -0.00000000000E+00  0.00000000000E+00  0.13479449558E+02  0.13479449558E+02  0.00000000000E+00 0. -1.
          2   -1    0    0  501    0  0.00000000000E+00 -0.00000000000E+00 -0.11623737152E+04  0.11623737152E+04  0.00000000000E+00 0. -1.
         25    1    1    2    0    0  0.16069393399E+02 -0.29948109810E+02 -0.62438572612E+03  0.63672022872E+03  0.12000000000E+03 0.  0.
         25    1    1    2    0    0 -0.16069393399E+02  0.29948109810E+02 -0.52450853955E+03  0.53913293606E+03  0.12000000000E+03 0.  0.
<mgrwt>
<rscale>  0 0.25034502E+03</rscale>
<asrwt>0</asrwt>
<pdfrwt beam="1">  1        2 0.17882680E+00 0.25034502E+03</pdfrwt>
<pdfrwt beam="2">  1       -2 0.20737606E-02 0.25034502E+03</pdfrwt>
<totfact> 0.15305926E+04</totfact>
</mgrwt>
</event>
<event>
 4    1  0.1777979E-004  0.3340586E+03  0.7818608E-02  0.1069355E+00
          2   -1    0    0  501    0  0.00000000000E+00  0.00000000000E+00  0.10752596374E+04  0.10752596374E+04  0.00000000000E+00 0. -1.
         -2   -1    0    0    0  501 -0.00000000000E+00 -0.00000000000E+00 -0.25946100611E+02  0.25946100611E+02  0.00000000000E+00 0. -1.
         25    1    1    2    0    0 -0.93905184537E+02  0.50708854111E+02  0.37326334289E+03  0.40634356733E+03  0.12000000000E+03 0.  0.
         25    1    1    2    0    0  0.93905184537E+02 -0.50708854111E+02  0.67605019394E+03  0.69486217072E+03  0.12000000000E+03 0.  0.
<mgrwt>
<rscale>  0 0.33405865E+03</rscale>
<asrwt>0</asrwt>
<pdfrwt beam="1">  1        2 0.16542453E+00 0.33405865E+03</pdfrwt>
<pdfrwt beam="2">  1       -2 0.39917086E-02 0.33405865E+03</pdfrwt>
<totfact> 0.65385208E+03</totfact>
</mgrwt>
</event>
<event>
 4    1  0.1777979E-004  0.3648164E+03  0.7818608E-02  0.1056693E+00
          1   -1    0    0  501    0  0.00000000000E+00  0.00000000000E+00  0.51640260024E+03  0.51640260024E+03  0.00000000000E+00 0. -1.
         -1   -1    0    0    0  501 -0.00000000000E+00 -0.00000000000E+00 -0.64431804870E+02  0.64431804870E+02  0.00000000000E+00 0. -1.
         25    1    1    2    0    0  0.11120292650E+03 -0.67736909092E+02  0.29571936541E+03  0.34468002958E+03  0.12000000000E+03 0.  0.
         25    1    1    2    0    0 -0.11120292650E+03  0.67736909092E+02  0.15625142996E+03  0.23615437553E+03  0.12000000000E+03 0.  0.
<mgrwt>
<rscale>  0 0.36481640E+03</rscale>
<asrwt>0</asrwt>
<pdfrwt beam="1">  1        1 0.79446551E-01 0.36481640E+03</pdfrwt>
<pdfrwt beam="2">  1       -1 0.99125857E-02 0.36481640E+03</pdfrwt>
<totfact> 0.26809777E+03</totfact>
</mgrwt>
</event>
<event>
 4    1  0.1777979E-004  0.2536692E+03  0.7818608E-02  0.1111008E+00
          2   -1    0    0  501    0  0.00000000000E+00  0.00000000000E+00  0.14561440217E+03  0.14561440217E+03  0.00000000000E+00 0.  1.
         -2   -1    0    0    0  501 -0.00000000000E+00 -0.00000000000E+00 -0.11047686083E+03  0.11047686083E+03  0.00000000000E+00 0.  1.
         25    1    1    2    0    0 -0.34348579605E+02 -0.19751960103E+02  0.28491369765E+02  0.12954428972E+03  0.12000000000E+03 0.  0.
         25    1    1    2    0    0  0.34348579605E+02  0.19751960103E+02  0.66461715780E+01  0.12654697328E+03  0.12000000000E+03 0.  0.
<mgrwt>
<rscale>  0 0.25366925E+03</rscale>
<asrwt>0</asrwt>
<pdfrwt beam="1">  1        2 0.22402216E-01 0.25366925E+03</pdfrwt>
<pdfrwt beam="2">  1       -2 0.16996440E-01 0.25366925E+03</pdfrwt>
<totfact> 0.66784090E+03</totfact>
</mgrwt>
</event>
<event>
 4    1  0.1777979E-004  0.2597530E+03  0.7818608E-02  0.1107292E+00
         -2   -1    0    0    0  501 -0.00000000000E+00  0.00000000000E+00  0.15370066725E+03  0.15370066725E+03  0.00000000000E+00 0.  1.
          2   -1    0    0  501    0  0.00000000000E+00 -0.00000000000E+00 -0.10974516572E+03  0.10974516572E+03  0.00000000000E+00 0.  1.
         25    1    1    2    0    0  0.69634591380E+01  0.49555655887E+01  0.71610762408E+02  0.14000410239E+03  0.12000000000E+03 0.  0.
         25    1    1    2    0    0 -0.69634591380E+01 -0.49555655887E+01 -0.27655260874E+02  0.12344173058E+03  0.12000000000E+03 0.  0.
<mgrwt>
<rscale>  0 0.25975300E+03</rscale>
<asrwt>0</asrwt>
<pdfrwt beam="1">  1        2 0.16883872E-01 0.25975300E+03</pdfrwt>
<pdfrwt beam="2">  1       -2 0.23646256E-01 0.25975300E+03</pdfrwt>
<totfact> 0.52586091E+03</totfact>
</mgrwt>
</event>
<event>
 4    1  0.1777979E-004  0.3549570E+03  0.7818608E-02  0.1060599E+00
         -2   -1    0    0    0  501 -0.00000000000E+00  0.00000000000E+00  0.11519462222E+03  0.11519462222E+03  0.00000000000E+00 0. -1.
          2   -1    0    0  501    0  0.00000000000E+00 -0.00000000000E+00 -0.27343833597E+03  0.27343833597E+03  0.00000000000E+00 0. -1.
         25    1    1    2    0    0 -0.46524504486E+02  0.42912489432E+02 -0.20440049400E+03  0.24532748157E+03  0.12000000000E+03 0.  0.
         25    1    1    2    0    0  0.46524504486E+02 -0.42912489432E+02  0.46156780243E+02  0.14330547662E+03  0.12000000000E+03 0.  0.
<mgrwt>
<rscale>  0 0.35495704E+03</rscale>
<asrwt>0</asrwt>
<pdfrwt beam="1">  1        2 0.42067435E-01 0.35495704E+03</pdfrwt>
<pdfrwt beam="2">  1       -2 0.17722250E-01 0.35495704E+03</pdfrwt>
<totfact> 0.31397952E+03</totfact>
</mgrwt>
</event>
<event>
 4    1  0.1777979E-004  0.3246009E+03  0.7818608E-02  0.1073551E+00
         -1   -1    0    0    0  501 -0.00000000000E+00  0.00000000000E+00  0.68202780245E+02  0.68202780245E+02  0.00000000000E+00 0.  1.
          1   -1    0    0  501    0  0.00000000000E+00 -0.00000000000E+00 -0.38622227303E+03  0.38622227303E+03  0.00000000000E+00 0.  1.
         25    1    1    2    0    0  0.64261348060E+02  0.38463864967E+02 -0.47606404158E+02  0.14924931986E+03  0.12000000000E+03 0.  0.
         25    1    1    2    0    0 -0.64261348060E+02 -0.38463864967E+02 -0.27041308862E+03  0.30517573341E+03  0.12000000000E+03 0.  0.
<mgrwt>
<rscale>  0 0.32460088E+03</rscale>
<asrwt>0</asrwt>
<pdfrwt beam="1">  1        1 0.59418811E-01 0.32460088E+03</pdfrwt>
<pdfrwt beam="2">  1       -1 0.10492735E-01 0.32460088E+03</pdfrwt>
<totfact> 0.35885837E+03</totfact>
</mgrwt>
</event>
<event>
 4    1  0.1777979E-004  0.3407349E+03  0.7818608E-02  0.1066483E+00
         -2   -1    0    0    0  501 -0.00000000000E+00  0.00000000000E+00  0.28928098097E+03  0.28928098097E+03  0.00000000000E+00 0.  1.
          2   -1    0    0  501    0  0.00000000000E+00 -0.00000000000E+00 -0.10033518966E+03  0.10033518966E+03  0.00000000000E+00 0.  1.
         25    1    1    2    0    0  0.11911275863E+03  0.68694323088E+01  0.11705507805E+03  0.20575939751E+03  0.12000000000E+03 0.  0.
         25    1    1    2    0    0 -0.11911275863E+03 -0.68694323088E+01  0.71890713257E+02  0.18385677312E+03  0.12000000000E+03 0.  0.
<mgrwt>
<rscale>  0 0.34073487E+03</rscale>
<asrwt>0</asrwt>
<pdfrwt beam="1">  1        2 0.15436183E-01 0.34073487E+03</pdfrwt>
<pdfrwt beam="2">  1       -2 0.44504766E-01 0.34073487E+03</pdfrwt>
<totfact> 0.18310757E+03</totfact>
</mgrwt>
</event>
<event>
 4    1  0.1777979E-004  0.2641840E+03  0.7818608E-02  0.1104655E+00
         -1   -1    0    0    0  501 -0.00000000000E+00  0.00000000000E+00  0.13698046287E+02  0.13698046287E+02  0.00000000000E+00 0. -1.
          1   -1    0    0  501    0  0.00000000000E+00 -0.00000000000E+00 -0.12737797996E+04  0.12737797996E+04  0.00000000000E+00 0. -1.
         25    1    1    2    0    0  0.49011015667E+02  0.20374491681E+02 -0.70412559440E+03  0.71624720052E+03  0.12000000000E+03 0.  0.
         25    1    1    2    0    0 -0.49011015667E+02 -0.20374491681E+02 -0.55595615888E+03  0.57123064533E+03  0.12000000000E+03 0.  0.
<mgrwt>
<rscale>  0 0.26418399E+03</rscale>
<asrwt>0</asrwt>
<pdfrwt beam="1">  1        1 0.19596610E+00 0.26418399E+03</pdfrwt>
<pdfrwt beam="2">  1       -1 0.21073919E-02 0.26418399E+03</pdfrwt>
<totfact> 0.64528522E+03</totfact>
</mgrwt>
</event>
<event>
 4    1  0.1777979E-004  0.2468592E+03  0.7818608E-02  0.1115306E+00
         -2   -1    0    0    0  501 -0.00000000000E+00  0.00000000000E+00  0.64239674023E+01  0.64239674023E+01  0.00000000000E+00 0.  1.
          2   -1    0    0  501    0  0.00000000000E+00 -0.00000000000E+00 -0.23715673476E+04  0.23715673476E+04  0.00000000000E+00 0.  1.
         25    1    1    2    0    0 -0.23032722325E+02  0.17237034177E+02 -0.11566346427E+04  0.11631987442E+04  0.12000000000E+03 0.  0.
         25    1    1    2    0    0  0.23032722325E+02 -0.17237034177E+02 -0.12085087374E+04  0.12147925708E+04  0.12000000000E+03 0.  0.
<mgrwt>
<rscale>  0 0.24685924E+03</rscale>
<asrwt>0</asrwt>
<pdfrwt beam="1">  1        2 0.36485638E+00 0.24685924E+03</pdfrwt>
<pdfrwt beam="2">  1       -2 0.98830304E-03 0.24685924E+03</pdfrwt>
<totfact> 0.10205668E+04</totfact>
</mgrwt>
</event>
<event>
 4    1  0.1777979E-004  0.2476868E+03  0.7818608E-02  0.1114776E+00
          3   -1    0    0  501    0  0.00000000000E+00  0.00000000000E+00  0.29759755491E+02  0.29759755491E+02  0.00000000000E+00 0.  1.
         -3   -1    0    0    0  501 -0.00000000000E+00 -0.00000000000E+00 -0.51536652226E+03  0.51536652226E+03  0.00000000000E+00 0.  1.
         25    1    1    2    0    0  0.15060457426E+02  0.11724122775E+02 -0.19012441507E+03  0.22563591390E+03  0.12000000000E+03 0.  0.
         25    1    1    2    0    0 -0.15060457426E+02 -0.11724122775E+02 -0.29548235170E+03  0.31949036386E+03  0.12000000000E+03 0.  0.
<mgrwt>
<rscale>  0 0.24768675E+03</rscale>
<asrwt>0</asrwt>
<pdfrwt beam="1">  1        3 0.45784242E-02 0.24768675E+03</pdfrwt>
<pdfrwt beam="2">  1       -3 0.79287152E-01 0.24768675E+03</pdfrwt>
<totfact> 0.10018792E+03</totfact>
</mgrwt>
</event>
<event>
 4    1  0.1777979E-004  0.2590411E+03  0.7818608E-02  0.1107721E+00
         -2   -1    0    0    0  501 -0.00000000000E+00  0.00000000000E+00  0.89051669524E+02  0.89051669524E+02  0.00000000000E+00 0. -1.
          2   -1    0    0  501    0  0.00000000000E+00 -0.00000000000E+00 -0.18838028756E+03  0.18838028756E+03  0.00000000000E+00 0. -1.
         25    1    1    2    0    0 -0.37499957787E+02 -0.24566808012E+02 -0.70148182578E+02  0.14604979428E+03  0.12000000000E+03 0.  0.
         25    1    1    2    0    0  0.37499957787E+02  0.24566808012E+02 -0.29180435458E+02  0.13138216281E+03  0.12000000000E+03 0.  0.
<mgrwt>
<rscale>  0 0.25904115E+03</rscale>
<asrwt>0</asrwt>
<pdfrwt beam="1">  1        2 0.28981583E-01 0.25904115E+03</pdfrwt>
<pdfrwt beam="2">  1       -2 0.13700257E-01 0.25904115E+03</pdfrwt>
<totfact> 0.71666914E+03</totfact>
</mgrwt>
</event>
<event>
 4    1  0.1777979E-004  0.3006148E+03  0.7818608E-02  0.1084934E+00
         -2   -1    0    0    0  501 -0.00000000000E+00  0.00000000000E+00  0.12871882661E+03  0.12871882661E+03  0.00000000000E+00 0. -1.
          2   -1    0    0  501    0  0.00000000000E+00 -0.00000000000E+00 -0.17551674283E+03  0.17551674283E+03  0.00000000000E+00 0. -1.
         25    1    1    2    0    0 -0.41817563260E+02  0.73309717369E+02 -0.56492755741E+02  0.15720831628E+03  0.12000000000E+03 0.  0.
         25    1    1    2    0    0  0.41817563260E+02 -0.73309717369E+02  0.96948395269E+01  0.14702725316E+03  0.12000000000E+03 0.  0.
<mgrwt>
<rscale>  0 0.30061476E+03</rscale>
<asrwt>0</asrwt>
<pdfrwt beam="1">  1        2 0.27002576E-01 0.30061476E+03</pdfrwt>
<pdfrwt beam="2">  1       -2 0.19802897E-01 0.30061476E+03</pdfrwt>
<totfact> 0.42081008E+03</totfact>
</mgrwt>
</event>
<event>
 4    1  0.1777979E-004  0.2849378E+03  0.7818608E-02  0.1093022E+00
          1   -1    0    0  501    0  0.00000000000E+00  0.00000000000E+00  0.20686521273E+04  0.20686521273E+04  0.00000000000E+00 0. -1.
         -1   -1    0    0    0  501 -0.00000000000E+00 -0.00000000000E+00 -0.98118887462E+01  0.98118887462E+01  0.00000000000E+00 0. -1.
         25    1    1    2    0    0  0.48468182971E+02 -0.39725860278E+02  0.13531881338E+04  0.13599431732E+04  0.12000000000E+03 0.  0.
         25    1    1    2    0    0 -0.48468182971E+02  0.39725860278E+02  0.70565210475E+03  0.71852084290E+03  0.12000000000E+03 0.  0.
<mgrwt>
<rscale>  0 0.28493778E+03</rscale>
<asrwt>0</asrwt>
<pdfrwt beam="1">  1        1 0.31825383E+00 0.28493778E+03</pdfrwt>
<pdfrwt beam="2">  1       -1 0.15095230E-02 0.28493778E+03</pdfrwt>
<totfact> 0.31476832E+03</totfact>
</mgrwt>
</event>
<event>
 4    1  0.1777979E-004  0.2718696E+03  0.7818608E-02  0.1100214E+00
          1   -1    0    0  501    0  0.00000000000E+00  0.00000000000E+00  0.21349805167E+02  0.21349805167E+02  0.00000000000E+00 0.  1.
         -1   -1    0    0    0  501 -0.00000000000E+00 -0.00000000000E+00 -0.86550063371E+03  0.86550063371E+03  0.00000000000E+00 0.  1.
         25    1    1    2    0    0  0.51900442561E+02 -0.37189046631E+02 -0.42618710834E+03  0.44733894581E+03  0.12000000000E+03 0.  0.
         25    1    1    2    0    0 -0.51900442561E+02  0.37189046631E+02 -0.41796372020E+03  0.43951149306E+03  0.12000000000E+03 0.  0.
<mgrwt>
<rscale>  0 0.27186960E+03</rscale>
<asrwt>0</asrwt>
<pdfrwt beam="1">  1        1 0.32845847E-02 0.27186960E+03</pdfrwt>
<pdfrwt beam="2">  1       -1 0.13315397E+00 0.27186960E+03</pdfrwt>
<totfact> 0.15375101E+03</totfact>
</mgrwt>
</event>
<event>
 4    1  0.1777979E-004  0.2437838E+03  0.7818608E-02  0.1117298E+00
         -3   -1    0    0    0  501 -0.00000000000E+00  0.00000000000E+00  0.38887536922E+03  0.38887536922E+03  0.00000000000E+00 0.  1.
          3   -1    0    0  501    0  0.00000000000E+00 -0.00000000000E+00 -0.38206662510E+02  0.38206662510E+02  0.00000000000E+00 0.  1.
         25    1    1    2    0    0 -0.13914420990E+01  0.15196849027E+02  0.14907064447E+03  0.19197639796E+03  0.12000000000E+03 0.  0.
         25    1    1    2    0    0  0.13914420990E+01 -0.15196849027E+02  0.20159806224E+03  0.23510563377E+03  0.12000000000E+03 0.  0.
<mgrwt>
<rscale>  0 0.24378376E+03</rscale>
<asrwt>0</asrwt>
<pdfrwt beam="1">  1        3 0.58779483E-02 0.24378376E+03</pdfrwt>
<pdfrwt beam="2">  1       -3 0.59826977E-01 0.24378376E+03</pdfrwt>
<totfact> 0.12224932E+03</totfact>
</mgrwt>
</event>
<event>
 4    1  0.1777979E-004  0.2539211E+03  0.7818608E-02  0.1110852E+00
         -2   -1    0    0    0  501 -0.00000000000E+00  0.00000000000E+00  0.59369409955E+02  0.59369409955E+02  0.00000000000E+00 0. -1.
          2   -1    0    0  501    0  0.00000000000E+00 -0.00000000000E+00 -0.27150312388E+03  0.27150312388E+03  0.00000000000E+00 0. -1.
         25    1    1    2    0    0 -0.18198629674E+02  0.11783383988E+02 -0.15211722188E+03  0.19496073311E+03  0.12000000000E+03 0.  0.
         25    1    1    2    0    0  0.18198629674E+02 -0.11783383988E+02 -0.60016492042E+02  0.13591180073E+03  0.12000000000E+03 0.  0.
<mgrwt>
<rscale>  0 0.25392109E+03</rscale>
<asrwt>0</asrwt>
<pdfrwt beam="1">  1        2 0.41769712E-01 0.25392109E+03</pdfrwt>
<pdfrwt beam="2">  1       -2 0.91337552E-02 0.25392109E+03</pdfrwt>
<totfact> 0.92255384E+03</totfact>
</mgrwt>
</event>
<event>
 4    1  0.1777979E-004  0.3127091E+03  0.7818608E-02  0.1079055E+00
          2   -1    0    0  501    0  0.00000000000E+00  0.00000000000E+00  0.37215555659E+03  0.37215555659E+03  0.00000000000E+00 0. -1.
         -2   -1    0    0    0  501 -0.00000000000E+00 -0.00000000000E+00 -0.65689604065E+02  0.65689604065E+02  0.00000000000E+00 0. -1.
         25    1    1    2    0    0  0.48457388347E+02  0.73721449614E+02  0.21985182817E+03  0.26555187246E+03  0.12000000000E+03 0.  0.
         25    1    1    2    0    0 -0.48457388347E+02 -0.73721449614E+02  0.86614124358E+02  0.17229328819E+03  0.12000000000E+03 0.  0.
<mgrwt>
<rscale>  0 0.31270914E+03</rscale>
<asrwt>0</asrwt>
<pdfrwt beam="1">  1        2 0.57254700E-01 0.31270914E+03</pdfrwt>
<pdfrwt beam="2">  1       -2 0.10106093E-01 0.31270914E+03</pdfrwt>
<totfact> 0.56350267E+03</totfact>
</mgrwt>
</event>
<event>
 4    1  0.1777979E-004  0.2666595E+03  0.7818608E-02  0.1103207E+00
          3   -1    0    0  501    0  0.00000000000E+00  0.00000000000E+00  0.45673696962E+02  0.45673696962E+02  0.00000000000E+00 0. -1.
         -3   -1    0    0    0  501 -0.00000000000E+00 -0.00000000000E+00 -0.38921347413E+03  0.38921347413E+03  0.00000000000E+00 0. -1.
         25    1    1    2    0    0  0.10925869078E+02  0.44309253612E+02 -0.23043895233E+03  0.26378930100E+03  0.12000000000E+03 0.  0.
         25    1    1    2    0    0 -0.10925869078E+02 -0.44309253612E+02 -0.11310082484E+03  0.17109787009E+03  0.12000000000E+03 0.  0.
<mgrwt>
<rscale>  0 0.26665947E+03</rscale>
<asrwt>0</asrwt>
<pdfrwt beam="1">  1        3 0.70267224E-02 0.26665947E+03</pdfrwt>
<pdfrwt beam="2">  1       -3 0.59878998E-01 0.26665947E+03</pdfrwt>
<totfact> 0.92326398E+02</totfact>
</mgrwt>
</event>
<event>
 4    1  0.1777979E-004  0.3104340E+03  0.7818608E-02  0.1080138E+00
         -1   -1    0    0    0  501 -0.00000000000E+00  0.00000000000E+00  0.28539218673E+02  0.28539218673E+02  0.00000000000E+00 0. -1.
          1   -1    0    0  501    0  0.00000000000E+00 -0.00000000000E+00 -0.84418301482E+03  0.84418301482E+03  0.00000000000E+00 0. -1.
         25    1    1    2    0    0 -0.39113889201E+02  0.87706404008E+02 -0.34687352605E+03  0.37939893609E+03  0.12000000000E+03 0.  0.
         25    1    1    2    0    0  0.39113889201E+02 -0.87706404008E+02 -0.46877027010E+03  0.49332329740E+03  0.12000000000E+03 0.  0.
<mgrwt>
<rscale>  0 0.31043404E+03</rscale>
<asrwt>0</asrwt>
<pdfrwt beam="1">  1        1 0.12987429E+00 0.31043404E+03</pdfrwt>
<pdfrwt beam="2">  1       -1 0.43906497E-02 0.31043404E+03</pdfrwt>
<totfact> 0.45375519E+03</totfact>
</mgrwt>
</event>
<event>
 4    1  0.1777979E-004  0.2933490E+03  0.7818608E-02  0.1088613E+00
         -2   -1    0    0    0  501 -0.00000000000E+00  0.00000000000E+00  0.25642295265E+03  0.25642295265E+03  0.00000000000E+00 0.  1.
          2   -1    0    0  501    0  0.00000000000E+00 -0.00000000000E+00 -0.83898147023E+02  0.83898147023E+02  0.00000000000E+00 0.  1.
         25    1    1    2    0    0  0.60086252945E+02  0.58364821554E+02  0.74860070478E+02  0.16438017015E+03  0.12000000000E+03 0.  0.
         25    1    1    2    0    0 -0.60086252945E+02 -0.58364821554E+02  0.97664735150E+02  0.17594092952E+03  0.12000000000E+03 0.  0.
<mgrwt>
<rscale>  0 0.29334901E+03</rscale>
<asrwt>0</asrwt>
<pdfrwt beam="1">  1        2 0.12907407E-01 0.29334901E+03</pdfrwt>
<pdfrwt beam="2">  1       -2 0.39449685E-01 0.29334901E+03</pdfrwt>
<totfact> 0.28557122E+03</totfact>
</mgrwt>
</event>
<event>
 4    1  0.1777979E-004  0.2601318E+03  0.7818608E-02  0.1107064E+00
          1   -1    0    0  501    0  0.00000000000E+00  0.00000000000E+00  0.31318242788E+03  0.31318242788E+03  0.00000000000E+00 0.  1.
         -1   -1    0    0    0  501 -0.00000000000E+00 -0.00000000000E+00 -0.54016893680E+02  0.54016893680E+02  0.00000000000E+00 0.  1.
         25    1    1    2    0    0 -0.46806102681E+02  0.79902728096E+01  0.10671300656E+03  0.16745841716E+03  0.12000000000E+03 0.  0.
         25    1    1    2    0    0  0.46806102681E+02 -0.79902728096E+01  0.15245252764E+03  0.19974090440E+03  0.12000000000E+03 0.  0.
<mgrwt>
<rscale>  0 0.26013183E+03</rscale>
<asrwt>0</asrwt>
<pdfrwt beam="1">  1        1 0.48181911E-01 0.26013183E+03</pdfrwt>
<pdfrwt beam="2">  1       -1 0.83102916E-02 0.26013183E+03</pdfrwt>
<totfact> 0.66696560E+03</totfact>
</mgrwt>
</event>
<event>
 4    1  0.1777979E-004  0.2553308E+03  0.7818608E-02  0.1109982E+00
          2   -1    0    0  501    0  0.00000000000E+00  0.00000000000E+00  0.47046817755E+03  0.47046817755E+03  0.00000000000E+00 0.  1.
         -2   -1    0    0    0  501 -0.00000000000E+00 -0.00000000000E+00 -0.34643041251E+02  0.34643041251E+02  0.00000000000E+00 0.  1.
         25    1    1    2    0    0  0.26851532436E+02 -0.95067109451E+01  0.15268790121E+03  0.19627780701E+03  0.12000000000E+03 0.  0.
         25    1    1    2    0    0 -0.26851532436E+02  0.95067109451E+01  0.28313723509E+03  0.30883341179E+03  0.12000000000E+03 0.  0.
<mgrwt>
<rscale>  0 0.25533075E+03</rscale>
<asrwt>0</asrwt>
<pdfrwt beam="1">  1        2 0.72379715E-01 0.25533075E+03</pdfrwt>
<pdfrwt beam="2">  1       -2 0.53296990E-02 0.25533075E+03</pdfrwt>
<totfact> 0.11714696E+04</totfact>
</mgrwt>
</event>
<event>
 4    1  0.1777979E-004  0.2431972E+03  0.7818608E-02  0.1117681E+00
         -2   -1    0    0    0  501 -0.00000000000E+00  0.00000000000E+00  0.11676972768E+03  0.11676972768E+03  0.00000000000E+00 0.  1.
          2   -1    0    0  501    0  0.00000000000E+00 -0.00000000000E+00 -0.12662717888E+03  0.12662717888E+03  0.00000000000E+00 0.  1.
         25    1    1    2    0    0 -0.49118614251E+01 -0.14515496124E+02  0.73856526775E+01  0.12119972721E+03  0.12000000000E+03 0.  0.
         25    1    1    2    0    0  0.49118614251E+01  0.14515496124E+02 -0.17243103881E+02  0.12219717935E+03  0.12000000000E+03 0.  0.
<mgrwt>
<rscale>  0 0.24319721E+03</rscale>
<asrwt>0</asrwt>
<pdfrwt beam="1">  1        2 0.19481105E-01 0.24319721E+03</pdfrwt>
<pdfrwt beam="2">  1       -2 0.17964573E-01 0.24319721E+03</pdfrwt>
<totfact> 0.71203511E+03</totfact>
</mgrwt>
</event>
<event>
 4    1  0.1777979E-004  0.3260410E+03  0.7818608E-02  0.1072902E+00
         -1   -1    0    0    0  501 -0.00000000000E+00  0.00000000000E+00  0.11584625625E+02  0.11584625625E+02  0.00000000000E+00 0. -1.
          1   -1    0    0  501    0  0.00000000000E+00 -0.00000000000E+00 -0.22940479372E+04  0.22940479372E+04  0.00000000000E+00 0. -1.
         25    1    1    2    0    0 -0.42401102955E+02  0.52988679527E+01 -0.42181102214E+03  0.44062508999E+03  0.12000000000E+03 0.  0.
         25    1    1    2    0    0  0.42401102955E+02 -0.52988679527E+01 -0.18606522894E+04  0.18650074728E+04  0.12000000000E+03 0.  0.
<mgrwt>
<rscale>  0 0.32604102E+03</rscale>
<asrwt>0</asrwt>
<pdfrwt beam="1">  1        1 0.35292996E+00 0.32604102E+03</pdfrwt>
<pdfrwt beam="2">  1       -1 0.17822526E-02 0.32604102E+03</pdfrwt>
<totfact> 0.17542898E+03</totfact>
</mgrwt>
</event>
<event>
 4    1  0.1777979E-004  0.2657627E+03  0.7818608E-02  0.1103730E+00
          2   -1    0    0  501    0  0.00000000000E+00  0.00000000000E+00  0.11246681908E+04  0.11246681908E+04  0.00000000000E+00 0.  1.
         -2   -1    0    0    0  501 -0.00000000000E+00 -0.00000000000E+00 -0.15700139263E+02  0.15700139263E+02  0.00000000000E+00 0.  1.
         25    1    1    2    0    0 -0.91556437678E+01  0.56277445072E+02  0.56539900535E+03  0.58079859838E+03  0.12000000000E+03 0.  0.
         25    1    1    2    0    0  0.91556437678E+01 -0.56277445072E+02  0.54356904618E+03  0.55956973167E+03  0.12000000000E+03 0.  0.
<mgrwt>
<rscale>  0 0.26576266E+03</rscale>
<asrwt>0</asrwt>
<pdfrwt beam="1">  1        2 0.17302581E+00 0.26576266E+03</pdfrwt>
<pdfrwt beam="2">  1       -2 0.24154069E-02 0.26576266E+03</pdfrwt>
<totfact> 0.12880422E+04</totfact>
</mgrwt>
</event>
<event>
 4    1  0.1777979E-004  0.3712440E+03  0.7818608E-02  0.1054218E+00
         -1   -1    0    0    0  501 -0.00000000000E+00  0.00000000000E+00  0.82564725291E+02  0.82564725291E+02  0.00000000000E+00 0.  1.
          1   -1    0    0  501    0  0.00000000000E+00 -0.00000000000E+00 -0.41731534248E+03  0.41731534248E+03  0.00000000000E+00 0.  1.
         25    1    1    2    0    0  0.43732225857E+02 -0.10287452710E+03 -0.50300626288E+02  0.17153958409E+03  0.12000000000E+03 0.  0.
         25    1    1    2    0    0 -0.43732225857E+02  0.10287452710E+03 -0.28444999090E+03  0.32834048369E+03  0.12000000000E+03 0.  0.
<mgrwt>
<rscale>  0 0.37124400E+03</rscale>
<asrwt>0</asrwt>
<pdfrwt beam="1">  1        1 0.64202359E-01 0.37124400E+03</pdfrwt>
<pdfrwt beam="2">  1       -1 0.12702266E-01 0.37124400E+03</pdfrwt>
<totfact> 0.24104975E+03</totfact>
</mgrwt>
</event>
<event>
 4    1  0.1777979E-004  0.2641044E+03  0.7818608E-02  0.1104702E+00
         -4   -1    0    0    0  501 -0.00000000000E+00  0.00000000000E+00  0.22564290089E+03  0.22564290089E+03  0.00000000000E+00 0.  1.
          4   -1    0    0  501    0  0.00000000000E+00 -0.00000000000E+00 -0.77280449278E+02  0.77280449278E+02  0.00000000000E+00 0.  1.
         25    1    1    2    0    0  0.24312404825E+01 -0.23910487231E+02  0.17290825460E+02  0.12359852335E+03  0.12000000000E+03 0.  0.
         25    1    1    2    0    0 -0.24312404825E+01  0.23910487231E+02  0.13107162615E+03  0.17932482681E+03  0.12000000000E+03 0.  0.
<mgrwt>
<rscale>  0 0.26410441E+03</rscale>
<asrwt>0</asrwt>
<pdfrwt beam="1">  1        4 0.11889300E-01 0.26410441E+03</pdfrwt>
<pdfrwt beam="2">  1       -4 0.34714292E-01 0.26410441E+03</pdfrwt>
<totfact> 0.84571993E+02</totfact>
</mgrwt>
</event>
<event>
 4    1  0.1777979E-004  0.3906517E+03  0.7818608E-02  0.1047066E+00
         -2   -1    0    0    0  501 -0.00000000000E+00  0.00000000000E+00  0.86733604451E+02  0.86733604451E+02  0.00000000000E+00 0.  1.
          2   -1    0    0  501    0  0.00000000000E+00 -0.00000000000E+00 -0.43987775794E+03  0.43987775794E+03  0.00000000000E+00 0.  1.
         25    1    1    2    0    0 -0.11726246407E+03 -0.83266936675E+02 -0.25124282778E+03  0.31337968462E+03  0.12000000000E+03 0.  0.
         25    1    1    2    0    0  0.11726246407E+03  0.83266936675E+02 -0.10190132570E+03  0.21323167776E+03  0.12000000000E+03 0.  0.
<mgrwt>
<rscale>  0 0.39065168E+03</rscale>
<asrwt>0</asrwt>
<pdfrwt beam="1">  1        2 0.67673500E-01 0.39065168E+03</pdfrwt>
<pdfrwt beam="2">  1       -2 0.13343632E-01 0.39065168E+03</pdfrwt>
<totfact> 0.30035561E+03</totfact>
</mgrwt>
</event>
<event>
 4    1  0.1777979E-004  0.2910500E+03  0.7818608E-02  0.1089802E+00
         -1   -1    0    0    0  501 -0.00000000000E+00  0.00000000000E+00  0.19438379249E+03  0.19438379249E+03  0.00000000000E+00 0.  1.
          1   -1    0    0  501    0  0.00000000000E+00 -0.00000000000E+00 -0.10894693844E+03  0.10894693844E+03  0.00000000000E+00 0.  1.
         25    1    1    2    0    0  0.25434966426E+02 -0.67506068647E+02  0.84059709001E+02  0.16330964913E+03  0.12000000000E+03 0.  0.
         25    1    1    2    0    0 -0.25434966426E+02  0.67506068647E+02  0.13771450484E+01  0.14002108180E+03  0.12000000000E+03 0.  0.
<mgrwt>
<rscale>  0 0.29104995E+03</rscale>
<asrwt>0</asrwt>
<pdfrwt beam="1">  1        1 0.16761068E-01 0.29104995E+03</pdfrwt>
<pdfrwt beam="2">  1       -1 0.29905199E-01 0.29104995E+03</pdfrwt>
<totfact> 0.32974141E+03</totfact>
</mgrwt>
</event>
<event>
 4    1  0.1777979E-004  0.3565265E+03  0.7818608E-02  0.1059968E+00
         -2   -1    0    0    0  501 -0.00000000000E+00  0.00000000000E+00  0.67783040869E+02  0.67783040869E+02  0.00000000000E+00 0.  1.
          2   -1    0    0  501    0  0.00000000000E+00 -0.00000000000E+00 -0.46881611850E+03  0.46881611850E+03  0.00000000000E+00 0.  1.
         25    1    1    2    0    0  0.54681153393E+02 -0.17556583494E+02 -0.21928600064E+02  0.13482998799E+03  0.12000000000E+03 0.  0.
         25    1    1    2    0    0 -0.54681153393E+02  0.17556583494E+02 -0.37910447757E+03  0.40176917138E+03  0.12000000000E+03 0.  0.
<mgrwt>
<rscale>  0 0.35652648E+03</rscale>
<asrwt>0</asrwt>
<pdfrwt beam="1">  1        2 0.72125556E-01 0.35652648E+03</pdfrwt>
<pdfrwt beam="2">  1       -2 0.10428160E-01 0.35652648E+03</pdfrwt>
<totfact> 0.41697156E+03</totfact>
</mgrwt>
</event>
<event>
 4    1  0.1777979E-004  0.3536929E+03  0.7818608E-02  0.1061109E+00
         -3   -1    0    0    0  501 -0.00000000000E+00  0.00000000000E+00  0.48777934027E+02  0.48777934027E+02  0.00000000000E+00 0. -1.
          3   -1    0    0  501    0  0.00000000000E+00 -0.00000000000E+00 -0.64116433148E+03  0.64116433148E+03  0.00000000000E+00 0. -1.
         25    1    1    2    0    0 -0.71186361360E+02  0.10854551176E+03 -0.30595543797E+03  0.35335301921E+03  0.12000000000E+03 0.  0.
         25    1    1    2    0    0  0.71186361360E+02 -0.10854551176E+03 -0.28643095949E+03  0.33658924629E+03  0.12000000000E+03 0.  0.
<mgrwt>
<rscale>  0 0.35369293E+03</rscale>
<asrwt>0</asrwt>
<pdfrwt beam="1">  1        3 0.98640648E-01 0.35369293E+03</pdfrwt>
<pdfrwt beam="2">  1       -3 0.75042990E-02 0.35369293E+03</pdfrwt>
<totfact> 0.28618642E+02</totfact>
</mgrwt>
</event>
<event>
 4    1  0.1777979E-004  0.2454667E+03  0.7818608E-02  0.1116204E+00
         -2   -1    0    0    0  501 -0.00000000000E+00  0.00000000000E+00  0.60337032339E+01  0.60337032339E+01  0.00000000000E+00 0. -1.
          2   -1    0    0  501    0  0.00000000000E+00 -0.00000000000E+00 -0.24965559362E+04  0.24965559362E+04  0.00000000000E+00 0. -1.
         25    1    1    2    0    0  0.10855433711E+02  0.16428335564E+02 -0.10759628926E+04  0.10828129464E+04  0.12000000000E+03 0.  0.
         25    1    1    2    0    0 -0.10855433711E+02 -0.16428335564E+02 -0.14145593404E+04  0.14197766930E+04  0.12000000000E+03 0.  0.
<mgrwt>
<rscale>  0 0.24546672E+03</rscale>
<asrwt>0</asrwt>
<pdfrwt beam="1">  1        2 0.38408610E+00 0.24546672E+03</pdfrwt>
<pdfrwt beam="2">  1       -2 0.92826065E-03 0.24546672E+03</pdfrwt>
<totfact> 0.95613534E+03</totfact>
</mgrwt>
</event>
<event>
 4    1  0.1777979E-004  0.2678819E+03  0.7818608E-02  0.1102498E+00
         -2   -1    0    0    0  501 -0.00000000000E+00  0.00000000000E+00  0.31867214559E+02  0.31867214559E+02  0.00000000000E+00 0. -1.
          2   -1    0    0  501    0  0.00000000000E+00 -0.00000000000E+00 -0.56296667222E+03  0.56296667222E+03  0.00000000000E+00 0. -1.
         25    1    1    2    0    0 -0.38816523667E+02 -0.14252681406E+02 -0.17055147519E+03  0.21259742973E+03  0.12000000000E+03 0.  0.
         25    1    1    2    0    0  0.38816523667E+02  0.14252681406E+02 -0.36054798247E+03  0.38223645706E+03  0.12000000000E+03 0.  0.
<mgrwt>
<rscale>  0 0.26788191E+03</rscale>
<asrwt>0</asrwt>
<pdfrwt beam="1">  1        2 0.86610248E-01 0.26788191E+03</pdfrwt>
<pdfrwt beam="2">  1       -2 0.49026489E-02 0.26788191E+03</pdfrwt>
<totfact> 0.10893758E+04</totfact>
</mgrwt>
</event>
<event>
 4    1  0.1777979E-004  0.2875412E+03  0.7818608E-02  0.1091640E+00
          1   -1    0    0  501    0  0.00000000000E+00  0.00000000000E+00  0.53179243421E+03  0.53179243421E+03  0.00000000000E+00 0. -1.
         -1   -1    0    0    0  501 -0.00000000000E+00 -0.00000000000E+00 -0.38868511070E+02  0.38868511070E+02  0.00000000000E+00 0. -1.
         25    1    1    2    0    0 -0.32291237507E+02  0.52950803094E+02  0.14876145393E+03  0.20093900006E+03  0.12000000000E+03 0.  0.
         25    1    1    2    0    0  0.32291237507E+02 -0.52950803094E+02  0.34416246920E+03  0.36972194522E+03  0.12000000000E+03 0.  0.
<mgrwt>
<rscale>  0 0.28754116E+03</rscale>
<asrwt>0</asrwt>
<pdfrwt beam="1">  1        1 0.81814215E-01 0.28754116E+03</pdfrwt>
<pdfrwt beam="2">  1       -1 0.59797713E-02 0.28754116E+03</pdfrwt>
<totfact> 0.55657306E+03</totfact>
</mgrwt>
</event>
<event>
 4    1  0.1777979E-004  0.2635869E+03  0.7818608E-02  0.1105007E+00
         -1   -1    0    0    0  501 -0.00000000000E+00  0.00000000000E+00  0.18900739300E+02  0.18900739300E+02  0.00000000000E+00 0.  1.
          1   -1    0    0  501    0  0.00000000000E+00 -0.00000000000E+00 -0.91898589910E+03  0.91898589910E+03  0.00000000000E+00 0.  1.
         25    1    1    2    0    0  0.23412038849E+02  0.64392687982E+01 -0.27645918304E+03  0.30235619331E+03  0.12000000000E+03 0.  0.
         25    1    1    2    0    0 -0.23412038849E+02 -0.64392687982E+01 -0.62362597677E+03  0.63553044509E+03  0.12000000000E+03 0.  0.
<mgrwt>
<rscale>  0 0.26358690E+03</rscale>
<asrwt>0</asrwt>
<pdfrwt beam="1">  1        1 0.14138246E+00 0.26358690E+03</pdfrwt>
<pdfrwt beam="2">  1       -1 0.29078057E-02 0.26358690E+03</pdfrwt>
<totfact> 0.72698245E+03</totfact>
</mgrwt>
</event>
<event>
 4    1  0.1777979E-004  0.2498454E+03  0.7818608E-02  0.1113403E+00
         -1   -1    0    0    0  501 -0.00000000000E+00  0.00000000000E+00  0.25199292735E+02  0.25199292735E+02  0.00000000000E+00 0.  1.
          1   -1    0    0  501    0  0.00000000000E+00 -0.00000000000E+00 -0.61929035758E+03  0.61929035758E+03  0.00000000000E+00 0.  1.
         25    1    1    2    0    0  0.18481695763E+02 -0.29228360608E+02 -0.28896659902E+03  0.31479765802E+03  0.12000000000E+03 0.  0.
         25    1    1    2    0    0 -0.18481695763E+02  0.29228360608E+02 -0.30512446582E+03  0.32969199230E+03  0.12000000000E+03 0.  0.
<mgrwt>
<rscale>  0 0.24984538E+03</rscale>
<asrwt>0</asrwt>
<pdfrwt beam="1">  1        1 0.95275431E-01 0.24984538E+03</pdfrwt>
<pdfrwt beam="2">  1       -1 0.38768146E-02 0.24984538E+03</pdfrwt>
<totfact> 0.85972732E+03</totfact>
</mgrwt>
</event>
<event>
 4    1  0.1777979E-004  0.3168250E+03  0.7818608E-02  0.1077120E+00
          1   -1    0    0  501    0  0.00000000000E+00  0.00000000000E+00  0.32430105273E+03  0.32430105273E+03  0.00000000000E+00 0. -1.
         -1   -1    0    0    0  501 -0.00000000000E+00 -0.00000000000E+00 -0.77380325560E+02  0.77380325560E+02  0.00000000000E+00 0. -1.
         25    1    1    2    0    0  0.37492388636E+02  0.93411020039E+02  0.15354899980E+03  0.21933671195E+03  0.12000000000E+03 0.  0.
         25    1    1    2    0    0 -0.37492388636E+02 -0.93411020039E+02  0.93371727371E+02  0.18234466634E+03  0.12000000000E+03 0.  0.
<mgrwt>
<rscale>  0 0.31682501E+03</rscale>
<asrwt>0</asrwt>
<pdfrwt beam="1">  1        1 0.49892469E-01 0.31682501E+03</pdfrwt>
<pdfrwt beam="2">  1       -1 0.11904666E-01 0.31682501E+03</pdfrwt>
<totfact> 0.36805579E+03</totfact>
</mgrwt>
</event>
<event>
 4    1  0.1777979E-004  0.2538660E+03  0.7818608E-02  0.1110886E+00
          2   -1    0    0  501    0  0.00000000000E+00  0.00000000000E+00  0.20211908135E+03  0.20211908135E+03  0.00000000000E+00 0.  1.
         -2   -1    0    0    0  501 -0.00000000000E+00 -0.00000000000E+00 -0.79715322011E+02  0.79715322011E+02  0.00000000000E+00 0.  1.
         25    1    1    2    0    0 -0.18390684796E+02 -0.22282504477E+02  0.28320222015E+02  0.12663633866E+03  0.12000000000E+03 0.  0.
         25    1    1    2    0    0  0.18390684796E+02  0.22282504477E+02  0.94083537326E+02  0.15519806471E+03  0.12000000000E+03 0.  0.
<mgrwt>
<rscale>  0 0.25386601E+03</rscale>
<asrwt>0</asrwt>
<pdfrwt beam="1">  1        2 0.31095243E-01 0.25386601E+03</pdfrwt>
<pdfrwt beam="2">  1       -2 0.12263896E-01 0.25386601E+03</pdfrwt>
<totfact> 0.79362626E+03</totfact>
</mgrwt>
</event>
<event>
 4    1  0.1777979E-004  0.2562111E+03  0.7818608E-02  0.1109441E+00
         -3   -1    0    0    0  501 -0.00000000000E+00  0.00000000000E+00  0.13162854818E+03  0.13162854818E+03  0.00000000000E+00 0. -1.
          3   -1    0    0  501    0  0.00000000000E+00 -0.00000000000E+00 -0.12467687341E+03  0.12467687341E+03  0.00000000000E+00 0. -1.
         25    1    1    2    0    0  0.42111742515E+02 -0.62574236280E+01  0.17569373105E+02  0.12853496442E+03  0.12000000000E+03 0.  0.
         25    1    1    2    0    0 -0.42111742515E+02  0.62574236280E+01 -0.10617698335E+02  0.12777045717E+03  0.12000000000E+03 0.  0.
<mgrwt>
<rscale>  0 0.25621113E+03</rscale>
<asrwt>0</asrwt>
<pdfrwt beam="1">  1        3 0.19181057E-01 0.25621113E+03</pdfrwt>
<pdfrwt beam="2">  1       -3 0.20250546E-01 0.25621113E+03</pdfrwt>
<totfact> 0.13390199E+03</totfact>
</mgrwt>
</event>
<event>
 4    1  0.1777979E-004  0.2730952E+03  0.7818608E-02  0.1099521E+00
         -2   -1    0    0    0  501 -0.00000000000E+00  0.00000000000E+00  0.89812230279E+02  0.89812230279E+02  0.00000000000E+00 0. -1.
          2   -1    0    0  501    0  0.00000000000E+00 -0.00000000000E+00 -0.20760256778E+03  0.20760256778E+03  0.00000000000E+00 0. -1.
         25    1    1    2    0    0  0.93456336955E+00 -0.62322164500E+01  0.11729941413E+02  0.12073651252E+03  0.12000000000E+03 0.  0.
         25    1    1    2    0    0 -0.93456336955E+00  0.62322164500E+01 -0.12952027892E+03  0.17667828554E+03  0.12000000000E+03 0.  0.
<mgrwt>
<rscale>  0 0.27309522E+03</rscale>
<asrwt>0</asrwt>
<pdfrwt beam="1">  1        2 0.31938856E-01 0.27309522E+03</pdfrwt>
<pdfrwt beam="2">  1       -2 0.13817266E-01 0.27309522E+03</pdfrwt>
<totfact> 0.63671696E+03</totfact>
</mgrwt>
</event>
<event>
 4    1  0.1777979E-004  0.4279362E+03  0.7818608E-02  0.1034514E+00
         -1   -1    0    0    0  501 -0.00000000000E+00  0.00000000000E+00  0.28280496711E+02  0.28280496711E+02  0.00000000000E+00 0.  1.
          1   -1    0    0  501    0  0.00000000000E+00 -0.00000000000E+00 -0.16188664191E+04  0.16188664191E+04  0.00000000000E+00 0.  1.
         25    1    1    2    0    0  0.78909238529E+02 -0.13863239238E+03 -0.10918629976E+04  0.11099596451E+04  0.12000000000E+03 0.  0.
         25    1    1    2    0    0 -0.78909238529E+02  0.13863239238E+03 -0.49872292480E+03  0.53718727076E+03  0.12000000000E+03 0.  0.
<mgrwt>
<rscale>  0 0.42793619E+03</rscale>
<asrwt>0</asrwt>
<pdfrwt beam="1">  1        1 0.24905632E+00 0.42793619E+03</pdfrwt>
<pdfrwt beam="2">  1       -1 0.43508465E-02 0.42793619E+03</pdfrwt>
<totfact> 0.12856833E+03</totfact>
</mgrwt>
</event>
<event>
 4    1  0.1777979E-004  0.2951969E+03  0.7818608E-02  0.1087667E+00
         -1   -1    0    0    0  501 -0.00000000000E+00  0.00000000000E+00  0.43010179044E+02  0.43010179044E+02  0.00000000000E+00 0. -1.
          1   -1    0    0  501    0  0.00000000000E+00 -0.00000000000E+00 -0.50651518591E+03  0.50651518591E+03  0.00000000000E+00 0. -1.
         25    1    1    2    0    0 -0.50734868159E+02  0.51668965668E+02 -0.31790047652E+03  0.34742541909E+03  0.12000000000E+03 0.  0.
         25    1    1    2    0    0  0.50734868159E+02 -0.51668965668E+02 -0.14560453035E+03  0.20209994587E+03  0.12000000000E+03 0.  0.
<mgrwt>
<rscale>  0 0.29519694E+03</rscale>
<asrwt>0</asrwt>
<pdfrwt beam="1">  1        1 0.77925416E-01 0.29519694E+03</pdfrwt>
<pdfrwt beam="2">  1       -1 0.66169504E-02 0.29519694E+03</pdfrwt>
<totfact> 0.51006018E+03</totfact>
</mgrwt>
</event>
<event>
 4    1  0.1777979E-004  0.3436510E+03  0.7818608E-02  0.1065251E+00
         -2   -1    0    0    0  501 -0.00000000000E+00  0.00000000000E+00  0.36536489122E+02  0.36536489122E+02  0.00000000000E+00 0.  1.
          2   -1    0    0  501    0  0.00000000000E+00 -0.00000000000E+00 -0.80806908451E+03  0.80806908451E+03  0.00000000000E+00 0.  1.
         25    1    1    2    0    0  0.82951509793E+02 -0.90492260361E+02 -0.36767138104E+03  0.40577339316E+03  0.12000000000E+03 0.  0.
         25    1    1    2    0    0 -0.82951509793E+02  0.90492260361E+02 -0.40386121434E+03  0.43883218047E+03  0.12000000000E+03 0.  0.
<mgrwt>
<rscale>  0 0.34365103E+03</rscale>
<asrwt>0</asrwt>
<pdfrwt beam="1">  1        2 0.12431832E+00 0.34365103E+03</pdfrwt>
<pdfrwt beam="2">  1       -2 0.56209982E-02 0.34365103E+03</pdfrwt>
<totfact> 0.57534396E+03</totfact>
</mgrwt>
</event>
<event>
 4    1  0.1777979E-004  0.2890451E+03  0.7818608E-02  0.1090849E+00
         -2   -1    0    0    0  501 -0.00000000000E+00  0.00000000000E+00  0.57339282627E+02  0.57339282627E+02  0.00000000000E+00 0.  1.
          2   -1    0    0  501    0  0.00000000000E+00 -0.00000000000E+00 -0.36426630401E+03  0.36426630401E+03  0.00000000000E+00 0.  1.
         25    1    1    2    0    0 -0.42685535964E+02  0.66863933185E+02 -0.17377589996E+03  0.22559012378E+03  0.12000000000E+03 0.  0.
         25    1    1    2    0    0  0.42685535964E+02 -0.66863933185E+02 -0.13315112143E+03  0.19601546286E+03  0.12000000000E+03 0.  0.
<mgrwt>
<rscale>  0 0.28904511E+03</rscale>
<asrwt>0</asrwt>
<pdfrwt beam="1">  1        2 0.56040970E-01 0.28904511E+03</pdfrwt>
<pdfrwt beam="2">  1       -2 0.88214280E-02 0.28904511E+03</pdfrwt>
<totfact> 0.71380381E+03</totfact>
</mgrwt>
</event>
<event>
 4    1  0.1777979E-004  0.2866229E+03  0.7818608E-02  0.1092126E+00
         -1   -1    0    0    0  501 -0.00000000000E+00  0.00000000000E+00  0.13944514426E+02  0.13944514426E+02  0.00000000000E+00 0. -1.
          1   -1    0    0  501    0  0.00000000000E+00 -0.00000000000E+00 -0.14728492483E+04  0.14728492483E+04  0.00000000000E+00 0. -1.
         25    1    1    2    0    0  0.74262831716E+02  0.18120594561E+02 -0.81852322660E+03  0.83079696473E+03  0.12000000000E+03 0.  0.
         25    1    1    2    0    0 -0.74262831716E+02 -0.18120594561E+02 -0.64038150728E+03  0.65599679800E+03  0.12000000000E+03 0.  0.
<mgrwt>
<rscale>  0 0.28662287E+03</rscale>
<asrwt>0</asrwt>
<pdfrwt beam="1">  1        1 0.22659206E+00 0.28662287E+03</pdfrwt>
<pdfrwt beam="2">  1       -1 0.21453111E-02 0.28662287E+03</pdfrwt>
<totfact> 0.46175520E+03</totfact>
</mgrwt>
</event>
<event>
 4    1  0.1777979E-004  0.3187670E+03  0.7818608E-02  0.1076218E+00
         -1   -1    0    0    0  501 -0.00000000000E+00  0.00000000000E+00  0.11201556296E+03  0.11201556296E+03  0.00000000000E+00 0.  1.
          1   -1    0    0  501    0  0.00000000000E+00 -0.00000000000E+00 -0.22678190733E+03  0.22678190733E+03  0.00000000000E+00 0.  1.
         25    1    1    2    0    0 -0.16291211308E+02 -0.10317017452E+03 -0.67666612551E+02  0.17288221115E+03  0.12000000000E+03 0.  0.
         25    1    1    2    0    0  0.16291211308E+02  0.10317017452E+03 -0.47099731825E+02  0.16591525914E+03  0.12000000000E+03 0.  0.
<mgrwt>
<rscale>  0 0.31876702E+03</rscale>
<asrwt>0</asrwt>
<pdfrwt beam="1">  1        1 0.34889524E-01 0.31876702E+03</pdfrwt>
<pdfrwt beam="2">  1       -1 0.17233164E-01 0.31876702E+03</pdfrwt>
<totfact> 0.32135418E+03</totfact>
</mgrwt>
</event>
<event>
 4    1  0.1777979E-004  0.3607624E+03  0.7818608E-02  0.1058282E+00
          2   -1    0    0  501    0  0.00000000000E+00  0.00000000000E+00  0.54855930618E+03  0.54855930618E+03  0.00000000000E+00 0.  1.
         -2   -1    0    0    0  501 -0.00000000000E+00 -0.00000000000E+00 -0.59314230351E+02  0.59314230351E+02  0.00000000000E+00 0.  1.
         25    1    1    2    0    0  0.61216559377E+02 -0.65169533740E+02  0.74926486193E+02  0.16735744263E+03  0.12000000000E+03 0.  0.
         25    1    1    2    0    0 -0.61216559377E+02  0.65169533740E+02  0.41431858964E+03  0.44051609390E+03  0.12000000000E+03 0.  0.
<mgrwt>
<rscale>  0 0.36076238E+03</rscale>
<asrwt>0</asrwt>
<pdfrwt beam="1">  1        2 0.84393736E-01 0.36076238E+03</pdfrwt>
<pdfrwt beam="2">  1       -2 0.91252666E-02 0.36076238E+03</pdfrwt>
<totfact> 0.43195904E+03</totfact>
</mgrwt>
</event>
<event>
 4    1  0.1777979E-004  0.5851826E+03  0.7818608E-02  0.9936633E-01
         -2   -1    0    0    0  501 -0.00000000000E+00  0.00000000000E+00  0.20899827358E+03  0.20899827358E+03  0.00000000000E+00 0. -1.
          2   -1    0    0  501    0  0.00000000000E+00 -0.00000000000E+00 -0.40961903299E+03  0.40961903299E+03  0.00000000000E+00 0. -1.
         25    1    1    2    0    0  0.11836088590E+03  0.22468482315E+03 -0.13669746590E+02  0.28121065243E+03  0.12000000000E+03 0.  0.
         25    1    1    2    0    0 -0.11836088590E+03 -0.22468482315E+03 -0.18695101282E+03  0.33740665414E+03  0.12000000000E+03 0.  0.
<mgrwt>
<rscale>  0 0.58518261E+03</rscale>
<asrwt>0</asrwt>
<pdfrwt beam="1">  1        2 0.63018312E-01 0.58518261E+03</pdfrwt>
<pdfrwt beam="2">  1       -2 0.32153581E-01 0.58518261E+03</pdfrwt>
<totfact> 0.70069378E+02</totfact>
</mgrwt>
</event>
<event>
 4    1  0.1777979E-004  0.2480469E+03  0.7818608E-02  0.1114545E+00
          1   -1    0    0  501    0  0.00000000000E+00  0.00000000000E+00  0.44471287345E+03  0.44471287345E+03  0.00000000000E+00 0. -1.
         -1   -1    0    0    0  501 -0.00000000000E+00 -0.00000000000E+00 -0.34588193949E+02  0.34588193949E+02  0.00000000000E+00 0. -1.
         25    1    1    2    0    0  0.52134705764E+01  0.28916440773E+02  0.18403004423E+03  0.22165377958E+03  0.12000000000E+03 0.  0.
         25    1    1    2    0    0 -0.52134705764E+01 -0.28916440773E+02  0.22609463527E+03  0.25764728782E+03  0.12000000000E+03 0.  0.
<mgrwt>
<rscale>  0 0.24804689E+03</rscale>
<asrwt>0</asrwt>
<pdfrwt beam="1">  1        1 0.68417361E-01 0.24804689E+03</pdfrwt>
<pdfrwt beam="2">  1       -1 0.53212609E-02 0.24804689E+03</pdfrwt>
<totfact> 0.83601423E+03</totfact>
</mgrwt>
</event>
<event>
 4    1  0.1777979E-004  0.2450271E+03  0.7818608E-02  0.1116489E+00
          2   -1    0    0  501    0  0.00000000000E+00  0.00000000000E+00  0.92751071321E+03  0.92751071321E+03  0.00000000000E+00 0.  1.
         -2   -1    0    0    0  501 -0.00000000000E+00 -0.00000000000E+00 -0.16182632791E+02  0.16182632791E+02  0.00000000000E+00 0.  1.
         25    1    1    2    0    0  0.20050343452E+01 -0.13090274400E+02  0.37541189212E+03  0.39434688308E+03  0.12000000000E+03 0.  0.
         25    1    1    2    0    0 -0.20050343452E+01  0.13090274400E+02  0.53591618830E+03  0.54934646292E+03  0.12000000000E+03 0.  0.
<mgrwt>
<rscale>  0 0.24502706E+03</rscale>
<asrwt>0</asrwt>
<pdfrwt beam="1">  1        2 0.14269391E+00 0.24502706E+03</pdfrwt>
<pdfrwt beam="2">  1       -2 0.24896365E-02 0.24502706E+03</pdfrwt>
<totfact> 0.16160284E+04</totfact>
</mgrwt>
</event>
<event>
 4    1  0.1777979E-004  0.3773606E+03  0.7818608E-02  0.1051914E+00
         -1   -1    0    0    0  501 -0.00000000000E+00  0.00000000000E+00  0.25177727814E+02  0.25177727814E+02  0.00000000000E+00 0. -1.
          1   -1    0    0  501    0  0.00000000000E+00 -0.00000000000E+00 -0.14139581710E+04  0.14139581710E+04  0.00000000000E+00 0. -1.
         25    1    1    2    0    0  0.10523216838E+03 -0.48193536486E+02 -0.35749170376E+03  0.39445753191E+03  0.12000000000E+03 0.  0.
         25    1    1    2    0    0 -0.10523216838E+03  0.48193536486E+02 -0.10312887394E+04  0.10446783669E+04  0.12000000000E+03 0.  0.
<mgrwt>
<rscale>  0 0.37736059E+03</rscale>
<asrwt>0</asrwt>
<pdfrwt beam="1">  1        1 0.21753200E+00 0.37736059E+03</pdfrwt>
<pdfrwt beam="2">  1       -1 0.38734970E-02 0.37736059E+03</pdfrwt>
<totfact> 0.21058325E+03</totfact>
</mgrwt>
</event>
<event>
 4    1  0.1777979E-004  0.2808789E+03  0.7818608E-02  0.1095210E+00
          2   -1    0    0  501    0  0.00000000000E+00  0.00000000000E+00  0.13593066892E+04  0.13593066892E+04  0.00000000000E+00 0. -1.
         -2   -1    0    0    0  501 -0.00000000000E+00 -0.00000000000E+00 -0.14509783135E+02  0.14509783135E+02  0.00000000000E+00 0. -1.
         25    1    1    2    0    0 -0.40061065800E+02 -0.60784345843E+02  0.69616935355E+03  0.71017701632E+03  0.12000000000E+03 0.  0.
         25    1    1    2    0    0  0.40061065800E+02  0.60784345843E+02  0.64862755248E+03  0.66363945598E+03  0.12000000000E+03 0.  0.
<mgrwt>
<rscale>  0 0.28087894E+03</rscale>
<asrwt>0</asrwt>
<pdfrwt beam="1">  1        2 0.20912401E+00 0.28087894E+03</pdfrwt>
<pdfrwt beam="2">  1       -2 0.22322754E-02 0.28087894E+03</pdfrwt>
<totfact> 0.10694487E+04</totfact>
</mgrwt>
</event>
<event>
 4    1  0.1777979E-004  0.2794894E+03  0.7818608E-02  0.1095968E+00
          1   -1    0    0  501    0  0.00000000000E+00  0.00000000000E+00  0.16516548363E+03  0.16516548363E+03  0.00000000000E+00 0.  1.
         -1   -1    0    0    0  501 -0.00000000000E+00 -0.00000000000E+00 -0.11823649586E+03  0.11823649586E+03  0.00000000000E+00 0.  1.
         25    1    1    2    0    0  0.18851900540E+02 -0.68144752751E+02  0.11925982763E+02  0.13979030920E+03  0.12000000000E+03 0.  0.
         25    1    1    2    0    0 -0.18851900540E+02  0.68144752751E+02  0.35003005007E+02  0.14361167028E+03  0.12000000000E+03 0.  0.
<mgrwt>
<rscale>  0 0.27948945E+03</rscale>
<asrwt>0</asrwt>
<pdfrwt beam="1">  1        1 0.25410074E-01 0.27948945E+03</pdfrwt>
<pdfrwt beam="2">  1       -1 0.18190230E-01 0.27948945E+03</pdfrwt>
<totfact> 0.43863989E+03</totfact>
</mgrwt>
</event>
<event>
 4    1  0.1777979E-004  0.2632141E+03  0.7818608E-02  0.1105227E+00
          1   -1    0    0  501    0  0.00000000000E+00  0.00000000000E+00  0.62805364666E+02  0.62805364666E+02  0.00000000000E+00 0. -1.
         -1   -1    0    0    0  501 -0.00000000000E+00 -0.00000000000E+00 -0.27577926185E+03  0.27577926185E+03  0.00000000000E+00 0. -1.
         25    1    1    2    0    0  0.51815388970E+02 -0.70449442340E+01 -0.88945812583E+02  0.15825872282E+03  0.12000000000E+03 0.  0.
         25    1    1    2    0    0 -0.51815388970E+02  0.70449442340E+01 -0.12402808460E+03  0.18032590369E+03  0.12000000000E+03 0.  0.
<mgrwt>
<rscale>  0 0.26321411E+03</rscale>
<asrwt>0</asrwt>
<pdfrwt beam="1">  1        1 0.96623638E-02 0.26321411E+03</pdfrwt>
<pdfrwt beam="2">  1       -1 0.42427579E-01 0.26321411E+03</pdfrwt>
<totfact> 0.37079089E+03</totfact>
</mgrwt>
</event>
<event>
 4    1  0.1777979E-004  0.2674831E+03  0.7818608E-02  0.1102729E+00
         -1   -1    0    0    0  501 -0.00000000000E+00  0.00000000000E+00  0.21306789385E+02  0.21306789385E+02  0.00000000000E+00 0.  1.
          1   -1    0    0  501    0  0.00000000000E+00 -0.00000000000E+00 -0.83948818128E+03  0.83948818128E+03  0.00000000000E+00 0.  1.
         25    1    1    2    0    0  0.49580742771E+02 -0.20576115843E+02 -0.48825740242E+03  0.50564505101E+03  0.12000000000E+03 0.  0.
         25    1    1    2    0    0 -0.49580742771E+02  0.20576115843E+02 -0.32992398948E+03  0.35514991965E+03  0.12000000000E+03 0.  0.
<mgrwt>
<rscale>  0 0.26748307E+03</rscale>
<asrwt>0</asrwt>
<pdfrwt beam="1">  1        1 0.12915203E+00 0.26748307E+03</pdfrwt>
<pdfrwt beam="2">  1       -1 0.32779675E-02 0.26748307E+03</pdfrwt>
<totfact> 0.70478022E+03</totfact>
</mgrwt>
</event>
<event>
 4    1  0.1777979E-004  0.3153809E+03  0.7818608E-02  0.1077795E+00
          2   -1    0    0  501    0  0.00000000000E+00  0.00000000000E+00  0.67335601189E+03  0.67335601189E+03  0.00000000000E+00 0. -1.
         -2   -1    0    0    0  501 -0.00000000000E+00 -0.00000000000E+00 -0.36928871374E+02  0.36928871374E+02  0.00000000000E+00 0. -1.
         25    1    1    2    0    0  0.28401876468E+02  0.17229688214E+02  0.10029267533E+03  0.15988167333E+03  0.12000000000E+03 0.  0.
         25    1    1    2    0    0 -0.28401876468E+02 -0.17229688214E+02  0.53613446518E+03  0.55040320993E+03  0.12000000000E+03 0.  0.
<mgrwt>
<rscale>  0 0.31538090E+03</rscale>
<asrwt>0</asrwt>
<pdfrwt beam="1">  1        2 0.10359322E+00 0.31538090E+03</pdfrwt>
<pdfrwt beam="2">  1       -2 0.56813653E-02 0.31538090E+03</pdfrwt>
<totfact> 0.70892006E+03</totfact>
</mgrwt>
</event>
<event>
 4    1  0.1777979E-004  0.2526757E+03  0.7818608E-02  0.1111625E+00
          4   -1    0    0  501    0  0.00000000000E+00  0.00000000000E+00  0.24120153826E+02  0.24120153826E+02  0.00000000000E+00 0. -1.
         -4   -1    0    0    0  501 -0.00000000000E+00 -0.00000000000E+00 -0.66173940832E+03  0.66173940832E+03  0.00000000000E+00 0. -1.
         25    1    1    2    0    0  0.22136578053E+02 -0.19940546590E+02 -0.38925843041E+03  0.40842352911E+03  0.12000000000E+03 0.  0.
         25    1    1    2    0    0 -0.22136578053E+02  0.19940546590E+02 -0.24836082408E+03  0.27743603303E+03  0.12000000000E+03 0.  0.
<mgrwt>
<rscale>  0 0.25267573E+03</rscale>
<asrwt>0</asrwt>
<pdfrwt beam="1">  1        4 0.37107929E-02 0.25267573E+03</pdfrwt>
<pdfrwt beam="2">  1       -4 0.10180606E+00 0.25267573E+03</pdfrwt>
<totfact> 0.58459805E+02</totfact>
</mgrwt>
</event>
<event>
 4    1  0.1777979E-004  0.2884317E+03  0.7818608E-02  0.1091171E+00
          2   -1    0    0  501    0  0.00000000000E+00  0.00000000000E+00  0.42994091730E+02  0.42994091730E+02  0.00000000000E+00 0.  1.
         -2   -1    0    0    0  501 -0.00000000000E+00 -0.00000000000E+00 -0.48374567791E+03  0.48374567791E+03  0.00000000000E+00 0.  1.
         25    1    1    2    0    0 -0.36323605468E+01 -0.62039815696E+02 -0.12840835802E+03  0.18641576968E+03  0.12000000000E+03 0.  0.
         25    1    1    2    0    0  0.36323605468E+01  0.62039815696E+02 -0.31234322816E+03  0.34032399997E+03  0.12000000000E+03 0.  0.
<mgrwt>
<rscale>  0 0.28843166E+03</rscale>
<asrwt>0</asrwt>
<pdfrwt beam="1">  1        2 0.66144764E-02 0.28843166E+03</pdfrwt>
<pdfrwt beam="2">  1       -2 0.74422404E-01 0.28843166E+03</pdfrwt>
<totfact> 0.18159285E+03</totfact>
</mgrwt>
</event>
<event>
 4    1  0.1777979E-004  0.3593745E+03  0.7818608E-02  0.1058832E+00
          1   -1    0    0  501    0  0.00000000000E+00  0.00000000000E+00  0.56460207863E+03  0.56460207863E+03  0.00000000000E+00 0. -1.
         -1   -1    0    0    0  501 -0.00000000000E+00 -0.00000000000E+00 -0.57186297204E+02  0.57186297204E+02  0.00000000000E+00 0. -1.
         25    1    1    2    0    0 -0.89967503459E+02 -0.29334652497E+02  0.41723504624E+03  0.44434193740E+03  0.12000000000E+03 0.  0.
         25    1    1    2    0    0  0.89967503459E+02  0.29334652497E+02  0.90180735180E+02  0.17744643844E+03  0.12000000000E+03 0.  0.
<mgrwt>
<rscale>  0 0.35937447E+03</rscale>
<asrwt>0</asrwt>
<pdfrwt beam="1">  1        1 0.86861855E-01 0.35937447E+03</pdfrwt>
<pdfrwt beam="2">  1       -1 0.87978922E-02 0.35937447E+03</pdfrwt>
<totfact> 0.28554834E+03</totfact>
</mgrwt>
</event>
<event>
 4    1  0.1777979E-004  0.2920362E+03  0.7818608E-02  0.1089291E+00
          2   -1    0    0  501    0  0.00000000000E+00  0.00000000000E+00  0.12649213287E+04  0.12649213287E+04  0.00000000000E+00 0. -1.
         -2   -1    0    0    0  501 -0.00000000000E+00 -0.00000000000E+00 -0.16855817235E+02  0.16855817235E+02  0.00000000000E+00 0. -1.
         25    1    1    2    0    0  0.78673902757E-01  0.38108854547E+01  0.25926801793E+03  0.28571740262E+03  0.12000000000E+03 0.  0.
         25    1    1    2    0    0 -0.78673902757E-01 -0.38108854547E+01  0.98879749352E+03  0.99605974330E+03  0.12000000000E+03 0.  0.
<mgrwt>
<rscale>  0 0.29203618E+03</rscale>
<asrwt>0</asrwt>
<pdfrwt beam="1">  1        2 0.19460321E+00 0.29203618E+03</pdfrwt>
<pdfrwt beam="2">  1       -2 0.25932036E-02 0.29203618E+03</pdfrwt>
<totfact> 0.96699172E+03</totfact>
</mgrwt>
</event>
<event>
 4    1  0.1777979E-004  0.2727797E+03  0.7818608E-02  0.1099699E+00
         -2   -1    0    0    0  501 -0.00000000000E+00  0.00000000000E+00  0.51293397678E+02  0.51293397678E+02  0.00000000000E+00 0. -1.
          2   -1    0    0  501    0  0.00000000000E+00 -0.00000000000E+00 -0.36266237352E+03  0.36266237352E+03  0.00000000000E+00 0. -1.
         25    1    1    2    0    0 -0.27569637303E+02 -0.14742589591E+02 -0.69507675547E+02  0.14215746835E+03  0.12000000000E+03 0.  0.
         25    1    1    2    0    0  0.27569637303E+02  0.14742589591E+02 -0.24186130030E+03  0.27179830284E+03  0.12000000000E+03 0.  0.
<mgrwt>
<rscale>  0 0.27277966E+03</rscale>
<asrwt>0</asrwt>
<pdfrwt beam="1">  1        2 0.55794209E-01 0.27277966E+03</pdfrwt>
<pdfrwt beam="2">  1       -2 0.78912922E-02 0.27277966E+03</pdfrwt>
<totfact> 0.85234009E+03</totfact>
</mgrwt>
</event>
<event>
 4    1  0.1777979E-004  0.2769898E+03  0.7818608E-02  0.1097345E+00
         -1   -1    0    0    0  501 -0.00000000000E+00  0.00000000000E+00  0.10899868717E+03  0.10899868717E+03  0.00000000000E+00 0.  1.
          1   -1    0    0  501    0  0.00000000000E+00 -0.00000000000E+00 -0.17597304239E+03  0.17597304239E+03  0.00000000000E+00 0.  1.
         25    1    1    2    0    0  0.48357188371E+02 -0.30516005065E+02 -0.73481384696E+02  0.15188534534E+03  0.12000000000E+03 0.  0.
         25    1    1    2    0    0 -0.48357188371E+02  0.30516005065E+02  0.65070294813E+01  0.13308638422E+03  0.12000000000E+03 0.  0.
<mgrwt>
<rscale>  0 0.27698975E+03</rscale>
<asrwt>0</asrwt>
<pdfrwt beam="1">  1        1 0.27072776E-01 0.27698975E+03</pdfrwt>
<pdfrwt beam="2">  1       -1 0.16769029E-01 0.27698975E+03</pdfrwt>
<totfact> 0.46107886E+03</totfact>
</mgrwt>
</event>
<event>
 4    1  0.1777979E-004  0.4634147E+03  0.7818608E-02  0.1023796E+00
          2   -1    0    0  501    0  0.00000000000E+00  0.00000000000E+00  0.15730613449E+04  0.15730613449E+04  0.00000000000E+00 0.  1.
         -2   -1    0    0    0  501 -0.00000000000E+00 -0.00000000000E+00 -0.34129812010E+02  0.34129812010E+02  0.00000000000E+00 0.  1.
         25    1    1    2    0    0  0.18260167902E+03  0.73659596360E+02  0.84848925153E+03  0.87926282719E+03  0.12000000000E+03 0.  0.
         25    1    1    2    0    0 -0.18260167902E+03 -0.73659596360E+02  0.69044228135E+03  0.72792832971E+03  0.12000000000E+03 0.  0.
<mgrwt>
<rscale>  0 0.46341467E+03</rscale>
<asrwt>0</asrwt>
<pdfrwt beam="1">  1        2 0.24200938E+00 0.46341467E+03</pdfrwt>
<pdfrwt beam="2">  1       -2 0.52507416E-02 0.46341467E+03</pdfrwt>
<totfact> 0.22554136E+03</totfact>
</mgrwt>
</event>
<event>
 4    1  0.1777979E-004  0.2475520E+03  0.7818608E-02  0.1114862E+00
          3   -1    0    0  501    0  0.00000000000E+00  0.00000000000E+00  0.76233675851E+02  0.76233675851E+02  0.00000000000E+00 0.  1.
         -3   -1    0    0    0  501 -0.00000000000E+00 -0.00000000000E+00 -0.20096763380E+03  0.20096763380E+03  0.00000000000E+00 0.  1.
         25    1    1    2    0    0 -0.27253769217E+02 -0.12693074750E+02 -0.57802028740E+02  0.13654653643E+03  0.12000000000E+03 0.  0.
         25    1    1    2    0    0  0.27253769217E+02  0.12693074750E+02 -0.66931929204E+02  0.14065477322E+03  0.12000000000E+03 0.  0.
<mgrwt>
<rscale>  0 0.24755203E+03</rscale>
<asrwt>0</asrwt>
<pdfrwt beam="1">  1        3 0.11728258E-01 0.24755203E+03</pdfrwt>
<pdfrwt beam="2">  1       -3 0.30918098E-01 0.24755203E+03</pdfrwt>
<totfact> 0.14407868E+03</totfact>
</mgrwt>
</event>
<event>
 4    1  0.1777979E-004  0.3170548E+03  0.7818608E-02  0.1077013E+00
         -2   -1    0    0    0  501 -0.00000000000E+00  0.00000000000E+00  0.47318795017E+02  0.47318795017E+02  0.00000000000E+00 0.  1.
          2   -1    0    0  501    0  0.00000000000E+00 -0.00000000000E+00 -0.53109825265E+03  0.53109825265E+03  0.00000000000E+00 0.  1.
         25    1    1    2    0    0 -0.67753928224E+02  0.66645792474E+02 -0.31708000744E+03  0.35209656000E+03  0.12000000000E+03 0.  0.
         25    1    1    2    0    0  0.67753928224E+02 -0.66645792474E+02 -0.16669945019E+03  0.22632048767E+03  0.12000000000E+03 0.  0.
<mgrwt>
<rscale>  0 0.31705475E+03</rscale>
<asrwt>0</asrwt>
<pdfrwt beam="1">  1        2 0.81707425E-01 0.31705475E+03</pdfrwt>
<pdfrwt beam="2">  1       -2 0.72798145E-02 0.31705475E+03</pdfrwt>
<totfact> 0.63766815E+03</totfact>
</mgrwt>
</event>
<event>
 4    1  0.1777979E-004  0.2494733E+03  0.7818608E-02  0.1113638E+00
          1   -1    0    0  501    0  0.00000000000E+00  0.00000000000E+00  0.46433650558E+03  0.46433650558E+03  0.00000000000E+00 0. -1.
         -1   -1    0    0    0  501 -0.00000000000E+00 -0.00000000000E+00 -0.33508517883E+02  0.33508517883E+02  0.00000000000E+00 0. -1.
         25    1    1    2    0    0  0.12167347720E+01  0.26995648959E+02  0.17408165448E+03  0.21315409434E+03  0.12000000000E+03 0.  0.
         25    1    1    2    0    0 -0.12167347720E+01 -0.26995648959E+02  0.25674633321E+03  0.28469092912E+03  0.12000000000E+03 0.  0.
<mgrwt>
<rscale>  0 0.24947327E+03</rscale>
<asrwt>0</asrwt>
<pdfrwt beam="1">  1        1 0.71436381E-01 0.24947327E+03</pdfrwt>
<pdfrwt beam="2">  1       -1 0.51551569E-02 0.24947327E+03</pdfrwt>
<totfact> 0.82892958E+03</totfact>
</mgrwt>
</event>
<event>
 4    1  0.1777979E-004  0.3521445E+03  0.7818608E-02  0.1061738E+00
         -2   -1    0    0    0  501 -0.00000000000E+00  0.00000000000E+00  0.16626053562E+03  0.16626053562E+03  0.00000000000E+00 0.  1.
          2   -1    0    0  501    0  0.00000000000E+00 -0.00000000000E+00 -0.18646296764E+03  0.18646296764E+03  0.00000000000E+00 0.  1.
         25    1    1    2    0    0  0.10019707153E+03  0.46229950834E+02 -0.76729547530E+02  0.18017792584E+03  0.12000000000E+03 0.  0.
         25    1    1    2    0    0 -0.10019707153E+03 -0.46229950834E+02  0.56527115510E+02  0.17254557741E+03  0.12000000000E+03 0.  0.
<mgrwt>
<rscale>  0 0.35214448E+03</rscale>
<asrwt>0</asrwt>
<pdfrwt beam="1">  1        2 0.28686610E-01 0.35214448E+03</pdfrwt>
<pdfrwt beam="2">  1       -2 0.25578544E-01 0.35214448E+03</pdfrwt>
<totfact> 0.25263411E+03</totfact>
</mgrwt>
</event>
<event>
 4    1  0.1777979E-004  0.3103267E+03  0.7818608E-02  0.1080189E+00
         -1   -1    0    0    0  501 -0.00000000000E+00  0.00000000000E+00  0.18130607870E+02  0.18130607870E+02  0.00000000000E+00 0.  1.
          1   -1    0    0  501    0  0.00000000000E+00 -0.00000000000E+00 -0.13279014287E+04  0.13279014287E+04  0.00000000000E+00 0.  1.
         25    1    1    2    0    0 -0.72044755203E+02 -0.23761823183E+02 -0.38329654338E+03  0.40874357629E+03  0.12000000000E+03 0.  0.
         25    1    1    2    0    0  0.72044755203E+02  0.23761823183E+02 -0.92647427748E+03  0.93728846031E+03  0.12000000000E+03 0.  0.
<mgrwt>
<rscale>  0 0.31032667E+03</rscale>
<asrwt>0</asrwt>
<pdfrwt beam="1">  1        1 0.20429252E+00 0.31032667E+03</pdfrwt>
<pdfrwt beam="2">  1       -1 0.27893244E-02 0.31032667E+03</pdfrwt>
<totfact> 0.39307180E+03</totfact>
</mgrwt>
</event>
<event>
 4    1  0.1777979E-004  0.3356276E+03  0.7818608E-02  0.1068674E+00
         -2   -1    0    0    0  501 -0.00000000000E+00  0.00000000000E+00  0.15744519711E+02  0.15744519711E+02  0.00000000000E+00 0. -1.
          2   -1    0    0  501    0  0.00000000000E+00 -0.00000000000E+00 -0.17886524392E+04  0.17886524392E+04  0.00000000000E+00 0. -1.
         25    1    1    2    0    0 -0.90997092592E+02 -0.71443681606E+02 -0.99081337248E+03  0.10047366867E+04  0.12000000000E+03 0.  0.
         25    1    1    2    0    0  0.90997092592E+02  0.71443681606E+02 -0.78209454703E+03  0.79966027224E+03  0.12000000000E+03 0.  0.
<mgrwt>
<rscale>  0 0.33562761E+03</rscale>
<asrwt>0</asrwt>
<pdfrwt beam="1">  1        2 0.27517723E+00 0.33562761E+03</pdfrwt>
<pdfrwt beam="2">  1       -2 0.24222344E-02 0.33562761E+03</pdfrwt>
<totfact> 0.55932674E+03</totfact>
</mgrwt>
</event>
<event>
 4    1  0.1777979E-004  0.2441929E+03  0.7818608E-02  0.1117031E+00
         -1   -1    0    0    0  501 -0.00000000000E+00  0.00000000000E+00  0.16875002475E+02  0.16875002475E+02  0.00000000000E+00 0. -1.
          1   -1    0    0  501    0  0.00000000000E+00 -0.00000000000E+00 -0.88341012236E+03  0.88341012236E+03  0.00000000000E+00 0. -1.
         25    1    1    2    0    0  0.21192238455E+02  0.41490020486E+01 -0.45693851500E+03  0.47292613765E+03  0.12000000000E+03 0.  0.
         25    1    1    2    0    0 -0.21192238455E+02 -0.41490020486E+01 -0.40959660489E+03  0.42735898718E+03  0.12000000000E+03 0.  0.
<mgrwt>
<rscale>  0 0.24419294E+03</rscale>
<asrwt>0</asrwt>
<pdfrwt beam="1">  1        1 0.13590926E+00 0.24419294E+03</pdfrwt>
<pdfrwt beam="2">  1       -1 0.25961540E-02 0.24419294E+03</pdfrwt>
<totfact> 0.91357174E+03</totfact>
</mgrwt>
</event>
<event>
 4    1  0.1777979E-004  0.4136987E+03  0.7818608E-02  0.1039137E+00
         -2   -1    0    0    0  501 -0.00000000000E+00  0.00000000000E+00  0.10471438548E+03  0.10471438548E+03  0.00000000000E+00 0.  1.
          2   -1    0    0  501    0  0.00000000000E+00 -0.00000000000E+00 -0.40860330288E+03  0.40860330288E+03  0.00000000000E+00 0.  1.
         25    1    1    2    0    0 -0.10768133493E+03  0.67233169383E+02 -0.14494876089E+02  0.17528739370E+03  0.12000000000E+03 0.  0.
         25    1    1    2    0    0  0.10768133493E+03 -0.67233169383E+02 -0.28939404131E+03  0.33803029465E+03  0.12000000000E+03 0.  0.
<mgrwt>
<rscale>  0 0.41369865E+03</rscale>
<asrwt>0</asrwt>
<pdfrwt beam="1">  1        2 0.62862047E-01 0.41369865E+03</pdfrwt>
<pdfrwt beam="2">  1       -2 0.16109905E-01 0.41369865E+03</pdfrwt>
<totfact> 0.23841715E+03</totfact>
</mgrwt>
</event>
<event>
 4    1  0.1777979E-004  0.2687262E+03  0.7818608E-02  0.1102011E+00
         -2   -1    0    0    0  501 -0.00000000000E+00  0.00000000000E+00  0.33828390772E+02  0.33828390772E+02  0.00000000000E+00 0. -1.
          2   -1    0    0  501    0  0.00000000000E+00 -0.00000000000E+00 -0.53367710901E+03  0.53367710901E+03  0.00000000000E+00 0. -1.
         25    1    1    2    0    0  0.23102159361E+02 -0.49073346086E+02 -0.30625674849E+03  0.33336931331E+03  0.12000000000E+03 0.  0.
         25    1    1    2    0    0 -0.23102159361E+02  0.49073346086E+02 -0.19359196975E+03  0.23413618647E+03  0.12000000000E+03 0.  0.
<mgrwt>
<rscale>  0 0.26872616E+03</rscale>
<asrwt>0</asrwt>
<pdfrwt beam="1">  1        2 0.82104169E-01 0.26872616E+03</pdfrwt>
<pdfrwt beam="2">  1       -2 0.52043679E-02 0.26872616E+03</pdfrwt>
<totfact> 0.10573088E+04</totfact>
</mgrwt>
</event>
<event>
 4    1  0.1777979E-004  0.3273150E+03  0.7818608E-02  0.1072331E+00
         -1   -1    0    0    0  501 -0.00000000000E+00  0.00000000000E+00  0.24725945952E+02  0.24725945952E+02  0.00000000000E+00 0. -1.
          1   -1    0    0  501    0  0.00000000000E+00 -0.00000000000E+00 -0.10832256079E+04  0.10832256079E+04  0.00000000000E+00 0. -1.
         25    1    1    2    0    0 -0.12902547045E+02 -0.65965037061E+02 -0.82946284200E+03  0.84078919361E+03  0.12000000000E+03 0.  0.
         25    1    1    2    0    0  0.12902547045E+02  0.65965037061E+02 -0.22903681991E+03  0.26716236021E+03  0.12000000000E+03 0.  0.
<mgrwt>
<rscale>  0 0.32731500E+03</rscale>
<asrwt>0</asrwt>
<pdfrwt beam="1">  1        1 0.16665012E+00 0.32731500E+03</pdfrwt>
<pdfrwt beam="2">  1       -1 0.38039911E-02 0.32731500E+03</pdfrwt>
<totfact> 0.36871695E+03</totfact>
</mgrwt>
</event>
<event>
 4    1  0.1777979E-004  0.3519501E+03  0.7818608E-02  0.1061817E+00
         -2   -1    0    0    0  501 -0.00000000000E+00  0.00000000000E+00  0.46299978544E+03  0.46299978544E+03  0.00000000000E+00 0. -1.
          2   -1    0    0  501    0  0.00000000000E+00 -0.00000000000E+00 -0.66883876621E+02  0.66883876621E+02  0.00000000000E+00 0. -1.
         25    1    1    2    0    0  0.64458986219E+02 -0.11078219851E+03  0.18027162630E+03  0.25164561522E+03  0.12000000000E+03 0.  0.
         25    1    1    2    0    0 -0.64458986219E+02  0.11078219851E+03  0.21584428252E+03  0.27823804684E+03  0.12000000000E+03 0.  0.
<mgrwt>
<rscale>  0 0.35195011E+03</rscale>
<asrwt>0</asrwt>
<pdfrwt beam="1">  1        2 0.10289827E-01 0.35195011E+03</pdfrwt>
<pdfrwt beam="2">  1       -2 0.71230734E-01 0.35195011E+03</pdfrwt>
<totfact> 0.11419749E+03</totfact>
</mgrwt>
</event>
<event>
 4    1  0.1777979E-004  0.3742233E+03  0.7818608E-02  0.1053090E+00
          2   -1    0    0  501    0  0.00000000000E+00  0.00000000000E+00  0.74176305460E+03  0.74176305460E+03  0.00000000000E+00 0.  1.
         -2   -1    0    0    0  501 -0.00000000000E+00 -0.00000000000E+00 -0.47199409696E+02  0.47199409696E+02  0.00000000000E+00 0.  1.
         25    1    1    2    0    0 -0.96020337448E+02 -0.92254503401E+02  0.23414077963E+03  0.29487743774E+03  0.12000000000E+03 0.  0.
         25    1    1    2    0    0  0.96020337448E+02  0.92254503401E+02  0.46042286527E+03  0.49408502655E+03  0.12000000000E+03 0.  0.
<mgrwt>
<rscale>  0 0.37422335E+03</rscale>
<asrwt>0</asrwt>
<pdfrwt beam="1">  1        2 0.11411738E+00 0.37422335E+03</pdfrwt>
<pdfrwt beam="2">  1       -2 0.72614482E-02 0.37422335E+03</pdfrwt>
<totfact> 0.43179983E+03</totfact>
</mgrwt>
</event>
<event>
 4    1  0.1777979E-004  0.2655440E+03  0.7818608E-02  0.1103857E+00
          2   -1    0    0  501    0  0.00000000000E+00  0.00000000000E+00  0.11835751545E+04  0.11835751545E+04  0.00000000000E+00 0. -1.
         -2   -1    0    0    0  501 -0.00000000000E+00 -0.00000000000E+00 -0.14894204410E+02  0.14894204410E+02  0.00000000000E+00 0. -1.
         25    1    1    2    0    0 -0.26939659068E+02  0.46852875858E+02  0.50520086391E+03  0.52206211326E+03  0.12000000000E+03 0.  0.
         25    1    1    2    0    0  0.26939659068E+02 -0.46852875858E+02  0.66348008614E+03  0.67640724560E+03  0.12000000000E+03 0.  0.
<mgrwt>
<rscale>  0 0.26554405E+03</rscale>
<asrwt>0</asrwt>
<pdfrwt beam="1">  1        2 0.18208841E+00 0.26554405E+03</pdfrwt>
<pdfrwt beam="2">  1       -2 0.22914170E-02 0.26554405E+03</pdfrwt>
<totfact> 0.12876345E+04</totfact>
</mgrwt>
</event>
<event>
 4    1  0.1777979E-004  0.2916411E+03  0.7818608E-02  0.1089495E+00
         -1   -1    0    0    0  501 -0.00000000000E+00  0.00000000000E+00  0.97982094003E+02  0.97982094003E+02  0.00000000000E+00 0. -1.
          1   -1    0    0  501    0  0.00000000000E+00 -0.00000000000E+00 -0.21701543185E+03  0.21701543185E+03  0.00000000000E+00 0. -1.
         25    1    1    2    0    0  0.71782355408E+02  0.16025248938E+02 -0.18329939806E+02  0.14193485071E+03  0.12000000000E+03 0.  0.
         25    1    1    2    0    0 -0.71782355408E+02 -0.16025248938E+02 -0.10070339804E+03  0.17306267514E+03  0.12000000000E+03 0.  0.
<mgrwt>
<rscale>  0 0.29164106E+03</rscale>
<asrwt>0</asrwt>
<pdfrwt beam="1">  1        1 0.33386990E-01 0.29164106E+03</pdfrwt>
<pdfrwt beam="2">  1       -1 0.15074168E-01 0.29164106E+03</pdfrwt>
<totfact> 0.41995602E+03</totfact>
</mgrwt>
</event>
<event>
 4    1  0.1777979E-004  0.2791545E+03  0.7818608E-02  0.1096152E+00
         -1   -1    0    0    0  501 -0.00000000000E+00  0.00000000000E+00  0.69691181416E+02  0.69691181416E+02  0.00000000000E+00 0. -1.
          1   -1    0    0  501    0  0.00000000000E+00 -0.00000000000E+00 -0.27954474632E+03  0.27954474632E+03  0.00000000000E+00 0. -1.
         25    1    1    2    0    0  0.22068542544E+02  0.55020133567E+02 -0.15445897226E+03  0.20438152994E+03  0.12000000000E+03 0.  0.
         25    1    1    2    0    0 -0.22068542544E+02 -0.55020133567E+02 -0.55394592646E+02  0.14485439780E+03  0.12000000000E+03 0.  0.
<mgrwt>
<rscale>  0 0.27915446E+03</rscale>
<asrwt>0</asrwt>
<pdfrwt beam="1">  1        1 0.43006884E-01 0.27915446E+03</pdfrwt>
<pdfrwt beam="2">  1       -1 0.10721720E-01 0.27915446E+03</pdfrwt>
<totfact> 0.52090757E+03</totfact>
</mgrwt>
</event>
<event>
 4    1  0.1777979E-004  0.2664900E+03  0.7818608E-02  0.1103305E+00
          2   -1    0    0  501    0  0.00000000000E+00  0.00000000000E+00  0.24880238811E+04  0.24880238811E+04  0.00000000000E+00 0.  1.
         -2   -1    0    0    0  501 -0.00000000000E+00 -0.00000000000E+00 -0.71358737914E+01  0.71358737914E+01  0.00000000000E+00 0.  1.
         25    1    1    2    0    0  0.40008773071E+02  0.30405476334E+02  0.15100332093E+04  0.15156270940E+04  0.12000000000E+03 0.  0.
         25    1    1    2    0    0 -0.40008773071E+02 -0.30405476334E+02  0.97085479802E+03  0.97953266089E+03  0.12000000000E+03 0.  0.
<mgrwt>
<rscale>  0 0.26648996E+03</rscale>
<asrwt>0</asrwt>
<pdfrwt beam="1">  1        2 0.38277221E+00 0.26648996E+03</pdfrwt>
<pdfrwt beam="2">  1       -2 0.10978287E-02 0.26648996E+03</pdfrwt>
<totfact> 0.75785217E+03</totfact>
</mgrwt>
</event>
<event>
 4    1  0.1777979E-004  0.2811069E+03  0.7818608E-02  0.1095086E+00
          1   -1    0    0  501    0  0.00000000000E+00  0.00000000000E+00  0.28095250520E+03  0.28095250520E+03  0.00000000000E+00 0. -1.
         -1   -1    0    0    0  501 -0.00000000000E+00 -0.00000000000E+00 -0.70315356179E+02  0.70315356179E+02  0.00000000000E+00 0. -1.
         25    1    1    2    0    0  0.27760984535E+02  0.49222595733E+02  0.47219591162E+02  0.14079497854E+03  0.12000000000E+03 0.  0.
         25    1    1    2    0    0 -0.27760984535E+02 -0.49222595733E+02  0.16341755786E+03  0.21047288284E+03  0.12000000000E+03 0.  0.
<mgrwt>
<rscale>  0 0.28110692E+03</rscale>
<asrwt>0</asrwt>
<pdfrwt beam="1">  1        1 0.43223462E-01 0.28110692E+03</pdfrwt>
<pdfrwt beam="2">  1       -1 0.10817747E-01 0.28110692E+03</pdfrwt>
<totfact> 0.51062636E+03</totfact>
</mgrwt>
</event>
<event>
 4    1  0.1777979E-004  0.2491051E+03  0.7818608E-02  0.1113872E+00
          2   -1    0    0  501    0  0.00000000000E+00  0.00000000000E+00  0.18415886835E+03  0.18415886835E+03  0.00000000000E+00 0.  1.
         -2   -1    0    0    0  501 -0.00000000000E+00 -0.00000000000E+00 -0.84238900765E+02  0.84238900765E+02  0.00000000000E+00 0.  1.
         25    1    1    2    0    0 -0.22015480925E+02  0.11914530028E+01  0.22975569105E+02  0.12415304159E+03  0.12000000000E+03 0.  0.
         25    1    1    2    0    0  0.22015480925E+02 -0.11914530028E+01  0.76944398478E+02  0.14424472752E+03  0.12000000000E+03 0.  0.
<mgrwt>
<rscale>  0 0.24910512E+03</rscale>
<asrwt>0</asrwt>
<pdfrwt beam="1">  1        2 0.28332134E-01 0.24910512E+03</pdfrwt>
<pdfrwt beam="2">  1       -2 0.12959831E-01 0.24910512E+03</pdfrwt>
<totfact> 0.80304410E+03</totfact>
</mgrwt>
</event>
<event>
 4    1  0.1777979E-004  0.3148023E+03  0.7818608E-02  0.1078067E+00
         -1   -1    0    0    0  501 -0.00000000000E+00  0.00000000000E+00  0.45714195937E+03  0.45714195937E+03  0.00000000000E+00 0. -1.
          1   -1    0    0  501    0  0.00000000000E+00 -0.00000000000E+00 -0.54195690996E+02  0.54195690996E+02  0.00000000000E+00 0. -1.
         25    1    1    2    0    0 -0.19210247108E+02 -0.49939561358E+02  0.34225652795E+03  0.36660949839E+03  0.12000000000E+03 0.  0.
         25    1    1    2    0    0  0.19210247108E+02  0.49939561358E+02  0.60689740422E+02  0.14472815198E+03  0.12000000000E+03 0.  0.
<mgrwt>
<rscale>  0 0.31480231E+03</rscale>
<asrwt>0</asrwt>
<pdfrwt beam="1">  1        1 0.83377989E-02 0.31480231E+03</pdfrwt>
<pdfrwt beam="2">  1       -1 0.70329530E-01 0.31480231E+03</pdfrwt>
<totfact> 0.17480484E+03</totfact>
</mgrwt>
</event>
<event>
 4    1  0.1777979E-004  0.4083006E+03  0.7818608E-02  0.1040943E+00
         -1   -1    0    0    0  501 -0.00000000000E+00  0.00000000000E+00  0.88187076952E+02  0.88187076952E+02  0.00000000000E+00 0.  1.
          1   -1    0    0  501    0  0.00000000000E+00 -0.00000000000E+00 -0.47260151398E+03  0.47260151398E+03  0.00000000000E+00 0.  1.
         25    1    1    2    0    0 -0.20315091059E+02  0.16373353268E+03 -0.20248288786E+03  0.28743815426E+03  0.12000000000E+03 0.  0.
         25    1    1    2    0    0  0.20315091059E+02 -0.16373353268E+03 -0.18193154917E+03  0.27335043667E+03  0.12000000000E+03 0.  0.
<mgrwt>
<rscale>  0 0.40830061E+03</rscale>
<asrwt>0</asrwt>
<pdfrwt beam="1">  1        1 0.72707924E-01 0.40830061E+03</pdfrwt>
<pdfrwt beam="2">  1       -1 0.13567243E-01 0.40830061E+03</pdfrwt>
<totfact> 0.18443453E+03</totfact>
</mgrwt>
</event>
<event>
 4    1  0.1777979E-004  0.2879719E+03  0.7818608E-02  0.1091413E+00
         -2   -1    0    0    0  501 -0.00000000000E+00  0.00000000000E+00  0.11156659759E+02  0.11156659759E+02  0.00000000000E+00 0. -1.
          2   -1    0    0  501    0  0.00000000000E+00 -0.00000000000E+00 -0.18582574992E+04  0.18582574992E+04  0.00000000000E+00 0. -1.
         25    1    1    2    0    0 -0.34049783612E+02  0.64252456690E+02 -0.71378044624E+03  0.72744091952E+03  0.12000000000E+03 0.  0.
         25    1    1    2    0    0  0.34049783612E+02 -0.64252456690E+02 -0.11333203932E+04  0.11419732395E+04  0.12000000000E+03 0.  0.
<mgrwt>
<rscale>  0 0.28797185E+03</rscale>
<asrwt>0</asrwt>
<pdfrwt beam="1">  1        2 0.28588560E+00 0.28797185E+03</pdfrwt>
<pdfrwt beam="2">  1       -2 0.17164102E-02 0.28797185E+03</pdfrwt>
<totfact> 0.85447270E+03</totfact>
</mgrwt>
</event>
<event>
 4    1  0.1777979E-004  0.2587200E+03  0.7818608E-02  0.1107915E+00
          2   -1    0    0  501    0  0.00000000000E+00  0.00000000000E+00  0.15103314689E+04  0.15103314689E+04  0.00000000000E+00 0.  1.
         -2   -1    0    0    0  501 -0.00000000000E+00 -0.00000000000E+00 -0.11079692882E+02  0.11079692882E+02  0.00000000000E+00 0.  1.
         25    1    1    2    0    0 -0.46272835223E+02 -0.54927152829E+01  0.82462598551E+03  0.83461330039E+03  0.12000000000E+03 0.  0.
         25    1    1    2    0    0  0.46272835223E+02  0.54927152829E+01  0.67462579048E+03  0.68679786137E+03  0.12000000000E+03 0.  0.
<mgrwt>
<rscale>  0 0.25871999E+03</rscale>
<asrwt>0</asrwt>
<pdfrwt beam="1">  1        2 0.23235852E+00 0.25871999E+03</pdfrwt>
<pdfrwt beam="2">  1       -2 0.17045693E-02 0.25871999E+03</pdfrwt>
<totfact> 0.13149815E+04</totfact>
</mgrwt>
</event>
<event>
 4    1  0.1777979E-004  0.2422173E+03  0.7818608E-02  0.1118324E+00
          2   -1    0    0  501    0  0.00000000000E+00  0.00000000000E+00  0.16036339655E+04  0.16036339655E+04  0.00000000000E+00 0.  1.
         -2   -1    0    0    0  501 -0.00000000000E+00 -0.00000000000E+00 -0.91462942467E+01  0.91462942467E+01  0.00000000000E+00 0.  1.
         25    1    1    2    0    0  0.79130586976E+01  0.11779167895E+02  0.74317416193E+03  0.75293372899E+03  0.12000000000E+03 0.  0.
         25    1    1    2    0    0 -0.79130586976E+01 -0.11779167895E+02  0.85131350936E+03  0.85984653079E+03  0.12000000000E+03 0.  0.
<mgrwt>
<rscale>  0 0.24221732E+03</rscale>
<asrwt>0</asrwt>
<pdfrwt beam="1">  1        2 0.24671269E+00 0.24221732E+03</pdfrwt>
<pdfrwt beam="2">  1       -2 0.14071235E-02 0.24221732E+03</pdfrwt>
<totfact> 0.15496335E+04</totfact>
</mgrwt>
</event>
<event>
 4    1  0.1777979E-004  0.3800219E+03  0.7818608E-02  0.1050926E+00
         -2   -1    0    0    0  501 -0.00000000000E+00  0.00000000000E+00  0.67440403298E+02  0.67440403298E+02  0.00000000000E+00 0.  1.
          2   -1    0    0  501    0  0.00000000000E+00 -0.00000000000E+00 -0.53534905314E+03  0.53534905314E+03  0.00000000000E+00 0.  1.
         25    1    1    2    0    0  0.83418847416E+02 -0.23455927799E+02 -0.44968642627E+02  0.15469668216E+03  0.12000000000E+03 0.  0.
         25    1    1    2    0    0 -0.83418847416E+02  0.23455927799E+02 -0.42294000721E+03  0.44809277427E+03  0.12000000000E+03 0.  0.
<mgrwt>
<rscale>  0 0.38002187E+03</rscale>
<asrwt>0</asrwt>
<pdfrwt beam="1">  1        2 0.82361400E-01 0.38002187E+03</pdfrwt>
<pdfrwt beam="2">  1       -2 0.10375446E-01 0.38002187E+03</pdfrwt>
<totfact> 0.36213019E+03</totfact>
</mgrwt>
</event>
<event>
 4    1  0.1777979E-004  0.3612108E+03  0.7818608E-02  0.1058105E+00
          2   -1    0    0  501    0  0.00000000000E+00  0.00000000000E+00  0.24902176821E+04  0.24902176821E+04  0.00000000000E+00 0. -1.
         -2   -1    0    0    0  501 -0.00000000000E+00 -0.00000000000E+00 -0.13098581071E+02  0.13098581071E+02  0.00000000000E+00 0. -1.
         25    1    1    2    0    0 -0.26795296509E+02 -0.25919992904E+02  0.33952280433E+03  0.36202978967E+03  0.12000000000E+03 0.  0.
         25    1    1    2    0    0  0.26795296509E+02  0.25919992904E+02  0.21375962967E+04  0.21412864736E+04  0.12000000000E+03 0.  0.
<mgrwt>
<rscale>  0 0.36121084E+03</rscale>
<asrwt>0</asrwt>
<pdfrwt beam="1">  1        2 0.38311004E+00 0.36121084E+03</pdfrwt>
<pdfrwt beam="2">  1       -2 0.20151683E-02 0.36121084E+03</pdfrwt>
<totfact> 0.30868821E+03</totfact>
</mgrwt>
</event>
<event>
 4    1  0.1777979E-004  0.2940280E+03  0.7818608E-02  0.1088265E+00
         -1   -1    0    0    0  501 -0.00000000000E+00  0.00000000000E+00  0.27507406036E+02  0.27507406036E+02  0.00000000000E+00 0. -1.
          1   -1    0    0  501    0  0.00000000000E+00 -0.00000000000E+00 -0.78571989438E+03  0.78571989438E+03  0.00000000000E+00 0. -1.
         25    1    1    2    0    0  0.60341214505E+02 -0.30007266564E+02 -0.52206489359E+03  0.53990114960E+03  0.12000000000E+03 0.  0.
         25    1    1    2    0    0 -0.60341214505E+02  0.30007266564E+02 -0.23614759475E+03  0.27332615082E+03  0.12000000000E+03 0.  0.
<mgrwt>
<rscale>  0 0.29402800E+03</rscale>
<asrwt>0</asrwt>
<pdfrwt beam="1">  1        1 0.12087998E+00 0.29402800E+03</pdfrwt>
<pdfrwt beam="2">  1       -1 0.42319086E-02 0.29402800E+03</pdfrwt>
<totfact> 0.53564312E+03</totfact>
</mgrwt>
</event>
<event>
 4    1  0.1777979E-004  0.2572532E+03  0.7818608E-02  0.1108805E+00
         -2   -1    0    0    0  501 -0.00000000000E+00  0.00000000000E+00  0.53226279380E+03  0.53226279380E+03  0.00000000000E+00 0. -1.
          2   -1    0    0  501    0  0.00000000000E+00 -0.00000000000E+00 -0.31083907694E+02  0.31083907694E+02  0.00000000000E+00 0. -1.
         25    1    1    2    0    0  0.15444717188E+02 -0.41932007319E+02  0.22395098327E+03  0.25797456354E+03  0.12000000000E+03 0.  0.
         25    1    1    2    0    0 -0.15444717188E+02  0.41932007319E+02  0.27722790284E+03  0.30537213796E+03  0.12000000000E+03 0.  0.
<mgrwt>
<rscale>  0 0.25725324E+03</rscale>
<asrwt>0</asrwt>
<pdfrwt beam="1">  1        2 0.47821400E-02 0.25725324E+03</pdfrwt>
<pdfrwt beam="2">  1       -2 0.81886577E-01 0.25725324E+03</pdfrwt>
<totfact> 0.22449053E+03</totfact>
</mgrwt>
</event>
<event>
 4    1  0.1777979E-004  0.2767234E+03  0.7818608E-02  0.1097492E+00
          2   -1    0    0  501    0  0.00000000000E+00  0.00000000000E+00  0.93518407652E+01  0.93518407652E+01  0.00000000000E+00 0.  1.
         -2   -1    0    0    0  501 -0.00000000000E+00 -0.00000000000E+00 -0.20470789845E+04  0.20470789845E+04  0.00000000000E+00 0.  1.
         25    1    1    2    0    0 -0.62034145397E+02  0.23541598348E+02 -0.88153119823E+03  0.89213210653E+03  0.12000000000E+03 0.  0.
         25    1    1    2    0    0  0.62034145397E+02 -0.23541598348E+02 -0.11561959455E+04  0.11642987188E+04  0.12000000000E+03 0.  0.
<mgrwt>
<rscale>  0 0.27672338E+03</rscale>
<asrwt>0</asrwt>
<pdfrwt beam="1">  1        2 0.14387444E-02 0.27672338E+03</pdfrwt>
<pdfrwt beam="2">  1       -2 0.31493531E+00 0.27672338E+03</pdfrwt>
<totfact> 0.25906555E+02</totfact>
</mgrwt>
</event>
<event>
 4    1  0.1777979E-004  0.2460764E+03  0.7818608E-02  0.1115810E+00
         -2   -1    0    0    0  501 -0.00000000000E+00  0.00000000000E+00  0.93459221088E+01  0.93459221088E+01  0.00000000000E+00 0.  1.
          2   -1    0    0  501    0  0.00000000000E+00 -0.00000000000E+00 -0.16197864718E+04  0.16197864718E+04  0.00000000000E+00 0.  1.
         25    1    1    2    0    0 -0.17827204237E+02 -0.20231188680E+02 -0.82746334724E+03  0.83655406355E+03  0.12000000000E+03 0.  0.
         25    1    1    2    0    0  0.17827204237E+02  0.20231188680E+02 -0.78297720249E+03  0.79257833040E+03  0.12000000000E+03 0.  0.
<mgrwt>
<rscale>  0 0.24607640E+03</rscale>
<asrwt>0</asrwt>
<pdfrwt beam="1">  1        2 0.24919798E+00 0.24607640E+03</pdfrwt>
<pdfrwt beam="2">  1       -2 0.14378338E-02 0.24607640E+03</pdfrwt>
<totfact> 0.14731904E+04</totfact>
</mgrwt>
</event>
<event>
 4    1  0.1777979E-004  0.3803908E+03  0.7818608E-02  0.1050789E+00
          2   -1    0    0  501    0  0.00000000000E+00  0.00000000000E+00  0.64441216826E+03  0.64441216826E+03  0.00000000000E+00 0.  1.
         -2   -1    0    0    0  501 -0.00000000000E+00 -0.00000000000E+00 -0.56135344027E+02  0.56135344027E+02  0.00000000000E+00 0.  1.
         25    1    1    2    0    0  0.65910860832E+02  0.13184003720E+03  0.30693249593E+03  0.36101744285E+03  0.12000000000E+03 0.  0.
         25    1    1    2    0    0 -0.65910860832E+02 -0.13184003720E+03  0.28134432830E+03  0.33953006944E+03  0.12000000000E+03 0.  0.
<mgrwt>
<rscale>  0 0.38039085E+03</rscale>
<asrwt>0</asrwt>
<pdfrwt beam="1">  1        2 0.99140328E-01 0.38039085E+03</pdfrwt>
<pdfrwt beam="2">  1       -2 0.86362072E-02 0.38039085E+03</pdfrwt>
<totfact> 0.39056577E+03</totfact>
</mgrwt>
</event>
<event>
 4    1  0.1777979E-004  0.3879035E+03  0.7818608E-02  0.1048051E+00
         -4   -1    0    0    0  501 -0.00000000000E+00  0.00000000000E+00  0.21058983131E+03  0.21058983131E+03  0.00000000000E+00 0. -1.
          4   -1    0    0  501    0  0.00000000000E+00 -0.00000000000E+00 -0.17862820360E+03  0.17862820360E+03  0.00000000000E+00 0. -1.
         25    1    1    2    0    0 -0.65660404912E+02 -0.57451729230E+02  0.14132529417E+03  0.20490199788E+03  0.12000000000E+03 0.  0.
         25    1    1    2    0    0  0.65660404912E+02  0.57451729230E+02 -0.10936366646E+03  0.18431603703E+03  0.12000000000E+03 0.  0.
<mgrwt>
<rscale>  0 0.38790351E+03</rscale>
<asrwt>0</asrwt>
<pdfrwt beam="1">  1        4 0.27481262E-01 0.38790351E+03</pdfrwt>
<pdfrwt beam="2">  1       -4 0.32398436E-01 0.38790351E+03</pdfrwt>
<totfact> 0.22338805E+02</totfact>
</mgrwt>
</event>
<event>
 4    1  0.1777979E-004  0.4267194E+03  0.7818608E-02  0.1034901E+00
         -2   -1    0    0    0  501 -0.00000000000E+00  0.00000000000E+00  0.54767869874E+02  0.54767869874E+02  0.00000000000E+00 0.  1.
          2   -1    0    0  501    0  0.00000000000E+00 -0.00000000000E+00 -0.83118729827E+03  0.83118729827E+03  0.00000000000E+00 0.  1.
         25    1    1    2    0    0 -0.10461637991E+03  0.13989097500E+03 -0.33700342868E+03  0.39810222654E+03  0.12000000000E+03 0.  0.
         25    1    1    2    0    0  0.10461637991E+03 -0.13989097500E+03 -0.43941599971E+03  0.48785294160E+03  0.12000000000E+03 0.  0.
<mgrwt>
<rscale>  0 0.42671938E+03</rscale>
<asrwt>0</asrwt>
<pdfrwt beam="1">  1        2 0.12787497E+00 0.42671938E+03</pdfrwt>
<pdfrwt beam="2">  1       -2 0.84258263E-02 0.42671938E+03</pdfrwt>
<totfact> 0.29551703E+03</totfact>
</mgrwt>
</event>
<event>
 4    1  0.1777979E-004  0.2569037E+03  0.7818608E-02  0.1109018E+00
         -2   -1    0    0    0  501 -0.00000000000E+00  0.00000000000E+00  0.48544613894E+02  0.48544613894E+02  0.00000000000E+00 0. -1.
          2   -1    0    0  501    0  0.00000000000E+00 -0.00000000000E+00 -0.33989104959E+03  0.33989104959E+03  0.00000000000E+00 0. -1.
         25    1    1    2    0    0  0.44188608897E+02 -0.80340790277E+01 -0.15942319434E+03  0.20453101103E+03  0.12000000000E+03 0.  0.
         25    1    1    2    0    0 -0.44188608897E+02  0.80340790277E+01 -0.13192324136E+03  0.18390465245E+03  0.12000000000E+03 0.  0.
<mgrwt>
<rscale>  0 0.25690372E+03</rscale>
<asrwt>0</asrwt>
<pdfrwt beam="1">  1        2 0.52290930E-01 0.25690372E+03</pdfrwt>
<pdfrwt beam="2">  1       -2 0.74684022E-02 0.25690372E+03</pdfrwt>
<totfact> 0.99343699E+03</totfact>
</mgrwt>
</event>
<event>
 4    1  0.1777979E-004  0.5574996E+03  0.7818608E-02  0.9997728E-01
          2   -1    0    0  501    0  0.00000000000E+00  0.00000000000E+00  0.75916380137E+03  0.75916380137E+03  0.00000000000E+00 0. -1.
         -2   -1    0    0    0  501 -0.00000000000E+00 -0.00000000000E+00 -0.10235135470E+03  0.10235135470E+03  0.00000000000E+00 0. -1.
         25    1    1    2    0    0 -0.14578771746E+03  0.15688057053E+03  0.12435452526E+03  0.27519015230E+03  0.12000000000E+03 0.  0.
         25    1    1    2    0    0  0.14578771746E+03 -0.15688057053E+03  0.53245792141E+03  0.58632500377E+03  0.12000000000E+03 0.  0.
<mgrwt>
<rscale>  0 0.55749957E+03</rscale>
<asrwt>0</asrwt>
<pdfrwt beam="1">  1        2 0.11679443E+00 0.55749957E+03</pdfrwt>
<pdfrwt beam="2">  1       -2 0.15746363E-01 0.55749957E+03</pdfrwt>
<totfact> 0.11956829E+03</totfact>
</mgrwt>
</event>
<event>
 4    1  0.1777979E-004  0.3109563E+03  0.7818608E-02  0.1079888E+00
          1   -1    0    0  501    0  0.00000000000E+00  0.00000000000E+00  0.71350176336E+03  0.71350176336E+03  0.00000000000E+00 0.  1.
         -1   -1    0    0    0  501 -0.00000000000E+00 -0.00000000000E+00 -0.33880023908E+02  0.33880023908E+02  0.00000000000E+00 0.  1.
         25    1    1    2    0    0 -0.27050403094E+02 -0.86072238086E+02  0.43694602202E+03  0.46201945915E+03  0.12000000000E+03 0.  0.
         25    1    1    2    0    0  0.27050403094E+02  0.86072238086E+02  0.24267571743E+03  0.28536232812E+03  0.12000000000E+03 0.  0.
<mgrwt>
<rscale>  0 0.31095631E+03</rscale>
<asrwt>0</asrwt>
<pdfrwt beam="1">  1        1 0.10976949E+00 0.31095631E+03</pdfrwt>
<pdfrwt beam="2">  1       -1 0.52123119E-02 0.31095631E+03</pdfrwt>
<totfact> 0.45352701E+03</totfact>
</mgrwt>
</event>
<event>
 4    1  0.1777979E-004  0.2615862E+03  0.7818608E-02  0.1106194E+00
          1   -1    0    0  501    0  0.00000000000E+00  0.00000000000E+00  0.88866439736E+03  0.88866439736E+03  0.00000000000E+00 0. -1.
         -1   -1    0    0    0  501 -0.00000000000E+00 -0.00000000000E+00 -0.19250048798E+02  0.19250048798E+02  0.00000000000E+00 0. -1.
         25    1    1    2    0    0  0.43961694359E+01 -0.36194344499E+02  0.56352387279E+03  0.57731145155E+03  0.12000000000E+03 0.  0.
         25    1    1    2    0    0 -0.43961694359E+01  0.36194344499E+02  0.30589047577E+03  0.33060299461E+03  0.12000000000E+03 0.  0.
<mgrwt>
<rscale>  0 0.26158618E+03</rscale>
<asrwt>0</asrwt>
<pdfrwt beam="1">  1        1 0.13671757E+00 0.26158618E+03</pdfrwt>
<pdfrwt beam="2">  1       -1 0.29615467E-02 0.26158618E+03</pdfrwt>
<totfact> 0.74724073E+03</totfact>
</mgrwt>
</event>
<event>
 4    1  0.1777979E-004  0.3917077E+03  0.7818608E-02  0.1046689E+00
          1   -1    0    0  501    0  0.00000000000E+00  0.00000000000E+00  0.17564517314E+04  0.17564517314E+04  0.00000000000E+00 0. -1.
         -1   -1    0    0    0  501 -0.00000000000E+00 -0.00000000000E+00 -0.21838758629E+02  0.21838758629E+02  0.00000000000E+00 0. -1.
         25    1    1    2    0    0  0.12699079019E+03  0.51942696766E+02  0.54201743870E+03  0.57184579075E+03  0.12000000000E+03 0.  0.
         25    1    1    2    0    0 -0.12699079019E+03 -0.51942696766E+02  0.11925955341E+04  0.12064446993E+04  0.12000000000E+03 0.  0.
<mgrwt>
<rscale>  0 0.39170767E+03</rscale>
<asrwt>0</asrwt>
<pdfrwt beam="1">  1        1 0.27022323E+00 0.39170767E+03</pdfrwt>
<pdfrwt beam="2">  1       -1 0.33598104E-02 0.39170767E+03</pdfrwt>
<totfact> 0.15401619E+03</totfact>
</mgrwt>
</event>
<event>
 4    1  0.1777979E-004  0.2911998E+03  0.7818608E-02  0.1089724E+00
          1   -1    0    0  501    0  0.00000000000E+00  0.00000000000E+00  0.40727615097E+03  0.40727615097E+03  0.00000000000E+00 0. -1.
         -1   -1    0    0    0  501 -0.00000000000E+00 -0.00000000000E+00 -0.52051485715E+02  0.52051485715E+02  0.00000000000E+00 0. -1.
         25    1    1    2    0    0 -0.37816523099E+02 -0.16535870187E+02  0.65012460334E+02  0.14258381542E+03  0.12000000000E+03 0.  0.
         25    1    1    2    0    0  0.37816523099E+02  0.16535870187E+02  0.29021220492E+03  0.31674382126E+03  0.12000000000E+03 0.  0.
<mgrwt>
<rscale>  0 0.29119979E+03</rscale>
<asrwt>0</asrwt>
<pdfrwt beam="1">  1        1 0.62657867E-01 0.29119979E+03</pdfrwt>
<pdfrwt beam="2">  1       -1 0.80079211E-02 0.29119979E+03</pdfrwt>
<totfact> 0.50729935E+03</totfact>
</mgrwt>
</event>
<event>
 4    1  0.1777979E-004  0.2864170E+03  0.7818608E-02  0.1092235E+00
         -1   -1    0    0    0  501 -0.00000000000E+00  0.00000000000E+00  0.10340207759E+02  0.10340207759E+02  0.00000000000E+00 0.  1.
          1   -1    0    0  501    0  0.00000000000E+00 -0.00000000000E+00 -0.19833906895E+04  0.19833906895E+04  0.00000000000E+00 0.  1.
         25    1    1    2    0    0 -0.58736104351E+02  0.44696691055E+02 -0.11654833193E+04  0.11739672447E+04  0.12000000000E+03 0.  0.
         25    1    1    2    0    0  0.58736104351E+02 -0.44696691055E+02 -0.80756716247E+03  0.81976365255E+03  0.12000000000E+03 0.  0.
<mgrwt>
<rscale>  0 0.28641698E+03</rscale>
<asrwt>0</asrwt>
<pdfrwt beam="1">  1        1 0.30513720E+00 0.28641698E+03</pdfrwt>
<pdfrwt beam="2">  1       -1 0.15908003E-02 0.28641698E+03</pdfrwt>
<totfact> 0.33130266E+03</totfact>
</mgrwt>
</event>
<event>
 4    1  0.1777979E-004  0.3815418E+03  0.7818608E-02  0.1050365E+00
         -2   -1    0    0    0  501 -0.00000000000E+00  0.00000000000E+00  0.16620986721E+03  0.16620986721E+03  0.00000000000E+00 0. -1.
          2   -1    0    0  501    0  0.00000000000E+00 -0.00000000000E+00 -0.21896129387E+03  0.21896129387E+03  0.00000000000E+00 0. -1.
         25    1    1    2    0    0  0.41512983289E+02 -0.71113949780E+02 -0.15089000661E+03  0.20963853589E+03  0.12000000000E+03 0.  0.
         25    1    1    2    0    0 -0.41512983289E+02  0.71113949780E+02  0.98138579941E+02  0.17553262519E+03  0.12000000000E+03 0.  0.
<mgrwt>
<rscale>  0 0.38154175E+03</rscale>
<asrwt>0</asrwt>
<pdfrwt beam="1">  1        2 0.33686353E-01 0.38154175E+03</pdfrwt>
<pdfrwt beam="2">  1       -2 0.25570749E-01 0.38154175E+03</pdfrwt>
<totfact> 0.21191662E+03</totfact>
</mgrwt>
</event>
<event>
 4    1  0.1777979E-004  0.2927195E+03  0.7818608E-02  0.1088938E+00
          4   -1    0    0  501    0  0.00000000000E+00  0.00000000000E+00  0.22273246303E+02  0.22273246303E+02  0.00000000000E+00 0. -1.
         -4   -1    0    0    0  501 -0.00000000000E+00 -0.00000000000E+00 -0.96174449408E+03  0.96174449408E+03  0.00000000000E+00 0. -1.
         25    1    1    2    0    0  0.73794060825E+02  0.39341500058E+02 -0.48747762350E+03  0.50894768931E+03  0.12000000000E+03 0.  0.
         25    1    1    2    0    0 -0.73794060825E+02 -0.39341500058E+02 -0.45199362427E+03  0.47507005107E+03  0.12000000000E+03 0.  0.
<mgrwt>
<rscale>  0 0.29271947E+03</rscale>
<asrwt>0</asrwt>
<pdfrwt beam="1">  1        4 0.34266533E-02 0.29271947E+03</pdfrwt>
<pdfrwt beam="2">  1       -4 0.14796069E+00 0.29271947E+03</pdfrwt>
<totfact> 0.26977119E+02</totfact>
</mgrwt>
</event>
<event>
 4    1  0.1777979E-004  0.3935974E+03  0.7818608E-02  0.1046020E+00
         -2   -1    0    0    0  501 -0.00000000000E+00  0.00000000000E+00  0.41668369372E+02  0.41668369372E+02  0.00000000000E+00 0. -1.
          2   -1    0    0  501    0  0.00000000000E+00 -0.00000000000E+00 -0.92947534876E+03  0.92947534876E+03  0.00000000000E+00 0. -1.
         25    1    1    2    0    0  0.15040736572E+03  0.16319670311E+02 -0.53756594697E+03  0.57119686154E+03  0.12000000000E+03 0.  0.
         25    1    1    2    0    0 -0.15040736572E+03 -0.16319670311E+02 -0.35024103242E+03  0.39994685659E+03  0.12000000000E+03 0.  0.
<mgrwt>
<rscale>  0 0.39359737E+03</rscale>
<asrwt>0</asrwt>
<pdfrwt beam="1">  1        2 0.14299619E+00 0.39359737E+03</pdfrwt>
<pdfrwt beam="2">  1       -2 0.64105190E-02 0.39359737E+03</pdfrwt>
<totfact> 0.39028081E+03</totfact>
</mgrwt>
</event>
<event>
 4    1  0.1777979E-004  0.2597166E+03  0.7818608E-02  0.1107314E+00
          2   -1    0    0  501    0  0.00000000000E+00  0.00000000000E+00  0.14713983180E+04  0.14713983180E+04  0.00000000000E+00 0. -1.
         -2   -1    0    0    0  501 -0.00000000000E+00 -0.00000000000E+00 -0.11460646257E+02  0.11460646257E+02  0.00000000000E+00 0. -1.
         25    1    1    2    0    0 -0.47597869119E+02 -0.94923336928E+01  0.78917035400E+03  0.79971589278E+03  0.12000000000E+03 0.  0.
         25    1    1    2    0    0  0.47597869119E+02  0.94923336928E+01  0.67076731773E+03  0.68314307146E+03  0.12000000000E+03 0.  0.
<mgrwt>
<rscale>  0 0.25971658E+03</rscale>
<asrwt>0</asrwt>
<pdfrwt beam="1">  1        2 0.22636882E+00 0.25971658E+03</pdfrwt>
<pdfrwt beam="2">  1       -2 0.17631775E-02 0.25971658E+03</pdfrwt>
<totfact> 0.13130503E+04</totfact>
</mgrwt>
</event>
<event>
 4    1  0.1777979E-004  0.3125741E+03  0.7818608E-02  0.1079119E+00
          2   -1    0    0  501    0  0.00000000000E+00  0.00000000000E+00  0.11893193514E+04  0.11893193514E+04  0.00000000000E+00 0. -1.
         -2   -1    0    0    0  501 -0.00000000000E+00 -0.00000000000E+00 -0.20537501750E+02  0.20537501750E+02  0.00000000000E+00 0. -1.
         25    1    1    2    0    0 -0.97667886597E+02  0.16736877677E+02  0.64001343118E+03  0.65866253214E+03  0.12000000000E+03 0.  0.
         25    1    1    2    0    0  0.97667886597E+02 -0.16736877677E+02  0.52876841842E+03  0.55119432096E+03  0.12000000000E+03 0.  0.
<mgrwt>
<rscale>  0 0.31257414E+03</rscale>
<asrwt>0</asrwt>
<pdfrwt beam="1">  1        2 0.18297215E+00 0.31257414E+03</pdfrwt>
<pdfrwt beam="2">  1       -2 0.31596166E-02 0.31257414E+03</pdfrwt>
<totfact> 0.79610761E+03</totfact>
</mgrwt>
</event>
<event>
 4    1  0.1777979E-004  0.2559978E+03  0.7818608E-02  0.1109572E+00
          2   -1    0    0  501    0  0.00000000000E+00  0.00000000000E+00  0.34388202324E+04  0.34388202324E+04  0.00000000000E+00 0.  1.
         -2   -1    0    0    0  501 -0.00000000000E+00 -0.00000000000E+00 -0.47643435410E+01  0.47643435410E+01  0.00000000000E+00 0.  1.
         25    1    1    2    0    0  0.27727984042E+02 -0.22320746571E+02  0.13569203148E+04  0.13626811064E+04  0.12000000000E+03 0.  0.
         25    1    1    2    0    0 -0.27727984042E+02  0.22320746571E+02  0.20771355740E+04  0.20809034696E+04  0.12000000000E+03 0.  0.
<mgrwt>
<rscale>  0 0.25599782E+03</rscale>
<asrwt>0</asrwt>
<pdfrwt beam="1">  1        2 0.52904728E+00 0.25599782E+03</pdfrwt>
<pdfrwt beam="2">  1       -2 0.73297868E-03 0.25599782E+03</pdfrwt>
<totfact> 0.37298621E+03</totfact>
</mgrwt>
</event>
<event>
 4    1  0.1777979E-004  0.2934343E+03  0.7818608E-02  0.1088570E+00
         -2   -1    0    0    0  501 -0.00000000000E+00  0.00000000000E+00  0.44134974415E+03  0.44134974415E+03  0.00000000000E+00 0. -1.
          2   -1    0    0  501    0  0.00000000000E+00 -0.00000000000E+00 -0.48772945320E+02  0.48772945320E+02  0.00000000000E+00 0. -1.
         25    1    1    2    0    0 -0.47577579914E+02  0.60567745121E+02  0.13857607108E+03  0.19883512098E+03  0.12000000000E+03 0.  0.
         25    1    1    2    0    0  0.47577579914E+02 -0.60567745121E+02  0.25400072775E+03  0.29128756849E+03  0.12000000000E+03 0.  0.
<mgrwt>
<rscale>  0 0.29343433E+03</rscale>
<asrwt>0</asrwt>
<pdfrwt beam="1">  1        2 0.75035303E-02 0.29343433E+03</pdfrwt>
<pdfrwt beam="2">  1       -2 0.67899958E-01 0.29343433E+03</pdfrwt>
<totfact> 0.18810099E+03</totfact>
</mgrwt>
</event>
<event>
 4    1  0.1777979E-004  0.4055379E+03  0.7818608E-02  0.1041879E+00
         -2   -1    0    0    0  501 -0.00000000000E+00  0.00000000000E+00  0.78791805570E+02  0.78791805570E+02  0.00000000000E+00 0.  1.
          2   -1    0    0  501    0  0.00000000000E+00 -0.00000000000E+00 -0.52182130652E+03  0.52182130652E+03  0.00000000000E+00 0.  1.
         25    1    1    2    0    0 -0.48291209238E+02  0.92538970929E+02 -0.40779339377E+03  0.43771103943E+03  0.12000000000E+03 0.  0.
         25    1    1    2    0    0  0.48291209238E+02 -0.92538970929E+02 -0.35236107182E+02  0.16290207267E+03  0.12000000000E+03 0.  0.
<mgrwt>
<rscale>  0 0.40553788E+03</rscale>
<asrwt>0</asrwt>
<pdfrwt beam="1">  1        2 0.80280202E-01 0.40553788E+03</pdfrwt>
<pdfrwt beam="2">  1       -2 0.12121816E-01 0.40553788E+03</pdfrwt>
<totfact> 0.29011199E+03</totfact>
</mgrwt>
</event>
<event>
 4    1  0.1777979E-004  0.4179936E+03  0.7818608E-02  0.1037721E+00
         -2   -1    0    0    0  501 -0.00000000000E+00  0.00000000000E+00  0.30806710179E+03  0.30806710179E+03  0.00000000000E+00 0.  1.
          2   -1    0    0  501    0  0.00000000000E+00 -0.00000000000E+00 -0.14178621512E+03  0.14178621512E+03  0.00000000000E+00 0.  1.
         25    1    1    2    0    0  0.12621039686E+03  0.11549170830E+03  0.86910197286E+02  0.22632008606E+03  0.12000000000E+03 0.  0.
         25    1    1    2    0    0 -0.12621039686E+03 -0.11549170830E+03  0.79370689380E+02  0.22353323085E+03  0.12000000000E+03 0.  0.
<mgrwt>
<rscale>  0 0.41799363E+03</rscale>
<asrwt>0</asrwt>
<pdfrwt beam="1">  1        2 0.21813264E-01 0.41799363E+03</pdfrwt>
<pdfrwt beam="2">  1       -2 0.47394939E-01 0.41799363E+03</pdfrwt>
<totfact> 0.10819524E+03</totfact>
</mgrwt>
</event>
<event>
 4    1  0.1777979E-004  0.2762593E+03  0.7818608E-02  0.1097750E+00
          2   -1    0    0  501    0  0.00000000000E+00  0.00000000000E+00  0.29032713063E+03  0.29032713063E+03  0.00000000000E+00 0. -1.
         -2   -1    0    0    0  501 -0.00000000000E+00 -0.00000000000E+00 -0.65718286551E+02  0.65718286551E+02  0.00000000000E+00 0. -1.
         25    1    1    2    0    0  0.54240588221E+02 -0.24259279888E+02  0.15599575153E+03  0.20558508839E+03  0.12000000000E+03 0.  0.
         25    1    1    2    0    0 -0.54240588221E+02  0.24259279888E+02  0.68613092544E+02  0.15046032879E+03  0.12000000000E+03 0.  0.
<mgrwt>
<rscale>  0 0.27625931E+03</rscale>
<asrwt>0</asrwt>
<pdfrwt beam="1">  1        2 0.44665712E-01 0.27625931E+03</pdfrwt>
<pdfrwt beam="2">  1       -2 0.10110506E-01 0.27625931E+03</pdfrwt>
<totfact> 0.73341743E+03</totfact>
</mgrwt>
</event>
<event>
 4    1  0.1777979E-004  0.2763397E+03  0.7818608E-02  0.1097705E+00
         -2   -1    0    0    0  501 -0.00000000000E+00  0.00000000000E+00  0.15182618584E+02  0.15182618584E+02  0.00000000000E+00 0.  1.
          2   -1    0    0  501    0  0.00000000000E+00 -0.00000000000E+00 -0.12574183269E+04  0.12574183269E+04  0.00000000000E+00 0.  1.
         25    1    1    2    0    0  0.34194631430E+02 -0.24572990453E+02 -0.86987561357E+03  0.87912268072E+03  0.12000000000E+03 0.  0.
         25    1    1    2    0    0 -0.34194631430E+02  0.24572990453E+02 -0.37236009472E+03  0.39347826473E+03  0.12000000000E+03 0.  0.
<mgrwt>
<rscale>  0 0.27633967E+03</rscale>
<asrwt>0</asrwt>
<pdfrwt beam="1">  1        2 0.19344903E+00 0.27633967E+03</pdfrwt>
<pdfrwt beam="2">  1       -2 0.23357868E-02 0.27633967E+03</pdfrwt>
<totfact> 0.11383780E+04</totfact>
</mgrwt>
</event>
<event>
 4    1  0.1777979E-004  0.3493069E+03  0.7818608E-02  0.1062900E+00
         -2   -1    0    0    0  501 -0.00000000000E+00  0.00000000000E+00  0.41759269370E+02  0.41759269370E+02  0.00000000000E+00 0.  1.
          2   -1    0    0  501    0  0.00000000000E+00 -0.00000000000E+00 -0.73046854158E+03  0.73046854158E+03  0.00000000000E+00 0.  1.
         25    1    1    2    0    0  0.30981812316E+02  0.11366473002E+03 -0.24009076391E+03  0.29312645473E+03  0.12000000000E+03 0.  0.
         25    1    1    2    0    0 -0.30981812316E+02 -0.11366473002E+03 -0.44861850830E+03  0.47910135622E+03  0.12000000000E+03 0.  0.
<mgrwt>
<rscale>  0 0.34930693E+03</rscale>
<asrwt>0</asrwt>
<pdfrwt beam="1">  1        2 0.11237977E+00 0.34930693E+03</pdfrwt>
<pdfrwt beam="2">  1       -2 0.64245032E-02 0.34930693E+03</pdfrwt>
<totfact> 0.53206367E+03</totfact>
</mgrwt>
</event>
<event>
 4    1  0.1777979E-004  0.2994912E+03  0.7818608E-02  0.1085495E+00
         -1   -1    0    0    0  501 -0.00000000000E+00  0.00000000000E+00  0.29968340949E+02  0.29968340949E+02  0.00000000000E+00 0. -1.
          1   -1    0    0  501    0  0.00000000000E+00 -0.00000000000E+00 -0.74824801670E+03  0.74824801670E+03  0.00000000000E+00 0. -1.
         25    1    1    2    0    0 -0.81333053903E+02 -0.17745892532E+02 -0.44507662057E+03  0.46842628079E+03  0.12000000000E+03 0.  0.
         25    1    1    2    0    0  0.81333053903E+02  0.17745892532E+02 -0.27320305518E+03  0.30979007686E+03  0.12000000000E+03 0.  0.
<mgrwt>
<rscale>  0 0.29949125E+03</rscale>
<asrwt>0</asrwt>
<pdfrwt beam="1">  1        1 0.11511508E+00 0.29949125E+03</pdfrwt>
<pdfrwt beam="2">  1       -1 0.46105138E-02 0.29949125E+03</pdfrwt>
<totfact> 0.50765310E+03</totfact>
</mgrwt>
</event>
<event>
 4    1  0.1777979E-004  0.3563427E+03  0.7818608E-02  0.1060041E+00
          2   -1    0    0  501    0  0.00000000000E+00  0.00000000000E+00  0.59465636546E+02  0.59465636546E+02  0.00000000000E+00 0.  1.
         -2   -1    0    0    0  501 -0.00000000000E+00 -0.00000000000E+00 -0.53383813104E+03  0.53383813104E+03  0.00000000000E+00 0.  1.
         25    1    1    2    0    0  0.65031640937E+02 -0.79284591249E+01 -0.42741023032E+03  0.44874433675E+03  0.12000000000E+03 0.  0.
         25    1    1    2    0    0 -0.65031640937E+02  0.79284591249E+01 -0.46962264179E+02  0.14455943084E+03  0.12000000000E+03 0.  0.
<mgrwt>
<rscale>  0 0.35634267E+03</rscale>
<asrwt>0</asrwt>
<pdfrwt beam="1">  1        2 0.91485597E-02 0.35634267E+03</pdfrwt>
<pdfrwt beam="2">  1       -2 0.82128941E-01 0.35634267E+03</pdfrwt>
<totfact> 0.96851109E+02</totfact>
</mgrwt>
</event>
<event>
 4    1  0.1777979E-004  0.2886645E+03  0.7818608E-02  0.1091048E+00
         -2   -1    0    0    0  501 -0.00000000000E+00  0.00000000000E+00  0.22555848851E+03  0.22555848851E+03  0.00000000000E+00 0.  1.
          2   -1    0    0  501    0  0.00000000000E+00 -0.00000000000E+00 -0.92356527699E+02  0.92356527699E+02  0.00000000000E+00 0.  1.
         25    1    1    2    0    0 -0.27542040271E+02 -0.54916564205E+02  0.98273589204E+01  0.13517015199E+03  0.12000000000E+03 0.  0.
         25    1    1    2    0    0  0.27542040271E+02  0.54916564205E+02  0.12337460189E+03  0.18274486422E+03  0.12000000000E+03 0.  0.
<mgrwt>
<rscale>  0 0.28866450E+03</rscale>
<asrwt>0</asrwt>
<pdfrwt beam="1">  1        2 0.14208697E-01 0.28866450E+03</pdfrwt>
<pdfrwt beam="2">  1       -2 0.34701306E-01 0.28866450E+03</pdfrwt>
<totfact> 0.32389171E+03</totfact>
</mgrwt>
</event>
<event>
 4    1  0.1777979E-004  0.3144005E+03  0.7818608E-02  0.1078256E+00
         -1   -1    0    0    0  501 -0.00000000000E+00  0.00000000000E+00  0.95971816623E+02  0.95971816623E+02  0.00000000000E+00 0. -1.
          1   -1    0    0  501    0  0.00000000000E+00 -0.00000000000E+00 -0.25749136141E+03  0.25749136141E+03  0.00000000000E+00 0. -1.
         25    1    1    2    0    0 -0.99319033311E+02  0.21023464588E+02 -0.83433793033E+02  0.17795351714E+03  0.12000000000E+03 0.  0.
         25    1    1    2    0    0  0.99319033311E+02 -0.21023464588E+02 -0.78085751753E+02  0.17550966090E+03  0.12000000000E+03 0.  0.
<mgrwt>
<rscale>  0 0.31440047E+03</rscale>
<asrwt>0</asrwt>
<pdfrwt beam="1">  1        1 0.39614055E-01 0.31440047E+03</pdfrwt>
<pdfrwt beam="2">  1       -1 0.14764895E-01 0.31440047E+03</pdfrwt>
<totfact> 0.35051648E+03</totfact>
</mgrwt>
</event>
<event>
 4    1  0.1777979E-004  0.3240126E+03  0.7818608E-02  0.1073817E+00
          2   -1    0    0  501    0  0.00000000000E+00  0.00000000000E+00  0.19750459857E+04  0.19750459857E+04  0.00000000000E+00 0. -1.
         -2   -1    0    0    0  501 -0.00000000000E+00 -0.00000000000E+00 -0.13288821818E+02  0.13288821818E+02  0.00000000000E+00 0. -1.
         25    1    1    2    0    0 -0.86506901076E+02  0.27253575121E+01  0.57590204205E+03  0.59460409816E+03  0.12000000000E+03 0.  0.
         25    1    1    2    0    0  0.86506901076E+02 -0.27253575121E+01  0.13858551218E+04  0.13937307093E+04  0.12000000000E+03 0.  0.
<mgrwt>
<rscale>  0 0.32401256E+03</rscale>
<asrwt>0</asrwt>
<pdfrwt beam="1">  1        2 0.30385300E+00 0.32401256E+03</pdfrwt>
<pdfrwt beam="2">  1       -2 0.20444357E-02 0.32401256E+03</pdfrwt>
<totfact> 0.57327695E+03</totfact>
</mgrwt>
</event>
<event>
 4    1  0.1777979E-004  0.7043604E+03  0.7818608E-02  0.9709804E-01
         -1   -1    0    0    0  501 -0.00000000000E+00  0.00000000000E+00  0.44540837709E+02  0.44540837709E+02  0.00000000000E+00 0.  1.
          1   -1    0    0  501    0  0.00000000000E+00 -0.00000000000E+00 -0.27846553382E+04  0.27846553382E+04  0.00000000000E+00 0.  1.
         25    1    1    2    0    0  0.25885132163E+02  0.23814058046E+03 -0.45191302781E+03  0.52536307524E+03  0.12000000000E+03 0.  0.
         25    1    1    2    0    0 -0.25885132163E+02 -0.23814058046E+03 -0.22882014727E+04  0.23038331006E+04  0.12000000000E+03 0.  0.
<mgrwt>
<rscale>  0 0.70436037E+03</rscale>
<asrwt>0</asrwt>
<pdfrwt beam="1">  1        1 0.42840866E+00 0.70436037E+03</pdfrwt>
<pdfrwt beam="2">  1       -1 0.68524342E-02 0.70436037E+03</pdfrwt>
<totfact> 0.10306417E+02</totfact>
</mgrwt>
</event>
<event>
 4    1  0.1777979E-004  0.3021586E+03  0.7818608E-02  0.1084166E+00
         -2   -1    0    0    0  501 -0.00000000000E+00  0.00000000000E+00  0.10982963637E+03  0.10982963637E+03  0.00000000000E+00 0.  1.
          2   -1    0    0  501    0  0.00000000000E+00 -0.00000000000E+00 -0.20782149641E+03  0.20782149641E+03  0.00000000000E+00 0.  1.
         25    1    1    2    0    0  0.55394556736E+02  0.33879105001E+02 -0.11719597810E+03  0.17986452667E+03  0.12000000000E+03 0.  0.
         25    1    1    2    0    0 -0.55394556736E+02 -0.33879105001E+02  0.19204118058E+02  0.13778660611E+03  0.12000000000E+03 0.  0.
<mgrwt>
<rscale>  0 0.30215863E+03</rscale>
<asrwt>0</asrwt>
<pdfrwt beam="1">  1        2 0.31972538E-01 0.30215863E+03</pdfrwt>
<pdfrwt beam="2">  1       -2 0.16896867E-01 0.30215863E+03</pdfrwt>
<totfact> 0.45711025E+03</totfact>
</mgrwt>
</event>
<event>
 4    1  0.1777979E-004  0.3377158E+03  0.7818608E-02  0.1067773E+00
          1   -1    0    0  501    0  0.00000000000E+00  0.00000000000E+00  0.25477320526E+04  0.25477320526E+04  0.00000000000E+00 0. -1.
         -1   -1    0    0    0  501 -0.00000000000E+00 -0.00000000000E+00 -0.11191519228E+02  0.11191519228E+02  0.00000000000E+00 0. -1.
         25    1    1    2    0    0 -0.80749726096E+02 -0.47935533121E+02  0.71692340821E+03  0.73293758727E+03  0.12000000000E+03 0.  0.
         25    1    1    2    0    0  0.80749726096E+02  0.47935533121E+02  0.18196171251E+04  0.18259859845E+04  0.12000000000E+03 0.  0.
<mgrwt>
<rscale>  0 0.33771581E+03</rscale>
<asrwt>0</asrwt>
<pdfrwt beam="1">  1        1 0.39195832E+00 0.33771581E+03</pdfrwt>
<pdfrwt beam="2">  1       -1 0.17217742E-02 0.33771581E+03</pdfrwt>
<totfact> 0.12501800E+03</totfact>
</mgrwt>
</event>
<event>
 4    1  0.1777979E-004  0.2764481E+03  0.7818608E-02  0.1097645E+00
         -2   -1    0    0    0  501 -0.00000000000E+00  0.00000000000E+00  0.31303510503E+02  0.31303510503E+02  0.00000000000E+00 0. -1.
          2   -1    0    0  501    0  0.00000000000E+00 -0.00000000000E+00 -0.61034309393E+03  0.61034309393E+03  0.00000000000E+00 0. -1.
         25    1    1    2    0    0 -0.16168311069E+02 -0.66638873661E+02 -0.29400107081E+03  0.32486733201E+03  0.12000000000E+03 0.  0.
         25    1    1    2    0    0  0.16168311069E+02  0.66638873661E+02 -0.28503851261E+03  0.31677927243E+03  0.12000000000E+03 0.  0.
<mgrwt>
<rscale>  0 0.27644805E+03</rscale>
<asrwt>0</asrwt>
<pdfrwt beam="1">  1        2 0.93898937E-01 0.27644805E+03</pdfrwt>
<pdfrwt beam="2">  1       -2 0.48159247E-02 0.27644805E+03</pdfrwt>
<totfact> 0.10208151E+04</totfact>
</mgrwt>
</event>
<event>
 4    1  0.1777979E-004  0.7119855E+03  0.7818608E-02  0.9696952E-01
         -2   -1    0    0    0  501 -0.00000000000E+00  0.00000000000E+00  0.59760439337E+02  0.59760439337E+02  0.00000000000E+00 0. -1.
          2   -1    0    0  501    0  0.00000000000E+00 -0.00000000000E+00 -0.21206478989E+04  0.21206478989E+04  0.00000000000E+00 0. -1.
         25    1    1    2    0    0  0.23722526811E+03 -0.23501261789E+03 -0.11183570008E+04  0.11732984018E+04  0.12000000000E+03 0.  0.
         25    1    1    2    0    0 -0.23722526811E+03  0.23501261789E+03 -0.94253045868E+03  0.10071099364E+04  0.12000000000E+03 0.  0.
<mgrwt>
<rscale>  0 0.71198553E+03</rscale>
<asrwt>0</asrwt>
<pdfrwt beam="1">  1        2 0.32625349E+00 0.71198553E+03</pdfrwt>
<pdfrwt beam="2">  1       -2 0.91939146E-02 0.71198553E+03</pdfrwt>
<totfact> 0.46347959E+02</totfact>
</mgrwt>
</event>
<event>
 4    1  0.1777979E-004  0.3347068E+03  0.7818608E-02  0.1069073E+00
          1   -1    0    0  501    0  0.00000000000E+00  0.00000000000E+00  0.13213747349E+04  0.13213747349E+04  0.00000000000E+00 0. -1.
         -1   -1    0    0    0  501 -0.00000000000E+00 -0.00000000000E+00 -0.21195466368E+02  0.21195466368E+02  0.00000000000E+00 0. -1.
         25    1    1    2    0    0  0.85468065801E+02 -0.12274215691E+02  0.96469805680E+03  0.97595993127E+03  0.12000000000E+03 0.  0.
         25    1    1    2    0    0 -0.85468065801E+02  0.12274215691E+02  0.33548121169E+03  0.36661026996E+03  0.12000000000E+03 0.  0.
<mgrwt>
<rscale>  0 0.33470676E+03</rscale>
<asrwt>0</asrwt>
<pdfrwt beam="1">  1        1 0.20328836E+00 0.33470676E+03</pdfrwt>
<pdfrwt beam="2">  1       -1 0.32608420E-02 0.33470676E+03</pdfrwt>
<totfact> 0.31509703E+03</totfact>
</mgrwt>
</event>
<event>
 4    1  0.1777979E-004  0.3109925E+03  0.7818608E-02  0.1079871E+00
          1   -1    0    0  501    0  0.00000000000E+00  0.00000000000E+00  0.33953450080E+03  0.33953450080E+03  0.00000000000E+00 0. -1.
         -1   -1    0    0    0  501 -0.00000000000E+00 -0.00000000000E+00 -0.71212442807E+02  0.71212442807E+02  0.00000000000E+00 0. -1.
         25    1    1    2    0    0 -0.51944322478E+02 -0.84143175793E+02  0.13298373533E+03  0.20460440008E+03  0.12000000000E+03 0.  0.
         25    1    1    2    0    0  0.51944322478E+02  0.84143175793E+02  0.13533832267E+03  0.20614254353E+03  0.12000000000E+03 0.  0.
<mgrwt>
<rscale>  0 0.31099248E+03</rscale>
<asrwt>0</asrwt>
<pdfrwt beam="1">  1        1 0.52236076E-01 0.31099248E+03</pdfrwt>
<pdfrwt beam="2">  1       -1 0.10955761E-01 0.31099248E+03</pdfrwt>
<totfact> 0.39519594E+03</totfact>
</mgrwt>
</event>
<event>
 4    1  0.1777979E-004  0.3493479E+03  0.7818608E-02  0.1062883E+00
         -2   -1    0    0    0  501 -0.00000000000E+00  0.00000000000E+00  0.96965106069E+02  0.96965106069E+02  0.00000000000E+00 0. -1.
          2   -1    0    0  501    0  0.00000000000E+00 -0.00000000000E+00 -0.31465943757E+03  0.31465943757E+03  0.00000000000E+00 0. -1.
         25    1    1    2    0    0 -0.54194348654E+02  0.69692505776E+02 -0.21630157110E+03  0.26264128093E+03  0.12000000000E+03 0.  0.
         25    1    1    2    0    0  0.54194348654E+02 -0.69692505776E+02 -0.13927604047E+01  0.14898326271E+03  0.12000000000E+03 0.  0.
<mgrwt>
<rscale>  0 0.34934788E+03</rscale>
<asrwt>0</asrwt>
<pdfrwt beam="1">  1        2 0.48409144E-01 0.34934788E+03</pdfrwt>
<pdfrwt beam="2">  1       -2 0.14917709E-01 0.34934788E+03</pdfrwt>
<totfact> 0.35983235E+03</totfact>
</mgrwt>
</event>
<event>
 4    1  0.1777979E-004  0.2599658E+03  0.7818608E-02  0.1107164E+00
          1   -1    0    0  501    0  0.00000000000E+00  0.00000000000E+00  0.12185295451E+04  0.12185295451E+04  0.00000000000E+00 0.  1.
         -1   -1    0    0    0  501 -0.00000000000E+00 -0.00000000000E+00 -0.13865529877E+02  0.13865529877E+02  0.00000000000E+00 0.  1.
         25    1    1    2    0    0  0.13240132946E+02 -0.40250041371E+02  0.72777370170E+03  0.73881657252E+03  0.12000000000E+03 0.  0.
         25    1    1    2    0    0 -0.13240132946E+02  0.40250041371E+02  0.47689031349E+03  0.49357850242E+03  0.12000000000E+03 0.  0.
<mgrwt>
<rscale>  0 0.25996583E+03</rscale>
<asrwt>0</asrwt>
<pdfrwt beam="1">  1        1 0.18746600E+00 0.25996583E+03</pdfrwt>
<pdfrwt beam="2">  1       -1 0.21331594E-02 0.25996583E+03</pdfrwt>
<totfact> 0.69193345E+03</totfact>
</mgrwt>
</event>
<event>
 4    1  0.1777979E-004  0.2729145E+03  0.7818608E-02  0.1099623E+00
          2   -1    0    0  501    0  0.00000000000E+00  0.00000000000E+00  0.42390479648E+03  0.42390479648E+03  0.00000000000E+00 0.  1.
         -2   -1    0    0    0  501 -0.00000000000E+00 -0.00000000000E+00 -0.43926315799E+02  0.43926315799E+02  0.00000000000E+00 0.  1.
         25    1    1    2    0    0 -0.41038917277E+02  0.45350864451E+02  0.15244533847E+03  0.20342191342E+03  0.12000000000E+03 0.  0.
         25    1    1    2    0    0  0.41038917277E+02 -0.45350864451E+02  0.22753314221E+03  0.26440919886E+03  0.12000000000E+03 0.  0.
<mgrwt>
<rscale>  0 0.27291446E+03</rscale>
<asrwt>0</asrwt>
<pdfrwt beam="1">  1        2 0.65216120E-01 0.27291446E+03</pdfrwt>
<pdfrwt beam="2">  1       -2 0.67578950E-02 0.27291446E+03</pdfrwt>
<totfact> 0.91537972E+03</totfact>
</mgrwt>
</event>
<event>
 4    1  0.1777979E-004  0.2951322E+03  0.7818608E-02  0.1087700E+00
          1   -1    0    0  501    0  0.00000000000E+00  0.00000000000E+00  0.14017402817E+04  0.14017402817E+04  0.00000000000E+00 0. -1.
         -1   -1    0    0    0  501 -0.00000000000E+00 -0.00000000000E+00 -0.15534795948E+02  0.15534795948E+02  0.00000000000E+00 0. -1.
         25    1    1    2    0    0  0.72444567120E+02  0.19291266899E+02  0.89430057336E+03  0.90542469803E+03  0.12000000000E+03 0.  0.
         25    1    1    2    0    0 -0.72444567120E+02 -0.19291266899E+02  0.49190491239E+03  0.51185037962E+03  0.12000000000E+03 0.  0.
<mgrwt>
<rscale>  0 0.29513217E+03</rscale>
<asrwt>0</asrwt>
<pdfrwt beam="1">  1        1 0.21565225E+00 0.29513217E+03</pdfrwt>
<pdfrwt beam="2">  1       -1 0.23899697E-02 0.29513217E+03</pdfrwt>
<totfact> 0.43977258E+03</totfact>
</mgrwt>
</event>
<event>
 4    1  0.1777979E-004  0.2454199E+03  0.7818608E-02  0.1116234E+00
          2   -1    0    0  501    0  0.00000000000E+00  0.00000000000E+00  0.60922180367E+03  0.60922180367E+03  0.00000000000E+00 0. -1.
         -2   -1    0    0    0  501 -0.00000000000E+00 -0.00000000000E+00 -0.24716337452E+02  0.24716337452E+02  0.00000000000E+00 0. -1.
         25    1    1    2    0    0  0.13188454979E+02  0.20926222392E+02  0.27475450687E+03  0.30083530573E+03  0.12000000000E+03 0.  0.
         25    1    1    2    0    0 -0.13188454979E+02 -0.20926222392E+02  0.30975095934E+03  0.33310283539E+03  0.12000000000E+03 0.  0.
<mgrwt>
<rscale>  0 0.24541990E+03</rscale>
<asrwt>0</asrwt>
<pdfrwt beam="1">  1        2 0.93726420E-01 0.24541990E+03</pdfrwt>
<pdfrwt beam="2">  1       -2 0.38025139E-02 0.24541990E+03</pdfrwt>
<totfact> 0.14532338E+04</totfact>
</mgrwt>
</event>
<event>
 4    1  0.1777979E-004  0.2853419E+03  0.7818608E-02  0.1092807E+00
          3   -1    0    0  501    0  0.00000000000E+00  0.00000000000E+00  0.62672825114E+02  0.62672825114E+02  0.00000000000E+00 0. -1.
         -3   -1    0    0    0  501 -0.00000000000E+00 -0.00000000000E+00 -0.32478190796E+03  0.32478190796E+03  0.00000000000E+00 0. -1.
         25    1    1    2    0    0  0.61317934755E+02  0.46849530227E+02 -0.13040035041E+03  0.19328481315E+03  0.12000000000E+03 0.  0.
         25    1    1    2    0    0 -0.61317934755E+02 -0.46849530227E+02 -0.13170873243E+03  0.19416991993E+03  0.12000000000E+03 0.  0.
<mgrwt>
<rscale>  0 0.28534190E+03</rscale>
<asrwt>0</asrwt>
<pdfrwt beam="1">  1        3 0.96419732E-02 0.28534190E+03</pdfrwt>
<pdfrwt beam="2">  1       -3 0.49966447E-01 0.28534190E+03</pdfrwt>
<totfact> 0.80003095E+02</totfact>
</mgrwt>
</event>
<event>
 4    1  0.1777979E-004  0.4352635E+03  0.7818608E-02  0.1032210E+00
          2   -1    0    0  501    0  0.00000000000E+00  0.00000000000E+00  0.24237029904E+03  0.24237029904E+03  0.00000000000E+00 0. -1.
         -2   -1    0    0    0  501 -0.00000000000E+00 -0.00000000000E+00 -0.19541829008E+03  0.19541829008E+03  0.00000000000E+00 0. -1.
         25    1    1    2    0    0  0.89331954692E+02  0.49812034836E+02 -0.12740138791E+03  0.20271297587E+03  0.12000000000E+03 0.  0.
         25    1    1    2    0    0 -0.89331954692E+02 -0.49812034836E+02  0.17435339687E+03  0.23507561325E+03  0.12000000000E+03 0.  0.
<mgrwt>
<rscale>  0 0.43526355E+03</rscale>
<asrwt>0</asrwt>
<pdfrwt beam="1">  1        2 0.37287738E-01 0.43526355E+03</pdfrwt>
<pdfrwt beam="2">  1       -2 0.30064352E-01 0.43526355E+03</pdfrwt>
<totfact> 0.14157884E+03</totfact>
</mgrwt>
</event>
<event>
 4    1  0.1777979E-004  0.3164800E+03  0.7818608E-02  0.1077281E+00
         -1   -1    0    0    0  501 -0.00000000000E+00  0.00000000000E+00  0.98873505802E+02  0.98873505802E+02  0.00000000000E+00 0.  1.
          1   -1    0    0  501    0  0.00000000000E+00 -0.00000000000E+00 -0.25325187099E+03  0.25325187099E+03  0.00000000000E+00 0.  1.
         25    1    1    2    0    0 -0.82610435651E+02  0.50747031375E+02 -0.11637140149E+03  0.19324090757E+03  0.12000000000E+03 0.  0.
         25    1    1    2    0    0  0.82610435651E+02 -0.50747031375E+02 -0.38006963693E+02  0.15888446923E+03  0.12000000000E+03 0.  0.
<mgrwt>
<rscale>  0 0.31648002E+03</rscale>
<asrwt>0</asrwt>
<pdfrwt beam="1">  1        1 0.38961826E-01 0.31648002E+03</pdfrwt>
<pdfrwt beam="2">  1       -1 0.15211309E-01 0.31648002E+03</pdfrwt>
<totfact> 0.34139801E+03</totfact>
</mgrwt>
</event>
<event>
 4    1  0.1777979E-004  0.2469636E+03  0.7818608E-02  0.1115239E+00
         -2   -1    0    0    0  501 -0.00000000000E+00  0.00000000000E+00  0.48019091693E+03  0.48019091693E+03  0.00000000000E+00 0.  1.
          2   -1    0    0  501    0  0.00000000000E+00 -0.00000000000E+00 -0.31753514278E+02  0.31753514278E+02  0.00000000000E+00 0.  1.
         25    1    1    2    0    0  0.16996391124E+02  0.65895063886E+01  0.17715529816E+03  0.21474705719E+03  0.12000000000E+03 0.  0.
         25    1    1    2    0    0 -0.16996391124E+02 -0.65895063886E+01  0.27128210449E+03  0.29719737402E+03  0.12000000000E+03 0.  0.
<mgrwt>
<rscale>  0 0.24696355E+03</rscale>
<asrwt>0</asrwt>
<pdfrwt beam="1">  1        2 0.48851564E-02 0.24696355E+03</pdfrwt>
<pdfrwt beam="2">  1       -2 0.73875520E-01 0.24696355E+03</pdfrwt>
<totfact> 0.27304601E+03</totfact>
</mgrwt>
</event>
<event>
 4    1  0.1777979E-004  0.4767770E+03  0.7818608E-02  0.1020025E+00
         -2   -1    0    0    0  501 -0.00000000000E+00  0.00000000000E+00  0.20776427899E+03  0.20776427899E+03  0.00000000000E+00 0. -1.
          2   -1    0    0  501    0  0.00000000000E+00 -0.00000000000E+00 -0.27352674081E+03  0.27352674081E+03  0.00000000000E+00 0. -1.
         25    1    1    2    0    0 -0.91374285211E+02 -0.15268258243E+03  0.71869491921E+02  0.22633261993E+03  0.12000000000E+03 0.  0.
         25    1    1    2    0    0  0.91374285211E+02  0.15268258243E+03 -0.13763195375E+03  0.25495839987E+03  0.12000000000E+03 0.  0.
<mgrwt>
<rscale>  0 0.47677704E+03</rscale>
<asrwt>0</asrwt>
<pdfrwt beam="1">  1        2 0.42081037E-01 0.47677704E+03</pdfrwt>
<pdfrwt beam="2">  1       -2 0.31963735E-01 0.47677704E+03</pdfrwt>
<totfact> 0.11075516E+03</totfact>
</mgrwt>
</event>
<event>
 4    1  0.1777979E-004  0.6376904E+03  0.7818608E-02  0.9830155E-01
          2   -1    0    0  501    0  0.00000000000E+00  0.00000000000E+00  0.16713081083E+03  0.16713081083E+03  0.00000000000E+00 0. -1.
         -2   -1    0    0    0  501 -0.00000000000E+00 -0.00000000000E+00 -0.60827968128E+03  0.60827968128E+03  0.00000000000E+00 0. -1.
         25    1    1    2    0    0  0.13920402506E+03 -0.25454084520E+03 -0.15294356288E+03  0.34922848666E+03  0.12000000000E+03 0.  0.
         25    1    1    2    0    0 -0.13920402506E+03  0.25454084520E+03 -0.28820530756E+03  0.42618200545E+03  0.12000000000E+03 0.  0.
<mgrwt>
<rscale>  0 0.63769045E+03</rscale>
<asrwt>0</asrwt>
<pdfrwt beam="1">  1        2 0.25712433E-01 0.63769045E+03</pdfrwt>
<pdfrwt beam="2">  1       -2 0.93581489E-01 0.63769045E+03</pdfrwt>
<totfact> 0.20715322E+02</totfact>
</mgrwt>
</event>
<event>
 4    1  0.1777979E-004  0.3197051E+03  0.7818608E-02  0.1075785E+00
         -1   -1    0    0    0  501 -0.00000000000E+00  0.00000000000E+00  0.20807037903E+02  0.20807037903E+02  0.00000000000E+00 0.  1.
          1   -1    0    0  501    0  0.00000000000E+00 -0.00000000000E+00 -0.12280860655E+04  0.12280860655E+04  0.00000000000E+00 0.  1.
         25    1    1    2    0    0 -0.87363406601E+02  0.25593615307E+02 -0.81274770636E+03  0.82658709895E+03  0.12000000000E+03 0.  0.
         25    1    1    2    0    0  0.87363406601E+02 -0.25593615307E+02 -0.39453132120E+03  0.42230600442E+03  0.12000000000E+03 0.  0.
<mgrwt>
<rscale>  0 0.31970507E+03</rscale>
<asrwt>0</asrwt>
<pdfrwt beam="1">  1        1 0.18893637E+00 0.31970507E+03</pdfrwt>
<pdfrwt beam="2">  1       -1 0.32010818E-02 0.31970507E+03</pdfrwt>
<totfact> 0.37573062E+03</totfact>
</mgrwt>
</event>
<event>
 4    1  0.1777979E-004  0.3151662E+03  0.7818608E-02  0.1077896E+00
         -2   -1    0    0    0  501 -0.00000000000E+00  0.00000000000E+00  0.19897645084E+03  0.19897645084E+03  0.00000000000E+00 0. -1.
          2   -1    0    0  501    0  0.00000000000E+00 -0.00000000000E+00 -0.12480087740E+03  0.12480087740E+03  0.00000000000E+00 0. -1.
         25    1    1    2    0    0  0.68319955966E+02  0.75916288862E+02  0.38361148321E+02  0.16218038414E+03  0.12000000000E+03 0.  0.
         25    1    1    2    0    0 -0.68319955966E+02 -0.75916288862E+02  0.35814425125E+02  0.16159694411E+03  0.12000000000E+03 0.  0.
<mgrwt>
<rscale>  0 0.31516621E+03</rscale>
<asrwt>0</asrwt>
<pdfrwt beam="1">  1        2 0.19200135E-01 0.31516621E+03</pdfrwt>
<pdfrwt beam="2">  1       -2 0.30611762E-01 0.31516621E+03</pdfrwt>
<totfact> 0.28719783E+03</totfact>
</mgrwt>
</event>
<event>
 4    1  0.1777979E-004  0.3560144E+03  0.7818608E-02  0.1060173E+00
         -1   -1    0    0    0  501 -0.00000000000E+00  0.00000000000E+00  0.42039512684E+02  0.42039512684E+02  0.00000000000E+00 0. -1.
          1   -1    0    0  501    0  0.00000000000E+00 -0.00000000000E+00 -0.75373281945E+03  0.75373281945E+03  0.00000000000E+00 0. -1.
         25    1    1    2    0    0 -0.53166439368E+02  0.54793171845E+02 -0.11658776027E+03  0.18390668232E+03  0.12000000000E+03 0.  0.
         25    1    1    2    0    0  0.53166439368E+02 -0.54793171845E+02 -0.59510554650E+03  0.61186564982E+03  0.12000000000E+03 0.  0.
<mgrwt>
<rscale>  0 0.35601438E+03</rscale>
<asrwt>0</asrwt>
<pdfrwt beam="1">  1        1 0.11595889E+00 0.35601438E+03</pdfrwt>
<pdfrwt beam="2">  1       -1 0.64676174E-02 0.35601438E+03</pdfrwt>
<totfact> 0.30185328E+03</totfact>
</mgrwt>
</event>
<event>
 4    1  0.1777979E-004  0.2504207E+03  0.7818608E-02  0.1113039E+00
          1   -1    0    0  501    0  0.00000000000E+00  0.00000000000E+00  0.62297648141E+03  0.62297648141E+03  0.00000000000E+00 0.  1.
         -1   -1    0    0    0  501 -0.00000000000E+00 -0.00000000000E+00 -0.25165687141E+02  0.25165687141E+02  0.00000000000E+00 0.  1.
         25    1    1    2    0    0 -0.17984119898E+02 -0.13382050322E+02  0.22684685350E+03  0.25760823508E+03  0.12000000000E+03 0.  0.
         25    1    1    2    0    0  0.17984119898E+02  0.13382050322E+02  0.37096394077E+03  0.39053393347E+03  0.12000000000E+03 0.  0.
<mgrwt>
<rscale>  0 0.25042070E+03</rscale>
<asrwt>0</asrwt>
<pdfrwt beam="1">  1        1 0.95842524E-01 0.25042070E+03</pdfrwt>
<pdfrwt beam="2">  1       -1 0.38716447E-02 0.25042070E+03</pdfrwt>
<totfact> 0.85438076E+03</totfact>
</mgrwt>
</event>
<event>
 4    1  0.1777979E-004  0.3009609E+03  0.7818608E-02  0.1084761E+00
          1   -1    0    0  501    0  0.00000000000E+00  0.00000000000E+00  0.44468560020E+03  0.44468560020E+03  0.00000000000E+00 0.  1.
         -1   -1    0    0    0  501 -0.00000000000E+00 -0.00000000000E+00 -0.50922197164E+02  0.50922197164E+02  0.00000000000E+00 0.  1.
         25    1    1    2    0    0  0.84898971401E+02 -0.28932085354E+02  0.17362417873E+03  0.22932565567E+03  0.12000000000E+03 0.  0.
         25    1    1    2    0    0 -0.84898971401E+02  0.28932085354E+02  0.22013922430E+03  0.26628214169E+03  0.12000000000E+03 0.  0.
<mgrwt>
<rscale>  0 0.30096091E+03</rscale>
<asrwt>0</asrwt>
<pdfrwt beam="1">  1        1 0.68413167E-01 0.30096091E+03</pdfrwt>
<pdfrwt beam="2">  1       -1 0.78341845E-02 0.30096091E+03</pdfrwt>
<totfact> 0.46850297E+03</totfact>
</mgrwt>
</event>
<event>
 4    1  0.1777979E-004  0.2868134E+03  0.7818608E-02  0.1092025E+00
         -2   -1    0    0    0  501 -0.00000000000E+00  0.00000000000E+00  0.75932824656E+01  0.75932824656E+01  0.00000000000E+00 0.  1.
          2   -1    0    0  501    0  0.00000000000E+00 -0.00000000000E+00 -0.27083782525E+04  0.27083782525E+04  0.00000000000E+00 0.  1.
         25    1    1    2    0    0  0.23114023729E+02  0.37282611021E+02 -0.19670892776E+04  0.19712342522E+04  0.12000000000E+03 0.  0.
         25    1    1    2    0    0 -0.23114023729E+02 -0.37282611021E+02 -0.73369569248E+03  0.74473728277E+03  0.12000000000E+03 0.  0.
<mgrwt>
<rscale>  0 0.28681340E+03</rscale>
<asrwt>0</asrwt>
<pdfrwt beam="1">  1        2 0.41667355E+00 0.28681340E+03</pdfrwt>
<pdfrwt beam="2">  1       -2 0.11681974E-02 0.28681340E+03</pdfrwt>
<totfact> 0.52199809E+03</totfact>
</mgrwt>
</event>
<event>
 4    1  0.1777979E-004  0.3947116E+03  0.7818608E-02  0.1045626E+00
          2   -1    0    0  501    0  0.00000000000E+00  0.00000000000E+00  0.26705976882E+04  0.26705976882E+04  0.00000000000E+00 0.  1.
         -2   -1    0    0    0  501 -0.00000000000E+00 -0.00000000000E+00 -0.14584489836E+02  0.14584489836E+02  0.00000000000E+00 0.  1.
         25    1    1    2    0    0  0.11302272282E+03  0.51381265903E+02  0.67779999326E+03  0.69944764009E+03  0.12000000000E+03 0.  0.
         25    1    1    2    0    0 -0.11302272282E+03 -0.51381265903E+02  0.19782132051E+04  0.19857345379E+04  0.12000000000E+03 0.  0.
<mgrwt>
<rscale>  0 0.39471156E+03</rscale>
<asrwt>0</asrwt>
<pdfrwt beam="1">  1        2 0.41086080E+00 0.39471156E+03</pdfrwt>
<pdfrwt beam="2">  1       -2 0.22437698E-02 0.39471156E+03</pdfrwt>
<totfact> 0.20795264E+03</totfact>
</mgrwt>
</event>
<event>
 4    1  0.1777979E-004  0.3556407E+03  0.7818608E-02  0.1060323E+00
         -1   -1    0    0    0  501 -0.00000000000E+00  0.00000000000E+00  0.21030329359E+02  0.21030329359E+02  0.00000000000E+00 0. -1.
          1   -1    0    0  501    0  0.00000000000E+00 -0.00000000000E+00 -0.15035461883E+04  0.15035461883E+04  0.00000000000E+00 0. -1.
         25    1    1    2    0    0  0.63302904250E+02  0.11491907445E+03 -0.75211997473E+03  0.77285063741E+03  0.12000000000E+03 0.  0.
         25    1    1    2    0    0 -0.63302904250E+02 -0.11491907445E+03 -0.73039588418E+03  0.75172588021E+03  0.12000000000E+03 0.  0.
<mgrwt>
<rscale>  0 0.35564067E+03</rscale>
<asrwt>0</asrwt>
<pdfrwt beam="1">  1        1 0.23131482E+00 0.35564067E+03</pdfrwt>
<pdfrwt beam="2">  1       -1 0.32354350E-02 0.35564067E+03</pdfrwt>
<totfact> 0.23998046E+03</totfact>
</mgrwt>
</event>
<event>
 4    1  0.1777979E-004  0.2602471E+03  0.7818608E-02  0.1106995E+00
         -2   -1    0    0    0  501 -0.00000000000E+00  0.00000000000E+00  0.53996091713E+01  0.53996091713E+01  0.00000000000E+00 0.  1.
          2   -1    0    0  501    0  0.00000000000E+00 -0.00000000000E+00 -0.31358079170E+04  0.31358079170E+04  0.00000000000E+00 0.  1.
         25    1    1    2    0    0 -0.49826526023E+01 -0.17649906455E+02 -0.99960824317E+03  0.10069523255E+04  0.12000000000E+03 0.  0.
         25    1    1    2    0    0  0.49826526023E+01  0.17649906455E+02 -0.21308000647E+04  0.21342552007E+04  0.12000000000E+03 0.  0.
<mgrwt>
<rscale>  0 0.26024709E+03</rscale>
<asrwt>0</asrwt>
<pdfrwt beam="1">  1        2 0.48243155E+00 0.26024709E+03</pdfrwt>
<pdfrwt beam="2">  1       -2 0.83070986E-03 0.26024709E+03</pdfrwt>
<totfact> 0.48239411E+03</totfact>
</mgrwt>
</event>
<event>
 4    1  0.1777979E-004  0.2587197E+03  0.7818608E-02  0.1107915E+00
         -1   -1    0    0    0  501 -0.00000000000E+00  0.00000000000E+00  0.11878892865E+03  0.11878892865E+03  0.00000000000E+00 0. -1.
          1   -1    0    0  501    0  0.00000000000E+00 -0.00000000000E+00 -0.14087146980E+03  0.14087146980E+03  0.00000000000E+00 0. -1.
         25    1    1    2    0    0  0.25283182207E+02 -0.32381109043E+02  0.14471531822E+02  0.12766049020E+03  0.12000000000E+03 0.  0.
         25    1    1    2    0    0 -0.25283182207E+02  0.32381109043E+02 -0.36554072977E+02  0.13199990824E+03  0.12000000000E+03 0.  0.
<mgrwt>
<rscale>  0 0.25871970E+03</rscale>
<asrwt>0</asrwt>
<pdfrwt beam="1">  1        1 0.21672534E-01 0.25871970E+03</pdfrwt>
<pdfrwt beam="2">  1       -1 0.18275220E-01 0.25871970E+03</pdfrwt>
<totfact> 0.53202592E+03</totfact>
</mgrwt>
</event>
<event>
 4    1  0.1777979E-004  0.2565838E+03  0.7818608E-02  0.1109213E+00
          2   -1    0    0  501    0  0.00000000000E+00  0.00000000000E+00  0.11740874147E+04  0.11740874147E+04  0.00000000000E+00 0.  1.
         -2   -1    0    0    0  501 -0.00000000000E+00 -0.00000000000E+00 -0.14018389040E+02  0.14018389040E+02  0.00000000000E+00 0.  1.
         25    1    1    2    0    0 -0.14048796300E+02 -0.31999912710E+02  0.71403475041E+03  0.72489101793E+03  0.12000000000E+03 0.  0.
         25    1    1    2    0    0  0.14048796300E+02  0.31999912710E+02  0.44603427527E+03  0.46321478583E+03  0.12000000000E+03 0.  0.
<mgrwt>
<rscale>  0 0.25658382E+03</rscale>
<asrwt>0</asrwt>
<pdfrwt beam="1">  1        2 0.18062875E+00 0.25658382E+03</pdfrwt>
<pdfrwt beam="2">  1       -2 0.21566762E-02 0.25658382E+03</pdfrwt>
<totfact> 0.14239707E+04</totfact>
</mgrwt>
</event>
<event>
 4    1  0.1777979E-004  0.2831899E+03  0.7818608E-02  0.1093959E+00
         -3   -1    0    0    0  501 -0.00000000000E+00  0.00000000000E+00  0.24734672280E+03  0.24734672280E+03  0.00000000000E+00 0. -1.
          3   -1    0    0  501    0  0.00000000000E+00 -0.00000000000E+00 -0.81056773004E+02  0.81056773004E+02  0.00000000000E+00 0. -1.
         25    1    1    2    0    0  0.67938423622E+02 -0.29715474737E+02  0.68919019655E+02  0.15699831245E+03  0.12000000000E+03 0.  0.
         25    1    1    2    0    0 -0.67938423622E+02  0.29715474737E+02  0.97370930145E+02  0.17140518335E+03  0.12000000000E+03 0.  0.
<mgrwt>
<rscale>  0 0.28318988E+03</rscale>
<asrwt>0</asrwt>
<pdfrwt beam="1">  1        3 0.12470273E-01 0.28318988E+03</pdfrwt>
<pdfrwt beam="2">  1       -3 0.38053342E-01 0.28318988E+03</pdfrwt>
<totfact> 0.88794676E+02</totfact>
</mgrwt>
</event>
<event>
 4    1  0.1777979E-004  0.2935946E+03  0.7818608E-02  0.1088487E+00
         -3   -1    0    0    0  501 -0.00000000000E+00  0.00000000000E+00  0.18496732776E+04  0.18496732776E+04  0.00000000000E+00 0.  1.
          3   -1    0    0  501    0  0.00000000000E+00 -0.00000000000E+00 -0.11650406300E+02  0.11650406300E+02  0.00000000000E+00 0.  1.
         25    1    1    2    0    0  0.16953903793E+02 -0.79514343179E+02  0.10662634914E+04  0.10760705362E+04  0.12000000000E+03 0.  0.
         25    1    1    2    0    0 -0.16953903793E+02  0.79514343179E+02  0.77175937983E+03  0.78525314770E+03  0.12000000000E+03 0.  0.
<mgrwt>
<rscale>  0 0.29359459E+03</rscale>
<asrwt>0</asrwt>
<pdfrwt beam="1">  1        3 0.17923717E-02 0.29359459E+03</pdfrwt>
<pdfrwt beam="2">  1       -3 0.28456489E+00 0.29359459E+03</pdfrwt>
<totfact> 0.15176580E+02</totfact>
</mgrwt>
</event>
<event>
 4    1  0.1777979E-004  0.2661485E+03  0.7818608E-02  0.1103504E+00
          2   -1    0    0  501    0  0.00000000000E+00  0.00000000000E+00  0.51285667114E+03  0.51285667114E+03  0.00000000000E+00 0.  1.
         -2   -1    0    0    0  501 -0.00000000000E+00 -0.00000000000E+00 -0.34529644003E+02  0.34529644003E+02  0.00000000000E+00 0.  1.
         25    1    1    2    0    0  0.43762763295E+02  0.56866003844E+01  0.31504528489E+03  0.34000154177E+03  0.12000000000E+03 0.  0.
         25    1    1    2    0    0 -0.43762763295E+02 -0.56866003844E+01  0.16328174224E+03  0.20738477337E+03  0.12000000000E+03 0.  0.
<mgrwt>
<rscale>  0 0.26614852E+03</rscale>
<asrwt>0</asrwt>
<pdfrwt beam="1">  1        2 0.78901021E-01 0.26614852E+03</pdfrwt>
<pdfrwt beam="2">  1       -2 0.53122533E-02 0.26614852E+03</pdfrwt>
<totfact> 0.10713756E+04</totfact>
</mgrwt>
</event>
<event>
 4    1  0.1777979E-004  0.3339460E+03  0.7818608E-02  0.1069404E+00
          1   -1    0    0  501    0  0.00000000000E+00  0.00000000000E+00  0.21053920671E+04  0.21053920671E+04  0.00000000000E+00 0.  1.
         -1   -1    0    0    0  501 -0.00000000000E+00 -0.00000000000E+00 -0.13242177967E+02  0.13242177967E+02  0.00000000000E+00 0.  1.
         25    1    1    2    0    0 -0.52856080131E+02 -0.88165783176E+02  0.70366176370E+03  0.72118433720E+03  0.12000000000E+03 0.  0.
         25    1    1    2    0    0  0.52856080131E+02  0.88165783176E+02  0.13884881255E+04  0.13974499079E+04  0.12000000000E+03 0.  0.
<mgrwt>
<rscale>  0 0.33394596E+03</rscale>
<asrwt>0</asrwt>
<pdfrwt beam="1">  1        1 0.32390621E+00 0.33394596E+03</pdfrwt>
<pdfrwt beam="2">  1       -1 0.20372598E-02 0.33394596E+03</pdfrwt>
<totfact> 0.19162385E+03</totfact>
</mgrwt>
</event>
<event>
 4    1  0.1777979E-004  0.3482187E+03  0.7818608E-02  0.1063349E+00
          1   -1    0    0  501    0  0.00000000000E+00  0.00000000000E+00  0.11563124701E+03  0.11563124701E+03  0.00000000000E+00 0. -1.
         -1   -1    0    0    0  501 -0.00000000000E+00 -0.00000000000E+00 -0.26216159550E+03  0.26216159550E+03  0.00000000000E+00 0. -1.
         25    1    1    2    0    0 -0.11893652811E+03 -0.39771585630E+02 -0.88077363759E+02  0.19464146205E+03  0.12000000000E+03 0.  0.
         25    1    1    2    0    0  0.11893652811E+03  0.39771585630E+02 -0.58452984734E+02  0.18315138046E+03  0.12000000000E+03 0.  0.
<mgrwt>
<rscale>  0 0.34821874E+03</rscale>
<asrwt>0</asrwt>
<pdfrwt beam="1">  1        1 0.17789423E-01 0.34821874E+03</pdfrwt>
<pdfrwt beam="2">  1       -1 0.40332553E-01 0.34821874E+03</pdfrwt>
<totfact> 0.18165763E+03</totfact>
</mgrwt>
</event>
<event>
 4    1  0.1777979E-004  0.2435485E+03  0.7818608E-02  0.1117451E+00
         -2   -1    0    0    0  501 -0.00000000000E+00  0.00000000000E+00  0.13703306559E+03  0.13703306559E+03  0.00000000000E+00 0.  1.
          2   -1    0    0  501    0  0.00000000000E+00 -0.00000000000E+00 -0.10821451910E+03  0.10821451910E+03  0.00000000000E+00 0.  1.
         25    1    1    2    0    0  0.16434362210E+02  0.61009512713E+01  0.25516064284E+02  0.12392892884E+03  0.12000000000E+03 0.  0.
         25    1    1    2    0    0 -0.16434362210E+02 -0.61009512713E+01  0.33024822133E+01  0.12131865585E+03  0.12000000000E+03 0.  0.
<mgrwt>
<rscale>  0 0.24354849E+03</rscale>
<asrwt>0</asrwt>
<pdfrwt beam="1">  1        2 0.16648387E-01 0.24354849E+03</pdfrwt>
<pdfrwt beam="2">  1       -2 0.21082010E-01 0.24354849E+03</pdfrwt>
<totfact> 0.65054000E+03</totfact>
</mgrwt>
</event>
<event>
 4    1  0.1777979E-004  0.2787828E+03  0.7818608E-02  0.1096356E+00
          2   -1    0    0  501    0  0.00000000000E+00  0.00000000000E+00  0.51702803541E+03  0.51702803541E+03  0.00000000000E+00 0.  1.
         -2   -1    0    0    0  501 -0.00000000000E+00 -0.00000000000E+00 -0.37580083034E+02  0.37580083034E+02  0.00000000000E+00 0.  1.
         25    1    1    2    0    0 -0.12123257465E+02  0.63569206057E+02  0.18199941096E+03  0.22740229313E+03  0.12000000000E+03 0.  0.
         25    1    1    2    0    0  0.12123257465E+02 -0.63569206057E+02  0.29744854142E+03  0.32720582532E+03  0.12000000000E+03 0.  0.
<mgrwt>
<rscale>  0 0.27878276E+03</rscale>
<asrwt>0</asrwt>
<pdfrwt beam="1">  1        2 0.79542770E-01 0.27878276E+03</pdfrwt>
<pdfrwt beam="2">  1       -2 0.57815516E-02 0.27878276E+03</pdfrwt>
<totfact> 0.93460095E+03</totfact>
</mgrwt>
</event>
<event>
 4    1  0.1777979E-004  0.3667224E+03  0.7818608E-02  0.1055953E+00
          2   -1    0    0  501    0  0.00000000000E+00  0.00000000000E+00  0.97468471935E+03  0.97468471935E+03  0.00000000000E+00 0.  1.
         -2   -1    0    0    0  501 -0.00000000000E+00 -0.00000000000E+00 -0.34494576628E+02  0.34494576628E+02  0.00000000000E+00 0.  1.
         25    1    1    2    0    0 -0.11698435040E+03  0.67022295708E+02  0.38117838776E+03  0.42175145484E+03  0.12000000000E+03 0.  0.
         25    1    1    2    0    0  0.11698435040E+03 -0.67022295708E+02  0.55901175497E+03  0.58742784115E+03  0.12000000000E+03 0.  0.
<mgrwt>
<rscale>  0 0.36672244E+03</rscale>
<asrwt>0</asrwt>
<pdfrwt beam="1">  1        2 0.14995147E+00 0.36672244E+03</pdfrwt>
<pdfrwt beam="2">  1       -2 0.53068587E-02 0.36672244E+03</pdfrwt>
<totfact> 0.48878780E+03</totfact>
</mgrwt>
</event>
<event>
 4    1  0.1777979E-004  0.2767572E+03  0.7818608E-02  0.1097473E+00
         -2   -1    0    0    0  501 -0.00000000000E+00  0.00000000000E+00  0.13435530360E+03  0.13435530360E+03  0.00000000000E+00 0.  1.
          2   -1    0    0  501    0  0.00000000000E+00 -0.00000000000E+00 -0.14252240843E+03  0.14252240843E+03  0.00000000000E+00 0.  1.
         25    1    1    2    0    0 -0.59266568326E+02  0.33465041952E+02  0.67010429359E+01  0.13812074113E+03  0.12000000000E+03 0.  0.
         25    1    1    2    0    0  0.59266568326E+02 -0.33465041952E+02 -0.14868147770E+02  0.13875697090E+03  0.12000000000E+03 0.  0.
<mgrwt>
<rscale>  0 0.27675723E+03</rscale>
<asrwt>0</asrwt>
<pdfrwt beam="1">  1        2 0.21926524E-01 0.27675723E+03</pdfrwt>
<pdfrwt beam="2">  1       -2 0.20670047E-01 0.27675723E+03</pdfrwt>
<totfact> 0.49270751E+03</totfact>
</mgrwt>
</event>
<event>
 4    1  0.1777979E-004  0.2517852E+03  0.7818608E-02  0.1112182E+00
          1   -1    0    0  501    0  0.00000000000E+00  0.00000000000E+00  0.32879606610E+02  0.32879606610E+02  0.00000000000E+00 0. -1.
         -1   -1    0    0    0  501 -0.00000000000E+00 -0.00000000000E+00 -0.48202971307E+03  0.48202971307E+03  0.00000000000E+00 0. -1.
         25    1    1    2    0    0 -0.39912796728E+01  0.17267238615E+02 -0.15568260892E+03  0.19736048886E+03  0.12000000000E+03 0.  0.
         25    1    1    2    0    0  0.39912796728E+01 -0.17267238615E+02 -0.29346749754E+03  0.31754883082E+03  0.12000000000E+03 0.  0.
<mgrwt>
<rscale>  0 0.25178520E+03</rscale>
<asrwt>0</asrwt>
<pdfrwt beam="1">  1        1 0.50584009E-02 0.25178520E+03</pdfrwt>
<pdfrwt beam="2">  1       -1 0.74158419E-01 0.25178520E+03</pdfrwt>
<totfact> 0.31050755E+03</totfact>
</mgrwt>
</event>
<event>
 4    1  0.1777979E-004  0.2944589E+03  0.7818608E-02  0.1088044E+00
         -2   -1    0    0    0  501 -0.00000000000E+00  0.00000000000E+00  0.17026624194E+02  0.17026624194E+02  0.00000000000E+00 0.  1.
          2   -1    0    0  501    0  0.00000000000E+00 -0.00000000000E+00 -0.12730953673E+04  0.12730953673E+04  0.00000000000E+00 0.  1.
         25    1    1    2    0    0  0.63782563254E+00  0.71658785973E+02 -0.42530001678E+03  0.44767788944E+03  0.12000000000E+03 0.  0.
         25    1    1    2    0    0 -0.63782563254E+00 -0.71658785973E+02 -0.83076872635E+03  0.84244410206E+03  0.12000000000E+03 0.  0.
<mgrwt>
<rscale>  0 0.29445894E+03</rscale>
<asrwt>0</asrwt>
<pdfrwt beam="1">  1        2 0.19586087E+00 0.29445894E+03</pdfrwt>
<pdfrwt beam="2">  1       -2 0.26194801E-02 0.29445894E+03</pdfrwt>
<totfact> 0.94281232E+03</totfact>
</mgrwt>
</event>
<event>
 4    1  0.1777979E-004  0.2514879E+03  0.7818608E-02  0.1112368E+00
          2   -1    0    0  501    0  0.00000000000E+00  0.00000000000E+00  0.18651386936E+04  0.18651386936E+04  0.00000000000E+00 0.  1.
         -2   -1    0    0    0  501 -0.00000000000E+00 -0.00000000000E+00 -0.84774075150E+01  0.84774075150E+01  0.00000000000E+00 0.  1.
         25    1    1    2    0    0  0.26775636978E+02  0.17263303030E+02  0.10766956007E+04  0.10838304170E+04  0.12000000000E+03 0.  0.
         25    1    1    2    0    0 -0.26775636978E+02 -0.17263303030E+02  0.77996568536E+03  0.78978568403E+03  0.12000000000E+03 0.  0.
<mgrwt>
<rscale>  0 0.25148790E+03</rscale>
<asrwt>0</asrwt>
<pdfrwt beam="1">  1        2 0.28694409E+00 0.25148790E+03</pdfrwt>
<pdfrwt beam="2">  1       -2 0.13042180E-02 0.25148790E+03</pdfrwt>
<totfact> 0.12635050E+04</totfact>
</mgrwt>
</event>
<event>
 4    1  0.1777979E-004  0.2699834E+03  0.7818608E-02  0.1101289E+00
         -1   -1    0    0    0  501 -0.00000000000E+00  0.00000000000E+00  0.48572104494E+02  0.48572104494E+02  0.00000000000E+00 0. -1.
          1   -1    0    0  501    0  0.00000000000E+00 -0.00000000000E+00 -0.37516925936E+03  0.37516925936E+03  0.00000000000E+00 0. -1.
         25    1    1    2    0    0  0.50368156479E+02 -0.20657025778E+02 -0.11729572375E+03  0.17641414544E+03  0.12000000000E+03 0.  0.
         25    1    1    2    0    0 -0.50368156479E+02  0.20657025778E+02 -0.20930143111E+03  0.24732721841E+03  0.12000000000E+03 0.  0.
<mgrwt>
<rscale>  0 0.26998341E+03</rscale>
<asrwt>0</asrwt>
<pdfrwt beam="1">  1        1 0.57718347E-01 0.26998341E+03</pdfrwt>
<pdfrwt beam="2">  1       -1 0.74726315E-02 0.26998341E+03</pdfrwt>
<totfact> 0.62488919E+03</totfact>
</mgrwt>
</event>
<event>
 4    1  0.1777979E-004  0.2692487E+03  0.7818608E-02  0.1101710E+00
          2   -1    0    0  501    0  0.00000000000E+00  0.00000000000E+00  0.45290660990E+03  0.45290660990E+03  0.00000000000E+00 0.  1.
         -2   -1    0    0    0  501 -0.00000000000E+00 -0.00000000000E+00 -0.40016457857E+02  0.40016457857E+02  0.00000000000E+00 0.  1.
         25    1    1    2    0    0  0.51067107537E+01 -0.43107123762E+02  0.28496239012E+03  0.31223047000E+03  0.12000000000E+03 0.  0.
         25    1    1    2    0    0 -0.51067107537E+01  0.43107123762E+02  0.12792776192E+03  0.18069259776E+03  0.12000000000E+03 0.  0.
<mgrwt>
<rscale>  0 0.26924872E+03</rscale>
<asrwt>0</asrwt>
<pdfrwt beam="1">  1        2 0.69677936E-01 0.26924872E+03</pdfrwt>
<pdfrwt beam="2">  1       -2 0.61563784E-02 0.26924872E+03</pdfrwt>
<totfact> 0.98221338E+03</totfact>
</mgrwt>
</event>
<event>
 4    1  0.1777979E-004  0.3095480E+03  0.7818608E-02  0.1080563E+00
         -1   -1    0    0    0  501 -0.00000000000E+00  0.00000000000E+00  0.18989969767E+03  0.18989969767E+03  0.00000000000E+00 0.  1.
          1   -1    0    0  501    0  0.00000000000E+00 -0.00000000000E+00 -0.12614547401E+03  0.12614547401E+03  0.00000000000E+00 0.  1.
         25    1    1    2    0    0  0.88517247518E+02 -0.34635619340E+02  0.55160551602E+02  0.16271943857E+03  0.12000000000E+03 0.  0.
         25    1    1    2    0    0 -0.88517247518E+02  0.34635619340E+02  0.85936720642E+01  0.15332573311E+03  0.12000000000E+03 0.  0.
<mgrwt>
<rscale>  0 0.30954798E+03</rscale>
<asrwt>0</asrwt>
<pdfrwt beam="1">  1        1 0.19406996E-01 0.30954798E+03</pdfrwt>
<pdfrwt beam="2">  1       -1 0.29215338E-01 0.30954798E+03</pdfrwt>
<totfact> 0.28393078E+03</totfact>
</mgrwt>
</event>
<event>
 4    1  0.1777979E-004  0.3335529E+03  0.7818608E-02  0.1069576E+00
         -4   -1    0    0    0  501 -0.00000000000E+00  0.00000000000E+00  0.70915428207E+02  0.70915428207E+02  0.00000000000E+00 0.  1.
          4   -1    0    0  501    0  0.00000000000E+00 -0.00000000000E+00 -0.39221919809E+03  0.39221919809E+03  0.00000000000E+00 0.  1.
         25    1    1    2    0    0 -0.70888130550E+02 -0.86102392775E+02 -0.20402174281E+03  0.26165553813E+03  0.12000000000E+03 0.  0.
         25    1    1    2    0    0  0.70888130550E+02  0.86102392775E+02 -0.11728202707E+03  0.20147908817E+03  0.12000000000E+03 0.  0.
<mgrwt>
<rscale>  0 0.33355295E+03</rscale>
<asrwt>0</asrwt>
<pdfrwt beam="1">  1        4 0.60341414E-01 0.33355295E+03</pdfrwt>
<pdfrwt beam="2">  1       -4 0.10910066E-01 0.33355295E+03</pdfrwt>
<totfact> 0.32817421E+02</totfact>
</mgrwt>
</event>
<event>
 4    1  0.1777979E-004  0.5542773E+03  0.7818608E-02  0.1000509E+00
          2   -1    0    0  501    0  0.00000000000E+00  0.00000000000E+00  0.16967065129E+03  0.16967065129E+03  0.00000000000E+00 0.  1.
         -2   -1    0    0    0  501 -0.00000000000E+00 -0.00000000000E+00 -0.45267603663E+03  0.45267603663E+03  0.00000000000E+00 0.  1.
         25    1    1    2    0    0  0.15163324589E+03 -0.19299435638E+03 -0.89242368496E+02  0.28740853012E+03  0.12000000000E+03 0.  0.
         25    1    1    2    0    0 -0.15163324589E+03  0.19299435638E+03 -0.19376301685E+03  0.33493815780E+03  0.12000000000E+03 0.  0.
<mgrwt>
<rscale>  0 0.55427732E+03</rscale>
<asrwt>0</asrwt>
<pdfrwt beam="1">  1        2 0.26103178E-01 0.55427732E+03</pdfrwt>
<pdfrwt beam="2">  1       -2 0.69642466E-01 0.55427732E+03</pdfrwt>
<totfact> 0.39590830E+02</totfact>
</mgrwt>
</event>
<event>
 4    1  0.1777979E-004  0.2987186E+03  0.7818608E-02  0.1085883E+00
          2   -1    0    0  501    0  0.00000000000E+00  0.00000000000E+00  0.41637813466E+03  0.41637813466E+03  0.00000000000E+00 0. -1.
         -2   -1    0    0    0  501 -0.00000000000E+00 -0.00000000000E+00 -0.53576770390E+02  0.53576770390E+02  0.00000000000E+00 0. -1.
         25    1    1    2    0    0  0.51313023741E+02 -0.34935822950E+02  0.81222981268E+02  0.15764108226E+03  0.12000000000E+03 0.  0.
         25    1    1    2    0    0 -0.51313023741E+02  0.34935822950E+02  0.28157838300E+03  0.31231382279E+03  0.12000000000E+03 0.  0.
<mgrwt>
<rscale>  0 0.29871857E+03</rscale>
<asrwt>0</asrwt>
<pdfrwt beam="1">  1        2 0.64058172E-01 0.29871857E+03</pdfrwt>
<pdfrwt beam="2">  1       -2 0.82425803E-02 0.29871857E+03</pdfrwt>
<totfact> 0.68739655E+03</totfact>
</mgrwt>
</event>
<event>
 4    1  0.1777979E-004  0.3072284E+03  0.7818608E-02  0.1081682E+00
          1   -1    0    0  501    0  0.00000000000E+00  0.00000000000E+00  0.14722100632E+03  0.14722100632E+03  0.00000000000E+00 0. -1.
         -1   -1    0    0    0  501 -0.00000000000E+00 -0.00000000000E+00 -0.16028506739E+03  0.16028506739E+03  0.00000000000E+00 0. -1.
         25    1    1    2    0    0 -0.75194748273E+02  0.39857006932E+02  0.37717622203E+02  0.15187313849E+03  0.12000000000E+03 0.  0.
         25    1    1    2    0    0  0.75194748273E+02 -0.39857006932E+02 -0.50781683273E+02  0.15563293522E+03  0.12000000000E+03 0.  0.
<mgrwt>
<rscale>  0 0.30722844E+03</rscale>
<asrwt>0</asrwt>
<pdfrwt beam="1">  1        1 0.22649386E-01 0.30722844E+03</pdfrwt>
<pdfrwt beam="2">  1       -1 0.24659241E-01 0.30722844E+03</pdfrwt>
<totfact> 0.30939094E+03</totfact>
</mgrwt>
</event>
<event>
 4    1  0.1777979E-004  0.2617644E+03  0.7818608E-02  0.1106088E+00
         -2   -1    0    0    0  501 -0.00000000000E+00  0.00000000000E+00  0.45173651079E+02  0.45173651079E+02  0.00000000000E+00 0. -1.
          2   -1    0    0  501    0  0.00000000000E+00 -0.00000000000E+00 -0.37920666777E+03  0.37920666777E+03  0.00000000000E+00 0. -1.
         25    1    1    2    0    0 -0.34928912202E+01 -0.11695712983E+02 -0.24938329026E+03  0.27702168769E+03  0.12000000000E+03 0.  0.
         25    1    1    2    0    0  0.34928912202E+01  0.11695712983E+02 -0.84649726432E+02  0.14735863116E+03  0.12000000000E+03 0.  0.
<mgrwt>
<rscale>  0 0.26176440E+03</rscale>
<asrwt>0</asrwt>
<pdfrwt beam="1">  1        2 0.58339487E-01 0.26176440E+03</pdfrwt>
<pdfrwt beam="2">  1       -2 0.69497925E-02 0.26176440E+03</pdfrwt>
<totfact> 0.98774196E+03</totfact>
</mgrwt>
</event>
<event>
 4    1  0.1777979E-004  0.2567450E+03  0.7818608E-02  0.1109115E+00
         -2   -1    0    0    0  501 -0.00000000000E+00  0.00000000000E+00  0.38127305000E+02  0.38127305000E+02  0.00000000000E+00 0. -1.
          2   -1    0    0  501    0  0.00000000000E+00 -0.00000000000E+00 -0.43222299142E+03  0.43222299142E+03  0.00000000000E+00 0. -1.
         25    1    1    2    0    0 -0.17448427562E+02  0.40996550962E+02 -0.21484092924E+03  0.25008356541E+03  0.12000000000E+03 0.  0.
         25    1    1    2    0    0  0.17448427562E+02 -0.40996550962E+02 -0.17925475718E+03  0.22026673101E+03  0.12000000000E+03 0.  0.
<mgrwt>
<rscale>  0 0.25674499E+03</rscale>
<asrwt>0</asrwt>
<pdfrwt beam="1">  1        2 0.66495847E-01 0.25674499E+03</pdfrwt>
<pdfrwt beam="2">  1       -2 0.58657390E-02 0.25674499E+03</pdfrwt>
<totfact> 0.11112274E+04</totfact>
</mgrwt>
</event>
<event>
 4    1  0.1777979E-004  0.2561370E+03  0.7818608E-02  0.1109487E+00
         -2   -1    0    0    0  501 -0.00000000000E+00  0.00000000000E+00  0.57606331881E+02  0.57606331881E+02  0.00000000000E+00 0.  1.
          2   -1    0    0  501    0  0.00000000000E+00 -0.00000000000E+00 -0.28471762253E+03  0.28471762253E+03  0.00000000000E+00 0.  1.
         25    1    1    2    0    0 -0.13831977256E+02 -0.41024173153E+02 -0.98480472657E+02  0.16116050966E+03  0.12000000000E+03 0.  0.
         25    1    1    2    0    0  0.13831977256E+02  0.41024173153E+02 -0.12863081799E+03  0.18116344475E+03  0.12000000000E+03 0.  0.
<mgrwt>
<rscale>  0 0.25613698E+03</rscale>
<asrwt>0</asrwt>
<pdfrwt beam="1">  1        2 0.43802711E-01 0.25613698E+03</pdfrwt>
<pdfrwt beam="2">  1       -2 0.88625127E-02 0.25613698E+03</pdfrwt>
<totfact> 0.91960187E+03</totfact>
</mgrwt>
</event>
<event>
 4    1  0.1777979E-004  0.2711526E+03  0.7818608E-02  0.1100622E+00
          1   -1    0    0  501    0  0.00000000000E+00  0.00000000000E+00  0.36690098575E+03  0.36690098575E+03  0.00000000000E+00 0.  1.
         -1   -1    0    0    0  501 -0.00000000000E+00 -0.00000000000E+00 -0.50097812913E+02  0.50097812913E+02  0.00000000000E+00 0.  1.
         25    1    1    2    0    0 -0.48976891415E+02  0.27679135184E+02  0.20233386887E+03  0.24187572203E+03  0.12000000000E+03 0.  0.
         25    1    1    2    0    0  0.48976891415E+02 -0.27679135184E+02  0.11446930396E+03  0.17512307663E+03  0.12000000000E+03 0.  0.
<mgrwt>
<rscale>  0 0.27115263E+03</rscale>
<asrwt>0</asrwt>
<pdfrwt beam="1">  1        1 0.56446304E-01 0.27115263E+03</pdfrwt>
<pdfrwt beam="2">  1       -1 0.77073561E-02 0.27115263E+03</pdfrwt>
<totfact> 0.61337976E+03</totfact>
</mgrwt>
</event>
<event>
 4    1  0.1777979E-004  0.3851541E+03  0.7818608E-02  0.1049045E+00
          3   -1    0    0  501    0  0.00000000000E+00  0.00000000000E+00  0.69930628495E+02  0.69930628495E+02  0.00000000000E+00 0.  1.
         -3   -1    0    0    0  501 -0.00000000000E+00 -0.00000000000E+00 -0.53032447382E+03  0.53032447382E+03  0.00000000000E+00 0.  1.
         25    1    1    2    0    0  0.28797237895E+02 -0.14011727504E+03 -0.30369033364E+03  0.35649677477E+03  0.12000000000E+03 0.  0.
         25    1    1    2    0    0 -0.28797237895E+02  0.14011727504E+03 -0.15670351169E+03  0.24375832755E+03  0.12000000000E+03 0.  0.
<mgrwt>
<rscale>  0 0.38515412E+03</rscale>
<asrwt>0</asrwt>
<pdfrwt beam="1">  1        3 0.10758558E-01 0.38515412E+03</pdfrwt>
<pdfrwt beam="2">  1       -3 0.81588379E-01 0.38515412E+03</pdfrwt>
<totfact> 0.24198458E+02</totfact>
</mgrwt>
</event>
<event>
 4    1  0.1777979E-004  0.3049312E+03  0.7818608E-02  0.1082801E+00
         -2   -1    0    0    0  501 -0.00000000000E+00  0.00000000000E+00  0.57818802927E+02  0.57818802927E+02  0.00000000000E+00 0. -1.
          2   -1    0    0  501    0  0.00000000000E+00 -0.00000000000E+00 -0.40204493068E+03  0.40204493068E+03  0.00000000000E+00 0. -1.
         25    1    1    2    0    0  0.45229160150E+02  0.79286463670E+02 -0.13793106333E+03  0.20434529229E+03  0.12000000000E+03 0.  0.
         25    1    1    2    0    0 -0.45229160150E+02 -0.79286463670E+02 -0.20629506442E+03  0.25551844132E+03  0.12000000000E+03 0.  0.
<mgrwt>
<rscale>  0 0.30493118E+03</rscale>
<asrwt>0</asrwt>
<pdfrwt beam="1">  1        2 0.61853063E-01 0.30493118E+03</pdfrwt>
<pdfrwt beam="2">  1       -2 0.88952009E-02 0.30493118E+03</pdfrwt>
<totfact> 0.63391835E+03</totfact>
</mgrwt>
</event>
<event>
 4    1  0.1777979E-004  0.2654401E+03  0.7818608E-02  0.1103918E+00
         -1   -1    0    0    0  501 -0.00000000000E+00  0.00000000000E+00  0.67282156162E+01  0.67282156162E+01  0.00000000000E+00 0.  1.
          1   -1    0    0  501    0  0.00000000000E+00 -0.00000000000E+00 -0.26180204412E+04  0.26180204412E+04  0.00000000000E+00 0.  1.
         25    1    1    2    0    0 -0.45557454973E+02  0.33042084697E+02 -0.12376070854E+04  0.12446841201E+04  0.12000000000E+03 0.  0.
         25    1    1    2    0    0  0.45557454973E+02 -0.33042084697E+02 -0.13736851402E+04  0.13800645367E+04  0.12000000000E+03 0.  0.
<mgrwt>
<rscale>  0 0.26544006E+03</rscale>
<asrwt>0</asrwt>
<pdfrwt beam="1">  1        1 0.40277299E+00 0.26544006E+03</pdfrwt>
<pdfrwt beam="2">  1       -1 0.10351085E-02 0.26544006E+03</pdfrwt>
<totfact> 0.23672564E+03</totfact>
</mgrwt>
</event>
<event>
 4    1  0.1777979E-004  0.2890965E+03  0.7818608E-02  0.1090822E+00
          2   -1    0    0  501    0  0.00000000000E+00  0.00000000000E+00  0.84897094802E+03  0.84897094802E+03  0.00000000000E+00 0. -1.
         -2   -1    0    0    0  501 -0.00000000000E+00 -0.00000000000E+00 -0.24611205410E+02  0.24611205410E+02  0.00000000000E+00 0. -1.
         25    1    1    2    0    0  0.55862027997E+02 -0.57339096428E+02  0.38417994137E+03  0.41036881643E+03  0.12000000000E+03 0.  0.
         25    1    1    2    0    0 -0.55862027997E+02  0.57339096428E+02  0.44017980124E+03  0.46321333700E+03  0.12000000000E+03 0.  0.
<mgrwt>
<rscale>  0 0.28909651E+03</rscale>
<asrwt>0</asrwt>
<pdfrwt beam="1">  1        2 0.13061089E+00 0.28909651E+03</pdfrwt>
<pdfrwt beam="2">  1       -2 0.37863399E-02 0.28909651E+03</pdfrwt>
<totfact> 0.97961220E+03</totfact>
</mgrwt>
</event>
<event>
 4    1  0.1777979E-004  0.2941428E+03  0.7818608E-02  0.1088206E+00
          2   -1    0    0  501    0  0.00000000000E+00  0.00000000000E+00  0.76029455414E+03  0.76029455414E+03  0.00000000000E+00 0. -1.
         -2   -1    0    0    0  501 -0.00000000000E+00 -0.00000000000E+00 -0.28449499929E+02  0.28449499929E+02  0.00000000000E+00 0. -1.
         25    1    1    2    0    0 -0.82307970166E+02  0.70604454327E+01  0.31192187705E+03  0.34426691567E+03  0.12000000000E+03 0.  0.
         25    1    1    2    0    0  0.82307970166E+02 -0.70604454327E+01  0.41992317717E+03  0.44447713841E+03  0.12000000000E+03 0.  0.
<mgrwt>
<rscale>  0 0.29414282E+03</rscale>
<asrwt>0</asrwt>
<pdfrwt beam="1">  1        2 0.11696838E+00 0.29414282E+03</pdfrwt>
<pdfrwt beam="2">  1       -2 0.43768467E-02 0.29414282E+03</pdfrwt>
<totfact> 0.90705256E+03</totfact>
</mgrwt>
</event>
<event>
 4    1  0.1777979E-004  0.2427908E+03  0.7818608E-02  0.1117948E+00
          4   -1    0    0  501    0  0.00000000000E+00  0.00000000000E+00  0.87625069993E+02  0.87625069993E+02  0.00000000000E+00 0.  1.
         -4   -1    0    0    0  501 -0.00000000000E+00 -0.00000000000E+00 -0.16818070975E+03  0.16818070975E+03  0.00000000000E+00 0.  1.
         25    1    1    2    0    0  0.49307521038E+01  0.17435927801E+02 -0.43353657002E+02  0.12887149984E+03  0.12000000000E+03 0.  0.
         25    1    1    2    0    0 -0.49307521038E+01 -0.17435927801E+02 -0.37201982754E+02  0.12693427991E+03  0.12000000000E+03 0.  0.
<mgrwt>
<rscale>  0 0.24279083E+03</rscale>
<asrwt>0</asrwt>
<pdfrwt beam="1">  1        4 0.13480780E-01 0.24279083E+03</pdfrwt>
<pdfrwt beam="2">  1       -4 0.25873955E-01 0.24279083E+03</pdfrwt>
<totfact> 0.11763732E+03</totfact>
</mgrwt>
</event>
<event>
 4    1  0.1777979E-004  0.2758489E+03  0.7818608E-02  0.1097978E+00
          2   -1    0    0  501    0  0.00000000000E+00  0.00000000000E+00  0.11035644237E+03  0.11035644237E+03  0.00000000000E+00 0. -1.
         -2   -1    0    0    0  501 -0.00000000000E+00 -0.00000000000E+00 -0.17237920845E+03  0.17237920845E+03  0.00000000000E+00 0. -1.
         25    1    1    2    0    0  0.13754758001E+02  0.24247658707E+02  0.32553128411E+02  0.12742389293E+03  0.12000000000E+03 0.  0.
         25    1    1    2    0    0 -0.13754758001E+02 -0.24247658707E+02 -0.94575894489E+02  0.15531175789E+03  0.12000000000E+03 0.  0.
<mgrwt>
<rscale>  0 0.27584892E+03</rscale>
<asrwt>0</asrwt>
<pdfrwt beam="1">  1        2 0.16977914E-01 0.27584892E+03</pdfrwt>
<pdfrwt beam="2">  1       -2 0.26519878E-01 0.27584892E+03</pdfrwt>
<totfact> 0.42767151E+03</totfact>
</mgrwt>
</event>
<event>
 4    1  0.1777979E-004  0.2548238E+03  0.7818608E-02  0.1110294E+00
          1   -1    0    0  501    0  0.00000000000E+00  0.00000000000E+00  0.52863900898E+02  0.52863900898E+02  0.00000000000E+00 0. -1.
         -1   -1    0    0    0  501 -0.00000000000E+00 -0.00000000000E+00 -0.30708660126E+03  0.30708660126E+03  0.00000000000E+00 0. -1.
         25    1    1    2    0    0 -0.30183168261E+02  0.83438047092E+01 -0.85852587978E+02  0.15083537246E+03  0.12000000000E+03 0.  0.
         25    1    1    2    0    0  0.30183168261E+02 -0.83438047092E+01 -0.16837011238E+03  0.20911512969E+03  0.12000000000E+03 0.  0.
<mgrwt>
<rscale>  0 0.25482383E+03</rscale>
<asrwt>0</asrwt>
<pdfrwt beam="1">  1        1 0.81329081E-02 0.25482383E+03</pdfrwt>
<pdfrwt beam="2">  1       -1 0.47244091E-01 0.25482383E+03</pdfrwt>
<totfact> 0.38486489E+03</totfact>
</mgrwt>
</event>
<event>
 4    1  0.1777979E-004  0.2982874E+03  0.7818608E-02  0.1086100E+00
          1   -1    0    0  501    0  0.00000000000E+00  0.00000000000E+00  0.24641322404E+03  0.24641322404E+03  0.00000000000E+00 0. -1.
         -1   -1    0    0    0  501 -0.00000000000E+00 -0.00000000000E+00 -0.90270468512E+02  0.90270468512E+02  0.00000000000E+00 0. -1.
         25    1    1    2    0    0  0.86473362330E+02  0.92054019220E+01  0.59135214139E+02  0.15955988020E+03  0.12000000000E+03 0.  0.
         25    1    1    2    0    0 -0.86473362330E+02 -0.92054019220E+01  0.97007541393E+02  0.17712381236E+03  0.12000000000E+03 0.  0.
<mgrwt>
<rscale>  0 0.29828736E+03</rscale>
<asrwt>0</asrwt>
<pdfrwt beam="1">  1        1 0.37909727E-01 0.29828736E+03</pdfrwt>
<pdfrwt beam="2">  1       -1 0.13887764E-01 0.29828736E+03</pdfrwt>
<totfact> 0.40776992E+03</totfact>
</mgrwt>
</event>
<event>
 4    1  0.1777979E-004  0.3248781E+03  0.7818608E-02  0.1073426E+00
          1   -1    0    0  501    0  0.00000000000E+00  0.00000000000E+00  0.38113503385E+03  0.38113503385E+03  0.00000000000E+00 0.  1.
         -1   -1    0    0    0  501 -0.00000000000E+00 -0.00000000000E+00 -0.69231231698E+02  0.69231231698E+02  0.00000000000E+00 0.  1.
         25    1    1    2    0    0 -0.41511840086E+02  0.95005473697E+02  0.10719220961E+03  0.19141432209E+03  0.12000000000E+03 0.  0.
         25    1    1    2    0    0  0.41511840086E+02 -0.95005473697E+02  0.20471159254E+03  0.25895194346E+03  0.12000000000E+03 0.  0.
<mgrwt>
<rscale>  0 0.32487812E+03</rscale>
<asrwt>0</asrwt>
<pdfrwt beam="1">  1        1 0.58636158E-01 0.32487812E+03</pdfrwt>
<pdfrwt beam="2">  1       -1 0.10650959E-01 0.32487812E+03</pdfrwt>
<totfact> 0.35661989E+03</totfact>
</mgrwt>
</event>
<event>
 4    1  0.1777979E-004  0.3043658E+03  0.7818608E-02  0.1083078E+00
          2   -1    0    0  501    0  0.00000000000E+00  0.00000000000E+00  0.17777220235E+04  0.17777220235E+04  0.00000000000E+00 0. -1.
         -2   -1    0    0    0  501 -0.00000000000E+00 -0.00000000000E+00 -0.13027705285E+02  0.13027705285E+02  0.00000000000E+00 0. -1.
         25    1    1    2    0    0 -0.67207119653E+02 -0.30149051245E+02  0.54263291641E+03  0.56060346431E+03  0.12000000000E+03 0.  0.
         25    1    1    2    0    0  0.67207119653E+02  0.30149051245E+02  0.12220614018E+04  0.12301462644E+04  0.12000000000E+03 0.  0.
<mgrwt>
<rscale>  0 0.30436582E+03</rscale>
<asrwt>0</asrwt>
<pdfrwt beam="1">  1        2 0.27349550E+00 0.30436582E+03</pdfrwt>
<pdfrwt beam="2">  1       -2 0.20042638E-02 0.30436582E+03</pdfrwt>
<totfact> 0.75020140E+03</totfact>
</mgrwt>
</event>
<event>
 4    1  0.1777979E-004  0.3326299E+03  0.7818608E-02  0.1069979E+00
         -2   -1    0    0    0  501 -0.00000000000E+00  0.00000000000E+00  0.11056781581E+03  0.11056781581E+03  0.00000000000E+00 0. -1.
          2   -1    0    0  501    0  0.00000000000E+00 -0.00000000000E+00 -0.25016925332E+03  0.25016925332E+03  0.00000000000E+00 0. -1.
         25    1    1    2    0    0  0.68495788950E+02 -0.53330147845E+02  0.12255787929E+02  0.14861353273E+03  0.12000000000E+03 0.  0.
         25    1    1    2    0    0 -0.68495788950E+02  0.53330147845E+02 -0.15185722545E+03  0.21212353640E+03  0.12000000000E+03 0.  0.
<mgrwt>
<rscale>  0 0.33262993E+03</rscale>
<asrwt>0</asrwt>
<pdfrwt beam="1">  1        2 0.38487577E-01 0.33262993E+03</pdfrwt>
<pdfrwt beam="2">  1       -2 0.17010433E-01 0.33262993E+03</pdfrwt>
<totfact> 0.37011714E+03</totfact>
</mgrwt>
</event>
<event>
 4    1  0.1777979E-004  0.3768568E+03  0.7818608E-02  0.1052102E+00
          2   -1    0    0  501    0  0.00000000000E+00  0.00000000000E+00  0.39590064453E+03  0.39590064453E+03  0.00000000000E+00 0. -1.
         -2   -1    0    0    0  501 -0.00000000000E+00 -0.00000000000E+00 -0.89682244469E+02  0.89682244469E+02  0.00000000000E+00 0. -1.
         25    1    1    2    0    0 -0.19795729181E+02  0.13345035522E+03  0.83668431216E+02  0.19900068991E+03  0.12000000000E+03 0.  0.
         25    1    1    2    0    0  0.19795729181E+02 -0.13345035522E+03  0.22254996884E+03  0.28658219909E+03  0.12000000000E+03 0.  0.
<mgrwt>
<rscale>  0 0.37685678E+03</rscale>
<asrwt>0</asrwt>
<pdfrwt beam="1">  1        2 0.60907791E-01 0.37685678E+03</pdfrwt>
<pdfrwt beam="2">  1       -2 0.13797269E-01 0.37685678E+03</pdfrwt>
<totfact> 0.31917275E+03</totfact>
</mgrwt>
</event>
<event>
 4    1  0.1777979E-004  0.3195080E+03  0.7818608E-02  0.1075876E+00
         -1   -1    0    0    0  501 -0.00000000000E+00  0.00000000000E+00  0.73791454768E+02  0.73791454768E+02  0.00000000000E+00 0. -1.
          1   -1    0    0  501    0  0.00000000000E+00 -0.00000000000E+00 -0.34585760843E+03  0.34585760843E+03  0.00000000000E+00 0. -1.
         25    1    1    2    0    0  0.23436573827E+02 -0.73592823086E+02 -0.23034524505E+03  0.27096883311E+03  0.12000000000E+03 0.  0.
         25    1    1    2    0    0 -0.23436573827E+02  0.73592823086E+02 -0.41720908613E+02  0.14868023008E+03  0.12000000000E+03 0.  0.
<mgrwt>
<rscale>  0 0.31950797E+03</rscale>
<asrwt>0</asrwt>
<pdfrwt beam="1">  1        1 0.53208864E-01 0.31950797E+03</pdfrwt>
<pdfrwt beam="2">  1       -1 0.11352531E-01 0.31950797E+03</pdfrwt>
<totfact> 0.36539238E+03</totfact>
</mgrwt>
</event>
<event>
 4    1  0.1777979E-004  0.3009773E+03  0.7818608E-02  0.1084753E+00
         -2   -1    0    0    0  501 -0.00000000000E+00  0.00000000000E+00  0.50133456404E+02  0.50133456404E+02  0.00000000000E+00 0. -1.
          2   -1    0    0  501    0  0.00000000000E+00 -0.00000000000E+00 -0.45173108375E+03  0.45173108375E+03  0.00000000000E+00 0. -1.
         25    1    1    2    0    0 -0.55352274657E+02  0.75443147058E+01 -0.81415368962E+02  0.15540030018E+03  0.12000000000E+03 0.  0.
         25    1    1    2    0    0  0.55352274657E+02 -0.75443147058E+01 -0.32018225838E+03  0.34646423997E+03  0.12000000000E+03 0.  0.
<mgrwt>
<rscale>  0 0.30097735E+03</rscale>
<asrwt>0</asrwt>
<pdfrwt beam="1">  1        2 0.69497088E-01 0.30097735E+03</pdfrwt>
<pdfrwt beam="2">  1       -2 0.77128396E-02 0.30097735E+03</pdfrwt>
<totfact> 0.69750522E+03</totfact>
</mgrwt>
</event>
<event>
 4    1  0.1777979E-004  0.3785449E+03  0.7818608E-02  0.1051473E+00
         -2   -1    0    0    0  501 -0.00000000000E+00  0.00000000000E+00  0.11056778959E+03  0.11056778959E+03  0.00000000000E+00 0.  1.
          2   -1    0    0  501    0  0.00000000000E+00 -0.00000000000E+00 -0.32400079191E+03  0.32400079191E+03  0.00000000000E+00 0.  1.
         25    1    1    2    0    0  0.61427142662E+01 -0.21874466186E+02 -0.27271165898E+03  0.29881076646E+03  0.12000000000E+03 0.  0.
         25    1    1    2    0    0 -0.61427142662E+01  0.21874466186E+02  0.59278656657E+02  0.13575781504E+03  0.12000000000E+03 0.  0.
<mgrwt>
<rscale>  0 0.37854485E+03</rscale>
<asrwt>0</asrwt>
<pdfrwt beam="1">  1        2 0.49846275E-01 0.37854485E+03</pdfrwt>
<pdfrwt beam="2">  1       -2 0.17010429E-01 0.37854485E+03</pdfrwt>
<totfact> 0.28017621E+03</totfact>
</mgrwt>
</event>
<event>
 4    1  0.1777979E-004  0.2749092E+03  0.7818608E-02  0.1098502E+00
         -3   -1    0    0    0  501 -0.00000000000E+00  0.00000000000E+00  0.27760344599E+03  0.27760344599E+03  0.00000000000E+00 0.  1.
          3   -1    0    0  501    0  0.00000000000E+00 -0.00000000000E+00 -0.68060262956E+02  0.68060262956E+02  0.00000000000E+00 0.  1.
         25    1    1    2    0    0 -0.21000151705E+02  0.50461447661E+02  0.55969927823E+02  0.14324802579E+03  0.12000000000E+03 0.  0.
         25    1    1    2    0    0  0.21000151705E+02 -0.50461447661E+02  0.15357325521E+03  0.20241568315E+03  0.12000000000E+03 0.  0.
<mgrwt>
<rscale>  0 0.27490917E+03</rscale>
<asrwt>0</asrwt>
<pdfrwt beam="1">  1        3 0.10470810E-01 0.27490917E+03</pdfrwt>
<pdfrwt beam="2">  1       -3 0.42708222E-01 0.27490917E+03</pdfrwt>
<totfact> 0.94928651E+02</totfact>
</mgrwt>
</event>
<event>
 4    1  0.1777979E-004  0.2437347E+03  0.7818608E-02  0.1117330E+00
         -2   -1    0    0    0  501 -0.00000000000E+00  0.00000000000E+00  0.31855677312E+02  0.31855677312E+02  0.00000000000E+00 0.  1.
          2   -1    0    0  501    0  0.00000000000E+00 -0.00000000000E+00 -0.46621690641E+03  0.46621690641E+03  0.00000000000E+00 0.  1.
         25    1    1    2    0    0 -0.12762658721E+02  0.16759217519E+02 -0.22292372917E+03  0.25404477136E+03  0.12000000000E+03 0.  0.
         25    1    1    2    0    0  0.12762658721E+02 -0.16759217519E+02 -0.21143749993E+03  0.24402781236E+03  0.12000000000E+03 0.  0.
<mgrwt>
<rscale>  0 0.24373474E+03</rscale>
<asrwt>0</asrwt>
<pdfrwt beam="1">  1        2 0.71725676E-01 0.24373474E+03</pdfrwt>
<pdfrwt beam="2">  1       -2 0.49008736E-02 0.24373474E+03</pdfrwt>
<totfact> 0.13410636E+04</totfact>
</mgrwt>
</event>
<event>
 4    1  0.1777979E-004  0.2579210E+03  0.7818608E-02  0.1108399E+00
         -1   -1    0    0    0  501 -0.00000000000E+00  0.00000000000E+00  0.76423421241E+01  0.76423421241E+01  0.00000000000E+00 0. -1.
          1   -1    0    0  501    0  0.00000000000E+00 -0.00000000000E+00 -0.21761401941E+04  0.21761401941E+04  0.00000000000E+00 0. -1.
         25    1    1    2    0    0  0.35617293225E+02 -0.47395612411E+01 -0.82469383793E+03  0.83415285250E+03  0.12000000000E+03 0.  0.
         25    1    1    2    0    0 -0.35617293225E+02  0.47395612411E+01 -0.13438040140E+04  0.13496296837E+04  0.12000000000E+03 0.  0.
<mgrwt>
<rscale>  0 0.25792098E+03</rscale>
<asrwt>0</asrwt>
<pdfrwt beam="1">  1        1 0.33479117E+00 0.25792098E+03</pdfrwt>
<pdfrwt beam="2">  1       -1 0.11757436E-02 0.25792098E+03</pdfrwt>
<totfact> 0.38538161E+03</totfact>
</mgrwt>
</event>
<event>
 4    1  0.1777979E-004  0.2567524E+03  0.7818608E-02  0.1109110E+00
         -1   -1    0    0    0  501 -0.00000000000E+00  0.00000000000E+00  0.15663380628E+03  0.15663380628E+03  0.00000000000E+00 0.  1.
          1   -1    0    0  501    0  0.00000000000E+00 -0.00000000000E+00 -0.10521640937E+03  0.10521640937E+03  0.00000000000E+00 0.  1.
         25    1    1    2    0    0 -0.38001856201E+02  0.19432688514E+02  0.42111450061E+02  0.13414598273E+03  0.12000000000E+03 0.  0.
         25    1    1    2    0    0  0.38001856201E+02 -0.19432688514E+02  0.93059468483E+01  0.12770423291E+03  0.12000000000E+03 0.  0.
<mgrwt>
<rscale>  0 0.25675238E+03</rscale>
<asrwt>0</asrwt>
<pdfrwt beam="1">  1        1 0.16187140E-01 0.25675238E+03</pdfrwt>
<pdfrwt beam="2">  1       -1 0.24097509E-01 0.25675238E+03</pdfrwt>
<totfact> 0.49388008E+03</totfact>
</mgrwt>
</event>
<event>
 4    1  0.1777979E-004  0.2653129E+03  0.7818608E-02  0.1103993E+00
         -2   -1    0    0    0  501 -0.00000000000E+00  0.00000000000E+00  0.71930517024E+02  0.71930517024E+02  0.00000000000E+00 0. -1.
          2   -1    0    0  501    0  0.00000000000E+00 -0.00000000000E+00 -0.24464898464E+03  0.24464898464E+03  0.00000000000E+00 0. -1.
         25    1    1    2    0    0 -0.97685065576E+01 -0.36221804961E+02 -0.13684693441E+03  0.18583467473E+03  0.12000000000E+03 0.  0.
         25    1    1    2    0    0  0.97685065576E+01  0.36221804961E+02 -0.35871533206E+02  0.13074482693E+03  0.12000000000E+03 0.  0.
<mgrwt>
<rscale>  0 0.26531286E+03</rscale>
<asrwt>0</asrwt>
<pdfrwt beam="1">  1        2 0.37638305E-01 0.26531286E+03</pdfrwt>
<pdfrwt beam="2">  1       -2 0.11066233E-01 0.26531286E+03</pdfrwt>
<totfact> 0.76230254E+03</totfact>
</mgrwt>
</event>
<event>
 4    1  0.1777979E-004  0.2483846E+03  0.7818608E-02  0.1114330E+00
          1   -1    0    0  501    0  0.00000000000E+00  0.00000000000E+00  0.10622948770E+04  0.10622948770E+04  0.00000000000E+00 0.  1.
         -1   -1    0    0    0  501 -0.00000000000E+00 -0.00000000000E+00 -0.14519247647E+02  0.14519247647E+02  0.00000000000E+00 0.  1.
         25    1    1    2    0    0  0.19045552991E+02  0.76849805725E+01  0.63025049652E+03  0.64190145691E+03  0.12000000000E+03 0.  0.
         25    1    1    2    0    0 -0.19045552991E+02 -0.76849805725E+01  0.41752513286E+03  0.43491266777E+03  0.12000000000E+03 0.  0.
<mgrwt>
<rscale>  0 0.24838456E+03</rscale>
<asrwt>0</asrwt>
<pdfrwt beam="1">  1        1 0.16342992E+00 0.24838456E+03</pdfrwt>
<pdfrwt beam="2">  1       -1 0.22337312E-02 0.24838456E+03</pdfrwt>
<totfact> 0.83426369E+03</totfact>
</mgrwt>
</event>
<event>
 4    1  0.1777979E-004  0.2645265E+03  0.7818608E-02  0.1104454E+00
          2   -1    0    0  501    0  0.00000000000E+00  0.00000000000E+00  0.51808273557E+02  0.51808273557E+02  0.00000000000E+00 0.  1.
         -2   -1    0    0    0  501 -0.00000000000E+00 -0.00000000000E+00 -0.33765966030E+03  0.33765966030E+03  0.00000000000E+00 0.  1.
         25    1    1    2    0    0 -0.42406430762E+02 -0.20570972029E+02 -0.18640515503E+03  0.22664587373E+03  0.12000000000E+03 0.  0.
         25    1    1    2    0    0  0.42406430762E+02  0.20570972029E+02 -0.99446231715E+02  0.16282206012E+03  0.12000000000E+03 0.  0.
<mgrwt>
<rscale>  0 0.26452648E+03</rscale>
<asrwt>0</asrwt>
<pdfrwt beam="1">  1        2 0.79705037E-02 0.26452648E+03</pdfrwt>
<pdfrwt beam="2">  1       -2 0.51947640E-01 0.26452648E+03</pdfrwt>
<totfact> 0.30216020E+03</totfact>
</mgrwt>
</event>
<event>
 4    1  0.1777979E-004  0.2484315E+03  0.7818608E-02  0.1114300E+00
          2   -1    0    0  501    0  0.00000000000E+00  0.00000000000E+00  0.30416323153E+03  0.30416323153E+03  0.00000000000E+00 0. -1.
         -2   -1    0    0    0  501 -0.00000000000E+00 -0.00000000000E+00 -0.50727874598E+02  0.50727874598E+02  0.00000000000E+00 0. -1.
         25    1    1    2    0    0  0.26353785044E+02 -0.74905837246E+01  0.15057550811E+03  0.19448294134E+03  0.12000000000E+03 0.  0.
         25    1    1    2    0    0 -0.26353785044E+02  0.74905837246E+01  0.10285984883E+03  0.16040816479E+03  0.12000000000E+03 0.  0.
<mgrwt>
<rscale>  0 0.24843151E+03</rscale>
<asrwt>0</asrwt>
<pdfrwt beam="1">  1        2 0.46794342E-01 0.24843151E+03</pdfrwt>
<pdfrwt beam="2">  1       -2 0.78042886E-02 0.24843151E+03</pdfrwt>
<totfact> 0.10437186E+04</totfact>
</mgrwt>
</event>
<event>
 4    1  0.1777979E-004  0.2949809E+03  0.7818608E-02  0.1087777E+00
          2   -1    0    0  501    0  0.00000000000E+00  0.00000000000E+00  0.16541719438E+03  0.16541719438E+03  0.00000000000E+00 0. -1.
         -2   -1    0    0    0  501 -0.00000000000E+00 -0.00000000000E+00 -0.13150651883E+03  0.13150651883E+03  0.00000000000E+00 0. -1.
         25    1    1    2    0    0 -0.63397196199E+02 -0.11144779477E+02  0.73985602206E+02  0.15497509455E+03  0.12000000000E+03 0.  0.
         25    1    1    2    0    0  0.63397196199E+02  0.11144779477E+02 -0.40074926652E+02  0.14194861867E+03  0.12000000000E+03 0.  0.
<mgrwt>
<rscale>  0 0.29498094E+03</rscale>
<asrwt>0</asrwt>
<pdfrwt beam="1">  1        2 0.25448799E-01 0.29498094E+03</pdfrwt>
<pdfrwt beam="2">  1       -2 0.20231772E-01 0.29498094E+03</pdfrwt>
<totfact> 0.43311606E+03</totfact>
</mgrwt>
</event>
<event>
 4    1  0.1777979E-004  0.2879598E+03  0.7818608E-02  0.1091419E+00
         -1   -1    0    0    0  501 -0.00000000000E+00  0.00000000000E+00  0.42979467437E+02  0.42979467437E+02  0.00000000000E+00 0.  1.
          1   -1    0    0  501    0  0.00000000000E+00 -0.00000000000E+00 -0.48232812900E+03  0.48232812900E+03  0.00000000000E+00 0.  1.
         25    1    1    2    0    0  0.10316929360E+02  0.74933049945E+02 -0.17466308641E+03  0.22500798821E+03  0.12000000000E+03 0.  0.
         25    1    1    2    0    0 -0.10316929360E+02 -0.74933049945E+02 -0.26468557516E+03  0.30029960823E+03  0.12000000000E+03 0.  0.
<mgrwt>
<rscale>  0 0.28795976E+03</rscale>
<asrwt>0</asrwt>
<pdfrwt beam="1">  1        1 0.74204330E-01 0.28795976E+03</pdfrwt>
<pdfrwt beam="2">  1       -1 0.66122256E-02 0.28795976E+03</pdfrwt>
<totfact> 0.54456919E+03</totfact>
</mgrwt>
</event>
<event>
 4    1  0.1777979E-004  0.2493785E+03  0.7818608E-02  0.1113698E+00
         -2   -1    0    0    0  501 -0.00000000000E+00  0.00000000000E+00  0.54840177243E+01  0.54840177243E+01  0.00000000000E+00 0.  1.
          2   -1    0    0  501    0  0.00000000000E+00 -0.00000000000E+00 -0.28350410239E+04  0.28350410239E+04  0.00000000000E+00 0.  1.
         25    1    1    2    0    0  0.68165669651E+01 -0.32664287552E+02 -0.14811895605E+04  0.14864171471E+04  0.12000000000E+03 0.  0.
         25    1    1    2    0    0 -0.68165669651E+01  0.32664287552E+02 -0.13483674458E+04  0.13541078945E+04  0.12000000000E+03 0.  0.
<mgrwt>
<rscale>  0 0.24937855E+03</rscale>
<asrwt>0</asrwt>
<pdfrwt beam="1">  1        2 0.43616074E+00 0.24937855E+03</pdfrwt>
<pdfrwt beam="2">  1       -2 0.84369392E-03 0.24937855E+03</pdfrwt>
<totfact> 0.71018487E+03</totfact>
</mgrwt>
</event>
<event>
 4    1  0.1777979E-004  0.2785955E+03  0.7818608E-02  0.1096459E+00
         -1   -1    0    0    0  501 -0.00000000000E+00  0.00000000000E+00  0.12874289828E+03  0.12874289828E+03  0.00000000000E+00 0.  1.
          1   -1    0    0  501    0  0.00000000000E+00 -0.00000000000E+00 -0.15071790931E+03  0.15071790931E+03  0.00000000000E+00 0.  1.
         25    1    1    2    0    0  0.41400418304E+02  0.30862074750E+02  0.37509306716E+02  0.13591692457E+03  0.12000000000E+03 0.  0.
         25    1    1    2    0    0 -0.41400418304E+02 -0.30862074750E+02 -0.59484317749E+02  0.14354388302E+03  0.12000000000E+03 0.  0.
<mgrwt>
<rscale>  0 0.27859548E+03</rscale>
<asrwt>0</asrwt>
<pdfrwt beam="1">  1        1 0.23187370E-01 0.27859548E+03</pdfrwt>
<pdfrwt beam="2">  1       -1 0.19806600E-01 0.27859548E+03</pdfrwt>
<totfact> 0.42946269E+03</totfact>
</mgrwt>
</event>
<event>
 4    1  0.1777979E-004  0.2844411E+03  0.7818608E-02  0.1093288E+00
          2   -1    0    0  501    0  0.00000000000E+00  0.00000000000E+00  0.91977116851E+03  0.91977116851E+03  0.00000000000E+00 0.  1.
         -2   -1    0    0    0  501 -0.00000000000E+00 -0.00000000000E+00 -0.21991002290E+02  0.21991002290E+02  0.00000000000E+00 0.  1.
         25    1    1    2    0    0  0.53453377773E+02 -0.41499779918E+02  0.33196277832E+03  0.35941449820E+03  0.12000000000E+03 0.  0.
         25    1    1    2    0    0 -0.53453377773E+02  0.41499779918E+02  0.56581738790E+03  0.58234767260E+03  0.12000000000E+03 0.  0.
<mgrwt>
<rscale>  0 0.28444114E+03</rscale>
<asrwt>0</asrwt>
<pdfrwt beam="1">  1        2 0.14150323E+00 0.28444114E+03</pdfrwt>
<pdfrwt beam="2">  1       -2 0.33832318E-02 0.28444114E+03</pdfrwt>
<totfact> 0.10420196E+04</totfact>
</mgrwt>
</event>
<event>
 4    1  0.1777979E-004  0.2710145E+03  0.7818608E-02  0.1100700E+00
         -4   -1    0    0    0  501 -0.00000000000E+00  0.00000000000E+00  0.22793707143E+03  0.22793707143E+03  0.00000000000E+00 0.  1.
          4   -1    0    0  501    0  0.00000000000E+00 -0.00000000000E+00 -0.80558237798E+02  0.80558237798E+02  0.00000000000E+00 0.  1.
         25    1    1    2    0    0 -0.49514242581E+02  0.37167911570E+02  0.86622757257E+02  0.16042635676E+03  0.12000000000E+03 0.  0.
         25    1    1    2    0    0  0.49514242581E+02 -0.37167911570E+02  0.60756076380E+02  0.14806895247E+03  0.12000000000E+03 0.  0.
<mgrwt>
<rscale>  0 0.27101446E+03</rscale>
<asrwt>0</asrwt>
<pdfrwt beam="1">  1        4 0.12393575E-01 0.27101446E+03</pdfrwt>
<pdfrwt beam="2">  1       -4 0.35067241E-01 0.27101446E+03</pdfrwt>
<totfact> 0.77467863E+02</totfact>
</mgrwt>
</event>
<event>
 4    1  0.1777979E-004  0.2551444E+03  0.7818608E-02  0.1110096E+00
          2   -1    0    0  501    0  0.00000000000E+00  0.00000000000E+00  0.14681878125E+04  0.14681878125E+04  0.00000000000E+00 0. -1.
         -2   -1    0    0    0  501 -0.00000000000E+00 -0.00000000000E+00 -0.11084865827E+02  0.11084865827E+02  0.00000000000E+00 0. -1.
         25    1    1    2    0    0 -0.42246934977E+02 -0.70764643388E+01  0.69198170978E+03  0.70361464349E+03  0.12000000000E+03 0.  0.
         25    1    1    2    0    0  0.42246934977E+02  0.70764643388E+01  0.76512123684E+03  0.77565803479E+03  0.12000000000E+03 0.  0.
<mgrwt>
<rscale>  0 0.25514439E+03</rscale>
<asrwt>0</asrwt>
<pdfrwt beam="1">  1        2 0.22587489E+00 0.25514439E+03</pdfrwt>
<pdfrwt beam="2">  1       -2 0.17053651E-02 0.25514439E+03</pdfrwt>
<totfact> 0.13835294E+04</totfact>
</mgrwt>
</event>
<event>
 4    1  0.1777979E-004  0.3025140E+03  0.7818608E-02  0.1083991E+00
          2   -1    0    0  501    0  0.00000000000E+00  0.00000000000E+00  0.30764214527E+03  0.30764214527E+03  0.00000000000E+00 0. -1.
         -2   -1    0    0    0  501 -0.00000000000E+00 -0.00000000000E+00 -0.74367829753E+02  0.74367829753E+02  0.00000000000E+00 0. -1.
         25    1    1    2    0    0  0.13753968557E+02  0.18087057966E+02  0.22931805312E+03  0.25981355393E+03  0.12000000000E+03 0.  0.
         25    1    1    2    0    0 -0.13753968557E+02 -0.18087057966E+02  0.39562623978E+01  0.12219642110E+03  0.12000000000E+03 0.  0.
<mgrwt>
<rscale>  0 0.30251399E+03</rscale>
<asrwt>0</asrwt>
<pdfrwt beam="1">  1        2 0.47329560E-01 0.30251399E+03</pdfrwt>
<pdfrwt beam="2">  1       -2 0.11441205E-01 0.30251399E+03</pdfrwt>
<totfact> 0.56698201E+03</totfact>
</mgrwt>
</event>
<event>
 4    1  0.1777979E-004  0.3293050E+03  0.7818608E-02  0.1071445E+00
         -1   -1    0    0    0  501 -0.00000000000E+00  0.00000000000E+00  0.26798760123E+03  0.26798760123E+03  0.00000000000E+00 0. -1.
          1   -1    0    0  501    0  0.00000000000E+00 -0.00000000000E+00 -0.10116304381E+03  0.10116304381E+03  0.00000000000E+00 0. -1.
         25    1    1    2    0    0  0.30415324148E+02 -0.80318663995E+02  0.15389399319E+01  0.14757556730E+03  0.12000000000E+03 0.  0.
         25    1    1    2    0    0 -0.30415324148E+02  0.80318663995E+02  0.16528561748E+03  0.22157507774E+03  0.12000000000E+03 0.  0.
<mgrwt>
<rscale>  0 0.32930497E+03</rscale>
<asrwt>0</asrwt>
<pdfrwt beam="1">  1        1 0.15563545E-01 0.32930497E+03</pdfrwt>
<pdfrwt beam="2">  1       -1 0.41228861E-01 0.32930497E+03</pdfrwt>
<totfact> 0.20797698E+03</totfact>
</mgrwt>
</event>
<event>
 4    1  0.1777979E-004  0.2673187E+03  0.7818608E-02  0.1102824E+00
          1   -1    0    0  501    0  0.00000000000E+00  0.00000000000E+00  0.39212992669E+03  0.39212992669E+03  0.00000000000E+00 0. -1.
         -1   -1    0    0    0  501 -0.00000000000E+00 -0.00000000000E+00 -0.45558441599E+02  0.45558441599E+02  0.00000000000E+00 0. -1.
         25    1    1    2    0    0  0.41623111587E+02  0.39781276657E+02  0.19332511910E+03  0.23471181279E+03  0.12000000000E+03 0.  0.
         25    1    1    2    0    0 -0.41623111587E+02 -0.39781276657E+02  0.15324636600E+03  0.20297655550E+03  0.12000000000E+03 0.  0.
<mgrwt>
<rscale>  0 0.26731875E+03</rscale>
<asrwt>0</asrwt>
<pdfrwt beam="1">  1        1 0.60327679E-01 0.26731875E+03</pdfrwt>
<pdfrwt beam="2">  1       -1 0.70089913E-02 0.26731875E+03</pdfrwt>
<totfact> 0.65076480E+03</totfact>
</mgrwt>
</event>
<event>
 4    1  0.1777979E-004  0.2832989E+03  0.7818608E-02  0.1093901E+00
          2   -1    0    0  501    0  0.00000000000E+00  0.00000000000E+00  0.35669773438E+04  0.35669773438E+04  0.00000000000E+00 0. -1.
         -2   -1    0    0    0  501 -0.00000000000E+00 -0.00000000000E+00 -0.56250901494E+01  0.56250901494E+01  0.00000000000E+00 0. -1.
         25    1    1    2    0    0 -0.40814136220E+02 -0.54415842725E+02  0.21869079084E+04  0.21912537684E+04  0.12000000000E+03 0.  0.
         25    1    1    2    0    0  0.40814136220E+02  0.54415842725E+02  0.13744443452E+04  0.13813486655E+04  0.12000000000E+03 0.  0.
<mgrwt>
<rscale>  0 0.28329892E+03</rscale>
<asrwt>0</asrwt>
<pdfrwt beam="1">  1        2 0.54876394E+00 0.28329892E+03</pdfrwt>
<pdfrwt beam="2">  1       -2 0.86540133E-03 0.28329892E+03</pdfrwt>
<totfact> 0.24030746E+03</totfact>
</mgrwt>
</event>
<event>
 4    1  0.1777979E-004  0.2665723E+03  0.7818608E-02  0.1103258E+00
         -2   -1    0    0    0  501 -0.00000000000E+00  0.00000000000E+00  0.10241289712E+02  0.10241289712E+02  0.00000000000E+00 0. -1.
          2   -1    0    0  501    0  0.00000000000E+00 -0.00000000000E+00 -0.17346645470E+04  0.17346645470E+04  0.00000000000E+00 0. -1.
         25    1    1    2    0    0  0.53006076283E+02 -0.48886984062E+01 -0.71128239089E+03  0.72329536366E+03  0.12000000000E+03 0.  0.
         25    1    1    2    0    0 -0.53006076283E+02  0.48886984062E+01 -0.10131408664E+04  0.10216104730E+04  0.12000000000E+03 0.  0.
<mgrwt>
<rscale>  0 0.26657233E+03</rscale>
<asrwt>0</asrwt>
<pdfrwt beam="1">  1        2 0.26687138E+00 0.26657233E+03</pdfrwt>
<pdfrwt beam="2">  1       -2 0.15755836E-02 0.26657233E+03</pdfrwt>
<totfact> 0.11237036E+04</totfact>
</mgrwt>
</event>
<event>
 4    1  0.1777979E-004  0.2712047E+03  0.7818608E-02  0.1100592E+00
         -1   -1    0    0    0  501 -0.00000000000E+00  0.00000000000E+00  0.43103973262E+02  0.43103973262E+02  0.00000000000E+00 0.  1.
          1   -1    0    0  501    0  0.00000000000E+00 -0.00000000000E+00 -0.42659621312E+03  0.42659621312E+03  0.00000000000E+00 0.  1.
         25    1    1    2    0    0 -0.44497551851E+02 -0.17076264129E+02 -0.26349710799E+03  0.29343203104E+03  0.12000000000E+03 0.  0.
         25    1    1    2    0    0  0.44497551851E+02  0.17076264129E+02 -0.11999513186E+03  0.17626815534E+03  0.12000000000E+03 0.  0.
<mgrwt>
<rscale>  0 0.27120466E+03</rscale>
<asrwt>0</asrwt>
<pdfrwt beam="1">  1        1 0.65630186E-01 0.27120466E+03</pdfrwt>
<pdfrwt beam="2">  1       -1 0.66313805E-02 0.27120466E+03</pdfrwt>
<totfact> 0.63540913E+03</totfact>
</mgrwt>
</event>
<event>
 4    1  0.1777979E-004  0.2868849E+03  0.7818608E-02  0.1091987E+00
         -4   -1    0    0    0  501 -0.00000000000E+00  0.00000000000E+00  0.59378450512E+03  0.59378450512E+03  0.00000000000E+00 0. -1.
          4   -1    0    0  501    0  0.00000000000E+00 -0.00000000000E+00 -0.34651858164E+02  0.34651858164E+02  0.00000000000E+00 0. -1.
         25    1    1    2    0    0 -0.37343775616E+02 -0.67637443413E+02  0.24809889571E+03  0.28622096950E+03  0.12000000000E+03 0.  0.
         25    1    1    2    0    0  0.37343775616E+02  0.67637443413E+02  0.31103375125E+03  0.34221539379E+03  0.12000000000E+03 0.  0.
<mgrwt>
<rscale>  0 0.28688490E+03</rscale>
<asrwt>0</asrwt>
<pdfrwt beam="1">  1        4 0.53310555E-02 0.28688490E+03</pdfrwt>
<pdfrwt beam="2">  1       -4 0.91351455E-01 0.28688490E+03</pdfrwt>
<totfact> 0.42640848E+02</totfact>
</mgrwt>
</event>
<event>
 4    1  0.1777979E-004  0.2542685E+03  0.7818608E-02  0.1110637E+00
         -2   -1    0    0    0  501 -0.00000000000E+00  0.00000000000E+00  0.41858093766E+01  0.41858093766E+01  0.00000000000E+00 0.  1.
          2   -1    0    0  501    0  0.00000000000E+00 -0.00000000000E+00 -0.38614070485E+04  0.38614070485E+04  0.00000000000E+00 0.  1.
         25    1    1    2    0    0  0.31117123946E+02  0.20889446233E+02 -0.22164496492E+04  0.22200120927E+04  0.12000000000E+03 0.  0.
         25    1    1    2    0    0 -0.31117123946E+02 -0.20889446233E+02 -0.16407715899E+04  0.16455807651E+04  0.12000000000E+03 0.  0.
<mgrwt>
<rscale>  0 0.25426847E+03</rscale>
<asrwt>0</asrwt>
<pdfrwt beam="1">  1        2 0.59406386E+00 0.25426847E+03</pdfrwt>
<pdfrwt beam="2">  1       -2 0.64396933E-03 0.25426847E+03</pdfrwt>
<totfact> 0.23000336E+03</totfact>
</mgrwt>
</event>
<event>
 4    1  0.1777979E-004  0.3588218E+03  0.7818608E-02  0.1059051E+00
         -2   -1    0    0    0  501 -0.00000000000E+00  0.00000000000E+00  0.65880451006E+02  0.65880451006E+02  0.00000000000E+00 0. -1.
          2   -1    0    0  501    0  0.00000000000E+00 -0.00000000000E+00 -0.48858603695E+03  0.48858603695E+03  0.00000000000E+00 0. -1.
         25    1    1    2    0    0 -0.12923502934E+03 -0.19877125970E+02 -0.17071923001E+03  0.24625565667E+03  0.12000000000E+03 0.  0.
         25    1    1    2    0    0  0.12923502934E+03  0.19877125970E+02 -0.25198635593E+03  0.30821083129E+03  0.12000000000E+03 0.  0.
<mgrwt>
<rscale>  0 0.35882179E+03</rscale>
<asrwt>0</asrwt>
<pdfrwt beam="1">  1        2 0.75167081E-01 0.35882179E+03</pdfrwt>
<pdfrwt beam="2">  1       -2 0.10135454E-01 0.35882179E+03</pdfrwt>
<totfact> 0.41673387E+03</totfact>
</mgrwt>
</event>
<event>
 4    1  0.1777979E-004  0.2876466E+03  0.7818608E-02  0.1091584E+00
          1   -1    0    0  501    0  0.00000000000E+00  0.00000000000E+00  0.87705504466E+02  0.87705504466E+02  0.00000000000E+00 0. -1.
         -1   -1    0    0    0  501 -0.00000000000E+00 -0.00000000000E+00 -0.23584776969E+03  0.23584776969E+03  0.00000000000E+00 0. -1.
         25    1    1    2    0    0  0.66684589754E+02  0.28164674176E+02 -0.11043398842E+03  0.17842575257E+03  0.12000000000E+03 0.  0.
         25    1    1    2    0    0 -0.66684589754E+02 -0.28164674176E+02 -0.37708276805E+02  0.14512752159E+03  0.12000000000E+03 0.  0.
<mgrwt>
<rscale>  0 0.28764664E+03</rscale>
<asrwt>0</asrwt>
<pdfrwt beam="1">  1        1 0.13493155E-01 0.28764664E+03</pdfrwt>
<pdfrwt beam="2">  1       -1 0.36284272E-01 0.28764664E+03</pdfrwt>
<totfact> 0.31399931E+03</totfact>
</mgrwt>
</event>
<event>
 4    1  0.1777979E-004  0.2617830E+03  0.7818608E-02  0.1106077E+00
         -1   -1    0    0    0  501 -0.00000000000E+00  0.00000000000E+00  0.13683375009E+03  0.13683375009E+03  0.00000000000E+00 0.  1.
          1   -1    0    0  501    0  0.00000000000E+00 -0.00000000000E+00 -0.12520734302E+03  0.12520734302E+03  0.00000000000E+00 0.  1.
         25    1    1    2    0    0 -0.10890984023E+02 -0.44142646818E+02  0.31634047129E+02  0.13216618228E+03  0.12000000000E+03 0.  0.
         25    1    1    2    0    0  0.10890984023E+02  0.44142646818E+02 -0.20007640058E+02  0.12987491083E+03  0.12000000000E+03 0.  0.
<mgrwt>
<rscale>  0 0.26178304E+03</rscale>
<asrwt>0</asrwt>
<pdfrwt beam="1">  1        1 0.19262668E-01 0.26178304E+03</pdfrwt>
<pdfrwt beam="2">  1       -1 0.21051346E-01 0.26178304E+03</pdfrwt>
<totfact> 0.49244097E+03</totfact>
</mgrwt>
</event>
<event>
 4    1  0.1777979E-004  0.2766409E+03  0.7818608E-02  0.1097538E+00
         -2   -1    0    0    0  501 -0.00000000000E+00  0.00000000000E+00  0.16033571827E+03  0.16033571827E+03  0.00000000000E+00 0. -1.
          2   -1    0    0  501    0  0.00000000000E+00 -0.00000000000E+00 -0.11932806233E+03  0.11932806233E+03  0.00000000000E+00 0. -1.
         25    1    1    2    0    0  0.26895709301E+02 -0.14432123173E+02  0.82828811341E+02  0.14897072647E+03  0.12000000000E+03 0.  0.
         25    1    1    2    0    0 -0.26895709301E+02  0.14432123173E+02 -0.41821155402E+02  0.13069305413E+03  0.12000000000E+03 0.  0.
<mgrwt>
<rscale>  0 0.27664093E+03</rscale>
<asrwt>0</asrwt>
<pdfrwt beam="1">  1        2 0.18358163E-01 0.27664093E+03</pdfrwt>
<pdfrwt beam="2">  1       -2 0.24667034E-01 0.27664093E+03</pdfrwt>
<totfact> 0.44399025E+03</totfact>
</mgrwt>
</event>
<event>
 4    1  0.1777979E-004  0.3126260E+03  0.7818608E-02  0.1079094E+00
         -2   -1    0    0    0  501 -0.00000000000E+00  0.00000000000E+00  0.16050179947E+02  0.16050179947E+02  0.00000000000E+00 0. -1.
          2   -1    0    0  501    0  0.00000000000E+00 -0.00000000000E+00 -0.15223355883E+04  0.15223355883E+04  0.00000000000E+00 0. -1.
         25    1    1    2    0    0 -0.26206976826E+01 -0.41931329546E+02 -0.30567926261E+03  0.33106633179E+03  0.12000000000E+03 0.  0.
         25    1    1    2    0    0  0.26206976826E+01  0.41931329546E+02 -0.12006061458E+04  0.12073194365E+04  0.12000000000E+03 0.  0.
<mgrwt>
<rscale>  0 0.31262604E+03</rscale>
<asrwt>0</asrwt>
<pdfrwt beam="1">  1        2 0.23420550E+00 0.31262604E+03</pdfrwt>
<pdfrwt beam="2">  1       -2 0.24692582E-02 0.31262604E+03</pdfrwt>
<totfact> 0.75293664E+03</totfact>
</mgrwt>
</event>
<event>
 4    1  0.1777979E-004  0.3100378E+03  0.7818608E-02  0.1080328E+00
         -2   -1    0    0    0  501 -0.00000000000E+00  0.00000000000E+00  0.37772323622E+03  0.37772323622E+03  0.00000000000E+00 0. -1.
          2   -1    0    0  501    0  0.00000000000E+00 -0.00000000000E+00 -0.63620281208E+02  0.63620281208E+02  0.00000000000E+00 0. -1.
         25    1    1    2    0    0 -0.19465581215E+02  0.39935235697E+02  0.28161618916E+03  0.30932411787E+03  0.12000000000E+03 0.  0.
         25    1    1    2    0    0  0.19465581215E+02 -0.39935235697E+02  0.32486765848E+02  0.13201939955E+03  0.12000000000E+03 0.  0.
<mgrwt>
<rscale>  0 0.31003779E+03</rscale>
<asrwt>0</asrwt>
<pdfrwt beam="1">  1        2 0.97877358E-02 0.31003779E+03</pdfrwt>
<pdfrwt beam="2">  1       -2 0.58111266E-01 0.31003779E+03</pdfrwt>
<totfact> 0.18641053E+03</totfact>
</mgrwt>
</event>
<event>
 4    1  0.1777979E-004  0.2441697E+03  0.7818608E-02  0.1117046E+00
         -3   -1    0    0    0  501 -0.00000000000E+00  0.00000000000E+00  0.39985808731E+03  0.39985808731E+03  0.00000000000E+00 0. -1.
          3   -1    0    0  501    0  0.00000000000E+00 -0.00000000000E+00 -0.37274989562E+02  0.37274989562E+02  0.00000000000E+00 0. -1.
         25    1    1    2    0    0  0.16639088410E+02  0.13708260166E+02  0.19260444080E+03  0.22795009602E+03  0.12000000000E+03 0.  0.
         25    1    1    2    0    0 -0.16639088410E+02 -0.13708260166E+02  0.16997865694E+03  0.20918298085E+03  0.12000000000E+03 0.  0.
<mgrwt>
<rscale>  0 0.24416966E+03</rscale>
<asrwt>0</asrwt>
<pdfrwt beam="1">  1        3 0.57346141E-02 0.24416966E+03</pdfrwt>
<pdfrwt beam="2">  1       -3 0.61516626E-01 0.24416966E+03</pdfrwt>
<totfact> 0.12005628E+03</totfact>
</mgrwt>
</event>
<event>
 4    1  0.1777979E-004  0.4126132E+03  0.7818608E-02  0.1039498E+00
         -2   -1    0    0    0  501 -0.00000000000E+00  0.00000000000E+00  0.21063235635E+02  0.21063235635E+02  0.00000000000E+00 0. -1.
          2   -1    0    0  501    0  0.00000000000E+00 -0.00000000000E+00 -0.20206970317E+04  0.20206970317E+04  0.00000000000E+00 0. -1.
         25    1    1    2    0    0 -0.14136181334E+02  0.16654321631E+03 -0.92543602906E+03  0.94803392260E+03  0.12000000000E+03 0.  0.
         25    1    1    2    0    0  0.14136181334E+02 -0.16654321631E+03 -0.10741977670E+04  0.10937263447E+04  0.12000000000E+03 0.  0.
<mgrwt>
<rscale>  0 0.41261322E+03</rscale>
<asrwt>0</asrwt>
<pdfrwt beam="1">  1        2 0.31087663E+00 0.41261322E+03</pdfrwt>
<pdfrwt beam="2">  1       -2 0.32404961E-02 0.41261322E+03</pdfrwt>
<totfact> 0.27170139E+03</totfact>
</mgrwt>
</event>
<event>
 4    1  0.1777979E-004  0.2745138E+03  0.7818608E-02  0.1098724E+00
         -2   -1    0    0    0  501 -0.00000000000E+00  0.00000000000E+00  0.15400814046E+03  0.15400814046E+03  0.00000000000E+00 0. -1.
          2   -1    0    0  501    0  0.00000000000E+00 -0.00000000000E+00 -0.12232767445E+03  0.12232767445E+03  0.00000000000E+00 0. -1.
         25    1    1    2    0    0  0.56641581205E+02 -0.31177748107E+02  0.32044808963E+02  0.14002567793E+03  0.12000000000E+03 0.  0.
         25    1    1    2    0    0 -0.56641581205E+02  0.31177748107E+02 -0.36434294649E+00  0.13631013698E+03  0.12000000000E+03 0.  0.
<mgrwt>
<rscale>  0 0.27451381E+03</rscale>
<asrwt>0</asrwt>
<pdfrwt beam="1">  1        2 0.18819642E-01 0.27451381E+03</pdfrwt>
<pdfrwt beam="2">  1       -2 0.23693560E-01 0.27451381E+03</pdfrwt>
<totfact> 0.46291923E+03</totfact>
</mgrwt>
</event>
<event>
 4    1  0.1777979E-004  0.3568465E+03  0.7818608E-02  0.1059840E+00
         -3   -1    0    0    0  501 -0.00000000000E+00  0.00000000000E+00  0.26977711380E+03  0.26977711380E+03  0.00000000000E+00 0. -1.
          3   -1    0    0  501    0  0.00000000000E+00 -0.00000000000E+00 -0.11800427353E+03  0.11800427353E+03  0.00000000000E+00 0. -1.
         25    1    1    2    0    0 -0.11956486358E+03 -0.39547426158E+02  0.32758434874E+02  0.17701093349E+03  0.12000000000E+03 0.  0.
         25    1    1    2    0    0  0.11956486358E+03  0.39547426158E+02  0.11901440540E+03  0.21077045384E+03  0.12000000000E+03 0.  0.
<mgrwt>
<rscale>  0 0.35684648E+03</rscale>
<asrwt>0</asrwt>
<pdfrwt beam="1">  1        3 0.18154504E-01 0.35684648E+03</pdfrwt>
<pdfrwt beam="2">  1       -3 0.41504171E-01 0.35684648E+03</pdfrwt>
<totfact> 0.39904236E+02</totfact>
</mgrwt>
</event>
<event>
 4    1  0.1777979E-004  0.3276812E+03  0.7818608E-02  0.1072167E+00
         -2   -1    0    0    0  501 -0.00000000000E+00  0.00000000000E+00  0.18236010241E+02  0.18236010241E+02  0.00000000000E+00 0. -1.
          2   -1    0    0  501    0  0.00000000000E+00 -0.00000000000E+00 -0.14720183395E+04  0.14720183395E+04  0.00000000000E+00 0. -1.
         25    1    1    2    0    0  0.42989344517E+02  0.22174654125E+01 -0.25886293995E+03  0.28855332709E+03  0.12000000000E+03 0.  0.
         25    1    1    2    0    0 -0.42989344517E+02 -0.22174654125E+01 -0.11949193893E+04  0.12017010226E+04  0.12000000000E+03 0.  0.
<mgrwt>
<rscale>  0 0.32768120E+03</rscale>
<asrwt>0</asrwt>
<pdfrwt beam="1">  1        2 0.22646435E+00 0.32768120E+03</pdfrwt>
<pdfrwt beam="2">  1       -2 0.28055401E-02 0.32768120E+03</pdfrwt>
<totfact> 0.66302500E+03</totfact>
</mgrwt>
</event>
<event>
 4    1  0.1777979E-004  0.2710734E+03  0.7818608E-02  0.1100667E+00
         -1   -1    0    0    0  501 -0.00000000000E+00  0.00000000000E+00  0.24116198776E+03  0.24116198776E+03  0.00000000000E+00 0.  1.
          1   -1    0    0  501    0  0.00000000000E+00 -0.00000000000E+00 -0.76173672283E+02  0.76173672283E+02  0.00000000000E+00 0.  1.
         25    1    1    2    0    0  0.46906729793E+02 -0.39486709687E+02  0.65499259754E+02  0.14983188769E+03  0.12000000000E+03 0.  0.
         25    1    1    2    0    0 -0.46906729793E+02  0.39486709687E+02  0.99489055721E+02  0.16750377235E+03  0.12000000000E+03 0.  0.
<mgrwt>
<rscale>  0 0.27107338E+03</rscale>
<asrwt>0</asrwt>
<pdfrwt beam="1">  1        1 0.11719027E-01 0.27107338E+03</pdfrwt>
<pdfrwt beam="2">  1       -1 0.37101844E-01 0.27107338E+03</pdfrwt>
<totfact> 0.36354055E+03</totfact>
</mgrwt>
</event>
<event>
 4    1  0.1777979E-004  0.3039763E+03  0.7818608E-02  0.1083270E+00
          2   -1    0    0  501    0  0.00000000000E+00  0.00000000000E+00  0.14344500409E+04  0.14344500409E+04  0.00000000000E+00 0.  1.
         -2   -1    0    0    0  501 -0.00000000000E+00 -0.00000000000E+00 -0.16104012932E+02  0.16104012932E+02  0.00000000000E+00 0.  1.
         25    1    1    2    0    0  0.19346551934E+02 -0.31454152058E+02  0.11179119319E+04  0.11249403274E+04  0.12000000000E+03 0.  0.
         25    1    1    2    0    0 -0.19346551934E+02  0.31454152058E+02  0.30043409607E+03  0.32561372643E+03  0.12000000000E+03 0.  0.
<mgrwt>
<rscale>  0 0.30397633E+03</rscale>
<asrwt>0</asrwt>
<pdfrwt beam="1">  1        2 0.22068452E+00 0.30397633E+03</pdfrwt>
<pdfrwt beam="2">  1       -2 0.24775416E-02 0.30397633E+03</pdfrwt>
<totfact> 0.83530852E+03</totfact>
</mgrwt>
</event>
<event>
 4    1  0.1777979E-004  0.3402568E+03  0.7818608E-02  0.1066687E+00
         -2   -1    0    0    0  501 -0.00000000000E+00  0.00000000000E+00  0.18353667305E+02  0.18353667305E+02  0.00000000000E+00 0.  1.
          2   -1    0    0  501    0  0.00000000000E+00 -0.00000000000E+00 -0.15769968688E+04  0.15769968688E+04  0.00000000000E+00 0.  1.
         25    1    1    2    0    0  0.84070329461E+02  0.32826618492E+02 -0.11543641319E+04  0.11640884658E+04  0.12000000000E+03 0.  0.
         25    1    1    2    0    0 -0.84070329461E+02 -0.32826618492E+02 -0.40427906961E+03  0.43126207033E+03  0.12000000000E+03 0.  0.
<mgrwt>
<rscale>  0 0.34025682E+03</rscale>
<asrwt>0</asrwt>
<pdfrwt beam="1">  1        2 0.24261487E+00 0.34025682E+03</pdfrwt>
<pdfrwt beam="2">  1       -2 0.28236415E-02 0.34025682E+03</pdfrwt>
<totfact> 0.57671812E+03</totfact>
</mgrwt>
</event>
<event>
 4    1  0.1777979E-004  0.3859505E+03  0.7818608E-02  0.1048756E+00
          2   -1    0    0  501    0  0.00000000000E+00  0.00000000000E+00  0.64804376299E+03  0.64804376299E+03  0.00000000000E+00 0. -1.
         -2   -1    0    0    0  501 -0.00000000000E+00 -0.00000000000E+00 -0.57464401520E+02  0.57464401520E+02  0.00000000000E+00 0. -1.
         25    1    1    2    0    0  0.10604500243E+03  0.41485820883E+02  0.11365812995E+03  0.20071070320E+03  0.12000000000E+03 0.  0.
         25    1    1    2    0    0 -0.10604500243E+03 -0.41485820883E+02  0.47692123152E+03  0.50479746131E+03  0.12000000000E+03 0.  0.
<mgrwt>
<rscale>  0 0.38595050E+03</rscale>
<asrwt>0</asrwt>
<pdfrwt beam="1">  1        2 0.99699036E-01 0.38595050E+03</pdfrwt>
<pdfrwt beam="2">  1       -2 0.88406776E-02 0.38595050E+03</pdfrwt>
<totfact> 0.37388236E+03</totfact>
</mgrwt>
</event>
<event>
 4    1  0.1777979E-004  0.4775049E+03  0.7818608E-02  0.1019823E+00
         -2   -1    0    0    0  501 -0.00000000000E+00  0.00000000000E+00  0.20502537393E+03  0.20502537393E+03  0.00000000000E+00 0. -1.
          2   -1    0    0  501    0  0.00000000000E+00 -0.00000000000E+00 -0.27802770939E+03  0.27802770939E+03  0.00000000000E+00 0. -1.
         25    1    1    2    0    0  0.61239241820E+02 -0.19614796312E+03 -0.56181434045E+02  0.24450076013E+03  0.12000000000E+03 0.  0.
         25    1    1    2    0    0 -0.61239241820E+02  0.19614796312E+03 -0.16820901415E+02  0.23855232319E+03  0.12000000000E+03 0.  0.
<mgrwt>
<rscale>  0 0.47750491E+03</rscale>
<asrwt>0</asrwt>
<pdfrwt beam="1">  1        2 0.42773494E-01 0.47750491E+03</pdfrwt>
<pdfrwt beam="2">  1       -2 0.31542365E-01 0.47750491E+03</pdfrwt>
<totfact> 0.11150383E+03</totfact>
</mgrwt>
</event>
<event>
 4    1  0.1777979E-004  0.2498130E+03  0.7818608E-02  0.1113423E+00
          2   -1    0    0  501    0  0.00000000000E+00  0.00000000000E+00  0.17726926404E+03  0.17726926404E+03  0.00000000000E+00 0. -1.
         -2   -1    0    0    0  501 -0.00000000000E+00 -0.00000000000E+00 -0.88010933868E+02  0.88010933868E+02  0.00000000000E+00 0. -1.
         25    1    1    2    0    0  0.30524298603E+02 -0.16423633252E+02  0.44197891871E+02  0.13249498926E+03  0.12000000000E+03 0.  0.
         25    1    1    2    0    0 -0.30524298603E+02  0.16423633252E+02  0.45060438298E+02  0.13278520864E+03  0.12000000000E+03 0.  0.
<mgrwt>
<rscale>  0 0.24981300E+03</rscale>
<asrwt>0</asrwt>
<pdfrwt beam="1">  1        2 0.27272194E-01 0.24981300E+03</pdfrwt>
<pdfrwt beam="2">  1       -2 0.13540144E-01 0.24981300E+03</pdfrwt>
<totfact> 0.77996874E+03</totfact>
</mgrwt>
</event>
<event>
 4    1  0.1777979E-004  0.3317471E+03  0.7818608E-02  0.1070366E+00
         -1   -1    0    0    0  501 -0.00000000000E+00  0.00000000000E+00  0.11736450117E+02  0.11736450117E+02  0.00000000000E+00 0. -1.
          1   -1    0    0  501    0  0.00000000000E+00 -0.00000000000E+00 -0.23443231773E+04  0.23443231773E+04  0.00000000000E+00 0. -1.
         25    1    1    2    0    0  0.36652484480E+01 -0.68907160970E+00 -0.35343130664E+03  0.37326612139E+03  0.12000000000E+03 0.  0.
         25    1    1    2    0    0 -0.36652484480E+01  0.68907160970E+00 -0.19791554206E+04  0.19827935060E+04  0.12000000000E+03 0.  0.
<mgrwt>
<rscale>  0 0.33174708E+03</rscale>
<asrwt>0</asrwt>
<pdfrwt beam="1">  1        1 0.36066506E+00 0.33174708E+03</pdfrwt>
<pdfrwt beam="2">  1       -1 0.18056079E-02 0.33174708E+03</pdfrwt>
<totfact> 0.15937364E+03</totfact>
</mgrwt>
</event>
<event>
 4    1  0.1777979E-004  0.2468886E+03  0.7818608E-02  0.1115287E+00
          2   -1    0    0  501    0  0.00000000000E+00  0.00000000000E+00  0.26712758267E+02  0.26712758267E+02  0.00000000000E+00 0. -1.
         -2   -1    0    0    0  501 -0.00000000000E+00 -0.00000000000E+00 -0.57045734784E+03  0.57045734784E+03  0.00000000000E+00 0. -1.
         25    1    1    2    0    0  0.22261358146E+02 -0.10907873287E+02 -0.23567614067E+03  0.26562716925E+03  0.12000000000E+03 0.  0.
         25    1    1    2    0    0 -0.22261358146E+02  0.10907873287E+02 -0.30806844891E+03  0.33154293686E+03  0.12000000000E+03 0.  0.
<mgrwt>
<rscale>  0 0.24688855E+03</rscale>
<asrwt>0</asrwt>
<pdfrwt beam="1">  1        2 0.41096554E-02 0.24688855E+03</pdfrwt>
<pdfrwt beam="2">  1       -2 0.87762662E-01 0.24688855E+03</pdfrwt>
<totfact> 0.23496776E+03</totfact>
</mgrwt>
</event>
<event>
 4    1  0.1777979E-004  0.2838865E+03  0.7818608E-02  0.1093585E+00
         -2   -1    0    0    0  501 -0.00000000000E+00  0.00000000000E+00  0.14837979753E+03  0.14837979753E+03  0.00000000000E+00 0. -1.
          2   -1    0    0  501    0  0.00000000000E+00 -0.00000000000E+00 -0.13578587949E+03  0.13578587949E+03  0.00000000000E+00 0. -1.
         25    1    1    2    0    0 -0.27756690396E+02  0.38787113357E+02  0.65287146967E+02  0.14469722037E+03  0.12000000000E+03 0.  0.
         25    1    1    2    0    0  0.27756690396E+02 -0.38787113357E+02 -0.52693228925E+02  0.13946845664E+03  0.12000000000E+03 0.  0.
<mgrwt>
<rscale>  0 0.28388647E+03</rscale>
<asrwt>0</asrwt>
<pdfrwt beam="1">  1        2 0.20890135E-01 0.28388647E+03</pdfrwt>
<pdfrwt beam="2">  1       -2 0.22827661E-01 0.28388647E+03</pdfrwt>
<totfact> 0.43877282E+03</totfact>
</mgrwt>
</event>
<event>
 4    1  0.1777979E-004  0.3297048E+03  0.7818608E-02  0.1071268E+00
         -2   -1    0    0    0  501 -0.00000000000E+00  0.00000000000E+00  0.94717995767E+03  0.94717995767E+03  0.00000000000E+00 0.  1.
          2   -1    0    0  501    0  0.00000000000E+00 -0.00000000000E+00 -0.28691808128E+02  0.28691808128E+02  0.00000000000E+00 0.  1.
         25    1    1    2    0    0  0.49559298151E+02  0.75344994578E+02  0.25755538454E+03  0.29810697467E+03  0.12000000000E+03 0.  0.
         25    1    1    2    0    0 -0.49559298151E+02 -0.75344994578E+02  0.66093276500E+03  0.67776479113E+03  0.12000000000E+03 0.  0.
<mgrwt>
<rscale>  0 0.32970475E+03</rscale>
<asrwt>0</asrwt>
<pdfrwt beam="1">  1        2 0.44141250E-02 0.32970475E+03</pdfrwt>
<pdfrwt beam="2">  1       -2 0.14571997E+00 0.32970475E+03</pdfrwt>
<totfact> 0.63699763E+02</totfact>
</mgrwt>
</event>
<event>
 4    1  0.1777979E-004  0.5219426E+03  0.7818608E-02  0.1008205E+00
          1   -1    0    0  501    0  0.00000000000E+00  0.00000000000E+00  0.16633661351E+04  0.16633661351E+04  0.00000000000E+00 0.  1.
         -1   -1    0    0    0  501 -0.00000000000E+00 -0.00000000000E+00 -0.40944702236E+02  0.40944702236E+02  0.00000000000E+00 0.  1.
         25    1    1    2    0    0 -0.85788036544E+02  0.20849334526E+02  0.11154927071E+03  0.18611158417E+03  0.12000000000E+03 0.  0.
         25    1    1    2    0    0  0.85788036544E+02 -0.20849334526E+02  0.15108721621E+04  0.15181992531E+04  0.12000000000E+03 0.  0.
<mgrwt>
<rscale>  0 0.52194264E+03</rscale>
<asrwt>0</asrwt>
<pdfrwt beam="1">  1        1 0.25590243E+00 0.52194264E+03</pdfrwt>
<pdfrwt beam="2">  1       -1 0.62991862E-02 0.52194264E+03</pdfrwt>
<totfact> 0.67941120E+02</totfact>
</mgrwt>
</event>
<event>
 4    1  0.1777979E-004  0.3121866E+03  0.7818608E-02  0.1079302E+00
          1   -1    0    0  501    0  0.00000000000E+00  0.00000000000E+00  0.22154371663E+03  0.22154371663E+03  0.00000000000E+00 0.  1.
         -1   -1    0    0    0  501 -0.00000000000E+00 -0.00000000000E+00 -0.10997883732E+03  0.10997883732E+03  0.00000000000E+00 0.  1.
         25    1    1    2    0    0  0.62166589215E+02 -0.65577648427E+02  0.10728168285E+02  0.15059948998E+03  0.12000000000E+03 0.  0.
         25    1    1    2    0    0 -0.62166589215E+02  0.65577648427E+02  0.10083671102E+03  0.18092306397E+03  0.12000000000E+03 0.  0.
<mgrwt>
<rscale>  0 0.31218661E+03</rscale>
<asrwt>0</asrwt>
<pdfrwt beam="1">  1        1 0.34083649E-01 0.31218661E+03</pdfrwt>
<pdfrwt beam="2">  1       -1 0.16919821E-01 0.31218661E+03</pdfrwt>
<totfact> 0.34074051E+03</totfact>
</mgrwt>
</event>
<event>
 4    1  0.1777979E-004  0.2747846E+03  0.7818608E-02  0.1098572E+00
         -2   -1    0    0    0  501 -0.00000000000E+00  0.00000000000E+00  0.14986743049E+02  0.14986743049E+02  0.00000000000E+00 0.  1.
          2   -1    0    0  501    0  0.00000000000E+00 -0.00000000000E+00 -0.12595561618E+04  0.12595561618E+04  0.00000000000E+00 0.  1.
         25    1    1    2    0    0  0.24522375369E+02  0.42020136634E+02 -0.83532547676E+03  0.84530212995E+03  0.12000000000E+03 0.  0.
         25    1    1    2    0    0 -0.24522375369E+02 -0.42020136634E+02 -0.40924394197E+03  0.42924077487E+03  0.12000000000E+03 0.  0.
<mgrwt>
<rscale>  0 0.27478460E+03</rscale>
<asrwt>0</asrwt>
<pdfrwt beam="1">  1        2 0.19377785E+00 0.27478460E+03</pdfrwt>
<pdfrwt beam="2">  1       -2 0.23056531E-02 0.27478460E+03</pdfrwt>
<totfact> 0.11570600E+04</totfact>
</mgrwt>
</event>
<event>
 4    1  0.1777979E-004  0.2782001E+03  0.7818608E-02  0.1096676E+00
         -2   -1    0    0    0  501 -0.00000000000E+00  0.00000000000E+00  0.10957489509E+03  0.10957489509E+03  0.00000000000E+00 0. -1.
          2   -1    0    0  501    0  0.00000000000E+00 -0.00000000000E+00 -0.17658087271E+03  0.17658087271E+03  0.00000000000E+00 0. -1.
         25    1    1    2    0    0  0.13960180373E+00  0.24235270151E+02  0.34426951531E+02  0.12717147007E+03  0.12000000000E+03 0.  0.
         25    1    1    2    0    0 -0.13960180373E+00 -0.24235270151E+02 -0.10143292916E+03  0.15898429773E+03  0.12000000000E+03 0.  0.
<mgrwt>
<rscale>  0 0.27820015E+03</rscale>
<asrwt>0</asrwt>
<pdfrwt beam="1">  1        2 0.27166288E-01 0.27820015E+03</pdfrwt>
<pdfrwt beam="2">  1       -2 0.16857676E-01 0.27820015E+03</pdfrwt>
<totfact> 0.54766921E+03</totfact>
</mgrwt>
</event>
<event>
 4    1  0.1777979E-004  0.2801605E+03  0.7818608E-02  0.1095601E+00
          2   -1    0    0  501    0  0.00000000000E+00  0.00000000000E+00  0.16799080040E+04  0.16799080040E+04  0.00000000000E+00 0.  1.
         -2   -1    0    0    0  501 -0.00000000000E+00 -0.00000000000E+00 -0.11680685416E+02  0.11680685416E+02  0.00000000000E+00 0.  1.
         25    1    1    2    0    0  0.71069955463E+02  0.13096751798E+02  0.83341354534E+03  0.84510389955E+03  0.12000000000E+03 0.  0.
         25    1    1    2    0    0 -0.71069955463E+02 -0.13096751798E+02  0.83481377323E+03  0.84648478986E+03  0.12000000000E+03 0.  0.
<mgrwt>
<rscale>  0 0.28016050E+03</rscale>
<asrwt>0</asrwt>
<pdfrwt beam="1">  1        2 0.25844719E+00 0.28016050E+03</pdfrwt>
<pdfrwt beam="2">  1       -2 0.17970299E-02 0.28016050E+03</pdfrwt>
<totfact> 0.99112863E+03</totfact>
</mgrwt>
</event>
<event>
 4    1  0.1777979E-004  0.3000507E+03  0.7818608E-02  0.1085215E+00
          2   -1    0    0  501    0  0.00000000000E+00  0.00000000000E+00  0.12678321240E+04  0.12678321240E+04  0.00000000000E+00 0. -1.
         -2   -1    0    0    0  501 -0.00000000000E+00 -0.00000000000E+00 -0.17752827161E+02  0.17752827161E+02  0.00000000000E+00 0. -1.
         25    1    1    2    0    0  0.82536976642E+01 -0.88919188969E+02  0.67442537301E+03  0.69081425105E+03  0.12000000000E+03 0.  0.
         25    1    1    2    0    0 -0.82536976642E+01  0.88919188969E+02  0.57565392381E+03  0.59477070009E+03  0.12000000000E+03 0.  0.
<mgrwt>
<rscale>  0 0.30005069E+03</rscale>
<asrwt>0</asrwt>
<pdfrwt beam="1">  1        2 0.19505102E+00 0.30005069E+03</pdfrwt>
<pdfrwt beam="2">  1       -2 0.27312052E-02 0.30005069E+03</pdfrwt>
<totfact> 0.89243299E+03</totfact>
</mgrwt>
</event>
<event>
 4    1  0.1777979E-004  0.2501505E+03  0.7818608E-02  0.1113210E+00
          2   -1    0    0  501    0  0.00000000000E+00  0.00000000000E+00  0.89788804127E+03  0.89788804127E+03  0.00000000000E+00 0.  1.
         -2   -1    0    0    0  501 -0.00000000000E+00 -0.00000000000E+00 -0.17422906594E+02  0.17422906594E+02  0.00000000000E+00 0.  1.
         25    1    1    2    0    0 -0.26714595359E+01  0.21033057956E+02  0.54335608048E+03  0.55685308333E+03  0.12000000000E+03 0.  0.
         25    1    1    2    0    0  0.26714595359E+01 -0.21033057956E+02  0.33710905420E+03  0.35845786454E+03  0.12000000000E+03 0.  0.
<mgrwt>
<rscale>  0 0.25015051E+03</rscale>
<asrwt>0</asrwt>
<pdfrwt beam="1">  1        2 0.13813659E+00 0.25015051E+03</pdfrwt>
<pdfrwt beam="2">  1       -2 0.26804479E-02 0.25015051E+03</pdfrwt>
<totfact> 0.15148128E+04</totfact>
</mgrwt>
</event>
<event>
 4    1  0.1777979E-004  0.2708030E+03  0.7818608E-02  0.1100821E+00
          1   -1    0    0  501    0  0.00000000000E+00  0.00000000000E+00  0.54819135670E+02  0.54819135670E+02  0.00000000000E+00 0. -1.
         -1   -1    0    0    0  501 -0.00000000000E+00 -0.00000000000E+00 -0.33443724163E+03  0.33443724163E+03  0.00000000000E+00 0. -1.
         25    1    1    2    0    0  0.62516515486E+02  0.29206980292E+01 -0.14568583923E+03  0.19884971445E+03  0.12000000000E+03 0.  0.
         25    1    1    2    0    0 -0.62516515486E+02 -0.29206980292E+01 -0.13393226673E+03  0.19040666285E+03  0.12000000000E+03 0.  0.
<mgrwt>
<rscale>  0 0.27080296E+03</rscale>
<asrwt>0</asrwt>
<pdfrwt beam="1">  1        1 0.84337132E-02 0.27080296E+03</pdfrwt>
<pdfrwt beam="2">  1       -1 0.51451883E-01 0.27080296E+03</pdfrwt>
<totfact> 0.31365695E+03</totfact>
</mgrwt>
</event>
<event>
 4    1  0.1777979E-004  0.2879040E+03  0.7818608E-02  0.1091449E+00
          2   -1    0    0  501    0  0.00000000000E+00  0.00000000000E+00  0.15915344506E+04  0.15915344506E+04  0.00000000000E+00 0.  1.
         -2   -1    0    0    0  501 -0.00000000000E+00 -0.00000000000E+00 -0.13020250823E+02  0.13020250823E+02  0.00000000000E+00 0.  1.
         25    1    1    2    0    0  0.37833202137E+02  0.32141772572E+02  0.11354139403E+04  0.11428163722E+04  0.12000000000E+03 0.  0.
         25    1    1    2    0    0 -0.37833202137E+02 -0.32141772572E+02  0.44310025939E+03  0.46173832915E+03  0.12000000000E+03 0.  0.
<mgrwt>
<rscale>  0 0.28790400E+03</rscale>
<asrwt>0</asrwt>
<pdfrwt beam="1">  1        2 0.24485130E+00 0.28790400E+03</pdfrwt>
<pdfrwt beam="2">  1       -2 0.20031168E-02 0.28790400E+03</pdfrwt>
<totfact> 0.94131591E+03</totfact>
</mgrwt>
</event>
<event>
 4    1  0.1777979E-004  0.2519697E+03  0.7818608E-02  0.1112066E+00
         -2   -1    0    0    0  501 -0.00000000000E+00  0.00000000000E+00  0.57011887154E+02  0.57011887154E+02  0.00000000000E+00 0. -1.
          2   -1    0    0  501    0  0.00000000000E+00 -0.00000000000E+00 -0.27840118427E+03  0.27840118427E+03  0.00000000000E+00 0. -1.
         25    1    1    2    0    0  0.22486515172E+02 -0.15191657538E+02 -0.14680203160E+03  0.19153920305E+03  0.12000000000E+03 0.  0.
         25    1    1    2    0    0 -0.22486515172E+02  0.15191657538E+02 -0.74587265514E+02  0.14387386837E+03  0.12000000000E+03 0.  0.
<mgrwt>
<rscale>  0 0.25196966E+03</rscale>
<asrwt>0</asrwt>
<pdfrwt beam="1">  1        2 0.42830952E-01 0.25196966E+03</pdfrwt>
<pdfrwt beam="2">  1       -2 0.87710593E-02 0.25196966E+03</pdfrwt>
<totfact> 0.95679571E+03</totfact>
</mgrwt>
</event>
<event>
 4    1  0.1777979E-004  0.2548784E+03  0.7818608E-02  0.1110260E+00
         -3   -1    0    0    0  501 -0.00000000000E+00  0.00000000000E+00  0.23410986922E+03  0.23410986922E+03  0.00000000000E+00 0.  1.
          3   -1    0    0  501    0  0.00000000000E+00 -0.00000000000E+00 -0.69372360003E+02  0.69372360003E+02  0.00000000000E+00 0.  1.
         25    1    1    2    0    0 -0.67321357793E+01 -0.22920249631E+02  0.39934340096E+02  0.12870668597E+03  0.12000000000E+03 0.  0.
         25    1    1    2    0    0  0.67321357793E+01  0.22920249631E+02  0.12480316912E+03  0.17477554325E+03  0.12000000000E+03 0.  0.
<mgrwt>
<rscale>  0 0.25487843E+03</rscale>
<asrwt>0</asrwt>
<pdfrwt beam="1">  1        3 0.10672671E-01 0.25487843E+03</pdfrwt>
<pdfrwt beam="2">  1       -3 0.36016902E-01 0.25487843E+03</pdfrwt>
<totfact> 0.12689113E+03</totfact>
</mgrwt>
</event>
<event>
 4    1  0.1777979E-004  0.2993715E+03  0.7818608E-02  0.1085555E+00
         -2   -1    0    0    0  501 -0.00000000000E+00  0.00000000000E+00  0.81835333977E+02  0.81835333977E+02  0.00000000000E+00 0. -1.
          2   -1    0    0  501    0  0.00000000000E+00 -0.00000000000E+00 -0.27379153315E+03  0.27379153315E+03  0.00000000000E+00 0. -1.
         25    1    1    2    0    0  0.29935538341E+02 -0.84305115072E+02 -0.97792407411E+02  0.17879273987E+03  0.12000000000E+03 0.  0.
         25    1    1    2    0    0 -0.29935538341E+02  0.84305115072E+02 -0.94163791757E+02  0.17683412725E+03  0.12000000000E+03 0.  0.
<mgrwt>
<rscale>  0 0.29937149E+03</rscale>
<asrwt>0</asrwt>
<pdfrwt beam="1">  1        2 0.42121774E-01 0.29937149E+03</pdfrwt>
<pdfrwt beam="2">  1       -2 0.12590052E-01 0.29937149E+03</pdfrwt>
<totfact> 0.55054615E+03</totfact>
</mgrwt>
</event>
<event>
 4    1  0.1777979E-004  0.2817564E+03  0.7818608E-02  0.1094733E+00
          2   -1    0    0  501    0  0.00000000000E+00  0.00000000000E+00  0.38066843710E+03  0.38066843710E+03  0.00000000000E+00 0. -1.
         -2   -1    0    0    0  501 -0.00000000000E+00 -0.00000000000E+00 -0.52136361875E+02  0.52136361875E+02  0.00000000000E+00 0. -1.
         25    1    1    2    0    0  0.66278586557E+02 -0.31885289672E+02  0.15490408467E+03  0.20929595834E+03  0.12000000000E+03 0.  0.
         25    1    1    2    0    0 -0.66278586557E+02  0.31885289672E+02  0.17362799056E+03  0.22350884063E+03  0.12000000000E+03 0.  0.
<mgrwt>
<rscale>  0 0.28175640E+03</rscale>
<asrwt>0</asrwt>
<pdfrwt beam="1">  1        2 0.58564373E-01 0.28175640E+03</pdfrwt>
<pdfrwt beam="2">  1       -2 0.80209790E-02 0.28175640E+03</pdfrwt>
<totfact> 0.78942784E+03</totfact>
</mgrwt>
</event>
<event>
 4    1  0.1777979E-004  0.3632429E+03  0.7818608E-02  0.1057307E+00
         -1   -1    0    0    0  501 -0.00000000000E+00  0.00000000000E+00  0.21637082524E+02  0.21637082524E+02  0.00000000000E+00 0.  1.
          1   -1    0    0  501    0  0.00000000000E+00 -0.00000000000E+00 -0.15245288581E+04  0.15245288581E+04  0.00000000000E+00 0.  1.
         25    1    1    2    0    0  0.11345018664E+03  0.18691154008E+02 -0.43963850434E+03  0.47000246657E+03  0.12000000000E+03 0.  0.
         25    1    1    2    0    0 -0.11345018664E+03 -0.18691154008E+02 -0.10632532712E+04  0.10761634740E+04  0.12000000000E+03 0.  0.
<mgrwt>
<rscale>  0 0.36324293E+03</rscale>
<asrwt>0</asrwt>
<pdfrwt beam="1">  1        1 0.23454295E+00 0.36324293E+03</pdfrwt>
<pdfrwt beam="2">  1       -1 0.33287813E-02 0.36324293E+03</pdfrwt>
<totfact> 0.22266980E+03</totfact>
</mgrwt>
</event>
<event>
 4    1  0.1777979E-004  0.2871803E+03  0.7818608E-02  0.1091831E+00
         -1   -1    0    0    0  501 -0.00000000000E+00  0.00000000000E+00  0.20883307971E+02  0.20883307971E+02  0.00000000000E+00 0. -1.
          1   -1    0    0  501    0  0.00000000000E+00 -0.00000000000E+00 -0.98730206497E+03  0.98730206497E+03  0.00000000000E+00 0. -1.
         25    1    1    2    0    0  0.62609682749E+02 -0.47939035792E+02 -0.48286618519E+03  0.50376371081E+03  0.12000000000E+03 0.  0.
         25    1    1    2    0    0 -0.62609682749E+02  0.47939035792E+02 -0.48355257181E+03  0.50442166214E+03  0.12000000000E+03 0.  0.
<mgrwt>
<rscale>  0 0.28718031E+03</rscale>
<asrwt>0</asrwt>
<pdfrwt beam="1">  1        1 0.15189258E+00 0.28718031E+03</pdfrwt>
<pdfrwt beam="2">  1       -1 0.32128175E-02 0.28718031E+03</pdfrwt>
<totfact> 0.55734415E+03</totfact>
</mgrwt>
</event>
<event>
 4    1  0.1777979E-004  0.2459959E+03  0.7818608E-02  0.1115862E+00
         -3   -1    0    0    0  501 -0.00000000000E+00  0.00000000000E+00  0.18325475064E+03  0.18325475064E+03  0.00000000000E+00 0. -1.
          3   -1    0    0  501    0  0.00000000000E+00 -0.00000000000E+00 -0.82554422073E+02  0.82554422073E+02  0.00000000000E+00 0. -1.
         25    1    1    2    0    0  0.11650329454E+02 -0.19521632256E+02  0.66070703915E+02  0.13886022547E+03  0.12000000000E+03 0.  0.
         25    1    1    2    0    0 -0.11650329454E+02  0.19521632256E+02  0.34629624653E+02  0.12694894724E+03  0.12000000000E+03 0.  0.
<mgrwt>
<rscale>  0 0.24599585E+03</rscale>
<asrwt>0</asrwt>
<pdfrwt beam="1">  1        3 0.12700680E-01 0.24599585E+03</pdfrwt>
<pdfrwt beam="2">  1       -3 0.28193039E-01 0.24599585E+03</pdfrwt>
<totfact> 0.14938387E+03</totfact>
</mgrwt>
</event>
<event>
 4    1  0.1777979E-004  0.2762815E+03  0.7818608E-02  0.1097737E+00
          1   -1    0    0  501    0  0.00000000000E+00  0.00000000000E+00  0.84079682129E+03  0.84079682129E+03  0.00000000000E+00 0. -1.
         -1   -1    0    0    0  501 -0.00000000000E+00 -0.00000000000E+00 -0.22696172229E+02  0.22696172229E+02  0.00000000000E+00 0. -1.
         25    1    1    2    0    0 -0.61561894027E+02  0.26957583103E+02  0.44935374027E+03  0.46993123112E+03  0.12000000000E+03 0.  0.
         25    1    1    2    0    0  0.61561894027E+02 -0.26957583103E+02  0.36874690879E+03  0.39356176240E+03  0.12000000000E+03 0.  0.
<mgrwt>
<rscale>  0 0.27628152E+03</rscale>
<asrwt>0</asrwt>
<pdfrwt beam="1">  1        1 0.12935333E+00 0.27628152E+03</pdfrwt>
<pdfrwt beam="2">  1       -1 0.34917195E-02 0.27628152E+03</pdfrwt>
<totfact> 0.64083906E+03</totfact>
</mgrwt>
</event>
<event>
 4    1  0.1777979E-004  0.3186864E+03  0.7818608E-02  0.1076255E+00
         -2   -1    0    0    0  501 -0.00000000000E+00  0.00000000000E+00  0.61987121555E+02  0.61987121555E+02  0.00000000000E+00 0.  1.
          2   -1    0    0  501    0  0.00000000000E+00 -0.00000000000E+00 -0.40960535181E+03  0.40960535181E+03  0.00000000000E+00 0.  1.
         25    1    1    2    0    0  0.44324824386E+02  0.34514810417E+02 -0.30478859785E+03  0.33234327370E+03  0.12000000000E+03 0.  0.
         25    1    1    2    0    0 -0.44324824386E+02 -0.34514810417E+02 -0.42829632404E+02  0.13924919966E+03  0.12000000000E+03 0.  0.
<mgrwt>
<rscale>  0 0.31868641E+03</rscale>
<asrwt>0</asrwt>
<pdfrwt beam="1">  1        2 0.63016207E-01 0.31868641E+03</pdfrwt>
<pdfrwt beam="2">  1       -2 0.95364804E-02 0.31868641E+03</pdfrwt>
<totfact> 0.55698589E+03</totfact>
</mgrwt>
</event>
<event>
 4    1  0.1777979E-004  0.2542160E+03  0.7818608E-02  0.1110669E+00
         -2   -1    0    0    0  501 -0.00000000000E+00  0.00000000000E+00  0.15744665632E+02  0.15744665632E+02  0.00000000000E+00 0. -1.
          2   -1    0    0  501    0  0.00000000000E+00 -0.00000000000E+00 -0.10261534072E+04  0.10261534072E+04  0.00000000000E+00 0. -1.
         25    1    1    2    0    0 -0.92496885575E+01 -0.12509498384E+02 -0.34571109227E+03  0.36627613027E+03  0.12000000000E+03 0.  0.
         25    1    1    2    0    0  0.92496885575E+01  0.12509498384E+02 -0.66469764933E+03  0.67562194259E+03  0.12000000000E+03 0.  0.
<mgrwt>
<rscale>  0 0.25421599E+03</rscale>
<asrwt>0</asrwt>
<pdfrwt beam="1">  1        2 0.15786976E+00 0.25421599E+03</pdfrwt>
<pdfrwt beam="2">  1       -2 0.24222561E-02 0.25421599E+03</pdfrwt>
<totfact> 0.14647196E+04</totfact>
</mgrwt>
</event>
<event>
 4    1  0.1777979E-004  0.2580818E+03  0.7818608E-02  0.1108301E+00
         -3   -1    0    0    0  501 -0.00000000000E+00  0.00000000000E+00  0.66158668899E+03  0.66158668899E+03  0.00000000000E+00 0.  1.
          3   -1    0    0  501    0  0.00000000000E+00 -0.00000000000E+00 -0.25169115722E+02  0.25169115722E+02  0.00000000000E+00 0.  1.
         25    1    1    2    0    0 -0.47001919074E+02 -0.38894392671E+01  0.30431953541E+03  0.33050671365E+03  0.12000000000E+03 0.  0.
         25    1    1    2    0    0  0.47001919074E+02  0.38894392671E+01  0.33209803786E+03  0.35624909106E+03  0.12000000000E+03 0.  0.
<mgrwt>
<rscale>  0 0.25808178E+03</rscale>
<asrwt>0</asrwt>
<pdfrwt beam="1">  1        3 0.38721722E-02 0.25808178E+03</pdfrwt>
<pdfrwt beam="2">  1       -3 0.10178255E+00 0.25808178E+03</pdfrwt>
<totfact> 0.74898902E+02</totfact>
</mgrwt>
</event>
<event>
 4    1  0.1777979E-004  0.2775695E+03  0.7818608E-02  0.1097024E+00
          2   -1    0    0  501    0  0.00000000000E+00  0.00000000000E+00  0.32792669688E+03  0.32792669688E+03  0.00000000000E+00 0. -1.
         -2   -1    0    0    0  501 -0.00000000000E+00 -0.00000000000E+00 -0.58736307228E+02  0.58736307228E+02  0.00000000000E+00 0. -1.
         25    1    1    2    0    0  0.66461213684E+02 -0.99297428491E+01  0.16048874165E+03  0.21135829511E+03  0.12000000000E+03 0.  0.
         25    1    1    2    0    0 -0.66461213684E+02  0.99297428491E+01  0.10870164800E+03  0.17530470900E+03  0.12000000000E+03 0.  0.
<mgrwt>
<rscale>  0 0.27756947E+03</rscale>
<asrwt>0</asrwt>
<pdfrwt beam="1">  1        2 0.50450260E-01 0.27756947E+03</pdfrwt>
<pdfrwt beam="2">  1       -2 0.90363552E-02 0.27756947E+03</pdfrwt>
<totfact> 0.76874817E+03</totfact>
</mgrwt>
</event>
<event>
 4    1  0.1777979E-004  0.2579569E+03  0.7818608E-02  0.1108377E+00
          2   -1    0    0  501    0  0.00000000000E+00  0.00000000000E+00  0.15649068058E+04  0.15649068058E+04  0.00000000000E+00 0.  1.
         -2   -1    0    0    0  501 -0.00000000000E+00 -0.00000000000E+00 -0.10630304572E+02  0.10630304572E+02  0.00000000000E+00 0.  1.
         25    1    1    2    0    0  0.22460138220E+02 -0.19714325946E+02  0.10009125197E+04  0.10085231700E+04  0.12000000000E+03 0.  0.
         25    1    1    2    0    0 -0.22460138220E+02  0.19714325946E+02  0.55336398154E+03  0.56701394033E+03  0.12000000000E+03 0.  0.
<mgrwt>
<rscale>  0 0.25795686E+03</rscale>
<asrwt>0</asrwt>
<pdfrwt beam="1">  1        2 0.24075471E+00 0.25795686E+03</pdfrwt>
<pdfrwt beam="2">  1       -2 0.16354327E-02 0.25795686E+03</pdfrwt>
<totfact> 0.13067008E+04</totfact>
</mgrwt>
</event>
<event>
 4    1  0.1777979E-004  0.3126976E+03  0.7818608E-02  0.1079060E+00
          1   -1    0    0  501    0  0.00000000000E+00  0.00000000000E+00  0.87948879856E+03  0.87948879856E+03  0.00000000000E+00 0.  1.
         -1   -1    0    0    0  501 -0.00000000000E+00 -0.00000000000E+00 -0.27794486995E+02  0.27794486995E+02  0.00000000000E+00 0.  1.
         25    1    1    2    0    0  0.37188811124E+02 -0.75284441119E+02  0.26708106243E+03  0.30460310021E+03  0.12000000000E+03 0.  0.
         25    1    1    2    0    0 -0.37188811124E+02  0.75284441119E+02  0.58461324914E+03  0.60268018535E+03  0.12000000000E+03 0.  0.
<mgrwt>
<rscale>  0 0.31269755E+03</rscale>
<asrwt>0</asrwt>
<pdfrwt beam="1">  1        1 0.13530595E+00 0.31269755E+03</pdfrwt>
<pdfrwt beam="2">  1       -1 0.42760756E-02 0.31269755E+03</pdfrwt>
<totfact> 0.44214908E+03</totfact>
</mgrwt>
</event>
<event>
 4    1  0.1777979E-004  0.2749180E+03  0.7818608E-02  0.1098497E+00
          2   -1    0    0  501    0  0.00000000000E+00  0.00000000000E+00  0.84237338666E+02  0.84237338666E+02  0.00000000000E+00 0. -1.
         -2   -1    0    0    0  501 -0.00000000000E+00 -0.00000000000E+00 -0.22430646433E+03  0.22430646433E+03  0.00000000000E+00 0. -1.
         25    1    1    2    0    0  0.28589741763E+02  0.45962005776E+02 -0.11443474020E+03  0.17442817740E+03  0.12000000000E+03 0.  0.
         25    1    1    2    0    0 -0.28589741763E+02 -0.45962005776E+02 -0.25634385467E+02  0.13411562559E+03  0.12000000000E+03 0.  0.
<mgrwt>
<rscale>  0 0.27491802E+03</rscale>
<asrwt>0</asrwt>
<pdfrwt beam="1">  1        2 0.12959591E-01 0.27491802E+03</pdfrwt>
<pdfrwt beam="2">  1       -2 0.34508686E-01 0.27491802E+03</pdfrwt>
<totfact> 0.36497669E+03</totfact>
</mgrwt>
</event>
<event>
 4    1  0.1777979E-004  0.2963358E+03  0.7818608E-02  0.1087087E+00
         -2   -1    0    0    0  501 -0.00000000000E+00  0.00000000000E+00  0.17970496725E+03  0.17970496725E+03  0.00000000000E+00 0.  1.
          2   -1    0    0  501    0  0.00000000000E+00 -0.00000000000E+00 -0.12216536633E+03  0.12216536633E+03  0.00000000000E+00 0.  1.
         25    1    1    2    0    0  0.84496789676E+02 -0.39735356083E+01  0.84414781776E+01  0.14706037877E+03  0.12000000000E+03 0.  0.
         25    1    1    2    0    0 -0.84496789676E+02  0.39735356083E+01  0.49098122739E+02  0.15480995481E+03  0.12000000000E+03 0.  0.
<mgrwt>
<rscale>  0 0.29633578E+03</rscale>
<asrwt>0</asrwt>
<pdfrwt beam="1">  1        2 0.18794672E-01 0.29633578E+03</pdfrwt>
<pdfrwt beam="2">  1       -2 0.27646918E-01 0.29633578E+03</pdfrwt>
<totfact> 0.35349029E+03</totfact>
</mgrwt>
</event>
<event>
 4    1  0.1777979E-004  0.2860111E+03  0.7818608E-02  0.1092450E+00
          1   -1    0    0  501    0  0.00000000000E+00  0.00000000000E+00  0.48581598021E+03  0.48581598021E+03  0.00000000000E+00 0.  1.
         -1   -1    0    0    0  501 -0.00000000000E+00 -0.00000000000E+00 -0.42095341365E+02  0.42095341365E+02  0.00000000000E+00 0.  1.
         25    1    1    2    0    0  0.22639673925E+02  0.54786299564E+02  0.31482011530E+03  0.34209033669E+03  0.12000000000E+03 0.  0.
         25    1    1    2    0    0 -0.22639673925E+02 -0.54786299564E+02  0.12890052354E+03  0.18582098489E+03  0.12000000000E+03 0.  0.
<mgrwt>
<rscale>  0 0.28601112E+03</rscale>
<asrwt>0</asrwt>
<pdfrwt beam="1">  1        1 0.74740916E-01 0.28601112E+03</pdfrwt>
<pdfrwt beam="2">  1       -1 0.64762067E-02 0.28601112E+03</pdfrwt>
<totfact> 0.55657048E+03</totfact>
</mgrwt>
</event>
<event>
 4    1  0.1777979E-004  0.3418708E+03  0.7818608E-02  0.1066002E+00
         -1   -1    0    0    0  501 -0.00000000000E+00  0.00000000000E+00  0.16703721828E+03  0.16703721828E+03  0.00000000000E+00 0. -1.
          1   -1    0    0  501    0  0.00000000000E+00 -0.00000000000E+00 -0.17492454326E+03  0.17492454326E+03  0.00000000000E+00 0. -1.
         25    1    1    2    0    0  0.90469498637E+02 -0.78435497857E+02  0.18017853653E+02  0.17047433988E+03  0.12000000000E+03 0.  0.
         25    1    1    2    0    0 -0.90469498637E+02  0.78435497857E+02 -0.25905178640E+02  0.17148742166E+03  0.12000000000E+03 0.  0.
<mgrwt>
<rscale>  0 0.34187079E+03</rscale>
<asrwt>0</asrwt>
<pdfrwt beam="1">  1        1 0.26911468E-01 0.34187079E+03</pdfrwt>
<pdfrwt beam="2">  1       -1 0.25698034E-01 0.34187079E+03</pdfrwt>
<totfact> 0.23202966E+03</totfact>
</mgrwt>
</event>
<event>
 4    1  0.1777979E-004  0.2611519E+03  0.7818608E-02  0.1106453E+00
         -2   -1    0    0    0  501 -0.00000000000E+00  0.00000000000E+00  0.52525965787E+02  0.52525965787E+02  0.00000000000E+00 0.  1.
          2   -1    0    0  501    0  0.00000000000E+00 -0.00000000000E+00 -0.32460291742E+03  0.32460291742E+03  0.00000000000E+00 0.  1.
         25    1    1    2    0    0 -0.32859135006E+02  0.38219930491E+02 -0.12092049778E+03  0.17765768383E+03  0.12000000000E+03 0.  0.
         25    1    1    2    0    0  0.32859135006E+02 -0.38219930491E+02 -0.15115645386E+03  0.19947119938E+03  0.12000000000E+03 0.  0.
<mgrwt>
<rscale>  0 0.26115192E+03</rscale>
<asrwt>0</asrwt>
<pdfrwt beam="1">  1        2 0.49938910E-01 0.26115192E+03</pdfrwt>
<pdfrwt beam="2">  1       -2 0.80809179E-02 0.26115192E+03</pdfrwt>
<totfact> 0.92391956E+03</totfact>
</mgrwt>
</event>
<event>
 4    1  0.1777979E-004  0.2532814E+03  0.7818608E-02  0.1111248E+00
          1   -1    0    0  501    0  0.00000000000E+00  0.00000000000E+00  0.20375782370E+03  0.20375782370E+03  0.00000000000E+00 0.  1.
         -1   -1    0    0    0  501 -0.00000000000E+00 -0.00000000000E+00 -0.78710415122E+02  0.78710415122E+02  0.00000000000E+00 0.  1.
         25    1    1    2    0    0 -0.31020769484E+02 -0.25303211487E+02  0.69151826029E+02  0.14416835885E+03  0.12000000000E+03 0.  0.
         25    1    1    2    0    0  0.31020769484E+02  0.25303211487E+02  0.55895582549E+02  0.13829987997E+03  0.12000000000E+03 0.  0.
<mgrwt>
<rscale>  0 0.25328137E+03</rscale>
<asrwt>0</asrwt>
<pdfrwt beam="1">  1        1 0.31347357E-01 0.25328137E+03</pdfrwt>
<pdfrwt beam="2">  1       -1 0.12109295E-01 0.25328137E+03</pdfrwt>
<totfact> 0.63889538E+03</totfact>
</mgrwt>
</event>
<event>
 4    1  0.1777979E-004  0.3076463E+03  0.7818608E-02  0.1081480E+00
         -2   -1    0    0    0  501 -0.00000000000E+00  0.00000000000E+00  0.14542412710E+02  0.14542412710E+02  0.00000000000E+00 0.  1.
          2   -1    0    0  501    0  0.00000000000E+00 -0.00000000000E+00 -0.16270721281E+04  0.16270721281E+04  0.00000000000E+00 0.  1.
         25    1    1    2    0    0  0.87589591375E+02  0.23856451579E+02 -0.97672522675E+03  0.98824755773E+03  0.12000000000E+03 0.  0.
         25    1    1    2    0    0 -0.87589591375E+02 -0.23856451579E+02 -0.63580448869E+03  0.65336698313E+03  0.12000000000E+03 0.  0.
<mgrwt>
<rscale>  0 0.30764625E+03</rscale>
<asrwt>0</asrwt>
<pdfrwt beam="1">  1        2 0.25031862E+00 0.30764625E+03</pdfrwt>
<pdfrwt beam="2">  1       -2 0.22372958E-02 0.30764625E+03</pdfrwt>
<totfact> 0.76612286E+03</totfact>
</mgrwt>
</event>
<event>
 4    1  0.1777979E-004  0.3181423E+03  0.7818608E-02  0.1076507E+00
          2   -1    0    0  501    0  0.00000000000E+00  0.00000000000E+00  0.74274737362E+03  0.74274737362E+03  0.00000000000E+00 0. -1.
         -2   -1    0    0    0  501 -0.00000000000E+00 -0.00000000000E+00 -0.34067620520E+02  0.34067620520E+02  0.00000000000E+00 0. -1.
         25    1    1    2    0    0 -0.28134933085E+02  0.59246595775E+02  0.15594489562E+03  0.20741394370E+03  0.12000000000E+03 0.  0.
         25    1    1    2    0    0  0.28134933085E+02 -0.59246595775E+02  0.55273485748E+03  0.56940105044E+03  0.12000000000E+03 0.  0.
<mgrwt>
<rscale>  0 0.31814233E+03</rscale>
<asrwt>0</asrwt>
<pdfrwt beam="1">  1        2 0.11426881E+00 0.31814233E+03</pdfrwt>
<pdfrwt beam="2">  1       -2 0.52411729E-02 0.31814233E+03</pdfrwt>
<totfact> 0.71150457E+03</totfact>
</mgrwt>
</event>
<event>
 4    1  0.1777979E-004  0.3655997E+03  0.7818608E-02  0.1056388E+00
         -2   -1    0    0    0  501 -0.00000000000E+00  0.00000000000E+00  0.51189118131E+03  0.51189118131E+03  0.00000000000E+00 0. -1.
          2   -1    0    0  501    0  0.00000000000E+00 -0.00000000000E+00 -0.65279091840E+02  0.65279091840E+02  0.00000000000E+00 0. -1.
         25    1    1    2    0    0  0.11680696317E+03 -0.16602730349E+02  0.11060589992E+03  0.20137820735E+03  0.12000000000E+03 0.  0.
         25    1    1    2    0    0 -0.11680696317E+03  0.16602730349E+02  0.33600618955E+03  0.37579206580E+03  0.12000000000E+03 0.  0.
<mgrwt>
<rscale>  0 0.36559973E+03</rscale>
<asrwt>0</asrwt>
<pdfrwt beam="1">  1        2 0.10042938E-01 0.36559973E+03</pdfrwt>
<pdfrwt beam="2">  1       -2 0.78752487E-01 0.36559973E+03</pdfrwt>
<totfact> 0.94564440E+02</totfact>
</mgrwt>
</event>
<event>
 4    1  0.1777979E-004  0.2660333E+03  0.7818608E-02  0.1103572E+00
          2   -1    0    0  501    0  0.00000000000E+00  0.00000000000E+00  0.93186535605E+03  0.93186535605E+03  0.00000000000E+00 0. -1.
         -2   -1    0    0    0  501 -0.00000000000E+00 -0.00000000000E+00 -0.18987111116E+02  0.18987111116E+02  0.00000000000E+00 0. -1.
         25    1    1    2    0    0  0.44619600821E+02 -0.32822367973E+02  0.51007745059E+03  0.52692240625E+03  0.12000000000E+03 0.  0.
         25    1    1    2    0    0 -0.44619600821E+02  0.32822367973E+02  0.40280079435E+03  0.42393006091E+03  0.12000000000E+03 0.  0.
<mgrwt>
<rscale>  0 0.26603331E+03</rscale>
<asrwt>0</asrwt>
<pdfrwt beam="1">  1        2 0.14336387E+00 0.26603331E+03</pdfrwt>
<pdfrwt beam="2">  1       -2 0.29210947E-02 0.26603331E+03</pdfrwt>
<totfact> 0.12715087E+04</totfact>
</mgrwt>
</event>
<event>
 4    1  0.1777979E-004  0.2483053E+03  0.7818608E-02  0.1114381E+00
         -2   -1    0    0    0  501 -0.00000000000E+00  0.00000000000E+00  0.37180684339E+03  0.37180684339E+03  0.00000000000E+00 0. -1.
          2   -1    0    0  501    0  0.00000000000E+00 -0.00000000000E+00 -0.41456674465E+02  0.41456674465E+02  0.00000000000E+00 0. -1.
         25    1    1    2    0    0  0.15538888674E+02  0.25861201705E+02  0.18211672717E+03  0.22017438800E+03  0.12000000000E+03 0.  0.
         25    1    1    2    0    0 -0.15538888674E+02 -0.25861201705E+02  0.14823344176E+03  0.19308912986E+03  0.12000000000E+03 0.  0.
<mgrwt>
<rscale>  0 0.24830526E+03</rscale>
<asrwt>0</asrwt>
<pdfrwt beam="1">  1        2 0.63779502E-02 0.24830526E+03</pdfrwt>
<pdfrwt beam="2">  1       -2 0.57201051E-01 0.24830526E+03</pdfrwt>
<totfact> 0.33006513E+03</totfact>
</mgrwt>
</event>
<event>
 4    1  0.1777979E-004  0.3625234E+03  0.7818608E-02  0.1057589E+00
          2   -1    0    0  501    0  0.00000000000E+00  0.00000000000E+00  0.26181019891E+04  0.26181019891E+04  0.00000000000E+00 0. -1.
         -2   -1    0    0    0  501 -0.00000000000E+00 -0.00000000000E+00 -0.12549473480E+02  0.12549473480E+02  0.00000000000E+00 0. -1.
         25    1    1    2    0    0  0.68590124399E+02 -0.99063673266E+02  0.17581230188E+04  0.17663280459E+04  0.12000000000E+03 0.  0.
         25    1    1    2    0    0 -0.68590124399E+02  0.99063673266E+02  0.84742949683E+03  0.86432341668E+03  0.12000000000E+03 0.  0.
<mgrwt>
<rscale>  0 0.36252339E+03</rscale>
<asrwt>0</asrwt>
<pdfrwt beam="1">  1        2 0.40278449E+00 0.36252339E+03</pdfrwt>
<pdfrwt beam="2">  1       -2 0.19306903E-02 0.36252339E+03</pdfrwt>
<totfact> 0.27912150E+03</totfact>
</mgrwt>
</event>
<event>
 4    1  0.1777979E-004  0.2442269E+03  0.7818608E-02  0.1117009E+00
         -1   -1    0    0    0  501 -0.00000000000E+00  0.00000000000E+00  0.46046259225E+02  0.46046259225E+02  0.00000000000E+00 0. -1.
          1   -1    0    0  501    0  0.00000000000E+00 -0.00000000000E+00 -0.32384154922E+03  0.32384154922E+03  0.00000000000E+00 0. -1.
         25    1    1    2    0    0  0.11623734887E+02 -0.16179621473E+02 -0.12267025914E+03  0.17275671866E+03  0.12000000000E+03 0.  0.
         25    1    1    2    0    0 -0.11623734887E+02  0.16179621473E+02 -0.15512503085E+03  0.19713108979E+03  0.12000000000E+03 0.  0.
<mgrwt>
<rscale>  0 0.24422688E+03</rscale>
<asrwt>0</asrwt>
<pdfrwt beam="1">  1        1 0.49821776E-01 0.24422688E+03</pdfrwt>
<pdfrwt beam="2">  1       -1 0.70840400E-02 0.24422688E+03</pdfrwt>
<totfact> 0.81329571E+03</totfact>
</mgrwt>
</event>
<event>
 4    1  0.1777979E-004  0.2422624E+03  0.7818608E-02  0.1118295E+00
         -1   -1    0    0    0  501 -0.00000000000E+00  0.00000000000E+00  0.31006918224E+02  0.31006918224E+02  0.00000000000E+00 0. -1.
          1   -1    0    0  501    0  0.00000000000E+00 -0.00000000000E+00 -0.47320937759E+03  0.47320937759E+03  0.00000000000E+00 0. -1.
         25    1    1    2    0    0  0.13800896474E+02 -0.85464389294E+01 -0.21476848297E+03  0.24655426915E+03  0.12000000000E+03 0.  0.
         25    1    1    2    0    0 -0.13800896474E+02  0.85464389294E+01 -0.22743397640E+03  0.25766202666E+03  0.12000000000E+03 0.  0.
<mgrwt>
<rscale>  0 0.24226237E+03</rscale>
<asrwt>0</asrwt>
<pdfrwt beam="1">  1        1 0.72801435E-01 0.24226237E+03</pdfrwt>
<pdfrwt beam="2">  1       -1 0.47702956E-02 0.24226237E+03</pdfrwt>
<totfact> 0.90697988E+03</totfact>
</mgrwt>
</event>
<event>
 4    1  0.1777979E-004  0.2779657E+03  0.7818608E-02  0.1096805E+00
          2   -1    0    0  501    0  0.00000000000E+00  0.00000000000E+00  0.17128175608E+04  0.17128175608E+04  0.00000000000E+00 0. -1.
         -2   -1    0    0    0  501 -0.00000000000E+00 -0.00000000000E+00 -0.11277459430E+02  0.11277459430E+02  0.00000000000E+00 0. -1.
         25    1    1    2    0    0 -0.52454910263E+02 -0.10747906406E+02  0.56999293840E+03  0.58494357414E+03  0.12000000000E+03 0.  0.
         25    1    1    2    0    0  0.52454910263E+02  0.10747906406E+02  0.11315471630E+04  0.11391514461E+04  0.12000000000E+03 0.  0.
<mgrwt>
<rscale>  0 0.27796569E+03</rscale>
<asrwt>0</asrwt>
<pdfrwt beam="1">  1        2 0.26351019E+00 0.27796569E+03</pdfrwt>
<pdfrwt beam="2">  1       -2 0.17349951E-02 0.27796569E+03</pdfrwt>
<totfact> 0.10026011E+04</totfact>
</mgrwt>
</event>
<event>
 4    1  0.1777979E-004  0.4505509E+03  0.7818608E-02  0.1027558E+00
         -2   -1    0    0    0  501 -0.00000000000E+00  0.00000000000E+00  0.19467563611E+02  0.19467563611E+02  0.00000000000E+00 0.  1.
          2   -1    0    0  501    0  0.00000000000E+00 -0.00000000000E+00 -0.26068500931E+04  0.26068500931E+04  0.00000000000E+00 0.  1.
         25    1    1    2    0    0 -0.50390888070E+02  0.29927525251E+02 -0.23512258093E+04  0.23550154362E+04  0.12000000000E+03 0.  0.
         25    1    1    2    0    0  0.50390888070E+02 -0.29927525251E+02 -0.23615672016E+03  0.27130222049E+03  0.12000000000E+03 0.  0.
<mgrwt>
<rscale>  0 0.45055086E+03</rscale>
<asrwt>0</asrwt>
<pdfrwt beam="1">  1        2 0.40105356E+00 0.45055086E+03</pdfrwt>
<pdfrwt beam="2">  1       -2 0.29950120E-02 0.45055086E+03</pdfrwt>
<totfact> 0.14582108E+03</totfact>
</mgrwt>
</event>
<event>
 4    1  0.1777979E-004  0.2859649E+03  0.7818608E-02  0.1092475E+00
          2   -1    0    0  501    0  0.00000000000E+00  0.00000000000E+00  0.20331392634E+04  0.20331392634E+04  0.00000000000E+00 0.  1.
         -2   -1    0    0    0  501 -0.00000000000E+00 -0.00000000000E+00 -0.10055375474E+02  0.10055375474E+02  0.00000000000E+00 0.  1.
         25    1    1    2    0    0  0.20170533713E+02 -0.75074322083E+02  0.10044890098E+04  0.10146138059E+04  0.12000000000E+03 0.  0.
         25    1    1    2    0    0 -0.20170533713E+02  0.75074322083E+02  0.10185948781E+04  0.10285808330E+04  0.12000000000E+03 0.  0.
<mgrwt>
<rscale>  0 0.28596488E+03</rscale>
<asrwt>0</asrwt>
<pdfrwt beam="1">  1        2 0.31279033E+00 0.28596488E+03</pdfrwt>
<pdfrwt beam="2">  1       -2 0.15469825E-02 0.28596488E+03</pdfrwt>
<totfact> 0.80507435E+03</totfact>
</mgrwt>
</event>
<event>
 4    1  0.1777979E-004  0.2498032E+03  0.7818608E-02  0.1113429E+00
          2   -1    0    0  501    0  0.00000000000E+00  0.00000000000E+00  0.92235038952E+03  0.92235038952E+03  0.00000000000E+00 0.  1.
         -2   -1    0    0    0  501 -0.00000000000E+00 -0.00000000000E+00 -0.16913751961E+02  0.16913751961E+02  0.00000000000E+00 0.  1.
         25    1    1    2    0    0 -0.31925425587E+02 -0.54339915643E+01  0.40641593599E+03  0.42499726362E+03  0.12000000000E+03 0.  0.
         25    1    1    2    0    0  0.31925425587E+02  0.54339915643E+01  0.49902070157E+03  0.51426687785E+03  0.12000000000E+03 0.  0.
<mgrwt>
<rscale>  0 0.24980317E+03</rscale>
<asrwt>0</asrwt>
<pdfrwt beam="1">  1        2 0.14190002E+00 0.24980317E+03</pdfrwt>
<pdfrwt beam="2">  1       -2 0.26021164E-02 0.24980317E+03</pdfrwt>
<totfact> 0.15266127E+04</totfact>
</mgrwt>
</event>
<event>
 4    1  0.1777979E-004  0.3971423E+03  0.7818608E-02  0.1044774E+00
         -1   -1    0    0    0  501 -0.00000000000E+00  0.00000000000E+00  0.48479335074E+02  0.48479335074E+02  0.00000000000E+00 0.  1.
          1   -1    0    0  501    0  0.00000000000E+00 -0.00000000000E+00 -0.81334654081E+03  0.81334654081E+03  0.00000000000E+00 0.  1.
         25    1    1    2    0    0  0.99584850963E+02 -0.12194971479E+03 -0.34870149864E+03  0.40097582300E+03  0.12000000000E+03 0.  0.
         25    1    1    2    0    0 -0.99584850963E+02  0.12194971479E+03 -0.41616570710E+03  0.46085005288E+03  0.12000000000E+03 0.  0.
<mgrwt>
<rscale>  0 0.39714229E+03</rscale>
<asrwt>0</asrwt>
<pdfrwt beam="1">  1        1 0.12513024E+00 0.39714229E+03</pdfrwt>
<pdfrwt beam="2">  1       -1 0.74583590E-02 0.39714229E+03</pdfrwt>
<totfact> 0.21586907E+03</totfact>
</mgrwt>
</event>
<event>
 4    1  0.1777979E-004  0.2882890E+03  0.7818608E-02  0.1091246E+00
          3   -1    0    0  501    0  0.00000000000E+00  0.00000000000E+00  0.14245035552E+02  0.14245035552E+02  0.00000000000E+00 0. -1.
         -3   -1    0    0    0  501 -0.00000000000E+00 -0.00000000000E+00 -0.14585882270E+04  0.14585882270E+04  0.00000000000E+00 0. -1.
         25    1    1    2    0    0  0.14985152148E+02 -0.32389319771E+02 -0.35718107949E+03  0.37848638862E+03  0.12000000000E+03 0.  0.
         25    1    1    2    0    0 -0.14985152148E+02  0.32389319771E+02 -0.10871621120E+04  0.10943468740E+04  0.12000000000E+03 0.  0.
<mgrwt>
<rscale>  0 0.28828903E+03</rscale>
<asrwt>0</asrwt>
<pdfrwt beam="1">  1        3 0.21915454E-02 0.28828903E+03</pdfrwt>
<pdfrwt beam="2">  1       -3 0.22439803E+00 0.28828903E+03</pdfrwt>
<totfact> 0.24027252E+02</totfact>
</mgrwt>
</event>
<event>
 4    1  0.1777979E-004  0.3412497E+03  0.7818608E-02  0.1066265E+00
         -2   -1    0    0    0  501 -0.00000000000E+00  0.00000000000E+00  0.10787726524E+03  0.10787726524E+03  0.00000000000E+00 0. -1.
          2   -1    0    0  501    0  0.00000000000E+00 -0.00000000000E+00 -0.26987002737E+03  0.26987002737E+03  0.00000000000E+00 0. -1.
         25    1    1    2    0    0  0.77406109770E+02  0.43944246047E+02  0.10218390378E+02  0.14975719713E+03  0.12000000000E+03 0.  0.
         25    1    1    2    0    0 -0.77406109770E+02 -0.43944246047E+02 -0.17221115250E+03  0.22799009548E+03  0.12000000000E+03 0.  0.
<mgrwt>
<rscale>  0 0.34124971E+03</rscale>
<asrwt>0</asrwt>
<pdfrwt beam="1">  1        2 0.41518465E-01 0.34124971E+03</pdfrwt>
<pdfrwt beam="2">  1       -2 0.16596503E-01 0.34124971E+03</pdfrwt>
<totfact> 0.35550144E+03</totfact>
</mgrwt>
</event>
<event>
 4    1  0.1777979E-004  0.2412081E+03  0.7818608E-02  0.1118991E+00
         -2   -1    0    0    0  501 -0.00000000000E+00  0.00000000000E+00  0.10501400058E+03  0.10501400058E+03  0.00000000000E+00 0. -1.
          2   -1    0    0  501    0  0.00000000000E+00 -0.00000000000E+00 -0.13850852759E+03  0.13850852759E+03  0.00000000000E+00 0. -1.
         25    1    1    2    0    0  0.49103136449E+01 -0.86669773709E+00 -0.56659612143E+01  0.12023712181E+03  0.12000000000E+03 0.  0.
         25    1    1    2    0    0 -0.49103136449E+01  0.86669773709E+00 -0.27828565796E+02  0.12328540635E+03  0.12000000000E+03 0.  0.
<mgrwt>
<rscale>  0 0.24120808E+03</rscale>
<asrwt>0</asrwt>
<pdfrwt beam="1">  1        2 0.21309004E-01 0.24120808E+03</pdfrwt>
<pdfrwt beam="2">  1       -2 0.16156000E-01 0.24120808E+03</pdfrwt>
<totfact> 0.76740154E+03</totfact>
</mgrwt>
</event>
<event>
 4    1  0.1777979E-004  0.2701799E+03  0.7818608E-02  0.1101177E+00
          3   -1    0    0  501    0  0.00000000000E+00  0.00000000000E+00  0.42082002154E+02  0.42082002154E+02  0.00000000000E+00 0. -1.
         -3   -1    0    0    0  501 -0.00000000000E+00 -0.00000000000E+00 -0.43366029128E+03  0.43366029128E+03  0.00000000000E+00 0. -1.
         25    1    1    2    0    0  0.49417180927E+02  0.26239804531E+02 -0.14858337956E+03  0.19901659678E+03  0.12000000000E+03 0.  0.
         25    1    1    2    0    0 -0.49417180927E+02 -0.26239804531E+02 -0.24299490957E+03  0.27672569666E+03  0.12000000000E+03 0.  0.
<mgrwt>
<rscale>  0 0.27017989E+03</rscale>
<asrwt>0</asrwt>
<pdfrwt beam="1">  1        3 0.64741540E-02 0.27017989E+03</pdfrwt>
<pdfrwt beam="2">  1       -3 0.66716970E-01 0.27017989E+03</pdfrwt>
<totfact> 0.84157642E+02</totfact>
</mgrwt>
</event>
<event>
 4    1  0.1777979E-004  0.3793600E+03  0.7818608E-02  0.1051171E+00
         -2   -1    0    0    0  501 -0.00000000000E+00  0.00000000000E+00  0.34026536824E+02  0.34026536824E+02  0.00000000000E+00 0.  1.
          2   -1    0    0  501    0  0.00000000000E+00 -0.00000000000E+00 -0.10573657690E+04  0.10573657690E+04  0.00000000000E+00 0.  1.
         25    1    1    2    0    0 -0.46530876595E+02  0.13237780320E+03 -0.38661443338E+03  0.42843870665E+03  0.12000000000E+03 0.  0.
         25    1    1    2    0    0  0.46530876595E+02 -0.13237780320E+03 -0.63672479878E+03  0.66295359916E+03  0.12000000000E+03 0.  0.
<mgrwt>
<rscale>  0 0.37935996E+03</rscale>
<asrwt>0</asrwt>
<pdfrwt beam="1">  1        2 0.16267163E+00 0.37935996E+03</pdfrwt>
<pdfrwt beam="2">  1       -2 0.52348528E-02 0.37935996E+03</pdfrwt>
<totfact> 0.44404611E+03</totfact>
</mgrwt>
</event>
<event>
 4    1  0.1777979E-004  0.3456868E+03  0.7818608E-02  0.1064399E+00
          1   -1    0    0  501    0  0.00000000000E+00  0.00000000000E+00  0.13560042051E+03  0.13560042051E+03  0.00000000000E+00 0.  1.
         -1   -1    0    0    0  501 -0.00000000000E+00 -0.00000000000E+00 -0.22031519605E+03  0.22031519605E+03  0.00000000000E+00 0.  1.
         25    1    1    2    0    0  0.11231267809E+02  0.11807001054E+03 -0.80993284256E+02  0.18715389619E+03  0.12000000000E+03 0.  0.
         25    1    1    2    0    0 -0.11231267809E+02 -0.11807001054E+03 -0.37214912783E+01  0.16876172037E+03  0.12000000000E+03 0.  0.
<mgrwt>
<rscale>  0 0.34568676E+03</rscale>
<asrwt>0</asrwt>
<pdfrwt beam="1">  1        1 0.20861603E-01 0.34568676E+03</pdfrwt>
<pdfrwt beam="2">  1       -1 0.33894645E-01 0.34568676E+03</pdfrwt>
<totfact> 0.20062739E+03</totfact>
</mgrwt>
</event>
<event>
 4    1  0.1777979E-004  0.2942083E+03  0.7818608E-02  0.1088172E+00
          3   -1    0    0  501    0  0.00000000000E+00  0.00000000000E+00  0.26602213049E+02  0.26602213049E+02  0.00000000000E+00 0. -1.
         -3   -1    0    0    0  501 -0.00000000000E+00 -0.00000000000E+00 -0.81345255608E+03  0.81345255608E+03  0.00000000000E+00 0. -1.
         25    1    1    2    0    0 -0.32356327824E+02 -0.27770506816E+02 -0.18318652702E+03  0.22310409382E+03  0.12000000000E+03 0.  0.
         25    1    1    2    0    0  0.32356327824E+02  0.27770506816E+02 -0.60366381602E+03  0.61695067531E+03  0.12000000000E+03 0.  0.
<mgrwt>
<rscale>  0 0.29420835E+03</rscale>
<asrwt>0</asrwt>
<pdfrwt beam="1">  1        3 0.40926479E-02 0.29420835E+03</pdfrwt>
<pdfrwt beam="2">  1       -3 0.12514656E+00 0.29420835E+03</pdfrwt>
<totfact> 0.42670061E+02</totfact>
</mgrwt>
</event>
<event>
 4    1  0.1777979E-004  0.3532072E+03  0.7818608E-02  0.1061306E+00
         -4   -1    0    0    0  501 -0.00000000000E+00  0.00000000000E+00  0.72812760538E+03  0.72812760538E+03  0.00000000000E+00 0. -1.
          4   -1    0    0  501    0  0.00000000000E+00 -0.00000000000E+00 -0.42834299785E+02  0.42834299785E+02  0.00000000000E+00 0. -1.
         25    1    1    2    0    0 -0.60928231492E+02 -0.38218427321E+02  0.10739618689E+03  0.17637130872E+03  0.12000000000E+03 0.  0.
         25    1    1    2    0    0  0.60928231492E+02  0.38218427321E+02  0.57789711870E+03  0.59459059645E+03  0.12000000000E+03 0.  0.
<mgrwt>
<rscale>  0 0.35320723E+03</rscale>
<asrwt>0</asrwt>
<pdfrwt beam="1">  1        4 0.65898928E-02 0.35320723E+03</pdfrwt>
<pdfrwt beam="2">  1       -4 0.11201962E+00 0.35320723E+03</pdfrwt>
<totfact> 0.19048792E+02</totfact>
</mgrwt>
</event>
<event>
 4    1  0.1777979E-004  0.2674691E+03  0.7818608E-02  0.1102737E+00
         -2   -1    0    0    0  501 -0.00000000000E+00  0.00000000000E+00  0.48863974739E+02  0.48863974739E+02  0.00000000000E+00 0. -1.
          2   -1    0    0  501    0  0.00000000000E+00 -0.00000000000E+00 -0.36601476924E+03  0.36601476924E+03  0.00000000000E+00 0. -1.
         25    1    1    2    0    0  0.24210022990E+02  0.35534126554E+02 -0.22131724889E+03  0.25540188726E+03  0.12000000000E+03 0.  0.
         25    1    1    2    0    0 -0.24210022990E+02 -0.35534126554E+02 -0.95833545616E+02  0.15947685672E+03  0.12000000000E+03 0.  0.
<mgrwt>
<rscale>  0 0.26746915E+03</rscale>
<asrwt>0</asrwt>
<pdfrwt beam="1">  1        2 0.56309962E-01 0.26746915E+03</pdfrwt>
<pdfrwt beam="2">  1       -2 0.75175349E-02 0.26746915E+03</pdfrwt>
<totfact> 0.90944281E+03</totfact>
</mgrwt>
</event>
<event>
 4    1  0.1777979E-004  0.2477476E+03  0.7818608E-02  0.1114737E+00
          1   -1    0    0  501    0  0.00000000000E+00  0.00000000000E+00  0.49012438447E+03  0.49012438447E+03  0.00000000000E+00 0.  1.
         -1   -1    0    0    0  501 -0.00000000000E+00 -0.00000000000E+00 -0.31307804882E+02  0.31307804882E+02  0.00000000000E+00 0.  1.
         25    1    1    2    0    0 -0.58373815770E+01  0.19233574874E+02  0.18046740101E+03  0.21765221858E+03  0.12000000000E+03 0.  0.
         25    1    1    2    0    0  0.58373815770E+01 -0.19233574874E+02  0.27834917858E+03  0.30377997077E+03  0.12000000000E+03 0.  0.
<mgrwt>
<rscale>  0 0.24774760E+03</rscale>
<asrwt>0</asrwt>
<pdfrwt beam="1">  1        1 0.75403746E-01 0.24774760E+03</pdfrwt>
<pdfrwt beam="2">  1       -1 0.48165857E-02 0.24774760E+03</pdfrwt>
<totfact> 0.85443479E+03</totfact>
</mgrwt>
</event>
<event>
 4    1  0.1777979E-004  0.2797494E+03  0.7818608E-02  0.1095826E+00
          2   -1    0    0  501    0  0.00000000000E+00  0.00000000000E+00  0.66326490445E+02  0.66326490445E+02  0.00000000000E+00 0. -1.
         -2   -1    0    0    0  501 -0.00000000000E+00 -0.00000000000E+00 -0.29497924159E+03  0.29497924159E+03  0.00000000000E+00 0. -1.
         25    1    1    2    0    0 -0.29638109946E+02 -0.53136110200E+02 -0.16372772110E+03  0.21191656477E+03  0.12000000000E+03 0.  0.
         25    1    1    2    0    0  0.29638109946E+02  0.53136110200E+02 -0.64925030041E+02  0.14938916726E+03  0.12000000000E+03 0.  0.
<mgrwt>
<rscale>  0 0.27974944E+03</rscale>
<asrwt>0</asrwt>
<pdfrwt beam="1">  1        2 0.10204075E-01 0.27974944E+03</pdfrwt>
<pdfrwt beam="2">  1       -2 0.45381422E-01 0.27974944E+03</pdfrwt>
<totfact> 0.29017156E+03</totfact>
</mgrwt>
</event>
<event>
 4    1  0.1777979E-004  0.4024056E+03  0.7818608E-02  0.1042950E+00
         -2   -1    0    0    0  501 -0.00000000000E+00  0.00000000000E+00  0.11976918248E+03  0.11976918248E+03  0.00000000000E+00 0.  1.
          2   -1    0    0  501    0  0.00000000000E+00 -0.00000000000E+00 -0.33800480896E+03  0.33800480896E+03  0.00000000000E+00 0.  1.
         25    1    1    2    0    0 -0.59399804667E+02  0.79801000181E+02  0.35611738207E+02  0.15988975052E+03  0.12000000000E+03 0.  0.
         25    1    1    2    0    0  0.59399804667E+02 -0.79801000181E+02 -0.25384736469E+03  0.29788424091E+03  0.12000000000E+03 0.  0.
<mgrwt>
<rscale>  0 0.40240556E+03</rscale>
<asrwt>0</asrwt>
<pdfrwt beam="1">  1        2 0.52000739E-01 0.40240556E+03</pdfrwt>
<pdfrwt beam="2">  1       -2 0.18426028E-01 0.40240556E+03</pdfrwt>
<totfact> 0.23378435E+03</totfact>
</mgrwt>
</event>
<event>
 4    1  0.1777979E-004  0.2584350E+03  0.7818608E-02  0.1108087E+00
         -2   -1    0    0    0  501 -0.00000000000E+00  0.00000000000E+00  0.10041356799E+02  0.10041356799E+02  0.00000000000E+00 0.  1.
          2   -1    0    0  501    0  0.00000000000E+00 -0.00000000000E+00 -0.16628394699E+04  0.16628394699E+04  0.00000000000E+00 0.  1.
         25    1    1    2    0    0 -0.94646381400E+01  0.32001545236E+02 -0.60371186670E+03  0.61642655383E+03  0.12000000000E+03 0.  0.
         25    1    1    2    0    0  0.94646381400E+01 -0.32001545236E+02 -0.10490862464E+04  0.10564542728E+04  0.12000000000E+03 0.  0.
<mgrwt>
<rscale>  0 0.25843502E+03</rscale>
<asrwt>0</asrwt>
<pdfrwt beam="1">  1        2 0.25582153E+00 0.25843502E+03</pdfrwt>
<pdfrwt beam="2">  1       -2 0.15448237E-02 0.25843502E+03</pdfrwt>
<totfact> 0.12608210E+04</totfact>
</mgrwt>
</event>
<event>
 4    1  0.1777979E-004  0.2546528E+03  0.7818608E-02  0.1110399E+00
         -2   -1    0    0    0  501 -0.00000000000E+00  0.00000000000E+00  0.19267902078E+02  0.19267902078E+02  0.00000000000E+00 0.  1.
          2   -1    0    0  501    0  0.00000000000E+00 -0.00000000000E+00 -0.84139977861E+03  0.84139977861E+03  0.00000000000E+00 0.  1.
         25    1    1    2    0    0 -0.40425066135E+02 -0.99690626184E+01 -0.38113248101E+03  0.40174063308E+03  0.12000000000E+03 0.  0.
         25    1    1    2    0    0  0.40425066135E+02  0.99690626184E+01 -0.44099939552E+03  0.45892704761E+03  0.12000000000E+03 0.  0.
<mgrwt>
<rscale>  0 0.25465277E+03</rscale>
<asrwt>0</asrwt>
<pdfrwt beam="1">  1        2 0.12944611E+00 0.25465277E+03</pdfrwt>
<pdfrwt beam="2">  1       -2 0.29642928E-02 0.25465277E+03</pdfrwt>
<totfact> 0.14221933E+04</totfact>
</mgrwt>
</event>
<event>
 4    1  0.1777979E-004  0.2543109E+03  0.7818608E-02  0.1110610E+00
          1   -1    0    0  501    0  0.00000000000E+00  0.00000000000E+00  0.47338689393E+03  0.47338689393E+03  0.00000000000E+00 0.  1.
         -1   -1    0    0    0  501 -0.00000000000E+00 -0.00000000000E+00 -0.34154966182E+02  0.34154966182E+02  0.00000000000E+00 0.  1.
         25    1    1    2    0    0  0.72753660055E+01 -0.41197506207E+02  0.21106726870E+03  0.24637280164E+03  0.12000000000E+03 0.  0.
         25    1    1    2    0    0 -0.72753660055E+01  0.41197506207E+02  0.22816465904E+03  0.26116905847E+03  0.12000000000E+03 0.  0.
<mgrwt>
<rscale>  0 0.25431094E+03</rscale>
<asrwt>0</asrwt>
<pdfrwt beam="1">  1        1 0.72828748E-01 0.25431094E+03</pdfrwt>
<pdfrwt beam="2">  1       -1 0.52546106E-02 0.25431094E+03</pdfrwt>
<totfact> 0.78601838E+03</totfact>
</mgrwt>
</event>
<event>
 4    1  0.1777979E-004  0.2522982E+03  0.7818608E-02  0.1111861E+00
          1   -1    0    0  501    0  0.00000000000E+00  0.00000000000E+00  0.13107734846E+04  0.13107734846E+04  0.00000000000E+00 0.  1.
         -1   -1    0    0    0  501 -0.00000000000E+00 -0.00000000000E+00 -0.12140616750E+02  0.12140616750E+02  0.00000000000E+00 0.  1.
         25    1    1    2    0    0  0.33131739202E+02 -0.31320903607E+01  0.54365382695E+03  0.55773381257E+03  0.12000000000E+03 0.  0.
         25    1    1    2    0    0 -0.33131739202E+02  0.31320903607E+01  0.75497904093E+03  0.76518028881E+03  0.12000000000E+03 0.  0.
<mgrwt>
<rscale>  0 0.25229822E+03</rscale>
<asrwt>0</asrwt>
<pdfrwt beam="1">  1        1 0.20165735E+00 0.25229822E+03</pdfrwt>
<pdfrwt beam="2">  1       -1 0.18677882E-02 0.25229822E+03</pdfrwt>
<totfact> 0.72545450E+03</totfact>
</mgrwt>
</event>
<event>
 4    1  0.1777979E-004  0.2683123E+03  0.7818608E-02  0.1102249E+00
          1   -1    0    0  501    0  0.00000000000E+00  0.00000000000E+00  0.32047377187E+03  0.32047377187E+03  0.00000000000E+00 0. -1.
         -1   -1    0    0    0  501 -0.00000000000E+00 -0.00000000000E+00 -0.56160220516E+02  0.56160220516E+02  0.00000000000E+00 0. -1.
         25    1    1    2    0    0  0.57688279001E+02 -0.65622917276E+01  0.11101343447E+03  0.17347905879E+03  0.12000000000E+03 0.  0.
         25    1    1    2    0    0 -0.57688279001E+02  0.65622917276E+01  0.15330011689E+03  0.20315493360E+03  0.12000000000E+03 0.  0.
<mgrwt>
<rscale>  0 0.26831234E+03</rscale>
<asrwt>0</asrwt>
<pdfrwt beam="1">  1        1 0.49303656E-01 0.26831234E+03</pdfrwt>
<pdfrwt beam="2">  1       -1 0.86400341E-02 0.26831234E+03</pdfrwt>
<totfact> 0.61113238E+03</totfact>
</mgrwt>
</event>
<event>
 4    1  0.1777979E-004  0.2691952E+03  0.7818608E-02  0.1101741E+00
          2   -1    0    0  501    0  0.00000000000E+00  0.00000000000E+00  0.57440309927E+03  0.57440309927E+03  0.00000000000E+00 0.  1.
         -2   -1    0    0    0  501 -0.00000000000E+00 -0.00000000000E+00 -0.31539716985E+02  0.31539716985E+02  0.00000000000E+00 0.  1.
         25    1    1    2    0    0  0.31530405153E+02  0.36491513838E+02  0.18748892048E+03  0.22776718889E+03  0.12000000000E+03 0.  0.
         25    1    1    2    0    0 -0.31530405153E+02 -0.36491513838E+02  0.35537446180E+03  0.37817562737E+03  0.12000000000E+03 0.  0.
<mgrwt>
<rscale>  0 0.26919518E+03</rscale>
<asrwt>0</asrwt>
<pdfrwt beam="1">  1        2 0.88369700E-01 0.26919518E+03</pdfrwt>
<pdfrwt beam="2">  1       -2 0.48522646E-02 0.26919518E+03</pdfrwt>
<totfact> 0.10815825E+04</totfact>
</mgrwt>
</event>
<event>
 4    1  0.1777979E-004  0.2440529E+03  0.7818608E-02  0.1117122E+00
          1   -1    0    0  501    0  0.00000000000E+00  0.00000000000E+00  0.11438839804E+03  0.11438839804E+03  0.00000000000E+00 0. -1.
         -1   -1    0    0    0  501 -0.00000000000E+00 -0.00000000000E+00 -0.13017454721E+03  0.13017454721E+03  0.00000000000E+00 0. -1.
         25    1    1    2    0    0  0.14409644953E+02 -0.11589536537E+02  0.43185600696E+01  0.12149323103E+03  0.12000000000E+03 0.  0.
         25    1    1    2    0    0 -0.14409644953E+02  0.11589536537E+02 -0.20104709233E+02  0.12306971422E+03  0.12000000000E+03 0.  0.
<mgrwt>
<rscale>  0 0.24405293E+03</rscale>
<asrwt>0</asrwt>
<pdfrwt beam="1">  1        1 0.17598215E-01 0.24405293E+03</pdfrwt>
<pdfrwt beam="2">  1       -1 0.20026854E-01 0.24405293E+03</pdfrwt>
<totfact> 0.59871535E+03</totfact>
</mgrwt>
</event>
<event>
 4    1  0.1777979E-004  0.2569781E+03  0.7818608E-02  0.1108973E+00
         -1   -1    0    0    0  501 -0.00000000000E+00  0.00000000000E+00  0.20118312565E+02  0.20118312565E+02  0.00000000000E+00 0. -1.
          1   -1    0    0  501    0  0.00000000000E+00 -0.00000000000E+00 -0.82061706592E+03  0.82061706592E+03  0.00000000000E+00 0. -1.
         25    1    1    2    0    0 -0.30106073201E+02 -0.32451829433E+02 -0.36018918872E+03  0.38222473566E+03  0.12000000000E+03 0.  0.
         25    1    1    2    0    0  0.30106073201E+02  0.32451829433E+02 -0.44030956464E+03  0.45851064283E+03  0.12000000000E+03 0.  0.
<mgrwt>
<rscale>  0 0.25697806E+03</rscale>
<asrwt>0</asrwt>
<pdfrwt beam="1">  1        1 0.12624877E+00 0.25697806E+03</pdfrwt>
<pdfrwt beam="2">  1       -1 0.30951252E-02 0.25697806E+03</pdfrwt>
<totfact> 0.79393790E+03</totfact>
</mgrwt>
</event>
<event>
 4    1  0.1777979E-004  0.2537071E+03  0.7818608E-02  0.1110984E+00
         -2   -1    0    0    0  501 -0.00000000000E+00  0.00000000000E+00  0.55752818580E+01  0.55752818580E+01  0.00000000000E+00 0. -1.
          2   -1    0    0  501    0  0.00000000000E+00 -0.00000000000E+00 -0.28862797484E+04  0.28862797484E+04  0.00000000000E+00 0. -1.
         25    1    1    2    0    0  0.32999047608E+02  0.10176868318E+02 -0.16950541513E+04  0.16996473404E+04  0.12000000000E+03 0.  0.
         25    1    1    2    0    0 -0.32999047608E+02 -0.10176868318E+02 -0.11856503152E+04  0.11922076899E+04  0.12000000000E+03 0.  0.
<mgrwt>
<rscale>  0 0.25370710E+03</rscale>
<asrwt>0</asrwt>
<pdfrwt beam="1">  1        2 0.44404267E+00 0.25370710E+03</pdfrwt>
<pdfrwt beam="2">  1       -2 0.85773639E-03 0.25370710E+03</pdfrwt>
<totfact> 0.64777067E+03</totfact>
</mgrwt>
</event>
<event>
 4    1  0.1777979E-004  0.2646645E+03  0.7818608E-02  0.1104373E+00
          2   -1    0    0  501    0  0.00000000000E+00  0.00000000000E+00  0.10057758215E+04  0.10057758215E+04  0.00000000000E+00 0.  1.
         -2   -1    0    0    0  501 -0.00000000000E+00 -0.00000000000E+00 -0.17411258887E+02  0.17411258887E+02  0.00000000000E+00 0.  1.
         25    1    1    2    0    0  0.84263792924E+01  0.40205594351E+02  0.64008541127E+03  0.65253109306E+03  0.12000000000E+03 0.  0.
         25    1    1    2    0    0 -0.84263792924E+01 -0.40205594351E+02  0.34827915137E+03  0.37065598735E+03  0.12000000000E+03 0.  0.
<mgrwt>
<rscale>  0 0.26466449E+03</rscale>
<asrwt>0</asrwt>
<pdfrwt beam="1">  1        2 0.15473470E+00 0.26466449E+03</pdfrwt>
<pdfrwt beam="2">  1       -2 0.26786560E-02 0.26466449E+03</pdfrwt>
<totfact> 0.13005885E+04</totfact>
</mgrwt>
</event>
<event>
 4    1  0.1777979E-004  0.4540370E+03  0.7818608E-02  0.1026525E+00
          1   -1    0    0  501    0  0.00000000000E+00  0.00000000000E+00  0.96835229953E+03  0.96835229953E+03  0.00000000000E+00 0. -1.
         -1   -1    0    0    0  501 -0.00000000000E+00 -0.00000000000E+00 -0.53221744517E+02  0.53221744517E+02  0.00000000000E+00 0. -1.
         25    1    1    2    0    0  0.12345106681E+03 -0.12032739495E+03  0.26377225104E+03  0.33718637026E+03  0.12000000000E+03 0.  0.
         25    1    1    2    0    0 -0.12345106681E+03  0.12032739495E+03  0.65135830398E+03  0.68438767379E+03  0.12000000000E+03 0.  0.
<mgrwt>
<rscale>  0 0.45403700E+03</rscale>
<asrwt>0</asrwt>
<pdfrwt beam="1">  1        1 0.14897726E+00 0.45403700E+03</pdfrwt>
<pdfrwt beam="2">  1       -1 0.81879614E-02 0.45403700E+03</pdfrwt>
<totfact> 0.14017505E+03</totfact>
</mgrwt>
</event>
<event>
 4    1  0.1777979E-004  0.2817001E+03  0.7818608E-02  0.1094764E+00
          2   -1    0    0  501    0  0.00000000000E+00  0.00000000000E+00  0.20732672951E+03  0.20732672951E+03  0.00000000000E+00 0. -1.
         -2   -1    0    0    0  501 -0.00000000000E+00 -0.00000000000E+00 -0.95688265680E+02  0.95688265680E+02  0.00000000000E+00 0. -1.
         25    1    1    2    0    0 -0.35794883420E+02 -0.28403715157E+02  0.11808427454E+03  0.17444752967E+03  0.12000000000E+03 0.  0.
         25    1    1    2    0    0  0.35794883420E+02  0.28403715157E+02 -0.64458107159E+01  0.12856746552E+03  0.12000000000E+03 0.  0.
<mgrwt>
<rscale>  0 0.28170009E+03</rscale>
<asrwt>0</asrwt>
<pdfrwt beam="1">  1        2 0.31896420E-01 0.28170009E+03</pdfrwt>
<pdfrwt beam="2">  1       -2 0.14721272E-01 0.28170009E+03</pdfrwt>
<totfact> 0.57520741E+03</totfact>
</mgrwt>
</event>
<event>
 4    1  0.1777979E-004  0.3486000E+03  0.7818608E-02  0.1063191E+00
         -1   -1    0    0    0  501 -0.00000000000E+00  0.00000000000E+00  0.14957196952E+02  0.14957196952E+02  0.00000000000E+00 0. -1.
          1   -1    0    0  501    0  0.00000000000E+00 -0.00000000000E+00 -0.20311616474E+04  0.20311616474E+04  0.00000000000E+00 0. -1.
         25    1    1    2    0    0 -0.43455056442E+02 -0.11797258782E+03 -0.93054186813E+03  0.94663300267E+03  0.12000000000E+03 0.  0.
         25    1    1    2    0    0  0.43455056442E+02  0.11797258782E+03 -0.10856625823E+04  0.10994858417E+04  0.12000000000E+03 0.  0.
<mgrwt>
<rscale>  0 0.34859997E+03</rscale>
<asrwt>0</asrwt>
<pdfrwt beam="1">  1        1 0.31248626E+00 0.34859997E+03</pdfrwt>
<pdfrwt beam="2">  1       -1 0.23011083E-02 0.34859997E+03</pdfrwt>
<totfact> 0.17893621E+03</totfact>
</mgrwt>
</event>
<event>
 4    1  0.1777979E-004  0.3209555E+03  0.7818608E-02  0.1075210E+00
          1   -1    0    0  501    0  0.00000000000E+00  0.00000000000E+00  0.10046934144E+04  0.10046934144E+04  0.00000000000E+00 0.  1.
         -1   -1    0    0    0  501 -0.00000000000E+00 -0.00000000000E+00 -0.25632803105E+02  0.25632803105E+02  0.00000000000E+00 0.  1.
         25    1    1    2    0    0  0.58079837813E+02 -0.59388391709E+02  0.70374508927E+03  0.71871927712E+03  0.12000000000E+03 0.  0.
         25    1    1    2    0    0 -0.58079837813E+02  0.59388391709E+02  0.27531552205E+03  0.31160694041E+03  0.12000000000E+03 0.  0.
<mgrwt>
<rscale>  0 0.32095550E+03</rscale>
<asrwt>0</asrwt>
<pdfrwt beam="1">  1        1 0.15456819E+00 0.32095550E+03</pdfrwt>
<pdfrwt beam="2">  1       -1 0.39435090E-02 0.32095550E+03</pdfrwt>
<totfact> 0.39938979E+03</totfact>
</mgrwt>
</event>
<event>
 4    1  0.1777979E-004  0.2702384E+03  0.7818608E-02  0.1101143E+00
         -1   -1    0    0    0  501 -0.00000000000E+00  0.00000000000E+00  0.33844327100E+03  0.33844327100E+03  0.00000000000E+00 0.  1.
          1   -1    0    0  501    0  0.00000000000E+00 -0.00000000000E+00 -0.53944617107E+02  0.53944617107E+02  0.00000000000E+00 0.  1.
         25    1    1    2    0    0 -0.34036685611E+02 -0.50806071777E+02  0.15798466921E+03  0.20760276637E+03  0.12000000000E+03 0.  0.
         25    1    1    2    0    0  0.34036685611E+02  0.50806071777E+02  0.12651398468E+03  0.18478512174E+03  0.12000000000E+03 0.  0.
<mgrwt>
<rscale>  0 0.27023836E+03</rscale>
<asrwt>0</asrwt>
<pdfrwt beam="1">  1        1 0.82991721E-02 0.27023836E+03</pdfrwt>
<pdfrwt beam="2">  1       -1 0.52068194E-01 0.27023836E+03</pdfrwt>
<totfact> 0.31352815E+03</totfact>
</mgrwt>
</event>
<event>
 4    1  0.1777979E-004  0.3933025E+03  0.7818608E-02  0.1046124E+00
         -2   -1    0    0    0  501 -0.00000000000E+00  0.00000000000E+00  0.72841401508E+03  0.72841401508E+03  0.00000000000E+00 0.  1.
          2   -1    0    0  501    0  0.00000000000E+00 -0.00000000000E+00 -0.53090283670E+02  0.53090283670E+02  0.00000000000E+00 0.  1.
         25    1    1    2    0    0  0.92849988289E+01 -0.15278276666E+03  0.27997216006E+03  0.34090056527E+03  0.12000000000E+03 0.  0.
         25    1    1    2    0    0 -0.92849988289E+01  0.15278276666E+03  0.39535157134E+03  0.44060373348E+03  0.12000000000E+03 0.  0.
<mgrwt>
<rscale>  0 0.39330246E+03</rscale>
<asrwt>0</asrwt>
<pdfrwt beam="1">  1        2 0.81677365E-02 0.39330246E+03</pdfrwt>
<pdfrwt beam="2">  1       -2 0.11206369E+00 0.39330246E+03</pdfrwt>
<totfact> 0.54538615E+02</totfact>
</mgrwt>
</event>
<event>
 4    1  0.1777979E-004  0.3613574E+03  0.7818608E-02  0.1058048E+00
         -1   -1    0    0    0  501 -0.00000000000E+00  0.00000000000E+00  0.16575037899E+03  0.16575037899E+03  0.00000000000E+00 0. -1.
          1   -1    0    0  501    0  0.00000000000E+00 -0.00000000000E+00 -0.19695157050E+03  0.19695157050E+03  0.00000000000E+00 0. -1.
         25    1    1    2    0    0  0.22616927956E+02  0.53937192425E+02 -0.13780767361E+03  0.19186375651E+03  0.12000000000E+03 0.  0.
         25    1    1    2    0    0 -0.22616927956E+02 -0.53937192425E+02  0.10660648210E+03  0.17083819298E+03  0.12000000000E+03 0.  0.
<mgrwt>
<rscale>  0 0.36135743E+03</rscale>
<asrwt>0</asrwt>
<pdfrwt beam="1">  1        1 0.30300242E-01 0.36135743E+03</pdfrwt>
<pdfrwt beam="2">  1       -1 0.25500058E-01 0.36135743E+03</pdfrwt>
<totfact> 0.20223166E+03</totfact>
</mgrwt>
</event>
<event>
 4    1  0.1777979E-004  0.4168136E+03  0.7818608E-02  0.1038108E+00
          1   -1    0    0  501    0  0.00000000000E+00  0.00000000000E+00  0.21042116904E+04  0.21042116904E+04  0.00000000000E+00 0.  1.
         -1   -1    0    0    0  501 -0.00000000000E+00 -0.00000000000E+00 -0.20641167130E+02  0.20641167130E+02  0.00000000000E+00 0.  1.
         25    1    1    2    0    0 -0.46830371174E+02  0.14728682501E+03  0.67605610643E+03  0.70380277886E+03  0.12000000000E+03 0.  0.
         25    1    1    2    0    0  0.46830371174E+02 -0.14728682501E+03  0.14075144169E+04  0.14210500787E+04  0.12000000000E+03 0.  0.
<mgrwt>
<rscale>  0 0.41681356E+03</rscale>
<asrwt>0</asrwt>
<pdfrwt beam="1">  1        1 0.32372471E+00 0.41681356E+03</pdfrwt>
<pdfrwt beam="2">  1       -1 0.31755658E-02 0.41681356E+03</pdfrwt>
<totfact> 0.98816253E+02</totfact>
</mgrwt>
</event>
<event>
 4    1  0.1777979E-004  0.4676212E+03  0.7818608E-02  0.1022594E+00
          2   -1    0    0  501    0  0.00000000000E+00  0.00000000000E+00  0.50743689993E+03  0.50743689993E+03  0.00000000000E+00 0. -1.
         -2   -1    0    0    0  501 -0.00000000000E+00 -0.00000000000E+00 -0.10773241184E+03  0.10773241184E+03  0.00000000000E+00 0. -1.
         25    1    1    2    0    0  0.18681619439E+03 -0.70640145578E+02  0.17430656512E+03  0.29098642459E+03  0.12000000000E+03 0.  0.
         25    1    1    2    0    0 -0.18681619439E+03  0.70640145578E+02  0.22539792297E+03  0.32418288717E+03  0.12000000000E+03 0.  0.
<mgrwt>
<rscale>  0 0.46762122E+03</rscale>
<asrwt>0</asrwt>
<pdfrwt beam="1">  1        2 0.78067214E-01 0.46762122E+03</pdfrwt>
<pdfrwt beam="2">  1       -2 0.16574217E-01 0.46762122E+03</pdfrwt>
<totfact> 0.17829881E+03</totfact>
</mgrwt>
</event>
<event>
 4    1  0.1777979E-004  0.2473960E+03  0.7818608E-02  0.1114962E+00
          2   -1    0    0  501    0  0.00000000000E+00  0.00000000000E+00  0.22629371433E+04  0.22629371433E+04  0.00000000000E+00 0.  1.
         -2   -1    0    0    0  501 -0.00000000000E+00 -0.00000000000E+00 -0.67616527388E+01  0.67616527388E+01  0.00000000000E+00 0.  1.
         25    1    1    2    0    0  0.73889489042E+01 -0.37729598411E+00  0.86116978115E+03  0.86952178287E+03  0.12000000000E+03 0.  0.
         25    1    1    2    0    0 -0.73889489042E+01  0.37729598411E+00  0.13950057094E+04  0.14001770132E+04  0.12000000000E+03 0.  0.
<mgrwt>
<rscale>  0 0.24739600E+03</rscale>
<asrwt>0</asrwt>
<pdfrwt beam="1">  1        2 0.34814357E+00 0.24739600E+03</pdfrwt>
<pdfrwt beam="2">  1       -2 0.10402561E-02 0.24739600E+03</pdfrwt>
<totfact> 0.10832999E+04</totfact>
</mgrwt>
</event>
<event>
 4    1  0.1777979E-004  0.4504450E+03  0.7818608E-02  0.1027589E+00
          1   -1    0    0  501    0  0.00000000000E+00  0.00000000000E+00  0.25564406134E+03  0.25564406134E+03  0.00000000000E+00 0.  1.
         -1   -1    0    0    0  501 -0.00000000000E+00 -0.00000000000E+00 -0.19842112886E+03  0.19842112886E+03  0.00000000000E+00 0.  1.
         25    1    1    2    0    0  0.13422235013E+03 -0.13032693295E+03  0.65296729942E+02  0.23165580431E+03  0.12000000000E+03 0.  0.
         25    1    1    2    0    0 -0.13422235013E+03  0.13032693295E+03 -0.80737974668E+01  0.22240938589E+03  0.12000000000E+03 0.  0.
<mgrwt>
<rscale>  0 0.45044504E+03</rscale>
<asrwt>0</asrwt>
<pdfrwt beam="1">  1        1 0.39329856E-01 0.45044504E+03</pdfrwt>
<pdfrwt beam="2">  1       -1 0.30526327E-01 0.45044504E+03</pdfrwt>
<totfact> 0.10691752E+03</totfact>
</mgrwt>
</event>
<event>
 4    1  0.1777979E-004  0.2658847E+03  0.7818608E-02  0.1103658E+00
          2   -1    0    0  501    0  0.00000000000E+00  0.00000000000E+00  0.67407079317E+03  0.67407079317E+03  0.00000000000E+00 0.  1.
         -2   -1    0    0    0  501 -0.00000000000E+00 -0.00000000000E+00 -0.26219303703E+02  0.26219303703E+02  0.00000000000E+00 0.  1.
         25    1    1    2    0    0 -0.35017193274E+02  0.41958611951E+02  0.36854051040E+03  0.39141900407E+03  0.12000000000E+03 0.  0.
         25    1    1    2    0    0  0.35017193274E+02 -0.41958611951E+02  0.27931097907E+03  0.30887109280E+03  0.12000000000E+03 0.  0.
<mgrwt>
<rscale>  0 0.26588469E+03</rscale>
<asrwt>0</asrwt>
<pdfrwt beam="1">  1        2 0.10370319E+00 0.26588469E+03</pdfrwt>
<pdfrwt beam="2">  1       -2 0.40337395E-02 0.26588469E+03</pdfrwt>
<totfact> 0.11845926E+04</totfact>
</mgrwt>
</event>
<event>
 4    1  0.1777979E-004  0.2539414E+03  0.7818608E-02  0.1110839E+00
          2   -1    0    0  501    0  0.00000000000E+00  0.00000000000E+00  0.38259761638E+04  0.38259761638E+04  0.00000000000E+00 0. -1.
         -2   -1    0    0    0  501 -0.00000000000E+00 -0.00000000000E+00 -0.42137126024E+01  0.42137126024E+01  0.00000000000E+00 0. -1.
         25    1    1    2    0    0  0.12997994615E+02 -0.31212178105E+02  0.15481316683E+04  0.15531435253E+04  0.12000000000E+03 0.  0.
         25    1    1    2    0    0 -0.12997994615E+02  0.31212178105E+02  0.22736307829E+04  0.22770463511E+04  0.12000000000E+03 0.  0.
<mgrwt>
<rscale>  0 0.25394144E+03</rscale>
<asrwt>0</asrwt>
<pdfrwt beam="1">  1        2 0.58860894E+00 0.25394144E+03</pdfrwt>
<pdfrwt beam="2">  1       -2 0.64826653E-03 0.25394144E+03</pdfrwt>
<totfact> 0.24176763E+03</totfact>
</mgrwt>
</event>
<event>
 4    1  0.1777979E-004  0.2989269E+03  0.7818608E-02  0.1085778E+00
         -2   -1    0    0    0  501 -0.00000000000E+00  0.00000000000E+00  0.21490427009E+02  0.21490427009E+02  0.00000000000E+00 0.  1.
          2   -1    0    0  501    0  0.00000000000E+00 -0.00000000000E+00 -0.10395008896E+04  0.10395008896E+04  0.00000000000E+00 0.  1.
         25    1    1    2    0    0  0.67577846856E+02  0.30576180831E+01 -0.30316822487E+03  0.33299712759E+03  0.12000000000E+03 0.  0.
         25    1    1    2    0    0 -0.67577846856E+02 -0.30576180831E+01 -0.71484223777E+03  0.72799418906E+03  0.12000000000E+03 0.  0.
<mgrwt>
<rscale>  0 0.29892687E+03</rscale>
<asrwt>0</asrwt>
<pdfrwt beam="1">  1        2 0.15992327E+00 0.29892687E+03</pdfrwt>
<pdfrwt beam="2">  1       -2 0.33062183E-02 0.29892687E+03</pdfrwt>
<totfact> 0.91011582E+03</totfact>
</mgrwt>
</event>
<event>
 4    1  0.1777979E-004  0.3851630E+03  0.7818608E-02  0.1049042E+00
         -3   -1    0    0    0  501 -0.00000000000E+00  0.00000000000E+00  0.95248587857E+03  0.95248587857E+03  0.00000000000E+00 0.  1.
          3   -1    0    0  501    0  0.00000000000E+00 -0.00000000000E+00 -0.38937727299E+02  0.38937727299E+02  0.00000000000E+00 0.  1.
         25    1    1    2    0    0 -0.13362190584E+03  0.65146013384E+02  0.51923457513E+03  0.55326608498E+03  0.12000000000E+03 0.  0.
         25    1    1    2    0    0  0.13362190584E+03 -0.65146013384E+02  0.39431357615E+03  0.43815752089E+03  0.12000000000E+03 0.  0.
<mgrwt>
<rscale>  0 0.38516301E+03</rscale>
<asrwt>0</asrwt>
<pdfrwt beam="1">  1        3 0.59904203E-02 0.38516301E+03</pdfrwt>
<pdfrwt beam="2">  1       -3 0.14653627E+00 0.38516301E+03</pdfrwt>
<totfact> 0.15976634E+02</totfact>
</mgrwt>
</event>
<event>
 4    1  0.1777979E-004  0.3343951E+03  0.7818608E-02  0.1069209E+00
         -1   -1    0    0    0  501 -0.00000000000E+00  0.00000000000E+00  0.36215636040E+02  0.36215636040E+02  0.00000000000E+00 0. -1.
          1   -1    0    0  501    0  0.00000000000E+00 -0.00000000000E+00 -0.77190469161E+03  0.77190469161E+03  0.00000000000E+00 0. -1.
         25    1    1    2    0    0 -0.36478909685E+02 -0.90489624935E+02 -0.52137277373E+03  0.54382777813E+03  0.12000000000E+03 0.  0.
         25    1    1    2    0    0  0.36478909685E+02  0.90489624935E+02 -0.21431628184E+03  0.26429254953E+03  0.12000000000E+03 0.  0.
<mgrwt>
<rscale>  0 0.33439509E+03</rscale>
<asrwt>0</asrwt>
<pdfrwt beam="1">  1        1 0.11875457E+00 0.33439509E+03</pdfrwt>
<pdfrwt beam="2">  1       -1 0.55716361E-02 0.33439509E+03</pdfrwt>
<totfact> 0.36484309E+03</totfact>
</mgrwt>
</event>
<event>
 4    1  0.1777979E-004  0.3147625E+03  0.7818608E-02  0.1078085E+00
         -2   -1    0    0    0  501 -0.00000000000E+00  0.00000000000E+00  0.62395429116E+01  0.62395429116E+01  0.00000000000E+00 0. -1.
          2   -1    0    0  501    0  0.00000000000E+00 -0.00000000000E+00 -0.39696596184E+04  0.39696596184E+04  0.00000000000E+00 0. -1.
         25    1    1    2    0    0  0.82929064155E+01 -0.99751557375E+02 -0.17454935992E+04  0.17524745506E+04  0.12000000000E+03 0.  0.
         25    1    1    2    0    0 -0.82929064155E+01  0.99751557375E+02 -0.22179264762E+04  0.22234246107E+04  0.12000000000E+03 0.  0.
<mgrwt>
<rscale>  0 0.31476252E+03</rscale>
<asrwt>0</asrwt>
<pdfrwt beam="1">  1        2 0.61071653E+00 0.31476252E+03</pdfrwt>
<pdfrwt beam="2">  1       -2 0.95993020E-03 0.31476252E+03</pdfrwt>
<totfact> 0.10582462E+03</totfact>
</mgrwt>
</event>
<event>
 4    1  0.1777979E-004  0.3253056E+03  0.7818608E-02  0.1073233E+00
          2   -1    0    0  501    0  0.00000000000E+00  0.00000000000E+00  0.74589738276E+03  0.74589738276E+03  0.00000000000E+00 0. -1.
         -2   -1    0    0    0  501 -0.00000000000E+00 -0.00000000000E+00 -0.35468587644E+02  0.35468587644E+02  0.00000000000E+00 0. -1.
         25    1    1    2    0    0 -0.22945623645E+02 -0.10677611849E+03  0.38241959689E+03  0.41541833037E+03  0.12000000000E+03 0.  0.
         25    1    1    2    0    0  0.22945623645E+02  0.10677611849E+03  0.32800919823E+03  0.36594764003E+03  0.12000000000E+03 0.  0.
<mgrwt>
<rscale>  0 0.32530556E+03</rscale>
<asrwt>0</asrwt>
<pdfrwt beam="1">  1        2 0.11475343E+00 0.32530556E+03</pdfrwt>
<pdfrwt beam="2">  1       -2 0.54567064E-02 0.32530556E+03</pdfrwt>
<totfact> 0.66576598E+03</totfact>
</mgrwt>
</event>
<event>
 4    1  0.1777979E-004  0.2544105E+03  0.7818608E-02  0.1110549E+00
          2   -1    0    0  501    0  0.00000000000E+00  0.00000000000E+00  0.31680848737E+03  0.31680848737E+03  0.00000000000E+00 0.  1.
         -2   -1    0    0    0  501 -0.00000000000E+00 -0.00000000000E+00 -0.51075585417E+02  0.51075585417E+02  0.00000000000E+00 0.  1.
         25    1    1    2    0    0  0.13031033506E+02  0.37921029729E+02  0.11382681414E+03  0.17018917694E+03  0.12000000000E+03 0.  0.
         25    1    1    2    0    0 -0.13031033506E+02 -0.37921029729E+02  0.15190608781E+03  0.19769489585E+03  0.12000000000E+03 0.  0.
<mgrwt>
<rscale>  0 0.25441053E+03</rscale>
<asrwt>0</asrwt>
<pdfrwt beam="1">  1        2 0.48739766E-01 0.25441053E+03</pdfrwt>
<pdfrwt beam="2">  1       -2 0.78577826E-02 0.25441053E+03</pdfrwt>
<totfact> 0.98957665E+03</totfact>
</mgrwt>
</event>
<event>
 4    1  0.1777979E-004  0.2464535E+03  0.7818608E-02  0.1115567E+00
          1   -1    0    0  501    0  0.00000000000E+00  0.00000000000E+00  0.51945791674E+03  0.51945791674E+03  0.00000000000E+00 0.  1.
         -1   -1    0    0    0  501 -0.00000000000E+00 -0.00000000000E+00 -0.29232068754E+02  0.29232068754E+02  0.00000000000E+00 0.  1.
         25    1    1    2    0    0 -0.27192999255E+01  0.12228836771E+02  0.18932579235E+03  0.22450210398E+03  0.12000000000E+03 0.  0.
         25    1    1    2    0    0  0.27192999255E+01 -0.12228836771E+02  0.30090005564E+03  0.32418788152E+03  0.12000000000E+03 0.  0.
<mgrwt>
<rscale>  0 0.24645348E+03</rscale>
<asrwt>0</asrwt>
<pdfrwt beam="1">  1        1 0.79916596E-01 0.24645348E+03</pdfrwt>
<pdfrwt beam="2">  1       -1 0.44972417E-02 0.24645348E+03</pdfrwt>
<totfact> 0.87601929E+03</totfact>
</mgrwt>
</event>
<event>
 4    1  0.1777979E-004  0.2668400E+03  0.7818608E-02  0.1103102E+00
         -2   -1    0    0    0  501 -0.00000000000E+00  0.00000000000E+00  0.19190610621E+03  0.19190610621E+03  0.00000000000E+00 0. -1.
          2   -1    0    0  501    0  0.00000000000E+00 -0.00000000000E+00 -0.92758374752E+02  0.92758374752E+02  0.00000000000E+00 0. -1.
         25    1    1    2    0    0 -0.43703294712E+02 -0.32298788915E+02  0.72146390111E+02  0.15019417878E+03  0.12000000000E+03 0.  0.
         25    1    1    2    0    0  0.43703294712E+02  0.32298788915E+02  0.27001341348E+02  0.13447030218E+03  0.12000000000E+03 0.  0.
<mgrwt>
<rscale>  0 0.26684002E+03</rscale>
<asrwt>0</asrwt>
<pdfrwt beam="1">  1        2 0.14270519E-01 0.26684002E+03</pdfrwt>
<pdfrwt beam="2">  1       -2 0.29524016E-01 0.26684002E+03</pdfrwt>
<totfact> 0.43248132E+03</totfact>
</mgrwt>
</event>
<event>
 4    1  0.1777979E-004  0.2667132E+03  0.7818608E-02  0.1103176E+00
         -1   -1    0    0    0  501 -0.00000000000E+00  0.00000000000E+00  0.86357269924E+01  0.86357269924E+01  0.00000000000E+00 0.  1.
          1   -1    0    0  501    0  0.00000000000E+00 -0.00000000000E+00 -0.20593502962E+04  0.20593502962E+04  0.00000000000E+00 0.  1.
         25    1    1    2    0    0  0.57871172556E+02 -0.56906553233E+01 -0.10376920040E+04  0.10462247136E+04  0.12000000000E+03 0.  0.
         25    1    1    2    0    0 -0.57871172556E+02  0.56906553233E+01 -0.10130225652E+04  0.10217613096E+04  0.12000000000E+03 0.  0.
<mgrwt>
<rscale>  0 0.26671323E+03</rscale>
<asrwt>0</asrwt>
<pdfrwt beam="1">  1        1 0.31682365E+00 0.26671323E+03</pdfrwt>
<pdfrwt beam="2">  1       -1 0.13285712E-02 0.26671323E+03</pdfrwt>
<totfact> 0.38445390E+03</totfact>
</mgrwt>
</event>
<event>
 4    1  0.1777979E-004  0.2522515E+03  0.7818608E-02  0.1111890E+00
         -2   -1    0    0    0  501 -0.00000000000E+00  0.00000000000E+00  0.40321372102E+02  0.40321372102E+02  0.00000000000E+00 0. -1.
          2   -1    0    0  501    0  0.00000000000E+00 -0.00000000000E+00 -0.39452301954E+03  0.39452301954E+03  0.00000000000E+00 0. -1.
         25    1    1    2    0    0 -0.12749372090E+02 -0.27806940949E+02 -0.13587454298E+03  0.18384140960E+03  0.12000000000E+03 0.  0.
         25    1    1    2    0    0  0.12749372090E+02  0.27806940949E+02 -0.21832710446E+03  0.25100298204E+03  0.12000000000E+03 0.  0.
<mgrwt>
<rscale>  0 0.25225154E+03</rscale>
<asrwt>0</asrwt>
<pdfrwt beam="1">  1        2 0.60695848E-01 0.25225154E+03</pdfrwt>
<pdfrwt beam="2">  1       -2 0.62032882E-02 0.25225154E+03</pdfrwt>
<totfact> 0.11255104E+04</totfact>
</mgrwt>
</event>
<event>
 4    1  0.1777979E-004  0.5489375E+03  0.7818608E-02  0.1001740E+00
         -1   -1    0    0    0  501 -0.00000000000E+00  0.00000000000E+00  0.71937717773E+02  0.71937717773E+02  0.00000000000E+00 0. -1.
          1   -1    0    0  501    0  0.00000000000E+00 -0.00000000000E+00 -0.10471988226E+04  0.10471988226E+04  0.00000000000E+00 0. -1.
         25    1    1    2    0    0 -0.95273161616E+02 -0.21879693793E+03 -0.61631344797E+03  0.67170777986E+03  0.12000000000E+03 0.  0.
         25    1    1    2    0    0  0.95273161616E+02  0.21879693793E+03 -0.35894765684E+03  0.44742876050E+03  0.12000000000E+03 0.  0.
<mgrwt>
<rscale>  0 0.54893749E+03</rscale>
<asrwt>0</asrwt>
<pdfrwt beam="1">  1        1 0.16110750E+00 0.54893749E+03</pdfrwt>
<pdfrwt beam="2">  1       -1 0.11067342E-01 0.54893749E+03</pdfrwt>
<totfact> 0.75878523E+02</totfact>
</mgrwt>
</event>
<event>
 4    1  0.1777979E-004  0.3582827E+03  0.7818608E-02  0.1059266E+00
         -4   -1    0    0    0  501 -0.00000000000E+00  0.00000000000E+00  0.70432286674E+02  0.70432286674E+02  0.00000000000E+00 0.  1.
          4   -1    0    0  501    0  0.00000000000E+00 -0.00000000000E+00 -0.45563805073E+03  0.45563805073E+03  0.00000000000E+00 0.  1.
         25    1    1    2    0    0  0.88106538622E+02  0.78743601297E+01 -0.33845322734E+03  0.36983152217E+03  0.12000000000E+03 0.  0.
         25    1    1    2    0    0 -0.88106538622E+02 -0.78743601297E+01 -0.46752536713E+02  0.15623881523E+03  0.12000000000E+03 0.  0.
<mgrwt>
<rscale>  0 0.35828274E+03</rscale>
<asrwt>0</asrwt>
<pdfrwt beam="1">  1        4 0.70098158E-01 0.35828274E+03</pdfrwt>
<pdfrwt beam="2">  1       -4 0.10835737E-01 0.35828274E+03</pdfrwt>
<totfact> 0.24199529E+02</totfact>
</mgrwt>
</event>
<event>
 4    1  0.1777979E-004  0.2451163E+03  0.7818608E-02  0.1116431E+00
          2   -1    0    0  501    0  0.00000000000E+00  0.00000000000E+00  0.63333986913E+03  0.63333986913E+03  0.00000000000E+00 0. -1.
         -2   -1    0    0    0  501 -0.00000000000E+00 -0.00000000000E+00 -0.23716327509E+02  0.23716327509E+02  0.00000000000E+00 0. -1.
         25    1    1    2    0    0  0.11680334004E+02  0.75130190383E+01  0.24937991185E+03  0.27709784570E+03  0.12000000000E+03 0.  0.
         25    1    1    2    0    0 -0.11680334004E+02 -0.75130190383E+01  0.36024362978E+03  0.37995835094E+03  0.12000000000E+03 0.  0.
<mgrwt>
<rscale>  0 0.24511626E+03</rscale>
<asrwt>0</asrwt>
<pdfrwt beam="1">  1        2 0.97436890E-01 0.24511626E+03</pdfrwt>
<pdfrwt beam="2">  1       -2 0.36486663E-02 0.24511626E+03</pdfrwt>
<totfact> 0.14772746E+04</totfact>
</mgrwt>
</event>
<event>
 4    1  0.1777979E-004  0.2755519E+03  0.7818608E-02  0.1098143E+00
          2   -1    0    0  501    0  0.00000000000E+00  0.00000000000E+00  0.10723964033E+04  0.10723964033E+04  0.00000000000E+00 0. -1.
         -2   -1    0    0    0  501 -0.00000000000E+00 -0.00000000000E+00 -0.17700742948E+02  0.17700742948E+02  0.00000000000E+00 0. -1.
         25    1    1    2    0    0 -0.52785146534E+01 -0.46760575760E+02  0.33484629679E+03  0.35879862964E+03  0.12000000000E+03 0.  0.
         25    1    1    2    0    0  0.52785146534E+01  0.46760575760E+02  0.71984936356E+03  0.73129851660E+03  0.12000000000E+03 0.  0.
<mgrwt>
<rscale>  0 0.27555190E+03</rscale>
<asrwt>0</asrwt>
<pdfrwt beam="1">  1        2 0.16498401E+00 0.27555190E+03</pdfrwt>
<pdfrwt beam="2">  1       -2 0.27231921E-02 0.27555190E+03</pdfrwt>
<totfact> 0.11588062E+04</totfact>
</mgrwt>
</event>
<event>
 4    1  0.1777979E-004  0.2678810E+03  0.7818608E-02  0.1102499E+00
         -2   -1    0    0    0  501 -0.00000000000E+00  0.00000000000E+00  0.11722307758E+02  0.11722307758E+02  0.00000000000E+00 0. -1.
          2   -1    0    0  501    0  0.00000000000E+00 -0.00000000000E+00 -0.15304201245E+04  0.15304201245E+04  0.00000000000E+00 0. -1.
         25    1    1    2    0    0 -0.18734210142E+01 -0.56812851954E+02 -0.86051931138E+03  0.87070356328E+03  0.12000000000E+03 0.  0.
         25    1    1    2    0    0  0.18734210142E+01  0.56812851954E+02 -0.65817850540E+03  0.67143886901E+03  0.12000000000E+03 0.  0.
<mgrwt>
<rscale>  0 0.26788099E+03</rscale>
<asrwt>0</asrwt>
<pdfrwt beam="1">  1        2 0.23544929E+00 0.26788099E+03</pdfrwt>
<pdfrwt beam="2">  1       -2 0.18034316E-02 0.26788099E+03</pdfrwt>
<totfact> 0.11822242E+04</totfact>
</mgrwt>
</event>
<event>
 4    1  0.1777979E-004  0.3245542E+03  0.7818608E-02  0.1073572E+00
          2   -1    0    0  501    0  0.00000000000E+00  0.00000000000E+00  0.27219913596E+02  0.27219913596E+02  0.00000000000E+00 0.  1.
         -2   -1    0    0    0  501 -0.00000000000E+00 -0.00000000000E+00 -0.96744817019E+03  0.96744817019E+03  0.00000000000E+00 0.  1.
         25    1    1    2    0    0  0.53061278480E+02 -0.80755671949E+01 -0.76171620828E+03  0.77297625838E+03  0.12000000000E+03 0.  0.
         25    1    1    2    0    0 -0.53061278480E+02  0.80755671949E+01 -0.17851204831E+03  0.22169182541E+03  0.12000000000E+03 0.  0.
<mgrwt>
<rscale>  0 0.32455419E+03</rscale>
<asrwt>0</asrwt>
<pdfrwt beam="1">  1        2 0.41876788E-02 0.32455419E+03</pdfrwt>
<pdfrwt beam="2">  1       -2 0.14883819E+00 0.32455419E+03</pdfrwt>
<totfact> 0.64720414E+02</totfact>
</mgrwt>
</event>
<event>
 4    1  0.1777979E-004  0.2991563E+03  0.7818608E-02  0.1085663E+00
         -2   -1    0    0    0  501 -0.00000000000E+00  0.00000000000E+00  0.13955861394E+02  0.13955861394E+02  0.00000000000E+00 0. -1.
          2   -1    0    0  501    0  0.00000000000E+00 -0.00000000000E+00 -0.16031706681E+04  0.16031706681E+04  0.00000000000E+00 0. -1.
         25    1    1    2    0    0 -0.48595694562E+02  0.73319512887E+02 -0.87770911116E+03  0.89023063097E+03  0.12000000000E+03 0.  0.
         25    1    1    2    0    0  0.48595694562E+02 -0.73319512887E+02 -0.71150569555E+03  0.72689589853E+03  0.12000000000E+03 0.  0.
<mgrwt>
<rscale>  0 0.29915633E+03</rscale>
<asrwt>0</asrwt>
<pdfrwt beam="1">  1        2 0.24664165E+00 0.29915633E+03</pdfrwt>
<pdfrwt beam="2">  1       -2 0.21470555E-02 0.29915633E+03</pdfrwt>
<totfact> 0.83812990E+03</totfact>
</mgrwt>
</event>
<event>
 4    1  0.1777979E-004  0.2857589E+03  0.7818608E-02  0.1092584E+00
         -1   -1    0    0    0  501 -0.00000000000E+00  0.00000000000E+00  0.64212980707E+01  0.64212980707E+01  0.00000000000E+00 0.  1.
          1   -1    0    0  501    0  0.00000000000E+00 -0.00000000000E+00 -0.31791920640E+04  0.31791920640E+04  0.00000000000E+00 0.  1.
         25    1    1    2    0    0 -0.29843950968E+02 -0.62558307831E+02 -0.19742198034E+04  0.19790775719E+04  0.12000000000E+03 0.  0.
         25    1    1    2    0    0  0.29843950968E+02  0.62558307831E+02 -0.11985509625E+04  0.12065357902E+04  0.12000000000E+03 0.  0.
<mgrwt>
<rscale>  0 0.28575892E+03</rscale>
<asrwt>0</asrwt>
<pdfrwt beam="1">  1        1 0.48910736E+00 0.28575892E+03</pdfrwt>
<pdfrwt beam="2">  1       -1 0.98789022E-03 0.28575892E+03</pdfrwt>
<totfact> 0.10328836E+03</totfact>
</mgrwt>
</event>
