<event>
 9    1  0.7816570E-001  0.2727671E+03  0.7818608E-02  0.1099706E+00
          1   -1    0    0  501    0  0.00000000000E+00  0.00000000000E+00  0.13766788874E+04  0.13766788874E+04  0.00000000000E+00 0. -1.
         -1   -1    0    0    0  501 -0.00000000000E+00 -0.00000000000E+00 -0.13511116293E+02  0.13511116293E+02  0.00000000000E+00 0. -1.
         35    2    1    2    0    0  0.14210854715E-13  0.71054273576E-14  0.13631677711E+04  0.13901900037E+04  0.27276706946E+03 0.  0.
         25    2    3    3    0    0  0.50683780450E+02 -0.74411710655E+01  0.56813438392E+03  0.58363546124E+03  0.12340768530E+03 0.  0.
         25    2    3    3    0    0 -0.50683780450E+02  0.74411710655E+01  0.79503338719E+03  0.80655454246E+03  0.12580908787E+03 0.  0.
          5    1    4    4  502    0  0.87073771066E+02 -0.21294502790E+02  0.45832004779E+03  0.46702746564E+03  0.47000000000E+01 0. -1.
         -5    1    4    4    0  502 -0.36389990615E+02  0.13853331724E+02  0.10981433613E+03  0.11660799560E+03  0.47000000000E+01 0. -1.
          5    1    5    5  503    0 -0.93878005684E+01  0.49889296952E+02  0.61203475245E+03  0.61415446018E+03  0.47000000000E+01 0. -1.
         -5    1    5    5    0  503 -0.41295979882E+02 -0.42448125886E+02  0.18299863473E+03  0.19240008228E+03  0.47000000000E+01 0. -1.
<mgrwt>
<rscale>  0 0.27276707E+03</rscale>
<asrwt>0</asrwt>
<pdfrwt beam="1">  1        1 0.21179664E+00 0.27276707E+03</pdfrwt>
<pdfrwt beam="2">  1       -1 0.20786344E-02 0.27276707E+03</pdfrwt>
<totfact> 0.56068062E+03</totfact>
</mgrwt>
</event>
<event>
 9    1  0.7816570E-001  0.2911246E+03  0.7818608E-02  0.1089763E+00
          1   -1    0    0  501    0  0.00000000000E+00  0.00000000000E+00  0.24919355977E+03  0.24919355977E+03  0.00000000000E+00 0.  1.
         -1   -1    0    0    0  501 -0.00000000000E+00 -0.00000000000E+00 -0.85027808890E+02  0.85027808890E+02  0.00000000000E+00 0.  1.
         35    2    1    2    0    0  0.00000000000E+00  0.00000000000E+00  0.16416575088E+03  0.33422136866E+03  0.29112459447E+03 0.  0.
         25    2    3    3    0    0 -0.20318983763E+02 -0.60973319938E+01 -0.32844544435E+00  0.12633918075E+03  0.12454494032E+03 0.  0.
         25    2    3    3    0    0  0.20318983763E+02  0.60973319938E+01  0.16449419632E+03  0.20788218791E+03  0.12532607417E+03 0.  0.
          5    1    4    4  502    0 -0.62772048297E+02 -0.52292737145E+01  0.33818413210E+02  0.71648101322E+02  0.47000000000E+01 0.  1.
         -5    1    4    4    0  502  0.42453064533E+02 -0.86805827926E+00 -0.34146858655E+02  0.54691079432E+02  0.47000000000E+01 0.  1.
          5    1    5    5  503    0  0.29593148114E+02 -0.53541649789E+02  0.11221947716E+03  0.12789747352E+03  0.47000000000E+01 0.  1.
         -5    1    5    5    0  503 -0.92741643505E+01  0.59638981783E+02  0.52274719162E+02  0.79984714389E+02  0.47000000000E+01 0.  1.
<mgrwt>
<rscale>  0 0.29112459E+03</rscale>
<asrwt>0</asrwt>
<pdfrwt beam="1">  1        1 0.38337470E-01 0.29112459E+03</pdfrwt>
<pdfrwt beam="2">  1       -1 0.13081201E-01 0.29112459E+03</pdfrwt>
<totfact> 0.44157418E+03</totfact>
</mgrwt>
</event>
<event>
 9    1  0.7816570E-001  0.2768927E+03  0.7818608E-02  0.1097398E+00
         -2   -1    0    0    0  501 -0.00000000000E+00  0.00000000000E+00  0.17872306260E+03  0.17872306260E+03  0.00000000000E+00 0.  1.
          2   -1    0    0  501    0  0.00000000000E+00 -0.00000000000E+00 -0.10724630880E+03  0.10724630880E+03  0.00000000000E+00 0.  1.
         35    2    1    2    0    0  0.00000000000E+00 -0.35527136788E-14  0.71476753804E+02  0.28596937141E+03  0.27689267785E+03 0.  0.
         25    2    3    3    0    0 -0.49144474928E+02  0.24612709326E+02  0.40115549026E+01  0.13501761934E+03  0.12325867143E+03 0.  0.
         25    2    3    3    0    0  0.49144474928E+02 -0.24612709326E+02  0.67465198901E+02  0.15095175207E+03  0.12334469390E+03 0.  0.
          5    1    4    4  502    0 -0.38809281712E+01 -0.33340233274E+02  0.40485654288E+02  0.52799725012E+02  0.47000000000E+01 0. -1.
         -5    1    4    4    0  502 -0.45263546756E+02  0.57952942600E+02 -0.36474099385E+02  0.82217894323E+02  0.47000000000E+01 0. -1.
          5    1    5    5  503    0  0.56317646581E+02 -0.40248815642E+02  0.95308208538E+02  0.11788718799E+03  0.47000000000E+01 0.  1.
         -5    1    5    5    0  503 -0.71731716532E+01  0.15636106316E+02 -0.27843009637E+02  0.33064564082E+02  0.47000000000E+01 0.  1.
<mgrwt>
<rscale>  0 0.27689268E+03</rscale>
<asrwt>0</asrwt>
<pdfrwt beam="1">  1        2 0.16499432E-01 0.27689268E+03</pdfrwt>
<pdfrwt beam="2">  1       -2 0.27495856E-01 0.27689268E+03</pdfrwt>
<totfact> 0.41463629E+03</totfact>
</mgrwt>
</event>
<event>
 9    1  0.7816570E-001  0.2735657E+03  0.7818608E-02  0.1099256E+00
          1   -1    0    0  501    0  0.00000000000E+00  0.00000000000E+00  0.35277838208E+02  0.35277838208E+02  0.00000000000E+00 0.  1.
         -1   -1    0    0    0  501 -0.00000000000E+00 -0.00000000000E+00 -0.53034851598E+03  0.53034851598E+03  0.00000000000E+00 0.  1.
         35    2    1    2    0    0  0.35527136788E-14 -0.71054273576E-14 -0.49507067777E+03  0.56562635419E+03  0.27356570794E+03 0.  0.
         25    2    3    3    0    0 -0.24875782879E+02 -0.31190129052E+02 -0.16010374126E+03  0.20613676533E+03  0.12356184414E+03 0.  0.
         25    2    3    3    0    0  0.24875782879E+02  0.31190129052E+02 -0.33496693651E+03  0.35948958886E+03  0.12425090431E+03 0.  0.
          5    1    4    4  502    0 -0.42888335734E+02 -0.72452821211E+02 -0.98001383562E+02  0.12928720673E+03  0.47000000000E+01 0. -1.
         -5    1    4    4    0  502  0.18012552855E+02  0.41262692159E+02 -0.62102357702E+02  0.76849558598E+02  0.47000000000E+01 0. -1.
          5    1    5    5  503    0  0.18492458546E+02  0.57836551185E+02 -0.68835425249E+02  0.91909974678E+02  0.47000000000E+01 0. -1.
         -5    1    5    5    0  503  0.63833243332E+01 -0.26646422133E+02 -0.26613151126E+03  0.26757961418E+03  0.47000000000E+01 0. -1.
<mgrwt>
<rscale>  0 0.27356571E+03</rscale>
<asrwt>0</asrwt>
<pdfrwt beam="1">  1        1 0.54273598E-02 0.27356571E+03</pdfrwt>
<pdfrwt beam="2">  1       -1 0.81592079E-01 0.27356571E+03</pdfrwt>
<totfact> 0.23201356E+03</totfact>
</mgrwt>
</event>
<event>
 9    1  0.7816570E-001  0.3056789E+03  0.7818608E-02  0.1082436E+00
          1   -1    0    0  501    0  0.00000000000E+00  0.00000000000E+00  0.36829775042E+04  0.36829775042E+04  0.00000000000E+00 0. -1.
         -1   -1    0    0    0  501 -0.00000000000E+00 -0.00000000000E+00 -0.63426681883E+01  0.63426681883E+01  0.00000000000E+00 0. -1.
         35    2    1    2    0    0  0.00000000000E+00 -0.88817841970E-15  0.36766348361E+04  0.36893201724E+04  0.30567894435E+03 0.  0.
         25    2    3    3    0    0  0.71920497016E+02 -0.77719673078E+00  0.12539357003E+04  0.12623348623E+04  0.12633844264E+03 0.  0.
         25    2    3    3    0    0 -0.71920497016E+02  0.77719673078E+00  0.24226991358E+04  0.24269853102E+04  0.12495371715E+03 0.  0.
          5    1    4    4  502    0  0.97987628338E+02 -0.11837166626E+02  0.11577115041E+04  0.11619206989E+04  0.47000000000E+01 0. -1.
         -5    1    4    4    0  502 -0.26067131322E+02  0.11059969896E+02  0.96224196177E+02  0.10041416334E+03  0.47000000000E+01 0. -1.
          5    1    5    5  503    0  0.25106099815E+01 -0.59269847270E+01  0.86005246622E+01  0.11725669913E+02  0.47000000000E+01 0. -1.
         -5    1    5    5    0  503 -0.74431106997E+02  0.67041814578E+01  0.24140986111E+04  0.24152596403E+04  0.47000000000E+01 0. -1.
<mgrwt>
<rscale>  0 0.30567894E+03</rscale>
<asrwt>0</asrwt>
<pdfrwt beam="1">  1        1 0.56661021E+00 0.30567894E+03</pdfrwt>
<pdfrwt beam="2">  1       -1 0.97579805E-03 0.30567894E+03</pdfrwt>
<totfact> 0.43950142E+02</totfact>
</mgrwt>
</event>
<event>
 9    1  0.7816570E-001  0.2740872E+03  0.7818608E-02  0.1098963E+00
          2   -1    0    0  501    0  0.00000000000E+00  0.00000000000E+00  0.66308146714E+03  0.66308146714E+03  0.00000000000E+00 0. -1.
         -2   -1    0    0    0  501 -0.00000000000E+00 -0.00000000000E+00 -0.28323747300E+02  0.28323747300E+02  0.00000000000E+00 0. -1.
         35    2    1    2    0    0  0.00000000000E+00  0.00000000000E+00  0.63475771984E+03  0.69140521444E+03  0.27408722637E+03 0.  0.
         25    2    3    3    0    0 -0.32001612381E+02  0.33520987911E+02  0.39524687730E+03  0.41723423018E+03  0.12536566115E+03 0.  0.
         25    2    3    3    0    0  0.32001612381E+02 -0.33520987911E+02  0.23951084254E+03  0.27417098425E+03  0.12512603681E+03 0.  0.
          5    1    4    4  502    0 -0.70381675763E+02  0.53096361126E+02  0.29718018149E+03  0.31001766743E+03  0.47000000000E+01 0.  1.
         -5    1    4    4    0  502  0.38380063382E+02 -0.19575373215E+02  0.98066695811E+02  0.10721656275E+03  0.47000000000E+01 0.  1.
          5    1    5    5  503    0 -0.21955182254E+02 -0.66043115292E+02  0.11377264507E+03  0.13345421639E+03  0.47000000000E+01 0. -1.
         -5    1    5    5    0  503  0.53956794635E+02  0.32522127380E+02  0.12573819746E+03  0.14071676786E+03  0.47000000000E+01 0. -1.
<mgrwt>
<rscale>  0 0.27408723E+03</rscale>
<asrwt>0</asrwt>
<pdfrwt beam="1">  1        2 0.10201252E+00 0.27408723E+03</pdfrwt>
<pdfrwt beam="2">  1       -2 0.43575001E-02 0.27408723E+03</pdfrwt>
<totfact> 0.10766981E+04</totfact>
</mgrwt>
</event>
<event>
 9    1  0.7816570E-001  0.2676724E+03  0.7818608E-02  0.1102619E+00
         -2   -1    0    0    0  501 -0.00000000000E+00  0.00000000000E+00  0.13844924843E+03  0.13844924843E+03  0.00000000000E+00 0.  1.
          2   -1    0    0  501    0  0.00000000000E+00 -0.00000000000E+00 -0.12937686389E+03  0.12937686389E+03  0.00000000000E+00 0.  1.
         35    2    1    2    0    0  0.00000000000E+00  0.00000000000E+00  0.90723845360E+01  0.26782611232E+03  0.26767240851E+03 0.  0.
         25    2    3    3    0    0 -0.13709175033E+02 -0.38426742519E+02  0.27822867801E+02  0.13436190985E+03  0.12495781219E+03 0.  0.
         25    2    3    3    0    0  0.13709175033E+02  0.38426742519E+02 -0.18750483264E+02  0.13346420246E+03  0.12568435342E+03 0.  0.
          5    1    4    4  502    0 -0.60003527640E+01  0.45803311987E+02  0.55016829985E+01  0.46757952672E+02  0.47000000000E+01 0.  1.
         -5    1    4    4    0  502 -0.77088222691E+01 -0.84230054506E+02  0.22321184802E+02  0.87603957182E+02  0.47000000000E+01 0.  1.
          5    1    5    5  503    0  0.24877215895E+02  0.17372287126E+02 -0.70170893079E+02  0.76594493706E+02  0.47000000000E+01 0.  1.
         -5    1    5    5    0  503 -0.11168040862E+02  0.21054455393E+02  0.51420409814E+02  0.56869708757E+02  0.47000000000E+01 0.  1.
<mgrwt>
<rscale>  0 0.26767241E+03</rscale>
<asrwt>0</asrwt>
<pdfrwt beam="1">  1        2 0.19904133E-01 0.26767241E+03</pdfrwt>
<pdfrwt beam="2">  1       -2 0.21299884E-01 0.26767241E+03</pdfrwt>
<totfact> 0.52180949E+03</totfact>
</mgrwt>
</event>
<event>
 9    1  0.7816570E-001  0.2792217E+03  0.7818608E-02  0.1096115E+00
          2   -1    0    0  501    0  0.00000000000E+00  0.00000000000E+00  0.17573932901E+02  0.17573932901E+02  0.00000000000E+00 0.  1.
         -2   -1    0    0    0  501 -0.00000000000E+00 -0.00000000000E+00 -0.11090967317E+04  0.11090967317E+04  0.00000000000E+00 0.  1.
         35    2    1    2    0    0 -0.71054273576E-14  0.71054273576E-14 -0.10915227988E+04  0.11266706646E+04  0.27922171508E+03 0.  0.
         25    2    3    3    0    0 -0.55888527089E+02  0.17671886944E+02 -0.54646199101E+03  0.56365422072E+03  0.12509816096E+03 0.  0.
         25    2    3    3    0    0  0.55888527089E+02 -0.17671886944E+02 -0.54506080778E+03  0.56301644387E+03  0.12829812483E+03 0.  0.
          5    1    4    4  502    0  0.97988277131E+01 -0.19280812469E+02 -0.38248464171E+03  0.38312446789E+03  0.47000000000E+01 0.  1.
         -5    1    4    4    0  502 -0.65687354803E+02  0.36952699413E+02 -0.16397734930E+03  0.18052975284E+03  0.47000000000E+01 0.  1.
          5    1    5    5  503    0  0.53091297689E+02 -0.36631143591E+02 -0.11069720006E+03  0.12820486213E+03  0.47000000000E+01 0.  1.
         -5    1    5    5    0  503  0.27972294004E+01  0.18959256647E+02 -0.43436360772E+03  0.43481158174E+03  0.47000000000E+01 0.  1.
<mgrwt>
<rscale>  0 0.27922172E+03</rscale>
<asrwt>0</asrwt>
<pdfrwt beam="1">  1        2 0.27036817E-02 0.27922172E+03</pdfrwt>
<pdfrwt beam="2">  1       -2 0.17063029E+00 0.27922172E+03</pdfrwt>
<totfact> 0.81462791E+02</totfact>
</mgrwt>
</event>
<event>
 9    1  0.7816570E-001  0.2768303E+03  0.7818608E-02  0.1097433E+00
          2   -1    0    0  501    0  0.00000000000E+00  0.00000000000E+00  0.44977331386E+03  0.44977331386E+03  0.00000000000E+00 0. -1.
         -2   -1    0    0    0  501 -0.00000000000E+00 -0.00000000000E+00 -0.42596473256E+02  0.42596473256E+02  0.00000000000E+00 0. -1.
         35    2    1    2    0    0  0.35527136788E-14 -0.71054273576E-14  0.40717684061E+03  0.49236978712E+03  0.27683032301E+03 0.  0.
         25    2    3    3    0    0  0.94817316407E+01 -0.52495139563E+02  0.24126091554E+03  0.27633115605E+03  0.12371918008E+03 0.  0.
         25    2    3    3    0    0 -0.94817316407E+01  0.52495139563E+02  0.16591592506E+03  0.21603863107E+03  0.12766735296E+03 0.  0.
          5    1    4    4  502    0 -0.28458165094E+02 -0.39601193328E+02  0.22897308281E+03  0.23415568394E+03  0.47000000000E+01 0.  1.
         -5    1    4    4    0  502  0.37939896735E+02 -0.12893946235E+02  0.12287832738E+02  0.42175472103E+02  0.47000000000E+01 0.  1.
          5    1    5    5  503    0  0.40379716027E+02  0.91882350966E+00  0.65223839504E+01  0.41182486513E+02  0.47000000000E+01 0.  1.
         -5    1    5    5    0  503 -0.49861447667E+02  0.51576316053E+02  0.15939354111E+03  0.17485614456E+03  0.47000000000E+01 0.  1.
<mgrwt>
<rscale>  0 0.27683032E+03</rscale>
<asrwt>0</asrwt>
<pdfrwt beam="1">  1        2 0.69195891E-01 0.27683032E+03</pdfrwt>
<pdfrwt beam="2">  1       -2 0.65533039E-02 0.27683032E+03</pdfrwt>
<totfact> 0.89997596E+03</totfact>
</mgrwt>
</event>
<event>
 9    1  0.7816570E-001  0.2848866E+03  0.7818608E-02  0.1093050E+00
          2   -1    0    0  501    0  0.00000000000E+00  0.00000000000E+00  0.11535666942E+04  0.11535666942E+04  0.00000000000E+00 0. -1.
         -2   -1    0    0    0  501 -0.00000000000E+00 -0.00000000000E+00 -0.17589003360E+02  0.17589003360E+02  0.00000000000E+00 0. -1.
         35    2    1    2    0    0 -0.35527136788E-14  0.71054273576E-14  0.11359776908E+04  0.11711556975E+04  0.28488656311E+03 0.  0.
         25    2    3    3    0    0  0.40357307991E+01 -0.61756812625E+02  0.68121190963E+03  0.69553749204E+03  0.12606564157E+03 0.  0.
         25    2    3    3    0    0 -0.40357307991E+01  0.61756812625E+02  0.45476578118E+03  0.47561820549E+03  0.12478209259E+03 0.  0.
          5    1    4    4  502    0  0.18240982233E+02  0.75952650622E+01  0.14245447300E+02  0.24808148923E+02  0.47000000000E+01 0.  1.
         -5    1    4    4    0  502 -0.14205251434E+02 -0.69352077687E+02  0.66696646233E+03  0.67072934312E+03  0.47000000000E+01 0.  1.
          5    1    5    5  503    0 -0.55303416343E+02  0.29959314695E+02  0.34077010577E+03  0.34655790769E+03  0.47000000000E+01 0. -1.
         -5    1    5    5    0  503  0.51267685544E+02  0.31797497929E+02  0.11399567541E+03  0.12906029780E+03  0.47000000000E+01 0. -1.
<mgrwt>
<rscale>  0 0.28488656E+03</rscale>
<asrwt>0</asrwt>
<pdfrwt beam="1">  1        2 0.17747174E+00 0.28488656E+03</pdfrwt>
<pdfrwt beam="2">  1       -2 0.27060014E-02 0.28488656E+03</pdfrwt>
<totfact> 0.10495195E+04</totfact>
</mgrwt>
</event>
<event>
 9    1  0.7816570E-001  0.2734885E+03  0.7818608E-02  0.1099300E+00
          2   -1    0    0  501    0  0.00000000000E+00  0.00000000000E+00  0.12087874537E+03  0.12087874537E+03  0.00000000000E+00 0.  1.
         -2   -1    0    0    0  501 -0.00000000000E+00 -0.00000000000E+00 -0.15469209472E+03  0.15469209472E+03  0.00000000000E+00 0.  1.
         35    2    1    2    0    0  0.00000000000E+00 -0.14210854715E-13 -0.33813349355E+02  0.27557084009E+03  0.27348847382E+03 0.  0.
         25    2    3    3    0    0  0.18836448116E+02  0.52959190823E+02 -0.14405652473E+02  0.13770140018E+03  0.12487860153E+03 0.  0.
         25    2    3    3    0    0 -0.18836448116E+02 -0.52959190823E+02 -0.19407696882E+02  0.13786943990E+03  0.12438583557E+03 0.  0.
          5    1    4    4  502    0 -0.10185239371E-01 -0.38018935105E+02 -0.22320825920E+02  0.44336765782E+02  0.47000000000E+01 0. -1.
         -5    1    4    4    0  502  0.18846633355E+02  0.90978125928E+02  0.79151734477E+01  0.93364634402E+02  0.47000000000E+01 0. -1.
          5    1    5    5  503    0 -0.45893235325E+02  0.20472910702E+02 -0.30066920551E+02  0.58748947503E+02  0.47000000000E+01 0.  1.
         -5    1    5    5    0  503  0.27056787209E+02 -0.73432101525E+02  0.10659223669E+02  0.79120492401E+02  0.47000000000E+01 0.  1.
<mgrwt>
<rscale>  0 0.27348847E+03</rscale>
<asrwt>0</asrwt>
<pdfrwt beam="1">  1        2 0.18596730E-01 0.27348847E+03</pdfrwt>
<pdfrwt beam="2">  1       -2 0.23798784E-01 0.27348847E+03</pdfrwt>
<totfact> 0.46564329E+03</totfact>
</mgrwt>
</event>
<event>
 9    1  0.7816570E-001  0.2722602E+03  0.7818608E-02  0.1099993E+00
          2   -1    0    0  501    0  0.00000000000E+00  0.00000000000E+00  0.55010457336E+02  0.55010457336E+02  0.00000000000E+00 0.  1.
         -2   -1    0    0    0  501 -0.00000000000E+00 -0.00000000000E+00 -0.33687050121E+03  0.33687050121E+03  0.00000000000E+00 0.  1.
         35    2    1    2    0    0  0.14210854715E-13  0.00000000000E+00 -0.28186004388E+03  0.39188095855E+03  0.27226017215E+03 0.  0.
         25    2    3    3    0    0  0.46132085339E+02  0.17078642382E+02 -0.12933629621E+03  0.18832045319E+03  0.12773748959E+03 0.  0.
         25    2    3    3    0    0 -0.46132085339E+02 -0.17078642382E+02 -0.15252374766E+03  0.20356050536E+03  0.12551309262E+03 0.  0.
          5    1    4    4  502    0  0.43562783193E+02  0.48626813264E+02 -0.11805385672E+02  0.66511203407E+02  0.47000000000E+01 0. -1.
         -5    1    4    4    0  502  0.25693021462E+01 -0.31548170882E+02 -0.11753091054E+03  0.12180924978E+03  0.47000000000E+01 0. -1.
          5    1    5    5  503    0 -0.69789397599E+02 -0.48590956550E+02 -0.13622984141E+03  0.16066207009E+03  0.47000000000E+01 0. -1.
         -5    1    5    5    0  503  0.23657312259E+02  0.31512314168E+02 -0.16293906253E+02  0.42898435269E+02  0.47000000000E+01 0. -1.
<mgrwt>
<rscale>  0 0.27226017E+03</rscale>
<asrwt>0</asrwt>
<pdfrwt beam="1">  1        2 0.84631474E-02 0.27226017E+03</pdfrwt>
<pdfrwt beam="2">  1       -2 0.51826231E-01 0.27226017E+03</pdfrwt>
<totfact> 0.28162060E+03</totfact>
</mgrwt>
</event>
<event>
 9    1  0.7816570E-001  0.2754715E+03  0.7818608E-02  0.1098188E+00
          2   -1    0    0  501    0  0.00000000000E+00  0.00000000000E+00  0.68811271211E+03  0.68811271211E+03  0.00000000000E+00 0. -1.
         -2   -1    0    0    0  501 -0.00000000000E+00 -0.00000000000E+00 -0.27569801906E+02  0.27569801906E+02  0.00000000000E+00 0. -1.
         35    2    1    2    0    0  0.00000000000E+00  0.35527136788E-14  0.66054291021E+03  0.71568251402E+03  0.27547145886E+03 0.  0.
         25    2    3    3    0    0  0.40130651634E+02 -0.64326768564E+01  0.43895532989E+03  0.45817429750E+03  0.12486014863E+03 0.  0.
         25    2    3    3    0    0 -0.40130651634E+02  0.64326768564E+01  0.22158758032E+03  0.25750821652E+03  0.12473001761E+03 0.  0.
          5    1    4    4  502    0  0.36033112792E+02  0.45929328962E+02  0.34918219043E+03  0.35405957209E+03  0.47000000000E+01 0. -1.
         -5    1    4    4    0  502  0.40975388425E+01 -0.52362005818E+02  0.89773139457E+02  0.10411472540E+03  0.47000000000E+01 0. -1.
          5    1    5    5  503    0 -0.23264429575E+02 -0.27256442498E+02  0.36924923768E+01  0.36330040477E+02  0.47000000000E+01 0.  1.
         -5    1    5    5    0  503 -0.16866222059E+02  0.33689119354E+02  0.21789508794E+03  0.22117817604E+03  0.47000000000E+01 0.  1.
<mgrwt>
<rscale>  0 0.27547146E+03</rscale>
<asrwt>0</asrwt>
<pdfrwt beam="1">  1        2 0.10586348E+00 0.27547146E+03</pdfrwt>
<pdfrwt beam="2">  1       -2 0.42415085E-02 0.27547146E+03</pdfrwt>
<totfact> 0.10728600E+04</totfact>
</mgrwt>
</event>
<event>
 9    1  0.7816570E-001  0.2744449E+03  0.7818608E-02  0.1098762E+00
          2   -1    0    0  501    0  0.00000000000E+00  0.00000000000E+00  0.38827734561E+03  0.38827734561E+03  0.00000000000E+00 0. -1.
         -2   -1    0    0    0  501 -0.00000000000E+00 -0.00000000000E+00 -0.48496250945E+02  0.48496250945E+02  0.00000000000E+00 0. -1.
         35    2    1    2    0    0  0.71054273576E-14  0.88817841970E-15  0.33978109467E+03  0.43677359656E+03  0.27444486214E+03 0.  0.
         25    2    3    3    0    0  0.51217115795E+02 -0.55949670544E+01  0.20358918509E+03  0.24430063404E+03  0.12481885634E+03 0.  0.
         25    2    3    3    0    0 -0.51217115795E+02  0.55949670544E+01  0.13619190958E+03  0.19247296252E+03  0.12586941035E+03 0.  0.
          5    1    4    4  502    0 -0.48934029172E+01 -0.87179067103E+01  0.18440161633E+03  0.18473222079E+03  0.47000000000E+01 0.  1.
         -5    1    4    4    0  502  0.56110518712E+02  0.31229396559E+01  0.19187568757E+02  0.59568413250E+02  0.47000000000E+01 0.  1.
          5    1    5    5  503    0 -0.85848907712E+02 -0.23546860654E+01  0.50866605599E+02  0.99925377492E+02  0.47000000000E+01 0. -1.
         -5    1    5    5    0  503  0.34631791917E+02  0.79496531199E+01  0.85325303978E+02  0.92547585030E+02  0.47000000000E+01 0. -1.
<mgrwt>
<rscale>  0 0.27444486E+03</rscale>
<asrwt>0</asrwt>
<pdfrwt beam="1">  1        2 0.59734974E-01 0.27444486E+03</pdfrwt>
<pdfrwt beam="2">  1       -2 0.74609619E-02 0.27444486E+03</pdfrwt>
<totfact> 0.86411730E+03</totfact>
</mgrwt>
</event>
<event>
 9    1  0.7816570E-001  0.2967253E+03  0.7818608E-02  0.1086889E+00
         -4   -1    0    0    0  501 -0.00000000000E+00  0.00000000000E+00  0.15357942418E+03  0.15357942418E+03  0.00000000000E+00 0.  1.
          4   -1    0    0  501    0  0.00000000000E+00 -0.00000000000E+00 -0.14332306393E+03  0.14332306393E+03  0.00000000000E+00 0.  1.
         35    2    1    2    0    0  0.00000000000E+00  0.71054273576E-14  0.10256360251E+02  0.29690248810E+03  0.29672528459E+03 0.  0.
         25    2    3    3    0    0  0.60398573695E+02  0.33992037655E+02  0.42477942856E+02  0.14920641902E+03  0.12511887754E+03 0.  0.
         25    2    3    3    0    0 -0.60398573695E+02 -0.33992037655E+02 -0.32221582604E+02  0.14769606909E+03  0.12638216690E+03 0.  0.
          5    1    4    4  502    0  0.74886498336E+02  0.52102424271E+02 -0.97492664752E+01  0.91868321225E+02  0.47000000000E+01 0. -1.
         -5    1    4    4    0  502 -0.14487924640E+02 -0.18110386616E+02  0.52227209331E+02  0.57338097791E+02  0.47000000000E+01 0. -1.
          5    1    5    5  503    0  0.14141958771E+02  0.36235614623E+02  0.29989242768E+01  0.39295016374E+02  0.47000000000E+01 0.  1.
         -5    1    5    5    0  503 -0.74540532466E+02 -0.70227652278E+02 -0.35220506881E+02  0.10840105272E+03  0.47000000000E+01 0.  1.
<mgrwt>
<rscale>  0 0.29672528E+03</rscale>
<asrwt>0</asrwt>
<pdfrwt beam="1">  1        4 0.22049702E-01 0.29672528E+03</pdfrwt>
<pdfrwt beam="2">  1       -4 0.23627604E-01 0.29672528E+03</pdfrwt>
<totfact> 0.59471781E+02</totfact>
</mgrwt>
</event>
<event>
 9    1  0.7816570E-001  0.2728176E+03  0.7818608E-02  0.1099678E+00
          1   -1    0    0  501    0  0.00000000000E+00  0.00000000000E+00  0.12987230437E+03  0.12987230437E+03  0.00000000000E+00 0.  1.
         -1   -1    0    0    0  501 -0.00000000000E+00 -0.00000000000E+00 -0.14327424359E+03  0.14327424359E+03  0.00000000000E+00 0.  1.
         35    2    1    2    0    0 -0.71054273576E-14  0.00000000000E+00 -0.13401939224E+02  0.27314654797E+03  0.27281756668E+03 0.  0.
         25    2    3    3    0    0 -0.23973413307E+02 -0.41398782543E+02 -0.39216925641E+01  0.13956996249E+03  0.13105651840E+03 0.  0.
         25    2    3    3    0    0  0.23973413307E+02  0.41398782543E+02 -0.94802466602E+01  0.13357658548E+03  0.12435531902E+03 0.  0.
          5    1    4    4  502    0  0.22574051847E+02 -0.41705795490E+02 -0.53333682041E+02  0.71522953199E+02  0.47000000000E+01 0. -1.
         -5    1    4    4    0  502 -0.46547465155E+02  0.30701294687E+00  0.49411989476E+02  0.68047009290E+02  0.47000000000E+01 0. -1.
          5    1    5    5  503    0  0.53210231815E+02  0.22815118060E+02  0.41764858686E+02  0.71541958339E+02  0.47000000000E+01 0. -1.
         -5    1    5    5    0  503 -0.29236818508E+02  0.18583664483E+02 -0.51245105347E+02  0.62034627138E+02  0.47000000000E+01 0. -1.
<mgrwt>
<rscale>  0 0.27281757E+03</rscale>
<asrwt>0</asrwt>
<pdfrwt beam="1">  1        1 0.19980355E-01 0.27281757E+03</pdfrwt>
<pdfrwt beam="2">  1       -1 0.22042191E-01 0.27281757E+03</pdfrwt>
<totfact> 0.43628591E+03</totfact>
</mgrwt>
</event>
<event>
 9    1  0.7816570E-001  0.2771393E+03  0.7818608E-02  0.1097262E+00
         -1   -1    0    0    0  501 -0.00000000000E+00  0.00000000000E+00  0.90844717744E+02  0.90844717744E+02  0.00000000000E+00 0. -1.
          1   -1    0    0  501    0  0.00000000000E+00 -0.00000000000E+00 -0.21136669259E+03  0.21136669259E+03  0.00000000000E+00 0. -1.
         35    2    1    2    0    0  0.00000000000E+00 -0.14210854715E-13 -0.12052197485E+03  0.30221141033E+03  0.27713929731E+03 0.  0.
         25    2    3    3    0    0 -0.75036047261E+01 -0.35285176706E+02 -0.10666178861E+02  0.13191187842E+03  0.12643428537E+03 0.  0.
         25    2    3    3    0    0  0.75036047261E+01  0.35285176706E+02 -0.10985579599E+03  0.17029953192E+03  0.12502914412E+03 0.  0.
          5    1    4    4  502    0 -0.30768281952E+02 -0.60067416468E+02 -0.46659397326E+02  0.82182547139E+02  0.47000000000E+01 0. -1.
         -5    1    4    4    0  502  0.23264677226E+02  0.24782239762E+02  0.35993218465E+02  0.49729331280E+02  0.47000000000E+01 0. -1.
          5    1    5    5  503    0 -0.50379155915E+02 -0.20794143742E+01 -0.80849404059E+02  0.95399682660E+02  0.47000000000E+01 0. -1.
         -5    1    5    5    0  503  0.57882760641E+02  0.37364591080E+02 -0.29006391926E+02  0.74899849256E+02  0.47000000000E+01 0. -1.
<mgrwt>
<rscale>  0 0.27713930E+03</rscale>
<asrwt>0</asrwt>
<pdfrwt beam="1">  1        1 0.32517953E-01 0.27713930E+03</pdfrwt>
<pdfrwt beam="2">  1       -1 0.13976110E-01 0.27713930E+03</pdfrwt>
<totfact> 0.48870451E+03</totfact>
</mgrwt>
</event>
<event>
 9    1  0.7816570E-001  0.2752494E+03  0.7818608E-02  0.1098312E+00
          1   -1    0    0  501    0  0.00000000000E+00  0.00000000000E+00  0.12216338409E+04  0.12216338409E+04  0.00000000000E+00 0. -1.
         -1   -1    0    0    0  501 -0.00000000000E+00 -0.00000000000E+00 -0.15504285334E+02  0.15504285334E+02  0.00000000000E+00 0. -1.
         35    2    1    2    0    0 -0.71054273576E-14  0.00000000000E+00  0.12061295556E+04  0.12371381263E+04  0.27524941158E+03 0.  0.
         25    2    3    3    0    0 -0.85086147141E+01 -0.21977952354E+02  0.36527038729E+03  0.38678067940E+03  0.12498564402E+03 0.  0.
         25    2    3    3    0    0  0.85086147141E+01  0.21977952354E+02  0.84085916831E+03  0.85035744687E+03  0.12453200232E+03 0.  0.
          5    1    4    4  502    0  0.56108511142E+02  0.16041914619E+01  0.13152858414E+03  0.14308248285E+03  0.47000000000E+01 0.  1.
         -5    1    4    4    0  502 -0.64617125856E+02 -0.23582143816E+02  0.23374180315E+03  0.24369819655E+03  0.47000000000E+01 0.  1.
          5    1    5    5  503    0 -0.34538969649E+02  0.97919017128E+01  0.76076410747E+02  0.84252786516E+02  0.47000000000E+01 0. -1.
         -5    1    5    5    0  503  0.43047584363E+02  0.12186050641E+02  0.76478275757E+03  0.76610466036E+03  0.47000000000E+01 0. -1.
<mgrwt>
<rscale>  0 0.27524941E+03</rscale>
<asrwt>0</asrwt>
<pdfrwt beam="1">  1        1 0.18794359E+00 0.27524941E+03</pdfrwt>
<pdfrwt beam="2">  1       -1 0.23852756E-02 0.27524941E+03</pdfrwt>
<totfact> 0.58516130E+03</totfact>
</mgrwt>
</event>
<event>
 9    1  0.7816570E-001  0.2733911E+03  0.7818608E-02  0.1099354E+00
          2   -1    0    0  501    0  0.00000000000E+00  0.00000000000E+00  0.14114318388E+04  0.14114318388E+04  0.00000000000E+00 0. -1.
         -2   -1    0    0    0  501 -0.00000000000E+00 -0.00000000000E+00 -0.13238807935E+02  0.13238807935E+02  0.00000000000E+00 0. -1.
         35    2    1    2    0    0 -0.71054273576E-14  0.00000000000E+00  0.13981930309E+04  0.14246706468E+04  0.27339111198E+03 0.  0.
         25    2    3    3    0    0 -0.13606091608E+02 -0.21145640198E+02  0.44187042362E+03  0.45995692936E+03  0.12521438322E+03 0.  0.
         25    2    3    3    0    0  0.13606091608E+02  0.21145640198E+02  0.95632260726E+03  0.96471371740E+03  0.12444823639E+03 0.  0.
          5    1    4    4  502    0 -0.24810104377E+01  0.50648259154E+02  0.12811196034E+03  0.13786285196E+03  0.47000000000E+01 0. -1.
         -5    1    4    4    0  502 -0.11125081171E+02 -0.71793899352E+02  0.31375846329E+03  0.32209407741E+03  0.47000000000E+01 0. -1.
          5    1    5    5  503    0 -0.34960282516E+02  0.43045068621E+02  0.73163600264E+03  0.73374956876E+03  0.47000000000E+01 0.  1.
         -5    1    5    5    0  503  0.48566374125E+02 -0.21899428423E+02  0.22468660462E+03  0.23096414864E+03  0.47000000000E+01 0.  1.
<mgrwt>
<rscale>  0 0.27339111E+03</rscale>
<asrwt>0</asrwt>
<pdfrwt beam="1">  1        2 0.21714324E+00 0.27339111E+03</pdfrwt>
<pdfrwt beam="2">  1       -2 0.20367408E-02 0.27339111E+03</pdfrwt>
<totfact> 0.11460018E+04</totfact>
</mgrwt>
</event>
<event>
 9    1  0.7816570E-001  0.2757402E+03  0.7818608E-02  0.1098039E+00
         -3   -1    0    0    0  501 -0.00000000000E+00  0.00000000000E+00  0.11917327281E+02  0.11917327281E+02  0.00000000000E+00 0.  1.
          3   -1    0    0  501    0  0.00000000000E+00 -0.00000000000E+00 -0.15950020664E+04  0.15950020664E+04  0.00000000000E+00 0.  1.
         35    2    1    2    0    0  0.17763568394E-14 -0.35527136788E-14 -0.15830847391E+04  0.16069193937E+04  0.27574017944E+03 0.  0.
         25    2    3    3    0    0  0.11483586315E+02 -0.39711025389E+01 -0.11437438810E+04  0.11506248551E+04  0.12505938378E+03 0.  0.
         25    2    3    3    0    0 -0.11483586315E+02  0.39711025389E+01 -0.43934085816E+03  0.45629453861E+03  0.12262411633E+03 0.  0.
          5    1    4    4  502    0 -0.98536111518E+01  0.49502551369E+02 -0.25407229119E+03  0.25907994016E+03  0.47000000000E+01 0. -1.
         -5    1    4    4    0  502  0.21337197466E+02 -0.53473653908E+02 -0.88967158978E+03  0.89154491492E+03  0.47000000000E+01 0. -1.
          5    1    5    5  503    0 -0.13919232568E+02  0.26737068779E+02 -0.43006851712E+03  0.43114920306E+03  0.47000000000E+01 0. -1.
         -5    1    5    5    0  503  0.24356462538E+01 -0.22765966240E+02 -0.92723410418E+01  0.25145335549E+02  0.47000000000E+01 0. -1.
<mgrwt>
<rscale>  0 0.27574018E+03</rscale>
<asrwt>0</asrwt>
<pdfrwt beam="1">  1        3 0.24538491E+00 0.27574018E+03</pdfrwt>
<pdfrwt beam="2">  1       -3 0.18334352E-02 0.27574018E+03</pdfrwt>
<totfact> 0.24196283E+02</totfact>
</mgrwt>
</event>
<event>
 9    1  0.7816570E-001  0.2643911E+03  0.7818608E-02  0.1104533E+00
         -2   -1    0    0    0  501 -0.00000000000E+00  0.00000000000E+00  0.53303436142E+03  0.53303436142E+03  0.00000000000E+00 0. -1.
          2   -1    0    0  501    0  0.00000000000E+00 -0.00000000000E+00 -0.32785258263E+02  0.32785258263E+02  0.00000000000E+00 0. -1.
         35    2    1    2    0    0 -0.35527136788E-14  0.00000000000E+00  0.50024910315E+03  0.56581961968E+03  0.26439114359E+03 0.  0.
         25    2    3    3    0    0  0.26634424171E+02 -0.25690118774E+02  0.21190838401E+03  0.24895517286E+03  0.12531616067E+03 0.  0.
         25    2    3    3    0    0 -0.26634424171E+02  0.25690118774E+02  0.28834071914E+03  0.31686444682E+03  0.12606876136E+03 0.  0.
          5    1    4    4  502    0  0.56402059280E+02 -0.58024312079E+02  0.10059831489E+03  0.12919026295E+03  0.47000000000E+01 0. -1.
         -5    1    4    4    0  502 -0.29767635110E+02  0.32334193305E+02  0.11131006912E+03  0.11976490991E+03  0.47000000000E+01 0. -1.
          5    1    5    5  503    0 -0.47090518432E+02  0.55821577738E+02  0.94227086846E+02  0.11930800209E+03  0.47000000000E+01 0.  1.
         -5    1    5    5    0  503  0.20456094261E+02 -0.30131458964E+02  0.19411363229E+03  0.19755644473E+03  0.47000000000E+01 0.  1.
<mgrwt>
<rscale>  0 0.26439114E+03</rscale>
<asrwt>0</asrwt>
<pdfrwt beam="1">  1        2 0.50438863E-02 0.26439114E+03</pdfrwt>
<pdfrwt beam="2">  1       -2 0.82005280E-01 0.26439114E+03</pdfrwt>
<totfact> 0.20872941E+03</totfact>
</mgrwt>
</event>
<event>
 9    1  0.7816570E-001  0.2700067E+03  0.7818608E-02  0.1101276E+00
          2   -1    0    0  501    0  0.00000000000E+00  0.00000000000E+00  0.13196697169E+04  0.13196697169E+04  0.00000000000E+00 0. -1.
         -2   -1    0    0    0  501 -0.00000000000E+00 -0.00000000000E+00 -0.13810960062E+02  0.13810960062E+02  0.00000000000E+00 0. -1.
         35    2    1    2    0    0  0.35527136788E-14  0.00000000000E+00  0.13058587569E+04  0.13334806770E+04  0.27000670922E+03 0.  0.
         25    2    3    3    0    0  0.18272769521E+02  0.49079504990E+02  0.66407976656E+03  0.67730881009E+03  0.12248508466E+03 0.  0.
         25    2    3    3    0    0 -0.18272769521E+02 -0.49079504990E+02  0.64177899030E+03  0.65617186689E+03  0.12624798845E+03 0.  0.
          5    1    4    4  502    0  0.55312779532E+02  0.27886171496E+02  0.57581580737E+03  0.57915721195E+03  0.47000000000E+01 0.  1.
         -5    1    4    4    0  502 -0.37040010011E+02  0.21193333494E+02  0.88263959187E+02  0.98151598141E+02  0.47000000000E+01 0.  1.
          5    1    5    5  503    0 -0.11468883946E+02  0.35684858124E+02  0.35526576762E+03  0.35726852652E+03  0.47000000000E+01 0. -1.
         -5    1    5    5    0  503 -0.68038855750E+01 -0.84764363114E+02  0.28651322268E+03  0.29890334037E+03  0.47000000000E+01 0. -1.
<mgrwt>
<rscale>  0 0.27000671E+03</rscale>
<asrwt>0</asrwt>
<pdfrwt beam="1">  1        2 0.20302601E+00 0.27000671E+03</pdfrwt>
<pdfrwt beam="2">  1       -2 0.21247641E-02 0.27000671E+03</pdfrwt>
<totfact> 0.12081514E+04</totfact>
</mgrwt>
</event>
<event>
 9    1  0.7816570E-001  0.2750709E+03  0.7818608E-02  0.1098412E+00
          2   -1    0    0  501    0  0.00000000000E+00  0.00000000000E+00  0.56598277871E+03  0.56598277871E+03  0.00000000000E+00 0. -1.
         -2   -1    0    0    0  501 -0.00000000000E+00 -0.00000000000E+00 -0.33421505486E+02  0.33421505486E+02  0.00000000000E+00 0. -1.
         35    2    1    2    0    0 -0.10658141036E-13  0.00000000000E+00  0.53256127323E+03  0.59940428420E+03  0.27507087482E+03 0.  0.
         25    2    3    3    0    0 -0.30967215490E+02  0.31172027144E+02  0.34266403737E+03  0.36757448302E+03  0.12554558672E+03 0.  0.
         25    2    3    3    0    0  0.30967215490E+02 -0.31172027144E+02  0.18989723585E+03  0.23182980118E+03  0.12551267992E+03 0.  0.
          5    1    4    4  502    0  0.14431223169E+02  0.27688601859E+02  0.30935955765E+03  0.31096679048E+03  0.47000000000E+01 0. -1.
         -5    1    4    4    0  502 -0.45398438659E+02  0.34834252860E+01  0.33304479727E+02  0.56607692536E+02  0.47000000000E+01 0. -1.
          5    1    5    5  503    0 -0.31730196279E+02  0.29567883676E+02  0.82739757471E+02  0.93536209926E+02  0.47000000000E+01 0. -1.
         -5    1    5    5    0  503  0.62697411770E+02 -0.60739910820E+02  0.10715747838E+03  0.13829359126E+03  0.47000000000E+01 0. -1.
<mgrwt>
<rscale>  0 0.27507087E+03</rscale>
<asrwt>0</asrwt>
<pdfrwt beam="1">  1        2 0.87074266E-01 0.27507087E+03</pdfrwt>
<pdfrwt beam="2">  1       -2 0.51417705E-02 0.27507087E+03</pdfrwt>
<totfact> 0.10081973E+04</totfact>
</mgrwt>
</event>
<event>
 9    1  0.7816570E-001  0.2690135E+03  0.7818608E-02  0.1101846E+00
         -1   -1    0    0    0  501 -0.00000000000E+00  0.00000000000E+00  0.49242198013E+02  0.49242198013E+02  0.00000000000E+00 0. -1.
          1   -1    0    0  501    0  0.00000000000E+00 -0.00000000000E+00 -0.36740976557E+03  0.36740976557E+03  0.00000000000E+00 0. -1.
         35    2    1    2    0    0 -0.71054273576E-14  0.17763568394E-14 -0.31816756756E+03  0.41665196358E+03  0.26901348983E+03 0.  0.
         25    2    3    3    0    0  0.45361601231E+02  0.15717789105E+02 -0.17672322530E+03  0.22091144764E+03  0.12355583992E+03 0.  0.
         25    2    3    3    0    0 -0.45361601231E+02 -0.15717789105E+02 -0.14144434226E+03  0.19574051594E+03  0.12650345396E+03 0.  0.
          5    1    4    4  502    0 -0.28467697339E+02 -0.20821006049E+02 -0.10741406007E+03  0.11315385272E+03  0.47000000000E+01 0. -1.
         -5    1    4    4    0  502  0.73829298569E+02  0.36538795154E+02 -0.69309165230E+02  0.10775759492E+03  0.47000000000E+01 0. -1.
          5    1    5    5  503    0 -0.66592586244E+02 -0.29394285948E+02 -0.15150677073E+03  0.16815168202E+03  0.47000000000E+01 0. -1.
         -5    1    5    5    0  503  0.21230985014E+02  0.13676496843E+02  0.10062428470E+02  0.27588833923E+02  0.47000000000E+01 0. -1.
<mgrwt>
<rscale>  0 0.26901349E+03</rscale>
<asrwt>0</asrwt>
<pdfrwt beam="1">  1        1 0.56524579E-01 0.26901349E+03</pdfrwt>
<pdfrwt beam="2">  1       -1 0.75757229E-02 0.26901349E+03</pdfrwt>
<totfact> 0.62841478E+03</totfact>
</mgrwt>
</event>
<event>
 8    1  0.7816570E-001  0.3960200E+03  0.7818608E-02  0.1045167E+00
          2   -1    0    0  501    0  0.00000000000E+00  0.00000000000E+00  0.20663014914E+03  0.20663014914E+03  0.00000000000E+00 0.  1.
         -2   -1    0    0    0  501 -0.00000000000E+00 -0.00000000000E+00 -0.18974943740E+03  0.18974943740E+03  0.00000000000E+00 0.  1.
         25    2    1    2    0    0  0.37539867809E+02 -0.95970439576E+02 -0.10608440974E+03  0.19371303984E+03  0.12510504733E+03 0.  0.
         25    2    1    2    0    0 -0.37539867809E+02  0.95970439576E+02  0.12296512149E+03  0.20266654670E+03  0.12382948397E+03 0.  0.
          5    1    3    3  502    0  0.50688399034E+02 -0.12686130550E+02 -0.95024806115E+02  0.10854517715E+03  0.47000000000E+01 0.  1.
         -5    1    3    3    0  502 -0.13148531225E+02 -0.83284309026E+02 -0.11059603626E+02  0.85167862693E+02  0.47000000000E+01 0.  1.
          5    1    4    4  503    0 -0.41359531662E+02  0.62409475301E+02 -0.43930141131E-01  0.75017633904E+02  0.47000000000E+01 0.  1.
         -5    1    4    4    0  503  0.38196638531E+01  0.33560964274E+02  0.12300905163E+03  0.12764891279E+03  0.47000000000E+01 0.  1.
<mgrwt>
<rscale>  0 0.39601997E+03</rscale>
<asrwt>0</asrwt>
<pdfrwt beam="1">  1        2 0.31789254E-01 0.39601997E+03</pdfrwt>
<pdfrwt beam="2">  1       -2 0.29192221E-01 0.39601997E+03</pdfrwt>
<totfact> 0.17799361E+03</totfact>
</mgrwt>
</event>
<event>
 9    1  0.7816570E-001  0.2749150E+03  0.7818608E-02  0.1098499E+00
         -2   -1    0    0    0  501 -0.00000000000E+00  0.00000000000E+00  0.41776332375E+02  0.41776332375E+02  0.00000000000E+00 0.  1.
          2   -1    0    0  501    0  0.00000000000E+00 -0.00000000000E+00 -0.45227920229E+03  0.45227920229E+03  0.00000000000E+00 0.  1.
         35    2    1    2    0    0  0.00000000000E+00  0.00000000000E+00 -0.41050286992E+03  0.49405553467E+03  0.27491501437E+03 0.  0.
         25    2    3    3    0    0  0.29733666378E+02 -0.14522416427E+01 -0.12275503225E+03  0.17762000865E+03  0.12487541636E+03 0.  0.
         25    2    3    3    0    0 -0.29733666378E+02  0.14522416427E+01 -0.28774783767E+03  0.31643552601E+03  0.12824361238E+03 0.  0.
          5    1    4    4  502    0  0.50483187716E+02  0.16568558221E+02 -0.16697903381E+01  0.53366164967E+02  0.47000000000E+01 0. -1.
         -5    1    4    4    0  502 -0.20749521338E+02 -0.18020799863E+02 -0.12108524191E+03  0.12425384369E+03  0.47000000000E+01 0. -1.
          5    1    5    5  503    0 -0.76136794799E+02 -0.66162729079E+01 -0.22609570052E+03  0.23870890722E+03  0.47000000000E+01 0. -1.
         -5    1    5    5    0  503  0.46403128422E+02  0.80685145506E+01 -0.61652137149E+02  0.77726618796E+02  0.47000000000E+01 0. -1.
<mgrwt>
<rscale>  0 0.27491501E+03</rscale>
<asrwt>0</asrwt>
<pdfrwt beam="1">  1        2 0.69581411E-01 0.27491501E+03</pdfrwt>
<pdfrwt beam="2">  1       -2 0.64271285E-02 0.27491501E+03</pdfrwt>
<totfact> 0.92145272E+03</totfact>
</mgrwt>
</event>
<event>
 9    1  0.7816570E-001  0.2727777E+03  0.7818608E-02  0.1099700E+00
          1   -1    0    0  501    0  0.00000000000E+00  0.00000000000E+00  0.23231531957E+04  0.23231531957E+04  0.00000000000E+00 0. -1.
         -1   -1    0    0    0  501 -0.00000000000E+00 -0.00000000000E+00 -0.80071867326E+01  0.80071867326E+01  0.00000000000E+00 0. -1.
         35    2    1    2    0    0  0.00000000000E+00  0.00000000000E+00  0.23151460090E+04  0.23311603824E+04  0.27277772230E+03 0.  0.
         25    2    3    3    0    0 -0.32536724786E+01  0.24784737751E+02  0.82352549766E+03  0.83353419199E+03  0.12633342514E+03 0.  0.
         25    2    3    3    0    0  0.32536724786E+01 -0.24784737751E+02  0.14916205113E+04  0.14976261904E+04  0.13163429242E+03 0.  0.
          5    1    4    4  502    0  0.51413118203E+02  0.33838800781E+01  0.60510731860E+03  0.60731517056E+03  0.47000000000E+01 0.  1.
         -5    1    4    4    0  502 -0.54666790682E+02  0.21400857673E+02  0.21841817906E+03  0.22621902143E+03  0.47000000000E+01 0.  1.
          5    1    5    5  503    0  0.56442482437E+02 -0.17720036842E+02  0.11718134112E+04  0.11733151811E+04  0.47000000000E+01 0. -1.
         -5    1    5    5    0  503 -0.53188809958E+02 -0.70647009095E+01  0.31980710016E+03  0.32431100940E+03  0.47000000000E+01 0. -1.
<mgrwt>
<rscale>  0 0.27277772E+03</rscale>
<asrwt>0</asrwt>
<pdfrwt beam="1">  1        1 0.35740765E+00 0.27277772E+03</pdfrwt>
<pdfrwt beam="2">  1       -1 0.12318767E-02 0.27277772E+03</pdfrwt>
<totfact> 0.28854918E+03</totfact>
</mgrwt>
</event>
<event>
 9    1  0.7816570E-001  0.2744025E+03  0.7818608E-02  0.1098786E+00
         -2   -1    0    0    0  501 -0.00000000000E+00  0.00000000000E+00  0.24999552800E+03  0.24999552800E+03  0.00000000000E+00 0. -1.
          2   -1    0    0  501    0  0.00000000000E+00 -0.00000000000E+00 -0.75298085592E+02  0.75298085592E+02  0.00000000000E+00 0. -1.
         35    2    1    2    0    0 -0.71054273576E-14  0.00000000000E+00  0.17469744240E+03  0.32529361359E+03  0.27440251212E+03 0.  0.
         25    2    3    3    0    0  0.44309687053E+02  0.65643041297E+01  0.41597209480E+02  0.13797223493E+03  0.12369143592E+03 0.  0.
         25    2    3    3    0    0 -0.44309687053E+02 -0.65643041297E+01  0.13310023292E+03  0.18732137866E+03  0.12396446443E+03 0.  0.
          5    1    4    4  502    0  0.27557748389E+01  0.61898707644E+02  0.17666261155E+02  0.64600550200E+02  0.47000000000E+01 0.  1.
         -5    1    4    4    0  502  0.41553912214E+02 -0.55334403514E+02  0.23930948324E+02  0.73371684731E+02  0.47000000000E+01 0.  1.
          5    1    5    5  503    0 -0.48797347586E+02 -0.59923978992E+02  0.87463213586E+02  0.11680739754E+03  0.47000000000E+01 0.  1.
         -5    1    5    5    0  503  0.44876605328E+01  0.53359674863E+02  0.45637019338E+02  0.70513981114E+02  0.47000000000E+01 0.  1.
<mgrwt>
<rscale>  0 0.27440251E+03</rscale>
<asrwt>0</asrwt>
<pdfrwt beam="1">  1        2 0.11584321E-01 0.27440251E+03</pdfrwt>
<pdfrwt beam="2">  1       -2 0.38460850E-01 0.27440251E+03</pdfrwt>
<totfact> 0.34118339E+03</totfact>
</mgrwt>
</event>
<event>
 9    1  0.7816570E-001  0.2763272E+03  0.7818608E-02  0.1097712E+00
         -1   -1    0    0    0  501 -0.00000000000E+00  0.00000000000E+00  0.14084565667E+03  0.14084565667E+03  0.00000000000E+00 0.  1.
          1   -1    0    0  501    0  0.00000000000E+00 -0.00000000000E+00 -0.13553261802E+03  0.13553261802E+03  0.00000000000E+00 0.  1.
         35    2    1    2    0    0  0.53290705182E-14  0.35527136788E-14  0.53130386505E+01  0.27637827469E+03  0.27632720159E+03 0.  0.
         25    2    3    3    0    0  0.13635246753E+02 -0.29353041454E+02  0.60669190857E+02  0.14186462290E+03  0.12408585542E+03 0.  0.
         25    2    3    3    0    0 -0.13635246753E+02  0.29353041454E+02 -0.55356152206E+02  0.13451365179E+03  0.11824592143E+03 0.  0.
          5    1    4    4  502    0  0.51481077789E+02  0.70262654047E+01  0.71049906965E+02  0.88146747278E+02  0.47000000000E+01 0. -1.
         -5    1    4    4    0  502 -0.37845831036E+02 -0.36379306859E+02 -0.10380716109E+02  0.53717875621E+02  0.47000000000E+01 0. -1.
          5    1    5    5  503    0 -0.35857407853E+01 -0.45907585371E+02 -0.25001476645E+02  0.52607297649E+02  0.47000000000E+01 0. -1.
         -5    1    5    5    0  503 -0.10049505968E+02  0.75260626825E+02 -0.30354675561E+02  0.81906354141E+02  0.47000000000E+01 0. -1.
<mgrwt>
<rscale>  0 0.27632720E+03</rscale>
<asrwt>0</asrwt>
<pdfrwt beam="1">  1        1 0.20851172E-01 0.27632720E+03</pdfrwt>
<pdfrwt beam="2">  1       -1 0.21668563E-01 0.27632720E+03</pdfrwt>
<totfact> 0.42488566E+03</totfact>
</mgrwt>
</event>
<event>
 9    1  0.7816570E-001  0.2748936E+03  0.7818608E-02  0.1098511E+00
         -4   -1    0    0    0  501 -0.00000000000E+00  0.00000000000E+00  0.14858610236E+02  0.14858610236E+02  0.00000000000E+00 0. -1.
          4   -1    0    0  501    0  0.00000000000E+00 -0.00000000000E+00 -0.12714259455E+04  0.12714259455E+04  0.00000000000E+00 0. -1.
         35    2    1    2    0    0  0.71054273576E-14 -0.35527136788E-14 -0.12565673353E+04  0.12862845557E+04  0.27489359810E+03 0.  0.
         25    2    3    3    0    0  0.57296248677E+02  0.37755109581E+01 -0.58014937806E+03  0.59617673661E+03  0.12472484040E+03 0.  0.
         25    2    3    3    0    0 -0.57296248677E+02 -0.37755109581E+01 -0.67641795720E+03  0.69010781912E+03  0.12413877154E+03 0.  0.
          5    1    4    4  502    0  0.31434635835E+02 -0.59704197010E+02 -0.32308698731E+03  0.33009092511E+03  0.47000000000E+01 0.  1.
         -5    1    4    4    0  502  0.25861612842E+02  0.63479707968E+02 -0.25706239075E+03  0.26608581150E+03  0.47000000000E+01 0.  1.
          5    1    5    5  503    0 -0.88900384807E+02 -0.28101240776E+02 -0.39758681506E+03  0.40839971065E+03  0.47000000000E+01 0.  1.
         -5    1    5    5    0  503  0.31604136130E+02  0.24325729818E+02 -0.27883114214E+03  0.28170810847E+03  0.47000000000E+01 0.  1.
<mgrwt>
<rscale>  0 0.27489360E+03</rscale>
<asrwt>0</asrwt>
<pdfrwt beam="1">  1        4 0.19560402E+00 0.27489360E+03</pdfrwt>
<pdfrwt beam="2">  1       -4 0.22859397E-02 0.27489360E+03</pdfrwt>
<totfact> 0.23712916E+02</totfact>
</mgrwt>
</event>
<event>
 9    1  0.7816570E-001  0.2742880E+03  0.7818608E-02  0.1098850E+00
          2   -1    0    0  501    0  0.00000000000E+00  0.00000000000E+00  0.25453408352E+02  0.25453408352E+02  0.00000000000E+00 0.  1.
         -2   -1    0    0    0  501 -0.00000000000E+00 -0.00000000000E+00 -0.73893768364E+03  0.73893768364E+03  0.00000000000E+00 0.  1.
         35    2    1    2    0    0  0.00000000000E+00  0.00000000000E+00 -0.71348427529E+03  0.76439109199E+03  0.27428804282E+03 0.  0.
         25    2    3    3    0    0  0.52002622393E+02 -0.10719338213E+02 -0.30070534596E+03  0.32987155503E+03  0.12478926549E+03 0.  0.
         25    2    3    3    0    0 -0.52002622393E+02  0.10719338213E+02 -0.41277892933E+03  0.43451953696E+03  0.12490639117E+03 0.  0.
          5    1    4    4  502    0 -0.19070739445E+02 -0.49766596278E+02 -0.13821499758E+03  0.14820891594E+03  0.47000000000E+01 0.  1.
         -5    1    4    4    0  502  0.71073361838E+02  0.39047258065E+02 -0.16249034838E+03  0.18166263910E+03  0.47000000000E+01 0.  1.
          5    1    5    5  503    0 -0.57321057505E+02  0.60859281246E+02 -0.28583755777E+03  0.29785022273E+03  0.47000000000E+01 0.  1.
         -5    1    5    5    0  503  0.53184351113E+01 -0.50139943033E+02 -0.12694137156E+03  0.13666931423E+03  0.47000000000E+01 0.  1.
<mgrwt>
<rscale>  0 0.27428804E+03</rscale>
<asrwt>0</asrwt>
<pdfrwt beam="1">  1        2 0.39159093E-02 0.27428804E+03</pdfrwt>
<pdfrwt beam="2">  1       -2 0.11368271E+00 0.27428804E+03</pdfrwt>
<totfact> 0.13797324E+03</totfact>
</mgrwt>
</event>
<event>
 9    1  0.7816570E-001  0.3018642E+03  0.7818608E-02  0.1084312E+00
         -2   -1    0    0    0  501 -0.00000000000E+00  0.00000000000E+00  0.12752969023E+03  0.12752969023E+03  0.00000000000E+00 0.  1.
          2   -1    0    0  501    0  0.00000000000E+00 -0.00000000000E+00 -0.17862892571E+03  0.17862892571E+03  0.00000000000E+00 0.  1.
         35    2    1    2    0    0  0.00000000000E+00  0.00000000000E+00 -0.51099235480E+02  0.30615861593E+03  0.30186415197E+03 0.  0.
         25    2    3    3    0    0 -0.12241084527E+02  0.67414760178E+02 -0.74112816227E+02  0.16109030319E+03  0.12554991920E+03 0.  0.
         25    2    3    3    0    0  0.12241084527E+02 -0.67414760178E+02  0.23013580748E+02  0.14506831274E+03  0.12577995239E+03 0.  0.
          5    1    4    4  502    0 -0.46095114476E+02 -0.40334491868E+01  0.77882456804E+01  0.47156919552E+02  0.47000000000E+01 0. -1.
         -5    1    4    4    0  502  0.33854029949E+02  0.71448209365E+02 -0.81901061908E+02  0.11393338364E+03  0.47000000000E+01 0. -1.
          5    1    5    5  503    0 -0.31135565708E+02  0.32296246223E+01 -0.32359166293E+02  0.45266539191E+02  0.47000000000E+01 0.  1.
         -5    1    5    5    0  503  0.43376650235E+02 -0.70644384801E+02  0.55372747041E+02  0.99801773553E+02  0.47000000000E+01 0.  1.
<mgrwt>
<rscale>  0 0.30186415E+03</rscale>
<asrwt>0</asrwt>
<pdfrwt beam="1">  1        2 0.27481373E-01 0.30186415E+03</pdfrwt>
<pdfrwt beam="2">  1       -2 0.19619952E-01 0.30186415E+03</pdfrwt>
<totfact> 0.41932965E+03</totfact>
</mgrwt>
</event>
<event>
 9    1  0.7816570E-001  0.2711941E+03  0.7818608E-02  0.1100598E+00
          1   -1    0    0  501    0  0.00000000000E+00  0.00000000000E+00  0.12339103013E+03  0.12339103013E+03  0.00000000000E+00 0. -1.
         -1   -1    0    0    0  501 -0.00000000000E+00 -0.00000000000E+00 -0.14901046694E+03  0.14901046694E+03  0.00000000000E+00 0. -1.
         35    2    1    2    0    0  0.71054273576E-14 -0.71054273576E-14 -0.25619436813E+02  0.27240149707E+03  0.27119406347E+03 0.  0.
         25    2    3    3    0    0  0.40203354932E+02 -0.17469661294E+02 -0.43002175704E+02  0.13907998804E+03  0.12479005226E+03 0.  0.
         25    2    3    3    0    0 -0.40203354932E+02  0.17469661294E+02  0.17382738891E+02  0.13332150903E+03  0.12470351376E+03 0.  0.
          5    1    4    4  502    0  0.50286014442E+02  0.79593016765E+01  0.31172776436E+02  0.59882098513E+02  0.47000000000E+01 0.  1.
         -5    1    4    4    0  502 -0.10082659509E+02 -0.25428962970E+02 -0.74174952140E+02  0.79197889527E+02  0.47000000000E+01 0.  1.
          5    1    5    5  503    0 -0.20615986588E+02  0.70061609479E+02  0.23031166710E+02  0.76721396401E+02  0.47000000000E+01 0.  1.
         -5    1    5    5    0  503 -0.19587368344E+02 -0.52591948185E+02 -0.56484278190E+01  0.56600112627E+02  0.47000000000E+01 0.  1.
<mgrwt>
<rscale>  0 0.27119406E+03</rscale>
<asrwt>0</asrwt>
<pdfrwt beam="1">  1        1 0.18983235E-01 0.27119406E+03</pdfrwt>
<pdfrwt beam="2">  1       -1 0.22924687E-01 0.27119406E+03</pdfrwt>
<totfact> 0.43686503E+03</totfact>
</mgrwt>
</event>
<event>
 9    1  0.7816570E-001  0.2781041E+03  0.7818608E-02  0.1096729E+00
          1   -1    0    0  501    0  0.00000000000E+00  0.00000000000E+00  0.84444642277E+01  0.84444642277E+01  0.00000000000E+00 0. -1.
         -1   -1    0    0    0  501 -0.00000000000E+00 -0.00000000000E+00 -0.22897222215E+04  0.22897222215E+04  0.00000000000E+00 0. -1.
         35    2    1    2    0    0 -0.35527136788E-14  0.00000000000E+00 -0.22812777573E+04  0.22981666858E+04  0.27810413439E+03 0.  0.
         25    2    3    3    0    0  0.64112877093E+01  0.51322122009E+02 -0.89099016514E+03  0.90128399128E+03  0.12559575526E+03 0.  0.
         25    2    3    3    0    0 -0.64112877093E+01 -0.51322122009E+02 -0.13902875922E+04  0.13968826945E+04  0.12532600847E+03 0.  0.
          5    1    4    4  502    0  0.40078457644E+02  0.47885407273E+02 -0.82114934058E+03  0.82353362076E+03  0.47000000000E+01 0. -1.
         -5    1    4    4    0  502 -0.33667169934E+02  0.34367147363E+01 -0.69840824561E+02  0.77750370513E+02  0.47000000000E+01 0. -1.
          5    1    5    5  503    0  0.10958683064E+02  0.36925280239E+02 -0.24439480252E+03  0.24745601338E+03  0.47000000000E+01 0.  1.
         -5    1    5    5    0  503 -0.17369970773E+02 -0.88247402248E+02 -0.11458927897E+04  0.11494266811E+04  0.47000000000E+01 0.  1.
<mgrwt>
<rscale>  0 0.27810413E+03</rscale>
<asrwt>0</asrwt>
<pdfrwt beam="1">  1        1 0.12991454E-02 0.27810413E+03</pdfrwt>
<pdfrwt beam="2">  1       -1 0.35226577E+00 0.27810413E+03</pdfrwt>
<totfact> 0.20136239E+02</totfact>
</mgrwt>
</event>
<event>
 9    1  0.7816570E-001  0.2772426E+03  0.7818608E-02  0.1097205E+00
         -1   -1    0    0    0  501 -0.00000000000E+00  0.00000000000E+00  0.10856548015E+02  0.10856548015E+02  0.00000000000E+00 0. -1.
          1   -1    0    0  501    0  0.00000000000E+00 -0.00000000000E+00 -0.17699787987E+04  0.17699787987E+04  0.00000000000E+00 0. -1.
         35    2    1    2    0    0  0.00000000000E+00  0.00000000000E+00 -0.17591222507E+04  0.17808353468E+04  0.27724256393E+03 0.  0.
         25    2    3    3    0    0 -0.37129963348E+01  0.27180506213E+01 -0.49112155703E+03  0.50675626834E+03  0.12482130260E+03 0.  0.
         25    2    3    3    0    0  0.37129963348E+01 -0.27180506213E+01 -0.12680006937E+04  0.12740790784E+04  0.12421982409E+03 0.  0.
          5    1    4    4  502    0 -0.49637908833E+02 -0.38377431503E+02 -0.26135896799E+03  0.26882587188E+03  0.47000000000E+01 0. -1.
         -5    1    4    4    0  502  0.45924912498E+02  0.41095482124E+02 -0.22976258904E+03  0.23793039646E+03  0.47000000000E+01 0. -1.
          5    1    5    5  503    0 -0.39195476937E+02  0.42018162922E+02 -0.44233026247E+03  0.44607170110E+03  0.47000000000E+01 0. -1.
         -5    1    5    5    0  503  0.42908473272E+02 -0.44736213544E+02 -0.82567043123E+03  0.82800737731E+03  0.47000000000E+01 0. -1.
<mgrwt>
<rscale>  0 0.27724256E+03</rscale>
<asrwt>0</asrwt>
<pdfrwt beam="1">  1        1 0.27230425E+00 0.27724256E+03</pdfrwt>
<pdfrwt beam="2">  1       -1 0.16702393E-02 0.27724256E+03</pdfrwt>
<totfact> 0.42471529E+03</totfact>
</mgrwt>
</event>
<event>
 9    1  0.7816570E-001  0.2739695E+03  0.7818608E-02  0.1099029E+00
          4   -1    0    0  501    0  0.00000000000E+00  0.00000000000E+00  0.29637970230E+03  0.29637970230E+03  0.00000000000E+00 0. -1.
         -4   -1    0    0    0  501 -0.00000000000E+00 -0.00000000000E+00 -0.63313428988E+02  0.63313428988E+02  0.00000000000E+00 0. -1.
         35    2    1    2    0    0 -0.17763568394E-14 -0.35527136788E-14  0.23306627331E+03  0.35969313128E+03  0.27396945257E+03 0.  0.
         25    2    3    3    0    0 -0.83030141392E+01 -0.23755054097E+02  0.50689747046E+02  0.14012360973E+03  0.12818710118E+03 0.  0.
         25    2    3    3    0    0  0.83030141392E+01  0.23755054097E+02  0.18237652626E+03  0.21956952155E+03  0.11965088727E+03 0.  0.
          5    1    4    4  502    0 -0.19073601276E+02 -0.52268317241E+02 -0.22885887693E+02  0.60345945252E+02  0.47000000000E+01 0.  1.
         -5    1    4    4    0  502  0.10770587137E+02  0.28513263143E+02  0.73575634739E+02  0.79777664478E+02  0.47000000000E+01 0.  1.
          5    1    5    5  503    0  0.23693909685E+02 -0.45277633536E+02  0.73024986189E+02  0.89253594117E+02  0.47000000000E+01 0. -1.
         -5    1    5    5    0  503 -0.15390895546E+02  0.69032687633E+02  0.10935154007E+03  0.13031592744E+03  0.47000000000E+01 0. -1.
<mgrwt>
<rscale>  0 0.27396945E+03</rscale>
<asrwt>0</asrwt>
<pdfrwt beam="1">  1        4 0.45596876E-01 0.27396945E+03</pdfrwt>
<pdfrwt beam="2">  1       -4 0.97405277E-02 0.27396945E+03</pdfrwt>
<totfact> 0.69568795E+02</totfact>
</mgrwt>
</event>
<event>
 9    1  0.7816570E-001  0.2669764E+03  0.7818608E-02  0.1103023E+00
         -1   -1    0    0    0  501 -0.00000000000E+00  0.00000000000E+00  0.82766365153E+01  0.82766365153E+01  0.00000000000E+00 0. -1.
          1   -1    0    0  501    0  0.00000000000E+00 -0.00000000000E+00 -0.21529392609E+04  0.21529392609E+04  0.00000000000E+00 0. -1.
         35    2    1    2    0    0  0.71054273576E-14  0.14210854715E-13 -0.21446626244E+04  0.21612158974E+04  0.26697637125E+03 0.  0.
         25    2    3    3    0    0 -0.29943743878E+02 -0.23143217362E+02 -0.13223458211E+04  0.13288025819E+04  0.12524214453E+03 0.  0.
         25    2    3    3    0    0  0.29943743878E+02  0.23143217362E+02 -0.82231680323E+03  0.83241331546E+03  0.12359112662E+03 0.  0.
          5    1    4    4  502    0  0.78575411545E+01 -0.61203236333E+02 -0.38779390108E+03  0.39270061981E+03  0.47000000000E+01 0.  1.
         -5    1    4    4    0  502 -0.37801285032E+02  0.38060018972E+02 -0.93455192005E+03  0.93610196211E+03  0.47000000000E+01 0.  1.
          5    1    5    5  503    0  0.95353295904E+01  0.69075898416E+02 -0.61857473791E+03  0.62251040042E+03  0.47000000000E+01 0.  1.
         -5    1    5    5    0  503  0.20408414287E+02 -0.45932681054E+02 -0.20374206532E+03  0.20990291504E+03  0.47000000000E+01 0.  1.
<mgrwt>
<rscale>  0 0.26697637E+03</rscale>
<asrwt>0</asrwt>
<pdfrwt beam="1">  1        1 0.33122163E+00 0.26697637E+03</pdfrwt>
<pdfrwt beam="2">  1       -1 0.12733279E-02 0.26697637E+03</pdfrwt>
<totfact> 0.35542848E+03</totfact>
</mgrwt>
</event>
<event>
 9    1  0.7816570E-001  0.2754531E+03  0.7818608E-02  0.1098199E+00
          2   -1    0    0  501    0  0.00000000000E+00  0.00000000000E+00  0.27401208715E+03  0.27401208715E+03  0.00000000000E+00 0.  1.
         -2   -1    0    0    0  501 -0.00000000000E+00 -0.00000000000E+00 -0.69225434746E+02  0.69225434746E+02  0.00000000000E+00 0.  1.
         35    2    1    2    0    0  0.00000000000E+00  0.00000000000E+00  0.20478665240E+03  0.34323752189E+03  0.27545312384E+03 0.  0.
         25    2    3    3    0    0  0.31468462527E+02 -0.47217149788E+02  0.10051186879E+03  0.17045233398E+03  0.12542583076E+03 0.  0.
         25    2    3    3    0    0 -0.31468462527E+02  0.47217149788E+02  0.10427478361E+03  0.17278518792E+03  0.12554587726E+03 0.  0.
          5    1    4    4  502    0  0.57043398041E+02 -0.67975370022E+02  0.10423375889E+03  0.13697213834E+03  0.47000000000E+01 0. -1.
         -5    1    4    4    0  502 -0.25574935514E+02  0.20758220234E+02 -0.37218901022E+01  0.33480195635E+02  0.47000000000E+01 0. -1.
          5    1    5    5  503    0  0.81473055792E+01  0.45401084758E+02 -0.13608729192E+02  0.48321057476E+02  0.47000000000E+01 0. -1.
         -5    1    5    5    0  503 -0.39615768106E+02  0.18160650304E+01  0.11788351281E+03  0.12446413044E+03  0.47000000000E+01 0. -1.
<mgrwt>
<rscale>  0 0.27545312E+03</rscale>
<asrwt>0</asrwt>
<pdfrwt beam="1">  1        2 0.42155705E-01 0.27545312E+03</pdfrwt>
<pdfrwt beam="2">  1       -2 0.10650067E-01 0.27545312E+03</pdfrwt>
<totfact> 0.71833031E+03</totfact>
</mgrwt>
</event>
<event>
 9    1  0.7816570E-001  0.2724025E+03  0.7818608E-02  0.1099912E+00
          2   -1    0    0  501    0  0.00000000000E+00  0.00000000000E+00  0.16690178811E+03  0.16690178811E+03  0.00000000000E+00 0. -1.
         -2   -1    0    0    0  501 -0.00000000000E+00 -0.00000000000E+00 -0.11114789105E+03  0.11114789105E+03  0.00000000000E+00 0. -1.
         35    2    1    2    0    0 -0.71054273576E-14  0.00000000000E+00  0.55753897061E+02  0.27804967916E+03  0.27240250924E+03 0.  0.
         25    2    3    3    0    0  0.38077311121E+02 -0.38490717179E+02  0.28875277529E+02  0.13907986751E+03  0.12481190233E+03 0.  0.
         25    2    3    3    0    0 -0.38077311121E+02  0.38490717179E+02  0.26878619532E+02  0.13896981165E+03  0.12513485298E+03 0.  0.
          5    1    4    4  502    0  0.34376412796E+01 -0.71047014425E+02  0.49770218737E+02  0.86940556183E+02  0.47000000000E+01 0.  1.
         -5    1    4    4    0  502  0.34639669842E+02  0.32556297246E+02 -0.20894941208E+02  0.52139311323E+02  0.47000000000E+01 0.  1.
          5    1    5    5  503    0 -0.52576567434E+02  0.77721220764E+02  0.14234992759E+02  0.95024252794E+02  0.47000000000E+01 0.  1.
         -5    1    5    5    0  503  0.14499256312E+02 -0.39230503586E+02  0.12643626773E+02  0.43945558856E+02  0.47000000000E+01 0.  1.
<mgrwt>
<rscale>  0 0.27240251E+03</rscale>
<asrwt>0</asrwt>
<pdfrwt beam="1">  1        2 0.25677198E-01 0.27240251E+03</pdfrwt>
<pdfrwt beam="2">  1       -2 0.17099675E-01 0.27240251E+03</pdfrwt>
<totfact> 0.56889513E+03</totfact>
</mgrwt>
</event>
<event>
 9    1  0.7816570E-001  0.2755488E+03  0.7818608E-02  0.1098145E+00
         -2   -1    0    0    0  501 -0.00000000000E+00  0.00000000000E+00  0.12711321124E+03  0.12711321124E+03  0.00000000000E+00 0. -1.
          2   -1    0    0  501    0  0.00000000000E+00 -0.00000000000E+00 -0.14932979376E+03  0.14932979376E+03  0.00000000000E+00 0. -1.
         35    2    1    2    0    0  0.00000000000E+00  0.00000000000E+00 -0.22216582517E+02  0.27644300500E+03  0.27554883138E+03 0.  0.
         25    2    3    3    0    0 -0.13088051773E+02  0.61449007521E+01  0.38551200423E+02  0.13160355210E+03  0.12499697183E+03 0.  0.
         25    2    3    3    0    0  0.13088051773E+02 -0.61449007521E+01 -0.60767782940E+02  0.14483945290E+03  0.13067779754E+03 0.  0.
          5    1    4    4  502    0 -0.21409452640E+02 -0.42392762925E+02  0.60856649852E+02  0.77337784052E+02  0.47000000000E+01 0. -1.
         -5    1    4    4    0  502  0.83214008675E+01  0.48537663677E+02 -0.22305449429E+02  0.54265768048E+02  0.47000000000E+01 0. -1.
          5    1    5    5  503    0 -0.27997975719E+02  0.43288997885E+02 -0.61496452957E+02  0.80384872386E+02  0.47000000000E+01 0. -1.
         -5    1    5    5    0  503  0.41086027492E+02 -0.49433898637E+02  0.72867001712E+00  0.64454580516E+02  0.47000000000E+01 0. -1.
<mgrwt>
<rscale>  0 0.27554883E+03</rscale>
<asrwt>0</asrwt>
<pdfrwt beam="1">  1        2 0.22973815E-01 0.27554883E+03</pdfrwt>
<pdfrwt beam="2">  1       -2 0.19555879E-01 0.27554883E+03</pdfrwt>
<totfact> 0.51382317E+03</totfact>
</mgrwt>
</event>
<event>
 9    1  0.7816570E-001  0.2745816E+03  0.7818608E-02  0.1098686E+00
         -3   -1    0    0    0  501 -0.00000000000E+00  0.00000000000E+00  0.42315018809E+02  0.42315018809E+02  0.00000000000E+00 0.  1.
          3   -1    0    0  501    0  0.00000000000E+00 -0.00000000000E+00 -0.44543908864E+03  0.44543908864E+03  0.00000000000E+00 0.  1.
         35    2    1    2    0    0  0.00000000000E+00  0.00000000000E+00 -0.40312406983E+03  0.48775410745E+03  0.27458159745E+03 0.  0.
         25    2    3    3    0    0  0.37174152265E+02 -0.21038422984E+02 -0.13980083998E+03  0.19279416767E+03  0.12570116702E+03 0.  0.
         25    2    3    3    0    0 -0.37174152265E+02  0.21038422984E+02 -0.26332322985E+03  0.29495993978E+03  0.12584796326E+03 0.  0.
          5    1    4    4  502    0  0.23675114382E+02 -0.18373948663E+02 -0.16279030570E+03  0.16559253202E+03  0.47000000000E+01 0.  1.
         -5    1    4    4    0  502  0.13499037882E+02 -0.26644743208E+01  0.22989465729E+02  0.27201635643E+02  0.47000000000E+01 0.  1.
          5    1    5    5  503    0 -0.35119726853E+02  0.19033536401E+02 -0.27716218343E+03  0.28006541494E+03  0.47000000000E+01 0.  1.
         -5    1    5    5    0  503 -0.20544254118E+01  0.20048865824E+01  0.13838953580E+02  0.14894524838E+02  0.47000000000E+01 0.  1.
<mgrwt>
<rscale>  0 0.27458160E+03</rscale>
<asrwt>0</asrwt>
<pdfrwt beam="1">  1        3 0.68529094E-01 0.27458160E+03</pdfrwt>
<pdfrwt beam="2">  1       -3 0.65100026E-02 0.27458160E+03</pdfrwt>
<totfact> 0.79002412E+02</totfact>
</mgrwt>
</event>
<event>
 9    1  0.7816570E-001  0.3038252E+03  0.7818608E-02  0.1083344E+00
          1   -1    0    0  501    0  0.00000000000E+00  0.00000000000E+00  0.23206404029E+03  0.23206404029E+03  0.00000000000E+00 0. -1.
         -1   -1    0    0    0  501 -0.00000000000E+00 -0.00000000000E+00 -0.99444262269E+02  0.99444262269E+02  0.00000000000E+00 0. -1.
         35    2    1    2    0    0 -0.17763568394E-14  0.00000000000E+00  0.13261977802E+03  0.33150830256E+03  0.30382519504E+03 0.  0.
         25    2    3    3    0    0  0.57550634202E+01  0.53703666043E+02 -0.74437183032E+01  0.13646541174E+03  0.12510074004E+03 0.  0.
         25    2    3    3    0    0 -0.57550634202E+01 -0.53703666043E+02  0.14006349633E+03  0.19504289082E+03  0.12452606857E+03 0.  0.
          5    1    4    4  502    0 -0.42829779017E+01  0.55029579482E+02 -0.60626662005E+02  0.82123569477E+02  0.47000000000E+01 0. -1.
         -5    1    4    4    0  502  0.10038041322E+02 -0.13259134393E+01  0.53182943702E+02  0.54341842266E+02  0.47000000000E+01 0. -1.
          5    1    5    5  503    0  0.89961506617E+01 -0.47934890012E+02 -0.48073648616E+01  0.49232968264E+02  0.47000000000E+01 0.  1.
         -5    1    5    5    0  503 -0.14751214082E+02 -0.57687760313E+01  0.14487086119E+03  0.14580992255E+03  0.47000000000E+01 0.  1.
<mgrwt>
<rscale>  0 0.30382520E+03</rscale>
<asrwt>0</asrwt>
<pdfrwt beam="1">  1        1 0.35702160E-01 0.30382520E+03</pdfrwt>
<pdfrwt beam="2">  1       -1 0.15299117E-01 0.30382520E+03</pdfrwt>
<totfact> 0.37732195E+03</totfact>
</mgrwt>
</event>
<event>
 9    1  0.7816570E-001  0.2755790E+03  0.7818608E-02  0.1098128E+00
          3   -1    0    0  501    0  0.00000000000E+00  0.00000000000E+00  0.20855597039E+03  0.20855597039E+03  0.00000000000E+00 0. -1.
         -3   -1    0    0    0  501 -0.00000000000E+00 -0.00000000000E+00 -0.91035288256E+02  0.91035288256E+02  0.00000000000E+00 0. -1.
         35    2    1    2    0    0  0.71054273576E-14  0.00000000000E+00  0.11752068213E+03  0.29959125864E+03  0.27557904769E+03 0.  0.
         25    2    3    3    0    0  0.54110038836E+02  0.21399627150E+02  0.63843411566E+02  0.15149914193E+03  0.12445950531E+03 0.  0.
         25    2    3    3    0    0 -0.54110038836E+02 -0.21399627150E+02  0.53677270564E+02  0.14809211671E+03  0.12515664310E+03 0.  0.
          5    1    4    4  502    0  0.87855545907E+02  0.19194538842E+01  0.69116712226E+02  0.11189946898E+03  0.47000000000E+01 0.  1.
         -5    1    4    4    0  502 -0.33745507071E+02  0.19480173265E+02 -0.52733006596E+01  0.39599672951E+02  0.47000000000E+01 0.  1.
          5    1    5    5  503    0 -0.63531850595E+02 -0.19247322043E+02  0.89023258599E+02  0.11114848635E+03  0.47000000000E+01 0.  1.
         -5    1    5    5    0  503  0.94218117597E+01 -0.21523051067E+01 -0.35345988035E+02  0.36943630361E+02  0.47000000000E+01 0.  1.
<mgrwt>
<rscale>  0 0.27557905E+03</rscale>
<asrwt>0</asrwt>
<pdfrwt beam="1">  1        3 0.32085534E-01 0.27557905E+03</pdfrwt>
<pdfrwt beam="2">  1       -3 0.14005429E-01 0.27557905E+03</pdfrwt>
<totfact> 0.10057856E+03</totfact>
</mgrwt>
</event>
<event>
 9    1  0.7816570E-001  0.2757180E+03  0.7818608E-02  0.1098051E+00
          1   -1    0    0  501    0  0.00000000000E+00  0.00000000000E+00  0.68439860133E+03  0.68439860133E+03  0.00000000000E+00 0.  1.
         -1   -1    0    0    0  501 -0.00000000000E+00 -0.00000000000E+00 -0.27769050386E+02  0.27769050386E+02  0.00000000000E+00 0.  1.
         35    2    1    2    0    0  0.00000000000E+00 -0.35527136788E-14  0.65662955094E+03  0.71216765171E+03  0.27571796637E+03 0.  0.
         25    2    3    3    0    0 -0.25170097875E+02 -0.30533860214E+02  0.43764200981E+03  0.45691888699E+03  0.12521377754E+03 0.  0.
         25    2    3    3    0    0  0.25170097875E+02  0.30533860214E+02  0.21898754113E+03  0.25524876473E+03  0.12502215115E+03 0.  0.
          5    1    4    4  502    0  0.46842148514E+01 -0.73317618623E+02  0.31628916082E+03  0.32474349620E+03  0.47000000000E+01 0. -1.
         -5    1    4    4    0  502 -0.29854312727E+02  0.42783758409E+02  0.12135284899E+03  0.13217539079E+03  0.47000000000E+01 0. -1.
          5    1    5    5  503    0 -0.41066556472E+02 -0.11366089121E+01  0.14550929566E+03  0.15127061534E+03  0.47000000000E+01 0. -1.
         -5    1    5    5    0  503  0.66236654348E+02  0.31670469126E+02  0.73478245465E+02  0.10397814939E+03  0.47000000000E+01 0. -1.
<mgrwt>
<rscale>  0 0.27571797E+03</rscale>
<asrwt>0</asrwt>
<pdfrwt beam="1">  1        1 0.10529208E+00 0.27571797E+03</pdfrwt>
<pdfrwt beam="2">  1       -1 0.42721621E-02 0.27571797E+03</pdfrwt>
<totfact> 0.64759225E+03</totfact>
</mgrwt>
</event>
<event>
 9    1  0.7816570E-001  0.2877620E+03  0.7818608E-02  0.1091523E+00
          2   -1    0    0  501    0  0.00000000000E+00  0.00000000000E+00  0.45785882940E+03  0.45785882940E+03  0.00000000000E+00 0. -1.
         -2   -1    0    0    0  501 -0.00000000000E+00 -0.00000000000E+00 -0.45214257221E+02  0.45214257221E+02  0.00000000000E+00 0. -1.
         35    2    1    2    0    0 -0.21316282073E-13 -0.71054273576E-14  0.41264457218E+03  0.50307308662E+03  0.28776203282E+03 0.  0.
         25    2    3    3    0    0  0.52172636877E+02  0.34568938416E+02  0.26418188544E+03  0.29913793016E+03  0.12559632608E+03 0.  0.
         25    2    3    3    0    0 -0.52172636877E+02 -0.34568938416E+02  0.14846268674E+03  0.20393515646E+03  0.12502552997E+03 0.  0.
          5    1    4    4  502    0  0.17330746828E+02  0.37675382949E+02  0.10531889826E+02  0.43044163010E+02  0.47000000000E+01 0.  1.
         -5    1    4    4    0  502  0.34841890050E+02 -0.31064445328E+01  0.25364999561E+03  0.25609376715E+03  0.47000000000E+01 0.  1.
          5    1    5    5  503    0  0.29250290734E+02  0.24834190172E+02  0.46807068195E+02  0.60706738856E+02  0.47000000000E+01 0.  1.
         -5    1    5    5    0  503 -0.81422927611E+02 -0.59403128588E+02  0.10165561854E+03  0.14322841760E+03  0.47000000000E+01 0.  1.
<mgrwt>
<rscale>  0 0.28776203E+03</rscale>
<asrwt>0</asrwt>
<pdfrwt beam="1">  1        2 0.70439817E-01 0.28776203E+03</pdfrwt>
<pdfrwt beam="2">  1       -2 0.69560399E-02 0.28776203E+03</pdfrwt>
<totfact> 0.80582329E+03</totfact>
</mgrwt>
</event>
<event>
 9    1  0.7816570E-001  0.2782841E+03  0.7818608E-02  0.1096630E+00
          2   -1    0    0  501    0  0.00000000000E+00  0.00000000000E+00  0.92067991484E+03  0.92067991484E+03  0.00000000000E+00 0. -1.
         -2   -1    0    0    0  501 -0.00000000000E+00 -0.00000000000E+00 -0.21028492747E+02  0.21028492747E+02  0.00000000000E+00 0. -1.
         35    2    1    2    0    0  0.00000000000E+00 -0.35527136788E-14  0.89965142209E+03  0.94170840758E+03  0.27828410599E+03 0.  0.
         25    2    3    3    0    0  0.37799454716E+02  0.64322438086E+01  0.29538806648E+03  0.32346026147E+03  0.12610415692E+03 0.  0.
         25    2    3    3    0    0 -0.37799454716E+02 -0.64322438086E+01  0.60426335561E+03  0.61824814612E+03  0.12500557871E+03 0.  0.
          5    1    4    4  502    0  0.20856098792E+02 -0.38723280075E+02  0.29442299048E+02  0.53135753028E+02  0.47000000000E+01 0.  1.
         -5    1    4    4    0  502  0.16943355923E+02  0.45155523884E+02  0.26594576743E+03  0.27032450844E+03  0.47000000000E+01 0.  1.
          5    1    5    5  503    0 -0.55733951410E+01 -0.31864924549E+02  0.54512400655E+03  0.54610320331E+03  0.47000000000E+01 0.  1.
         -5    1    5    5    0  503 -0.32226059575E+02  0.25432680741E+02  0.59139349059E+02  0.72144942806E+02  0.47000000000E+01 0.  1.
<mgrwt>
<rscale>  0 0.27828411E+03</rscale>
<asrwt>0</asrwt>
<pdfrwt beam="1">  1        2 0.14164303E+00 0.27828411E+03</pdfrwt>
<pdfrwt beam="2">  1       -2 0.32351534E-02 0.27828411E+03</pdfrwt>
<totfact> 0.11118556E+04</totfact>
</mgrwt>
</event>
<event>
 9    1  0.7816570E-001  0.2708094E+03  0.7818608E-02  0.1100817E+00
         -1   -1    0    0    0  501 -0.00000000000E+00  0.00000000000E+00  0.14988714292E+03  0.14988714292E+03  0.00000000000E+00 0.  1.
          1   -1    0    0  501    0  0.00000000000E+00 -0.00000000000E+00 -0.12232160858E+03  0.12232160858E+03  0.00000000000E+00 0.  1.
         35    2    1    2    0    0  0.00000000000E+00 -0.35527136788E-14  0.27565534339E+02  0.27220875151E+03  0.27080942693E+03 0.  0.
         25    2    3    3    0    0  0.37170804602E+01 -0.15566749341E+02  0.65158965368E+02  0.14190703315E+03  0.12504309224E+03 0.  0.
         25    2    3    3    0    0 -0.37170804602E+01  0.15566749341E+02 -0.37593431029E+02  0.13030171836E+03  0.12373007467E+03 0.  0.
          5    1    4    4  502    0 -0.25410427996E+02 -0.21704044919E+02  0.94195783135E+02  0.10005843781E+03  0.47000000000E+01 0. -1.
         -5    1    4    4    0  502  0.29127508456E+02  0.61372955784E+01 -0.29036817766E+02  0.41848595340E+02  0.47000000000E+01 0. -1.
          5    1    5    5  503    0 -0.80946003570E+01 -0.47735861812E+02 -0.44971550089E+02  0.66247757511E+02  0.47000000000E+01 0. -1.
         -5    1    5    5    0  503  0.43775198968E+01  0.63302611153E+02  0.73781190604E+01  0.64053960846E+02  0.47000000000E+01 0. -1.
<mgrwt>
<rscale>  0 0.27080943E+03</rscale>
<asrwt>0</asrwt>
<pdfrwt beam="1">  1        1 0.18818709E-01 0.27080943E+03</pdfrwt>
<pdfrwt beam="2">  1       -1 0.23059560E-01 0.27080943E+03</pdfrwt>
<totfact> 0.43753845E+03</totfact>
</mgrwt>
</event>
<event>
 9    1  0.7816570E-001  0.2758148E+03  0.7818608E-02  0.1097997E+00
          1   -1    0    0  501    0  0.00000000000E+00  0.00000000000E+00  0.29290989022E+04  0.29290989022E+04  0.00000000000E+00 0.  1.
         -1   -1    0    0    0  501 -0.00000000000E+00 -0.00000000000E+00 -0.64929337079E+01  0.64929337079E+01  0.00000000000E+00 0.  1.
         35    2    1    2    0    0 -0.71054273576E-14 -0.35527136788E-14  0.29226059685E+04  0.29355918359E+04  0.27581475665E+03 0.  0.
         25    2    3    3    0    0 -0.47956244832E+02 -0.12188354222E+02  0.16902901310E+04  0.16959673536E+04  0.12952289374E+03 0.  0.
         25    2    3    3    0    0  0.47956244832E+02  0.12188354222E+02  0.12323158375E+04  0.12396244824E+04  0.12497270300E+03 0.  0.
          5    1    4    4  502    0 -0.82447238038E+02  0.25829773166E+02  0.11323895539E+04  0.11356905019E+04  0.47000000000E+01 0.  1.
         -5    1    4    4    0  502  0.34490993207E+02 -0.38018127388E+02  0.55790057710E+03  0.56027685170E+03  0.47000000000E+01 0.  1.
          5    1    5    5  503    0  0.52926947751E+02 -0.23088097177E+02  0.11242347258E+04  0.11257264902E+04  0.47000000000E+01 0. -1.
         -5    1    5    5    0  503 -0.49707029198E+01  0.35276451399E+02  0.10808111165E+03  0.11389799211E+03  0.47000000000E+01 0. -1.
<mgrwt>
<rscale>  0 0.27581476E+03</rscale>
<asrwt>0</asrwt>
<pdfrwt beam="1">  1        1 0.45062954E+00 0.27581476E+03</pdfrwt>
<pdfrwt beam="2">  1       -1 0.99891522E-03 0.27581476E+03</pdfrwt>
<totfact> 0.15278177E+03</totfact>
</mgrwt>
</event>
<event>
 9    1  0.7816570E-001  0.2955980E+03  0.7818608E-02  0.1087462E+00
         -1   -1    0    0    0  501 -0.00000000000E+00  0.00000000000E+00  0.10108271960E+02  0.10108271960E+02  0.00000000000E+00 0.  1.
          1   -1    0    0  501    0  0.00000000000E+00 -0.00000000000E+00 -0.21610567257E+04  0.21610567257E+04  0.00000000000E+00 0.  1.
         35    2    1    2    0    0  0.35527136788E-14  0.00000000000E+00 -0.21509484538E+04  0.21711649977E+04  0.29559803182E+03 0.  0.
         25    2    3    3    0    0 -0.71563603805E+01 -0.58288311749E+02 -0.14540179761E+04  0.14606519093E+04  0.12604358283E+03 0.  0.
         25    2    3    3    0    0  0.71563603805E+01  0.58288311749E+02 -0.69693047772E+03  0.71051308836E+03  0.12517195043E+03 0.  0.
          5    1    4    4  502    0  0.34567559943E+02 -0.61493759066E+02 -0.12661502133E+04  0.12681225695E+04  0.47000000000E+01 0. -1.
         -5    1    4    4    0  502 -0.41723920324E+02  0.32054473170E+01 -0.18786776277E+03  0.19252933986E+03  0.47000000000E+01 0. -1.
          5    1    5    5  503    0 -0.14867855799E+01  0.23219379142E+01 -0.58462015463E+03  0.58464554829E+03  0.47000000000E+01 0. -1.
         -5    1    5    5    0  503  0.86431459604E+01  0.55966373835E+02 -0.11231032308E+03  0.12586754007E+03  0.47000000000E+01 0. -1.
<mgrwt>
<rscale>  0 0.29559803E+03</rscale>
<asrwt>0</asrwt>
<pdfrwt beam="1">  1        1 0.33247051E+00 0.29559803E+03</pdfrwt>
<pdfrwt beam="2">  1       -1 0.15551176E-02 0.29559803E+03</pdfrwt>
<totfact> 0.26226474E+03</totfact>
</mgrwt>
</event>
<event>
 9    1  0.7816570E-001  0.2772890E+03  0.7818608E-02  0.1097179E+00
          2   -1    0    0  501    0  0.00000000000E+00  0.00000000000E+00  0.28340742578E+03  0.28340742578E+03  0.00000000000E+00 0.  1.
         -2   -1    0    0    0  501 -0.00000000000E+00 -0.00000000000E+00 -0.67825677388E+02  0.67825677388E+02  0.00000000000E+00 0.  1.
         35    2    1    2    0    0  0.00000000000E+00  0.00000000000E+00  0.21558174839E+03  0.35123310317E+03  0.27728902344E+03 0.  0.
         25    2    3    3    0    0  0.36657278707E+02 -0.51470915441E+02  0.98097259860E+02  0.17145330401E+03  0.12561907438E+03 0.  0.
         25    2    3    3    0    0 -0.36657278707E+02  0.51470915441E+02  0.11748448853E+03  0.17977979916E+03  0.12052037139E+03 0.  0.
          5    1    4    4  502    0 -0.44652428916E+02 -0.20858669674E+01  0.25363966709E+02  0.51610183649E+02  0.47000000000E+01 0. -1.
         -5    1    4    4    0  502  0.81309707622E+02 -0.49385048474E+02  0.72733293151E+02  0.11984312037E+03  0.47000000000E+01 0. -1.
          5    1    5    5  503    0 -0.29869367556E+02 -0.36680293407E+02  0.40112735732E+02  0.62199233199E+02  0.47000000000E+01 0.  1.
         -5    1    5    5    0  503 -0.67879111505E+01  0.88151208848E+02  0.77371752802E+02  0.11758056596E+03  0.47000000000E+01 0.  1.
<mgrwt>
<rscale>  0 0.27728902E+03</rscale>
<asrwt>0</asrwt>
<pdfrwt beam="1">  1        2 0.43601142E-01 0.27728902E+03</pdfrwt>
<pdfrwt beam="2">  1       -2 0.10434720E-01 0.27728902E+03</pdfrwt>
<totfact> 0.71588418E+03</totfact>
</mgrwt>
</event>
<event>
 9    1  0.7816570E-001  0.2703520E+03  0.7818608E-02  0.1101078E+00
         -2   -1    0    0    0  501 -0.00000000000E+00  0.00000000000E+00  0.63362628822E+01  0.63362628822E+01  0.00000000000E+00 0.  1.
          2   -1    0    0  501    0  0.00000000000E+00 -0.00000000000E+00 -0.28838053186E+04  0.28838053186E+04  0.00000000000E+00 0.  1.
         35    2    1    2    0    0  0.71054273576E-14 -0.35527136788E-14 -0.28774690557E+04  0.28901415815E+04  0.27035198242E+03 0.  0.
         25    2    3    3    0    0  0.50673639062E+02  0.53622583019E+01 -0.14789170264E+04  0.14851081984E+04  0.12551581046E+03 0.  0.
         25    2    3    3    0    0 -0.50673639062E+02 -0.53622583019E+01 -0.13985520294E+04  0.14050333830E+04  0.12479766489E+03 0.  0.
          5    1    4    4  502    0  0.24354239214E+01  0.36667068632E+02 -0.13609864228E+03  0.14105082645E+03  0.47000000000E+01 0. -1.
         -5    1    4    4    0  502  0.48238215141E+02 -0.31304810330E+02 -0.13428183841E+04  0.13440573720E+04  0.47000000000E+01 0. -1.
          5    1    5    5  503    0 -0.48545843214E+02 -0.30017829805E+02 -0.13408533189E+04  0.13420758108E+04  0.47000000000E+01 0. -1.
         -5    1    5    5    0  503 -0.21277958479E+01  0.24655571503E+02 -0.57698710436E+02  0.62957572279E+02  0.47000000000E+01 0. -1.
<mgrwt>
<rscale>  0 0.27035198E+03</rscale>
<asrwt>0</asrwt>
<pdfrwt beam="1">  1        2 0.44366281E+00 0.27035198E+03</pdfrwt>
<pdfrwt beam="2">  1       -2 0.97480867E-03 0.27035198E+03</pdfrwt>
<totfact> 0.53950473E+03</totfact>
</mgrwt>
</event>
<event>
 9    1  0.7816570E-001  0.2737617E+03  0.7818608E-02  0.1099146E+00
          1   -1    0    0  501    0  0.00000000000E+00  0.00000000000E+00  0.89209176949E+03  0.89209176949E+03  0.00000000000E+00 0.  1.
         -1   -1    0    0    0  501 -0.00000000000E+00 -0.00000000000E+00 -0.21002741311E+02  0.21002741311E+02  0.00000000000E+00 0.  1.
         35    2    1    2    0    0  0.14210854715E-13  0.00000000000E+00  0.87108902818E+03  0.91309451081E+03  0.27376174065E+03 0.  0.
         25    2    3    3    0    0 -0.54342368126E+02 -0.19440964470E+01  0.42335032820E+03  0.44469920248E+03  0.12479987109E+03 0.  0.
         25    2    3    3    0    0  0.54342368126E+02  0.19440964470E+01  0.44773869999E+03  0.46839530832E+03  0.12636197571E+03 0.  0.
          5    1    4    4  502    0 -0.84853673047E+02 -0.33960005899E+02  0.27533070297E+03  0.29014223034E+03  0.47000000000E+01 0.  1.
         -5    1    4    4    0  502  0.30511304921E+02  0.32015909452E+02  0.14801962523E+03  0.15455697214E+03  0.47000000000E+01 0.  1.
          5    1    5    5  503    0 -0.22643616260E+02  0.39361206016E+02  0.22802072110E+03  0.23254586031E+03  0.47000000000E+01 0.  1.
         -5    1    5    5    0  503  0.76985984386E+02 -0.37417109569E+02  0.21971797889E+03  0.23584944801E+03  0.47000000000E+01 0.  1.
<mgrwt>
<rscale>  0 0.27376174E+03</rscale>
<asrwt>0</asrwt>
<pdfrwt beam="1">  1        1 0.13724486E+00 0.27376174E+03</pdfrwt>
<pdfrwt beam="2">  1       -1 0.32311917E-02 0.27376174E+03</pdfrwt>
<totfact> 0.65374873E+03</totfact>
</mgrwt>
</event>
<event>
 9    1  0.7816570E-001  0.2759578E+03  0.7818608E-02  0.1097917E+00
         -1   -1    0    0    0  501 -0.00000000000E+00  0.00000000000E+00  0.62875988551E+02  0.62875988551E+02  0.00000000000E+00 0. -1.
          1   -1    0    0  501    0  0.00000000000E+00 -0.00000000000E+00 -0.30278923926E+03  0.30278923926E+03  0.00000000000E+00 0. -1.
         35    2    1    2    0    0  0.00000000000E+00  0.00000000000E+00 -0.23991325071E+03  0.36566522781E+03  0.27595777026E+03 0.  0.
         25    2    3    3    0    0  0.28776607130E+02  0.44867535588E+02 -0.89838057036E+02  0.16322125400E+03  0.12541575818E+03 0.  0.
         25    2    3    3    0    0 -0.28776607130E+02 -0.44867535588E+02 -0.15007519367E+03  0.20244397381E+03  0.12497923790E+03 0.  0.
          5    1    4    4  502    0 -0.13502466863E+01  0.27357682440E+02  0.28477847010E+02  0.39791251864E+02  0.47000000000E+01 0. -1.
         -5    1    4    4    0  502  0.30126853816E+02  0.17509853148E+02 -0.11831590405E+03  0.12343000214E+03  0.47000000000E+01 0. -1.
          5    1    5    5  503    0 -0.37560247650E+02 -0.68698709274E+02 -0.15717208739E+03  0.17565716585E+03  0.47000000000E+01 0.  1.
         -5    1    5    5    0  503  0.87836405199E+01  0.23831173685E+02  0.70968937199E+01  0.26786807956E+02  0.47000000000E+01 0.  1.
<mgrwt>
<rscale>  0 0.27595777E+03</rscale>
<asrwt>0</asrwt>
<pdfrwt beam="1">  1        1 0.46582959E-01 0.27595777E+03</pdfrwt>
<pdfrwt beam="2">  1       -1 0.96732291E-02 0.27595777E+03</pdfrwt>
<totfact> 0.55227810E+03</totfact>
</mgrwt>
</event>
<event>
 9    1  0.7816570E-001  0.2754016E+03  0.7818608E-02  0.1098227E+00
          1   -1    0    0  501    0  0.00000000000E+00  0.00000000000E+00  0.34292647910E+03  0.34292647910E+03  0.00000000000E+00 0. -1.
         -1   -1    0    0    0  501 -0.00000000000E+00 -0.00000000000E+00 -0.55293230180E+02  0.55293230180E+02  0.00000000000E+00 0. -1.
         35    2    1    2    0    0  0.00000000000E+00 -0.10658141036E-13  0.28763324892E+03  0.39821970928E+03  0.27540161760E+03 0.  0.
         25    2    3    3    0    0  0.19400367903E+02 -0.31947198439E+02  0.79795975806E+02  0.15267651351E+03  0.12468248577E+03 0.  0.
         25    2    3    3    0    0 -0.19400367903E+02  0.31947198439E+02  0.20783727311E+03  0.24554319578E+03  0.12529218305E+03 0.  0.
          5    1    4    4  502    0  0.65844933474E+02  0.10285426746E+02  0.35065104741E+02  0.75451950525E+02  0.47000000000E+01 0. -1.
         -5    1    4    4    0  502 -0.46444565571E+02 -0.42232625186E+02  0.44730871065E+02  0.77224562980E+02  0.47000000000E+01 0. -1.
          5    1    5    5  503    0  0.76621961244E+01 -0.34698263155E+02  0.14672677183E+03  0.15104143235E+03  0.47000000000E+01 0. -1.
         -5    1    5    5    0  503 -0.27062564028E+02  0.66645461595E+02  0.61110501287E+02  0.94501763425E+02  0.47000000000E+01 0. -1.
<mgrwt>
<rscale>  0 0.27540162E+03</rscale>
<asrwt>0</asrwt>
<pdfrwt beam="1">  1        1 0.52757918E-01 0.27540162E+03</pdfrwt>
<pdfrwt beam="2">  1       -1 0.85066510E-02 0.27540162E+03</pdfrwt>
<totfact> 0.57506444E+03</totfact>
</mgrwt>
</event>
<event>
 9    1  0.7816570E-001  0.2721116E+03  0.7818608E-02  0.1100077E+00
         -1   -1    0    0    0  501 -0.00000000000E+00  0.00000000000E+00  0.32095843595E+02  0.32095843595E+02  0.00000000000E+00 0.  1.
          1   -1    0    0  501    0  0.00000000000E+00 -0.00000000000E+00 -0.57674711378E+03  0.57674711378E+03  0.00000000000E+00 0.  1.
         35    2    1    2    0    0 -0.35527136788E-14  0.00000000000E+00 -0.54465127019E+03  0.60884295738E+03  0.27211163267E+03 0.  0.
         25    2    3    3    0    0 -0.73154605938E+00 -0.28490004996E+02 -0.17231689090E+03  0.21511453213E+03  0.12557442215E+03 0.  0.
         25    2    3    3    0    0  0.73154605938E+00  0.28490004996E+02 -0.37233437928E+03  0.39372842525E+03  0.12480772135E+03 0.  0.
          5    1    4    4  502    0 -0.25944830712E+02 -0.47325050819E+02 -0.17306556516E+02  0.56871799463E+02  0.47000000000E+01 0.  1.
         -5    1    4    4    0  502  0.25213284652E+02  0.18835045823E+02 -0.15501033439E+03  0.15824273266E+03  0.47000000000E+01 0.  1.
          5    1    5    5  503    0 -0.32295349636E+02  0.65360864255E+02 -0.16388506772E+03  0.17943087139E+03  0.47000000000E+01 0.  1.
         -5    1    5    5    0  503  0.33026895695E+02 -0.36870859258E+02 -0.20844931156E+03  0.21429755386E+03  0.47000000000E+01 0.  1.
<mgrwt>
<rscale>  0 0.27211163E+03</rscale>
<asrwt>0</asrwt>
<pdfrwt beam="1">  1        1 0.88730327E-01 0.27211163E+03</pdfrwt>
<pdfrwt beam="2">  1       -1 0.49378220E-02 0.27211163E+03</pdfrwt>
<totfact> 0.66358968E+03</totfact>
</mgrwt>
</event>
<event>
 9    1  0.7816570E-001  0.2751056E+03  0.7818608E-02  0.1098393E+00
          2   -1    0    0  501    0  0.00000000000E+00  0.00000000000E+00  0.46390039620E+03  0.46390039620E+03  0.00000000000E+00 0. -1.
         -2   -1    0    0    0  501 -0.00000000000E+00 -0.00000000000E+00 -0.40786291307E+02  0.40786291307E+02  0.00000000000E+00 0. -1.
         35    2    1    2    0    0 -0.71054273576E-14  0.00000000000E+00  0.42311410490E+03  0.50468668751E+03  0.27510562842E+03 0.  0.
         25    2    3    3    0    0  0.44695980555E+02 -0.10364966876E+02  0.27588235676E+03  0.30626789489E+03  0.12483503296E+03 0.  0.
         25    2    3    3    0    0 -0.44695980555E+02  0.10364966876E+02  0.14723174814E+03  0.19841879262E+03  0.12485057624E+03 0.  0.
          5    1    4    4  502    0  0.73918730195E+02 -0.28965568775E+02  0.25116161076E+03  0.26345251482E+03  0.47000000000E+01 0. -1.
         -5    1    4    4    0  502 -0.29222749640E+02  0.18600601899E+02  0.24720745998E+02  0.42815380067E+02  0.47000000000E+01 0. -1.
          5    1    5    5  503    0 -0.34143907351E+02  0.40636839929E+01  0.16924830914E+03  0.17276978927E+03  0.47000000000E+01 0. -1.
         -5    1    5    5    0  503 -0.10552073204E+02  0.63012828830E+01 -0.22016560998E+02  0.25649003354E+02  0.47000000000E+01 0. -1.
<mgrwt>
<rscale>  0 0.27510563E+03</rscale>
<asrwt>0</asrwt>
<pdfrwt beam="1">  1        2 0.71369288E-01 0.27510563E+03</pdfrwt>
<pdfrwt beam="2">  1       -2 0.62748144E-02 0.27510563E+03</pdfrwt>
<totfact> 0.92973386E+03</totfact>
</mgrwt>
</event>
<event>
 9    1  0.7816570E-001  0.2738194E+03  0.7818608E-02  0.1099113E+00
         -4   -1    0    0    0  501 -0.00000000000E+00  0.00000000000E+00  0.19353792374E+03  0.19353792374E+03  0.00000000000E+00 0. -1.
          4   -1    0    0  501    0  0.00000000000E+00 -0.00000000000E+00 -0.96850610154E+02  0.96850610154E+02  0.00000000000E+00 0. -1.
         35    2    1    2    0    0  0.71054273576E-14  0.00000000000E+00  0.96687313588E+02  0.29038853390E+03  0.27381940035E+03 0.  0.
         25    2    3    3    0    0 -0.16052812159E+02 -0.47875736750E+02  0.72853360190E+02  0.15343885155E+03  0.12524412212E+03 0.  0.
         25    2    3    3    0    0  0.16052812159E+02  0.47875736750E+02  0.23833953397E+02  0.13694968235E+03  0.12504950705E+03 0.  0.
          5    1    4    4  502    0 -0.50356932797E+02 -0.11905976880E+02  0.87187201001E+02  0.10149517715E+03  0.47000000000E+01 0. -1.
         -5    1    4    4    0  502  0.34304120638E+02 -0.35969759869E+02 -0.14333840811E+02  0.51943674400E+02  0.47000000000E+01 0. -1.
          5    1    5    5  503    0  0.18382201026E+02 -0.38125970744E+02 -0.11046597476E+02  0.43995593820E+02  0.47000000000E+01 0. -1.
         -5    1    5    5    0  503 -0.23293888673E+01  0.86001707494E+02  0.34880550873E+02  0.92954088526E+02  0.47000000000E+01 0. -1.
<mgrwt>
<rscale>  0 0.27381940E+03</rscale>
<asrwt>0</asrwt>
<pdfrwt beam="1">  1        4 0.14900094E-01 0.27381940E+03</pdfrwt>
<pdfrwt beam="2">  1       -4 0.29775065E-01 0.27381940E+03</pdfrwt>
<totfact> 0.77096060E+02</totfact>
</mgrwt>
</event>
<event>
 9    1  0.7816570E-001  0.2967241E+03  0.7818608E-02  0.1086890E+00
         -1   -1    0    0    0  501 -0.00000000000E+00  0.00000000000E+00  0.34457245585E+03  0.34457245585E+03  0.00000000000E+00 0. -1.
          1   -1    0    0  501    0  0.00000000000E+00 -0.00000000000E+00 -0.63880007248E+02  0.63880007248E+02  0.00000000000E+00 0. -1.
         35    2    1    2    0    0  0.35527136788E-14  0.00000000000E+00  0.28069244860E+03  0.40845246310E+03  0.29672405347E+03 0.  0.
         25    2    3    3    0    0 -0.11812525203E+02  0.78488226826E+02  0.13669146211E+03  0.20172156682E+03  0.12532795860E+03 0.  0.
         25    2    3    3    0    0  0.11812525203E+02 -0.78488226826E+02  0.14400098650E+03  0.20673089628E+03  0.12530539438E+03 0.  0.
          5    1    4    4  502    0 -0.49861883667E+02  0.61369565520E+02  0.26056617695E+02  0.83387459133E+02  0.47000000000E+01 0.  1.
         -5    1    4    4    0  502  0.38049358465E+02  0.17118661305E+02  0.11063484441E+03  0.11833410769E+03  0.47000000000E+01 0.  1.
          5    1    5    5  503    0  0.72741836938E+00 -0.11710479026E+02  0.13803734673E+03  0.13861480277E+03  0.47000000000E+01 0.  1.
         -5    1    5    5    0  503  0.11085106833E+02 -0.66777747800E+02  0.59636397673E+01  0.68116093502E+02  0.47000000000E+01 0.  1.
<mgrwt>
<rscale>  0 0.29672405E+03</rscale>
<asrwt>0</asrwt>
<pdfrwt beam="1">  1        1 0.98276937E-02 0.29672405E+03</pdfrwt>
<pdfrwt beam="2">  1       -1 0.53011146E-01 0.29672405E+03</pdfrwt>
<totfact> 0.24173373E+03</totfact>
</mgrwt>
</event>
<event>
 9    1  0.7816570E-001  0.2732684E+03  0.7818608E-02  0.1099423E+00
          3   -1    0    0  501    0  0.00000000000E+00  0.00000000000E+00  0.38330767245E+03  0.38330767245E+03  0.00000000000E+00 0. -1.
         -3   -1    0    0    0  501 -0.00000000000E+00 -0.00000000000E+00 -0.48704767143E+02  0.48704767143E+02  0.00000000000E+00 0. -1.
         35    2    1    2    0    0  0.14210854715E-13  0.00000000000E+00  0.33460290531E+03  0.43201243959E+03  0.27326844626E+03 0.  0.
         25    2    3    3    0    0 -0.51194378502E+02  0.18923934243E+02  0.15518278902E+03  0.20750233802E+03  0.12647743908E+03 0.  0.
         25    2    3    3    0    0  0.51194378502E+02 -0.18923934243E+02  0.17942011629E+03  0.22451010158E+03  0.12342701448E+03 0.  0.
          5    1    4    4  502    0 -0.10297740735E+02 -0.46402354273E+02  0.10516371479E+03  0.11550202965E+03  0.47000000000E+01 0.  1.
         -5    1    4    4    0  502 -0.40896637767E+02  0.65326288516E+02  0.50019074233E+02  0.92000308364E+02  0.47000000000E+01 0.  1.
          5    1    5    5  503    0  0.49653487059E+02  0.21528447156E+02  0.16801033779E+02  0.56862180315E+02  0.47000000000E+01 0. -1.
         -5    1    5    5    0  503  0.15408914426E+01 -0.40452381399E+02  0.16261908251E+03  0.16764792126E+03  0.47000000000E+01 0. -1.
<mgrwt>
<rscale>  0 0.27326845E+03</rscale>
<asrwt>0</asrwt>
<pdfrwt beam="1">  1        3 0.58970409E-01 0.27326845E+03</pdfrwt>
<pdfrwt beam="2">  1       -3 0.74930414E-02 0.27326845E+03</pdfrwt>
<totfact> 0.86107911E+02</totfact>
</mgrwt>
</event>
<event>
 9    1  0.7816570E-001  0.2864709E+03  0.7818608E-02  0.1092206E+00
          1   -1    0    0  501    0  0.00000000000E+00  0.00000000000E+00  0.33113089908E+02  0.33113089908E+02  0.00000000000E+00 0. -1.
         -1   -1    0    0    0  501 -0.00000000000E+00 -0.00000000000E+00 -0.61958565532E+03  0.61958565532E+03  0.00000000000E+00 0. -1.
         35    2    1    2    0    0  0.00000000000E+00  0.00000000000E+00 -0.58647256541E+03  0.65269874523E+03  0.28647090959E+03 0.  0.
         25    2    3    3    0    0 -0.51389807240E+02  0.72892658726E+00 -0.37987188363E+03  0.40317092312E+03  0.12491077478E+03 0.  0.
         25    2    3    3    0    0  0.51389807240E+02 -0.72892658726E+00 -0.20660068179E+03  0.24952782211E+03  0.13014933219E+03 0.  0.
          5    1    4    4  502    0  0.20453281712E+02  0.44494404528E+02 -0.17129063121E+03  0.17821520448E+03  0.47000000000E+01 0. -1.
         -5    1    4    4    0  502 -0.71843088952E+02 -0.43765477940E+02 -0.20858125241E+03  0.22495571864E+03  0.47000000000E+01 0. -1.
          5    1    5    5  503    0  0.56486155747E+02 -0.58391641009E+02 -0.11032829002E+03  0.13709373111E+03  0.47000000000E+01 0. -1.
         -5    1    5    5    0  503 -0.50963485073E+01  0.57662714422E+02 -0.96272391768E+02  0.11243409100E+03  0.47000000000E+01 0. -1.
<mgrwt>
<rscale>  0 0.28647091E+03</rscale>
<asrwt>0</asrwt>
<pdfrwt beam="1">  1        1 0.50943214E-02 0.28647091E+03</pdfrwt>
<pdfrwt beam="2">  1       -1 0.95320871E-01 0.28647091E+03</pdfrwt>
<totfact> 0.18181309E+03</totfact>
</mgrwt>
</event>
<event>
 9    1  0.7816570E-001  0.2884031E+03  0.7818608E-02  0.1091186E+00
         -2   -1    0    0    0  501 -0.00000000000E+00  0.00000000000E+00  0.46135848368E+02  0.46135848368E+02  0.00000000000E+00 0.  1.
          2   -1    0    0  501    0  0.00000000000E+00 -0.00000000000E+00 -0.45071422810E+03  0.45071422810E+03  0.00000000000E+00 0.  1.
         35    2    1    2    0    0  0.00000000000E+00 -0.71054273576E-14 -0.40457837973E+03  0.49685007647E+03  0.28840307408E+03 0.  0.
         25    2    3    3    0    0 -0.47607800677E+02  0.51077765697E+02 -0.23519660536E+03  0.27530360530E+03  0.12489672167E+03 0.  0.
         25    2    3    3    0    0  0.47607800677E+02 -0.51077765697E+02 -0.16938177437E+03  0.22154647117E+03  0.12456810412E+03 0.  0.
          5    1    4    4  502    0 -0.90424929068E+02  0.35376602082E+02 -0.16245262352E+03  0.18931750225E+03  0.47000000000E+01 0.  1.
         -5    1    4    4    0  502  0.42817128391E+02  0.15701163614E+02 -0.72743981848E+02  0.85986103049E+02  0.47000000000E+01 0.  1.
          5    1    5    5  503    0  0.56409608129E+02 -0.33838529705E+02 -0.17318779196E+02  0.68184456401E+02  0.47000000000E+01 0. -1.
         -5    1    5    5    0  503 -0.88018074520E+01 -0.17239235992E+02 -0.15206299517E+03  0.15336201477E+03  0.47000000000E+01 0. -1.
<mgrwt>
<rscale>  0 0.28840307E+03</rscale>
<asrwt>0</asrwt>
<pdfrwt beam="1">  1        2 0.69340651E-01 0.28840307E+03</pdfrwt>
<pdfrwt beam="2">  1       -2 0.70978228E-02 0.28840307E+03</pdfrwt>
<totfact> 0.79474046E+03</totfact>
</mgrwt>
</event>
<event>
 9    1  0.7816570E-001  0.2783191E+03  0.7818608E-02  0.1096611E+00
          2   -1    0    0  501    0  0.00000000000E+00  0.00000000000E+00  0.20898969724E+03  0.20898969724E+03  0.00000000000E+00 0.  1.
         -2   -1    0    0    0  501 -0.00000000000E+00 -0.00000000000E+00 -0.92661861521E+02  0.92661861521E+02  0.00000000000E+00 0.  1.
         35    2    1    2    0    0  0.14210854715E-13  0.35527136788E-14  0.11632783572E+03  0.30165155876E+03  0.27831905709E+03 0.  0.
         25    2    3    3    0    0  0.52562139840E+02 -0.36405335215E+01  0.83601232700E+02  0.15926292038E+03  0.12489787696E+03 0.  0.
         25    2    3    3    0    0 -0.52562139840E+02  0.36405335215E+01  0.32726603018E+02  0.14238863838E+03  0.12816966008E+03 0.  0.
          5    1    4    4  502    0  0.70868997625E+02  0.31876961003E+02  0.14333965399E+02  0.79158752082E+02  0.47000000000E+01 0.  1.
         -5    1    4    4    0  502 -0.18306857785E+02 -0.35517494525E+02  0.69267267301E+02  0.80104168298E+02  0.47000000000E+01 0.  1.
          5    1    5    5  503    0 -0.41374373125E+02  0.56420231010E+02 -0.13231275135E+02  0.71359917744E+02  0.47000000000E+01 0. -1.
         -5    1    5    5    0  503 -0.11187766715E+02 -0.52779697489E+02  0.45957878152E+02  0.71028720637E+02  0.47000000000E+01 0. -1.
<mgrwt>
<rscale>  0 0.27831906E+03</rscale>
<asrwt>0</asrwt>
<pdfrwt beam="1">  1        2 0.32152261E-01 0.27831906E+03</pdfrwt>
<pdfrwt beam="2">  1       -2 0.14255671E-01 0.27831906E+03</pdfrwt>
<totfact> 0.60094240E+03</totfact>
</mgrwt>
</event>
<event>
 9    1  0.7816570E-001  0.2765485E+03  0.7818608E-02  0.1097589E+00
         -1   -1    0    0    0  501 -0.00000000000E+00  0.00000000000E+00  0.79106125374E+02  0.79106125374E+02  0.00000000000E+00 0. -1.
          1   -1    0    0  501    0  0.00000000000E+00 -0.00000000000E+00 -0.24169768630E+03  0.24169768630E+03  0.00000000000E+00 0. -1.
         35    2    1    2    0    0  0.14210854715E-13 -0.71054273576E-14 -0.16259156092E+03  0.32080381167E+03  0.27654849466E+03 0.  0.
         25    2    3    3    0    0  0.54481285918E+02 -0.19436477633E+02 -0.88191462969E+02  0.16325549639E+03  0.12461394699E+03 0.  0.
         25    2    3    3    0    0 -0.54481285918E+02  0.19436477633E+02 -0.74400097955E+02  0.15754831528E+03  0.12625414802E+03 0.  0.
          5    1    4    4  502    0  0.37001552245E+02 -0.51651081346E+02 -0.10487660770E+03  0.12271162095E+03  0.47000000000E+01 0.  1.
         -5    1    4    4    0  502  0.17479733674E+02  0.32214603713E+02  0.16685144729E+02  0.40543875448E+02  0.47000000000E+01 0.  1.
          5    1    5    5  503    0  0.12354449882E+02  0.58515037238E+02 -0.43287382440E+02  0.73976546915E+02  0.47000000000E+01 0. -1.
         -5    1    5    5    0  503 -0.66835735800E+02 -0.39078559605E+02 -0.31112715515E+02  0.83571768364E+02  0.47000000000E+01 0. -1.
<mgrwt>
<rscale>  0 0.27654849E+03</rscale>
<asrwt>0</asrwt>
<pdfrwt beam="1">  1        1 0.37184259E-01 0.27654849E+03</pdfrwt>
<pdfrwt beam="2">  1       -1 0.12170173E-01 0.27654849E+03</pdfrwt>
<totfact> 0.51311302E+03</totfact>
</mgrwt>
</event>
<event>
 9    1  0.7816570E-001  0.2711946E+03  0.7818608E-02  0.1100598E+00
         -4   -1    0    0    0  501 -0.00000000000E+00  0.00000000000E+00  0.31572882256E+03  0.31572882256E+03  0.00000000000E+00 0.  1.
          4   -1    0    0  501    0  0.00000000000E+00 -0.00000000000E+00 -0.58235510183E+02  0.58235510183E+02  0.00000000000E+00 0.  1.
         35    2    1    2    0    0 -0.71054273576E-14  0.00000000000E+00  0.25749331238E+03  0.37396433274E+03  0.27119460954E+03 0.  0.
         25    2    3    3    0    0  0.42902749232E+02  0.28809850612E+02  0.12353357505E+03  0.18302877835E+03  0.12477313875E+03 0.  0.
         25    2    3    3    0    0 -0.42902749232E+02 -0.28809850612E+02  0.13395973732E+03  0.19093555439E+03  0.12585913286E+03 0.  0.
          5    1    4    4  502    0 -0.29855653085E+02  0.10964932473E+02  0.98952067741E+02  0.10404418040E+03  0.47000000000E+01 0. -1.
         -5    1    4    4    0  502  0.72758402317E+02  0.17844918140E+02  0.24581507312E+02  0.78984597947E+02  0.47000000000E+01 0. -1.
          5    1    5    5  503    0 -0.31914017368E+02 -0.14965411051E+02  0.15730762150E+03  0.16127692276E+03  0.47000000000E+01 0.  1.
         -5    1    5    5    0  503 -0.10988731864E+02 -0.13844439561E+02 -0.23347884178E+02  0.29658631633E+02  0.47000000000E+01 0.  1.
<mgrwt>
<rscale>  0 0.27119461E+03</rscale>
<asrwt>0</asrwt>
<pdfrwt beam="1">  1        4 0.89593095E-02 0.27119461E+03</pdfrwt>
<pdfrwt beam="2">  1       -4 0.48573664E-01 0.27119461E+03</pdfrwt>
<totfact> 0.70345842E+02</totfact>
</mgrwt>
</event>
<event>
 9    1  0.7816570E-001  0.2647419E+03  0.7818608E-02  0.1104327E+00
          2   -1    0    0  501    0  0.00000000000E+00  0.00000000000E+00  0.16166825561E+04  0.16166825561E+04  0.00000000000E+00 0.  1.
         -2   -1    0    0    0  501 -0.00000000000E+00 -0.00000000000E+00 -0.10838287118E+02  0.10838287118E+02  0.00000000000E+00 0.  1.
         35    2    1    2    0    0  0.00000000000E+00  0.71054273576E-14  0.16058442690E+04  0.16275208432E+04  0.26474190995E+03 0.  0.
         25    2    3    3    0    0  0.17952804508E+02  0.23103312230E+02  0.51241884375E+03  0.52650809622E+03  0.11739522025E+03 0.  0.
         25    2    3    3    0    0 -0.17952804508E+02 -0.23103312230E+02  0.10934254253E+04  0.11010127470E+04  0.12567355435E+03 0.  0.
          5    1    4    4  502    0  0.40833958082E+02  0.62613163024E+02  0.33179385180E+03  0.34014272065E+03  0.47000000000E+01 0.  1.
         -5    1    4    4    0  502 -0.22881153574E+02 -0.39509850794E+02  0.18062499194E+03  0.18636537557E+03  0.47000000000E+01 0.  1.
          5    1    5    5  503    0  0.76079061192E+01  0.48300955648E+02  0.56815644770E+03  0.57027598724E+03  0.47000000000E+01 0. -1.
         -5    1    5    5    0  503 -0.25560710627E+02 -0.71404267878E+02  0.52526897755E+03  0.53073675977E+03  0.47000000000E+01 0. -1.
<mgrwt>
<rscale>  0 0.26474191E+03</rscale>
<asrwt>0</asrwt>
<pdfrwt beam="1">  1        2 0.24872020E+00 0.26474191E+03</pdfrwt>
<pdfrwt beam="2">  1       -2 0.16674301E-02 0.26474191E+03</pdfrwt>
<totfact> 0.11932208E+04</totfact>
</mgrwt>
</event>
<event>
 9    1  0.7816570E-001  0.2758408E+03  0.7818608E-02  0.1097983E+00
          2   -1    0    0  501    0  0.00000000000E+00  0.00000000000E+00  0.11093891418E+03  0.11093891418E+03  0.00000000000E+00 0.  1.
         -2   -1    0    0    0  501 -0.00000000000E+00 -0.00000000000E+00 -0.17146412267E+03  0.17146412267E+03  0.00000000000E+00 0.  1.
         35    2    1    2    0    0  0.00000000000E+00  0.00000000000E+00 -0.60525208491E+02  0.28240303686E+03  0.27584084970E+03 0.  0.
         25    2    3    3    0    0 -0.16039609266E+02  0.52336091742E+02 -0.49271797590E+02  0.14532787734E+03  0.12528426210E+03 0.  0.
         25    2    3    3    0    0  0.16039609266E+02 -0.52336091742E+02 -0.11253410901E+02  0.13707515951E+03  0.12516638740E+03 0.  0.
          5    1    4    4  502    0  0.48036145409E+02  0.49166548842E+02 -0.41757949822E+02  0.80564490714E+02  0.47000000000E+01 0. -1.
         -5    1    4    4    0  502 -0.64075754675E+02  0.31695429008E+01 -0.75138477681E+01  0.64763386629E+02  0.47000000000E+01 0. -1.
          5    1    5    5  503    0  0.60450497651E+02 -0.77393946654E+01  0.22948042170E+02  0.65290608325E+02  0.47000000000E+01 0. -1.
         -5    1    5    5    0  503 -0.44410888385E+02 -0.44596697077E+02 -0.34201453071E+02  0.71784551189E+02  0.47000000000E+01 0. -1.
<mgrwt>
<rscale>  0 0.27584085E+03</rscale>
<asrwt>0</asrwt>
<pdfrwt beam="1">  1        2 0.17067525E-01 0.27584085E+03</pdfrwt>
<pdfrwt beam="2">  1       -2 0.26379096E-01 0.27584085E+03</pdfrwt>
<totfact> 0.42909511E+03</totfact>
</mgrwt>
</event>
<event>
 9    1  0.7816570E-001  0.2709171E+03  0.7818608E-02  0.1100756E+00
         -2   -1    0    0    0  501 -0.00000000000E+00  0.00000000000E+00  0.34581095521E+02  0.34581095521E+02  0.00000000000E+00 0. -1.
          2   -1    0    0  501    0  0.00000000000E+00 -0.00000000000E+00 -0.53060829793E+03  0.53060829793E+03  0.00000000000E+00 0. -1.
         35    2    1    2    0    0  0.00000000000E+00  0.71054273576E-14 -0.49602720241E+03  0.56518939345E+03  0.27091708130E+03 0.  0.
         25    2    3    3    0    0  0.10534038827E+02  0.18319290671E+02 -0.14970787952E+03  0.19658696551E+03  0.12564801404E+03 0.  0.
         25    2    3    3    0    0 -0.10534038827E+02 -0.18319290671E+02 -0.34631932289E+03  0.36860242794E+03  0.12443518029E+03 0.  0.
          5    1    4    4  502    0 -0.43765651152E+02  0.48129355307E+02 -0.73465554015E+02  0.98240239667E+02  0.47000000000E+01 0.  1.
         -5    1    4    4    0  502  0.54299689979E+02 -0.29810064636E+02 -0.76242325505E+02  0.98346725842E+02  0.47000000000E+01 0.  1.
          5    1    5    5  503    0  0.16442566237E+02  0.35427019963E+02 -0.26195371903E+03  0.26489105807E+03  0.47000000000E+01 0.  1.
         -5    1    5    5    0  503 -0.26976605064E+02 -0.53746310634E+02 -0.84365603853E+02  0.10371136987E+03  0.47000000000E+01 0.  1.
<mgrwt>
<rscale>  0 0.27091708E+03</rscale>
<asrwt>0</asrwt>
<pdfrwt beam="1">  1        2 0.81632042E-01 0.27091708E+03</pdfrwt>
<pdfrwt beam="2">  1       -2 0.53201688E-02 0.27091708E+03</pdfrwt>
<totfact> 0.10294856E+04</totfact>
</mgrwt>
</event>
<event>
 9    1  0.7816570E-001  0.2745503E+03  0.7818608E-02  0.1098703E+00
          2   -1    0    0  501    0  0.00000000000E+00  0.00000000000E+00  0.80078808850E+03  0.80078808850E+03  0.00000000000E+00 0.  1.
         -2   -1    0    0    0  501 -0.00000000000E+00 -0.00000000000E+00 -0.23532396670E+02  0.23532396670E+02  0.00000000000E+00 0.  1.
         35    2    1    2    0    0 -0.35527136788E-14  0.14210854715E-13  0.77725569183E+03  0.82432048517E+03  0.27455027188E+03 0.  0.
         25    2    3    3    0    0  0.19296209453E+02 -0.39822266821E+02  0.47157999798E+03  0.49126995945E+03  0.13038528266E+03 0.  0.
         25    2    3    3    0    0 -0.19296209453E+02  0.39822266821E+02  0.30567569385E+03  0.33305052571E+03  0.12460684666E+03 0.  0.
          5    1    4    4  502    0  0.58819527485E+02  0.22815346759E+02  0.20348721991E+03  0.21309485102E+03  0.47000000000E+01 0.  1.
         -5    1    4    4    0  502 -0.39523318032E+02 -0.62637613580E+02  0.26809277806E+03  0.27817510844E+03  0.47000000000E+01 0.  1.
          5    1    5    5  503    0 -0.22322782830E+02 -0.41154381466E+02  0.75291708242E+02  0.88785815742E+02  0.47000000000E+01 0.  1.
         -5    1    5    5    0  503  0.30265733770E+01  0.80976648286E+02  0.23038398561E+03  0.24426470997E+03  0.47000000000E+01 0.  1.
<mgrwt>
<rscale>  0 0.27455027E+03</rscale>
<asrwt>0</asrwt>
<pdfrwt beam="1">  1        2 0.12319815E+00 0.27455027E+03</pdfrwt>
<pdfrwt beam="2">  1       -2 0.36203693E-02 0.27455027E+03</pdfrwt>
<totfact> 0.11279208E+04</totfact>
</mgrwt>
</event>
<event>
 9    1  0.7816570E-001  0.2759604E+03  0.7818608E-02  0.1097916E+00
          1   -1    0    0  501    0  0.00000000000E+00  0.00000000000E+00  0.25004830470E+03  0.25004830470E+03  0.00000000000E+00 0. -1.
         -1   -1    0    0    0  501 -0.00000000000E+00 -0.00000000000E+00 -0.76139429101E+02  0.76139429101E+02  0.00000000000E+00 0. -1.
         35    2    1    2    0    0  0.71054273576E-14  0.35527136788E-14  0.17390887560E+03  0.32618773381E+03  0.27596039693E+03 0.  0.
         25    2    3    3    0    0 -0.51375984087E+02 -0.23790516073E+02  0.11727310301E+03  0.18022497558E+03  0.12458964940E+03 0.  0.
         25    2    3    3    0    0  0.51375984087E+02  0.23790516073E+02  0.56635772593E+02  0.14596275822E+03  0.12203292857E+03 0.  0.
          5    1    4    4  502    0  0.34619778066E+02 -0.74814864698E+01  0.74642835374E+02  0.82753516818E+02  0.47000000000E+01 0.  1.
         -5    1    4    4    0  502 -0.85995762152E+02 -0.16309029603E+02  0.42630267636E+02  0.97471458763E+02  0.47000000000E+01 0.  1.
          5    1    5    5  503    0 -0.19174394037E+02 -0.22276339387E+01  0.67025445973E+02  0.69907940518E+02  0.47000000000E+01 0.  1.
         -5    1    5    5    0  503  0.70550378124E+02  0.26018150011E+02 -0.10389673379E+02  0.76054817706E+02  0.47000000000E+01 0.  1.
<mgrwt>
<rscale>  0 0.27596040E+03</rscale>
<asrwt>0</asrwt>
<pdfrwt beam="1">  1        1 0.38468970E-01 0.27596040E+03</pdfrwt>
<pdfrwt beam="2">  1       -1 0.11713758E-01 0.27596040E+03</pdfrwt>
<totfact> 0.52189710E+03</totfact>
</mgrwt>
</event>
<event>
 9    1  0.7816570E-001  0.2715749E+03  0.7818608E-02  0.1100382E+00
         -2   -1    0    0    0  501 -0.00000000000E+00  0.00000000000E+00  0.24086406989E+03  0.24086406989E+03  0.00000000000E+00 0. -1.
          2   -1    0    0  501    0  0.00000000000E+00 -0.00000000000E+00 -0.76550362739E+02  0.76550362739E+02  0.00000000000E+00 0. -1.
         35    2    1    2    0    0  0.35527136788E-14  0.00000000000E+00  0.16431370715E+03  0.31741443262E+03  0.27157490253E+03 0.  0.
         25    2    3    3    0    0 -0.29216824430E+02  0.41676900838E+02  0.97638826370E+02  0.16676110685E+03  0.12524112523E+03 0.  0.
         25    2    3    3    0    0  0.29216824430E+02 -0.41676900838E+02  0.66674880777E+02  0.15065332578E+03  0.12514111214E+03 0.  0.
          5    1    4    4  502    0  0.46468106156E+02 -0.23944818380E+01  0.25953363871E+02  0.53485376779E+02  0.47000000000E+01 0. -1.
         -5    1    4    4    0  502 -0.75684930586E+02  0.44071382676E+02  0.71685462499E+02  0.11327573007E+03  0.47000000000E+01 0. -1.
          5    1    5    5  503    0 -0.10718588649E+02 -0.93217650481E+01 -0.34206593762E+02  0.37335834034E+02  0.47000000000E+01 0.  1.
         -5    1    5    5    0  503  0.39935413078E+02 -0.32355135790E+02  0.10088147454E+03  0.11331749174E+03  0.47000000000E+01 0.  1.
<mgrwt>
<rscale>  0 0.27157490E+03</rscale>
<asrwt>0</asrwt>
<pdfrwt beam="1">  1        2 0.11776979E-01 0.27157490E+03</pdfrwt>
<pdfrwt beam="2">  1       -2 0.37056010E-01 0.27157490E+03</pdfrwt>
<totfact> 0.35861856E+03</totfact>
</mgrwt>
</event>
<event>
 9    1  0.7816570E-001  0.2732667E+03  0.7818608E-02  0.1099424E+00
         -1   -1    0    0    0  501 -0.00000000000E+00  0.00000000000E+00  0.18167985666E+02  0.18167985666E+02  0.00000000000E+00 0. -1.
          1   -1    0    0  501    0  0.00000000000E+00 -0.00000000000E+00 -0.10275589353E+04  0.10275589353E+04  0.00000000000E+00 0. -1.
         35    2    1    2    0    0 -0.53290705182E-14  0.00000000000E+00 -0.10093909496E+04  0.10457269209E+04  0.27326672689E+03 0.  0.
         25    2    3    3    0    0 -0.84396635419E+01  0.41069458472E+02 -0.53297002624E+03  0.55154222688E+03  0.13558705994E+03 0.  0.
         25    2    3    3    0    0  0.84396635419E+01 -0.41069458472E+02 -0.47642092335E+03  0.49418469404E+03  0.12443346527E+03 0.  0.
          5    1    4    4  502    0  0.59174026050E+02  0.31546198064E+01 -0.30408558100E+03  0.30984132641E+03  0.47000000000E+01 0.  1.
         -5    1    4    4    0  502 -0.67613689592E+02  0.37914838666E+02 -0.22888444524E+03  0.24170090047E+03  0.47000000000E+01 0.  1.
          5    1    5    5  503    0 -0.42240587652E+01 -0.34310093319E+02 -0.25998416017E+02  0.43508996902E+02  0.47000000000E+01 0. -1.
         -5    1    5    5    0  503  0.12663722307E+02 -0.67593651528E+01 -0.45042250734E+03  0.45067569714E+03  0.47000000000E+01 0. -1.
<mgrwt>
<rscale>  0 0.27326673E+03</rscale>
<asrwt>0</asrwt>
<pdfrwt beam="1">  1        1 0.15808599E+00 0.27326673E+03</pdfrwt>
<pdfrwt beam="2">  1       -1 0.27950746E-02 0.27326673E+03</pdfrwt>
<totfact> 0.63819302E+03</totfact>
</mgrwt>
</event>
<event>
 9    1  0.7816570E-001  0.2754360E+03  0.7818608E-02  0.1098208E+00
          1   -1    0    0  501    0  0.00000000000E+00  0.00000000000E+00  0.13859271896E+03  0.13859271896E+03  0.00000000000E+00 0.  1.
         -1   -1    0    0    0  501 -0.00000000000E+00 -0.00000000000E+00 -0.13684879604E+03  0.13684879604E+03  0.00000000000E+00 0.  1.
         35    2    1    2    0    0  0.14210854715E-13  0.00000000000E+00  0.17439229207E+01  0.27544151499E+03  0.27543599422E+03 0.  0.
         25    2    3    3    0    0  0.39039540787E+02  0.31374731662E+02  0.14296076249E+02  0.13547140794E+03  0.12505864640E+03 0.  0.
         25    2    3    3    0    0 -0.39039540787E+02 -0.31374731662E+02 -0.12552153328E+02  0.13997010706E+03  0.13009848110E+03 0.  0.
          5    1    4    4  502    0  0.48413436473E+02  0.34144865545E+02  0.62393008807E+02  0.86166758220E+02  0.47000000000E+01 0.  1.
         -5    1    4    4    0  502 -0.93738956862E+01 -0.27701338828E+01 -0.48096932558E+02  0.49304649716E+02  0.47000000000E+01 0.  1.
          5    1    5    5  503    0 -0.46381667862E+02  0.42643289724E+02 -0.16618200084E+02  0.65329655182E+02  0.47000000000E+01 0. -1.
         -5    1    5    5    0  503  0.73421270750E+01 -0.74018021385E+02  0.40660467562E+01  0.74640451874E+02  0.47000000000E+01 0. -1.
<mgrwt>
<rscale>  0 0.27543599E+03</rscale>
<asrwt>0</asrwt>
<pdfrwt beam="1">  1        1 0.21321957E-01 0.27543599E+03</pdfrwt>
<pdfrwt beam="2">  1       -1 0.21053661E-01 0.27543599E+03</pdfrwt>
<totfact> 0.43274184E+03</totfact>
</mgrwt>
</event>
<event>
 9    1  0.7816570E-001  0.2785698E+03  0.7818608E-02  0.1096473E+00
          1   -1    0    0  501    0  0.00000000000E+00  0.00000000000E+00  0.10792324626E+04  0.10792324626E+04  0.00000000000E+00 0.  1.
         -1   -1    0    0    0  501 -0.00000000000E+00 -0.00000000000E+00 -0.17975996863E+02  0.17975996863E+02  0.00000000000E+00 0.  1.
         35    2    1    2    0    0  0.71054273576E-14  0.53290705182E-14  0.10612564658E+04  0.10972084595E+04  0.27856977124E+03 0.  0.
         25    2    3    3    0    0 -0.51342928392E+02  0.55960195803E+01  0.40154299904E+03  0.42373888868E+03  0.12510177444E+03 0.  0.
         25    2    3    3    0    0  0.51342928392E+02 -0.55960195803E+01  0.65971346673E+03  0.67346957082E+03  0.12518783048E+03 0.  0.
          5    1    4    4  502    0 -0.30964824318E+02  0.40973854450E+02  0.57459670089E+02  0.77209978501E+02  0.47000000000E+01 0.  1.
         -5    1    4    4    0  502 -0.20378104075E+02 -0.35377834870E+02  0.34408332895E+03  0.34652891018E+03  0.47000000000E+01 0.  1.
          5    1    5    5  503    0 -0.17320629147E+02  0.66713614446E+00  0.10947176225E+02  0.21032829861E+02  0.47000000000E+01 0.  1.
         -5    1    5    5    0  503  0.68663557539E+02 -0.62631557247E+01  0.64876629050E+03  0.65243674095E+03  0.47000000000E+01 0.  1.
<mgrwt>
<rscale>  0 0.27856977E+03</rscale>
<asrwt>0</asrwt>
<pdfrwt beam="1">  1        1 0.16603571E+00 0.27856977E+03</pdfrwt>
<pdfrwt beam="2">  1       -1 0.27655388E-02 0.27856977E+03</pdfrwt>
<totfact> 0.59433670E+03</totfact>
</mgrwt>
</event>
<event>
 9    1  0.7816570E-001  0.2785592E+03  0.7818608E-02  0.1096478E+00
          2   -1    0    0  501    0  0.00000000000E+00  0.00000000000E+00  0.28792091479E+03  0.28792091479E+03  0.00000000000E+00 0. -1.
         -2   -1    0    0    0  501 -0.00000000000E+00 -0.00000000000E+00 -0.67375485453E+02  0.67375485453E+02  0.00000000000E+00 0. -1.
         35    2    1    2    0    0 -0.35527136788E-14  0.35527136788E-14  0.22054542933E+03  0.35529640024E+03  0.27855923180E+03 0.  0.
         25    2    3    3    0    0 -0.14696290836E+02 -0.14337037320E+02  0.43668260087E+02  0.13769186288E+03  0.12895968580E+03 0.  0.
         25    2    3    3    0    0  0.14696290836E+02  0.14337037320E+02  0.17687716925E+03  0.21760453736E+03  0.12507865555E+03 0.  0.
          5    1    4    4  502    0 -0.30834849307E+02 -0.66578526035E+02  0.37304096000E+02  0.82444973402E+02  0.47000000000E+01 0. -1.
         -5    1    4    4    0  502  0.16138558472E+02  0.52241488715E+02  0.63641640865E+01  0.55246889480E+02  0.47000000000E+01 0. -1.
          5    1    5    5  503    0  0.45584651099E+01  0.13679381606E+02  0.19538623782E+03  0.19597391922E+03  0.47000000000E+01 0. -1.
         -5    1    5    5    0  503  0.10137825726E+02  0.65765571407E+00 -0.18509068575E+02  0.21630618137E+02  0.47000000000E+01 0. -1.
<mgrwt>
<rscale>  0 0.27855923E+03</rscale>
<asrwt>0</asrwt>
<pdfrwt beam="1">  1        2 0.44295525E-01 0.27855923E+03</pdfrwt>
<pdfrwt beam="2">  1       -2 0.10365459E-01 0.27855923E+03</pdfrwt>
<totfact> 0.71145516E+03</totfact>
</mgrwt>
</event>
<event>
 9    1  0.7816570E-001  0.2543598E+03  0.7818608E-02  0.1110580E+00
          2   -1    0    0  501    0  0.00000000000E+00  0.00000000000E+00  0.83867410974E+03  0.83867410974E+03  0.00000000000E+00 0. -1.
         -2   -1    0    0    0  501 -0.00000000000E+00 -0.00000000000E+00 -0.19286062678E+02  0.19286062678E+02  0.00000000000E+00 0. -1.
         35    2    1    2    0    0  0.00000000000E+00 -0.35527136788E-14  0.81938804706E+03  0.85796017242E+03  0.25435975662E+03 0.  0.
         25    2    3    3    0    0 -0.83355825205E+01  0.27245240519E+02  0.43580262951E+03  0.45377718389E+03  0.12319908956E+03 0.  0.
         25    2    3    3    0    0  0.83355825205E+01 -0.27245240519E+02  0.38358541755E+03  0.40418298852E+03  0.12415446261E+03 0.  0.
          5    1    4    4  502    0  0.38742178457E+02 -0.19551792885E+02  0.74073846924E+02  0.85978216979E+02  0.47000000000E+01 0.  1.
         -5    1    4    4    0  502 -0.47077760978E+02  0.46797033403E+02  0.36172878258E+03  0.36779896691E+03  0.47000000000E+01 0.  1.
          5    1    5    5  503    0 -0.35946210593E+02  0.14341636045E+02  0.28935642847E+03  0.29197096650E+03  0.47000000000E+01 0. -1.
         -5    1    5    5    0  503  0.44281793113E+02 -0.41586876564E+02  0.94228989082E+02  0.11221202203E+03  0.47000000000E+01 0. -1.
<mgrwt>
<rscale>  0 0.25435976E+03</rscale>
<asrwt>0</asrwt>
<pdfrwt beam="1">  1        2 0.12902676E+00 0.25435976E+03</pdfrwt>
<pdfrwt beam="2">  1       -2 0.29670872E-02 0.25435976E+03</pdfrwt>
<totfact> 0.14261173E+04</totfact>
</mgrwt>
</event>
<event>
 9    1  0.7816570E-001  0.2742433E+03  0.7818608E-02  0.1098875E+00
          2   -1    0    0  501    0  0.00000000000E+00  0.00000000000E+00  0.37902143249E+03  0.37902143249E+03  0.00000000000E+00 0.  1.
         -2   -1    0    0    0  501 -0.00000000000E+00 -0.00000000000E+00 -0.49607626687E+02  0.49607626687E+02  0.00000000000E+00 0.  1.
         35    2    1    2    0    0 -0.71054273576E-14  0.00000000000E+00  0.32941380580E+03  0.42862905917E+03  0.27424334981E+03 0.  0.
         25    2    3    3    0    0 -0.19909765742E+02  0.51817928724E+02  0.14578235602E+03  0.19959460796E+03  0.12451512234E+03 0.  0.
         25    2    3    3    0    0  0.19909765742E+02 -0.51817928724E+02  0.18363144978E+03  0.22903445121E+03  0.12511903926E+03 0.  0.
          5    1    4    4  502    0 -0.13688240132E+02  0.33668605273E+02  0.16678408637E+03  0.17076288931E+03  0.47000000000E+01 0. -1.
         -5    1    4    4    0  502 -0.62215256101E+01  0.18149323451E+02 -0.21001730351E+02  0.28831718651E+02  0.47000000000E+01 0. -1.
          5    1    5    5  503    0 -0.49760864518E+02 -0.34258209587E+02  0.11272287334E+03  0.12797775094E+03  0.47000000000E+01 0.  1.
         -5    1    5    5    0  503  0.69670630260E+02 -0.17559719137E+02  0.70908576438E+02  0.10105670027E+03  0.47000000000E+01 0.  1.
<mgrwt>
<rscale>  0 0.27424335E+03</rscale>
<asrwt>0</asrwt>
<pdfrwt beam="1">  1        2 0.58310988E-01 0.27424335E+03</pdfrwt>
<pdfrwt beam="2">  1       -2 0.76319428E-02 0.27424335E+03</pdfrwt>
<totfact> 0.85624718E+03</totfact>
</mgrwt>
</event>
<event>
 9    1  0.7816570E-001  0.2751581E+03  0.7818608E-02  0.1098363E+00
          1   -1    0    0  501    0  0.00000000000E+00  0.00000000000E+00  0.16822980964E+04  0.16822980964E+04  0.00000000000E+00 0. -1.
         -1   -1    0    0    0  501 -0.00000000000E+00 -0.00000000000E+00 -0.11251272813E+02  0.11251272813E+02  0.00000000000E+00 0. -1.
         35    2    1    2    0    0  0.35527136788E-14  0.00000000000E+00  0.16710468236E+04  0.16935493692E+04  0.27515809881E+03 0.  0.
         25    2    3    3    0    0 -0.15829449619E+02  0.51044407674E+02  0.71744893254E+03  0.73028428148E+03  0.12540358027E+03 0.  0.
         25    2    3    3    0    0  0.15829449619E+02 -0.51044407674E+02  0.95359789108E+03  0.96326508776E+03  0.12519819649E+03 0.  0.
          5    1    4    4  502    0 -0.10024400371E+02  0.23699051795E+02  0.21780143138E+02  0.34038188757E+02  0.47000000000E+01 0.  1.
         -5    1    4    4    0  502 -0.58050492485E+01  0.27345355878E+02  0.69566878940E+03  0.69624609272E+03  0.47000000000E+01 0.  1.
          5    1    5    5  503    0  0.45389976455E+02 -0.76422754735E+02  0.49076646513E+03  0.49877299516E+03  0.47000000000E+01 0.  1.
         -5    1    5    5    0  503 -0.29560526836E+02  0.25378347061E+02  0.46283142595E+03  0.46449209260E+03  0.47000000000E+01 0.  1.
<mgrwt>
<rscale>  0 0.27515810E+03</rscale>
<asrwt>0</asrwt>
<pdfrwt beam="1">  1        1 0.25881489E+00 0.27515810E+03</pdfrwt>
<pdfrwt beam="2">  1       -1 0.17309664E-02 0.27515810E+03</pdfrwt>
<totfact> 0.45986175E+03</totfact>
</mgrwt>
</event>
<event>
 9    1  0.7816570E-001  0.2764644E+03  0.7818608E-02  0.1097636E+00
          4   -1    0    0  501    0  0.00000000000E+00  0.00000000000E+00  0.13532550872E+03  0.13532550872E+03  0.00000000000E+00 0. -1.
         -4   -1    0    0    0  501 -0.00000000000E+00 -0.00000000000E+00 -0.14120133834E+03  0.14120133834E+03  0.00000000000E+00 0. -1.
         35    2    1    2    0    0  0.00000000000E+00  0.71054273576E-14 -0.58758296210E+01  0.27652684706E+03  0.27646441321E+03 0.  0.
         25    2    3    3    0    0 -0.24180096954E+02 -0.53641192629E+02 -0.11860193642E+02  0.13806376783E+03  0.12433376516E+03 0.  0.
         25    2    3    3    0    0  0.24180096954E+02  0.53641192629E+02  0.59843640209E+01  0.13846307923E+03  0.12519647384E+03 0.  0.
          5    1    4    4  502    0  0.27613750603E+02  0.28613636522E+02 -0.68035686765E+01  0.40615735425E+02  0.47000000000E+01 0. -1.
         -5    1    4    4    0  502 -0.51793847557E+02 -0.82254829152E+02 -0.50566249654E+01  0.97448032405E+02  0.47000000000E+01 0. -1.
          5    1    5    5  503    0 -0.14185864914E+02  0.65312473798E+02 -0.39393017714E+02  0.77722955692E+02  0.47000000000E+01 0.  1.
         -5    1    5    5    0  503  0.38365961868E+02 -0.11671281168E+02  0.45377381735E+02  0.60740123537E+02  0.47000000000E+01 0.  1.
<mgrwt>
<rscale>  0 0.27646441E+03</rscale>
<asrwt>0</asrwt>
<pdfrwt beam="1">  1        4 0.20819309E-01 0.27646441E+03</pdfrwt>
<pdfrwt beam="2">  1       -4 0.21723283E-01 0.27646441E+03</pdfrwt>
<totfact> 0.76416176E+02</totfact>
</mgrwt>
</event>
<event>
 9    1  0.7816570E-001  0.2754670E+03  0.7818608E-02  0.1098191E+00
          1   -1    0    0  501    0  0.00000000000E+00  0.00000000000E+00  0.34112064324E+02  0.34112064324E+02  0.00000000000E+00 0. -1.
         -1   -1    0    0    0  501 -0.00000000000E+00 -0.00000000000E+00 -0.55612344419E+03  0.55612344419E+03  0.00000000000E+00 0. -1.
         35    2    1    2    0    0  0.00000000000E+00  0.71054273576E-14 -0.52201137987E+03  0.59023550851E+03  0.27546701218E+03 0.  0.
         25    2    3    3    0    0 -0.37421302975E+01  0.28430523539E+02 -0.15464566058E+03  0.20103346948E+03  0.12520733726E+03 0.  0.
         25    2    3    3    0    0  0.37421302975E+01 -0.28430523539E+02 -0.36736571928E+03  0.38920203904E+03  0.12529308552E+03 0.  0.
          5    1    4    4  502    0 -0.17952459180E+02 -0.18867627502E+02 -0.14873692761E+03  0.15107296844E+03  0.47000000000E+01 0.  1.
         -5    1    4    4    0  502  0.14210328882E+02  0.47298151040E+02 -0.59087329746E+01  0.49960501040E+02  0.47000000000E+01 0.  1.
          5    1    5    5  503    0 -0.10384108730E+02 -0.49814800285E+02 -0.35782250564E+03  0.36145314991E+03  0.47000000000E+01 0. -1.
         -5    1    5    5    0  503  0.14126239028E+02  0.21384276746E+02 -0.95432136485E+01  0.27748889126E+02  0.47000000000E+01 0. -1.
<mgrwt>
<rscale>  0 0.27546701E+03</rscale>
<asrwt>0</asrwt>
<pdfrwt beam="1">  1        1 0.52480102E-02 0.27546701E+03</pdfrwt>
<pdfrwt beam="2">  1       -1 0.85557448E-01 0.27546701E+03</pdfrwt>
<totfact> 0.22002486E+03</totfact>
</mgrwt>
</event>
<event>
 9    1  0.7816570E-001  0.2744421E+03  0.7818608E-02  0.1098764E+00
         -2   -1    0    0    0  501 -0.00000000000E+00  0.00000000000E+00  0.65564762016E+02  0.65564762016E+02  0.00000000000E+00 0.  1.
          2   -1    0    0  501    0  0.00000000000E+00 -0.00000000000E+00 -0.28719111934E+03  0.28719111934E+03  0.00000000000E+00 0.  1.
         35    2    1    2    0    0  0.00000000000E+00 -0.71054273576E-14 -0.22162635732E+03  0.35275588135E+03  0.27444210604E+03 0.  0.
         25    2    3    3    0    0 -0.50131767055E+02 -0.15953614953E+02 -0.83727715512E+02  0.15909171446E+03  0.12462797184E+03 0.  0.
         25    2    3    3    0    0  0.50131767055E+02  0.15953614953E+02 -0.13789864181E+03  0.19366416690E+03  0.12538764783E+03 0.  0.
          5    1    4    4  502    0 -0.11101902671E+02 -0.53161078404E+02 -0.89357565085E+02  0.10467194915E+03  0.47000000000E+01 0.  1.
         -5    1    4    4    0  502 -0.39029864383E+02  0.37207463450E+02  0.56298495730E+01  0.54419765310E+02  0.47000000000E+01 0.  1.
          5    1    5    5  503    0  0.58784615938E+01 -0.48287275560E+02 -0.88833652905E+02  0.10138897958E+03  0.47000000000E+01 0. -1.
         -5    1    5    5    0  503  0.44253305461E+02  0.64240890514E+02 -0.49064988903E+02  0.92275187316E+02  0.47000000000E+01 0. -1.
<mgrwt>
<rscale>  0 0.27444211E+03</rscale>
<asrwt>0</asrwt>
<pdfrwt beam="1">  1        2 0.44183249E-01 0.27444211E+03</pdfrwt>
<pdfrwt beam="2">  1       -2 0.10086887E-01 0.27444211E+03</pdfrwt>
<totfact> 0.74461247E+03</totfact>
</mgrwt>
</event>
<event>
 9    1  0.7816570E-001  0.2764524E+03  0.7818608E-02  0.1097642E+00
          1   -1    0    0  501    0  0.00000000000E+00  0.00000000000E+00  0.44677133098E+03  0.44677133098E+03  0.00000000000E+00 0. -1.
         -1   -1    0    0    0  501 -0.00000000000E+00 -0.00000000000E+00 -0.42765686942E+02  0.42765686942E+02  0.00000000000E+00 0. -1.
         35    2    1    2    0    0 -0.71054273576E-14  0.00000000000E+00  0.40400564403E+03  0.48953701792E+03  0.27645240368E+03 0.  0.
         25    2    3    3    0    0 -0.34942292742E+02 -0.41116466159E+02  0.16573573666E+03  0.21448858796E+03  0.12500196938E+03 0.  0.
         25    2    3    3    0    0  0.34942292742E+02  0.41116466159E+02  0.23826990738E+03  0.27504842996E+03  0.12636282067E+03 0.  0.
          5    1    4    4  502    0 -0.75728729026E+01 -0.42578348007E+02  0.17861961668E+03  0.18384047864E+03  0.47000000000E+01 0. -1.
         -5    1    4    4    0  502 -0.27369419839E+02  0.14618818478E+01 -0.12883880022E+02  0.30648109327E+02  0.47000000000E+01 0. -1.
          5    1    5    5  503    0  0.67144461689E+02  0.83752456338E+01  0.21054150467E+03  0.22119751053E+03  0.47000000000E+01 0. -1.
         -5    1    5    5    0  503 -0.32202168947E+02  0.32741220525E+02  0.27728402704E+02  0.53850919425E+02  0.47000000000E+01 0. -1.
<mgrwt>
<rscale>  0 0.27645240E+03</rscale>
<asrwt>0</asrwt>
<pdfrwt beam="1">  1        1 0.68734048E-01 0.27645240E+03</pdfrwt>
<pdfrwt beam="2">  1       -1 0.65793368E-02 0.27645240E+03</pdfrwt>
<totfact> 0.60598313E+03</totfact>
</mgrwt>
</event>
<event>
 9    1  0.7816570E-001  0.2734234E+03  0.7818608E-02  0.1099336E+00
         -2   -1    0    0    0  501 -0.00000000000E+00  0.00000000000E+00  0.22845535985E+02  0.22845535985E+02  0.00000000000E+00 0. -1.
          2   -1    0    0  501    0  0.00000000000E+00 -0.00000000000E+00 -0.81810673186E+03  0.81810673186E+03  0.00000000000E+00 0. -1.
         35    2    1    2    0    0  0.00000000000E+00 -0.71054273576E-14 -0.79526119588E+03  0.84095226785E+03  0.27342338439E+03 0.  0.
         25    2    3    3    0    0 -0.44351290089E+02  0.19793239776E+02 -0.29273903683E+03  0.32064251158E+03  0.12147702364E+03 0.  0.
         25    2    3    3    0    0  0.44351290089E+02 -0.19793239776E+02 -0.50252215905E+03  0.52030975627E+03  0.12583685019E+03 0.  0.
          5    1    4    4  502    0  0.38175638764E+02  0.11030276049E+02 -0.15209729719E+03  0.15727277004E+03  0.47000000000E+01 0. -1.
         -5    1    4    4    0  502 -0.82526928854E+02  0.87629637264E+01 -0.14064173964E+03  0.16336974153E+03  0.47000000000E+01 0. -1.
          5    1    5    5  503    0 -0.27074979000E+02 -0.34166458241E+02 -0.33105825606E+03  0.33394918815E+03  0.47000000000E+01 0. -1.
         -5    1    5    5    0  503  0.71426269090E+02  0.14373218465E+02 -0.17146390298E+03  0.18636056812E+03  0.47000000000E+01 0. -1.
<mgrwt>
<rscale>  0 0.27342338E+03</rscale>
<asrwt>0</asrwt>
<pdfrwt beam="1">  1        2 0.12586257E+00 0.27342338E+03</pdfrwt>
<pdfrwt beam="2">  1       -2 0.35146979E-02 0.27342338E+03</pdfrwt>
<totfact> 0.11470862E+04</totfact>
</mgrwt>
</event>
<event>
 9    1  0.7816570E-001  0.2883325E+03  0.7818608E-02  0.1091223E+00
          2   -1    0    0  501    0  0.00000000000E+00  0.00000000000E+00  0.26942477897E+03  0.26942477897E+03  0.00000000000E+00 0.  1.
         -2   -1    0    0    0  501 -0.00000000000E+00 -0.00000000000E+00 -0.77141757216E+02  0.77141757216E+02  0.00000000000E+00 0.  1.
         35    2    1    2    0    0  0.00000000000E+00  0.53290705182E-14  0.19228302175E+03  0.34656653618E+03  0.28833245316E+03 0.  0.
         25    2    3    3    0    0  0.64764480658E+02  0.86757337714E+01  0.62490276962E+02  0.15391424714E+03  0.12455863858E+03 0.  0.
         25    2    3    3    0    0 -0.64764480658E+02 -0.86757337714E+01  0.12979274479E+03  0.19265228905E+03  0.12648731780E+03 0.  0.
          5    1    4    4  502    0  0.11856480261E+02 -0.55158537338E+02  0.16416171814E+02  0.58945916419E+02  0.47000000000E+01 0. -1.
         -5    1    4    4    0  502  0.52908000397E+02  0.63834271110E+02  0.46074105148E+02  0.94968330718E+02  0.47000000000E+01 0. -1.
          5    1    5    5  503    0  0.31467406202E+02  0.20517832592E+01  0.15880093936E+01  0.31922080783E+02  0.47000000000E+01 0.  1.
         -5    1    5    5    0  503 -0.96231886861E+02 -0.10727517031E+02  0.12820473540E+03  0.16073020826E+03  0.47000000000E+01 0.  1.
<mgrwt>
<rscale>  0 0.28833245E+03</rscale>
<asrwt>0</asrwt>
<pdfrwt beam="1">  1        2 0.41449966E-01 0.28833245E+03</pdfrwt>
<pdfrwt beam="2">  1       -2 0.11867963E-01 0.28833245E+03</pdfrwt>
<totfact> 0.61571458E+03</totfact>
</mgrwt>
</event>
<event>
 9    1  0.7816570E-001  0.2794847E+03  0.7818608E-02  0.1095971E+00
          2   -1    0    0  501    0  0.00000000000E+00  0.00000000000E+00  0.19265536965E+03  0.19265536965E+03  0.00000000000E+00 0. -1.
         -2   -1    0    0    0  501 -0.00000000000E+00 -0.00000000000E+00 -0.10136194769E+03  0.10136194769E+03  0.00000000000E+00 0. -1.
         35    2    1    2    0    0 -0.14210854715E-13 -0.35527136788E-14  0.91293421964E+02  0.29401731734E+03  0.27948469368E+03 0.  0.
         25    2    3    3    0    0 -0.54343311707E+02  0.22460579507E+02  0.61396830358E+02  0.15346491072E+03  0.12776632923E+03 0.  0.
         25    2    3    3    0    0  0.54343311707E+02 -0.22460579507E+02  0.29896591606E+02  0.14055240662E+03  0.12411083619E+03 0.  0.
          5    1    4    4  502    0 -0.60448665750E+02 -0.34863279320E+02  0.11517863230E+01  0.69949310559E+02  0.47000000000E+01 0. -1.
         -5    1    4    4    0  502  0.61053540429E+01  0.57323858827E+02  0.60245044035E+02  0.83515600157E+02  0.47000000000E+01 0. -1.
          5    1    5    5  503    0  0.29297511153E+02  0.22710336014E+02 -0.39201019084E+02  0.54156379300E+02  0.47000000000E+01 0. -1.
         -5    1    5    5    0  503  0.25045800554E+02 -0.45170915521E+02  0.69097610690E+02  0.86396027324E+02  0.47000000000E+01 0. -1.
<mgrwt>
<rscale>  0 0.27948469E+03</rscale>
<asrwt>0</asrwt>
<pdfrwt beam="1">  1        2 0.29639288E-01 0.27948469E+03</pdfrwt>
<pdfrwt beam="2">  1       -2 0.15594146E-01 0.27948469E+03</pdfrwt>
<totfact> 0.56656355E+03</totfact>
</mgrwt>
</event>
<event>
 9    1  0.7816570E-001  0.2708178E+03  0.7818608E-02  0.1100812E+00
         -2   -1    0    0    0  501 -0.00000000000E+00  0.00000000000E+00  0.19190672981E+02  0.19190672981E+02  0.00000000000E+00 0. -1.
          2   -1    0    0  501    0  0.00000000000E+00 -0.00000000000E+00 -0.95544142378E+03  0.95544142378E+03  0.00000000000E+00 0. -1.
         35    2    1    2    0    0 -0.71054273576E-14 -0.35527136788E-14 -0.93625075080E+03  0.97463209676E+03  0.27081775360E+03 0.  0.
         25    2    3    3    0    0 -0.45650685203E+02  0.14221496131E+02 -0.38011613117E+03  0.40280492580E+03  0.12440779341E+03 0.  0.
         25    2    3    3    0    0  0.45650685203E+02 -0.14221496131E+02 -0.55613461963E+03  0.57182717096E+03  0.12415459028E+03 0.  0.
          5    1    4    4  502    0 -0.43607683012E+02 -0.24799262117E+01 -0.38264001460E+03  0.38515354189E+03  0.47000000000E+01 0. -1.
         -5    1    4    4    0  502 -0.20430021916E+01  0.16701422343E+02  0.25238834394E+01  0.17651383908E+02  0.47000000000E+01 0. -1.
          5    1    5    5  503    0  0.71024188974E+02  0.32970103573E+02 -0.36029963310E+03  0.36874025921E+03  0.47000000000E+01 0. -1.
         -5    1    5    5    0  503 -0.25373503771E+02 -0.47191599704E+02 -0.19583498653E+03  0.20308691175E+03  0.47000000000E+01 0. -1.
<mgrwt>
<rscale>  0 0.27081775E+03</rscale>
<asrwt>0</asrwt>
<pdfrwt beam="1">  1        2 0.14699102E+00 0.27081775E+03</pdfrwt>
<pdfrwt beam="2">  1       -2 0.29524106E-02 0.27081775E+03</pdfrwt>
<totfact> 0.12102012E+04</totfact>
</mgrwt>
</event>
<event>
 9    1  0.7816570E-001  0.2749983E+03  0.7818608E-02  0.1098453E+00
          2   -1    0    0  501    0  0.00000000000E+00  0.00000000000E+00  0.39819267451E+03  0.39819267451E+03  0.00000000000E+00 0. -1.
         -2   -1    0    0    0  501 -0.00000000000E+00 -0.00000000000E+00 -0.47479557321E+02  0.47479557321E+02  0.00000000000E+00 0. -1.
         35    2    1    2    0    0  0.00000000000E+00  0.00000000000E+00  0.35071311719E+03  0.44567223183E+03  0.27499826846E+03 0.  0.
         25    2    3    3    0    0 -0.49892183016E+02  0.23054282878E+02  0.15053608404E+03  0.20329532923E+03  0.12508856223E+03 0.  0.
         25    2    3    3    0    0  0.49892183016E+02 -0.23054282878E+02  0.20017703314E+03  0.24237690260E+03  0.12511989622E+03 0.  0.
          5    1    4    4  502    0 -0.78754730515E+02  0.24023227676E+02  0.15312550209E+03  0.17392220226E+03  0.47000000000E+01 0. -1.
         -5    1    4    4    0  502  0.28862547498E+02 -0.96894479787E+00 -0.25894180534E+01  0.29373126970E+02  0.47000000000E+01 0. -1.
          5    1    5    5  503    0  0.89698805643E+02 -0.29892941922E+02  0.15475622846E+03  0.18141401257E+03  0.47000000000E+01 0.  1.
         -5    1    5    5    0  503 -0.39806622627E+02  0.68386590431E+01  0.45420804685E+02  0.60962890029E+02  0.47000000000E+01 0.  1.
<mgrwt>
<rscale>  0 0.27499827E+03</rscale>
<asrwt>0</asrwt>
<pdfrwt beam="1">  1        2 0.61260409E-01 0.27499827E+03</pdfrwt>
<pdfrwt beam="2">  1       -2 0.73045476E-02 0.27499827E+03</pdfrwt>
<totfact> 0.86899655E+03</totfact>
</mgrwt>
</event>
<event>
 9    1  0.7816570E-001  0.2753666E+03  0.7818608E-02  0.1098247E+00
         -1   -1    0    0    0  501 -0.00000000000E+00  0.00000000000E+00  0.56693017704E+03  0.56693017704E+03  0.00000000000E+00 0. -1.
          1   -1    0    0  501    0  0.00000000000E+00 -0.00000000000E+00 -0.33437423990E+02  0.33437423990E+02  0.00000000000E+00 0. -1.
         35    2    1    2    0    0 -0.35527136788E-14 -0.14210854715E-13  0.53349275305E+03  0.60036760103E+03  0.27536655354E+03 0.  0.
         25    2    3    3    0    0 -0.31943913172E+02 -0.40667398155E+02  0.32734901436E+03  0.35343649935E+03  0.12282398384E+03 0.  0.
         25    2    3    3    0    0  0.31943913172E+02  0.40667398155E+02  0.20614373869E+03  0.24693110169E+03  0.12571983581E+03 0.  0.
          5    1    4    4  502    0 -0.47689760490E+02 -0.77523457008E+02  0.19864459313E+03  0.21855425876E+03  0.47000000000E+01 0. -1.
         -5    1    4    4    0  502  0.15745847318E+02  0.36856058853E+02  0.12870442123E+03  0.13488224058E+03  0.47000000000E+01 0. -1.
          5    1    5    5  503    0  0.31655019269E+02  0.82975808307E+02  0.10766620147E+03  0.13964643192E+03  0.47000000000E+01 0. -1.
         -5    1    5    5    0  503  0.28889390355E+00 -0.42308410153E+02  0.98477537218E+02  0.10728466976E+03  0.47000000000E+01 0. -1.
<mgrwt>
<rscale>  0 0.27536655E+03</rscale>
<asrwt>0</asrwt>
<pdfrwt beam="1">  1        1 0.51442195E-02 0.27536655E+03</pdfrwt>
<pdfrwt beam="2">  1       -1 0.87220020E-01 0.27536655E+03</pdfrwt>
<totfact> 0.21713984E+03</totfact>
</mgrwt>
</event>
<event>
 9    1  0.7816570E-001  0.2981638E+03  0.7818608E-02  0.1086162E+00
          2   -1    0    0  501    0  0.00000000000E+00  0.00000000000E+00  0.87708667589E+02  0.87708667589E+02  0.00000000000E+00 0.  1.
         -2   -1    0    0    0  501 -0.00000000000E+00 -0.00000000000E+00 -0.25340044777E+03  0.25340044777E+03  0.00000000000E+00 0.  1.
         35    2    1    2    0    0  0.00000000000E+00  0.00000000000E+00 -0.16569178018E+03  0.34110911536E+03  0.29816381833E+03 0.  0.
         25    2    3    3    0    0 -0.61486939106E+02 -0.51948606496E+02 -0.59499633738E+02  0.16106731121E+03  0.12618704739E+03 0.  0.
         25    2    3    3    0    0  0.61486939106E+02  0.51948606496E+02 -0.10619214644E+03  0.18004180414E+03  0.12107426595E+03 0.  0.
          5    1    4    4  502    0 -0.88312341447E+02 -0.37896254178E+02 -0.23780221654E+01  0.96244172405E+02  0.47000000000E+01 0.  1.
         -5    1    4    4    0  502  0.26825402341E+02 -0.14052352318E+02 -0.57121611573E+02  0.64823138809E+02  0.47000000000E+01 0.  1.
          5    1    5    5  503    0  0.18813132649E+02 -0.38603232273E+02 -0.46166069781E+02  0.63226098259E+02  0.47000000000E+01 0. -1.
         -5    1    5    5    0  503  0.42673806457E+02  0.90551838769E+02 -0.60026076658E+02  0.11681570588E+03  0.47000000000E+01 0. -1.
<mgrwt>
<rscale>  0 0.29816382E+03</rscale>
<asrwt>0</asrwt>
<pdfrwt beam="1">  1        2 0.13493641E-01 0.29816382E+03</pdfrwt>
<pdfrwt beam="2">  1       -2 0.38984683E-01 0.29816382E+03</pdfrwt>
<totfact> 0.27697069E+03</totfact>
</mgrwt>
</event>
<event>
 9    1  0.7816570E-001  0.2782884E+03  0.7818608E-02  0.1096627E+00
         -2   -1    0    0    0  501 -0.00000000000E+00  0.00000000000E+00  0.85251495219E+01  0.85251495219E+01  0.00000000000E+00 0. -1.
          2   -1    0    0  501    0  0.00000000000E+00 -0.00000000000E+00 -0.22710582666E+04  0.22710582666E+04  0.00000000000E+00 0. -1.
         35    2    1    2    0    0  0.00000000000E+00  0.00000000000E+00 -0.22625331171E+04  0.22795834161E+04  0.27828842086E+03 0.  0.
         25    2    3    3    0    0 -0.15924627886E+02  0.39292404509E+02 -0.10907180222E+04  0.10986989389E+04  0.12520410404E+03 0.  0.
         25    2    3    3    0    0  0.15924627886E+02 -0.39292404509E+02 -0.11718150949E+04  0.11808844772E+04  0.13978571107E+03 0.  0.
          5    1    4    4  502    0 -0.46053618705E+02 -0.30400151888E+02 -0.51756057647E+03  0.52051526909E+03  0.47000000000E+01 0. -1.
         -5    1    4    4    0  502  0.30128990819E+02  0.69692556398E+02 -0.57315744572E+03  0.57818366986E+03  0.47000000000E+01 0. -1.
          5    1    5    5  503    0  0.66770478928E+02 -0.14494785570E+02 -0.32339055717E+03  0.33056306226E+03  0.47000000000E+01 0. -1.
         -5    1    5    5    0  503 -0.50845851042E+02 -0.24797618939E+02 -0.84842453771E+03  0.85032141492E+03  0.47000000000E+01 0. -1.
<mgrwt>
<rscale>  0 0.27828842E+03</rscale>
<asrwt>0</asrwt>
<pdfrwt beam="1">  1        2 0.34939361E+00 0.27828842E+03</pdfrwt>
<pdfrwt beam="2">  1       -2 0.13115614E-02 0.27828842E+03</pdfrwt>
<totfact> 0.76617560E+03</totfact>
</mgrwt>
</event>
<event>
 9    1  0.7816570E-001  0.2656338E+03  0.7818608E-02  0.1103805E+00
          4   -1    0    0  501    0  0.00000000000E+00  0.00000000000E+00  0.37124611659E+03  0.37124611659E+03  0.00000000000E+00 0. -1.
         -4   -1    0    0    0  501 -0.00000000000E+00 -0.00000000000E+00 -0.47516522788E+02  0.47516522788E+02  0.00000000000E+00 0. -1.
         35    2    1    2    0    0  0.00000000000E+00  0.00000000000E+00  0.32372959380E+03  0.41876263938E+03  0.26563376712E+03 0.  0.
         25    2    3    3    0    0  0.46657406439E+01  0.36493129622E+02  0.20486762725E+03  0.24251233090E+03  0.12445066613E+03 0.  0.
         25    2    3    3    0    0 -0.46657406439E+01 -0.36493129622E+02  0.11886196656E+03  0.17625030848E+03  0.12482983017E+03 0.  0.
          5    1    4    4  502    0  0.52821943138E+02  0.18443619765E+02  0.17287358961E+03  0.18176273758E+03  0.47000000000E+01 0. -1.
         -5    1    4    4    0  502 -0.48156202494E+02  0.18049509856E+02  0.31994037633E+02  0.60749593322E+02  0.47000000000E+01 0. -1.
          5    1    5    5  503    0 -0.62984770968E+02 -0.23678184365E+02  0.44686057894E+02  0.80911504490E+02  0.47000000000E+01 0. -1.
         -5    1    5    5    0  503  0.58319030324E+02 -0.12814945256E+02  0.74175908664E+02  0.95338803989E+02  0.47000000000E+01 0. -1.
<mgrwt>
<rscale>  0 0.26563377E+03</rscale>
<asrwt>0</asrwt>
<pdfrwt beam="1">  1        4 0.57114785E-01 0.26563377E+03</pdfrwt>
<pdfrwt beam="2">  1       -4 0.73102345E-02 0.26563377E+03</pdfrwt>
<totfact> 0.70433461E+02</totfact>
</mgrwt>
</event>
<event>
 9    1  0.7816570E-001  0.2788549E+03  0.7818608E-02  0.1096316E+00
         -2   -1    0    0    0  501 -0.00000000000E+00  0.00000000000E+00  0.78844030501E+02  0.78844030501E+02  0.00000000000E+00 0. -1.
          2   -1    0    0  501    0  0.00000000000E+00 -0.00000000000E+00 -0.24656293448E+03  0.24656293448E+03  0.00000000000E+00 0. -1.
         35    2    1    2    0    0 -0.35527136788E-14  0.00000000000E+00 -0.16771890398E+03  0.32540696498E+03  0.27885491229E+03 0.  0.
         25    2    3    3    0    0  0.35874863977E+01 -0.39811586425E+02 -0.14141386981E+03  0.19146226804E+03  0.12272768650E+03 0.  0.
         25    2    3    3    0    0 -0.35874863977E+01  0.39811586425E+02 -0.26305034169E+02  0.13394469695E+03  0.12510553363E+03 0.  0.
          5    1    4    4  502    0  0.41995096632E+02 -0.59334208375E+02 -0.44658620893E+02  0.85443658892E+02  0.47000000000E+01 0. -1.
         -5    1    4    4    0  502 -0.38407610235E+02  0.19522621951E+02 -0.96755248918E+02  0.10601860914E+03  0.47000000000E+01 0. -1.
          5    1    5    5  503    0  0.10824662270E+02  0.83891861013E+02 -0.17495257444E+02  0.86505443126E+02  0.47000000000E+01 0. -1.
         -5    1    5    5    0  503 -0.14412148668E+02 -0.44080274588E+02 -0.88097767251E+01  0.47439253819E+02  0.47000000000E+01 0. -1.
<mgrwt>
<rscale>  0 0.27885491E+03</rscale>
<asrwt>0</asrwt>
<pdfrwt beam="1">  1        2 0.37932759E-01 0.27885491E+03</pdfrwt>
<pdfrwt beam="2">  1       -2 0.12129851E-01 0.27885491E+03</pdfrwt>
<totfact> 0.65336854E+03</totfact>
</mgrwt>
</event>
<event>
 9    1  0.7816570E-001  0.2759309E+03  0.7818608E-02  0.1097932E+00
          3   -1    0    0  501    0  0.00000000000E+00  0.00000000000E+00  0.60689168375E+02  0.60689168375E+02  0.00000000000E+00 0.  1.
         -3   -1    0    0    0  501 -0.00000000000E+00 -0.00000000000E+00 -0.31363857209E+03  0.31363857209E+03  0.00000000000E+00 0.  1.
         35    2    1    2    0    0  0.00000000000E+00  0.00000000000E+00 -0.25294940372E+03  0.37432774047E+03  0.27593089070E+03 0.  0.
         25    2    3    3    0    0 -0.49047755776E+02 -0.22254110506E+02 -0.15585538530E+03  0.20736874710E+03  0.12573769667E+03 0.  0.
         25    2    3    3    0    0  0.49047755776E+02  0.22254110506E+02 -0.97094018420E+02  0.16695899337E+03  0.12468812804E+03 0.  0.
          5    1    4    4  502    0 -0.70226458077E+01 -0.62929620533E+02 -0.33771532571E+02  0.71917043228E+02  0.47000000000E+01 0. -1.
         -5    1    4    4    0  502 -0.42025109968E+02  0.40675510027E+02 -0.12208385273E+03  0.13545170387E+03  0.47000000000E+01 0. -1.
          5    1    5    5  503    0  0.87840175270E+02  0.24531719967E+02 -0.45026090557E+02  0.10181915589E+03  0.47000000000E+01 0. -1.
         -5    1    5    5    0  503 -0.38792419493E+02 -0.22776094608E+01 -0.52067927863E+02  0.65139837480E+02  0.47000000000E+01 0. -1.
<mgrwt>
<rscale>  0 0.27593089E+03</rscale>
<asrwt>0</asrwt>
<pdfrwt beam="1">  1        3 0.93367951E-02 0.27593089E+03</pdfrwt>
<pdfrwt beam="2">  1       -3 0.48252088E-01 0.27593089E+03</pdfrwt>
<totfact> 0.90232828E+02</totfact>
</mgrwt>
</event>
<event>
 9    1  0.7816570E-001  0.2794811E+03  0.7818608E-02  0.1095973E+00
         -2   -1    0    0    0  501 -0.00000000000E+00  0.00000000000E+00  0.12295764179E+03  0.12295764179E+03  0.00000000000E+00 0.  1.
          2   -1    0    0  501    0  0.00000000000E+00 -0.00000000000E+00 -0.15881419064E+03  0.15881419064E+03  0.00000000000E+00 0.  1.
         35    2    1    2    0    0  0.00000000000E+00  0.14210854715E-13 -0.35856548845E+02  0.28177183243E+03  0.27948107889E+03 0.  0.
         25    2    3    3    0    0 -0.97148066082E+01  0.63585469126E+02 -0.13369250138E+02  0.14073242327E+03  0.12445637291E+03 0.  0.
         25    2    3    3    0    0  0.97148066082E+01 -0.63585469126E+02 -0.22487298707E+02  0.14103940916E+03  0.12348662673E+03 0.  0.
          5    1    4    4  502    0 -0.69305462258E+01  0.86041519674E+02  0.30069488797E+02  0.91528354816E+02  0.47000000000E+01 0.  1.
         -5    1    4    4    0  502 -0.27842603824E+01 -0.22456050549E+02 -0.43438738935E+02  0.49204068454E+02  0.47000000000E+01 0.  1.
          5    1    5    5  503    0 -0.10075246748E+02  0.13651171529E+02 -0.52763693351E+02  0.55623398109E+02  0.47000000000E+01 0.  1.
         -5    1    5    5    0  503  0.19790053356E+02 -0.77236640654E+02  0.30276394644E+02  0.85416011052E+02  0.47000000000E+01 0.  1.
<mgrwt>
<rscale>  0 0.27948108E+03</rscale>
<asrwt>0</asrwt>
<pdfrwt beam="1">  1        2 0.24432952E-01 0.27948108E+03</pdfrwt>
<pdfrwt beam="2">  1       -2 0.18916560E-01 0.27948108E+03</pdfrwt>
<totfact> 0.50762197E+03</totfact>
</mgrwt>
</event>
<event>
 9    1  0.7816570E-001  0.2762127E+03  0.7818608E-02  0.1097776E+00
         -2   -1    0    0    0  501 -0.00000000000E+00  0.00000000000E+00  0.20313008063E+02  0.20313008063E+02  0.00000000000E+00 0. -1.
          2   -1    0    0  501    0  0.00000000000E+00 -0.00000000000E+00 -0.93897275082E+03  0.93897275082E+03  0.00000000000E+00 0. -1.
         35    2    1    2    0    0 -0.35527136788E-14  0.00000000000E+00 -0.91865974275E+03  0.95928575888E+03  0.27621267935E+03 0.  0.
         25    2    3    3    0    0  0.15231619545E+02  0.16976456130E+02 -0.64938724013E+03  0.66165191030E+03  0.12473676468E+03 0.  0.
         25    2    3    3    0    0 -0.15231619545E+02 -0.16976456130E+02 -0.26927250263E+03  0.29763384858E+03  0.12473181172E+03 0.  0.
          5    1    4    4  502    0 -0.22000541207E+02 -0.46410567983E+02 -0.31987706788E+03  0.32400832271E+03  0.47000000000E+01 0.  1.
         -5    1    4    4    0  502  0.37232160751E+02  0.63387024112E+02 -0.32951017225E+03  0.33764358759E+03  0.47000000000E+01 0.  1.
          5    1    5    5  503    0 -0.58297449877E+02 -0.90397829225E+00 -0.22895942806E+03  0.23631318104E+03  0.47000000000E+01 0. -1.
         -5    1    5    5    0  503  0.43065830332E+02 -0.16072477838E+02 -0.40313074570E+02  0.61320667538E+02  0.47000000000E+01 0. -1.
<mgrwt>
<rscale>  0 0.27621268E+03</rscale>
<asrwt>0</asrwt>
<pdfrwt beam="1">  1        2 0.14445729E+00 0.27621268E+03</pdfrwt>
<pdfrwt beam="2">  1       -2 0.31250794E-02 0.27621268E+03</pdfrwt>
<totfact> 0.11395881E+04</totfact>
</mgrwt>
</event>
<event>
 9    1  0.7816570E-001  0.2729963E+03  0.7818608E-02  0.1099577E+00
         -2   -1    0    0    0  501 -0.00000000000E+00  0.00000000000E+00  0.25951707968E+03  0.25951707968E+03  0.00000000000E+00 0. -1.
          2   -1    0    0  501    0  0.00000000000E+00 -0.00000000000E+00 -0.71793897758E+02  0.71793897758E+02  0.00000000000E+00 0. -1.
         35    2    1    2    0    0 -0.71054273576E-14  0.00000000000E+00  0.18772318192E+03  0.33131097744E+03  0.27299628338E+03 0.  0.
         25    2    3    3    0    0  0.32705261998E+02  0.44721927324E+02  0.77186211513E+02  0.15721408348E+03  0.12525522683E+03 0.  0.
         25    2    3    3    0    0 -0.32705261998E+02 -0.44721927324E+02  0.11053697041E+03  0.17409689396E+03  0.12256272563E+03 0.  0.
          5    1    4    4  502    0  0.52318203140E+02  0.80136327614E+02  0.48643043709E+02  0.10745818296E+03  0.47000000000E+01 0.  1.
         -5    1    4    4    0  502 -0.19612941142E+02 -0.35414400290E+02  0.28543167804E+02  0.49755900518E+02  0.47000000000E+01 0.  1.
          5    1    5    5  503    0 -0.57054994175E+01  0.19913048219E+02  0.10104455001E+03  0.10325295782E+03  0.47000000000E+01 0.  1.
         -5    1    5    5    0  503 -0.26999762581E+02 -0.64634975543E+02  0.94924204032E+01  0.70843936142E+02  0.47000000000E+01 0.  1.
<mgrwt>
<rscale>  0 0.27299628E+03</rscale>
<asrwt>0</asrwt>
<pdfrwt beam="1">  1        2 0.11045215E-01 0.27299628E+03</pdfrwt>
<pdfrwt beam="2">  1       -2 0.39925704E-01 0.27299628E+03</pdfrwt>
<totfact> 0.33681795E+03</totfact>
</mgrwt>
</event>
<event>
 9    1  0.7816570E-001  0.2785080E+03  0.7818608E-02  0.1096507E+00
          2   -1    0    0  501    0  0.00000000000E+00  0.00000000000E+00  0.24248810037E+04  0.24248810037E+04  0.00000000000E+00 0.  1.
         -2   -1    0    0    0  501 -0.00000000000E+00 -0.00000000000E+00 -0.79969604803E+01  0.79969604803E+01  0.00000000000E+00 0.  1.
         35    2    1    2    0    0 -0.14210854715E-13 -0.71054273576E-14  0.24168840432E+04  0.24328779641E+04  0.27850800747E+03 0.  0.
         25    2    3    3    0    0  0.43340549952E+02  0.43590288232E+02  0.13030398232E+04  0.13103636372E+04  0.12394177761E+03 0.  0.
         25    2    3    3    0    0 -0.43340549952E+02 -0.43590288232E+02  0.11138442200E+04  0.11225143270E+04  0.12494379298E+03 0.  0.
          5    1    4    4  502    0 -0.12241864727E+02  0.66762357546E+02  0.92800639405E+03  0.93049719668E+03  0.47000000000E+01 0.  1.
         -5    1    4    4    0  502  0.55582414680E+02 -0.23172069313E+02  0.37503342917E+03  0.37986644049E+03  0.47000000000E+01 0.  1.
          5    1    5    5  503    0 -0.70347016569E+02 -0.31564964706E+02  0.10395541115E+04  0.10424202082E+04  0.47000000000E+01 0.  1.
         -5    1    5    5    0  503  0.27006466617E+02 -0.12025323526E+02  0.74290108472E+02  0.80094118771E+02  0.47000000000E+01 0.  1.
<mgrwt>
<rscale>  0 0.27850801E+03</rscale>
<asrwt>0</asrwt>
<pdfrwt beam="1">  1        2 0.37305803E+00 0.27850801E+03</pdfrwt>
<pdfrwt beam="2">  1       -2 0.12303035E-02 0.27850801E+03</pdfrwt>
<totfact> 0.69488043E+03</totfact>
</mgrwt>
</event>
<event>
 9    1  0.7816570E-001  0.2771566E+03  0.7818608E-02  0.1097252E+00
          2   -1    0    0  501    0  0.00000000000E+00  0.00000000000E+00  0.10880172730E+04  0.10880172730E+04  0.00000000000E+00 0. -1.
         -2   -1    0    0    0  501 -0.00000000000E+00 -0.00000000000E+00 -0.17650401768E+02  0.17650401768E+02  0.00000000000E+00 0. -1.
         35    2    1    2    0    0  0.00000000000E+00 -0.35527136788E-14  0.10703668713E+04  0.11056676748E+04  0.27715657668E+03 0.  0.
         25    2    3    3    0    0 -0.47525846466E+02  0.19024356688E+02  0.41135106197E+03  0.43296826261E+03  0.12502474962E+03 0.  0.
         25    2    3    3    0    0  0.47525846466E+02 -0.19024356688E+02  0.65901580928E+03  0.67269941218E+03  0.12490808632E+03 0.  0.
          5    1    4    4  502    0 -0.51911411085E+02 -0.16443432266E+02  0.38360879067E+03  0.38748287103E+03  0.47000000000E+01 0.  1.
         -5    1    4    4    0  502  0.43855646196E+01  0.35467788955E+02  0.27742271306E+02  0.45485391584E+02  0.47000000000E+01 0.  1.
          5    1    5    5  503    0  0.52298548783E+02 -0.49942601385E+01  0.65434269418E+03  0.65646517979E+03  0.47000000000E+01 0. -1.
         -5    1    5    5    0  503 -0.47727023171E+01 -0.14030096550E+02  0.46731150994E+01  0.16234232391E+02  0.47000000000E+01 0. -1.
<mgrwt>
<rscale>  0 0.27715658E+03</rscale>
<asrwt>0</asrwt>
<pdfrwt beam="1">  1        2 0.16738722E+00 0.27715658E+03</pdfrwt>
<pdfrwt beam="2">  1       -2 0.27154473E-02 0.27715658E+03</pdfrwt>
<totfact> 0.11393942E+04</totfact>
</mgrwt>
</event>
<event>
 9    1  0.7816570E-001  0.2734076E+03  0.7818608E-02  0.1099345E+00
         -4   -1    0    0    0  501 -0.00000000000E+00  0.00000000000E+00  0.46765284714E+03  0.46765284714E+03  0.00000000000E+00 0. -1.
          4   -1    0    0  501    0  0.00000000000E+00 -0.00000000000E+00 -0.39961107234E+02  0.39961107234E+02  0.00000000000E+00 0. -1.
         35    2    1    2    0    0  0.00000000000E+00  0.00000000000E+00  0.42769173990E+03  0.50761395437E+03  0.27340757541E+03 0.  0.
         25    2    3    3    0    0 -0.52124365907E+02 -0.20830173084E+02  0.20148091092E+03  0.24312681660E+03  0.12395662892E+03 0.  0.
         25    2    3    3    0    0  0.52124365907E+02  0.20830173084E+02  0.22621082898E+03  0.26448713777E+03  0.12502504256E+03 0.  0.
          5    1    4    4  502    0  0.19566213997E+02 -0.15716650330E+02  0.15570602550E+03  0.15778563371E+03  0.47000000000E+01 0. -1.
         -5    1    4    4    0  502 -0.71690579904E+02 -0.51135227544E+01  0.45774885424E+02  0.85341182893E+02  0.47000000000E+01 0. -1.
          5    1    5    5  503    0 -0.25613936264E+01 -0.41693127824E+02  0.30826937327E+02  0.52127418026E+02  0.47000000000E+01 0. -1.
         -5    1    5    5    0  503  0.54685759533E+02  0.62523300909E+02  0.19538389165E+03  0.21235971974E+03  0.47000000000E+01 0. -1.
<mgrwt>
<rscale>  0 0.27340758E+03</rscale>
<asrwt>0</asrwt>
<pdfrwt beam="1">  1        4 0.61478630E-02 0.27340758E+03</pdfrwt>
<pdfrwt beam="2">  1       -4 0.71946588E-01 0.27340758E+03</pdfrwt>
<totfact> 0.57343683E+02</totfact>
</mgrwt>
</event>
<event>
 9    1  0.7816570E-001  0.2756054E+03  0.7818608E-02  0.1098114E+00
         -1   -1    0    0    0  501 -0.00000000000E+00  0.00000000000E+00  0.21255445948E+02  0.21255445948E+02  0.00000000000E+00 0.  1.
          1   -1    0    0  501    0  0.00000000000E+00 -0.00000000000E+00 -0.89339838492E+03  0.89339838492E+03  0.00000000000E+00 0.  1.
         35    2    1    2    0    0  0.00000000000E+00  0.00000000000E+00 -0.87214293897E+03  0.91465383087E+03  0.27560537789E+03 0.  0.
         25    2    3    3    0    0 -0.30251215361E+01 -0.77033472774E+01 -0.64347022134E+03  0.65551094692E+03  0.12478855261E+03 0.  0.
         25    2    3    3    0    0  0.30251215361E+01  0.77033472774E+01 -0.22867271763E+03  0.25914288394E+03  0.12163605383E+03 0.  0.
          5    1    4    4  502    0 -0.39132849612E+02  0.41927600716E+02 -0.41185099471E+03  0.41585169888E+03  0.47000000000E+01 0.  1.
         -5    1    4    4    0  502  0.36107728075E+02 -0.49630947993E+02 -0.23161922663E+03  0.23965924804E+03  0.47000000000E+01 0.  1.
          5    1    5    5  503    0  0.39887904222E+02 -0.40982329345E+02 -0.14068235014E+03  0.15193488692E+03  0.47000000000E+01 0. -1.
         -5    1    5    5    0  503 -0.36862782686E+02  0.48685676623E+02 -0.87990367486E+02  0.10720799702E+03  0.47000000000E+01 0. -1.
<mgrwt>
<rscale>  0 0.27560538E+03</rscale>
<asrwt>0</asrwt>
<pdfrwt beam="1">  1        1 0.13744589E+00 0.27560538E+03</pdfrwt>
<pdfrwt beam="2">  1       -1 0.32700691E-02 0.27560538E+03</pdfrwt>
<totfact> 0.64086736E+03</totfact>
</mgrwt>
</event>
<event>
 9    1  0.7816570E-001  0.2713751E+03  0.7818608E-02  0.1100495E+00
         -1   -1    0    0    0  501 -0.00000000000E+00  0.00000000000E+00  0.11357874657E+03  0.11357874657E+03  0.00000000000E+00 0.  1.
          1   -1    0    0  501    0  0.00000000000E+00 -0.00000000000E+00 -0.16209991593E+03  0.16209991593E+03  0.00000000000E+00 0.  1.
         35    2    1    2    0    0 -0.71054273576E-14  0.00000000000E+00 -0.48521169367E+02  0.27567866250E+03  0.27137505611E+03 0.  0.
         25    2    3    3    0    0 -0.39449679596E+02 -0.36756516507E+02 -0.11223126903E+02  0.13510592233E+03  0.12337071348E+03 0.  0.
         25    2    3    3    0    0  0.39449679596E+02  0.36756516507E+02 -0.37298042464E+02  0.14057274017E+03  0.12434722587E+03 0.  0.
          5    1    4    4  502    0  0.10180772325E+02 -0.39849910199E+01  0.48946998490E+02  0.50372879010E+02  0.47000000000E+01 0.  1.
         -5    1    4    4    0  502 -0.49630451921E+02 -0.32771525487E+02 -0.60170125393E+02  0.84733043321E+02  0.47000000000E+01 0.  1.
          5    1    5    5  503    0 -0.24518418871E+02  0.44022542650E+02 -0.53885523508E+02  0.73924804829E+02  0.47000000000E+01 0. -1.
         -5    1    5    5    0  503  0.63968098467E+02 -0.72660261424E+01  0.16587481045E+02  0.66647935338E+02  0.47000000000E+01 0. -1.
<mgrwt>
<rscale>  0 0.27137506E+03</rscale>
<asrwt>0</asrwt>
<pdfrwt beam="1">  1        1 0.24938448E-01 0.27137506E+03</pdfrwt>
<pdfrwt beam="2">  1       -1 0.17473653E-01 0.27137506E+03</pdfrwt>
<totfact> 0.47878442E+03</totfact>
</mgrwt>
</event>
<event>
 9    1  0.7816570E-001  0.2734775E+03  0.7818608E-02  0.1099306E+00
          2   -1    0    0  501    0  0.00000000000E+00  0.00000000000E+00  0.54837657325E+02  0.54837657325E+02  0.00000000000E+00 0. -1.
         -2   -1    0    0    0  501 -0.00000000000E+00 -0.00000000000E+00 -0.34096074717E+03  0.34096074717E+03  0.00000000000E+00 0. -1.
         35    2    1    2    0    0  0.35527136788E-14 -0.71054273576E-14 -0.28612308984E+03  0.39579840449E+03  0.27347752094E+03 0.  0.
         25    2    3    3    0    0 -0.31181104754E+02  0.39384894895E+02 -0.18595040405E+03  0.23016553100E+03  0.12599677636E+03 0.  0.
         25    2    3    3    0    0  0.31181104754E+02 -0.39384894895E+02 -0.10017268579E+03  0.16563287350E+03  0.12196823588E+03 0.  0.
          5    1    4    4  502    0 -0.46146985745E+02 -0.28926736732E+02 -0.38373071220E+02  0.66789841938E+02  0.47000000000E+01 0.  1.
         -5    1    4    4    0  502  0.14965880991E+02  0.68311631627E+02 -0.14757733283E+03  0.16337568906E+03  0.47000000000E+01 0.  1.
          5    1    5    5  503    0  0.65137125376E+02 -0.32487561168E+02 -0.16267125209E+02  0.74732831443E+02  0.47000000000E+01 0. -1.
         -5    1    5    5    0  503 -0.33956020622E+02 -0.68973337266E+01 -0.83905560581E+02  0.90900042054E+02  0.47000000000E+01 0. -1.
<mgrwt>
<rscale>  0 0.27347752E+03</rscale>
<asrwt>0</asrwt>
<pdfrwt beam="1">  1        2 0.84365627E-02 0.27347752E+03</pdfrwt>
<pdfrwt beam="2">  1       -2 0.52455499E-01 0.27347752E+03</pdfrwt>
<totfact> 0.27599732E+03</totfact>
</mgrwt>
</event>
<event>
 9    1  0.7816570E-001  0.2737699E+03  0.7818608E-02  0.1099141E+00
          3   -1    0    0  501    0  0.00000000000E+00  0.00000000000E+00  0.13628631152E+02  0.13628631152E+02  0.00000000000E+00 0. -1.
         -3   -1    0    0    0  501 -0.00000000000E+00 -0.00000000000E+00 -0.13748626290E+04  0.13748626290E+04  0.00000000000E+00 0. -1.
         35    2    1    2    0    0 -0.35527136788E-14  0.00000000000E+00 -0.13612339978E+04  0.13884912601E+04  0.27376994470E+03 0.  0.
         25    2    3    3    0    0 -0.22739272066E+02 -0.22020786535E+02 -0.89152276662E+03  0.90138334290E+03  0.12913983864E+03 0.  0.
         25    2    3    3    0    0  0.22739272066E+02  0.22020786535E+02 -0.46971123120E+03  0.48710791723E+03  0.12507394921E+03 0.  0.
          5    1    4    4  502    0 -0.57342389140E+02 -0.57746573644E+02 -0.61570394531E+03  0.62107668982E+03  0.47000000000E+01 0.  1.
         -5    1    4    4    0  502  0.34603117075E+02  0.35725787109E+02 -0.27581882131E+03  0.28030665309E+03  0.47000000000E+01 0.  1.
          5    1    5    5  503    0 -0.23336132989E+02  0.56099179759E+02 -0.14406661621E+03  0.15642561484E+03  0.47000000000E+01 0. -1.
         -5    1    5    5    0  503  0.46075405055E+02 -0.34078393224E+02 -0.32564461500E+03  0.33068230239E+03  0.47000000000E+01 0. -1.
<mgrwt>
<rscale>  0 0.27376994E+03</rscale>
<asrwt>0</asrwt>
<pdfrwt beam="1">  1        3 0.20967118E-02 0.27376994E+03</pdfrwt>
<pdfrwt beam="2">  1       -3 0.21151740E+00 0.27376994E+03</pdfrwt>
<totfact> 0.30499340E+02</totfact>
</mgrwt>
</event>
<event>
 9    1  0.7816570E-001  0.2774314E+03  0.7818608E-02  0.1097100E+00
         -2   -1    0    0    0  501 -0.00000000000E+00  0.00000000000E+00  0.14028387528E+02  0.14028387528E+02  0.00000000000E+00 0. -1.
          2   -1    0    0  501    0  0.00000000000E+00 -0.00000000000E+00 -0.13716507538E+04  0.13716507538E+04  0.00000000000E+00 0. -1.
         35    2    1    2    0    0  0.71054273576E-14 -0.17763568394E-14 -0.13576223663E+04  0.13856791413E+04  0.27743142092E+03 0.  0.
         25    2    3    3    0    0 -0.46969815742E+02  0.45268677930E+00 -0.49404705686E+03  0.51185707472E+03  0.12533475989E+03 0.  0.
         25    2    3    3    0    0  0.46969815742E+02 -0.45268677930E+00 -0.86357530942E+03  0.87382206661E+03  0.12488522949E+03 0.  0.
          5    1    4    4  502    0 -0.80015615502E+02  0.10146160309E+02 -0.44165563366E+03  0.44898466793E+03  0.47000000000E+01 0.  1.
         -5    1    4    4    0  502  0.33045799760E+02 -0.96934735297E+01 -0.52391423197E+02  0.62872406789E+02  0.47000000000E+01 0.  1.
          5    1    5    5  503    0  0.30828189810E+02 -0.31286407296E+02 -0.98621483491E+02  0.10806249846E+03  0.47000000000E+01 0. -1.
         -5    1    5    5    0  503  0.16141625931E+02  0.30833720517E+02 -0.76495382592E+03  0.76575956814E+03  0.47000000000E+01 0. -1.
<mgrwt>
<rscale>  0 0.27743142E+03</rscale>
<asrwt>0</asrwt>
<pdfrwt beam="1">  1        2 0.21102322E+00 0.27743142E+03</pdfrwt>
<pdfrwt beam="2">  1       -2 0.21582132E-02 0.27743142E+03</pdfrwt>
<totfact> 0.11063876E+04</totfact>
</mgrwt>
</event>
<event>
 9    1  0.7816570E-001  0.2749777E+03  0.7818608E-02  0.1098464E+00
         -2   -1    0    0    0  501 -0.00000000000E+00  0.00000000000E+00  0.18531212427E+03  0.18531212427E+03  0.00000000000E+00 0.  1.
          2   -1    0    0  501    0  0.00000000000E+00 -0.00000000000E+00 -0.10200724011E+03  0.10200724011E+03  0.00000000000E+00 0.  1.
         35    2    1    2    0    0 -0.71054273576E-14  0.00000000000E+00  0.83304884159E+02  0.28731936438E+03  0.27497765986E+03 0.  0.
         25    2    3    3    0    0  0.18409424823E+02 -0.42240191011E+02  0.76563109675E+02  0.15346900839E+03  0.12477053384E+03 0.  0.
         25    2    3    3    0    0 -0.18409424823E+02  0.42240191011E+02  0.67417744842E+01  0.13385035599E+03  0.12548834853E+03 0.  0.
          5    1    4    4  502    0 -0.46277516175E+02 -0.19208092038E+02 -0.25806278553E+00  0.50326095612E+02  0.47000000000E+01 0. -1.
         -5    1    4    4    0  502  0.64686940999E+02 -0.23032098972E+02  0.76821172460E+02  0.10314291278E+03  0.47000000000E+01 0. -1.
          5    1    5    5  503    0 -0.55903595384E+02  0.60540411963E+02  0.27519899142E+02  0.87004530378E+02  0.47000000000E+01 0.  1.
         -5    1    5    5    0  503  0.37494170560E+02 -0.18300220953E+02 -0.20778124658E+02  0.46845825612E+02  0.47000000000E+01 0.  1.
<mgrwt>
<rscale>  0 0.27497766E+03</rscale>
<asrwt>0</asrwt>
<pdfrwt beam="1">  1        2 0.15693422E-01 0.27497766E+03</pdfrwt>
<pdfrwt beam="2">  1       -2 0.28509558E-01 0.27497766E+03</pdfrwt>
<totfact> 0.41200095E+03</totfact>
</mgrwt>
</event>
<event>
 9    1  0.7816570E-001  0.2747875E+03  0.7818608E-02  0.1098570E+00
          2   -1    0    0  501    0  0.00000000000E+00  0.00000000000E+00  0.79272770830E+03  0.79272770830E+03  0.00000000000E+00 0.  1.
         -2   -1    0    0    0  501 -0.00000000000E+00 -0.00000000000E+00 -0.23812776944E+02  0.23812776944E+02  0.00000000000E+00 0.  1.
         35    2    1    2    0    0  0.00000000000E+00  0.00000000000E+00  0.76891493135E+03  0.81654048524E+03  0.27478754044E+03 0.  0.
         25    2    3    3    0    0 -0.38524839986E+01  0.38495307925E+02  0.55765011267E+03  0.57312976408E+03  0.12652014840E+03 0.  0.
         25    2    3    3    0    0  0.38524839986E+01 -0.38495307925E+02  0.21126481868E+03  0.24341072116E+03  0.11453918629E+03 0.  0.
          5    1    4    4  502    0  0.18077931466E+02 -0.12868873512E+02  0.45984241107E+03  0.46040151230E+03  0.47000000000E+01 0. -1.
         -5    1    4    4    0  502 -0.21930415464E+02  0.51364181437E+02  0.97807701604E+02  0.11272825178E+03  0.47000000000E+01 0. -1.
          5    1    5    5  503    0  0.14574404095E+02  0.18947383289E+02  0.20736831219E+00  0.24362873185E+02  0.47000000000E+01 0. -1.
         -5    1    5    5    0  503 -0.10721920097E+02 -0.57442691214E+02  0.21105745037E+03  0.21904784797E+03  0.47000000000E+01 0. -1.
<mgrwt>
<rscale>  0 0.27478754E+03</rscale>
<asrwt>0</asrwt>
<pdfrwt beam="1">  1        2 0.12195809E+00 0.27478754E+03</pdfrwt>
<pdfrwt beam="2">  1       -2 0.36635048E-02 0.27478754E+03</pdfrwt>
<totfact> 0.11224500E+04</totfact>
</mgrwt>
</event>
<event>
 9    1  0.7816570E-001  0.2766904E+03  0.7818608E-02  0.1097510E+00
          2   -1    0    0  501    0  0.00000000000E+00  0.00000000000E+00  0.94088445977E+03  0.94088445977E+03  0.00000000000E+00 0. -1.
         -2   -1    0    0    0  501 -0.00000000000E+00 -0.00000000000E+00 -0.20341914460E+02  0.20341914460E+02  0.00000000000E+00 0. -1.
         35    2    1    2    0    0  0.71054273576E-14  0.00000000000E+00  0.92054254531E+03  0.96122637423E+03  0.27669037712E+03 0.  0.
         25    2    3    3    0    0  0.38780880712E+02  0.19881180245E+02  0.37287805582E+03  0.39727477585E+03  0.12996147497E+03 0.  0.
         25    2    3    3    0    0 -0.38780880712E+02 -0.19881180245E+02  0.54766448949E+03  0.56395159838E+03  0.12730198047E+03 0.  0.
          5    1    4    4  502    0  0.77336447580E+02 -0.19653203908E+02  0.25021268396E+03  0.26267023387E+03  0.47000000000E+01 0.  1.
         -5    1    4    4    0  502 -0.38555566868E+02  0.39534384153E+02  0.12266537187E+03  0.13460454198E+03  0.47000000000E+01 0.  1.
          5    1    5    5  503    0 -0.70021703335E+02 -0.52468942042E+02  0.39922319132E+03  0.40872640642E+03  0.47000000000E+01 0. -1.
         -5    1    5    5    0  503  0.31240822624E+02  0.32587761797E+02  0.14844129817E+03  0.15522519196E+03  0.47000000000E+01 0. -1.
<mgrwt>
<rscale>  0 0.27669038E+03</rscale>
<asrwt>0</asrwt>
<pdfrwt beam="1">  1        2 0.14475142E+00 0.27669038E+03</pdfrwt>
<pdfrwt beam="2">  1       -2 0.31295260E-02 0.27669038E+03</pdfrwt>
<totfact> 0.11340809E+04</totfact>
</mgrwt>
</event>
<event>
 9    1  0.7816570E-001  0.2763832E+03  0.7818608E-02  0.1097681E+00
          1   -1    0    0  501    0  0.00000000000E+00  0.00000000000E+00  0.39979331057E+04  0.39979331057E+04  0.00000000000E+00 0.  1.
         -1   -1    0    0    0  501 -0.00000000000E+00 -0.00000000000E+00 -0.47766983110E+01  0.47766983110E+01  0.00000000000E+00 0.  1.
         35    2    1    2    0    0  0.00000000000E+00  0.14210854715E-13  0.39931564074E+04  0.40027098040E+04  0.27638321450E+03 0.  0.
         25    2    3    3    0    0  0.54947330725E+02 -0.22392066945E+02  0.19614702735E+04  0.19663161263E+04  0.12455063603E+03 0.  0.
         25    2    3    3    0    0 -0.54947330725E+02  0.22392066945E+02  0.20316861339E+04  0.20363936777E+04  0.12502019893E+03 0.  0.
          5    1    4    4  502    0  0.60698214685E+02  0.40367279122E+02  0.12041370016E+04  0.12063506120E+04  0.47000000000E+01 0. -1.
         -5    1    4    4    0  502 -0.57508839598E+01 -0.62759346067E+02  0.75733327192E+03  0.75996551431E+03  0.47000000000E+01 0. -1.
          5    1    5    5  503    0 -0.66329964953E+01  0.69855483823E+02  0.98350408272E+03  0.98601529197E+03  0.47000000000E+01 0.  1.
         -5    1    5    5    0  503 -0.48314334230E+02 -0.47463416878E+02  0.10481820512E+04  0.10503783858E+04  0.47000000000E+01 0.  1.
<mgrwt>
<rscale>  0 0.27638321E+03</rscale>
<asrwt>0</asrwt>
<pdfrwt beam="1">  1        1 0.61506396E+00 0.27638321E+03</pdfrwt>
<pdfrwt beam="2">  1       -1 0.73487986E-03 0.27638321E+03</pdfrwt>
<totfact> 0.36959601E+02</totfact>
</mgrwt>
</event>
<event>
 9    1  0.7816570E-001  0.2758427E+03  0.7818608E-02  0.1097981E+00
         -1   -1    0    0    0  501 -0.00000000000E+00  0.00000000000E+00  0.35589076161E+03  0.35589076161E+03  0.00000000000E+00 0.  1.
          1   -1    0    0  501    0  0.00000000000E+00 -0.00000000000E+00 -0.53449834899E+02  0.53449834899E+02  0.00000000000E+00 0.  1.
         35    2    1    2    0    0  0.00000000000E+00  0.00000000000E+00  0.30244092671E+03  0.40934059651E+03  0.27584272657E+03 0.  0.
         25    2    3    3    0    0  0.21664419473E+01 -0.28960327157E+02  0.75232595901E+02  0.14821568657E+03  0.12435655286E+03 0.  0.
         25    2    3    3    0    0 -0.21664419473E+01  0.28960327157E+02  0.22720833081E+03  0.26112490995E+03  0.12537622974E+03 0.  0.
          5    1    4    4  502    0  0.99268221829E+00  0.38930464672E+02 -0.86749844651E+01  0.40173521790E+02  0.47000000000E+01 0. -1.
         -5    1    4    4    0  502  0.11737597290E+01 -0.67890791828E+02  0.83907580366E+02  0.10804216478E+03  0.47000000000E+01 0. -1.
          5    1    5    5  503    0 -0.24907715127E+02  0.71593349592E+02  0.16932885311E+03  0.18558112101E+03  0.47000000000E+01 0. -1.
         -5    1    5    5    0  503  0.22741273180E+02 -0.42633022436E+02  0.57879477705E+02  0.75543788939E+02  0.47000000000E+01 0. -1.
<mgrwt>
<rscale>  0 0.27584273E+03</rscale>
<asrwt>0</asrwt>
<pdfrwt beam="1">  1        1 0.82230517E-02 0.27584273E+03</pdfrwt>
<pdfrwt beam="2">  1       -1 0.54752423E-01 0.27584273E+03</pdfrwt>
<totfact> 0.28909645E+03</totfact>
</mgrwt>
</event>
<event>
 9    1  0.7816570E-001  0.2758968E+03  0.7818608E-02  0.1097951E+00
          2   -1    0    0  501    0  0.00000000000E+00  0.00000000000E+00  0.28411710542E+04  0.28411710542E+04  0.00000000000E+00 0. -1.
         -2   -1    0    0    0  501 -0.00000000000E+00 -0.00000000000E+00 -0.66978568518E+01  0.66978568518E+01  0.00000000000E+00 0. -1.
         35    2    1    2    0    0  0.71054273576E-14  0.35527136788E-14  0.28344731973E+04  0.28478689110E+04  0.27589677064E+03 0.  0.
         25    2    3    3    0    0 -0.39962901350E+01 -0.28053833046E+02  0.86905608800E+03  0.87823013598E+03  0.12339651441E+03 0.  0.
         25    2    3    3    0    0  0.39962901350E+01  0.28053833046E+02  0.19654171093E+04  0.19696387750E+04  0.12573584481E+03 0.  0.
          5    1    4    4  502    0 -0.55831654733E+02 -0.35726102740E+02  0.62764907575E+03  0.63115685877E+03  0.47000000000E+01 0.  1.
         -5    1    4    4    0  502  0.51835364598E+02  0.76722696941E+01  0.24140701225E+03  0.24707327721E+03  0.47000000000E+01 0.  1.
          5    1    5    5  503    0  0.39282297319E+02 -0.34362972158E+02  0.10983962155E+04  0.10996455106E+04  0.47000000000E+01 0. -1.
         -5    1    5    5    0  503 -0.35286007184E+02  0.62416805204E+02  0.86702089376E+03  0.86999326439E+03  0.47000000000E+01 0. -1.
<mgrwt>
<rscale>  0 0.27589677E+03</rscale>
<asrwt>0</asrwt>
<pdfrwt beam="1">  1        2 0.43710228E+00 0.27589677E+03</pdfrwt>
<pdfrwt beam="2">  1       -2 0.10304418E-02 0.27589677E+03</pdfrwt>
<totfact> 0.52661634E+03</totfact>
</mgrwt>
</event>
<event>
 9    1  0.7816570E-001  0.2761123E+03  0.7818608E-02  0.1097831E+00
         -1   -1    0    0    0  501 -0.00000000000E+00  0.00000000000E+00  0.12916547669E+02  0.12916547669E+02  0.00000000000E+00 0.  1.
          1   -1    0    0  501    0  0.00000000000E+00 -0.00000000000E+00 -0.14755880398E+04  0.14755880398E+04  0.00000000000E+00 0.  1.
         35    2    1    2    0    0 -0.35527136788E-14  0.35527136788E-14 -0.14626714921E+04  0.14885045874E+04  0.27611231957E+03 0.  0.
         25    2    3    3    0    0 -0.17845511180E+02  0.28933209353E+02 -0.48521078769E+03  0.50247153728E+03  0.12606563532E+03 0.  0.
         25    2    3    3    0    0  0.17845511180E+02 -0.28933209353E+02 -0.97746070439E+03  0.98603305015E+03  0.12520445069E+03 0.  0.
          5    1    4    4  502    0 -0.66046521147E+02  0.14943165330E+02 -0.37742410059E+03  0.38347944254E+03  0.47000000000E+01 0.  1.
         -5    1    4    4    0  502  0.48201009966E+02  0.13990044023E+02 -0.10778668710E+03  0.11899209474E+03  0.47000000000E+01 0.  1.
          5    1    5    5  503    0  0.49007537627E+02 -0.59783156207E+02 -0.77302173501E+03  0.77689153510E+03  0.47000000000E+01 0.  1.
         -5    1    5    5    0  503 -0.31162026446E+02  0.30849946854E+02 -0.20443896938E+03  0.20914151504E+03  0.47000000000E+01 0.  1.
<mgrwt>
<rscale>  0 0.27611232E+03</rscale>
<asrwt>0</asrwt>
<pdfrwt beam="1">  1        1 0.22701359E+00 0.27611232E+03</pdfrwt>
<pdfrwt beam="2">  1       -1 0.19871608E-02 0.27611232E+03</pdfrwt>
<totfact> 0.51423796E+03</totfact>
</mgrwt>
</event>
<event>
 9    1  0.7816570E-001  0.2579636E+03  0.7818608E-02  0.1108373E+00
         -1   -1    0    0    0  501 -0.00000000000E+00  0.00000000000E+00  0.57504009436E+02  0.57504009436E+02  0.00000000000E+00 0.  1.
          1   -1    0    0  501    0  0.00000000000E+00 -0.00000000000E+00 -0.28930676846E+03  0.28930676846E+03  0.00000000000E+00 0.  1.
         35    2    1    2    0    0  0.35527136788E-14  0.00000000000E+00 -0.23180275902E+03  0.34681077790E+03  0.25796355668E+03 0.  0.
         25    2    3    3    0    0  0.19468482302E+02  0.11118101995E+02 -0.84025941409E+02  0.15194196459E+03  0.12459280789E+03 0.  0.
         25    2    3    3    0    0 -0.19468482302E+02 -0.11118101995E+02 -0.14777681761E+03  0.19486881330E+03  0.12503292598E+03 0.  0.
          5    1    4    4  502    0  0.12897327883E+02 -0.51984967503E+02 -0.67340772547E+02  0.86172197141E+02  0.47000000000E+01 0. -1.
         -5    1    4    4    0  502  0.65711544185E+01  0.63103069498E+02 -0.16685168862E+02  0.65769767450E+02  0.47000000000E+01 0. -1.
          5    1    5    5  503    0  0.18060398443E+02  0.50896073276E+02 -0.68308178009E+02  0.87204847627E+02  0.47000000000E+01 0. -1.
         -5    1    5    5    0  503 -0.37528880745E+02 -0.62014175271E+02 -0.79468639606E+02  0.10766396568E+03  0.47000000000E+01 0. -1.
<mgrwt>
<rscale>  0 0.25796356E+03</rscale>
<asrwt>0</asrwt>
<pdfrwt beam="1">  1        1 0.44508733E-01 0.25796356E+03</pdfrwt>
<pdfrwt beam="2">  1       -1 0.88467708E-02 0.25796356E+03</pdfrwt>
<totfact> 0.66931689E+03</totfact>
</mgrwt>
</event>
<event>
 9    1  0.7816570E-001  0.2731670E+03  0.7818608E-02  0.1099481E+00
         -2   -1    0    0    0  501 -0.00000000000E+00  0.00000000000E+00  0.20560230279E+03  0.20560230279E+03  0.00000000000E+00 0. -1.
          2   -1    0    0  501    0  0.00000000000E+00 -0.00000000000E+00 -0.90733661554E+02  0.90733661554E+02  0.00000000000E+00 0. -1.
         35    2    1    2    0    0  0.00000000000E+00  0.00000000000E+00  0.11486864123E+03  0.29633596434E+03  0.27316698011E+03 0.  0.
         25    2    3    3    0    0  0.47324729948E+02 -0.82936057151E+01  0.29020062757E+02  0.13745477831E+03  0.12547206095E+03 0.  0.
         25    2    3    3    0    0 -0.47324729948E+02  0.82936057151E+01  0.85848578477E+02  0.15888118603E+03  0.12475912346E+03 0.  0.
          5    1    4    4  502    0  0.14035064988E+02 -0.64706394190E+02  0.27268130513E+02  0.71760305462E+02  0.47000000000E+01 0. -1.
         -5    1    4    4    0  502  0.33289664960E+02  0.56412788475E+02  0.17519322437E+01  0.65694472852E+02  0.47000000000E+01 0. -1.
          5    1    5    5  503    0 -0.30063431552E+02  0.51789821147E+02  0.93598978108E+02  0.11121535053E+03  0.47000000000E+01 0. -1.
         -5    1    5    5    0  503 -0.17261298395E+02 -0.43496215431E+02 -0.77503996312E+01  0.47665835497E+02  0.47000000000E+01 0. -1.
<mgrwt>
<rscale>  0 0.27316698E+03</rscale>
<asrwt>0</asrwt>
<pdfrwt beam="1">  1        2 0.13959025E-01 0.27316698E+03</pdfrwt>
<pdfrwt beam="2">  1       -2 0.31631123E-01 0.27316698E+03</pdfrwt>
<totfact> 0.39194510E+03</totfact>
</mgrwt>
</event>
<event>
 9    1  0.7816570E-001  0.2749543E+03  0.7818608E-02  0.1098477E+00
         -1   -1    0    0    0  501 -0.00000000000E+00  0.00000000000E+00  0.27271495581E+03  0.27271495581E+03  0.00000000000E+00 0. -1.
          1   -1    0    0  501    0  0.00000000000E+00 -0.00000000000E+00 -0.69303006332E+02  0.69303006332E+02  0.00000000000E+00 0. -1.
         35    2    1    2    0    0  0.00000000000E+00 -0.35527136788E-14  0.20341194947E+03  0.34201796214E+03  0.27495429663E+03 0.  0.
         25    2    3    3    0    0  0.49659779868E+02  0.27626308327E+02  0.85833985184E+02  0.16162855611E+03  0.12460742549E+03 0.  0.
         25    2    3    3    0    0 -0.49659779868E+02 -0.27626308327E+02  0.11757796429E+03  0.18038940603E+03  0.12444457993E+03 0.  0.
          5    1    4    4  502    0 -0.39534793206E+02  0.15764251026E+02  0.46801442101E+02  0.63434820619E+02  0.47000000000E+01 0.  1.
         -5    1    4    4    0  502  0.89194573074E+02  0.11862057300E+02  0.39032543083E+02  0.98193735486E+02  0.47000000000E+01 0.  1.
          5    1    5    5  503    0 -0.56336111173E+02 -0.44749193824E+02  0.13601065253E+03  0.15393906382E+03  0.47000000000E+01 0. -1.
         -5    1    5    5    0  503  0.66763313049E+01  0.17122885497E+02 -0.18432688236E+02  0.26450342210E+02  0.47000000000E+01 0. -1.
<mgrwt>
<rscale>  0 0.27495430E+03</rscale>
<asrwt>0</asrwt>
<pdfrwt beam="1">  1        1 0.10662001E-01 0.27495430E+03</pdfrwt>
<pdfrwt beam="2">  1       -1 0.41956146E-01 0.27495430E+03</pdfrwt>
<totfact> 0.33188107E+03</totfact>
</mgrwt>
</event>
<event>
 9    1  0.7816570E-001  0.2751809E+03  0.7818608E-02  0.1098351E+00
         -2   -1    0    0    0  501 -0.00000000000E+00  0.00000000000E+00  0.17552150825E+02  0.17552150825E+02  0.00000000000E+00 0. -1.
          2   -1    0    0  501    0  0.00000000000E+00 -0.00000000000E+00 -0.10785650179E+04  0.10785650179E+04  0.00000000000E+00 0. -1.
         35    2    1    2    0    0  0.14210854715E-13  0.00000000000E+00 -0.10610128671E+04  0.10961171687E+04  0.27518092862E+03 0.  0.
         25    2    3    3    0    0 -0.42316839512E+02 -0.16412530135E+02 -0.67458270420E+03  0.68748208236E+03  0.12453795691E+03 0.  0.
         25    2    3    3    0    0  0.42316839512E+02  0.16412530135E+02 -0.38643016289E+03  0.40863508638E+03  0.12487704744E+03 0.  0.
          5    1    4    4  502    0 -0.67862731263E+02 -0.46907725846E+02 -0.56078084234E+03  0.56683589174E+03  0.47000000000E+01 0.  1.
         -5    1    4    4    0  502  0.25545891751E+02  0.30495195711E+02 -0.11380186186E+03  0.12064619062E+03  0.47000000000E+01 0.  1.
          5    1    5    5  503    0  0.55663798462E+02 -0.42460241456E+02 -0.24351187886E+03  0.25341952511E+03  0.47000000000E+01 0. -1.
         -5    1    5    5    0  503 -0.13346958950E+02  0.58872771591E+02 -0.14291828403E+03  0.15521556126E+03  0.47000000000E+01 0. -1.
<mgrwt>
<rscale>  0 0.27518093E+03</rscale>
<asrwt>0</asrwt>
<pdfrwt beam="1">  1        2 0.16593309E+00 0.27518093E+03</pdfrwt>
<pdfrwt beam="2">  1       -2 0.27003307E-02 0.27518093E+03</pdfrwt>
<totfact> 0.11635006E+04</totfact>
</mgrwt>
</event>
<event>
 9    1  0.7816570E-001  0.2784558E+03  0.7818608E-02  0.1096535E+00
         -1   -1    0    0    0  501 -0.00000000000E+00  0.00000000000E+00  0.41236549235E+03  0.41236549235E+03  0.00000000000E+00 0. -1.
          1   -1    0    0  501    0  0.00000000000E+00 -0.00000000000E+00 -0.47007844118E+02  0.47007844118E+02  0.00000000000E+00 0. -1.
         35    2    1    2    0    0 -0.71054273576E-14  0.00000000000E+00  0.36535764823E+03  0.45937333647E+03  0.27845583337E+03 0.  0.
         25    2    3    3    0    0  0.44958018749E+02  0.37116360519E+02  0.21190680680E+03  0.25307437367E+03  0.12547229244E+03 0.  0.
         25    2    3    3    0    0 -0.44958018749E+02 -0.37116360519E+02  0.15345084143E+03  0.20629896280E+03  0.12495300576E+03 0.  0.
          5    1    4    4  502    0  0.13507381568E+02  0.10720208133E+02 -0.14444854395E+02  0.22980775394E+02  0.47000000000E+01 0. -1.
         -5    1    4    4    0  502  0.31450637181E+02  0.26396152387E+02  0.22635166120E+03  0.23009359827E+03  0.47000000000E+01 0. -1.
          5    1    5    5  503    0 -0.63005755036E+01 -0.44744500677E+02  0.15978202773E+03  0.16611488187E+03  0.47000000000E+01 0.  1.
         -5    1    5    5    0  503 -0.38657443245E+02  0.76281401579E+01 -0.63311862997E+01  0.40184080934E+02  0.47000000000E+01 0.  1.
<mgrwt>
<rscale>  0 0.27845583E+03</rscale>
<asrwt>0</asrwt>
<pdfrwt beam="1">  1        1 0.72319763E-02 0.27845583E+03</pdfrwt>
<pdfrwt beam="2">  1       -1 0.63440843E-01 0.27845583E+03</pdfrwt>
<totfact> 0.25972822E+03</totfact>
</mgrwt>
</event>
<event>
 9    1  0.7816570E-001  0.2785682E+03  0.7818608E-02  0.1096474E+00
         -2   -1    0    0    0  501 -0.00000000000E+00  0.00000000000E+00  0.16855525995E+03  0.16855525995E+03  0.00000000000E+00 0.  1.
          2   -1    0    0  501    0  0.00000000000E+00 -0.00000000000E+00 -0.11509611820E+03  0.11509611820E+03  0.00000000000E+00 0.  1.
         35    2    1    2    0    0  0.00000000000E+00  0.00000000000E+00  0.53459141755E+02  0.28365137815E+03  0.27856816847E+03 0.  0.
         25    2    3    3    0    0  0.53475335578E+02 -0.69686374558E+01 -0.81313109813E+01  0.13576007433E+03  0.12432419773E+03 0.  0.
         25    2    3    3    0    0 -0.53475335578E+02  0.69686374558E+01  0.61590452736E+02  0.14789130381E+03  0.12316769240E+03 0.  0.
          5    1    4    4  502    0  0.55609436049E+01 -0.60199548140E+02 -0.18137249713E+02  0.63292649789E+02  0.47000000000E+01 0.  1.
         -5    1    4    4    0  502  0.47914391973E+02  0.53230910685E+02  0.10005938732E+02  0.72467424546E+02  0.47000000000E+01 0.  1.
          5    1    5    5  503    0 -0.76758345896E+02  0.15961883932E+02 -0.28845974542E+01  0.78594123864E+02  0.47000000000E+01 0.  1.
         -5    1    5    5    0  503  0.23283010318E+02 -0.89932464766E+01  0.64475050190E+02  0.69297179948E+02  0.47000000000E+01 0.  1.
<mgrwt>
<rscale>  0 0.27856817E+03</rscale>
<asrwt>0</asrwt>
<pdfrwt beam="1">  1        2 0.17707095E-01 0.27856817E+03</pdfrwt>
<pdfrwt beam="2">  1       -2 0.25931579E-01 0.27856817E+03</pdfrwt>
<totfact> 0.42391856E+03</totfact>
</mgrwt>
</event>
<event>
 9    1  0.7816570E-001  0.2767458E+03  0.7818608E-02  0.1097480E+00
         -2   -1    0    0    0  501 -0.00000000000E+00  0.00000000000E+00  0.66093595351E+03  0.66093595351E+03  0.00000000000E+00 0.  1.
          2   -1    0    0  501    0  0.00000000000E+00 -0.00000000000E+00 -0.28969623614E+02  0.28969623614E+02  0.00000000000E+00 0.  1.
         35    2    1    2    0    0  0.00000000000E+00  0.00000000000E+00  0.63196632989E+03  0.68990557712E+03  0.27674584590E+03 0.  0.
         25    2    3    3    0    0  0.41742888511E+02 -0.41607813013E+02  0.40519208662E+03  0.42837048909E+03  0.12588474898E+03 0.  0.
         25    2    3    3    0    0 -0.41742888511E+02  0.41607813013E+02  0.22677424328E+03  0.26153508803E+03  0.11619107544E+03 0.  0.
          5    1    4    4  502    0 -0.16290165134E+02  0.27742099674E+02  0.37219385698E+02  0.49420301964E+02  0.47000000000E+01 0.  1.
         -5    1    4    4    0  502  0.58033053645E+02 -0.69349912687E+02  0.36797270092E+03  0.37895018713E+03  0.47000000000E+01 0.  1.
          5    1    5    5  503    0 -0.78199530071E+02  0.36536322682E+02  0.19251695135E+03  0.21103302096E+03  0.47000000000E+01 0. -1.
         -5    1    5    5    0  503  0.36456641560E+02  0.50714903304E+01  0.34257291931E+02  0.50502067071E+02  0.47000000000E+01 0. -1.
<mgrwt>
<rscale>  0 0.27674585E+03</rscale>
<asrwt>0</asrwt>
<pdfrwt beam="1">  1        2 0.44568657E-02 0.27674585E+03</pdfrwt>
<pdfrwt beam="2">  1       -2 0.10168244E+00 0.27674585E+03</pdfrwt>
<totfact> 0.15108683E+03</totfact>
</mgrwt>
</event>
<event>
 9    1  0.7816570E-001  0.2733650E+03  0.7818608E-02  0.1099369E+00
         -2   -1    0    0    0  501 -0.00000000000E+00  0.00000000000E+00  0.75763830921E+01  0.75763830921E+01  0.00000000000E+00 0.  1.
          2   -1    0    0  501    0  0.00000000000E+00 -0.00000000000E+00 -0.24658344855E+04  0.24658344855E+04  0.00000000000E+00 0.  1.
         35    2    1    2    0    0  0.71054273576E-14  0.00000000000E+00 -0.24582581024E+04  0.24734108686E+04  0.27336500657E+03 0.  0.
         25    2    3    3    0    0 -0.47744836927E+02 -0.14197999723E+02 -0.14619307028E+04  0.14681143967E+04  0.12504938829E+03 0.  0.
         25    2    3    3    0    0  0.47744836927E+02  0.14197999723E+02 -0.99632739964E+03  0.10052964719E+04  0.12438471143E+03 0.  0.
          5    1    4    4  502    0 -0.68741893114E+02  0.23446485328E+02 -0.50674778844E+03  0.51194784562E+03  0.47000000000E+01 0. -1.
         -5    1    4    4    0  502  0.20997056187E+02 -0.37644485052E+02 -0.95518291434E+03  0.95616655111E+03  0.47000000000E+01 0. -1.
          5    1    5    5  503    0  0.38118465156E+02  0.31981084545E+02 -0.97212925840E+03  0.97341316623E+03  0.47000000000E+01 0. -1.
         -5    1    5    5    0  503  0.96263717707E+01 -0.17783084822E+02 -0.24198141245E+02  0.31883305647E+02  0.47000000000E+01 0. -1.
<mgrwt>
<rscale>  0 0.27336501E+03</rscale>
<asrwt>0</asrwt>
<pdfrwt beam="1">  1        2 0.37935894E+00 0.27336501E+03</pdfrwt>
<pdfrwt beam="2">  1       -2 0.11655980E-02 0.27336501E+03</pdfrwt>
<totfact> 0.71420760E+03</totfact>
</mgrwt>
</event>
<event>
 9    1  0.7816570E-001  0.2720775E+03  0.7818608E-02  0.1100096E+00
          2   -1    0    0  501    0  0.00000000000E+00  0.00000000000E+00  0.89000560062E+03  0.89000560062E+03  0.00000000000E+00 0.  1.
         -2   -1    0    0    0  501 -0.00000000000E+00 -0.00000000000E+00 -0.20793732855E+02  0.20793732855E+02  0.00000000000E+00 0.  1.
         35    2    1    2    0    0  0.35527136788E-14 -0.35527136788E-14  0.86921186776E+03  0.91079933347E+03  0.27207747940E+03 0.  0.
         25    2    3    3    0    0  0.30688416530E+02  0.30518932908E+02  0.31587631972E+03  0.34187165681E+03  0.12339042181E+03 0.  0.
         25    2    3    3    0    0 -0.30688416530E+02 -0.30518932908E+02  0.55333554804E+03  0.56892767666E+03  0.12500115348E+03 0.  0.
          5    1    4    4  502    0 -0.21419073399E+02  0.58793164574E+02  0.10089443314E+03  0.11881577986E+03  0.47000000000E+01 0.  1.
         -5    1    4    4    0  502  0.52107489929E+02 -0.28274231666E+02  0.21498188658E+03  0.22305587695E+03  0.47000000000E+01 0.  1.
          5    1    5    5  503    0  0.20979395560E+02  0.39014287098E+02  0.22180143724E+03  0.22623045153E+03  0.47000000000E+01 0. -1.
         -5    1    5    5    0  503 -0.51667812091E+02 -0.69533220007E+02  0.33153411080E+03  0.34269722513E+03  0.47000000000E+01 0. -1.
<mgrwt>
<rscale>  0 0.27207748E+03</rscale>
<asrwt>0</asrwt>
<pdfrwt beam="1">  1        2 0.13692391E+00 0.27207748E+03</pdfrwt>
<pdfrwt beam="2">  1       -2 0.31990365E-02 0.27207748E+03</pdfrwt>
<totfact> 0.11823667E+04</totfact>
</mgrwt>
</event>
<event>
 9    1  0.7816570E-001  0.2744415E+03  0.7818608E-02  0.1098764E+00
         -2   -1    0    0    0  501 -0.00000000000E+00  0.00000000000E+00  0.10849984947E+02  0.10849984947E+02  0.00000000000E+00 0. -1.
          2   -1    0    0  501    0  0.00000000000E+00 -0.00000000000E+00 -0.17354435522E+04  0.17354435522E+04  0.00000000000E+00 0. -1.
         35    2    1    2    0    0  0.14210854715E-13  0.00000000000E+00 -0.17245935673E+04  0.17462935372E+04  0.27444151594E+03 0.  0.
         25    2    3    3    0    0 -0.40081859428E+02 -0.23236881872E+02 -0.10764340191E+04  0.10846079295E+04  0.12456987989E+03 0.  0.
         25    2    3    3    0    0  0.40081859428E+02  0.23236881872E+02 -0.64815954815E+03  0.66168560771E+03  0.12478195167E+03 0.  0.
          5    1    4    4  502    0 -0.72526848571E+02  0.22992978798E+02 -0.61377510271E+03  0.61849073360E+03  0.47000000000E+01 0. -1.
         -5    1    4    4    0  502  0.32444989143E+02 -0.46229860670E+02 -0.46265891643E+03  0.46611719588E+03  0.47000000000E+01 0. -1.
          5    1    5    5  503    0 -0.23229618966E+01 -0.48447303365E+02 -0.27842444711E+03  0.28265668240E+03  0.47000000000E+01 0.  1.
         -5    1    5    5    0  503  0.42404821325E+02  0.71684185237E+02 -0.36973510104E+03  0.37902892531E+03  0.47000000000E+01 0.  1.
<mgrwt>
<rscale>  0 0.27444152E+03</rscale>
<asrwt>0</asrwt>
<pdfrwt beam="1">  1        2 0.26699129E+00 0.27444152E+03</pdfrwt>
<pdfrwt beam="2">  1       -2 0.16692286E-02 0.27444152E+03</pdfrwt>
<totfact> 0.10321557E+04</totfact>
</mgrwt>
</event>
<event>
 9    1  0.7816570E-001  0.2732281E+03  0.7818608E-02  0.1099446E+00
          1   -1    0    0  501    0  0.00000000000E+00  0.00000000000E+00  0.62533021953E+02  0.62533021953E+02  0.00000000000E+00 0. -1.
         -1   -1    0    0    0  501 -0.00000000000E+00 -0.00000000000E+00 -0.29845675327E+03  0.29845675327E+03  0.00000000000E+00 0. -1.
         35    2    1    2    0    0  0.00000000000E+00  0.00000000000E+00 -0.23592373132E+03  0.36098977523E+03  0.27322812962E+03 0.  0.
         25    2    3    3    0    0 -0.26343915401E+02  0.18774638598E+02 -0.60127043876E+02  0.14306635800E+03  0.12572283982E+03 0.  0.
         25    2    3    3    0    0  0.26343915401E+02 -0.18774638598E+02 -0.17579668744E+03  0.21792341723E+03  0.12465813863E+03 0.  0.
          5    1    4    4  502    0  0.10591665081E+02  0.65817602615E+02 -0.46861660683E+02  0.81622579138E+02  0.47000000000E+01 0. -1.
         -5    1    4    4    0  502 -0.36935580481E+02 -0.47042964018E+02 -0.13265383193E+02  0.61443778858E+02  0.47000000000E+01 0. -1.
          5    1    5    5  503    0  0.21714237662E+02  0.48818159913E+02 -0.42910680635E+02  0.68688698976E+02  0.47000000000E+01 0.  1.
         -5    1    5    5    0  503  0.46296777391E+01 -0.67592798511E+02 -0.13288600681E+03  0.14923471825E+03  0.47000000000E+01 0.  1.
<mgrwt>
<rscale>  0 0.27322813E+03</rscale>
<asrwt>0</asrwt>
<pdfrwt beam="1">  1        1 0.96204648E-02 0.27322813E+03</pdfrwt>
<pdfrwt beam="2">  1       -1 0.45916424E-01 0.27322813E+03</pdfrwt>
<totfact> 0.32373313E+03</totfact>
</mgrwt>
</event>
<event>
 9    1  0.7816570E-001  0.2744797E+03  0.7818608E-02  0.1098743E+00
         -2   -1    0    0    0  501 -0.00000000000E+00  0.00000000000E+00  0.12999457963E+03  0.12999457963E+03  0.00000000000E+00 0.  1.
          2   -1    0    0  501    0  0.00000000000E+00 -0.00000000000E+00 -0.14488890558E+03  0.14488890558E+03  0.00000000000E+00 0.  1.
         35    2    1    2    0    0  0.14210854715E-13 -0.17763568394E-14 -0.14894325948E+02  0.27488348522E+03  0.27447967047E+03 0.  0.
         25    2    3    3    0    0  0.34542602455E+02  0.35616444974E+01  0.37492696192E+02  0.13517645673E+03  0.12514429867E+03 0.  0.
         25    2    3    3    0    0 -0.34542602455E+02 -0.35616444974E+01 -0.52387022140E+02  0.13970702849E+03  0.12477089815E+03 0.  0.
          5    1    4    4  502    0 -0.46888278329E+02  0.57934674925E+00  0.22369254344E+02  0.52166270973E+02  0.47000000000E+01 0. -1.
         -5    1    4    4    0  502  0.81430880785E+02  0.29822977481E+01  0.15123441848E+02  0.83010185752E+02  0.47000000000E+01 0. -1.
          5    1    5    5  503    0 -0.46992870506E+02  0.15783445719E+02  0.27192358670E+02  0.56735891702E+02  0.47000000000E+01 0.  1.
         -5    1    5    5    0  503  0.12450268050E+02 -0.19345090216E+02 -0.79579380811E+02  0.82971136790E+02  0.47000000000E+01 0.  1.
<mgrwt>
<rscale>  0 0.27447967E+03</rscale>
<asrwt>0</asrwt>
<pdfrwt beam="1">  1        2 0.22290601E-01 0.27447967E+03</pdfrwt>
<pdfrwt beam="2">  1       -2 0.19999166E-01 0.27447967E+03</pdfrwt>
<totfact> 0.51160320E+03</totfact>
</mgrwt>
</event>
<event>
 9    1  0.7816570E-001  0.2719288E+03  0.7818608E-02  0.1100181E+00
          1   -1    0    0  501    0  0.00000000000E+00  0.00000000000E+00  0.25074858243E+04  0.25074858243E+04  0.00000000000E+00 0. -1.
         -1   -1    0    0    0  501 -0.00000000000E+00 -0.00000000000E+00 -0.73724536170E+01  0.73724536170E+01  0.00000000000E+00 0. -1.
         35    2    1    2    0    0 -0.88817841970E-15  0.14210854715E-13  0.25001133707E+04  0.25148582780E+04  0.27192883580E+03 0.  0.
         25    2    3    3    0    0 -0.32409638390E+01  0.52067621326E+02  0.10780660630E+04  0.10864377962E+04  0.12409314183E+03 0.  0.
         25    2    3    3    0    0  0.32409638390E+01 -0.52067621326E+02  0.14220473077E+04  0.14284204818E+04  0.12427785876E+03 0.  0.
          5    1    4    4  502    0 -0.61889148767E+02  0.39643586069E+02  0.65279985682E+03  0.65694111130E+03  0.47000000000E+01 0. -1.
         -5    1    4    4    0  502  0.58648184928E+02  0.12424035257E+02  0.42526620617E+03  0.42949668492E+03  0.47000000000E+01 0. -1.
          5    1    5    5  503    0  0.10310638641E+02  0.38116443189E+02  0.62006967200E+03  0.62134343213E+03  0.47000000000E+01 0.  1.
         -5    1    5    5    0  503 -0.70696748020E+01 -0.90184064515E+02  0.80197763575E+03  0.80707704963E+03  0.47000000000E+01 0.  1.
<mgrwt>
<rscale>  0 0.27192884E+03</rscale>
<asrwt>0</asrwt>
<pdfrwt beam="1">  1        1 0.38576637E+00 0.27192884E+03</pdfrwt>
<pdfrwt beam="2">  1       -1 0.11342256E-02 0.27192884E+03</pdfrwt>
<totfact> 0.24570796E+03</totfact>
</mgrwt>
</event>
<event>
 9    1  0.7816570E-001  0.2737442E+03  0.7818608E-02  0.1099156E+00
         -2   -1    0    0    0  501 -0.00000000000E+00  0.00000000000E+00  0.98066593777E+01  0.98066593777E+01  0.00000000000E+00 0.  1.
          2   -1    0    0  501    0  0.00000000000E+00 -0.00000000000E+00 -0.19103314720E+04  0.19103314720E+04  0.00000000000E+00 0.  1.
         35    2    1    2    0    0  0.71054273576E-14  0.35527136788E-14 -0.19005248126E+04  0.19201381313E+04  0.27374418747E+03 0.  0.
         25    2    3    3    0    0 -0.37149822006E+02  0.21022876427E+02 -0.72191777479E+03  0.73412599949E+03  0.12630771535E+03 0.  0.
         25    2    3    3    0    0  0.37149822006E+02 -0.21022876427E+02 -0.11786070378E+04  0.11860121319E+04  0.12525237224E+03 0.  0.
          5    1    4    4  502    0  0.66563600975E+01  0.19384183814E+01 -0.63314842180E+03  0.63320382075E+03  0.47000000000E+01 0. -1.
         -5    1    4    4    0  502 -0.43806182104E+02  0.19084458046E+02 -0.88769352999E+02  0.10092217874E+03  0.47000000000E+01 0. -1.
          5    1    5    5  503    0 -0.35288042812E+02 -0.30502295447E+02 -0.72701511207E+03  0.72852501616E+03  0.47000000000E+01 0. -1.
         -5    1    5    5    0  503  0.72437864818E+02  0.94794190200E+01 -0.45159192573E+03  0.45748711569E+03  0.47000000000E+01 0. -1.
<mgrwt>
<rscale>  0 0.27374419E+03</rscale>
<asrwt>0</asrwt>
<pdfrwt beam="1">  1        2 0.29389739E+00 0.27374419E+03</pdfrwt>
<pdfrwt beam="2">  1       -2 0.15087156E-02 0.27374419E+03</pdfrwt>
<totfact> 0.96872478E+03</totfact>
</mgrwt>
</event>
<event>
 9    1  0.7816570E-001  0.2798745E+03  0.7818608E-02  0.1095758E+00
         -2   -1    0    0    0  501 -0.00000000000E+00  0.00000000000E+00  0.70540007195E+01  0.70540007195E+01  0.00000000000E+00 0. -1.
          2   -1    0    0  501    0  0.00000000000E+00 -0.00000000000E+00 -0.27760746354E+04  0.27760746354E+04  0.00000000000E+00 0. -1.
         35    2    1    2    0    0 -0.71054273576E-14  0.00000000000E+00 -0.27690206346E+04  0.27831286361E+04  0.27987448955E+03 0.  0.
         25    2    3    3    0    0 -0.51364205150E+02  0.35734085617E+02 -0.12952787833E+04  0.13027913676E+04  0.12491202695E+03 0.  0.
         25    2    3    3    0    0  0.51364205150E+02 -0.35734085617E+02 -0.14737418513E+04  0.14803372685E+04  0.12477250389E+03 0.  0.
          5    1    4    4  502    0 -0.19972120711E+02  0.35590343337E+02 -0.12248635224E+04  0.12255522415E+04  0.47000000000E+01 0.  1.
         -5    1    4    4    0  502 -0.31392084440E+02  0.14374227982E+00 -0.70415260948E+02  0.77239126107E+02  0.47000000000E+01 0.  1.
          5    1    5    5  503    0 -0.21749607915E+02  0.21615127999E+02 -0.14199079301E+03  0.14534006503E+03  0.47000000000E+01 0.  1.
         -5    1    5    5    0  503  0.73113813065E+02 -0.57349213615E+02 -0.13317510583E+04  0.13349972035E+04  0.47000000000E+01 0.  1.
<mgrwt>
<rscale>  0 0.27987449E+03</rscale>
<asrwt>0</asrwt>
<pdfrwt beam="1">  1        2 0.42708960E+00 0.27987449E+03</pdfrwt>
<pdfrwt beam="2">  1       -2 0.10852278E-02 0.27987449E+03</pdfrwt>
<totfact> 0.53208794E+03</totfact>
</mgrwt>
</event>
<event>
 9    1  0.7816570E-001  0.2764441E+03  0.7818608E-02  0.1097647E+00
         -2   -1    0    0    0  501 -0.00000000000E+00  0.00000000000E+00  0.71235101279E+01  0.71235101279E+01  0.00000000000E+00 0. -1.
          2   -1    0    0  501    0  0.00000000000E+00 -0.00000000000E+00 -0.26820117042E+04  0.26820117042E+04  0.00000000000E+00 0. -1.
         35    2    1    2    0    0  0.00000000000E+00  0.88817841970E-15 -0.26748881940E+04  0.26891352143E+04  0.27644411759E+03 0.  0.
         25    2    3    3    0    0 -0.19541153273E+02  0.41095183191E+01 -0.83516160214E+03  0.84463014401E+03  0.12452483155E+03 0.  0.
         25    2    3    3    0    0  0.19541153273E+02 -0.41095183191E+01 -0.18397265919E+04  0.18445050703E+04  0.13117269741E+03 0.  0.
          5    1    4    4  502    0 -0.70431559856E+02  0.65604777508E+01 -0.58575074939E+03  0.59002514769E+03  0.47000000000E+01 0. -1.
         -5    1    4    4    0  502  0.50890406583E+02 -0.24509594317E+01 -0.24941085275E+03  0.25460499633E+03  0.47000000000E+01 0. -1.
          5    1    5    5  503    0  0.18949983646E+02  0.21211136748E+02 -0.17689750567E+04  0.17692099523E+04  0.47000000000E+01 0. -1.
         -5    1    5    5    0  503  0.59116962717E+00 -0.25320655067E+02 -0.70751535235E+02  0.75295117987E+02  0.47000000000E+01 0. -1.
<mgrwt>
<rscale>  0 0.27644412E+03</rscale>
<asrwt>0</asrwt>
<pdfrwt beam="1">  1        2 0.41261689E+00 0.27644412E+03</pdfrwt>
<pdfrwt beam="2">  1       -2 0.10959254E-02 0.27644412E+03</pdfrwt>
<totfact> 0.59307163E+03</totfact>
</mgrwt>
</event>
<event>
 9    1  0.7816570E-001  0.2783936E+03  0.7818608E-02  0.1096570E+00
         -2   -1    0    0    0  501 -0.00000000000E+00  0.00000000000E+00  0.53797853781E+02  0.53797853781E+02  0.00000000000E+00 0.  1.
          2   -1    0    0  501    0  0.00000000000E+00 -0.00000000000E+00 -0.36015850943E+03  0.36015850943E+03  0.00000000000E+00 0.  1.
         35    2    1    2    0    0 -0.71054273576E-14 -0.17763568394E-14 -0.30636065565E+03  0.41395636321E+03  0.27839364094E+03 0.  0.
         25    2    3    3    0    0  0.44506865785E+02 -0.28334831065E+01 -0.88416400825E+02  0.15924915799E+03  0.12471545476E+03 0.  0.
         25    2    3    3    0    0 -0.44506865785E+02  0.28334831065E+01 -0.21794425483E+03  0.25470720522E+03  0.12404504203E+03 0.  0.
          5    1    4    4  502    0 -0.22339377909E+02 -0.41785203885E+02 -0.93426200969E+01  0.48522423882E+02  0.47000000000E+01 0. -1.
         -5    1    4    4    0  502  0.66846243694E+02  0.38951720779E+02 -0.79073780728E+02  0.11072673411E+03  0.47000000000E+01 0. -1.
          5    1    5    5  503    0  0.18828666493E+02  0.14297365676E+02  0.32208061879E+01  0.24318654150E+02  0.47000000000E+01 0.  1.
         -5    1    5    5    0  503 -0.63335532278E+02 -0.11463882569E+02 -0.22116506102E+03  0.23038855107E+03  0.47000000000E+01 0.  1.
<mgrwt>
<rscale>  0 0.27839364E+03</rscale>
<asrwt>0</asrwt>
<pdfrwt beam="1">  1        2 0.55409001E-01 0.27839364E+03</pdfrwt>
<pdfrwt beam="2">  1       -2 0.82765930E-02 0.27839364E+03</pdfrwt>
<totfact> 0.79769604E+03</totfact>
</mgrwt>
</event>
<event>
 9    1  0.7816570E-001  0.2959972E+03  0.7818608E-02  0.1087259E+00
          2   -1    0    0  501    0  0.00000000000E+00  0.00000000000E+00  0.16558768256E+04  0.16558768256E+04  0.00000000000E+00 0.  1.
         -2   -1    0    0    0  501 -0.00000000000E+00 -0.00000000000E+00 -0.13227788173E+02  0.13227788173E+02  0.00000000000E+00 0.  1.
         35    2    1    2    0    0  0.00000000000E+00  0.00000000000E+00  0.16426490374E+04  0.16691046138E+04  0.29599721546E+03 0.  0.
         25    2    3    3    0    0 -0.48494849705E+02  0.47135148491E+02  0.60564102638E+03  0.62218097330E+03  0.12543778553E+03 0.  0.
         25    2    3    3    0    0  0.48494849705E+02 -0.47135148491E+02  0.10370080110E+04  0.10469236404E+04  0.12684644781E+03 0.  0.
          5    1    4    4  502    0 -0.22298952978E+02  0.78061605384E+02  0.22288796047E+03  0.23725933167E+03  0.47000000000E+01 0.  1.
         -5    1    4    4    0  502 -0.26195896727E+02 -0.30926456892E+02  0.38275306590E+03  0.38492164164E+03  0.47000000000E+01 0.  1.
          5    1    5    5  503    0  0.70586953603E+02  0.19127874700E+02  0.48855649615E+03  0.49402219944E+03  0.47000000000E+01 0. -1.
         -5    1    5    5    0  503 -0.22092103897E+02 -0.66263023191E+02  0.54845151488E+03  0.55290144101E+03  0.47000000000E+01 0. -1.
<mgrwt>
<rscale>  0 0.29599722E+03</rscale>
<asrwt>0</asrwt>
<pdfrwt beam="1">  1        2 0.25475012E+00 0.29599722E+03</pdfrwt>
<pdfrwt beam="2">  1       -2 0.20350456E-02 0.29599722E+03</pdfrwt>
<totfact> 0.85045842E+03</totfact>
</mgrwt>
</event>
<event>
 9    1  0.7816570E-001  0.3050357E+03  0.7818608E-02  0.1082750E+00
         -2   -1    0    0    0  501 -0.00000000000E+00  0.00000000000E+00  0.53668075826E+01  0.53668075826E+01  0.00000000000E+00 0.  1.
          2   -1    0    0  501    0  0.00000000000E+00 -0.00000000000E+00 -0.43343640063E+04  0.43343640063E+04  0.00000000000E+00 0.  1.
         35    2    1    2    0    0 -0.71054273576E-14  0.71054273576E-14 -0.43289971987E+04  0.43397308139E+04  0.30503571997E+03 0.  0.
         25    2    3    3    0    0  0.61139498058E+02 -0.23662401355E+02 -0.27994085283E+04  0.28029916783E+04  0.12560371483E+03 0.  0.
         25    2    3    3    0    0 -0.61139498058E+02  0.23662401355E+02 -0.15295886705E+04  0.15367391356E+04  0.13276943366E+03 0.  0.
          5    1    4    4  502    0  0.73734225921E+02  0.16863577540E+01 -0.80707671005E+03  0.81045325947E+03  0.47000000000E+01 0. -1.
         -5    1    4    4    0  502 -0.12594727863E+02 -0.25348759109E+02 -0.19923318182E+04  0.19925384189E+04  0.47000000000E+01 0. -1.
          5    1    5    5  503    0 -0.99315972211E+02  0.21502634075E+02 -0.85112001260E+03  0.85717757288E+03  0.47000000000E+01 0. -1.
         -5    1    5    5    0  503  0.38176474153E+02  0.21597672802E+01 -0.67846865788E+03  0.67956156269E+03  0.47000000000E+01 0. -1.
<mgrwt>
<rscale>  0 0.30503572E+03</rscale>
<asrwt>0</asrwt>
<pdfrwt beam="1">  1        2 0.66682695E+00 0.30503572E+03</pdfrwt>
<pdfrwt beam="2">  1       -2 0.82566058E-03 0.30503572E+03</pdfrwt>
<totfact> 0.66748181E+02</totfact>
</mgrwt>
</event>
<event>
 9    1  0.7816570E-001  0.2778596E+03  0.7818608E-02  0.1096864E+00
          1   -1    0    0  501    0  0.00000000000E+00  0.00000000000E+00  0.46107879080E+03  0.46107879080E+03  0.00000000000E+00 0. -1.
         -1   -1    0    0    0  501 -0.00000000000E+00 -0.00000000000E+00 -0.41861578841E+02  0.41861578841E+02  0.00000000000E+00 0. -1.
         35    2    1    2    0    0 -0.71054273576E-14  0.00000000000E+00  0.41921721196E+03  0.50294036964E+03  0.27785957715E+03 0.  0.
         25    2    3    3    0    0 -0.58264744080E+02  0.13290300784E+02  0.23091006408E+03  0.26917874386E+03  0.12476508308E+03 0.  0.
         25    2    3    3    0    0  0.58264744080E+02 -0.13290300784E+02  0.18830714788E+03  0.23376162579E+03  0.12495400453E+03 0.  0.
          5    1    4    4  502    0 -0.86174136681E+02 -0.12994192914E+01  0.21863098788E+03  0.23505163089E+03  0.47000000000E+01 0. -1.
         -5    1    4    4    0  502  0.27909392600E+02  0.14589720075E+02  0.12279076196E+02  0.34127112966E+02  0.47000000000E+01 0. -1.
          5    1    5    5  503    0  0.21389935207E+01  0.48662663497E+02  0.10402205095E+03  0.11495784965E+03  0.47000000000E+01 0.  1.
         -5    1    5    5    0  503  0.56125750560E+02 -0.61952964281E+02  0.84285096935E+02  0.11880377614E+03  0.47000000000E+01 0.  1.
<mgrwt>
<rscale>  0 0.27785958E+03</rscale>
<asrwt>0</asrwt>
<pdfrwt beam="1">  1        1 0.70935195E-01 0.27785958E+03</pdfrwt>
<pdfrwt beam="2">  1       -1 0.64402432E-02 0.27785958E+03</pdfrwt>
<totfact> 0.60075783E+03</totfact>
</mgrwt>
</event>
<event>
 9    1  0.7816570E-001  0.2750472E+03  0.7818608E-02  0.1098425E+00
          1   -1    0    0  501    0  0.00000000000E+00  0.00000000000E+00  0.10580795266E+04  0.10580795266E+04  0.00000000000E+00 0.  1.
         -1   -1    0    0    0  501 -0.00000000000E+00 -0.00000000000E+00 -0.17874589653E+02  0.17874589653E+02  0.00000000000E+00 0.  1.
         35    2    1    2    0    0  0.71054273576E-14 -0.71054273576E-14  0.10402049370E+04  0.10759541163E+04  0.27504717674E+03 0.  0.
         25    2    3    3    0    0 -0.56554104206E+02 -0.89259157124E+01  0.54742060788E+03  0.56433629510E+03  0.12461177058E+03 0.  0.
         25    2    3    3    0    0  0.56554104206E+02  0.89259157124E+01  0.49278432911E+03  0.51161782119E+03  0.12505343366E+03 0.  0.
          5    1    4    4  502    0 -0.11038583304E+02 -0.61523727297E+02  0.18673169307E+03  0.19697165922E+03  0.47000000000E+01 0.  1.
         -5    1    4    4    0  502 -0.45515520902E+02  0.52597811585E+02  0.36068891481E+03  0.36736463588E+03  0.47000000000E+01 0.  1.
          5    1    5    5  503    0  0.38044794799E+02 -0.56881208008E+02  0.26654583319E+03  0.27523017536E+03  0.47000000000E+01 0.  1.
         -5    1    5    5    0  503  0.18509309407E+02  0.65807123720E+02  0.22623849591E+03  0.23638764583E+03  0.47000000000E+01 0.  1.
<mgrwt>
<rscale>  0 0.27504718E+03</rscale>
<asrwt>0</asrwt>
<pdfrwt beam="1">  1        1 0.16278142E+00 0.27504718E+03</pdfrwt>
<pdfrwt beam="2">  1       -1 0.27499377E-02 0.27504718E+03</pdfrwt>
<totfact> 0.62081906E+03</totfact>
</mgrwt>
</event>
<event>
 9    1  0.7816570E-001  0.2708439E+03  0.7818608E-02  0.1100798E+00
         -4   -1    0    0    0  501 -0.00000000000E+00  0.00000000000E+00  0.25666050147E+03  0.25666050147E+03  0.00000000000E+00 0.  1.
          4   -1    0    0  501    0  0.00000000000E+00 -0.00000000000E+00 -0.71452774221E+02  0.71452774221E+02  0.00000000000E+00 0.  1.
         35    2    1    2    0    0  0.71054273576E-14  0.00000000000E+00  0.18520772725E+03  0.32811327569E+03  0.27084390237E+03 0.  0.
         25    2    3    3    0    0 -0.29385877916E+02  0.36781100433E+01  0.14733074282E+03  0.19539394404E+03  0.12488149292E+03 0.  0.
         25    2    3    3    0    0  0.29385877916E+02 -0.36781100433E+01  0.37876984427E+02  0.13271933164E+03  0.12370406917E+03 0.  0.
          5    1    4    4  502    0  0.23170025060E+02  0.42582356527E+02  0.20946077427E+02  0.53018254481E+02  0.47000000000E+01 0.  1.
         -5    1    4    4    0  502 -0.52555902976E+02 -0.38904246484E+02  0.12638466539E+03  0.14237568956E+03  0.47000000000E+01 0.  1.
          5    1    5    5  503    0  0.49921726122E+02 -0.19818984648E+02  0.71710522763E+02  0.89718782684E+02  0.47000000000E+01 0. -1.
         -5    1    5    5    0  503 -0.20535848206E+02  0.16140874605E+02 -0.33833538336E+02  0.43000548960E+02  0.47000000000E+01 0. -1.
<mgrwt>
<rscale>  0 0.27084390E+03</rscale>
<asrwt>0</asrwt>
<pdfrwt beam="1">  1        4 0.10992735E-01 0.27084390E+03</pdfrwt>
<pdfrwt beam="2">  1       -4 0.39486230E-01 0.27084390E+03</pdfrwt>
<totfact> 0.75414958E+02</totfact>
</mgrwt>
</event>
<event>
 9    1  0.7816570E-001  0.2747259E+03  0.7818608E-02  0.1098605E+00
          1   -1    0    0  501    0  0.00000000000E+00  0.00000000000E+00  0.54584945176E+03  0.54584945176E+03  0.00000000000E+00 0.  1.
         -1   -1    0    0    0  501 -0.00000000000E+00 -0.00000000000E+00 -0.34567360821E+02  0.34567360821E+02  0.00000000000E+00 0.  1.
         35    2    1    2    0    0 -0.14210854715E-13 -0.35527136788E-14  0.51128209094E+03  0.58041681258E+03  0.27472586302E+03 0.  0.
         25    2    3    3    0    0  0.53277121103E+02  0.17655238682E+02  0.27705383988E+03  0.30919563145E+03  0.12527150208E+03 0.  0.
         25    2    3    3    0    0 -0.53277121103E+02 -0.17655238682E+02  0.23422825106E+03  0.27122118112E+03  0.12469120422E+03 0.  0.
          5    1    4    4  502    0  0.64068701790E+02 -0.37073627785E+02  0.20463818579E+03  0.21766517753E+03  0.47000000000E+01 0.  1.
         -5    1    4    4    0  502 -0.10791580687E+02  0.54728866467E+02  0.72415654090E+02  0.91530453925E+02  0.47000000000E+01 0.  1.
          5    1    5    5  503    0 -0.29692407082E+02 -0.19358434984E+01 -0.47722722736E+01  0.30500018213E+02  0.47000000000E+01 0. -1.
         -5    1    5    5    0  503 -0.23584714021E+02 -0.15719395184E+02  0.23900052333E+03  0.24072116291E+03  0.47000000000E+01 0. -1.
<mgrwt>
<rscale>  0 0.27472586E+03</rscale>
<asrwt>0</asrwt>
<pdfrwt beam="1">  1        1 0.83976832E-01 0.27472586E+03</pdfrwt>
<pdfrwt beam="2">  1       -1 0.53180559E-02 0.27472586E+03</pdfrwt>
<totfact> 0.64023731E+03</totfact>
</mgrwt>
</event>
<event>
 9    1  0.7816570E-001  0.2717211E+03  0.7818608E-02  0.1100299E+00
         -2   -1    0    0    0  501 -0.00000000000E+00  0.00000000000E+00  0.15033564121E+02  0.15033564121E+02  0.00000000000E+00 0. -1.
          2   -1    0    0  501    0  0.00000000000E+00 -0.00000000000E+00 -0.12277920652E+04  0.12277920652E+04  0.00000000000E+00 0. -1.
         35    2    1    2    0    0  0.00000000000E+00  0.71054273576E-14 -0.12127585011E+04  0.12428256293E+04  0.27172111246E+03 0.  0.
         25    2    3    3    0    0  0.21297171317E+02 -0.38883140754E+02 -0.44075484014E+03  0.45972549950E+03  0.12295217623E+03 0.  0.
         25    2    3    3    0    0 -0.21297171317E+02  0.38883140754E+02 -0.77200366091E+03  0.78310012980E+03  0.12365554047E+03 0.  0.
          5    1    4    4  502    0  0.20716999085E+02  0.23323722014E+02 -0.27691282015E+02  0.41977221911E+02  0.47000000000E+01 0. -1.
         -5    1    4    4    0  502  0.58017223204E+00 -0.62206862768E+02 -0.41306355813E+03  0.41774827759E+03  0.47000000000E+01 0. -1.
          5    1    5    5  503    0  0.21755926807E+02  0.40640858606E+02 -0.10597316920E+03  0.11566072077E+03  0.47000000000E+01 0.  1.
         -5    1    5    5    0  503 -0.43053098124E+02 -0.17577178520E+01 -0.66603049171E+03  0.66743940902E+03  0.47000000000E+01 0.  1.
<mgrwt>
<rscale>  0 0.27172111E+03</rscale>
<asrwt>0</asrwt>
<pdfrwt beam="1">  1        2 0.18889109E+00 0.27172111E+03</pdfrwt>
<pdfrwt beam="2">  1       -2 0.23128560E-02 0.27172111E+03</pdfrwt>
<totfact> 0.11996468E+04</totfact>
</mgrwt>
</event>
<event>
 9    1  0.7816570E-001  0.2644787E+03  0.7818608E-02  0.1104482E+00
         -1   -1    0    0    0  501 -0.00000000000E+00  0.00000000000E+00  0.23380649021E+02  0.23380649021E+02  0.00000000000E+00 0.  1.
          1   -1    0    0  501    0  0.00000000000E+00 -0.00000000000E+00 -0.74793664065E+03  0.74793664065E+03  0.00000000000E+00 0.  1.
         35    2    1    2    0    0 -0.71054273576E-14  0.00000000000E+00 -0.72455599162E+03  0.77131728967E+03  0.26447868787E+03 0.  0.
         25    2    3    3    0    0 -0.38643033830E+02 -0.20172197352E+02 -0.38880995391E+03  0.41039901449E+03  0.12391113439E+03 0.  0.
         25    2    3    3    0    0  0.38643033830E+02  0.20172197352E+02 -0.33574603772E+03  0.36091827518E+03  0.12504558331E+03 0.  0.
          5    1    4    4  502    0 -0.40447756320E+02 -0.30432574122E+02 -0.39440941365E+03  0.39767202332E+03  0.47000000000E+01 0.  1.
         -5    1    4    4    0  502  0.18047224908E+01  0.10260376769E+02  0.55994597425E+01  0.12726991165E+02  0.47000000000E+01 0.  1.
          5    1    5    5  503    0  0.24038486400E+02 -0.36574953628E+02 -0.40298672105E+02  0.59679552903E+02  0.47000000000E+01 0. -1.
         -5    1    5    5    0  503  0.14604547430E+02  0.56747150980E+02 -0.29544736561E+03  0.30123872227E+03  0.47000000000E+01 0. -1.
<mgrwt>
<rscale>  0 0.26447869E+03</rscale>
<asrwt>0</asrwt>
<pdfrwt beam="1">  1        1 0.11506715E+00 0.26447869E+03</pdfrwt>
<pdfrwt beam="2">  1       -1 0.35970236E-02 0.26447869E+03</pdfrwt>
<totfact> 0.73295218E+03</totfact>
</mgrwt>
</event>
<event>
 9    1  0.7816570E-001  0.2760204E+03  0.7818608E-02  0.1097883E+00
          2   -1    0    0  501    0  0.00000000000E+00  0.00000000000E+00  0.47804544322E+03  0.47804544322E+03  0.00000000000E+00 0.  1.
         -2   -1    0    0    0  501 -0.00000000000E+00 -0.00000000000E+00 -0.39843118666E+02  0.39843118666E+02  0.00000000000E+00 0.  1.
         35    2    1    2    0    0 -0.71054273576E-14  0.71054273576E-14  0.43820232456E+03  0.51788856189E+03  0.27602044360E+03 0.  0.
         25    2    3    3    0    0  0.13772580611E+02 -0.48276971681E+02  0.26810823524E+03  0.30027374589E+03  0.12554659174E+03 0.  0.
         25    2    3    3    0    0 -0.13772580611E+02  0.48276971681E+02  0.17009408932E+03  0.21761481599E+03  0.12611050293E+03 0.  0.
          5    1    4    4  502    0 -0.36530439810E+02  0.93737031484E+01  0.17780858223E+03  0.18182497424E+03  0.47000000000E+01 0. -1.
         -5    1    4    4    0  502  0.50303020421E+02 -0.57650674829E+02  0.90299653008E+02  0.11844877165E+03  0.47000000000E+01 0. -1.
          5    1    5    5  503    0 -0.23132087357E+02  0.15720201917E+02 -0.13111438678E+02  0.31244488122E+02  0.47000000000E+01 0. -1.
         -5    1    5    5    0  503  0.93595067456E+01  0.32556769764E+02  0.18320552799E+03  0.18637032787E+03  0.47000000000E+01 0. -1.
<mgrwt>
<rscale>  0 0.27602044E+03</rscale>
<asrwt>0</asrwt>
<pdfrwt beam="1">  1        2 0.73545449E-01 0.27602044E+03</pdfrwt>
<pdfrwt beam="2">  1       -2 0.61297109E-02 0.27602044E+03</pdfrwt>
<totfact> 0.93235091E+03</totfact>
</mgrwt>
</event>
<event>
 9    1  0.7816570E-001  0.2732365E+03  0.7818608E-02  0.1099441E+00
         -2   -1    0    0    0  501 -0.00000000000E+00  0.00000000000E+00  0.19488199603E+04  0.19488199603E+04  0.00000000000E+00 0.  1.
          2   -1    0    0  501    0  0.00000000000E+00 -0.00000000000E+00 -0.95773566846E+01  0.95773566846E+01  0.00000000000E+00 0.  1.
         35    2    1    2    0    0  0.00000000000E+00  0.00000000000E+00  0.19392426037E+04  0.19583973170E+04  0.27323648273E+03 0.  0.
         25    2    3    3    0    0  0.37287597471E+02 -0.33390345478E+02  0.88330903219E+03  0.89372414371E+03  0.12650185223E+03 0.  0.
         25    2    3    3    0    0 -0.37287597471E+02  0.33390345478E+02  0.10559335715E+04  0.10646731733E+04  0.12660165290E+03 0.  0.
          5    1    4    4  502    0  0.48935023942E+02 -0.49171201439E+02  0.86038753340E+03  0.86319247057E+03  0.47000000000E+01 0.  1.
         -5    1    4    4    0  502 -0.11647426471E+02  0.15780855961E+02  0.22921498785E+02  0.30531673141E+02  0.47000000000E+01 0.  1.
          5    1    5    5  503    0 -0.21189689052E+02  0.59303683942E+00  0.25126813068E+02  0.33208452986E+02  0.47000000000E+01 0.  1.
         -5    1    5    5    0  503 -0.16097908419E+02  0.32797308639E+02  0.10308067584E+04  0.10314647203E+04  0.47000000000E+01 0.  1.
<mgrwt>
<rscale>  0 0.27323648E+03</rscale>
<asrwt>0</asrwt>
<pdfrwt beam="1">  1        2 0.14734410E-02 0.27323648E+03</pdfrwt>
<pdfrwt beam="2">  1       -2 0.29981814E+00 0.27323648E+03</pdfrwt>
<totfact> 0.30745082E+02</totfact>
</mgrwt>
</event>
<event>
 9    1  0.7816570E-001  0.2695735E+03  0.7818608E-02  0.1101524E+00
         -2   -1    0    0    0  501 -0.00000000000E+00  0.00000000000E+00  0.30040508131E+03  0.30040508131E+03  0.00000000000E+00 0.  1.
          2   -1    0    0  501    0  0.00000000000E+00 -0.00000000000E+00 -0.60476578777E+02  0.60476578777E+02  0.00000000000E+00 0.  1.
         35    2    1    2    0    0  0.35527136788E-14  0.00000000000E+00  0.23992850253E+03  0.36088166009E+03  0.26957352663E+03 0.  0.
         25    2    3    3    0    0  0.28747699230E+02 -0.26383748398E+02  0.16100785934E+03  0.20703898028E+03  0.12417357286E+03 0.  0.
         25    2    3    3    0    0 -0.28747699230E+02  0.26383748398E+02  0.78920643193E+02  0.15384267980E+03  0.12616088862E+03 0.  0.
          5    1    4    4  502    0  0.38124024746E+02  0.27466057858E+02  0.14090963482E+03  0.14861171145E+03  0.47000000000E+01 0.  1.
         -5    1    4    4    0  502 -0.93763255165E+01 -0.53849806255E+02  0.20098224524E+02  0.58427268830E+02  0.47000000000E+01 0.  1.
          5    1    5    5  503    0 -0.46438375181E+02 -0.65049571548E+01 -0.17550654360E+02  0.50288692820E+02  0.47000000000E+01 0.  1.
         -5    1    5    5    0  503  0.17690675952E+02  0.32888705552E+02  0.96471297553E+02  0.10355398698E+03  0.47000000000E+01 0.  1.
<mgrwt>
<rscale>  0 0.26957353E+03</rscale>
<asrwt>0</asrwt>
<pdfrwt beam="1">  1        2 0.93040892E-02 0.26957353E+03</pdfrwt>
<pdfrwt beam="2">  1       -2 0.46216166E-01 0.26957353E+03</pdfrwt>
<totfact> 0.31376549E+03</totfact>
</mgrwt>
</event>
<event>
 9    1  0.7816570E-001  0.2740288E+03  0.7818608E-02  0.1098996E+00
         -2   -1    0    0    0  501 -0.00000000000E+00  0.00000000000E+00  0.14309798552E+02  0.14309798552E+02  0.00000000000E+00 0. -1.
          2   -1    0    0  501    0  0.00000000000E+00 -0.00000000000E+00 -0.13118949524E+04  0.13118949524E+04  0.00000000000E+00 0. -1.
         35    2    1    2    0    0  0.00000000000E+00  0.00000000000E+00 -0.12975851538E+04  0.13262047509E+04  0.27402884877E+03 0.  0.
         25    2    3    3    0    0 -0.12223586191E+02 -0.55034162283E+02 -0.69286288377E+03  0.70611712557E+03  0.12395258870E+03 0.  0.
         25    2    3    3    0    0  0.12223586191E+02  0.55034162283E+02 -0.60472227005E+03  0.62008762535E+03  0.12506583922E+03 0.  0.
          5    1    4    4  502    0  0.21023528043E+02 -0.15545680378E+02 -0.25762977586E+02  0.37006457867E+02  0.47000000000E+01 0. -1.
         -5    1    4    4    0  502 -0.33247114233E+02 -0.39488481905E+02 -0.66709990619E+03  0.66911066771E+03  0.47000000000E+01 0. -1.
          5    1    5    5  503    0  0.61529626682E+02  0.61393658826E+02 -0.36785789324E+03  0.37801666090E+03  0.47000000000E+01 0. -1.
         -5    1    5    5    0  503 -0.49306040491E+02 -0.63594965436E+01 -0.23686437681E+03  0.24207096444E+03  0.47000000000E+01 0. -1.
<mgrwt>
<rscale>  0 0.27402885E+03</rscale>
<asrwt>0</asrwt>
<pdfrwt beam="1">  1        2 0.20183013E+00 0.27402885E+03</pdfrwt>
<pdfrwt beam="2">  1       -2 0.22015059E-02 0.27402885E+03</pdfrwt>
<totfact> 0.11584209E+04</totfact>
</mgrwt>
</event>
<event>
 9    1  0.7816570E-001  0.2771225E+03  0.7818608E-02  0.1097271E+00
         -2   -1    0    0    0  501 -0.00000000000E+00  0.00000000000E+00  0.42123646182E+02  0.42123646182E+02  0.00000000000E+00 0. -1.
          2   -1    0    0  501    0  0.00000000000E+00 -0.00000000000E+00 -0.45578241272E+03  0.45578241272E+03  0.00000000000E+00 0. -1.
         35    2    1    2    0    0 -0.71054273576E-14 -0.71054273576E-14 -0.41365876653E+03  0.49790605890E+03  0.27712247898E+03 0.  0.
         25    2    3    3    0    0 -0.32174258801E+02  0.33271783909E+02 -0.14699349555E+03  0.19917972857E+03  0.12618748752E+03 0.  0.
         25    2    3    3    0    0  0.32174258801E+02 -0.33271783909E+02 -0.26666527098E+03  0.29872633032E+03  0.12643124277E+03 0.  0.
          5    1    4    4  502    0 -0.40148992117E+02  0.47248290618E+02 -0.12222995420E+02  0.63370609523E+02  0.47000000000E+01 0.  1.
         -5    1    4    4    0  502  0.79747333157E+01 -0.13976506709E+02 -0.13477050013E+03  0.13580911905E+03  0.47000000000E+01 0.  1.
          5    1    5    5  503    0  0.30356651680E+02 -0.80601694090E+02 -0.15599274705E+03  0.17825259191E+03  0.47000000000E+01 0. -1.
         -5    1    5    5    0  503  0.18176071208E+01  0.47329910181E+02 -0.11067252393E+03  0.12047373841E+03  0.47000000000E+01 0. -1.
<mgrwt>
<rscale>  0 0.27712248E+03</rscale>
<asrwt>0</asrwt>
<pdfrwt beam="1">  1        2 0.70120374E-01 0.27712248E+03</pdfrwt>
<pdfrwt beam="2">  1       -2 0.64805607E-02 0.27712248E+03</pdfrwt>
<totfact> 0.90234067E+03</totfact>
</mgrwt>
</event>
<event>
 9    1  0.7816570E-001  0.2765448E+03  0.7818608E-02  0.1097591E+00
          1   -1    0    0  501    0  0.00000000000E+00  0.00000000000E+00  0.11710801838E+04  0.11710801838E+04  0.00000000000E+00 0.  1.
         -1   -1    0    0    0  501 -0.00000000000E+00 -0.00000000000E+00 -0.16326166536E+02  0.16326166536E+02  0.00000000000E+00 0.  1.
         35    2    1    2    0    0  0.00000000000E+00 -0.71054273576E-14  0.11547540173E+04  0.11874063504E+04  0.27654475303E+03 0.  0.
         25    2    3    3    0    0  0.37130877968E+02  0.42742083544E+02  0.48811701507E+03  0.50685604394E+03  0.12425474267E+03 0.  0.
         25    2    3    3    0    0 -0.37130877968E+02 -0.42742083544E+02  0.66663700222E+03  0.68055030642E+03  0.12465247304E+03 0.  0.
          5    1    4    4  502    0  0.15520647060E+02  0.70997780238E+02  0.14899240366E+03  0.16583848056E+03  0.47000000000E+01 0. -1.
         -5    1    4    4    0  502  0.21610230908E+02 -0.28255696694E+02  0.33912461141E+03  0.34101756339E+03  0.47000000000E+01 0. -1.
          5    1    5    5  503    0  0.48589417748E+01 -0.19524082061E+02  0.11508485647E+02  0.23650250260E+02  0.47000000000E+01 0.  1.
         -5    1    5    5    0  503 -0.41989819743E+02 -0.23218001483E+02  0.65512851658E+03  0.65690005616E+03  0.47000000000E+01 0.  1.
<mgrwt>
<rscale>  0 0.27654475E+03</rscale>
<asrwt>0</asrwt>
<pdfrwt beam="1">  1        1 0.18016612E+00 0.27654475E+03</pdfrwt>
<pdfrwt beam="2">  1       -1 0.25117188E-02 0.27654475E+03</pdfrwt>
<totfact> 0.58854458E+03</totfact>
</mgrwt>
</event>
<event>
 9    1  0.7816570E-001  0.2758706E+03  0.7818608E-02  0.1097966E+00
         -1   -1    0    0    0  501 -0.00000000000E+00  0.00000000000E+00  0.75927114402E+01  0.75927114402E+01  0.00000000000E+00 0.  1.
          1   -1    0    0  501    0  0.00000000000E+00 -0.00000000000E+00 -0.25058433910E+04  0.25058433910E+04  0.00000000000E+00 0.  1.
         35    2    1    2    0    0  0.00000000000E+00  0.00000000000E+00 -0.24982506795E+04  0.25134361024E+04  0.27587059127E+03 0.  0.
         25    2    3    3    0    0 -0.38863872163E+02 -0.11398103766E+02 -0.16697994819E+04  0.16748121393E+04  0.12298404301E+03 0.  0.
         25    2    3    3    0    0  0.38863872163E+02  0.11398103766E+02 -0.82845119760E+03  0.83862396309E+03  0.12376771523E+03 0.  0.
          5    1    4    4  502    0 -0.19319235227E+01 -0.42401852927E+01 -0.24892125352E+01  0.70709036806E+01  0.47000000000E+01 0. -1.
         -5    1    4    4    0  502 -0.36931948641E+02 -0.71579184731E+01 -0.16673102694E+04  0.16677412356E+04  0.47000000000E+01 0. -1.
          5    1    5    5  503    0  0.79222237514E+02  0.10130650846E+02 -0.68059818092E+03  0.68528444231E+03  0.47000000000E+01 0.  1.
         -5    1    5    5    0  503 -0.40358365351E+02  0.12674529203E+01 -0.14785301668E+03  0.15333952077E+03  0.47000000000E+01 0.  1.
<mgrwt>
<rscale>  0 0.27587059E+03</rscale>
<asrwt>0</asrwt>
<pdfrwt beam="1">  1        1 0.38551516E+00 0.27587059E+03</pdfrwt>
<pdfrwt beam="2">  1       -1 0.11681070E-02 0.27587059E+03</pdfrwt>
<totfact> 0.23597379E+03</totfact>
</mgrwt>
</event>
<event>
 9    1  0.7816570E-001  0.2683073E+03  0.7818608E-02  0.1102252E+00
          1   -1    0    0  501    0  0.00000000000E+00  0.00000000000E+00  0.28134935026E+03  0.28134935026E+03  0.00000000000E+00 0. -1.
         -1   -1    0    0    0  501 -0.00000000000E+00 -0.00000000000E+00 -0.63967439912E+02  0.63967439912E+02  0.00000000000E+00 0. -1.
         35    2    1    2    0    0  0.00000000000E+00 -0.71054273576E-14  0.21738191035E+03  0.34531679017E+03  0.26830726905E+03 0.  0.
         25    2    3    3    0    0 -0.63240779959E+01 -0.48678249918E+02  0.11223911142E+03  0.17505556633E+03  0.12504905914E+03 0.  0.
         25    2    3    3    0    0  0.63240779959E+01  0.48678249918E+02  0.10514279893E+03  0.17026122384E+03  0.12459658984E+03 0.  0.
          5    1    4    4  502    0  0.13896741259E+02 -0.85811678131E+02  0.95801307884E+02  0.12944784322E+03  0.47000000000E+01 0.  1.
         -5    1    4    4    0  502 -0.20220819255E+02  0.37133428213E+02  0.16437803537E+02  0.45607723110E+02  0.47000000000E+01 0.  1.
          5    1    5    5  503    0 -0.95741663914E+01 -0.12234931993E+02  0.10589113784E+03  0.10712787357E+03  0.47000000000E+01 0.  1.
         -5    1    5    5    0  503  0.15898244387E+02  0.60913181912E+02 -0.74833891456E+00  0.63133350270E+02  0.47000000000E+01 0.  1.
<mgrwt>
<rscale>  0 0.26830727E+03</rscale>
<asrwt>0</asrwt>
<pdfrwt beam="1">  1        1 0.43284515E-01 0.26830727E+03</pdfrwt>
<pdfrwt beam="2">  1       -1 0.98411448E-02 0.26830727E+03</pdfrwt>
<totfact> 0.58922932E+03</totfact>
</mgrwt>
</event>
<event>
 9    1  0.7816570E-001  0.2758712E+03  0.7818608E-02  0.1097966E+00
         -2   -1    0    0    0  501 -0.00000000000E+00  0.00000000000E+00  0.18022394999E+02  0.18022394999E+02  0.00000000000E+00 0. -1.
          2   -1    0    0  501    0  0.00000000000E+00 -0.00000000000E+00 -0.10556991830E+04  0.10556991830E+04  0.00000000000E+00 0. -1.
         35    2    1    2    0    0  0.71054273576E-14  0.00000000000E+00 -0.10376767880E+04  0.10737215780E+04  0.27587118499E+03 0.  0.
         25    2    3    3    0    0 -0.26559957746E+01  0.33365072834E+02 -0.70560030510E+03  0.71734620512E+03  0.12487395666E+03 0.  0.
         25    2    3    3    0    0  0.26559957746E+01 -0.33365072834E+02 -0.33207648294E+03  0.35637537292E+03  0.12493331621E+03 0.  0.
          5    1    4    4  502    0 -0.61696692854E+02  0.32792639626E+02 -0.38907757754E+03  0.39532934431E+03  0.47000000000E+01 0.  1.
         -5    1    4    4    0  502  0.59040697080E+02  0.57243320730E+00 -0.31652272756E+03  0.32201686082E+03  0.47000000000E+01 0.  1.
          5    1    5    5  503    0 -0.36620292437E+02 -0.61657383854E+02 -0.25751609072E+03  0.26735614034E+03  0.47000000000E+01 0. -1.
         -5    1    5    5    0  503  0.39276288211E+02  0.28292311021E+02 -0.74560392226E+02  0.89019232571E+02  0.47000000000E+01 0. -1.
<mgrwt>
<rscale>  0 0.27587118E+03</rscale>
<asrwt>0</asrwt>
<pdfrwt beam="1">  1        2 0.16241526E+00 0.27587118E+03</pdfrwt>
<pdfrwt beam="2">  1       -2 0.27726761E-02 0.27587118E+03</pdfrwt>
<totfact> 0.11544249E+04</totfact>
</mgrwt>
</event>
<event>
 9    1  0.7816570E-001  0.2743826E+03  0.7818608E-02  0.1098797E+00
         -2   -1    0    0    0  501 -0.00000000000E+00  0.00000000000E+00  0.99823784004E+01  0.99823784004E+01  0.00000000000E+00 0. -1.
          2   -1    0    0  501    0  0.00000000000E+00 -0.00000000000E+00 -0.18854683667E+04  0.18854683667E+04  0.00000000000E+00 0. -1.
         35    2    1    2    0    0 -0.14210854715E-13 -0.71054273576E-14 -0.18754859883E+04  0.18954507451E+04  0.27438264303E+03 0.  0.
         25    2    3    3    0    0 -0.44975520513E+02 -0.28606737971E+02 -0.10190250208E+04  0.10280479647E+04  0.12501792601E+03 0.  0.
         25    2    3    3    0    0  0.44975520513E+02  0.28606737971E+02 -0.85646096751E+03  0.86740278040E+03  0.12657429311E+03 0.  0.
          5    1    4    4  502    0 -0.11255575686E+02  0.92564405387E+01 -0.11282482474E+02  0.19019834022E+02  0.47000000000E+01 0.  1.
         -5    1    4    4    0  502 -0.33719944827E+02 -0.37863178509E+02 -0.10077425384E+04  0.10090281307E+04  0.47000000000E+01 0.  1.
          5    1    5    5  503    0 -0.15678673404E+02 -0.16978883067E+02 -0.33672985585E+02  0.41110378593E+02  0.47000000000E+01 0.  1.
         -5    1    5    5    0  503  0.60654193917E+02  0.45585621037E+02 -0.82278798192E+03  0.82629240181E+03  0.47000000000E+01 0.  1.
<mgrwt>
<rscale>  0 0.27438264E+03</rscale>
<asrwt>0</asrwt>
<pdfrwt beam="1">  1        2 0.29007234E+00 0.27438264E+03</pdfrwt>
<pdfrwt beam="2">  1       -2 0.15357490E-02 0.27438264E+03</pdfrwt>
<totfact> 0.97269717E+03</totfact>
</mgrwt>
</event>
<event>
 9    1  0.7816570E-001  0.2583541E+03  0.7818608E-02  0.1108136E+00
         -1   -1    0    0    0  501 -0.00000000000E+00  0.00000000000E+00  0.12069474834E+03  0.12069474834E+03  0.00000000000E+00 0.  1.
          1   -1    0    0  501    0  0.00000000000E+00 -0.00000000000E+00 -0.13825547132E+03  0.13825547132E+03  0.00000000000E+00 0.  1.
         35    2    1    2    0    0 -0.71054273576E-14  0.17763568394E-14 -0.17560722977E+02  0.25895021966E+03  0.25835409281E+03 0.  0.
         25    2    3    3    0    0 -0.92427342408E+01 -0.74371445014E+01 -0.44621452365E+02  0.13472285586E+03  0.12656395468E+03 0.  0.
         25    2    3    3    0    0  0.92427342408E+01  0.74371445014E+01  0.27060729388E+02  0.12422736380E+03  0.12066240337E+03 0.  0.
          5    1    4    4  502    0 -0.45277230853E+02  0.28370330060E+01  0.27538882044E+02  0.53278104454E+02  0.47000000000E+01 0. -1.
         -5    1    4    4    0  502  0.36034496612E+02 -0.10274177507E+02 -0.72160334409E+02  0.81444751406E+02  0.47000000000E+01 0. -1.
          5    1    5    5  503    0 -0.43622762325E+02  0.36711975797E+02 -0.14887910179E+01  0.57227799700E+02  0.47000000000E+01 0. -1.
         -5    1    5    5    0  503  0.52865496566E+02 -0.29274831295E+02  0.28549520406E+02  0.66999564102E+02  0.47000000000E+01 0. -1.
<mgrwt>
<rscale>  0 0.25835409E+03</rscale>
<asrwt>0</asrwt>
<pdfrwt beam="1">  1        1 0.21270072E-01 0.25835409E+03</pdfrwt>
<pdfrwt beam="2">  1       -1 0.18568423E-01 0.25835409E+03</pdfrwt>
<totfact> 0.53113560E+03</totfact>
</mgrwt>
</event>
<event>
 9    1  0.7816570E-001  0.2824160E+03  0.7818608E-02  0.1094377E+00
          2   -1    0    0  501    0  0.00000000000E+00  0.00000000000E+00  0.94882757789E+03  0.94882757789E+03  0.00000000000E+00 0.  1.
         -2   -1    0    0    0  501 -0.00000000000E+00 -0.00000000000E+00 -0.21015086110E+02  0.21015086110E+02  0.00000000000E+00 0.  1.
         35    2    1    2    0    0 -0.35527136788E-14 -0.14210854715E-13  0.92781249178E+03  0.96984266400E+03  0.28241595743E+03 0.  0.
         25    2    3    3    0    0  0.20035679698E+02  0.60245809811E+02  0.41759241639E+03  0.44061162262E+03  0.12539613114E+03 0.  0.
         25    2    3    3    0    0 -0.20035679698E+02 -0.60245809811E+02  0.51022007539E+03  0.52923104137E+03  0.12541923203E+03 0.  0.
          5    1    4    4  502    0  0.66609432358E+02  0.58567397149E+02  0.32397749773E+03  0.33593223353E+03  0.47000000000E+01 0. -1.
         -5    1    4    4    0  502 -0.46573752660E+02  0.16784126619E+01  0.93614918652E+02  0.10467938909E+03  0.47000000000E+01 0. -1.
          5    1    5    5  503    0 -0.14497040926E+02 -0.99135561183E+02  0.38875347563E+03  0.40148397042E+03  0.47000000000E+01 0. -1.
         -5    1    5    5    0  503 -0.55386387720E+01  0.38889751373E+02  0.12146659975E+03  0.12774707095E+03  0.47000000000E+01 0. -1.
<mgrwt>
<rscale>  0 0.28241596E+03</rscale>
<asrwt>0</asrwt>
<pdfrwt beam="1">  1        2 0.14597344E+00 0.28241596E+03</pdfrwt>
<pdfrwt beam="2">  1       -2 0.32330909E-02 0.28241596E+03</pdfrwt>
<totfact> 0.10686096E+04</totfact>
</mgrwt>
</event>
<event>
 9    1  0.7816570E-001  0.2734538E+03  0.7818608E-02  0.1099319E+00
         -1   -1    0    0    0  501 -0.00000000000E+00  0.00000000000E+00  0.29865327526E+02  0.29865327526E+02  0.00000000000E+00 0. -1.
          1   -1    0    0  501    0  0.00000000000E+00 -0.00000000000E+00 -0.62595139514E+03  0.62595139514E+03  0.00000000000E+00 0. -1.
         35    2    1    2    0    0  0.00000000000E+00  0.00000000000E+00 -0.59608606761E+03  0.65581672266E+03  0.27345378718E+03 0.  0.
         25    2    3    3    0    0 -0.77767539292E+01 -0.48593787503E+02 -0.23391070118E+03  0.26923268557E+03  0.12389587874E+03 0.  0.
         25    2    3    3    0    0  0.77767539292E+01  0.48593787503E+02 -0.36217536643E+03  0.38658403709E+03  0.12591420729E+03 0.  0.
          5    1    4    4  502    0 -0.35447270134E+02 -0.81516121687E+02 -0.17251080836E+03  0.19412227089E+03  0.47000000000E+01 0.  1.
         -5    1    4    4    0  502  0.27670516205E+02  0.32922334184E+02 -0.61399892819E+02  0.75110414680E+02  0.47000000000E+01 0.  1.
          5    1    5    5  503    0 -0.35226094673E+02  0.52763447347E+02 -0.31915305186E+03  0.32543143614E+03  0.47000000000E+01 0. -1.
         -5    1    5    5    0  503  0.43002848603E+02 -0.41696598441E+01 -0.43022314576E+02  0.61152600947E+02  0.47000000000E+01 0. -1.
<mgrwt>
<rscale>  0 0.27345379E+03</rscale>
<asrwt>0</asrwt>
<pdfrwt beam="1">  1        1 0.96300222E-01 0.27345379E+03</pdfrwt>
<pdfrwt beam="2">  1       -1 0.45946654E-02 0.27345379E+03</pdfrwt>
<totfact> 0.65970226E+03</totfact>
</mgrwt>
</event>
<event>
 9    1  0.7816570E-001  0.2799100E+03  0.7818608E-02  0.1095738E+00
         -4   -1    0    0    0  501 -0.00000000000E+00  0.00000000000E+00  0.46758893534E+02  0.46758893534E+02  0.00000000000E+00 0.  1.
          4   -1    0    0  501    0  0.00000000000E+00 -0.00000000000E+00 -0.41890218881E+03  0.41890218881E+03  0.00000000000E+00 0.  1.
         35    2    1    2    0    0  0.00000000000E+00 -0.14210854715E-13 -0.37214329528E+03  0.46566108235E+03  0.27991000588E+03 0.  0.
         25    2    3    3    0    0  0.52296109202E+02  0.44156698892E+02 -0.17829120339E+03  0.22527043666E+03  0.11947518290E+03 0.  0.
         25    2    3    3    0    0 -0.52296109202E+02 -0.44156698892E+02 -0.19385209189E+03  0.24039064569E+03  0.12459667697E+03 0.  0.
          5    1    4    4  502    0  0.43830843255E+02  0.63807297012E+02 -0.43922992238E+02  0.89128184204E+02  0.47000000000E+01 0.  1.
         -5    1    4    4    0  502  0.84652659467E+01 -0.19650598119E+02 -0.13436821115E+03  0.13614225245E+03  0.47000000000E+01 0.  1.
          5    1    5    5  503    0  0.13768239681E+02  0.15310115811E+02  0.57095027892E+01  0.21878128169E+02  0.47000000000E+01 0. -1.
         -5    1    5    5    0  503 -0.66064348883E+02 -0.59466814704E+02 -0.19956159468E+03  0.21851251752E+03  0.47000000000E+01 0. -1.
<mgrwt>
<rscale>  0 0.27991001E+03</rscale>
<asrwt>0</asrwt>
<pdfrwt beam="1">  1        4 0.64446492E-01 0.27991001E+03</pdfrwt>
<pdfrwt beam="2">  1       -4 0.71936758E-02 0.27991001E+03</pdfrwt>
<totfact> 0.56363615E+02</totfact>
</mgrwt>
</event>
<event>
 9    1  0.7816570E-001  0.2730396E+03  0.7818608E-02  0.1099552E+00
         -2   -1    0    0    0  501 -0.00000000000E+00  0.00000000000E+00  0.41723864946E+03  0.41723864946E+03  0.00000000000E+00 0.  1.
          2   -1    0    0  501    0  0.00000000000E+00 -0.00000000000E+00 -0.44669048683E+02  0.44669048683E+02  0.00000000000E+00 0.  1.
         35    2    1    2    0    0  0.35527136788E-14 -0.71054273576E-14  0.37256960078E+03  0.46190769814E+03  0.27303958354E+03 0.  0.
         25    2    3    3    0    0  0.31396420914E+02  0.39924845098E+02  0.22139141297E+03  0.25880499210E+03  0.12404087107E+03 0.  0.
         25    2    3    3    0    0 -0.31396420914E+02 -0.39924845098E+02  0.15117818781E+03  0.20310270605E+03  0.12576222100E+03 0.  0.
          5    1    4    4  502    0 -0.40935479779E+01  0.76527272372E+02  0.16862056619E+03  0.18527861694E+03  0.47000000000E+01 0. -1.
         -5    1    4    4    0  502  0.35489968892E+02 -0.36602427274E+02  0.52770846772E+02  0.73526375155E+02  0.47000000000E+01 0. -1.
          5    1    5    5  503    0  0.33185539778E+01 -0.35697715991E+02  0.16216399852E+03  0.16614629741E+03  0.47000000000E+01 0. -1.
         -5    1    5    5    0  503 -0.34714974892E+02 -0.42271291069E+01 -0.10985810710E+02  0.36956408635E+02  0.47000000000E+01 0. -1.
<mgrwt>
<rscale>  0 0.27303958E+03</rscale>
<asrwt>0</asrwt>
<pdfrwt beam="1">  1        2 0.68721616E-02 0.27303958E+03</pdfrwt>
<pdfrwt beam="2">  1       -2 0.64190559E-01 0.27303958E+03</pdfrwt>
<totfact> 0.23673741E+03</totfact>
</mgrwt>
</event>
<event>
 9    1  0.7816570E-001  0.2761335E+03  0.7818608E-02  0.1097820E+00
          1   -1    0    0  501    0  0.00000000000E+00  0.00000000000E+00  0.26413291550E+03  0.26413291550E+03  0.00000000000E+00 0. -1.
         -1   -1    0    0    0  501 -0.00000000000E+00 -0.00000000000E+00 -0.72169838318E+02  0.72169838318E+02  0.00000000000E+00 0. -1.
         35    2    1    2    0    0  0.00000000000E+00  0.26645352591E-14  0.19196307718E+03  0.33630275382E+03  0.27613351702E+03 0.  0.
         25    2    3    3    0    0 -0.50569097483E+02  0.27077453831E+01  0.59827874789E+02  0.14723370062E+03  0.12463475635E+03 0.  0.
         25    2    3    3    0    0  0.50569097483E+02 -0.27077453831E+01  0.13213520239E+03  0.18906905320E+03  0.12539070803E+03 0.  0.
          5    1    4    4  502    0 -0.67724962259E+01  0.52726585043E+01 -0.38359568153E+02  0.39588055038E+02  0.47000000000E+01 0.  1.
         -5    1    4    4    0  502 -0.43796601257E+02 -0.25649131212E+01  0.98187442942E+02  0.10764564558E+03  0.47000000000E+01 0.  1.
          5    1    5    5  503    0 -0.35279041666E+01  0.24009201861E+02  0.12581762430E+03  0.12822266752E+03  0.47000000000E+01 0. -1.
         -5    1    5    5    0  503  0.54097001649E+02 -0.26716947244E+02  0.63175780965E+01  0.60846385682E+02  0.47000000000E+01 0. -1.
<mgrwt>
<rscale>  0 0.27613352E+03</rscale>
<asrwt>0</asrwt>
<pdfrwt beam="1">  1        1 0.40635833E-01 0.27613352E+03</pdfrwt>
<pdfrwt beam="2">  1       -1 0.11103052E-01 0.27613352E+03</pdfrwt>
<totfact> 0.52959264E+03</totfact>
</mgrwt>
</event>
<event>
 9    1  0.7816570E-001  0.2794049E+03  0.7818608E-02  0.1096014E+00
          1   -1    0    0  501    0  0.00000000000E+00  0.00000000000E+00  0.14391314068E+03  0.14391314068E+03  0.00000000000E+00 0. -1.
         -1   -1    0    0    0  501 -0.00000000000E+00 -0.00000000000E+00 -0.13561495413E+03  0.13561495413E+03  0.00000000000E+00 0. -1.
         35    2    1    2    0    0 -0.71054273576E-14  0.71054273576E-14  0.82981865511E+01  0.27952809482E+03  0.27940489597E+03 0.  0.
         25    2    3    3    0    0 -0.29038413032E+02  0.52993501168E+02  0.20556936234E+02  0.14031774835E+03  0.12495976263E+03 0.  0.
         25    2    3    3    0    0  0.29038413032E+02 -0.52993501168E+02 -0.12258749683E+02  0.13921034647E+03  0.12481066871E+03 0.  0.
          5    1    4    4  502    0  0.22751132656E+02  0.52481316385E+02 -0.32556086891E+02  0.65984023826E+02  0.47000000000E+01 0.  1.
         -5    1    4    4    0  502 -0.51789545688E+02  0.51218478368E+00  0.53113023125E+02  0.74333724522E+02  0.47000000000E+01 0.  1.
          5    1    5    5  503    0  0.35118296529E+02 -0.91956039213E+02 -0.13568309979E+02  0.99475609747E+02  0.47000000000E+01 0.  1.
         -5    1    5    5    0  503 -0.60798834973E+01  0.38962538044E+02  0.13095602965E+01  0.39734736722E+02  0.47000000000E+01 0.  1.
<mgrwt>
<rscale>  0 0.27940490E+03</rscale>
<asrwt>0</asrwt>
<pdfrwt beam="1">  1        1 0.22140483E-01 0.27940490E+03</pdfrwt>
<pdfrwt beam="2">  1       -1 0.20863839E-01 0.27940490E+03</pdfrwt>
<totfact> 0.41865532E+03</totfact>
</mgrwt>
</event>
<event>
 9    1  0.7816570E-001  0.2728567E+03  0.7818608E-02  0.1099656E+00
         -1   -1    0    0    0  501 -0.00000000000E+00  0.00000000000E+00  0.56446327002E+03  0.56446327002E+03  0.00000000000E+00 0. -1.
          1   -1    0    0  501    0  0.00000000000E+00 -0.00000000000E+00 -0.32974152518E+02  0.32974152518E+02  0.00000000000E+00 0. -1.
         35    2    1    2    0    0  0.00000000000E+00  0.71054273576E-14  0.53148911750E+03  0.59743742254E+03  0.27285672399E+03 0.  0.
         25    2    3    3    0    0 -0.49007421696E+02  0.22213618021E+02  0.29085644886E+03  0.32102716526E+03  0.12476295437E+03 0.  0.
         25    2    3    3    0    0  0.49007421696E+02 -0.22213618021E+02  0.24063266865E+03  0.27641025728E+03  0.12491347767E+03 0.  0.
          5    1    4    4  502    0 -0.60816027682E+02 -0.38672090645E+02  0.13272258058E+03  0.15110093717E+03  0.47000000000E+01 0. -1.
         -5    1    4    4    0  502  0.11808605986E+02  0.60885708666E+02  0.15813386828E+03  0.16992622809E+03  0.47000000000E+01 0. -1.
          5    1    5    5  503    0  0.31311587691E+02  0.48119299626E+02  0.14699205214E+03  0.15787538096E+03  0.47000000000E+01 0. -1.
         -5    1    5    5    0  503  0.17695834004E+02 -0.70332917647E+02  0.93640616510E+02  0.11853487633E+03  0.47000000000E+01 0. -1.
<mgrwt>
<rscale>  0 0.27285672E+03</rscale>
<asrwt>0</asrwt>
<pdfrwt beam="1">  1        1 0.50729470E-02 0.27285672E+03</pdfrwt>
<pdfrwt beam="2">  1       -1 0.86840496E-01 0.27285672E+03</pdfrwt>
<totfact> 0.22339374E+03</totfact>
</mgrwt>
</event>
<event>
 9    1  0.7816570E-001  0.2739085E+03  0.7818608E-02  0.1099063E+00
         -2   -1    0    0    0  501 -0.00000000000E+00  0.00000000000E+00  0.62082911931E+02  0.62082911931E+02  0.00000000000E+00 0.  1.
          2   -1    0    0  501    0  0.00000000000E+00 -0.00000000000E+00 -0.30211973486E+03  0.30211973486E+03  0.00000000000E+00 0.  1.
         35    2    1    2    0    0 -0.71054273576E-14  0.00000000000E+00 -0.24003682293E+03  0.36420264679E+03  0.27390854599E+03 0.  0.
         25    2    3    3    0    0  0.40844703325E+02  0.21140006157E+02 -0.15582450155E+03  0.20530454899E+03  0.12551291927E+03 0.  0.
         25    2    3    3    0    0 -0.40844703325E+02 -0.21140006157E+02 -0.84212321385E+02  0.15889809780E+03  0.12665583588E+03 0.  0.
          5    1    4    4  502    0 -0.17460073063E+02 -0.42555446059E+02 -0.42932198961E+02  0.63095830673E+02  0.47000000000E+01 0. -1.
         -5    1    4    4    0  502  0.58304776388E+02  0.63695452216E+02 -0.11289230258E+03  0.14220871832E+03  0.47000000000E+01 0. -1.
          5    1    5    5  503    0 -0.23674218247E+02  0.49755971463E+02 -0.60697242852E+02  0.82111939422E+02  0.47000000000E+01 0. -1.
         -5    1    5    5    0  503 -0.17170485078E+02 -0.70895977619E+02 -0.23515078532E+02  0.76786158380E+02  0.47000000000E+01 0. -1.
<mgrwt>
<rscale>  0 0.27390855E+03</rscale>
<asrwt>0</asrwt>
<pdfrwt beam="1">  1        2 0.46479958E-01 0.27390855E+03</pdfrwt>
<pdfrwt beam="2">  1       -2 0.95512175E-02 0.27390855E+03</pdfrwt>
<totfact> 0.76884776E+03</totfact>
</mgrwt>
</event>
<event>
 9    1  0.7816570E-001  0.2752456E+03  0.7818608E-02  0.1098314E+00
         -1   -1    0    0    0  501 -0.00000000000E+00  0.00000000000E+00  0.21234083834E+03  0.21234083834E+03  0.00000000000E+00 0.  1.
          1   -1    0    0  501    0  0.00000000000E+00 -0.00000000000E+00 -0.89196375632E+02  0.89196375632E+02  0.00000000000E+00 0.  1.
         35    2    1    2    0    0  0.00000000000E+00  0.17763568394E-14  0.12314446270E+03  0.30153721397E+03  0.27524558618E+03 0.  0.
         25    2    3    3    0    0  0.61777041564E+02 -0.89284187840E+01  0.94530650757E+02  0.15869881583E+03  0.11114472856E+03 0.  0.
         25    2    3    3    0    0 -0.61777041564E+02  0.89284187840E+01  0.28613811947E+02  0.14283839814E+03  0.12525149988E+03 0.  0.
          5    1    4    4  502    0  0.73618708290E+02 -0.46863882776E+02  0.67068039342E+02  0.11016419391E+03  0.47000000000E+01 0.  1.
         -5    1    4    4    0  502 -0.11841666726E+02  0.37935463992E+02  0.27462611414E+02  0.48534621919E+02  0.47000000000E+01 0.  1.
          5    1    5    5  503    0  0.35447958809E+01 -0.94607211538E+01  0.64825971240E+02  0.65776647602E+02  0.47000000000E+01 0. -1.
         -5    1    5    5    0  503 -0.65321837445E+02  0.18389139938E+02 -0.36212159293E+02  0.77061750535E+02  0.47000000000E+01 0. -1.
<mgrwt>
<rscale>  0 0.27524559E+03</rscale>
<asrwt>0</asrwt>
<pdfrwt beam="1">  1        1 0.13722519E-01 0.27524559E+03</pdfrwt>
<pdfrwt beam="2">  1       -1 0.32667821E-01 0.27524559E+03</pdfrwt>
<totfact> 0.36801821E+03</totfact>
</mgrwt>
</event>
<event>
 9    1  0.7816570E-001  0.2852547E+03  0.7818608E-02  0.1092853E+00
         -2   -1    0    0    0  501 -0.00000000000E+00  0.00000000000E+00  0.10435850024E+02  0.10435850024E+02  0.00000000000E+00 0. -1.
          2   -1    0    0  501    0  0.00000000000E+00 -0.00000000000E+00 -0.19492963661E+04  0.19492963661E+04  0.00000000000E+00 0. -1.
         35    2    1    2    0    0  0.00000000000E+00  0.00000000000E+00 -0.19388605160E+04  0.19597322161E+04  0.28525472497E+03 0.  0.
         25    2    3    3    0    0 -0.14967403454E+02  0.32824053505E+02 -0.13896515235E+04  0.13957271839E+04  0.12498629319E+03 0.  0.
         25    2    3    3    0    0  0.14967403454E+02 -0.32824053505E+02 -0.54920899256E+03  0.56400503220E+03  0.12316540578E+03 0.  0.
          5    1    4    4  502    0 -0.29617737585E+02  0.63500115390E+02 -0.44976791754E+03  0.45521724998E+03  0.47000000000E+01 0. -1.
         -5    1    4    4    0  502  0.14650334131E+02 -0.30676061885E+02 -0.93988360594E+03  0.94050993390E+03  0.47000000000E+01 0. -1.
          5    1    5    5  503    0 -0.15361677022E+02  0.42816947578E+02 -0.23174451724E+03  0.23621363930E+03  0.47000000000E+01 0.  1.
         -5    1    5    5    0  503  0.30329080476E+02 -0.75641001084E+02 -0.31746447532E+03  0.32779139290E+03  0.47000000000E+01 0.  1.
<mgrwt>
<rscale>  0 0.28525472E+03</rscale>
<asrwt>0</asrwt>
<pdfrwt beam="1">  1        2 0.29989157E+00 0.28525472E+03</pdfrwt>
<pdfrwt beam="2">  1       -2 0.16055164E-02 0.28525472E+03</pdfrwt>
<totfact> 0.84401788E+03</totfact>
</mgrwt>
</event>
<event>
 9    1  0.7816570E-001  0.2713610E+03  0.7818608E-02  0.1100503E+00
          2   -1    0    0  501    0  0.00000000000E+00  0.00000000000E+00  0.14131621316E+04  0.14131621316E+04  0.00000000000E+00 0.  1.
         -2   -1    0    0    0  501 -0.00000000000E+00 -0.00000000000E+00 -0.13026953509E+02  0.13026953509E+02  0.00000000000E+00 0.  1.
         35    2    1    2    0    0  0.71054273576E-14  0.00000000000E+00  0.14001351781E+04  0.14261890851E+04  0.27136099491E+03 0.  0.
         25    2    3    3    0    0 -0.45090919139E+02  0.16650521609E+02  0.55270390549E+03  0.56860006658E+03  0.12455519944E+03 0.  0.
         25    2    3    3    0    0  0.45090919139E+02 -0.16650521609E+02  0.84743127258E+03  0.85758901851E+03  0.12251013047E+03 0.  0.
          5    1    4    4  502    0  0.28504190763E+02  0.34837256443E+02  0.33464654335E+03  0.33769294085E+03  0.47000000000E+01 0.  1.
         -5    1    4    4    0  502 -0.73595109903E+02 -0.18186734834E+02  0.21805736214E+03  0.23090712572E+03  0.47000000000E+01 0.  1.
          5    1    5    5  503    0 -0.12877970038E+02 -0.18996291657E+02  0.29880706595E+02  0.37969037855E+02  0.47000000000E+01 0.  1.
         -5    1    5    5    0  503  0.57968889177E+02  0.23457700481E+01  0.81755056598E+03  0.81961998066E+03  0.47000000000E+01 0.  1.
<mgrwt>
<rscale>  0 0.27136099E+03</rscale>
<asrwt>0</asrwt>
<pdfrwt beam="1">  1        2 0.21740944E+00 0.27136099E+03</pdfrwt>
<pdfrwt beam="2">  1       -2 0.20041478E-02 0.27136099E+03</pdfrwt>
<totfact> 0.11707913E+04</totfact>
</mgrwt>
</event>
<event>
 9    1  0.7816570E-001  0.2734579E+03  0.7818608E-02  0.1099317E+00
          2   -1    0    0  501    0  0.00000000000E+00  0.00000000000E+00  0.17029840204E+04  0.17029840204E+04  0.00000000000E+00 0. -1.
         -2   -1    0    0    0  501 -0.00000000000E+00 -0.00000000000E+00 -0.10977672340E+02  0.10977672340E+02  0.00000000000E+00 0. -1.
         35    2    1    2    0    0 -0.71054273576E-14  0.35527136788E-14  0.16920063481E+04  0.17139616928E+04  0.27345786203E+03 0.  0.
         25    2    3    3    0    0  0.32587457855E+02  0.26572748853E+02  0.62287510604E+03  0.63683676366E+03  0.12577604080E+03 0.  0.
         25    2    3    3    0    0 -0.32587457855E+02 -0.26572748853E+02  0.10691312421E+04  0.10771249291E+04  0.12405017849E+03 0.  0.
          5    1    4    4  502    0 -0.28400790900E+02  0.56644331009E+02  0.26328756418E+03  0.27084611242E+03  0.47000000000E+01 0.  1.
         -5    1    4    4    0  502  0.60988248756E+02 -0.30071582156E+02  0.35958754186E+03  0.36599065124E+03  0.47000000000E+01 0.  1.
          5    1    5    5  503    0 -0.18060138728E+02  0.48850754680E+02  0.34944311573E+03  0.35333432606E+03  0.47000000000E+01 0.  1.
         -5    1    5    5    0  503 -0.14527319127E+02 -0.75423503533E+02  0.71968812633E+03  0.72379060305E+03  0.47000000000E+01 0.  1.
<mgrwt>
<rscale>  0 0.27345786E+03</rscale>
<asrwt>0</asrwt>
<pdfrwt beam="1">  1        2 0.26199733E+00 0.27345786E+03</pdfrwt>
<pdfrwt beam="2">  1       -2 0.16888740E-02 0.27345786E+03</pdfrwt>
<totfact> 0.10552397E+04</totfact>
</mgrwt>
</event>
<event>
 9    1  0.7816570E-001  0.2787256E+03  0.7818608E-02  0.1096387E+00
         -2   -1    0    0    0  501 -0.00000000000E+00  0.00000000000E+00  0.30660033945E+02  0.30660033945E+02  0.00000000000E+00 0. -1.
          2   -1    0    0  501    0  0.00000000000E+00 -0.00000000000E+00 -0.63346283487E+03  0.63346283487E+03  0.00000000000E+00 0. -1.
         35    2    1    2    0    0  0.00000000000E+00 -0.14210854715E-13 -0.60280280092E+03  0.66412286881E+03  0.27872561432E+03 0.  0.
         25    2    3    3    0    0 -0.42258611545E+02 -0.43308204124E+02 -0.22233074108E+03  0.26241580865E+03  0.12557749562E+03 0.  0.
         25    2    3    3    0    0  0.42258611545E+02  0.43308204124E+02 -0.38047205985E+03  0.40170706017E+03  0.11379008335E+03 0.  0.
          5    1    4    4  502    0 -0.62836436770E+02 -0.70006820650E+02 -0.10886231115E+03  0.14395299758E+03  0.47000000000E+01 0.  1.
         -5    1    4    4    0  502  0.20577825224E+02  0.26698616526E+02 -0.11346842993E+03  0.11846281107E+03  0.47000000000E+01 0.  1.
          5    1    5    5  503    0  0.14972847319E+02  0.29583400523E+02 -0.36609549333E+03  0.36762394370E+03  0.47000000000E+01 0.  1.
         -5    1    5    5    0  503  0.27285764226E+02  0.13724803602E+02 -0.14376566514E+02  0.34083116466E+02  0.47000000000E+01 0.  1.
<mgrwt>
<rscale>  0 0.27872561E+03</rscale>
<asrwt>0</asrwt>
<pdfrwt beam="1">  1        2 0.97455816E-01 0.27872561E+03</pdfrwt>
<pdfrwt beam="2">  1       -2 0.47169285E-02 0.27872561E+03</pdfrwt>
<totfact> 0.10088408E+04</totfact>
</mgrwt>
</event>
<event>
 9    1  0.7816570E-001  0.2753998E+03  0.7818608E-02  0.1098228E+00
         -2   -1    0    0    0  501 -0.00000000000E+00  0.00000000000E+00  0.28403696713E+02  0.28403696713E+02  0.00000000000E+00 0. -1.
          2   -1    0    0  501    0  0.00000000000E+00 -0.00000000000E+00 -0.66756313958E+03  0.66756313958E+03  0.00000000000E+00 0. -1.
         35    2    1    2    0    0  0.00000000000E+00  0.35527136788E-14 -0.63915944287E+03  0.69596683630E+03  0.27539978906E+03 0.  0.
         25    2    3    3    0    0  0.85931042519E+01 -0.19648887722E+02 -0.45444027074E+03  0.47170949863E+03  0.12463535292E+03 0.  0.
         25    2    3    3    0    0 -0.85931042519E+01  0.19648887722E+02 -0.18471917213E+03  0.22425733767E+03  0.12534057889E+03 0.  0.
          5    1    4    4  502    0 -0.27933941932E+02 -0.58584971394E+02 -0.16536620614E+03  0.17770924601E+03  0.47000000000E+01 0. -1.
         -5    1    4    4    0  502  0.36527046184E+02  0.38936083672E+02 -0.28907406460E+03  0.29400025261E+03  0.47000000000E+01 0. -1.
          5    1    5    5  503    0 -0.61618651049E+02 -0.76532710461E+01 -0.62735777129E+02  0.88392864230E+02  0.47000000000E+01 0.  1.
         -5    1    5    5    0  503  0.53025546797E+02  0.27302158768E+02 -0.12198339500E+03  0.13586447344E+03  0.47000000000E+01 0.  1.
<mgrwt>
<rscale>  0 0.27539979E+03</rscale>
<asrwt>0</asrwt>
<pdfrwt beam="1">  1        2 0.10270202E+00 0.27539979E+03</pdfrwt>
<pdfrwt beam="2">  1       -2 0.43697996E-02 0.27539979E+03</pdfrwt>
<totfact> 0.10637201E+04</totfact>
</mgrwt>
</event>
<event>
 9    1  0.7816570E-001  0.2779705E+03  0.7818608E-02  0.1096803E+00
          2   -1    0    0  501    0  0.00000000000E+00  0.00000000000E+00  0.68462523630E+03  0.68462523630E+03  0.00000000000E+00 0.  1.
         -2   -1    0    0    0  501 -0.00000000000E+00 -0.00000000000E+00 -0.28215289559E+02  0.28215289559E+02  0.00000000000E+00 0.  1.
         35    2    1    2    0    0  0.00000000000E+00  0.00000000000E+00  0.65640994674E+03  0.71284052586E+03  0.27797049686E+03 0.  0.
         25    2    3    3    0    0 -0.42752352914E+02 -0.18545075036E+02  0.24507075356E+03  0.28068182233E+03  0.12865040865E+03 0.  0.
         25    2    3    3    0    0  0.42752352914E+02  0.18545075036E+02  0.41133919318E+03  0.43215870353E+03  0.12405454327E+03 0.  0.
          5    1    4    4  502    0 -0.56416098610E+01  0.52153251194E+02  0.13254277883E+03  0.14262351696E+03  0.47000000000E+01 0. -1.
         -5    1    4    4    0  502 -0.37110743053E+02 -0.70698326230E+02  0.11252797474E+03  0.13805830536E+03  0.47000000000E+01 0. -1.
          5    1    5    5  503    0  0.25606245194E+02 -0.28311325687E+02  0.35367428170E+03  0.35575946718E+03  0.47000000000E+01 0.  1.
         -5    1    5    5    0  503  0.17146107720E+02  0.46856400723E+02  0.57664911476E+02  0.76399236346E+02  0.47000000000E+01 0.  1.
<mgrwt>
<rscale>  0 0.27797050E+03</rscale>
<asrwt>0</asrwt>
<pdfrwt beam="1">  1        2 0.10532695E+00 0.27797050E+03</pdfrwt>
<pdfrwt beam="2">  1       -2 0.43408143E-02 0.27797050E+03</pdfrwt>
<totfact> 0.10427460E+04</totfact>
</mgrwt>
</event>
<event>
 9    1  0.7816570E-001  0.2748664E+03  0.7818608E-02  0.1098526E+00
         -2   -1    0    0    0  501 -0.00000000000E+00  0.00000000000E+00  0.13440390685E+02  0.13440390685E+02  0.00000000000E+00 0. -1.
          2   -1    0    0  501    0  0.00000000000E+00 -0.00000000000E+00 -0.14053075702E+04  0.14053075702E+04  0.00000000000E+00 0. -1.
         35    2    1    2    0    0 -0.71054273576E-14  0.00000000000E+00 -0.13918671795E+04  0.14187479609E+04  0.27486638773E+03 0.  0.
         25    2    3    3    0    0 -0.49177886065E+02 -0.18846474780E+02 -0.58046684865E+03  0.59610375978E+03  0.12499710381E+03 0.  0.
         25    2    3    3    0    0  0.49177886065E+02  0.18846474780E+02 -0.81140033085E+03  0.82264420108E+03  0.12489728012E+03 0.  0.
          5    1    4    4  502    0 -0.39177875973E+02 -0.43898465821E+02 -0.10996029418E+03  0.12480119215E+03  0.47000000000E+01 0.  1.
         -5    1    4    4    0  502 -0.10000010092E+02  0.25051991042E+02 -0.47050655447E+03  0.47130256763E+03  0.47000000000E+01 0.  1.
          5    1    5    5  503    0  0.38059449539E+02  0.49496356274E+02 -0.75296234659E+03  0.75556124594E+03  0.47000000000E+01 0. -1.
         -5    1    5    5    0  503  0.11118436527E+02 -0.30649881495E+02 -0.58437984262E+02  0.67082955146E+02  0.47000000000E+01 0. -1.
<mgrwt>
<rscale>  0 0.27486639E+03</rscale>
<asrwt>0</asrwt>
<pdfrwt beam="1">  1        2 0.21620109E+00 0.27486639E+03</pdfrwt>
<pdfrwt beam="2">  1       -2 0.20677532E-02 0.27486639E+03</pdfrwt>
<totfact> 0.11295316E+04</totfact>
</mgrwt>
</event>
<event>
 9    1  0.7816570E-001  0.2789505E+03  0.7818608E-02  0.1096264E+00
         -2   -1    0    0    0  501 -0.00000000000E+00  0.00000000000E+00  0.16392243150E+02  0.16392243150E+02  0.00000000000E+00 0.  1.
          2   -1    0    0  501    0  0.00000000000E+00 -0.00000000000E+00 -0.11867407482E+04  0.11867407482E+04  0.00000000000E+00 0.  1.
         35    2    1    2    0    0 -0.14210854715E-13  0.71054273576E-14 -0.11703485050E+04  0.12031329913E+04  0.27895048234E+03 0.  0.
         25    2    3    3    0    0  0.47094160786E+02  0.25448447447E+02 -0.70069045076E+03  0.71363132297E+03  0.12424602158E+03 0.  0.
         25    2    3    3    0    0 -0.47094160786E+02 -0.25448447447E+02 -0.46965805425E+03  0.48950166834E+03  0.12715231783E+03 0.  0.
          5    1    4    4  502    0 -0.53148675284E+01  0.65172750408E+02 -0.43336881777E+03  0.43829939246E+03  0.47000000000E+01 0. -1.
         -5    1    4    4    0  502  0.52409028315E+02 -0.39724302961E+02 -0.26732163299E+03  0.27533193051E+03  0.47000000000E+01 0. -1.
          5    1    5    5  503    0 -0.58614355004E+01 -0.67206027972E+02 -0.15100364188E+03  0.16545451485E+03  0.47000000000E+01 0.  1.
         -5    1    5    5    0  503 -0.41232725286E+02  0.41757580525E+02 -0.31865441236E+03  0.32404715349E+03  0.47000000000E+01 0.  1.
<mgrwt>
<rscale>  0 0.27895048E+03</rscale>
<asrwt>0</asrwt>
<pdfrwt beam="1">  1        2 0.18257554E+00 0.27895048E+03</pdfrwt>
<pdfrwt beam="2">  1       -2 0.25218830E-02 0.27895048E+03</pdfrwt>
<totfact> 0.11145231E+04</totfact>
</mgrwt>
</event>
<event>
 9    1  0.7816570E-001  0.2742194E+03  0.7818608E-02  0.1098889E+00
         -3   -1    0    0    0  501 -0.00000000000E+00  0.00000000000E+00  0.24628658380E+03  0.24628658380E+03  0.00000000000E+00 0.  1.
          3   -1    0    0  501    0  0.00000000000E+00 -0.00000000000E+00 -0.76330054873E+02  0.76330054873E+02  0.00000000000E+00 0.  1.
         35    2    1    2    0    0 -0.71054273576E-14  0.00000000000E+00  0.16995652893E+03  0.32261663867E+03  0.27421938995E+03 0.  0.
         25    2    3    3    0    0  0.88460050243E+01  0.33752713870E+02  0.13775052812E+03  0.18883691562E+03  0.12436508837E+03 0.  0.
         25    2    3    3    0    0 -0.88460050243E+01 -0.33752713870E+02  0.32206000806E+02  0.13377972305E+03  0.12506914213E+03 0.  0.
          5    1    4    4  502    0 -0.45973067855E+02  0.14946896989E+02  0.11606984880E+02  0.49937408779E+02  0.47000000000E+01 0. -1.
         -5    1    4    4    0  502  0.54819072879E+02  0.18805816881E+02  0.12614354324E+03  0.13889950684E+03  0.47000000000E+01 0. -1.
          5    1    5    5  503    0 -0.65774455540E+02 -0.27705183742E+02  0.10117998163E+02  0.72237940824E+02  0.47000000000E+01 0.  1.
         -5    1    5    5    0  503  0.56928450515E+02 -0.60475301284E+01  0.22088002643E+02  0.61541782226E+02  0.47000000000E+01 0.  1.
<mgrwt>
<rscale>  0 0.27421939E+03</rscale>
<asrwt>0</asrwt>
<pdfrwt beam="1">  1        3 0.11743085E-01 0.27421939E+03</pdfrwt>
<pdfrwt beam="2">  1       -3 0.37890243E-01 0.27421939E+03</pdfrwt>
<totfact> 0.98800427E+02</totfact>
</mgrwt>
</event>
<event>
 9    1  0.7816570E-001  0.2712952E+03  0.7818608E-02  0.1100541E+00
          2   -1    0    0  501    0  0.00000000000E+00  0.00000000000E+00  0.25915499766E+03  0.25915499766E+03  0.00000000000E+00 0. -1.
         -2   -1    0    0    0  501 -0.00000000000E+00 -0.00000000000E+00 -0.71001012959E+02  0.71001012959E+02  0.00000000000E+00 0. -1.
         35    2    1    2    0    0  0.00000000000E+00 -0.53290705182E-14  0.18815398470E+03  0.33015601061E+03  0.27129517022E+03 0.  0.
         25    2    3    3    0    0 -0.28274060077E+02 -0.65362190373E+01  0.39601955517E+02  0.13423335969E+03  0.12493252315E+03 0.  0.
         25    2    3    3    0    0  0.28274060077E+02  0.65362190373E+01  0.14855202918E+03  0.19592265093E+03  0.12440190971E+03 0.  0.
          5    1    4    4  502    0 -0.69497294665E+02 -0.59703863199E+01  0.56042216051E+02  0.89601001437E+02  0.47000000000E+01 0. -1.
         -5    1    4    4    0  502  0.41223234588E+02 -0.56583271742E+00 -0.16440260535E+02  0.44632358251E+02  0.47000000000E+01 0. -1.
          5    1    5    5  503    0  0.11151014123E+02 -0.50172316687E+02  0.21981892758E+02  0.56097237783E+02  0.47000000000E+01 0. -1.
         -5    1    5    5    0  503  0.17123045954E+02  0.56708535724E+02  0.12657013642E+03  0.13982541314E+03  0.47000000000E+01 0. -1.
<mgrwt>
<rscale>  0 0.27129517E+03</rscale>
<asrwt>0</asrwt>
<pdfrwt beam="1">  1        2 0.39869999E-01 0.27129517E+03</pdfrwt>
<pdfrwt beam="2">  1       -2 0.10923233E-01 0.27129517E+03</pdfrwt>
<totfact> 0.73206127E+03</totfact>
</mgrwt>
</event>
<event>
 9    1  0.7816570E-001  0.2748908E+03  0.7818608E-02  0.1098513E+00
         -1   -1    0    0    0  501 -0.00000000000E+00  0.00000000000E+00  0.13344507292E+04  0.13344507292E+04  0.00000000000E+00 0. -1.
          1   -1    0    0  501    0  0.00000000000E+00 -0.00000000000E+00 -0.14156565789E+02  0.14156565789E+02  0.00000000000E+00 0. -1.
         35    2    1    2    0    0 -0.14210854715E-13  0.00000000000E+00  0.13202941634E+04  0.13486072950E+04  0.27489081134E+03 0.  0.
         25    2    3    3    0    0 -0.42017560184E+02  0.15122063824E+02  0.73434004077E+03  0.74619841795E+03  0.12475027575E+03 0.  0.
         25    2    3    3    0    0  0.42017560184E+02 -0.15122063824E+02  0.58595412263E+03  0.60240887703E+03  0.13251441097E+03 0.  0.
          5    1    4    4  502    0  0.21453781417E+02 -0.32649079742E+02  0.11037405581E+03  0.11717828016E+03  0.47000000000E+01 0. -1.
         -5    1    4    4    0  502 -0.63471341601E+02  0.47771143566E+02  0.62396598496E+03  0.62902013780E+03  0.47000000000E+01 0. -1.
          5    1    5    5  503    0 -0.16900021906E+02 -0.61284770909E+02  0.23209546599E+03  0.24069031808E+03  0.47000000000E+01 0. -1.
         -5    1    5    5    0  503  0.58917582090E+02  0.46162707085E+02  0.35385865664E+03  0.36171855894E+03  0.47000000000E+01 0. -1.
<mgrwt>
<rscale>  0 0.27489081E+03</rscale>
<asrwt>0</asrwt>
<pdfrwt beam="1">  1        1 0.21779342E-02 0.27489081E+03</pdfrwt>
<pdfrwt beam="2">  1       -1 0.20530001E+00 0.27489081E+03</pdfrwt>
<totfact> 0.82525036E+02</totfact>
</mgrwt>
</event>
<event>
 9    1  0.7816570E-001  0.2730573E+03  0.7818608E-02  0.1099542E+00
          2   -1    0    0  501    0  0.00000000000E+00  0.00000000000E+00  0.79204364705E+02  0.79204364705E+02  0.00000000000E+00 0. -1.
         -2   -1    0    0    0  501 -0.00000000000E+00 -0.00000000000E+00 -0.23534148929E+03  0.23534148929E+03  0.00000000000E+00 0. -1.
         35    2    1    2    0    0  0.00000000000E+00 -0.35527136788E-14 -0.15613712458E+03  0.31454585399E+03  0.27305730642E+03 0.  0.
         25    2    3    3    0    0  0.41526562084E+02 -0.28025520056E+02 -0.10130019555E+03  0.16955844172E+03  0.12640589546E+03 0.  0.
         25    2    3    3    0    0 -0.41526562084E+02  0.28025520056E+02 -0.54836929033E+02  0.14498741227E+03  0.12451656837E+03 0.  0.
          5    1    4    4  502    0 -0.35079591927E+02  0.21058067005E+02 -0.14324716457E+02  0.43603984420E+02  0.47000000000E+01 0.  1.
         -5    1    4    4    0  502  0.76606154011E+02 -0.49083587061E+02 -0.86975479094E+02  0.12595445730E+03  0.47000000000E+01 0.  1.
          5    1    5    5  503    0  0.39006742238E+02  0.63316745366E+01 -0.46244456597E+02  0.61010292643E+02  0.47000000000E+01 0.  1.
         -5    1    5    5    0  503 -0.80533304321E+02  0.21693845519E+02 -0.85924724357E+01  0.83977119627E+02  0.47000000000E+01 0.  1.
<mgrwt>
<rscale>  0 0.27305731E+03</rscale>
<asrwt>0</asrwt>
<pdfrwt beam="1">  1        2 0.12185287E-01 0.27305731E+03</pdfrwt>
<pdfrwt beam="2">  1       -2 0.36206383E-01 0.27305731E+03</pdfrwt>
<totfact> 0.35943317E+03</totfact>
</mgrwt>
</event>
<event>
 9    1  0.7816570E-001  0.2765491E+03  0.7818608E-02  0.1097589E+00
          2   -1    0    0  501    0  0.00000000000E+00  0.00000000000E+00  0.13999621852E+03  0.13999621852E+03  0.00000000000E+00 0. -1.
         -2   -1    0    0    0  501 -0.00000000000E+00 -0.00000000000E+00 -0.13657402440E+03  0.13657402440E+03  0.00000000000E+00 0. -1.
         35    2    1    2    0    0 -0.35527136788E-14  0.17763568394E-14  0.34221941242E+01  0.27657024292E+03  0.27654906953E+03 0.  0.
         25    2    3    3    0    0  0.25038086438E+02  0.12087457815E+02 -0.39497041074E+02  0.14339089851E+03  0.13501081850E+03 0.  0.
         25    2    3    3    0    0 -0.25038086438E+02 -0.12087457815E+02  0.42919235198E+02  0.13317934441E+03  0.12297017776E+03 0.  0.
          5    1    4    4  502    0 -0.47387119476E+02  0.96700032967E+01 -0.50342263980E+02  0.69967718261E+02  0.47000000000E+01 0. -1.
         -5    1    4    4    0  502  0.72425205913E+02  0.24174545180E+01  0.10845222907E+02  0.73423180249E+02  0.47000000000E+01 0. -1.
          5    1    5    5  503    0 -0.45716612329E+02 -0.39377005560E+02  0.67583782825E+02  0.90720531913E+02  0.47000000000E+01 0. -1.
         -5    1    5    5    0  503  0.20678525892E+02  0.27289547745E+02 -0.24664547627E+02  0.42458812499E+02  0.47000000000E+01 0. -1.
<mgrwt>
<rscale>  0 0.27654907E+03</rscale>
<asrwt>0</asrwt>
<pdfrwt beam="1">  1        2 0.21537880E-01 0.27654907E+03</pdfrwt>
<pdfrwt beam="2">  1       -2 0.21011389E-01 0.27654907E+03</pdfrwt>
<totfact> 0.48882516E+03</totfact>
</mgrwt>
</event>
<event>
 9    1  0.7816570E-001  0.2730667E+03  0.7818608E-02  0.1099537E+00
         -1   -1    0    0    0  501 -0.00000000000E+00  0.00000000000E+00  0.17087892796E+02  0.17087892796E+02  0.00000000000E+00 0. -1.
          1   -1    0    0  501    0  0.00000000000E+00 -0.00000000000E+00 -0.10909102771E+04  0.10909102771E+04  0.00000000000E+00 0. -1.
         35    2    1    2    0    0  0.71054273576E-14  0.00000000000E+00 -0.10738223843E+04  0.11079981699E+04  0.27306671613E+03 0.  0.
         25    2    3    3    0    0  0.50062745643E+02  0.21319392677E+01 -0.63643189177E+03  0.65051284349E+03  0.12494231879E+03 0.  0.
         25    2    3    3    0    0 -0.50062745643E+02 -0.21319392677E+01 -0.43739049250E+03  0.45748532637E+03  0.12438471468E+03 0.  0.
          5    1    4    4  502    0 -0.27253495350E+02 -0.37337826271E+02 -0.26501072373E+03  0.26905322888E+03  0.47000000000E+01 0. -1.
         -5    1    4    4    0  502  0.77316240993E+02  0.39469765539E+02 -0.37142116804E+03  0.38145961461E+03  0.47000000000E+01 0. -1.
          5    1    5    5  503    0 -0.13029117432E+01  0.50502210673E+02 -0.27848792627E+03  0.28307205079E+03  0.47000000000E+01 0.  1.
         -5    1    5    5    0  503 -0.48759833899E+02 -0.52634149941E+02 -0.15890256623E+03  0.17441327558E+03  0.47000000000E+01 0.  1.
<mgrwt>
<rscale>  0 0.27306672E+03</rscale>
<asrwt>0</asrwt>
<pdfrwt beam="1">  1        1 0.16783243E+00 0.27306672E+03</pdfrwt>
<pdfrwt beam="2">  1       -1 0.26289054E-02 0.27306672E+03</pdfrwt>
<totfact> 0.62775981E+03</totfact>
</mgrwt>
</event>
<event>
 9    1  0.7816570E-001  0.2725480E+03  0.7818608E-02  0.1099830E+00
         -1   -1    0    0    0  501 -0.00000000000E+00  0.00000000000E+00  0.19697530439E+03  0.19697530439E+03  0.00000000000E+00 0. -1.
          1   -1    0    0  501    0  0.00000000000E+00 -0.00000000000E+00 -0.94278821315E+02  0.94278821315E+02  0.00000000000E+00 0. -1.
         35    2    1    2    0    0 -0.35527136788E-14  0.00000000000E+00  0.10269648307E+03  0.29125412570E+03  0.27254797395E+03 0.  0.
         25    2    3    3    0    0  0.60302324692E+01  0.33747267533E+02  0.74541606534E+01  0.13055776513E+03  0.12575581002E+03 0.  0.
         25    2    3    3    0    0 -0.60302324692E+01 -0.33747267533E+02  0.95242322421E+02  0.16069636058E+03  0.12480776640E+03 0.  0.
          5    1    4    4  502    0  0.60184085338E+02  0.16485903976E+02  0.29790997385E+02  0.69307306130E+02  0.47000000000E+01 0. -1.
         -5    1    4    4    0  502 -0.54153852869E+02  0.17261363558E+02 -0.22336836731E+02  0.61250458999E+02  0.47000000000E+01 0. -1.
          5    1    5    5  503    0  0.21140561612E+02  0.10460950412E+02 -0.21875809547E+02  0.32511472931E+02  0.47000000000E+01 0. -1.
         -5    1    5    5    0  503 -0.27170794081E+02 -0.44208217945E+02  0.11711813197E+03  0.12818488764E+03  0.47000000000E+01 0. -1.
<mgrwt>
<rscale>  0 0.27254797E+03</rscale>
<asrwt>0</asrwt>
<pdfrwt beam="1">  1        1 0.14504434E-01 0.27254797E+03</pdfrwt>
<pdfrwt beam="2">  1       -1 0.30303893E-01 0.27254797E+03</pdfrwt>
<totfact> 0.38894783E+03</totfact>
</mgrwt>
</event>
<event>
 9    1  0.7816570E-001  0.2769129E+03  0.7818608E-02  0.1097387E+00
          2   -1    0    0  501    0  0.00000000000E+00  0.00000000000E+00  0.15164726599E+02  0.15164726599E+02  0.00000000000E+00 0.  1.
         -2   -1    0    0    0  501 -0.00000000000E+00 -0.00000000000E+00 -0.12641299232E+04  0.12641299232E+04  0.00000000000E+00 0.  1.
         35    2    1    2    0    0 -0.14210854715E-13  0.00000000000E+00 -0.12489651966E+04  0.12792946498E+04  0.27691287200E+03 0.  0.
         25    2    3    3    0    0  0.56975728977E+02 -0.10122727618E+02 -0.64393535477E+03  0.65879344717E+03  0.12652020236E+03 0.  0.
         25    2    3    3    0    0 -0.56975728977E+02  0.10122727618E+02 -0.60502984180E+03  0.62050120260E+03  0.12494770765E+03 0.  0.
          5    1    4    4  502    0 -0.31404421570E+02  0.27341388915E+02 -0.15919965595E+03  0.16462202069E+03  0.47000000000E+01 0. -1.
         -5    1    4    4    0  502  0.88380150547E+02 -0.37464116533E+02 -0.48473569882E+03  0.49417142647E+03  0.47000000000E+01 0. -1.
          5    1    5    5  503    0 -0.69074276526E+02  0.36618089153E+02 -0.20607086127E+03  0.22045278405E+03  0.47000000000E+01 0.  1.
         -5    1    5    5    0  503  0.12098547549E+02 -0.26495361535E+02 -0.39895898053E+03  0.40004841854E+03  0.47000000000E+01 0.  1.
<mgrwt>
<rscale>  0 0.27691287E+03</rscale>
<asrwt>0</asrwt>
<pdfrwt beam="1">  1        2 0.23330340E-02 0.27691287E+03</pdfrwt>
<pdfrwt beam="2">  1       -2 0.19448160E+00 0.27691287E+03</pdfrwt>
<totfact> 0.69234063E+02</totfact>
</mgrwt>
</event>
<event>
 9    1  0.7816570E-001  0.2763099E+03  0.7818608E-02  0.1097722E+00
         -1   -1    0    0    0  501 -0.00000000000E+00  0.00000000000E+00  0.33359145915E+02  0.33359145915E+02  0.00000000000E+00 0.  1.
          1   -1    0    0  501    0  0.00000000000E+00 -0.00000000000E+00 -0.57216064393E+03  0.57216064393E+03  0.00000000000E+00 0.  1.
         35    2    1    2    0    0  0.00000000000E+00  0.71054273576E-14 -0.53880149801E+03  0.60551978985E+03  0.27630990144E+03 0.  0.
         25    2    3    3    0    0  0.18182913428E+02  0.30091473211E+02 -0.16339747311E+03  0.20818305922E+03  0.12411823728E+03 0.  0.
         25    2    3    3    0    0 -0.18182913428E+02 -0.30091473211E+02 -0.37540402490E+03  0.39733673062E+03  0.12534823689E+03 0.  0.
          5    1    4    4  502    0  0.38612815888E+02 -0.19134218107E+02 -0.14541415901E+03  0.15173804893E+03  0.47000000000E+01 0.  1.
         -5    1    4    4    0  502 -0.20429902460E+02  0.49225691318E+02 -0.17983314104E+02  0.56445010288E+02  0.47000000000E+01 0.  1.
          5    1    5    5  503    0 -0.43293712733E+02  0.11204248663E+02 -0.32212781118E+03  0.32525112987E+03  0.47000000000E+01 0.  1.
         -5    1    5    5    0  503  0.25110799305E+02 -0.41295721874E+02 -0.53276213722E+02  0.72085600750E+02  0.47000000000E+01 0.  1.
<mgrwt>
<rscale>  0 0.27630990E+03</rscale>
<asrwt>0</asrwt>
<pdfrwt beam="1">  1        1 0.88024706E-01 0.27630990E+03</pdfrwt>
<pdfrwt beam="2">  1       -1 0.51321768E-02 0.27630990E+03</pdfrwt>
<totfact> 0.63348020E+03</totfact>
</mgrwt>
</event>
<event>
 9    1  0.7816570E-001  0.2794099E+03  0.7818608E-02  0.1096012E+00
         -1   -1    0    0    0  501 -0.00000000000E+00  0.00000000000E+00  0.19029147750E+02  0.19029147750E+02  0.00000000000E+00 0.  1.
          1   -1    0    0  501    0  0.00000000000E+00 -0.00000000000E+00 -0.10256621721E+04  0.10256621721E+04  0.00000000000E+00 0.  1.
         35    2    1    2    0    0  0.71054273576E-14  0.00000000000E+00 -0.10066330243E+04  0.10446913198E+04  0.27940992834E+03 0.  0.
         25    2    3    3    0    0 -0.33675670649E+02  0.48722257241E+02 -0.43069200506E+03  0.45245022498E+03  0.12533033837E+03 0.  0.
         25    2    3    3    0    0  0.33675670649E+02 -0.48722257241E+02 -0.57594101926E+03  0.59224109484E+03  0.12463365359E+03 0.  0.
          5    1    4    4  502    0 -0.83512182845E+01 -0.41964865632E+02 -0.10777365197E+03  0.11605189724E+03  0.47000000000E+01 0. -1.
         -5    1    4    4    0  502 -0.25324452364E+02  0.90687122873E+02 -0.32291835309E+03  0.33639832774E+03  0.47000000000E+01 0. -1.
          5    1    5    5  503    0  0.12411141645E+02  0.26108187431E+02 -0.38351623710E+03  0.38463290032E+03  0.47000000000E+01 0. -1.
         -5    1    5    5    0  503  0.21264529004E+02 -0.74830444672E+02 -0.19242478216E+03  0.20760819453E+03  0.47000000000E+01 0. -1.
<mgrwt>
<rscale>  0 0.27940993E+03</rscale>
<asrwt>0</asrwt>
<pdfrwt beam="1">  1        1 0.15779424E+00 0.27940993E+03</pdfrwt>
<pdfrwt beam="2">  1       -1 0.29275601E-02 0.27940993E+03</pdfrwt>
<totfact> 0.59828273E+03</totfact>
</mgrwt>
</event>
<event>
 9    1  0.7816570E-001  0.2753675E+03  0.7818608E-02  0.1098246E+00
          2   -1    0    0  501    0  0.00000000000E+00  0.00000000000E+00  0.14165930334E+04  0.14165930334E+04  0.00000000000E+00 0.  1.
         -2   -1    0    0    0  501 -0.00000000000E+00 -0.00000000000E+00 -0.13381977762E+02  0.13381977762E+02  0.00000000000E+00 0.  1.
         35    2    1    2    0    0 -0.14210854715E-13  0.71054273576E-14  0.14032110557E+04  0.14299750112E+04  0.27536751058E+03 0.  0.
         25    2    3    3    0    0 -0.40767966903E+02  0.39264585051E+02  0.70976023143E+03  0.72298955538E+03  0.12550130004E+03 0.  0.
         25    2    3    3    0    0  0.40767966903E+02 -0.39264585051E+02  0.69345082423E+03  0.70698545579E+03  0.12550161083E+03 0.  0.
          5    1    4    4  502    0 -0.24420037673E+02 -0.94477315173E+01  0.25708968590E+02  0.36995120445E+02  0.47000000000E+01 0.  1.
         -5    1    4    4    0  502 -0.16347929230E+02  0.48712316569E+02  0.68405126284E+03  0.68599443494E+03  0.47000000000E+01 0.  1.
          5    1    5    5  503    0 -0.32541840415E+02 -0.50588314027E+02  0.38541818432E+03  0.39011205531E+03  0.47000000000E+01 0.  1.
         -5    1    5    5    0  503  0.73309807318E+02  0.11323728976E+02  0.30803263990E+03  0.31687340048E+03  0.47000000000E+01 0.  1.
<mgrwt>
<rscale>  0 0.27536751E+03</rscale>
<asrwt>0</asrwt>
<pdfrwt beam="1">  1        2 0.21793727E+00 0.27536751E+03</pdfrwt>
<pdfrwt beam="2">  1       -2 0.20587669E-02 0.27536751E+03</pdfrwt>
<totfact> 0.11209449E+04</totfact>
</mgrwt>
</event>
<event>
 9    1  0.7816570E-001  0.2754229E+03  0.7818608E-02  0.1098215E+00
          1   -1    0    0  501    0  0.00000000000E+00  0.00000000000E+00  0.41681901184E+03  0.41681901184E+03  0.00000000000E+00 0. -1.
         -1   -1    0    0    0  501 -0.00000000000E+00 -0.00000000000E+00 -0.45498044180E+02  0.45498044180E+02  0.00000000000E+00 0. -1.
         35    2    1    2    0    0  0.00000000000E+00  0.00000000000E+00  0.37132096766E+03  0.46231705602E+03  0.27542294614E+03 0.  0.
         25    2    3    3    0    0 -0.37202442342E+02 -0.17158751214E+02  0.25069436767E+03  0.28370401048E+03  0.12634023557E+03 0.  0.
         25    2    3    3    0    0  0.37202442342E+02  0.17158751214E+02  0.12062659999E+03  0.17861304553E+03  0.12519344612E+03 0.  0.
          5    1    4    4  502    0 -0.61157192383E+01  0.47332379009E+02  0.16557747736E+03  0.17238256041E+03  0.47000000000E+01 0.  1.
         -5    1    4    4    0  502 -0.31086723104E+02 -0.64491130223E+02  0.85116890304E+02  0.11132145007E+03  0.47000000000E+01 0.  1.
          5    1    5    5  503    0  0.14918127830E+02 -0.21840527841E+02 -0.18316945773E+02  0.32513992323E+02  0.47000000000E+01 0. -1.
         -5    1    5    5    0  503  0.22284314513E+02  0.38999279055E+02  0.13894354576E+03  0.14609905321E+03  0.47000000000E+01 0. -1.
<mgrwt>
<rscale>  0 0.27542295E+03</rscale>
<asrwt>0</asrwt>
<pdfrwt beam="1">  1        1 0.64125999E-01 0.27542295E+03</pdfrwt>
<pdfrwt beam="2">  1       -1 0.69996994E-02 0.27542295E+03</pdfrwt>
<totfact> 0.60349762E+03</totfact>
</mgrwt>
</event>
<event>
 9    1  0.7816570E-001  0.2579310E+03  0.7818608E-02  0.1108393E+00
         -1   -1    0    0    0  501 -0.00000000000E+00  0.00000000000E+00  0.10863760532E+02  0.10863760532E+02  0.00000000000E+00 0.  1.
          1   -1    0    0  501    0  0.00000000000E+00 -0.00000000000E+00 -0.15309706098E+04  0.15309706098E+04  0.00000000000E+00 0.  1.
         35    2    1    2    0    0  0.00000000000E+00 -0.35527136788E-14 -0.15201068493E+04  0.15418343703E+04  0.25793098369E+03 0.  0.
         25    2    3    3    0    0 -0.16124694379E+02 -0.25891746610E+02 -0.69589218374E+03  0.70755316401E+03  0.12423832015E+03 0.  0.
         25    2    3    3    0    0  0.16124694379E+02  0.25891746610E+02 -0.82421466552E+03  0.83428120632E+03  0.12555846465E+03 0.  0.
          5    1    4    4  502    0 -0.53297130866E+02  0.28037769499E+02 -0.39381353954E+03  0.39841924477E+03  0.47000000000E+01 0.  1.
         -5    1    4    4    0  502  0.37172436487E+02 -0.53929516108E+02 -0.30207864420E+03  0.30913391924E+03  0.47000000000E+01 0.  1.
          5    1    5    5  503    0 -0.46379997705E+02 -0.10339133577E+01 -0.53934541169E+03  0.54135730925E+03  0.47000000000E+01 0.  1.
         -5    1    5    5    0  503  0.62504692084E+02  0.26925659968E+02 -0.28486925383E+03  0.29292389707E+03  0.47000000000E+01 0.  1.
<mgrwt>
<rscale>  0 0.25793098E+03</rscale>
<asrwt>0</asrwt>
<pdfrwt beam="1">  1        1 0.23553409E+00 0.25793098E+03</pdfrwt>
<pdfrwt beam="2">  1       -1 0.16713467E-02 0.25793098E+03</pdfrwt>
<totfact> 0.60788216E+03</totfact>
</mgrwt>
</event>
<event>
 9    1  0.7816570E-001  0.2781034E+03  0.7818608E-02  0.1096729E+00
         -2   -1    0    0    0  501 -0.00000000000E+00  0.00000000000E+00  0.13596446881E+03  0.13596446881E+03  0.00000000000E+00 0.  1.
          2   -1    0    0  501    0  0.00000000000E+00 -0.00000000000E+00 -0.14220906993E+03  0.14220906993E+03  0.00000000000E+00 0.  1.
         35    2    1    2    0    0 -0.35527136788E-14 -0.14210854715E-13 -0.62446011207E+01  0.27817353874E+03  0.27810343869E+03 0.  0.
         25    2    3    3    0    0 -0.31241008250E+02 -0.52140839768E+02  0.14099232688E+02  0.14000608424E+03  0.12533254763E+03 0.  0.
         25    2    3    3    0    0  0.31241008250E+02  0.52140839768E+02 -0.20343833809E+02  0.13816745449E+03  0.12239977998E+03 0.  0.
          5    1    4    4  502    0  0.16367912759E+02 -0.78912282512E+01 -0.47041616900E+02  0.50647643301E+02  0.47000000000E+01 0. -1.
         -5    1    4    4    0  502 -0.47608921009E+02 -0.44249611517E+02  0.61140849588E+02  0.89358440941E+02  0.47000000000E+01 0. -1.
          5    1    5    5  503    0  0.61671104896E+02  0.72537758952E+02 -0.30101697330E+02  0.99966263484E+02  0.47000000000E+01 0.  1.
         -5    1    5    5    0  503 -0.30430096646E+02 -0.20396919184E+02  0.97578635207E+01  0.38201191010E+02  0.47000000000E+01 0.  1.
<mgrwt>
<rscale>  0 0.27810344E+03</rscale>
<asrwt>0</asrwt>
<pdfrwt beam="1">  1        2 0.21878318E-01 0.27810344E+03</pdfrwt>
<pdfrwt beam="2">  1       -2 0.20917611E-01 0.27810344E+03</pdfrwt>
<totfact> 0.48400837E+03</totfact>
</mgrwt>
</event>
<event>
 9    1  0.7816570E-001  0.2829708E+03  0.7818608E-02  0.1094077E+00
         -1   -1    0    0    0  501 -0.00000000000E+00  0.00000000000E+00  0.49417471958E+02  0.49417471958E+02  0.00000000000E+00 0.  1.
          1   -1    0    0  501    0  0.00000000000E+00 -0.00000000000E+00 -0.40508174664E+03  0.40508174664E+03  0.00000000000E+00 0.  1.
         35    2    1    2    0    0 -0.71054273576E-14  0.00000000000E+00 -0.35566427469E+03  0.45449921860E+03  0.28297078192E+03 0.  0.
         25    2    3    3    0    0 -0.62288587925E+02  0.18996069740E+02 -0.20210241592E+03  0.24624313912E+03  0.12469794784E+03 0.  0.
         25    2    3    3    0    0  0.62288587925E+02 -0.18996069740E+02 -0.15356185877E+03  0.20825607948E+03  0.12469415111E+03 0.  0.
          5    1    4    4  502    0 -0.99427769630E+02  0.20999753274E+02 -0.16245314921E+03  0.19167677663E+03  0.47000000000E+01 0.  1.
         -5    1    4    4    0  502  0.37139181705E+02 -0.20036835341E+01 -0.39649266709E+02  0.54566362495E+02  0.47000000000E+01 0.  1.
          5    1    5    5  503    0 -0.70895616245E+01 -0.42366344032E+02 -0.62135658628E+01  0.43656241150E+02  0.47000000000E+01 0. -1.
         -5    1    5    5    0  503  0.69378149550E+02  0.23370274292E+02 -0.14734829290E+03  0.16459983833E+03  0.47000000000E+01 0. -1.
<mgrwt>
<rscale>  0 0.28297078E+03</rscale>
<asrwt>0</asrwt>
<pdfrwt beam="1">  1        1 0.62320269E-01 0.28297078E+03</pdfrwt>
<pdfrwt beam="2">  1       -1 0.76026879E-02 0.28297078E+03</pdfrwt>
<totfact> 0.55258406E+03</totfact>
</mgrwt>
</event>
<event>
 9    1  0.7816570E-001  0.2732699E+03  0.7818608E-02  0.1099423E+00
          2   -1    0    0  501    0  0.00000000000E+00  0.00000000000E+00  0.36320310891E+04  0.36320310891E+04  0.00000000000E+00 0. -1.
         -2   -1    0    0    0  501 -0.00000000000E+00 -0.00000000000E+00 -0.51401305644E+01  0.51401305644E+01  0.00000000000E+00 0. -1.
         35    2    1    2    0    0  0.00000000000E+00  0.71054273576E-14  0.36268909586E+04  0.36371712197E+04  0.27326993257E+03 0.  0.
         25    2    3    3    0    0  0.49405954762E+02  0.22119396299E+02  0.17508765679E+04  0.17561661316E+04  0.12498203701E+03 0.  0.
         25    2    3    3    0    0 -0.49405954762E+02 -0.22119396299E+02  0.18760143907E+04  0.18810050881E+04  0.12577730926E+03 0.  0.
          5    1    4    4  502    0  0.38898405447E+02  0.69669280858E+02  0.78697255569E+03  0.79102135752E+03  0.47000000000E+01 0.  1.
         -5    1    4    4    0  502  0.10507549316E+02 -0.47549884560E+02  0.96390401222E+03  0.96514477406E+03  0.47000000000E+01 0.  1.
          5    1    5    5  503    0  0.11781832353E+02  0.39970547342E+02  0.93803747867E+03  0.93897436472E+03  0.47000000000E+01 0. -1.
         -5    1    5    5    0  503 -0.61187787116E+02 -0.62089943640E+02  0.93797691198E+03  0.94203072339E+03  0.47000000000E+01 0. -1.
<mgrwt>
<rscale>  0 0.27326993E+03</rscale>
<asrwt>0</asrwt>
<pdfrwt beam="1">  1        2 0.55877196E+00 0.27326993E+03</pdfrwt>
<pdfrwt beam="2">  1       -2 0.79079222E-03 0.27326993E+03</pdfrwt>
<totfact> 0.24770336E+03</totfact>
</mgrwt>
</event>
<event>
 9    1  0.7816570E-001  0.2783057E+03  0.7818608E-02  0.1096618E+00
          2   -1    0    0  501    0  0.00000000000E+00  0.00000000000E+00  0.22380375926E+03  0.22380375926E+03  0.00000000000E+00 0. -1.
         -2   -1    0    0    0  501 -0.00000000000E+00 -0.00000000000E+00 -0.86520073204E+02  0.86520073204E+02  0.00000000000E+00 0. -1.
         35    2    1    2    0    0 -0.17763568394E-14  0.00000000000E+00  0.13728368605E+03  0.31032383246E+03  0.27830571417E+03 0.  0.
         25    2    3    3    0    0 -0.10438855218E+02  0.59179605150E+02  0.46967952886E+02  0.14540563135E+03  0.12379666258E+03 0.  0.
         25    2    3    3    0    0  0.10438855218E+02 -0.59179605150E+02  0.90315733169E+02  0.16491820111E+03  0.12421709237E+03 0.  0.
          5    1    4    4  502    0 -0.17873126396E+02  0.10512706808E+02  0.82057019984E+02  0.84766798809E+02  0.47000000000E+01 0.  1.
         -5    1    4    4    0  502  0.74342711782E+01  0.48666898342E+02 -0.35089067099E+02  0.60638832542E+02  0.47000000000E+01 0.  1.
          5    1    5    5  503    0  0.19306316452E+02 -0.95013412064E+02  0.81327432698E+02  0.12663539646E+03  0.47000000000E+01 0.  1.
         -5    1    5    5    0  503 -0.88674612341E+01  0.35833806915E+02  0.89883004711E+01  0.38282804653E+02  0.47000000000E+01 0.  1.
<mgrwt>
<rscale>  0 0.27830571E+03</rscale>
<asrwt>0</asrwt>
<pdfrwt beam="1">  1        2 0.34431347E-01 0.27830571E+03</pdfrwt>
<pdfrwt beam="2">  1       -2 0.13310781E-01 0.27830571E+03</pdfrwt>
<totfact> 0.62402875E+03</totfact>
</mgrwt>
</event>
<event>
 9    1  0.7816570E-001  0.2756091E+03  0.7818608E-02  0.1098112E+00
         -2   -1    0    0    0  501 -0.00000000000E+00  0.00000000000E+00  0.36032194985E+02  0.36032194985E+02  0.00000000000E+00 0. -1.
          2   -1    0    0  501    0  0.00000000000E+00 -0.00000000000E+00 -0.52703144379E+03  0.52703144379E+03  0.00000000000E+00 0. -1.
         35    2    1    2    0    0  0.00000000000E+00  0.00000000000E+00 -0.49099924880E+03  0.56306363877E+03  0.27560914169E+03 0.  0.
         25    2    3    3    0    0  0.32660266828E+02  0.22761478878E+02 -0.15247782025E+03  0.20120278787E+03  0.12509315820E+03 0.  0.
         25    2    3    3    0    0 -0.32660266828E+02 -0.22761478878E+02 -0.33852142856E+03  0.36186085091E+03  0.12149790072E+03 0.  0.
          5    1    4    4  502    0 -0.71006477210E+01 -0.38349284114E+02 -0.10974638597E+03  0.11656520074E+03  0.47000000000E+01 0.  1.
         -5    1    4    4    0  502  0.39760914549E+02  0.61110762992E+02 -0.42731434280E+02  0.84637587128E+02  0.47000000000E+01 0.  1.
          5    1    5    5  503    0 -0.46212682440E+02 -0.65305473756E+02 -0.25119099764E+03  0.26366536408E+03  0.47000000000E+01 0. -1.
         -5    1    5    5    0  503  0.13552415613E+02  0.42543994878E+02 -0.87330430917E+02  0.98195486827E+02  0.47000000000E+01 0. -1.
<mgrwt>
<rscale>  0 0.27560914E+03</rscale>
<asrwt>0</asrwt>
<pdfrwt beam="1">  1        2 0.81081756E-01 0.27560914E+03</pdfrwt>
<pdfrwt beam="2">  1       -2 0.55434150E-02 0.27560914E+03</pdfrwt>
<totfact> 0.97497278E+03</totfact>
</mgrwt>
</event>
<event>
 9    1  0.7816570E-001  0.2750692E+03  0.7818608E-02  0.1098413E+00
         -1   -1    0    0    0  501 -0.00000000000E+00  0.00000000000E+00  0.71476248536E+02  0.71476248536E+02  0.00000000000E+00 0.  1.
          1   -1    0    0  501    0  0.00000000000E+00 -0.00000000000E+00 -0.26464407302E+03  0.26464407302E+03  0.00000000000E+00 0.  1.
         35    2    1    2    0    0  0.71054273576E-14  0.00000000000E+00 -0.19316782448E+03  0.33612032156E+03  0.27506919520E+03 0.  0.
         25    2    3    3    0    0 -0.41555590377E+02  0.11906896633E+02 -0.52604036138E+02  0.14258054523E+03  0.12527324527E+03 0.  0.
         25    2    3    3    0    0  0.41555590377E+02 -0.11906896633E+02 -0.14056378835E+03  0.19353977632E+03  0.12582060700E+03 0.  0.
          5    1    4    4  502    0 -0.27905941661E+02 -0.30507931236E+02  0.28143468956E+02  0.50235647634E+02  0.47000000000E+01 0. -1.
         -5    1    4    4    0  502 -0.13649648716E+02  0.42414827870E+02 -0.80747505094E+02  0.92344897597E+02  0.47000000000E+01 0. -1.
          5    1    5    5  503    0  0.18305624707E+02  0.42026800444E+02 -0.57815748383E+01  0.46442054854E+02  0.47000000000E+01 0. -1.
         -5    1    5    5    0  503  0.23249965670E+02 -0.53933697077E+02 -0.13478221351E+03  0.14709772147E+03  0.47000000000E+01 0. -1.
<mgrwt>
<rscale>  0 0.27506920E+03</rscale>
<asrwt>0</asrwt>
<pdfrwt beam="1">  1        1 0.40714474E-01 0.27506920E+03</pdfrwt>
<pdfrwt beam="2">  1       -1 0.10996346E-01 0.27506920E+03</pdfrwt>
<totfact> 0.53623257E+03</totfact>
</mgrwt>
</event>
<event>
 9    1  0.7816570E-001  0.2756704E+03  0.7818608E-02  0.1098077E+00
          2   -1    0    0  501    0  0.00000000000E+00  0.00000000000E+00  0.74943340270E+03  0.74943340270E+03  0.00000000000E+00 0. -1.
         -2   -1    0    0    0  501 -0.00000000000E+00 -0.00000000000E+00 -0.25350541821E+02  0.25350541821E+02  0.00000000000E+00 0. -1.
         35    2    1    2    0    0  0.00000000000E+00  0.00000000000E+00  0.72408286088E+03  0.77478394452E+03  0.27567040332E+03 0.  0.
         25    2    3    3    0    0  0.38589534291E+02 -0.44426107416E+02  0.27764655945E+03  0.30731597751E+03  0.11786715779E+03 0.  0.
         25    2    3    3    0    0 -0.38589534291E+02  0.44426107416E+02  0.44643630143E+03  0.46746796701E+03  0.12553126211E+03 0.  0.
          5    1    4    4  502    0  0.28626562709E+02  0.36207168652E+02  0.67003920794E+02  0.81498800949E+02  0.47000000000E+01 0. -1.
         -5    1    4    4    0  502  0.99629715825E+01 -0.80633276068E+02  0.21064263865E+03  0.22581717656E+03  0.47000000000E+01 0. -1.
          5    1    5    5  503    0  0.42124662329E+02  0.33393712079E+02  0.13170130465E+03  0.14232691534E+03  0.47000000000E+01 0. -1.
         -5    1    5    5    0  503 -0.80714196620E+02  0.11032395337E+02  0.31473499678E+03  0.32514105167E+03  0.47000000000E+01 0. -1.
<mgrwt>
<rscale>  0 0.27567040E+03</rscale>
<asrwt>0</asrwt>
<pdfrwt beam="1">  1        2 0.11529743E+00 0.27567040E+03</pdfrwt>
<pdfrwt beam="2">  1       -2 0.39000839E-02 0.27567040E+03</pdfrwt>
<totfact> 0.10965750E+04</totfact>
</mgrwt>
</event>
<event>
 9    1  0.7816570E-001  0.2748589E+03  0.7818608E-02  0.1098530E+00
         -2   -1    0    0    0  501 -0.00000000000E+00  0.00000000000E+00  0.64094088526E+01  0.64094088526E+01  0.00000000000E+00 0.  1.
          2   -1    0    0  501    0  0.00000000000E+00 -0.00000000000E+00 -0.29467391359E+04  0.29467391359E+04  0.00000000000E+00 0.  1.
         35    2    1    2    0    0  0.00000000000E+00  0.71054273576E-14 -0.29403297270E+04  0.29531485447E+04  0.27485891584E+03 0.  0.
         25    2    3    3    0    0 -0.29453202500E+02  0.36762024656E+02 -0.20142979231E+04  0.20186687532E+04  0.12413087578E+03 0.  0.
         25    2    3    3    0    0  0.29453202500E+02 -0.36762024656E+02 -0.92603180386E+03  0.93447979152E+03  0.11618365378E+03 0.  0.
          5    1    4    4  502    0  0.23550119099E+01 -0.40776661482E+02 -0.38025641111E+03  0.38247262699E+03  0.47000000000E+01 0. -1.
         -5    1    4    4    0  502 -0.31808214410E+02  0.77538686138E+02 -0.16340415120E+04  0.16361961262E+04  0.47000000000E+01 0. -1.
          5    1    5    5  503    0 -0.65524925853E+01 -0.39388402472E+02 -0.84127193660E+03  0.84223211926E+03  0.47000000000E+01 0. -1.
         -5    1    5    5    0  503  0.36005695085E+02  0.26263778162E+01 -0.84759867261E+02  0.92247672259E+02  0.47000000000E+01 0. -1.
<mgrwt>
<rscale>  0 0.27485892E+03</rscale>
<asrwt>0</asrwt>
<pdfrwt beam="1">  1        2 0.45334433E+00 0.27485892E+03</pdfrwt>
<pdfrwt beam="2">  1       -2 0.98606323E-03 0.27485892E+03</pdfrwt>
<totfact> 0.48742702E+03</totfact>
</mgrwt>
</event>
<event>
 9    1  0.7816570E-001  0.2727602E+03  0.7818608E-02  0.1099710E+00
          1   -1    0    0  501    0  0.00000000000E+00  0.00000000000E+00  0.65390728936E+02  0.65390728936E+02  0.00000000000E+00 0.  1.
         -1   -1    0    0    0  501 -0.00000000000E+00 -0.00000000000E+00 -0.28443673499E+03  0.28443673499E+03  0.00000000000E+00 0.  1.
         35    2    1    2    0    0  0.00000000000E+00  0.71054273576E-14 -0.21904600605E+03  0.34982746393E+03  0.27276015425E+03 0.  0.
         25    2    3    3    0    0 -0.25926570100E+01  0.39183441353E+02 -0.57289799413E+02  0.14194372538E+03  0.12378948304E+03 0.  0.
         25    2    3    3    0    0  0.25926570100E+01 -0.39183441353E+02 -0.16175620664E+03  0.20788373855E+03  0.12453318602E+03 0.  0.
          5    1    4    4  502    0 -0.55276765931E+02  0.76819498154E+01  0.25856429446E+01  0.56065218756E+02  0.47000000000E+01 0. -1.
         -5    1    4    4    0  502  0.52684108921E+02  0.31501491538E+02 -0.59875442358E+02  0.85878506621E+02  0.47000000000E+01 0. -1.
          5    1    5    5  503    0 -0.29280364134E+02  0.23421155635E+02 -0.77910018548E+01  0.38583415673E+02  0.47000000000E+01 0. -1.
         -5    1    5    5    0  503  0.31873021144E+02 -0.62604596989E+02 -0.15396520479E+03  0.16930032288E+03  0.47000000000E+01 0. -1.
<mgrwt>
<rscale>  0 0.27276015E+03</rscale>
<asrwt>0</asrwt>
<pdfrwt beam="1">  1        1 0.10060112E-01 0.27276015E+03</pdfrwt>
<pdfrwt beam="2">  1       -1 0.43759497E-01 0.27276015E+03</pdfrwt>
<totfact> 0.33258498E+03</totfact>
</mgrwt>
</event>
<event>
 9    1  0.7816570E-001  0.2697156E+03  0.7818608E-02  0.1101442E+00
          2   -1    0    0  501    0  0.00000000000E+00  0.00000000000E+00  0.14329647904E+03  0.14329647904E+03  0.00000000000E+00 0. -1.
         -2   -1    0    0    0  501 -0.00000000000E+00 -0.00000000000E+00 -0.12691608560E+03  0.12691608560E+03  0.00000000000E+00 0. -1.
         35    2    1    2    0    0 -0.14210854715E-13  0.00000000000E+00  0.16380393445E+02  0.27021256464E+03  0.26971561468E+03 0.  0.
         25    2    3    3    0    0  0.42609307086E+02  0.26329867505E+02  0.18271740297E+02  0.13526804889E+03  0.12431722964E+03 0.  0.
         25    2    3    3    0    0 -0.42609307086E+02 -0.26329867505E+02 -0.18913468517E+01  0.13494451575E+03  0.12529018383E+03 0.  0.
          5    1    4    4  502    0  0.59956506373E+02  0.59945771187E+02  0.37204080676E+02  0.92706589618E+02  0.47000000000E+01 0. -1.
         -5    1    4    4    0  502 -0.17347199287E+02 -0.33615903682E+02 -0.18932340380E+02  0.42561459277E+02  0.47000000000E+01 0. -1.
          5    1    5    5  503    0  0.42306945385E+02 -0.13865543521E+01 -0.15407781123E+02  0.45291167792E+02  0.47000000000E+01 0.  1.
         -5    1    5    5    0  503 -0.84916252471E+02 -0.24943313152E+02  0.13516434272E+02  0.89653347958E+02  0.47000000000E+01 0.  1.
<mgrwt>
<rscale>  0 0.26971561E+03</rscale>
<asrwt>0</asrwt>
<pdfrwt beam="1">  1        2 0.22045612E-01 0.26971561E+03</pdfrwt>
<pdfrwt beam="2">  1       -2 0.19525552E-01 0.26971561E+03</pdfrwt>
<totfact> 0.53934433E+03</totfact>
</mgrwt>
</event>
<event>
 9    1  0.7816570E-001  0.2765529E+03  0.7818608E-02  0.1097587E+00
         -2   -1    0    0    0  501 -0.00000000000E+00  0.00000000000E+00  0.24495265504E+03  0.24495265504E+03  0.00000000000E+00 0. -1.
          2   -1    0    0  501    0  0.00000000000E+00 -0.00000000000E+00 -0.78057448673E+02  0.78057448673E+02  0.00000000000E+00 0. -1.
         35    2    1    2    0    0 -0.17763568394E-14 -0.14210854715E-13  0.16689520637E+03  0.32301010372E+03  0.27655291934E+03 0.  0.
         25    2    3    3    0    0 -0.13645390995E+02  0.56898085745E+02  0.70949208237E+02  0.15544737394E+03  0.12532560416E+03 0.  0.
         25    2    3    3    0    0  0.13645390995E+02 -0.56898085745E+02  0.95945998132E+02  0.16756272978E+03  0.12429016452E+03 0.  0.
          5    1    4    4  502    0  0.46833931014E+02  0.47514395589E+00  0.10982875158E+01  0.47084382670E+02  0.47000000000E+01 0.  1.
         -5    1    4    4    0  502 -0.60479322009E+02  0.56422941789E+02  0.69850920721E+02  0.10836299127E+03  0.47000000000E+01 0.  1.
          5    1    5    5  503    0 -0.95287615637E+01 -0.33482504095E+02  0.12094365064E+03  0.12594178023E+03  0.47000000000E+01 0. -1.
         -5    1    5    5    0  503  0.23174152559E+02 -0.23415581650E+02 -0.24997652504E+02  0.41620949551E+02  0.47000000000E+01 0. -1.
<mgrwt>
<rscale>  0 0.27655292E+03</rscale>
<asrwt>0</asrwt>
<pdfrwt beam="1">  1        2 0.12008838E-01 0.27655292E+03</pdfrwt>
<pdfrwt beam="2">  1       -2 0.37685024E-01 0.27655292E+03</pdfrwt>
<totfact> 0.33945033E+03</totfact>
</mgrwt>
</event>
<event>
 9    1  0.7816570E-001  0.2759237E+03  0.7818608E-02  0.1097936E+00
          1   -1    0    0  501    0  0.00000000000E+00  0.00000000000E+00  0.13672540354E+02  0.13672540354E+02  0.00000000000E+00 0.  1.
         -1   -1    0    0    0  501 -0.00000000000E+00 -0.00000000000E+00 -0.13920951106E+04  0.13920951106E+04  0.00000000000E+00 0.  1.
         35    2    1    2    0    0 -0.71054273576E-14  0.00000000000E+00 -0.13784225703E+04  0.14057676510E+04  0.27592373277E+03 0.  0.
         25    2    3    3    0    0 -0.32073670758E+02  0.50294285631E+02 -0.74296551073E+03  0.75558978932E+03  0.12393524144E+03 0.  0.
         25    2    3    3    0    0  0.32073670758E+02 -0.50294285631E+02 -0.63545705954E+03  0.65017786165E+03  0.12396508277E+03 0.  0.
          5    1    4    4  502    0 -0.55838308437E+02  0.21869064124E+02 -0.15235484335E+03  0.16379945344E+03  0.47000000000E+01 0. -1.
         -5    1    4    4    0  502  0.23764637679E+02  0.28425221506E+02 -0.59061066738E+03  0.59179033588E+03  0.47000000000E+01 0. -1.
          5    1    5    5  503    0  0.73779009211E+02 -0.50512640026E+02 -0.51230610538E+03  0.52007163411E+03  0.47000000000E+01 0. -1.
         -5    1    5    5    0  503 -0.41705338453E+02  0.21835439530E+00 -0.12315095416E+03  0.13010622754E+03  0.47000000000E+01 0. -1.
<mgrwt>
<rscale>  0 0.27592373E+03</rscale>
<asrwt>0</asrwt>
<pdfrwt beam="1">  1        1 0.21034673E-02 0.27592373E+03</pdfrwt>
<pdfrwt beam="2">  1       -1 0.21416853E+00 0.27592373E+03</pdfrwt>
<totfact> 0.75796610E+02</totfact>
</mgrwt>
</event>
<event>
 9    1  0.7816570E-001  0.2872826E+03  0.7818608E-02  0.1091777E+00
          2   -1    0    0  501    0  0.00000000000E+00  0.00000000000E+00  0.13373532919E+03  0.13373532919E+03  0.00000000000E+00 0.  1.
         -2   -1    0    0    0  501 -0.00000000000E+00 -0.00000000000E+00 -0.15428102122E+03  0.15428102122E+03  0.00000000000E+00 0.  1.
         35    2    1    2    0    0 -0.28421709430E-13  0.00000000000E+00 -0.20545692037E+02  0.28801635041E+03  0.28728260066E+03 0.  0.
         25    2    3    3    0    0 -0.56157216031E+02  0.29289011077E+02 -0.42258272330E+02  0.14647809529E+03  0.12513429481E+03 0.  0.
         25    2    3    3    0    0  0.56157216031E+02 -0.29289011077E+02  0.21712580293E+02  0.14153825512E+03  0.12470029044E+03 0.  0.
          5    1    4    4  502    0 -0.89884704779E+02  0.35124006968E+02 -0.66243441824E+01  0.96844865401E+02  0.47000000000E+01 0.  1.
         -5    1    4    4    0  502  0.33727488748E+02 -0.58349958902E+01 -0.35633928148E+02  0.49633229892E+02  0.47000000000E+01 0.  1.
          5    1    5    5  503    0  0.71159121628E+02  0.21497522505E+02 -0.16219312322E+02  0.76229391687E+02  0.47000000000E+01 0. -1.
         -5    1    5    5    0  503 -0.15001905598E+02 -0.50786533583E+02  0.37931892616E+02  0.65308863428E+02  0.47000000000E+01 0. -1.
<mgrwt>
<rscale>  0 0.28728260E+03</rscale>
<asrwt>0</asrwt>
<pdfrwt beam="1">  1        2 0.20574666E-01 0.28728260E+03</pdfrwt>
<pdfrwt beam="2">  1       -2 0.23735542E-01 0.28728260E+03</pdfrwt>
<totfact> 0.41718700E+03</totfact>
</mgrwt>
</event>
<event>
 9    1  0.7816570E-001  0.2812419E+03  0.7818608E-02  0.1095013E+00
         -1   -1    0    0    0  501 -0.00000000000E+00  0.00000000000E+00  0.10941768030E+03  0.10941768030E+03  0.00000000000E+00 0.  1.
          1   -1    0    0  501    0  0.00000000000E+00 -0.00000000000E+00 -0.18072269845E+03  0.18072269845E+03  0.00000000000E+00 0.  1.
         35    2    1    2    0    0 -0.71054273576E-14 -0.71054273576E-14 -0.71305018149E+02  0.29014037875E+03  0.28124194880E+03 0.  0.
         25    2    3    3    0    0  0.31894532034E+02  0.59312209004E+02 -0.25041041512E+02  0.14441947682E+03  0.12527861834E+03 0.  0.
         25    2    3    3    0    0 -0.31894532034E+02 -0.59312209004E+02 -0.46263976637E+02  0.14572090193E+03  0.12066079071E+03 0.  0.
          5    1    4    4  502    0  0.56590365619E+02  0.78204155252E+02  0.10206172586E+02  0.97183410819E+02  0.47000000000E+01 0.  1.
         -5    1    4    4    0  502 -0.24695833585E+02 -0.18891946248E+02 -0.35247214098E+02  0.47236066000E+02  0.47000000000E+01 0.  1.
          5    1    5    5  503    0  0.32020964160E+02 -0.23447868295E+02 -0.58922200100E+02  0.71197333783E+02  0.47000000000E+01 0.  1.
         -5    1    5    5    0  503 -0.63915496193E+02 -0.35864340709E+02  0.12658223462E+02  0.74523568147E+02  0.47000000000E+01 0.  1.
<mgrwt>
<rscale>  0 0.28124195E+03</rscale>
<asrwt>0</asrwt>
<pdfrwt beam="1">  1        1 0.27803492E-01 0.28124195E+03</pdfrwt>
<pdfrwt beam="2">  1       -1 0.16833489E-01 0.28124195E+03</pdfrwt>
<totfact> 0.44325691E+03</totfact>
</mgrwt>
</event>
<event>
 9    1  0.7816570E-001  0.2677734E+03  0.7818608E-02  0.1102561E+00
          3   -1    0    0  501    0  0.00000000000E+00  0.00000000000E+00  0.55673268283E+02  0.55673268283E+02  0.00000000000E+00 0.  1.
         -3   -1    0    0    0  501 -0.00000000000E+00 -0.00000000000E+00 -0.32197937740E+03  0.32197937740E+03  0.00000000000E+00 0.  1.
         35    2    1    2    0    0  0.00000000000E+00 -0.14210854715E-13 -0.26630610912E+03  0.37765264569E+03  0.26777336880E+03 0.  0.
         25    2    3    3    0    0 -0.28825283509E+02  0.43172408709E+02 -0.10815390987E+03  0.16913280498E+03  0.11922199318E+03 0.  0.
         25    2    3    3    0    0  0.28825283509E+02 -0.43172408709E+02 -0.15815219925E+03  0.20851984070E+03  0.12559320044E+03 0.  0.
          5    1    4    4  502    0  0.32423893743E+02 -0.10926419596E+02 -0.71584566281E+02  0.79480410544E+02  0.47000000000E+01 0. -1.
         -5    1    4    4    0  502 -0.61249177252E+02  0.54098828305E+02 -0.36569343593E+02  0.89652394441E+02  0.47000000000E+01 0. -1.
          5    1    5    5  503    0  0.41660373006E+02 -0.10754955620E+02 -0.16677285436E+03  0.17229779656E+03  0.47000000000E+01 0. -1.
         -5    1    5    5    0  503 -0.12835089497E+02 -0.32417453089E+02  0.86206551104E+01  0.36222044140E+02  0.47000000000E+01 0. -1.
<mgrwt>
<rscale>  0 0.26777337E+03</rscale>
<asrwt>0</asrwt>
<pdfrwt beam="1">  1        3 0.85651180E-02 0.26777337E+03</pdfrwt>
<pdfrwt beam="2">  1       -3 0.49535290E-01 0.26777337E+03</pdfrwt>
<totfact> 0.98420764E+02</totfact>
</mgrwt>
</event>
<event>
 9    1  0.7816570E-001  0.2971586E+03  0.7818608E-02  0.1086670E+00
         -1   -1    0    0    0  501 -0.00000000000E+00  0.00000000000E+00  0.36588796796E+03  0.36588796796E+03  0.00000000000E+00 0.  1.
          1   -1    0    0  501    0  0.00000000000E+00 -0.00000000000E+00 -0.60334882926E+02  0.60334882926E+02  0.00000000000E+00 0.  1.
         35    2    1    2    0    0  0.00000000000E+00  0.14210854715E-13  0.30555308504E+03  0.42622285089E+03  0.29715859544E+03 0.  0.
         25    2    3    3    0    0  0.29197700979E+02 -0.55962066551E+02  0.22237666354E+03  0.26301468204E+03  0.12546347614E+03 0.  0.
         25    2    3    3    0    0 -0.29197700979E+02  0.55962066551E+02  0.83176421494E+02  0.16320816885E+03  0.12543656027E+03 0.  0.
          5    1    4    4  502    0 -0.49156303781E+02 -0.28034318110E+02  0.99327440032E+02  0.11441282942E+03  0.47000000000E+01 0. -1.
         -5    1    4    4    0  502  0.78354004759E+02 -0.27927748441E+02  0.12304922351E+03  0.14860185262E+03  0.47000000000E+01 0. -1.
          5    1    5    5  503    0  0.51478284238E+00  0.76802967369E+01  0.10267696074E+03  0.10307230582E+03  0.47000000000E+01 0. -1.
         -5    1    5    5    0  503 -0.29712483821E+02  0.48281769814E+02 -0.19500539251E+02  0.60135863029E+02  0.47000000000E+01 0. -1.
<mgrwt>
<rscale>  0 0.29715860E+03</rscale>
<asrwt>0</asrwt>
<pdfrwt beam="1">  1        1 0.92822899E-02 0.29715860E+03</pdfrwt>
<pdfrwt beam="2">  1       -1 0.56290456E-01 0.29715860E+03</pdfrwt>
<totfact> 0.23316298E+03</totfact>
</mgrwt>
</event>
<event>
 9    1  0.7816570E-001  0.2763775E+03  0.7818608E-02  0.1097684E+00
         -1   -1    0    0    0  501 -0.00000000000E+00  0.00000000000E+00  0.10020161940E+03  0.10020161940E+03  0.00000000000E+00 0. -1.
          1   -1    0    0  501    0  0.00000000000E+00 -0.00000000000E+00 -0.19057709694E+03  0.19057709694E+03  0.00000000000E+00 0. -1.
         35    2    1    2    0    0 -0.71054273576E-14  0.00000000000E+00 -0.90375477540E+02  0.29077871635E+03  0.27637752249E+03 0.  0.
         25    2    3    3    0    0  0.48717815933E+02  0.19838907307E+02 -0.19048350942E+02  0.13665636001E+03  0.12468004341E+03 0.  0.
         25    2    3    3    0    0 -0.48717815933E+02 -0.19838907307E+02 -0.71327126599E+02  0.15412235634E+03  0.12609176778E+03 0.  0.
          5    1    4    4  502    0  0.83285764115E+02 -0.16327758514E+02 -0.98283072901E+01  0.85567516187E+02  0.47000000000E+01 0. -1.
         -5    1    4    4    0  502 -0.34567948182E+02  0.36166665821E+02 -0.92200436515E+01  0.51088843822E+02  0.47000000000E+01 0. -1.
          5    1    5    5  503    0 -0.24115077280E+02 -0.70602846660E+02 -0.19226531343E+02  0.77188395606E+02  0.47000000000E+01 0. -1.
         -5    1    5    5    0  503 -0.24602738653E+02  0.50763939353E+02 -0.52100595256E+02  0.76933960732E+02  0.47000000000E+01 0. -1.
<mgrwt>
<rscale>  0 0.27637752E+03</rscale>
<asrwt>0</asrwt>
<pdfrwt beam="1">  1        1 0.29319553E-01 0.27637752E+03</pdfrwt>
<pdfrwt beam="2">  1       -1 0.15415634E-01 0.27637752E+03</pdfrwt>
<totfact> 0.47670156E+03</totfact>
</mgrwt>
</event>
<event>
 9    1  0.7816570E-001  0.2709343E+03  0.7818608E-02  0.1100746E+00
         -1   -1    0    0    0  501 -0.00000000000E+00  0.00000000000E+00  0.52935536933E+02  0.52935536933E+02  0.00000000000E+00 0. -1.
          1   -1    0    0  501    0  0.00000000000E+00 -0.00000000000E+00 -0.34667346828E+03  0.34667346828E+03  0.00000000000E+00 0. -1.
         35    2    1    2    0    0  0.00000000000E+00  0.10658141036E-13 -0.29373793135E+03  0.39960900522E+03  0.27093428121E+03 0.  0.
         25    2    3    3    0    0  0.10876870869E+01  0.31040536012E+02 -0.90527638718E+02  0.15826699372E+03  0.12604955370E+03 0.  0.
         25    2    3    3    0    0 -0.10876870869E+01 -0.31040536012E+02 -0.20321029263E+03  0.24134201150E+03  0.12643909816E+03 0.  0.
          5    1    4    4  502    0 -0.29835812888E+02  0.72115828463E+02 -0.53801890785E+02  0.94908386866E+02  0.47000000000E+01 0.  1.
         -5    1    4    4    0  502  0.30923499975E+02 -0.41075292451E+02 -0.36725747933E+02  0.63358606849E+02  0.47000000000E+01 0.  1.
          5    1    5    5  503    0  0.18484425670E+02  0.18931993699E+02  0.40655307214E+01  0.27179273681E+02  0.47000000000E+01 0.  1.
         -5    1    5    5    0  503 -0.19572112757E+02 -0.49972529711E+02 -0.20727582335E+03  0.21416273782E+03  0.47000000000E+01 0.  1.
<mgrwt>
<rscale>  0 0.27093428E+03</rscale>
<asrwt>0</asrwt>
<pdfrwt beam="1">  1        1 0.53334380E-01 0.27093428E+03</pdfrwt>
<pdfrwt beam="2">  1       -1 0.81439287E-02 0.27093428E+03</pdfrwt>
<totfact> 0.60598595E+03</totfact>
</mgrwt>
</event>
<event>
 9    1  0.7816570E-001  0.2733940E+03  0.7818608E-02  0.1099353E+00
         -2   -1    0    0    0  501 -0.00000000000E+00  0.00000000000E+00  0.35358613271E+02  0.35358613271E+02  0.00000000000E+00 0.  1.
          2   -1    0    0  501    0  0.00000000000E+00 -0.00000000000E+00 -0.52847298491E+03  0.52847298491E+03  0.00000000000E+00 0.  1.
         35    2    1    2    0    0  0.00000000000E+00 -0.71054273576E-14 -0.49311437164E+03  0.56383159818E+03  0.27339401528E+03 0.  0.
         25    2    3    3    0    0 -0.82660873476E+01  0.39885147109E+02 -0.16999558713E+03  0.21510727093E+03  0.12535344114E+03 0.  0.
         25    2    3    3    0    0  0.82660873476E+01 -0.39885147109E+02 -0.32311878451E+03  0.34872432725E+03  0.12467459385E+03 0.  0.
          5    1    4    4  502    0 -0.31613553524E+02  0.54534071972E+02 -0.17556525689E+03  0.18659751124E+03  0.47000000000E+01 0. -1.
         -5    1    4    4    0  502  0.23347466176E+02 -0.14648924862E+02  0.55696697659E+01  0.28509759693E+02  0.47000000000E+01 0. -1.
          5    1    5    5  503    0  0.46194394286E+02  0.24114783515E+02 -0.17870212005E+03  0.18620414216E+03  0.47000000000E+01 0.  1.
         -5    1    5    5    0  503 -0.37928306938E+02 -0.63999930625E+02 -0.14441666445E+03  0.16252018508E+03  0.47000000000E+01 0.  1.
<mgrwt>
<rscale>  0 0.27339402E+03</rscale>
<asrwt>0</asrwt>
<pdfrwt beam="1">  1        2 0.81303526E-01 0.27339402E+03</pdfrwt>
<pdfrwt beam="2">  1       -2 0.54397873E-02 0.27339402E+03</pdfrwt>
<totfact> 0.10000685E+04</totfact>
</mgrwt>
</event>
<event>
 9    1  0.7816570E-001  0.2754632E+03  0.7818608E-02  0.1098193E+00
          3   -1    0    0  501    0  0.00000000000E+00  0.00000000000E+00  0.11851767884E+04  0.11851767884E+04  0.00000000000E+00 0. -1.
         -3   -1    0    0    0  501 -0.00000000000E+00 -0.00000000000E+00 -0.16006050868E+02  0.16006050868E+02  0.00000000000E+00 0. -1.
         35    2    1    2    0    0  0.71054273576E-14  0.35527136788E-14  0.11691707375E+04  0.12011828392E+04  0.27546324592E+03 0.  0.
         25    2    3    3    0    0  0.57632146923E+01 -0.19181697947E+02  0.34674675973E+03  0.36906830993E+03  0.12480765134E+03 0.  0.
         25    2    3    3    0    0 -0.57632146923E+01  0.19181697947E+02  0.82242397778E+03  0.83211452931E+03  0.12502895060E+03 0.  0.
          5    1    4    4  502    0 -0.57042726004E+02 -0.36585388899E+01  0.11640018220E+03  0.12976266764E+03  0.47000000000E+01 0. -1.
         -5    1    4    4    0  502  0.62805940696E+02 -0.15523159057E+02  0.23034657753E+03  0.23930564229E+03  0.47000000000E+01 0. -1.
          5    1    5    5  503    0 -0.63256567073E+02 -0.43254586268E+01  0.37003814053E+03  0.37546027529E+03  0.47000000000E+01 0. -1.
         -5    1    5    5    0  503  0.57493352380E+02  0.23507156574E+02  0.45238583725E+03  0.45665425403E+03  0.47000000000E+01 0. -1.
<mgrwt>
<rscale>  0 0.27546325E+03</rscale>
<asrwt>0</asrwt>
<pdfrwt beam="1">  1        3 0.18233482E+00 0.27546325E+03</pdfrwt>
<pdfrwt beam="2">  1       -3 0.24624703E-02 0.27546325E+03</pdfrwt>
<totfact> 0.36239361E+02</totfact>
</mgrwt>
</event>
<event>
 9    1  0.7816570E-001  0.2646605E+03  0.7818608E-02  0.1104375E+00
          2   -1    0    0  501    0  0.00000000000E+00  0.00000000000E+00  0.18112080031E+04  0.18112080031E+04  0.00000000000E+00 0. -1.
         -2   -1    0    0    0  501 -0.00000000000E+00 -0.00000000000E+00 -0.96682967461E+01  0.96682967461E+01  0.00000000000E+00 0. -1.
         35    2    1    2    0    0  0.71054273576E-14  0.35527136788E-14  0.18015397064E+04  0.18208762999E+04  0.26466051041E+03 0.  0.
         25    2    3    3    0    0  0.42183778698E+02  0.13931604699E+02  0.82985116216E+03  0.84050927010E+03  0.12581462947E+03 0.  0.
         25    2    3    3    0    0 -0.42183778698E+02 -0.13931604699E+02  0.97168854421E+03  0.98036702976E+03  0.12234102052E+03 0.  0.
          5    1    4    4  502    0 -0.28179638512E+02 -0.76667339131E+01  0.57666387113E+02  0.64810284972E+02  0.47000000000E+01 0.  1.
         -5    1    4    4    0  502  0.70363417209E+02  0.21598338612E+02  0.77218477505E+03  0.77569898513E+03  0.47000000000E+01 0.  1.
          5    1    5    5  503    0  0.11854600540E+02 -0.36551890484E+02  0.10884698706E+03  0.11552631235E+03  0.47000000000E+01 0.  1.
         -5    1    5    5    0  503 -0.54038379238E+02  0.22620285786E+02  0.86284155714E+03  0.86484071741E+03  0.47000000000E+01 0.  1.
<mgrwt>
<rscale>  0 0.26466051E+03</rscale>
<asrwt>0</asrwt>
<pdfrwt beam="1">  1        2 0.27864712E+00 0.26466051E+03</pdfrwt>
<pdfrwt beam="2">  1       -2 0.14874317E-02 0.26466051E+03</pdfrwt>
<totfact> 0.11142737E+04</totfact>
</mgrwt>
</event>
<event>
 9    1  0.7816570E-001  0.2837943E+03  0.7818608E-02  0.1093634E+00
          2   -1    0    0  501    0  0.00000000000E+00  0.00000000000E+00  0.10614066717E+03  0.10614066717E+03  0.00000000000E+00 0. -1.
         -2   -1    0    0    0  501 -0.00000000000E+00 -0.00000000000E+00 -0.18969919041E+03  0.18969919041E+03  0.00000000000E+00 0. -1.
         35    2    1    2    0    0  0.35527136788E-14  0.00000000000E+00 -0.83558523239E+02  0.29583985758E+03  0.28379428205E+03 0.  0.
         25    2    3    3    0    0  0.24928269737E+02  0.54417312985E+02 -0.99092677543E+01  0.13840880915E+03  0.12440314416E+03 0.  0.
         25    2    3    3    0    0 -0.24928269737E+02 -0.54417312985E+02 -0.73649255485E+02  0.15743104843E+03  0.12560915410E+03 0.  0.
          5    1    4    4  502    0  0.63175846383E+02 -0.88588619040E+01 -0.45210445660E+01  0.64126413001E+02  0.47000000000E+01 0. -1.
         -5    1    4    4    0  502 -0.38247576646E+02  0.63276174889E+02 -0.53882231883E+01  0.74282396145E+02  0.47000000000E+01 0. -1.
          5    1    5    5  503    0 -0.44757897994E+02 -0.79219979732E+02 -0.83774234599E+02  0.12377110731E+03  0.47000000000E+01 0.  1.
         -5    1    5    5    0  503  0.19829628257E+02  0.24802666747E+02  0.10124979114E+02  0.33659941126E+02  0.47000000000E+01 0.  1.
<mgrwt>
<rscale>  0 0.28379428E+03</rscale>
<asrwt>0</asrwt>
<pdfrwt beam="1">  1        2 0.16329333E-01 0.28379428E+03</pdfrwt>
<pdfrwt beam="2">  1       -2 0.29184491E-01 0.28379428E+03</pdfrwt>
<totfact> 0.37729108E+03</totfact>
</mgrwt>
</event>
<event>
 9    1  0.7816570E-001  0.2744575E+03  0.7818608E-02  0.1098755E+00
          2   -1    0    0  501    0  0.00000000000E+00  0.00000000000E+00  0.54075671793E+03  0.54075671793E+03  0.00000000000E+00 0. -1.
         -2   -1    0    0    0  501 -0.00000000000E+00 -0.00000000000E+00 -0.34824769568E+02  0.34824769568E+02  0.00000000000E+00 0. -1.
         35    2    1    2    0    0  0.00000000000E+00  0.00000000000E+00  0.50593194836E+03  0.57558148750E+03  0.27445748738E+03 0.  0.
         25    2    3    3    0    0 -0.31651296019E+02  0.96107848609E+01  0.35704902752E+03  0.38003924593E+03  0.12590333063E+03 0.  0.
         25    2    3    3    0    0  0.31651296019E+02 -0.96107848609E+01  0.14888292084E+03  0.19554224157E+03  0.12237839840E+03 0.  0.
          5    1    4    4  502    0 -0.27293217903E+02  0.50732180892E+02  0.31718908205E+03  0.32241227907E+03  0.47000000000E+01 0.  1.
         -5    1    4    4    0  502 -0.43580781165E+01 -0.41121396031E+02  0.39859945472E+02  0.57626966860E+02  0.47000000000E+01 0.  1.
          5    1    5    5  503    0  0.71269034584E+01  0.50602155297E+02  0.28643516341E+02  0.58769991509E+02  0.47000000000E+01 0.  1.
         -5    1    5    5    0  503  0.24524392561E+02 -0.60212940158E+02  0.12023940450E+03  0.13677225007E+03  0.47000000000E+01 0.  1.
<mgrwt>
<rscale>  0 0.27445749E+03</rscale>
<asrwt>0</asrwt>
<pdfrwt beam="1">  1        2 0.83193335E-01 0.27445749E+03</pdfrwt>
<pdfrwt beam="2">  1       -2 0.53576573E-02 0.27445749E+03</pdfrwt>
<totfact> 0.99740669E+03</totfact>
</mgrwt>
</event>
<event>
 9    1  0.7816570E-001  0.2712341E+03  0.7818608E-02  0.1100575E+00
          1   -1    0    0  501    0  0.00000000000E+00  0.00000000000E+00  0.56858453733E+02  0.56858453733E+02  0.00000000000E+00 0.  1.
         -1   -1    0    0    0  501 -0.00000000000E+00 -0.00000000000E+00 -0.32346960980E+03  0.32346960980E+03  0.00000000000E+00 0.  1.
         35    2    1    2    0    0 -0.71054273576E-14  0.35527136788E-14 -0.26661115606E+03  0.38032806353E+03  0.27123408224E+03 0.  0.
         25    2    3    3    0    0  0.24799869323E+02 -0.98139692142E+00 -0.19893127606E+03  0.23608143518E+03  0.12467876637E+03 0.  0.
         25    2    3    3    0    0 -0.24799869323E+02  0.98139692142E+00 -0.67679880006E+02  0.14424662835E+03  0.12494209449E+03 0.  0.
          5    1    4    4  502    0 -0.25954601694E+01 -0.18202525636E+02 -0.20232013749E+03  0.20320825866E+03  0.47000000000E+01 0.  1.
         -5    1    4    4    0  502  0.27395329492E+02  0.17221128715E+02  0.33888614382E+01  0.32873176513E+02  0.47000000000E+01 0.  1.
          5    1    5    5  503    0 -0.30777999657E+02  0.59286073769E+02 -0.24537226365E+02  0.71318225465E+02  0.47000000000E+01 0.  1.
         -5    1    5    5    0  503  0.59781303341E+01 -0.58304676848E+02 -0.43142653641E+02  0.72928402888E+02  0.47000000000E+01 0.  1.
<mgrwt>
<rscale>  0 0.27123408E+03</rscale>
<asrwt>0</asrwt>
<pdfrwt beam="1">  1        1 0.87474544E-02 0.27123408E+03</pdfrwt>
<pdfrwt beam="2">  1       -1 0.49764556E-01 0.27123408E+03</pdfrwt>
<totfact> 0.31755589E+03</totfact>
</mgrwt>
</event>
<event>
 9    1  0.7816570E-001  0.2777319E+03  0.7818608E-02  0.1096934E+00
         -1   -1    0    0    0  501 -0.00000000000E+00  0.00000000000E+00  0.20287174738E+02  0.20287174738E+02  0.00000000000E+00 0. -1.
          1   -1    0    0  501    0  0.00000000000E+00 -0.00000000000E+00 -0.95053920298E+03  0.95053920298E+03  0.00000000000E+00 0. -1.
         35    2    1    2    0    0  0.00000000000E+00 -0.71054273576E-14 -0.93025202825E+03  0.97082637772E+03  0.27773192043E+03 0.  0.
         25    2    3    3    0    0  0.54002977562E+01  0.42152728703E+02 -0.61417701035E+03  0.62836653804E+03  0.12579781528E+03 0.  0.
         25    2    3    3    0    0 -0.54002977562E+01 -0.42152728703E+02 -0.31607501790E+03  0.34245983969E+03  0.12477703757E+03 0.  0.
          5    1    4    4  502    0 -0.55764490440E+02  0.15063151513E+02 -0.18162437734E+03  0.19064648271E+03  0.47000000000E+01 0.  1.
         -5    1    4    4    0  502  0.61164788196E+02  0.27089577190E+02 -0.43255263301E+03  0.43772005532E+03  0.47000000000E+01 0.  1.
          5    1    5    5  503    0 -0.24884447829E+02 -0.57026922943E+02 -0.64835341150E+02  0.89983427064E+02  0.47000000000E+01 0. -1.
         -5    1    5    5    0  503  0.19484150073E+02  0.14874194240E+02 -0.25123967675E+03  0.25247641262E+03  0.47000000000E+01 0. -1.
<mgrwt>
<rscale>  0 0.27773192E+03</rscale>
<asrwt>0</asrwt>
<pdfrwt beam="1">  1        1 0.14623684E+00 0.27773192E+03</pdfrwt>
<pdfrwt beam="2">  1       -1 0.31211029E-02 0.27773192E+03</pdfrwt>
<totfact> 0.61997805E+03</totfact>
</mgrwt>
</event>
<event>
 9    1  0.7816570E-001  0.2803791E+03  0.7818608E-02  0.1095482E+00
         -2   -1    0    0    0  501 -0.00000000000E+00  0.00000000000E+00  0.18315170435E+02  0.18315170435E+02  0.00000000000E+00 0.  1.
          2   -1    0    0  501    0  0.00000000000E+00 -0.00000000000E+00 -0.10730511624E+04  0.10730511624E+04  0.00000000000E+00 0.  1.
         35    2    1    2    0    0  0.21316282073E-13  0.00000000000E+00 -0.10547359920E+04  0.10913663328E+04  0.28037913563E+03 0.  0.
         25    2    3    3    0    0 -0.58183393563E+02 -0.18825958891E+02 -0.59387405028E+03  0.61003383471E+03  0.12536015271E+03 0.  0.
         25    2    3    3    0    0  0.58183393563E+02  0.18825958891E+02 -0.46086194168E+03  0.48133249811E+03  0.12468969659E+03 0.  0.
          5    1    4    4  502    0  0.24842411300E+02  0.21304663924E+02 -0.30439373582E+03  0.30618404679E+03  0.47000000000E+01 0.  1.
         -5    1    4    4    0  502 -0.83025804863E+02 -0.40130622815E+02 -0.28948031446E+03  0.30384978792E+03  0.47000000000E+01 0.  1.
          5    1    5    5  503    0  0.15359027263E+02  0.27991639238E+02 -0.42004236319E+03  0.42128032052E+03  0.47000000000E+01 0.  1.
         -5    1    5    5    0  503  0.42824366300E+02 -0.91656803468E+01 -0.40819578489E+02  0.60052177589E+02  0.47000000000E+01 0.  1.
<mgrwt>
<rscale>  0 0.28037914E+03</rscale>
<asrwt>0</asrwt>
<pdfrwt beam="1">  1        2 0.16508477E+00 0.28037914E+03</pdfrwt>
<pdfrwt beam="2">  1       -2 0.28177190E-02 0.28037914E+03</pdfrwt>
<totfact> 0.11011342E+04</totfact>
</mgrwt>
</event>
<event>
 9    1  0.7816570E-001  0.2805467E+03  0.7818608E-02  0.1095391E+00
          2   -1    0    0  501    0  0.00000000000E+00  0.00000000000E+00  0.51059440286E+02  0.51059440286E+02  0.00000000000E+00 0. -1.
         -2   -1    0    0    0  501 -0.00000000000E+00 -0.00000000000E+00 -0.38536692434E+03  0.38536692434E+03  0.00000000000E+00 0. -1.
         35    2    1    2    0    0  0.00000000000E+00  0.71054273576E-14 -0.33430748406E+03  0.43642636463E+03  0.28054674806E+03 0.  0.
         25    2    3    3    0    0  0.44557677962E+02  0.44552977892E+02 -0.16061924967E+03  0.21342646784E+03  0.12562626838E+03 0.  0.
         25    2    3    3    0    0 -0.44557677962E+02 -0.44552977892E+02 -0.17368823438E+03  0.22299989679E+03  0.12486391272E+03 0.  0.
          5    1    4    4  502    0  0.25882078846E+02 -0.40751164751E+02 -0.32796050794E+02  0.58550921271E+02  0.47000000000E+01 0.  1.
         -5    1    4    4    0  502  0.18675599116E+02  0.85304142643E+02 -0.12782319888E+03  0.15487554657E+03  0.47000000000E+01 0.  1.
          5    1    5    5  503    0 -0.37524761433E+02  0.23052659616E+02 -0.95858016773E+01  0.45315675320E+02  0.47000000000E+01 0.  1.
         -5    1    5    5    0  503 -0.70329165295E+01 -0.67605637509E+02 -0.16410243271E+03  0.17768422147E+03  0.47000000000E+01 0.  1.
<mgrwt>
<rscale>  0 0.28054675E+03</rscale>
<asrwt>0</asrwt>
<pdfrwt beam="1">  1        2 0.78552986E-02 0.28054675E+03</pdfrwt>
<pdfrwt beam="2">  1       -2 0.59287219E-01 0.28054675E+03</pdfrwt>
<totfact> 0.23555029E+03</totfact>
</mgrwt>
</event>
<event>
 9    1  0.7816570E-001  0.2729210E+03  0.7818608E-02  0.1099619E+00
         -1   -1    0    0    0  501 -0.00000000000E+00  0.00000000000E+00  0.38629359463E+02  0.38629359463E+02  0.00000000000E+00 0.  1.
          1   -1    0    0  501    0  0.00000000000E+00 -0.00000000000E+00 -0.48205485387E+03  0.48205485387E+03  0.00000000000E+00 0.  1.
         35    2    1    2    0    0  0.00000000000E+00  0.71054273576E-14 -0.44342549441E+03  0.52068421333E+03  0.27292101591E+03 0.  0.
         25    2    3    3    0    0 -0.35400178201E+02  0.36109720723E+02 -0.16317065485E+03  0.21046015506E+03  0.12292977556E+03 0.  0.
         25    2    3    3    0    0  0.35400178201E+02 -0.36109720723E+02 -0.28025483956E+03  0.31022405827E+03  0.12304107722E+03 0.  0.
          5    1    4    4  502    0 -0.76279693442E+01  0.58088514686E+02 -0.18761712864E+02  0.61697271612E+02  0.47000000000E+01 0.  1.
         -5    1    4    4    0  502 -0.27772208857E+02 -0.21978793963E+02 -0.14440894198E+03  0.14876288345E+03  0.47000000000E+01 0.  1.
          5    1    5    5  503    0  0.42400819889E+02 -0.67122580059E+02 -0.10327547443E+03  0.13035023552E+03  0.47000000000E+01 0.  1.
         -5    1    5    5    0  503 -0.70006416884E+01  0.31012859336E+02 -0.17697936512E+03  0.17987382274E+03  0.47000000000E+01 0.  1.
<mgrwt>
<rscale>  0 0.27292102E+03</rscale>
<asrwt>0</asrwt>
<pdfrwt beam="1">  1        1 0.74162286E-01 0.27292102E+03</pdfrwt>
<pdfrwt beam="2">  1       -1 0.59429784E-02 0.27292102E+03</pdfrwt>
<totfact> 0.63940636E+03</totfact>
</mgrwt>
</event>
<event>
 9    1  0.7816570E-001  0.2802212E+03  0.7818608E-02  0.1095568E+00
          2   -1    0    0  501    0  0.00000000000E+00  0.00000000000E+00  0.87442185567E+03  0.87442185567E+03  0.00000000000E+00 0. -1.
         -2   -1    0    0    0  501 -0.00000000000E+00 -0.00000000000E+00 -0.22450236731E+02  0.22450236731E+02  0.00000000000E+00 0. -1.
         35    2    1    2    0    0  0.00000000000E+00  0.17763568394E-14  0.85197161894E+03  0.89687209241E+03  0.28022118166E+03 0.  0.
         25    2    3    3    0    0  0.66708770175E+01 -0.21409838373E+01  0.23130148289E+03  0.26377345650E+03  0.12659769332E+03 0.  0.
         25    2    3    3    0    0 -0.66708770175E+01  0.21409838373E+01  0.62067013605E+03  0.63309863590E+03  0.12463298354E+03 0.  0.
          5    1    4    4  502    0  0.81338688282E+01 -0.13043609469E+02  0.24503440232E+03  0.24556107976E+03  0.47000000000E+01 0.  1.
         -5    1    4    4    0  502 -0.14629918107E+01  0.10902625632E+02 -0.13732919429E+02  0.18212376746E+02  0.47000000000E+01 0.  1.
          5    1    5    5  503    0  0.51481724334E+02 -0.17084295756E+02  0.17666735919E+03  0.18486667332E+03  0.47000000000E+01 0. -1.
         -5    1    5    5    0  503 -0.58152601352E+02  0.19225279594E+02  0.44400277686E+03  0.44823196258E+03  0.47000000000E+01 0. -1.
<mgrwt>
<rscale>  0 0.28022118E+03</rscale>
<asrwt>0</asrwt>
<pdfrwt beam="1">  1        2 0.13452641E+00 0.28022118E+03</pdfrwt>
<pdfrwt beam="2">  1       -2 0.34538833E-02 0.28022118E+03</pdfrwt>
<totfact> 0.10805227E+04</totfact>
</mgrwt>
</event>
<event>
 9    1  0.7816570E-001  0.2753473E+03  0.7818608E-02  0.1098258E+00
          2   -1    0    0  501    0  0.00000000000E+00  0.00000000000E+00  0.74992051695E+03  0.74992051695E+03  0.00000000000E+00 0. -1.
         -2   -1    0    0    0  501 -0.00000000000E+00 -0.00000000000E+00 -0.25274728329E+02  0.25274728329E+02  0.00000000000E+00 0. -1.
         35    2    1    2    0    0  0.00000000000E+00  0.00000000000E+00  0.72464578862E+03  0.77519524528E+03  0.27534732491E+03 0.  0.
         25    2    3    3    0    0 -0.74821906731E+01 -0.51474965525E+02  0.42146681590E+03  0.44256414233E+03  0.12459168480E+03 0.  0.
         25    2    3    3    0    0  0.74821906731E+01  0.51474965525E+02  0.30317897273E+03  0.33263110295E+03  0.12657134705E+03 0.  0.
          5    1    4    4  502    0 -0.53332345152E+02 -0.58279973442E+01  0.90598373367E+02  0.10539667855E+03  0.47000000000E+01 0. -1.
         -5    1    4    4    0  502  0.45850154479E+02 -0.45646968181E+02  0.33086844253E+03  0.33716746378E+03  0.47000000000E+01 0. -1.
          5    1    5    5  503    0 -0.57184346350E+02  0.36234767737E+02  0.18382562445E+03  0.19595141761E+03  0.47000000000E+01 0. -1.
         -5    1    5    5    0  503  0.64666537023E+02  0.15240197789E+02  0.11935334828E+03  0.13667968534E+03  0.47000000000E+01 0. -1.
<mgrwt>
<rscale>  0 0.27534732E+03</rscale>
<asrwt>0</asrwt>
<pdfrwt beam="1">  1        2 0.11537237E+00 0.27534732E+03</pdfrwt>
<pdfrwt beam="2">  1       -2 0.38884203E-02 0.27534732E+03</pdfrwt>
<totfact> 0.11005865E+04</totfact>
</mgrwt>
</event>
<event>
 9    1  0.7816570E-001  0.2647099E+03  0.7818608E-02  0.1104346E+00
         -3   -1    0    0    0  501 -0.00000000000E+00  0.00000000000E+00  0.31721504640E+03  0.31721504640E+03  0.00000000000E+00 0.  1.
          3   -1    0    0  501    0  0.00000000000E+00 -0.00000000000E+00 -0.55223831769E+02  0.55223831769E+02  0.00000000000E+00 0.  1.
         35    2    1    2    0    0 -0.35527136788E-14 -0.35527136788E-14  0.26199121463E+03  0.37243887817E+03  0.26470988162E+03 0.  0.
         25    2    3    3    0    0 -0.20271545789E+02 -0.26108172859E+02  0.17060169818E+03  0.21388377737E+03  0.12469466124E+03 0.  0.
         25    2    3    3    0    0  0.20271545789E+02  0.26108172859E+02  0.91389516449E+02  0.15855510079E+03  0.12528010222E+03 0.  0.
          5    1    4    4  502    0  0.25382505553E+02 -0.37886871345E+02  0.10655983511E+02  0.47067256060E+02  0.47000000000E+01 0.  1.
         -5    1    4    4    0  502 -0.45654051342E+02  0.11778698486E+02  0.15994571467E+03  0.16681652131E+03  0.47000000000E+01 0.  1.
          5    1    5    5  503    0  0.28330693559E+02 -0.24034805520E+02 -0.15180896413E+02  0.40408534864E+02  0.47000000000E+01 0.  1.
         -5    1    5    5    0  503 -0.80591477701E+01  0.50142978379E+02  0.10657041286E+03  0.11814656593E+03  0.47000000000E+01 0.  1.
<mgrwt>
<rscale>  0 0.26470988E+03</rscale>
<asrwt>0</asrwt>
<pdfrwt beam="1">  1        3 0.84959743E-02 0.26470988E+03</pdfrwt>
<pdfrwt beam="2">  1       -3 0.48802314E-01 0.26470988E+03</pdfrwt>
<totfact> 0.10265095E+03</totfact>
</mgrwt>
</event>
<event>
 9    1  0.7816570E-001  0.2767267E+03  0.7818608E-02  0.1097490E+00
         -2   -1    0    0    0  501 -0.00000000000E+00  0.00000000000E+00  0.76394773076E+01  0.76394773076E+01  0.00000000000E+00 0.  1.
          2   -1    0    0  501    0  0.00000000000E+00 -0.00000000000E+00 -0.25059852155E+04  0.25059852155E+04  0.00000000000E+00 0.  1.
         35    2    1    2    0    0  0.00000000000E+00  0.00000000000E+00 -0.24983457382E+04  0.25136246928E+04  0.27672670408E+03 0.  0.
         25    2    3    3    0    0  0.43772062320E+02  0.20930871297E+02 -0.16283105327E+04  0.16337821970E+04  0.12447883978E+03 0.  0.
         25    2    3    3    0    0 -0.43772062320E+02 -0.20930871297E+02 -0.87003520548E+03  0.87984249579E+03  0.12168592277E+03 0.  0.
          5    1    4    4  502    0  0.39574664123E+01 -0.84385290454E+01 -0.14037197358E+04  0.14037585465E+04  0.47000000000E+01 0. -1.
         -5    1    4    4    0  502  0.39814595908E+02  0.29369400342E+02 -0.22459079697E+03  0.23002365054E+03  0.47000000000E+01 0. -1.
          5    1    5    5  503    0  0.12362387956E+02  0.43034262350E+02 -0.25756439180E+03  0.26146946723E+03  0.47000000000E+01 0. -1.
         -5    1    5    5    0  503 -0.56134450276E+02 -0.63965133647E+02 -0.61247081368E+03  0.61837302855E+03  0.47000000000E+01 0. -1.
<mgrwt>
<rscale>  0 0.27672670E+03</rscale>
<asrwt>0</asrwt>
<pdfrwt beam="1">  1        2 0.38553629E+00 0.27672670E+03</pdfrwt>
<pdfrwt beam="2">  1       -2 0.11753039E-02 0.27672670E+03</pdfrwt>
<totfact> 0.67078865E+03</totfact>
</mgrwt>
</event>
<event>
 9    1  0.7816570E-001  0.2766494E+03  0.7818608E-02  0.1097533E+00
         -2   -1    0    0    0  501 -0.00000000000E+00  0.00000000000E+00  0.72530025075E+02  0.72530025075E+02  0.00000000000E+00 0.  1.
          2   -1    0    0  501    0  0.00000000000E+00 -0.00000000000E+00 -0.26380411075E+03  0.26380411075E+03  0.00000000000E+00 0.  1.
         35    2    1    2    0    0  0.88817841970E-15  0.00000000000E+00 -0.19127408568E+03  0.33633413583E+03  0.27664937208E+03 0.  0.
         25    2    3    3    0    0 -0.75719531829E+01 -0.58231533561E+02 -0.86449987546E+02  0.16284369672E+03  0.12488483991E+03 0.  0.
         25    2    3    3    0    0  0.75719531829E+01  0.58231533561E+02 -0.10482409813E+03  0.17349043911E+03  0.12515028940E+03 0.  0.
          5    1    4    4  502    0 -0.14680616708E+02 -0.91528023308E+02 -0.31473905848E+02  0.98008144085E+02  0.47000000000E+01 0.  1.
         -5    1    4    4    0  502  0.71086635253E+01  0.33296489748E+02 -0.54976081699E+02  0.64835552636E+02  0.47000000000E+01 0.  1.
          5    1    5    5  503    0  0.23219763158E+01 -0.18966902511E+02  0.19031697388E+02  0.27375727759E+02  0.47000000000E+01 0.  1.
         -5    1    5    5    0  503  0.52499768671E+01  0.77198436071E+02 -0.12385579552E+03  0.14611471135E+03  0.47000000000E+01 0.  1.
<mgrwt>
<rscale>  0 0.27664937E+03</rscale>
<asrwt>0</asrwt>
<pdfrwt beam="1">  1        2 0.40585247E-01 0.27664937E+03</pdfrwt>
<pdfrwt beam="2">  1       -2 0.11158466E-01 0.27664937E+03</pdfrwt>
<totfact> 0.69458037E+03</totfact>
</mgrwt>
</event>
<event>
 9    1  0.7816570E-001  0.2759791E+03  0.7818608E-02  0.1097906E+00
          2   -1    0    0  501    0  0.00000000000E+00  0.00000000000E+00  0.15833848892E+03  0.15833848892E+03  0.00000000000E+00 0. -1.
         -2   -1    0    0    0  501 -0.00000000000E+00 -0.00000000000E+00 -0.12025576685E+03  0.12025576685E+03  0.00000000000E+00 0. -1.
         35    2    1    2    0    0  0.00000000000E+00  0.00000000000E+00  0.38082722068E+02  0.27859425577E+03  0.27597910361E+03 0.  0.
         25    2    3    3    0    0  0.54277141181E+02 -0.22525379375E+02  0.24897755652E+02  0.14088311886E+03  0.12559758824E+03 0.  0.
         25    2    3    3    0    0 -0.54277141181E+02  0.22525379375E+02  0.13184966416E+02  0.13771113691E+03  0.12384309879E+03 0.  0.
          5    1    4    4  502    0  0.23368696339E+01 -0.57609637612E+02 -0.22593287677E+02  0.62103767627E+02  0.47000000000E+01 0. -1.
         -5    1    4    4    0  502  0.51940271547E+02  0.35084258237E+02  0.47491043329E+02  0.78779351235E+02  0.47000000000E+01 0. -1.
          5    1    5    5  503    0 -0.19219938959E+01 -0.11658210764E+02 -0.48268143270E+02  0.49915043759E+02  0.47000000000E+01 0. -1.
         -5    1    5    5    0  503 -0.52355147285E+02  0.34183590139E+02  0.61453109686E+02  0.87796093148E+02  0.47000000000E+01 0. -1.
<mgrwt>
<rscale>  0 0.27597910E+03</rscale>
<asrwt>0</asrwt>
<pdfrwt beam="1">  1        2 0.24359768E-01 0.27597910E+03</pdfrwt>
<pdfrwt beam="2">  1       -2 0.18500887E-01 0.27597910E+03</pdfrwt>
<totfact> 0.52865759E+03</totfact>
</mgrwt>
</event>
<event>
 9    1  0.7816570E-001  0.2744241E+03  0.7818608E-02  0.1098774E+00
          1   -1    0    0  501    0  0.00000000000E+00  0.00000000000E+00  0.72074466892E+03  0.72074466892E+03  0.00000000000E+00 0.  1.
         -1   -1    0    0    0  501 -0.00000000000E+00 -0.00000000000E+00 -0.26121800936E+02  0.26121800936E+02  0.00000000000E+00 0.  1.
         35    2    1    2    0    0  0.71054273576E-14  0.88817841970E-15  0.69462286798E+03  0.74686646985E+03  0.27442411532E+03 0.  0.
         25    2    3    3    0    0  0.23528470739E+02 -0.71795512195E+01  0.48707742533E+03  0.50344457032E+03  0.12492750789E+03 0.  0.
         25    2    3    3    0    0 -0.23528470739E+02  0.71795512195E+01  0.20754544266E+03  0.24342189954E+03  0.12479573517E+03 0.  0.
          5    1    4    4  502    0 -0.13824138540E+02  0.42159371311E+01  0.42348860497E+00  0.15203627030E+02  0.47000000000E+01 0. -1.
         -5    1    4    4    0  502  0.37352609279E+02 -0.11395488351E+02  0.48665393672E+03  0.48824094329E+03  0.47000000000E+01 0. -1.
          5    1    5    5  503    0  0.48922068039E+02  0.63161578760E+01  0.11905933594E+03  0.12895921086E+03  0.47000000000E+01 0.  1.
         -5    1    5    5    0  503 -0.72450538778E+02  0.86339334351E+00  0.88486106715E+02  0.11446268868E+03  0.47000000000E+01 0.  1.
<mgrwt>
<rscale>  0 0.27442412E+03</rscale>
<asrwt>0</asrwt>
<pdfrwt beam="1">  1        1 0.11088378E+00 0.27442412E+03</pdfrwt>
<pdfrwt beam="2">  1       -1 0.40187391E-02 0.27442412E+03</pdfrwt>
<totfact> 0.65757221E+03</totfact>
</mgrwt>
</event>
<event>
 9    1  0.7816570E-001  0.2734112E+03  0.7818608E-02  0.1099343E+00
          2   -1    0    0  501    0  0.00000000000E+00  0.00000000000E+00  0.42215275185E+04  0.42215275185E+04  0.00000000000E+00 0.  1.
         -2   -1    0    0    0  501 -0.00000000000E+00 -0.00000000000E+00 -0.44269318438E+01  0.44269318438E+01  0.00000000000E+00 0.  1.
         35    2    1    2    0    0  0.00000000000E+00 -0.71054273576E-14  0.42171005866E+04  0.42259544503E+04  0.27341115267E+03 0.  0.
         25    2    3    3    0    0 -0.38371230463E+02  0.14441085747E+02  0.25966399378E+04  0.26000876951E+04  0.12742118996E+03 0.  0.
         25    2    3    3    0    0  0.38371230463E+02 -0.14441085747E+02  0.16204606488E+04  0.16258667552E+04  0.12597259560E+03 0.  0.
          5    1    4    4  502    0 -0.11600564743E+02 -0.24042153796E+02  0.22604520298E+04  0.22606145331E+04  0.47000000000E+01 0. -1.
         -5    1    4    4    0  502 -0.26770665720E+02  0.38483239543E+02  0.33618790803E+03  0.33947316209E+03  0.47000000000E+01 0. -1.
          5    1    5    5  503    0 -0.52699168006E+01  0.52087179808E+02  0.68920607197E+03  0.69120759976E+03  0.47000000000E+01 0.  1.
         -5    1    5    5    0  503  0.43641147264E+02 -0.66528265555E+02  0.93125457688E+03  0.93465915542E+03  0.47000000000E+01 0.  1.
<mgrwt>
<rscale>  0 0.27341115E+03</rscale>
<asrwt>0</asrwt>
<pdfrwt beam="1">  1        2 0.64946255E+00 0.27341115E+03</pdfrwt>
<pdfrwt beam="2">  1       -2 0.68106982E-03 0.27341115E+03</pdfrwt>
<totfact> 0.11084865E+03</totfact>
</mgrwt>
</event>
<event>
 9    1  0.7816570E-001  0.2748523E+03  0.7818608E-02  0.1098534E+00
          2   -1    0    0  501    0  0.00000000000E+00  0.00000000000E+00  0.22196662481E+04  0.22196662481E+04  0.00000000000E+00 0.  1.
         -2   -1    0    0    0  501 -0.00000000000E+00 -0.00000000000E+00 -0.85084614632E+01  0.85084614632E+01  0.00000000000E+00 0.  1.
         35    2    1    2    0    0  0.35527136788E-14  0.71054273576E-14  0.22111577866E+04  0.22281747096E+04  0.27485228566E+03 0.  0.
         25    2    3    3    0    0  0.10767946548E+02  0.54647563571E+02  0.12272798258E+04  0.12348470639E+04  0.12461619290E+03 0.  0.
         25    2    3    3    0    0 -0.10767946548E+02 -0.54647563571E+02  0.98387796086E+03  0.99332764568E+03  0.12482653940E+03 0.  0.
          5    1    4    4  502    0  0.33226806285E+02 -0.80961900114E+01  0.10394276104E+03  0.10952514104E+03  0.47000000000E+01 0.  1.
         -5    1    4    4    0  502 -0.22458859737E+02  0.62743753582E+02  0.11233370647E+04  0.11253219228E+04  0.47000000000E+01 0.  1.
          5    1    5    5  503    0 -0.50787660321E+02 -0.63344573152E+02  0.83164970154E+03  0.83561668094E+03  0.47000000000E+01 0.  1.
         -5    1    5    5    0  503  0.40019713773E+02  0.86970095810E+01  0.15222825932E+03  0.15771096475E+03  0.47000000000E+01 0.  1.
<mgrwt>
<rscale>  0 0.27485229E+03</rscale>
<asrwt>0</asrwt>
<pdfrwt beam="1">  1        2 0.34148665E+00 0.27485229E+03</pdfrwt>
<pdfrwt beam="2">  1       -2 0.13089958E-02 0.27485229E+03</pdfrwt>
<totfact> 0.81846830E+03</totfact>
</mgrwt>
</event>
<event>
 9    1  0.7816570E-001  0.2734152E+03  0.7818608E-02  0.1099341E+00
         -2   -1    0    0    0  501 -0.00000000000E+00  0.00000000000E+00  0.30083872558E+02  0.30083872558E+02  0.00000000000E+00 0. -1.
          2   -1    0    0  501    0  0.00000000000E+00 -0.00000000000E+00 -0.62122900752E+03  0.62122900752E+03  0.00000000000E+00 0. -1.
         35    2    1    2    0    0  0.71054273576E-14  0.00000000000E+00 -0.59114513496E+03  0.65131288008E+03  0.27341524677E+03 0.  0.
         25    2    3    3    0    0  0.35363950401E+02  0.93682275098E+01 -0.39377825080E+03  0.41426900192E+03  0.12336580754E+03 0.  0.
         25    2    3    3    0    0 -0.35363950401E+02 -0.93682275098E+01 -0.19736688416E+03  0.23704387816E+03  0.12608624245E+03 0.  0.
          5    1    4    4  502    0 -0.25613755697E+02 -0.33946514768E+02 -0.23282242576E+03  0.23672093757E+03  0.47000000000E+01 0. -1.
         -5    1    4    4    0  502  0.60977706098E+02  0.43314742278E+02 -0.16095582504E+03  0.17754806435E+03  0.47000000000E+01 0. -1.
          5    1    5    5  503    0 -0.15619049054E+02  0.54535923041E+02 -0.13038547361E+03  0.14226940404E+03  0.47000000000E+01 0. -1.
         -5    1    5    5    0  503 -0.19744901347E+02 -0.63904150551E+02 -0.66981410547E+02  0.94774474125E+02  0.47000000000E+01 0. -1.
<mgrwt>
<rscale>  0 0.27341525E+03</rscale>
<asrwt>0</asrwt>
<pdfrwt beam="1">  1        2 0.95573689E-01 0.27341525E+03</pdfrwt>
<pdfrwt beam="2">  1       -2 0.46282883E-02 0.27341525E+03</pdfrwt>
<totfact> 0.10615639E+04</totfact>
</mgrwt>
</event>
<event>
 9    1  0.7816570E-001  0.3022969E+03  0.7818608E-02  0.1084098E+00
          4   -1    0    0  501    0  0.00000000000E+00  0.00000000000E+00  0.15031584129E+03  0.15031584129E+03  0.00000000000E+00 0.  1.
         -4   -1    0    0    0  501 -0.00000000000E+00 -0.00000000000E+00 -0.15198567866E+03  0.15198567866E+03  0.00000000000E+00 0.  1.
         35    2    1    2    0    0  0.00000000000E+00  0.14210854715E-13 -0.16698373717E+01  0.30230151994E+03  0.30229690803E+03 0.  0.
         25    2    3    3    0    0 -0.19156394197E+02  0.32591004940E+02 -0.77644000197E+02  0.15179457613E+03  0.12483533768E+03 0.  0.
         25    2    3    3    0    0  0.19156394197E+02 -0.32591004940E+02  0.75974162825E+02  0.15050694382E+03  0.12430255701E+03 0.  0.
          5    1    4    4  502    0 -0.39779767773E+00 -0.46107383586E+02 -0.44457607275E+02  0.64223188248E+02  0.47000000000E+01 0.  1.
         -5    1    4    4    0  502 -0.18758596519E+02  0.78698388526E+02 -0.33186392922E+02  0.87571387879E+02  0.47000000000E+01 0.  1.
          5    1    5    5  503    0  0.28289989478E+02  0.27547786919E+02  0.80027502816E+02  0.89362717482E+02  0.47000000000E+01 0. -1.
         -5    1    5    5    0  503 -0.91335952815E+01 -0.60138791858E+02 -0.40533399904E+01  0.61144226334E+02  0.47000000000E+01 0. -1.
<mgrwt>
<rscale>  0 0.30229691E+03</rscale>
<asrwt>0</asrwt>
<pdfrwt beam="1">  1        4 0.23125514E-01 0.30229691E+03</pdfrwt>
<pdfrwt beam="2">  1       -4 0.23382412E-01 0.30229691E+03</pdfrwt>
<totfact> 0.55664585E+02</totfact>
</mgrwt>
</event>
<event>
 9    1  0.7816570E-001  0.2750874E+03  0.7818608E-02  0.1098403E+00
         -2   -1    0    0    0  501 -0.00000000000E+00  0.00000000000E+00  0.21779191259E+02  0.21779191259E+02  0.00000000000E+00 0. -1.
          2   -1    0    0  501    0  0.00000000000E+00 -0.00000000000E+00 -0.86863956326E+03  0.86863956326E+03  0.00000000000E+00 0. -1.
         35    2    1    2    0    0  0.00000000000E+00  0.00000000000E+00 -0.84686037200E+03  0.89041875452E+03  0.27508738382E+03 0.  0.
         25    2    3    3    0    0  0.44154763583E+02  0.22654793967E+02 -0.31078692721E+03  0.33849539143E+03  0.12461032485E+03 0.  0.
         25    2    3    3    0    0 -0.44154763583E+02 -0.22654793967E+02 -0.53607344480E+03  0.55192336309E+03  0.12158033425E+03 0.  0.
          5    1    4    4  502    0  0.48337675334E+02  0.17036072989E+01 -0.31277694765E+03  0.31652952803E+03  0.47000000000E+01 0. -1.
         -5    1    4    4    0  502 -0.41829117508E+01  0.20951186668E+02  0.19900204411E+01  0.21965863399E+02  0.47000000000E+01 0. -1.
          5    1    5    5  503    0 -0.21267492567E+02  0.91126159006E+01 -0.49284518956E+03  0.49341039398E+03  0.47000000000E+01 0. -1.
         -5    1    5    5    0  503 -0.22887271017E+02 -0.31767409867E+02 -0.43228255232E+02  0.58512969115E+02  0.47000000000E+01 0. -1.
<mgrwt>
<rscale>  0 0.27508738E+03</rscale>
<asrwt>0</asrwt>
<pdfrwt beam="1">  1        2 0.13363688E+00 0.27508738E+03</pdfrwt>
<pdfrwt beam="2">  1       -2 0.33506442E-02 0.27508738E+03</pdfrwt>
<totfact> 0.11399242E+04</totfact>
</mgrwt>
</event>
<event>
 9    1  0.7816570E-001  0.2702209E+03  0.7818608E-02  0.1101153E+00
         -1   -1    0    0    0  501 -0.00000000000E+00  0.00000000000E+00  0.11499220205E+03  0.11499220205E+03  0.00000000000E+00 0.  1.
          1   -1    0    0  501    0  0.00000000000E+00 -0.00000000000E+00 -0.15874846276E+03  0.15874846276E+03  0.00000000000E+00 0.  1.
         35    2    1    2    0    0 -0.53290705182E-14  0.71054273576E-14 -0.43756260706E+02  0.27374066481E+03  0.27022091189E+03 0.  0.
         25    2    3    3    0    0  0.48635105933E+01  0.37799905819E+02 -0.52507830661E+02  0.14276847531E+03  0.12717420590E+03 0.  0.
         25    2    3    3    0    0 -0.48635105933E+01 -0.37799905819E+02  0.87515699547E+01  0.13097218951E+03  0.12499855132E+03 0.  0.
          5    1    4    4  502    0  0.41119744739E+02  0.12914904740E+02 -0.79787715308E+02  0.90806374699E+02  0.47000000000E+01 0. -1.
         -5    1    4    4    0  502 -0.36256234146E+02  0.24885001079E+02  0.27279884647E+02  0.51962100607E+02  0.47000000000E+01 0. -1.
          5    1    5    5  503    0 -0.26774981532E+01  0.32758346842E+02 -0.34635950389E+02  0.47979342884E+02  0.47000000000E+01 0. -1.
         -5    1    5    5    0  503 -0.21860124401E+01 -0.70558252661E+02  0.43387520344E+02  0.82992846623E+02  0.47000000000E+01 0. -1.
<mgrwt>
<rscale>  0 0.27022091E+03</rscale>
<asrwt>0</asrwt>
<pdfrwt beam="1">  1        1 0.24422840E-01 0.27022091E+03</pdfrwt>
<pdfrwt beam="2">  1       -1 0.17691108E-01 0.27022091E+03</pdfrwt>
<totfact> 0.48195191E+03</totfact>
</mgrwt>
</event>
<event>
 9    1  0.7816570E-001  0.2707155E+03  0.7818608E-02  0.1100871E+00
         -2   -1    0    0    0  501 -0.00000000000E+00  0.00000000000E+00  0.14607717094E+02  0.14607717094E+02  0.00000000000E+00 0. -1.
          2   -1    0    0  501    0  0.00000000000E+00 -0.00000000000E+00 -0.12542492053E+04  0.12542492053E+04  0.00000000000E+00 0. -1.
         35    2    1    2    0    0  0.00000000000E+00  0.00000000000E+00 -0.12396414882E+04  0.12688569223E+04  0.27071547836E+03 0.  0.
         25    2    3    3    0    0 -0.41927791408E+02  0.91717496966E+01 -0.48493608622E+03  0.50266902899E+03  0.12518420151E+03 0.  0.
         25    2    3    3    0    0  0.41927791408E+02 -0.91717496966E+01 -0.75470540194E+03  0.76618789335E+03  0.12498633332E+03 0.  0.
          5    1    4    4  502    0  0.41399385593E+02 -0.11032833899E+02 -0.21939804890E+03  0.22359165104E+03  0.47000000000E+01 0. -1.
         -5    1    4    4    0  502 -0.83327177001E+02  0.20204583596E+02 -0.26553803732E+03  0.27907737796E+03  0.47000000000E+01 0. -1.
          5    1    5    5  503    0  0.79618274107E+02 -0.11777005078E+02 -0.32702480060E+03  0.33681608873E+03  0.47000000000E+01 0. -1.
         -5    1    5    5    0  503 -0.37690482699E+02  0.26052553816E+01 -0.42768060134E+03  0.42937180462E+03  0.47000000000E+01 0. -1.
<mgrwt>
<rscale>  0 0.27071548E+03</rscale>
<asrwt>0</asrwt>
<pdfrwt beam="1">  1        2 0.19296151E+00 0.27071548E+03</pdfrwt>
<pdfrwt beam="2">  1       -2 0.22473400E-02 0.27071548E+03</pdfrwt>
<totfact> 0.12093931E+04</totfact>
</mgrwt>
</event>
<event>
 9    1  0.7816570E-001  0.2931843E+03  0.7818608E-02  0.1088698E+00
          2   -1    0    0  501    0  0.00000000000E+00  0.00000000000E+00  0.18266339079E+03  0.18266339079E+03  0.00000000000E+00 0. -1.
         -2   -1    0    0    0  501 -0.00000000000E+00 -0.00000000000E+00 -0.11764404581E+03  0.11764404581E+03  0.00000000000E+00 0. -1.
         35    2    1    2    0    0  0.71054273576E-14  0.71054273576E-14  0.65019344980E+02  0.30030743659E+03  0.29318431276E+03 0.  0.
         25    2    3    3    0    0  0.49386707570E+02  0.59041414818E+02  0.36535773172E+02  0.15112506696E+03  0.12481581468E+03 0.  0.
         25    2    3    3    0    0 -0.49386707570E+02 -0.59041414818E+02  0.28483571808E+02  0.14918236963E+03  0.12457580021E+03 0.  0.
          5    1    4    4  502    0  0.60767586191E+01  0.11041234211E+02 -0.44996973057E+02  0.46964384724E+02  0.47000000000E+01 0.  1.
         -5    1    4    4    0  502  0.43309948951E+02  0.48000180606E+02  0.81532746229E+02  0.10416068224E+03  0.47000000000E+01 0.  1.
          5    1    5    5  503    0 -0.50666095270E+02 -0.18223976912E+02 -0.41415507917E+02  0.68091855903E+02  0.47000000000E+01 0.  1.
         -5    1    5    5    0  503  0.12793877000E+01 -0.40817437906E+02  0.69899079725E+02  0.81090513726E+02  0.47000000000E+01 0.  1.
<mgrwt>
<rscale>  0 0.29318431E+03</rscale>
<asrwt>0</asrwt>
<pdfrwt beam="1">  1        2 0.28102060E-01 0.29318431E+03</pdfrwt>
<pdfrwt beam="2">  1       -2 0.18099084E-01 0.29318431E+03</pdfrwt>
<totfact> 0.46885114E+03</totfact>
</mgrwt>
</event>
<event>
 9    1  0.7816570E-001  0.2730075E+03  0.7818608E-02  0.1099571E+00
         -1   -1    0    0    0  501 -0.00000000000E+00  0.00000000000E+00  0.14901458611E+02  0.14901458611E+02  0.00000000000E+00 0. -1.
          1   -1    0    0  501    0  0.00000000000E+00 -0.00000000000E+00 -0.12504330495E+04  0.12504330495E+04  0.00000000000E+00 0. -1.
         35    2    1    2    0    0  0.71054273576E-14 -0.71054273576E-14 -0.12355315908E+04  0.12653345081E+04  0.27300751882E+03 0.  0.
         25    2    3    3    0    0  0.28434444840E+02 -0.38450213759E+02 -0.67302356404E+03  0.68632900056E+03  0.12569742504E+03 0.  0.
         25    2    3    3    0    0 -0.28434444840E+02  0.38450213759E+02 -0.56250802681E+03  0.57900550751E+03  0.12862799429E+03 0.  0.
          5    1    4    4  502    0 -0.23575243464E+02  0.35919578077E+02 -0.24211721760E+03  0.24594480123E+03  0.47000000000E+01 0.  1.
         -5    1    4    4    0  502  0.52009688304E+02 -0.74369791837E+02 -0.43090634644E+03  0.44038419933E+03  0.47000000000E+01 0.  1.
          5    1    5    5  503    0 -0.15964576284E+01  0.16461153167E+02 -0.18918232158E+01  0.17297029677E+02  0.47000000000E+01 0. -1.
         -5    1    5    5    0  503 -0.26837987212E+02  0.21989060592E+02 -0.56061620359E+03  0.56170847783E+03  0.47000000000E+01 0. -1.
<mgrwt>
<rscale>  0 0.27300752E+03</rscale>
<asrwt>0</asrwt>
<pdfrwt beam="1">  1        1 0.19237435E+00 0.27300752E+03</pdfrwt>
<pdfrwt beam="2">  1       -1 0.22925317E-02 0.27300752E+03</pdfrwt>
<totfact> 0.59226470E+03</totfact>
</mgrwt>
</event>
<event>
 9    1  0.7816570E-001  0.2675595E+03  0.7818608E-02  0.1102685E+00
         -2   -1    0    0    0  501 -0.00000000000E+00  0.00000000000E+00  0.16614392160E+03  0.16614392160E+03  0.00000000000E+00 0. -1.
          2   -1    0    0  501    0  0.00000000000E+00 -0.00000000000E+00 -0.10772002176E+03  0.10772002176E+03  0.00000000000E+00 0. -1.
         35    2    1    2    0    0  0.00000000000E+00  0.00000000000E+00  0.58423899847E+02  0.27386394336E+03  0.26755953991E+03 0.  0.
         25    2    3    3    0    0 -0.39200922786E+02  0.17811530811E+02  0.33733363165E+02  0.13948222995E+03  0.12830974127E+03 0.  0.
         25    2    3    3    0    0  0.39200922786E+02 -0.17811530811E+02  0.24690536682E+02  0.13438171340E+03  0.12487937908E+03 0.  0.
          5    1    4    4  502    0  0.31232993516E+02  0.47573353273E+02  0.25143923858E+02  0.62394156237E+02  0.47000000000E+01 0. -1.
         -5    1    4    4    0  502 -0.70433916302E+02 -0.29761822461E+02  0.85894393067E+01  0.77088073718E+02  0.47000000000E+01 0. -1.
          5    1    5    5  503    0  0.66824174507E+02 -0.16512566834E+02 -0.28182784329E+02  0.74528481096E+02  0.47000000000E+01 0. -1.
         -5    1    5    5    0  503 -0.27623251721E+02 -0.12989639774E+01  0.52873321011E+02  0.59853232308E+02  0.47000000000E+01 0. -1.
<mgrwt>
<rscale>  0 0.26755954E+03</rscale>
<asrwt>0</asrwt>
<pdfrwt beam="1">  1        2 0.16572311E-01 0.26755954E+03</pdfrwt>
<pdfrwt beam="2">  1       -2 0.25560603E-01 0.26755954E+03</pdfrwt>
<totfact> 0.46917591E+03</totfact>
</mgrwt>
</event>
<event>
 9    1  0.7816570E-001  0.2739787E+03  0.7818608E-02  0.1099024E+00
          1   -1    0    0  501    0  0.00000000000E+00  0.00000000000E+00  0.23814770794E+03  0.23814770794E+03  0.00000000000E+00 0. -1.
         -1   -1    0    0    0  501 -0.00000000000E+00 -0.00000000000E+00 -0.78800183192E+02  0.78800183192E+02  0.00000000000E+00 0. -1.
         35    2    1    2    0    0  0.00000000000E+00 -0.71054273576E-14  0.15934752475E+03  0.31694789113E+03  0.27397870729E+03 0.  0.
         25    2    3    3    0    0  0.34509503931E+02  0.28101092149E+02  0.42345169484E+02  0.14002755033E+03  0.12583331924E+03 0.  0.
         25    2    3    3    0    0 -0.34509503931E+02 -0.28101092149E+02  0.11700235526E+03  0.17692034081E+03  0.12502271238E+03 0.  0.
          5    1    4    4  502    0 -0.16065838350E+02  0.67186923680E+02  0.18789965770E+02  0.71745011597E+02  0.47000000000E+01 0.  1.
         -5    1    4    4    0  502  0.50575342281E+02 -0.39085831531E+02  0.23555203714E+02  0.68282538729E+02  0.47000000000E+01 0.  1.
          5    1    5    5  503    0 -0.74100988320E+02 -0.20763819791E+02  0.11214591951E+03  0.13609147638E+03  0.47000000000E+01 0.  1.
         -5    1    5    5    0  503  0.39591484389E+02 -0.73372723576E+01  0.48564357599E+01  0.40828864423E+02  0.47000000000E+01 0.  1.
<mgrwt>
<rscale>  0 0.27397871E+03</rscale>
<asrwt>0</asrwt>
<pdfrwt beam="1">  1        1 0.36638109E-01 0.27397871E+03</pdfrwt>
<pdfrwt beam="2">  1       -1 0.12123105E-01 0.27397871E+03</pdfrwt>
<totfact> 0.52575477E+03</totfact>
</mgrwt>
</event>
<event>
 9    1  0.7816570E-001  0.2754190E+03  0.7818608E-02  0.1098218E+00
         -2   -1    0    0    0  501 -0.00000000000E+00  0.00000000000E+00  0.15684639619E+03  0.15684639619E+03  0.00000000000E+00 0. -1.
          2   -1    0    0  501    0  0.00000000000E+00 -0.00000000000E+00 -0.12090754253E+03  0.12090754253E+03  0.00000000000E+00 0. -1.
         35    2    1    2    0    0 -0.35527136788E-14  0.00000000000E+00  0.35938853657E+02  0.27775393872E+03  0.27541904305E+03 0.  0.
         25    2    3    3    0    0 -0.25505008830E+02 -0.54265531808E+02  0.21807279962E+02  0.13823793927E+03  0.12263326211E+03 0.  0.
         25    2    3    3    0    0  0.25505008830E+02  0.54265531808E+02  0.14131573695E+02  0.13951599945E+03  0.12517890920E+03 0.  0.
          5    1    4    4  502    0 -0.56799602069E+02  0.30298564486E+01 -0.20108787360E+02  0.60513041193E+02  0.47000000000E+01 0. -1.
         -5    1    4    4    0  502  0.31294593239E+02 -0.57295388257E+02  0.41916067322E+02  0.77724898078E+02  0.47000000000E+01 0. -1.
          5    1    5    5  503    0 -0.23696210214E+02  0.78833980682E+02 -0.34986226790E+00  0.82453133914E+02  0.47000000000E+01 0. -1.
         -5    1    5    5    0  503  0.49201219044E+02 -0.24568448873E+02  0.14481435963E+02  0.57062865534E+02  0.47000000000E+01 0. -1.
<mgrwt>
<rscale>  0 0.27541904E+03</rscale>
<asrwt>0</asrwt>
<pdfrwt beam="1">  1        2 0.18601160E-01 0.27541904E+03</pdfrwt>
<pdfrwt beam="2">  1       -2 0.24130215E-01 0.27541904E+03</pdfrwt>
<totfact> 0.45447035E+03</totfact>
</mgrwt>
</event>
<event>
 9    1  0.7816570E-001  0.2754744E+03  0.7818608E-02  0.1098187E+00
         -2   -1    0    0    0  501 -0.00000000000E+00  0.00000000000E+00  0.11728121806E+03  0.11728121806E+03  0.00000000000E+00 0.  1.
          2   -1    0    0  501    0  0.00000000000E+00 -0.00000000000E+00 -0.16176108515E+03  0.16176108515E+03  0.00000000000E+00 0.  1.
         35    2    1    2    0    0  0.00000000000E+00  0.35527136788E-14 -0.44479867092E+02  0.27904230321E+03  0.27547440608E+03 0.  0.
         25    2    3    3    0    0 -0.46402443134E+02  0.11572420085E+02  0.15347790233E+02  0.13275104304E+03  0.12288277800E+03 0.  0.
         25    2    3    3    0    0  0.46402443134E+02 -0.11572420085E+02 -0.59827657325E+02  0.14629126017E+03  0.12463818270E+03 0.  0.
          5    1    4    4  502    0 -0.86372090975E+02 -0.47890433652E+01 -0.13010209569E+00  0.86632441743E+02  0.47000000000E+01 0.  1.
         -5    1    4    4    0  502  0.39969647841E+02  0.16361463450E+02  0.15477892329E+02  0.46118601298E+02  0.47000000000E+01 0.  1.
          5    1    5    5  503    0  0.64643873736E+02  0.17301303863E+02 -0.81509137566E+02  0.10556512224E+03  0.47000000000E+01 0.  1.
         -5    1    5    5    0  503 -0.18241430603E+02 -0.28873723949E+02  0.21681480242E+02  0.40726137928E+02  0.47000000000E+01 0.  1.
<mgrwt>
<rscale>  0 0.27547441E+03</rscale>
<asrwt>0</asrwt>
<pdfrwt beam="1">  1        2 0.24886321E-01 0.27547441E+03</pdfrwt>
<pdfrwt beam="2">  1       -2 0.18043264E-01 0.27547441E+03</pdfrwt>
<totfact> 0.53843864E+03</totfact>
</mgrwt>
</event>
<event>
 9    1  0.7816570E-001  0.2767524E+03  0.7818608E-02  0.1097476E+00
          4   -1    0    0  501    0  0.00000000000E+00  0.00000000000E+00  0.10071412105E+03  0.10071412105E+03  0.00000000000E+00 0.  1.
         -4   -1    0    0    0  501 -0.00000000000E+00 -0.00000000000E+00 -0.19012201423E+03  0.19012201423E+03  0.00000000000E+00 0.  1.
         35    2    1    2    0    0  0.00000000000E+00  0.00000000000E+00 -0.89407893179E+02  0.29083613527E+03  0.27675239153E+03 0.  0.
         25    2    3    3    0    0 -0.36769933845E+02  0.33224996233E+02 -0.77716509260E+02  0.15550965700E+03  0.12524962754E+03 0.  0.
         25    2    3    3    0    0  0.36769933845E+02 -0.33224996233E+02 -0.11691383920E+02  0.13532647827E+03  0.12538197180E+03 0.  0.
          5    1    4    4  502    0  0.25607013569E+02  0.21384496041E+02 -0.84996402448E+02  0.91430269846E+02  0.47000000000E+01 0.  1.
         -5    1    4    4    0  502 -0.62376947414E+02  0.11840500192E+02  0.72798931887E+01  0.64079387157E+02  0.47000000000E+01 0.  1.
          5    1    5    5  503    0  0.52187331216E+02 -0.42140977040E+02 -0.55894280838E+02  0.87439351071E+02  0.47000000000E+01 0.  1.
         -5    1    5    5    0  503 -0.15417397370E+02  0.89159808073E+01  0.44202896918E+02  0.47887127199E+02  0.47000000000E+01 0.  1.
<mgrwt>
<rscale>  0 0.27675239E+03</rscale>
<asrwt>0</asrwt>
<pdfrwt beam="1">  1        4 0.15494480E-01 0.27675239E+03</pdfrwt>
<pdfrwt beam="2">  1       -4 0.29249541E-01 0.27675239E+03</pdfrwt>
<totfact> 0.74547892E+02</totfact>
</mgrwt>
</event>
<event>
 9    1  0.7816570E-001  0.2923236E+03  0.7818608E-02  0.1089142E+00
          2   -1    0    0  501    0  0.00000000000E+00  0.00000000000E+00  0.75383436000E+03  0.75383436000E+03  0.00000000000E+00 0.  1.
         -2   -1    0    0    0  501 -0.00000000000E+00 -0.00000000000E+00 -0.28339478297E+02  0.28339478297E+02  0.00000000000E+00 0.  1.
         35    2    1    2    0    0  0.00000000000E+00  0.00000000000E+00  0.72549488170E+03  0.78217383829E+03  0.29232360483E+03 0.  0.
         25    2    3    3    0    0 -0.60691112346E+02  0.44040515719E+02  0.39473298972E+03  0.42079891115E+03  0.12503844333E+03 0.  0.
         25    2    3    3    0    0  0.60691112346E+02 -0.44040515719E+02  0.33076189197E+03  0.36137492714E+03  0.12476149502E+03 0.  0.
          5    1    4    4  502    0 -0.98486143095E+02  0.20315050487E+02  0.26118353796E+03  0.27991275812E+03  0.47000000000E+01 0.  1.
         -5    1    4    4    0  502  0.37795030750E+02  0.23725465232E+02  0.13354945177E+03  0.14088615303E+03  0.47000000000E+01 0.  1.
          5    1    5    5  503    0  0.79536884509E+02  0.14742490867E+01  0.27731042228E+03  0.28853327315E+03  0.47000000000E+01 0.  1.
         -5    1    5    5    0  503 -0.18845772163E+02 -0.45514764806E+02  0.53451469696E+02  0.72841653992E+02  0.47000000000E+01 0.  1.
<mgrwt>
<rscale>  0 0.29232360E+03</rscale>
<asrwt>0</asrwt>
<pdfrwt beam="1">  1        2 0.11597450E+00 0.29232360E+03</pdfrwt>
<pdfrwt beam="2">  1       -2 0.43599203E-02 0.29232360E+03</pdfrwt>
<totfact> 0.92199718E+03</totfact>
</mgrwt>
</event>
<event>
 9    1  0.7816570E-001  0.2734925E+03  0.7818608E-02  0.1099297E+00
          2   -1    0    0  501    0  0.00000000000E+00  0.00000000000E+00  0.30423878124E+04  0.30423878124E+04  0.00000000000E+00 0.  1.
         -2   -1    0    0    0  501 -0.00000000000E+00 -0.00000000000E+00 -0.61463339844E+01  0.61463339844E+01  0.00000000000E+00 0.  1.
         35    2    1    2    0    0  0.14210854715E-13  0.71054273576E-14  0.30362414784E+04  0.30485341464E+04  0.27349246136E+03 0.  0.
         25    2    3    3    0    0  0.43381710350E+02 -0.32878773080E+02  0.16236902497E+04  0.16294434188E+04  0.12551032483E+03 0.  0.
         25    2    3    3    0    0 -0.43381710350E+02  0.32878773080E+02  0.14125512287E+04  0.14190907276E+04  0.12471781273E+03 0.  0.
          5    1    4    4  502    0 -0.20245434964E+02 -0.62248138847E+02  0.88016158722E+03  0.88260479153E+03  0.47000000000E+01 0.  1.
         -5    1    4    4    0  502  0.63627145314E+02  0.29369365766E+02  0.74352866247E+03  0.74683862727E+03  0.47000000000E+01 0.  1.
          5    1    5    5  503    0  0.31779892899E+02 -0.18852392237E+02  0.22813830408E+03  0.23115914447E+03  0.47000000000E+01 0. -1.
         -5    1    5    5    0  503 -0.75161603249E+02  0.51731165317E+02  0.11844129247E+04  0.11879315831E+04  0.47000000000E+01 0. -1.
<mgrwt>
<rscale>  0 0.27349246E+03</rscale>
<asrwt>0</asrwt>
<pdfrwt beam="1">  1        2 0.46805846E+00 0.27349246E+03</pdfrwt>
<pdfrwt beam="2">  1       -2 0.94559227E-03 0.27349246E+03</pdfrwt>
<totfact> 0.45471457E+03</totfact>
</mgrwt>
</event>
<event>
 9    1  0.7816570E-001  0.2751553E+03  0.7818608E-02  0.1098365E+00
         -2   -1    0    0    0  501 -0.00000000000E+00  0.00000000000E+00  0.19334265167E+02  0.19334265167E+02  0.00000000000E+00 0.  1.
          2   -1    0    0  501    0  0.00000000000E+00 -0.00000000000E+00 -0.97896683082E+03  0.97896683082E+03  0.00000000000E+00 0.  1.
         35    2    1    2    0    0  0.00000000000E+00  0.00000000000E+00 -0.95963256565E+03  0.99830109598E+03  0.27515526015E+03 0.  0.
         25    2    3    3    0    0 -0.14458769202E+02  0.58471770643E+02 -0.43429442728E+03  0.45563610749E+03  0.12395405971E+03 0.  0.
         25    2    3    3    0    0  0.14458769202E+02 -0.58471770643E+02 -0.52533813837E+03  0.54266498849E+03  0.12197182517E+03 0.  0.
          5    1    4    4  502    0  0.45201003496E+02  0.16142031650E+02 -0.28794327259E+03  0.29195395893E+03  0.47000000000E+01 0. -1.
         -5    1    4    4    0  502 -0.59659772697E+02  0.42329738993E+02 -0.14635115468E+03  0.16368214856E+03  0.47000000000E+01 0. -1.
          5    1    5    5  503    0 -0.16661751288E+02 -0.51861675084E+02 -0.49640019147E+03  0.49940212994E+03  0.47000000000E+01 0. -1.
         -5    1    5    5    0  503  0.31120520489E+02 -0.66100955585E+01 -0.28937946903E+02  0.43262858548E+02  0.47000000000E+01 0. -1.
<mgrwt>
<rscale>  0 0.27515526E+03</rscale>
<asrwt>0</asrwt>
<pdfrwt beam="1">  1        2 0.15061030E+00 0.27515526E+03</pdfrwt>
<pdfrwt beam="2">  1       -2 0.29745019E-02 0.27515526E+03</pdfrwt>
<totfact> 0.11577826E+04</totfact>
</mgrwt>
</event>
<event>
 9    1  0.7816570E-001  0.2528948E+03  0.7818608E-02  0.1111489E+00
          1   -1    0    0  501    0  0.00000000000E+00  0.00000000000E+00  0.13143700094E+04  0.13143700094E+04  0.00000000000E+00 0.  1.
         -1   -1    0    0    0  501 -0.00000000000E+00 -0.00000000000E+00 -0.12164724539E+02  0.12164724539E+02  0.00000000000E+00 0.  1.
         35    2    1    2    0    0  0.17763568394E-14  0.00000000000E+00  0.13022052849E+04  0.13265347340E+04  0.25289483274E+03 0.  0.
         25    2    3    3    0    0 -0.10174715105E+02  0.12834348369E+02  0.65837642033E+03  0.67049109894E+03  0.12581954378E+03 0.  0.
         25    2    3    3    0    0  0.10174715105E+02 -0.12834348369E+02  0.64382886458E+03  0.65604363504E+03  0.12493757995E+03 0.  0.
          5    1    4    4  502    0  0.22606788050E+02  0.62315971276E+02  0.38644208299E+03  0.39211467793E+03  0.47000000000E+01 0. -1.
         -5    1    4    4    0  502 -0.32781503154E+02 -0.49481622907E+02  0.27193433733E+03  0.27837642101E+03  0.47000000000E+01 0. -1.
          5    1    5    5  503    0 -0.62805597538E+01 -0.15389152916E+02  0.63732446809E+03  0.63755849856E+03  0.47000000000E+01 0.  1.
         -5    1    5    5    0  503  0.16455274858E+02  0.25548045466E+01  0.65043964870E+01  0.18485136478E+02  0.47000000000E+01 0.  1.
<mgrwt>
<rscale>  0 0.25289483E+03</rscale>
<asrwt>0</asrwt>
<pdfrwt beam="1">  1        1 0.20221066E+00 0.25289483E+03</pdfrwt>
<pdfrwt beam="2">  1       -1 0.18714971E-02 0.25289483E+03</pdfrwt>
<totfact> 0.71933229E+03</totfact>
</mgrwt>
</event>
<event>
 9    1  0.7816570E-001  0.2747974E+03  0.7818608E-02  0.1098565E+00
          1   -1    0    0  501    0  0.00000000000E+00  0.00000000000E+00  0.94351991873E+03  0.94351991873E+03  0.00000000000E+00 0. -1.
         -1   -1    0    0    0  501 -0.00000000000E+00 -0.00000000000E+00 -0.20008485669E+02  0.20008485669E+02  0.00000000000E+00 0. -1.
         35    2    1    2    0    0 -0.35527136788E-14  0.00000000000E+00  0.92351143306E+03  0.96352840440E+03  0.27479741463E+03 0.  0.
         25    2    3    3    0    0  0.27133560871E+02 -0.48347933395E+02  0.47227074209E+03  0.49172755321E+03  0.12523010806E+03 0.  0.
         25    2    3    3    0    0 -0.27133560871E+02  0.48347933395E+02  0.45124069097E+03  0.47180085118E+03  0.12611157442E+03 0.  0.
          5    1    4    4  502    0  0.18350042870E+02 -0.49992820275E+01  0.42974298057E+03  0.43018930280E+03  0.47000000000E+01 0.  1.
         -5    1    4    4    0  502  0.87835180010E+01 -0.43348651368E+02  0.42527761519E+02  0.61538250411E+02  0.47000000000E+01 0.  1.
          5    1    5    5  503    0 -0.26016286677E+02  0.44018810838E+02  0.45889993953E+03  0.46176373545E+03  0.47000000000E+01 0. -1.
         -5    1    5    5    0  503 -0.11172741943E+01  0.43291225576E+01 -0.76592485583E+01  0.10037115732E+02  0.47000000000E+01 0. -1.
<mgrwt>
<rscale>  0 0.27479741E+03</rscale>
<asrwt>0</asrwt>
<pdfrwt beam="1">  1        1 0.14515688E+00 0.27479741E+03</pdfrwt>
<pdfrwt beam="2">  1       -1 0.30782293E-02 0.27479741E+03</pdfrwt>
<totfact> 0.64052037E+03</totfact>
</mgrwt>
</event>
<event>
 9    1  0.7816570E-001  0.2672452E+03  0.7818608E-02  0.1102867E+00
         -3   -1    0    0    0  501 -0.00000000000E+00  0.00000000000E+00  0.18332482057E+02  0.18332482057E+02  0.00000000000E+00 0. -1.
          3   -1    0    0  501    0  0.00000000000E+00 -0.00000000000E+00 -0.97395412029E+03  0.97395412029E+03  0.00000000000E+00 0. -1.
         35    2    1    2    0    0  0.00000000000E+00  0.00000000000E+00 -0.95562163823E+03  0.99228660235E+03  0.26724517908E+03 0.  0.
         25    2    3    3    0    0 -0.35558031477E+01  0.31904627595E+02 -0.37445490905E+03  0.39615344145E+03  0.12526181085E+03 0.  0.
         25    2    3    3    0    0  0.35558031477E+01 -0.31904627595E+02 -0.58116672918E+03  0.59613316090E+03  0.12879995894E+03 0.  0.
          5    1    4    4  502    0 -0.20235621325E+02  0.60571307474E+02 -0.34695218987E+03  0.35281195518E+03  0.47000000000E+01 0.  1.
         -5    1    4    4    0  502  0.16679818178E+02 -0.28666679880E+02 -0.27502719186E+02  0.43341486273E+02  0.47000000000E+01 0.  1.
          5    1    5    5  503    0 -0.46285111822E+02 -0.10979361002E+02 -0.47007168239E+03  0.47249585662E+03  0.47000000000E+01 0.  1.
         -5    1    5    5    0  503  0.49840914970E+02 -0.20925266592E+02 -0.11109504679E+03  0.12363730427E+03  0.47000000000E+01 0.  1.
<mgrwt>
<rscale>  0 0.26724518E+03</rscale>
<asrwt>0</asrwt>
<pdfrwt beam="1">  1        3 0.14983913E+00 0.26724518E+03</pdfrwt>
<pdfrwt beam="2">  1       -3 0.28203812E-02 0.26724518E+03</pdfrwt>
<totfact> 0.48830314E+02</totfact>
</mgrwt>
</event>
<event>
 9    1  0.7816570E-001  0.2717574E+03  0.7818608E-02  0.1100278E+00
          2   -1    0    0  501    0  0.00000000000E+00  0.00000000000E+00  0.38262493537E+03  0.38262493537E+03  0.00000000000E+00 0.  1.
         -2   -1    0    0    0  501 -0.00000000000E+00 -0.00000000000E+00 -0.48253580710E+02  0.48253580710E+02  0.00000000000E+00 0.  1.
         35    2    1    2    0    0  0.00000000000E+00 -0.35527136788E-14  0.33437135466E+03  0.43087851608E+03  0.27175741536E+03 0.  0.
         25    2    3    3    0    0  0.72626210416E+01 -0.92945960613E+01  0.84345190572E+02  0.15091035094E+03  0.12458205195E+03 0.  0.
         25    2    3    3    0    0 -0.72626210416E+01  0.92945960613E+01  0.25002616409E+03  0.27996816514E+03  0.12541911968E+03 0.  0.
          5    1    4    4  502    0  0.35091896618E+02  0.10304536781E+02 -0.19369362343E+02  0.41651973352E+02  0.47000000000E+01 0.  1.
         -5    1    4    4    0  502 -0.27829275577E+02 -0.19599132842E+02  0.10371455292E+03  0.10925837759E+03  0.47000000000E+01 0.  1.
          5    1    5    5  503    0 -0.57211617389E+01  0.59816317715E+02  0.67403558340E+02  0.90421530807E+02  0.47000000000E+01 0.  1.
         -5    1    5    5    0  503 -0.15414593026E+01 -0.50521721654E+02  0.18262260575E+03  0.18954663433E+03  0.47000000000E+01 0.  1.
<mgrwt>
<rscale>  0 0.27175742E+03</rscale>
<asrwt>0</asrwt>
<pdfrwt beam="1">  1        2 0.58865373E-01 0.27175742E+03</pdfrwt>
<pdfrwt beam="2">  1       -2 0.74236281E-02 0.27175742E+03</pdfrwt>
<totfact> 0.88448843E+03</totfact>
</mgrwt>
</event>
<event>
 9    1  0.7816570E-001  0.2741620E+03  0.7818608E-02  0.1098921E+00
          2   -1    0    0  501    0  0.00000000000E+00  0.00000000000E+00  0.87885466155E+02  0.87885466155E+02  0.00000000000E+00 0.  1.
         -2   -1    0    0    0  501 -0.00000000000E+00 -0.00000000000E+00 -0.21381459804E+03  0.21381459804E+03  0.00000000000E+00 0.  1.
         35    2    1    2    0    0  0.00000000000E+00  0.00000000000E+00 -0.12592913189E+03  0.30170006420E+03  0.27416196395E+03 0.  0.
         25    2    3    3    0    0 -0.51449072004E+01  0.66250908003E+02 -0.62056582080E+02  0.14618444974E+03  0.11446930193E+03 0.  0.
         25    2    3    3    0    0  0.51449072004E+01 -0.66250908003E+02 -0.63872549809E+02  0.15551561446E+03  0.12525873559E+03 0.  0.
          5    1    4    4  502    0 -0.42404489955E+02  0.72651532342E+02 -0.14896369235E+02  0.85559206029E+02  0.47000000000E+01 0.  1.
         -5    1    4    4    0  502  0.37259582755E+02 -0.64006243388E+01 -0.47160212845E+02  0.60625243707E+02  0.47000000000E+01 0.  1.
          5    1    5    5  503    0  0.46735755401E+02  0.21140908415E+01  0.81884158515E+01  0.47726725921E+02  0.47000000000E+01 0.  1.
         -5    1    5    5    0  503 -0.41590848201E+02 -0.68364998844E+02 -0.72060965661E+02  0.10778888854E+03  0.47000000000E+01 0.  1.
<mgrwt>
<rscale>  0 0.27416196E+03</rscale>
<asrwt>0</asrwt>
<pdfrwt beam="1">  1        2 0.13520841E-01 0.27416196E+03</pdfrwt>
<pdfrwt beam="2">  1       -2 0.32894554E-01 0.27416196E+03</pdfrwt>
<totfact> 0.37896794E+03</totfact>
</mgrwt>
</event>
<event>
 9    1  0.7816570E-001  0.2796344E+03  0.7818608E-02  0.1095889E+00
         -1   -1    0    0    0  501 -0.00000000000E+00  0.00000000000E+00  0.18450774616E+03  0.18450774616E+03  0.00000000000E+00 0.  1.
          1   -1    0    0  501    0  0.00000000000E+00 -0.00000000000E+00 -0.10595136736E+03  0.10595136736E+03  0.00000000000E+00 0.  1.
         35    2    1    2    0    0  0.71054273576E-14 -0.35527136788E-14  0.78556378797E+02  0.29045911352E+03  0.27963438984E+03 0.  0.
         25    2    3    3    0    0  0.39998844292E+02  0.22522267407E+02  0.83824562410E+02  0.15717756736E+03  0.12478409491E+03 0.  0.
         25    2    3    3    0    0 -0.39998844292E+02 -0.22522267407E+02 -0.52681836127E+01  0.13328154617E+03  0.12501622581E+03 0.  0.
          5    1    4    4  502    0  0.32222159173E+02 -0.30606981159E+02 -0.12843036264E+02  0.46498262526E+02  0.47000000000E+01 0. -1.
         -5    1    4    4    0  502  0.77766851194E+01  0.53129248566E+02  0.96667598674E+02  0.11067930483E+03  0.47000000000E+01 0. -1.
          5    1    5    5  503    0 -0.35374310702E+02  0.50589611606E+01 -0.60941514368E+02  0.70801787542E+02  0.47000000000E+01 0. -1.
         -5    1    5    5    0  503 -0.46245335897E+01 -0.27581228568E+02  0.55673330755E+02  0.62479758623E+02  0.47000000000E+01 0. -1.
<mgrwt>
<rscale>  0 0.27963439E+03</rscale>
<asrwt>0</asrwt>
<pdfrwt beam="1">  1        1 0.16300210E-01 0.27963439E+03</pdfrwt>
<pdfrwt beam="2">  1       -1 0.28385807E-01 0.27963439E+03</pdfrwt>
<totfact> 0.37322325E+03</totfact>
</mgrwt>
</event>
<event>
 9    1  0.7816570E-001  0.2646174E+03  0.7818608E-02  0.1104400E+00
          1   -1    0    0  501    0  0.00000000000E+00  0.00000000000E+00  0.56475310756E+03  0.56475310756E+03  0.00000000000E+00 0.  1.
         -1   -1    0    0    0  501 -0.00000000000E+00 -0.00000000000E+00 -0.30996887430E+02  0.30996887430E+02  0.00000000000E+00 0.  1.
         35    2    1    2    0    0  0.00000000000E+00 -0.44408920985E-15  0.53375622013E+03  0.59574999499E+03  0.26461737283E+03 0.  0.
         25    2    3    3    0    0 -0.82432934962E+01  0.37363476284E+01  0.18575526057E+03  0.22471195335E+03  0.12612903301E+03 0.  0.
         25    2    3    3    0    0  0.82432934962E+01 -0.37363476284E+01  0.34800095956E+03  0.37103804164E+03  0.12838476665E+03 0.  0.
          5    1    4    4  502    0  0.35070592379E+02 -0.12059710520E+01  0.16347647419E+01  0.35442393708E+02  0.47000000000E+01 0. -1.
         -5    1    4    4    0  502 -0.43313885875E+02  0.49423186804E+01  0.18412049582E+03  0.18926955964E+03  0.47000000000E+01 0. -1.
          5    1    5    5  503    0 -0.23547886282E+02 -0.15089323862E+02  0.33230752422E+03  0.33351547384E+03  0.47000000000E+01 0. -1.
         -5    1    5    5    0  503  0.31791179778E+02  0.11352976233E+02  0.15693435344E+02  0.37522567795E+02  0.47000000000E+01 0. -1.
<mgrwt>
<rscale>  0 0.26461737E+03</rscale>
<asrwt>0</asrwt>
<pdfrwt beam="1">  1        1 0.86885086E-01 0.26461737E+03</pdfrwt>
<pdfrwt beam="2">  1       -1 0.47687523E-02 0.26461737E+03</pdfrwt>
<totfact> 0.71886287E+03</totfact>
</mgrwt>
</event>
<event>
 9    1  0.7816570E-001  0.2826502E+03  0.7818608E-02  0.1094250E+00
         -2   -1    0    0    0  501 -0.00000000000E+00  0.00000000000E+00  0.35041907967E+02  0.35041907967E+02  0.00000000000E+00 0. -1.
          2   -1    0    0  501    0  0.00000000000E+00 -0.00000000000E+00 -0.56996865562E+03  0.56996865562E+03  0.00000000000E+00 0. -1.
         35    2    1    2    0    0  0.71054273576E-14  0.00000000000E+00 -0.53492674765E+03  0.60501056359E+03  0.28265023739E+03 0.  0.
         25    2    3    3    0    0 -0.50485662990E+02 -0.32587374243E+02 -0.20900104548E+03  0.25079269489E+03  0.12491917256E+03 0.  0.
         25    2    3    3    0    0  0.50485662990E+02  0.32587374243E+02 -0.32592570217E+03  0.35421786869E+03  0.12502798102E+03 0.  0.
          5    1    4    4  502    0 -0.33928518080E+02  0.29537384134E+02 -0.17101112063E+02  0.48354311435E+02  0.47000000000E+01 0.  1.
         -5    1    4    4    0  502 -0.16557144910E+02 -0.62124758377E+02 -0.19189993342E+03  0.20243838346E+03  0.47000000000E+01 0.  1.
          5    1    5    5  503    0  0.65043608316E+02  0.30966242149E+02 -0.33040155275E+03  0.33819647425E+03  0.47000000000E+01 0. -1.
         -5    1    5    5    0  503 -0.14557945326E+02  0.16211320943E+01  0.44758505819E+01  0.16021394440E+02  0.47000000000E+01 0. -1.
<mgrwt>
<rscale>  0 0.28265024E+03</rscale>
<asrwt>0</asrwt>
<pdfrwt beam="1">  1        2 0.87687485E-01 0.28265024E+03</pdfrwt>
<pdfrwt beam="2">  1       -2 0.53910628E-02 0.28265024E+03</pdfrwt>
<totfact> 0.93141900E+03</totfact>
</mgrwt>
</event>
<event>
 9    1  0.7816570E-001  0.2942542E+03  0.7818608E-02  0.1088149E+00
         -2   -1    0    0    0  501 -0.00000000000E+00  0.00000000000E+00  0.94823969875E+03  0.94823969875E+03  0.00000000000E+00 0.  1.
          2   -1    0    0  501    0  0.00000000000E+00 -0.00000000000E+00 -0.22827965551E+02  0.22827965551E+02  0.00000000000E+00 0.  1.
         35    2    1    2    0    0  0.00000000000E+00  0.00000000000E+00  0.92541173320E+03  0.97106766430E+03  0.29425419744E+03 0.  0.
         25    2    3    3    0    0  0.74954756183E-01 -0.68698148806E+02  0.33424787395E+03  0.36295074677E+03  0.12366148177E+03 0.  0.
         25    2    3    3    0    0 -0.74954756183E-01  0.68698148806E+02  0.59116385924E+03  0.60811691752E+03  0.12494813178E+03 0.  0.
          5    1    4    4  502    0  0.27096436586E+02  0.67032196973E+01  0.11794666418E+02  0.30665195025E+02  0.47000000000E+01 0.  1.
         -5    1    4    4    0  502 -0.27021481830E+02 -0.75401368504E+02  0.32245320753E+03  0.33228555175E+03  0.47000000000E+01 0.  1.
          5    1    5    5  503    0  0.22128453503E+01  0.87004823917E+02  0.57900208594E+03  0.58552561139E+03  0.47000000000E+01 0. -1.
         -5    1    5    5    0  503 -0.22878001065E+01 -0.18306675110E+02  0.12161773300E+02  0.22591306131E+02  0.47000000000E+01 0. -1.
<mgrwt>
<rscale>  0 0.29425420E+03</rscale>
<asrwt>0</asrwt>
<pdfrwt beam="1">  1        2 0.35119954E-02 0.29425420E+03</pdfrwt>
<pdfrwt beam="2">  1       -2 0.14588300E+00 0.29425420E+03</pdfrwt>
<totfact> 0.86303710E+02</totfact>
</mgrwt>
</event>
<event>
 9    1  0.7816570E-001  0.2744324E+03  0.7818608E-02  0.1098769E+00
          2   -1    0    0  501    0  0.00000000000E+00  0.00000000000E+00  0.13147305432E+03  0.13147305432E+03  0.00000000000E+00 0.  1.
         -2   -1    0    0    0  501 -0.00000000000E+00 -0.00000000000E+00 -0.14321021961E+03  0.14321021961E+03  0.00000000000E+00 0.  1.
         35    2    1    2    0    0  0.14210854715E-13 -0.88817841970E-15 -0.11737165292E+02  0.27468327394E+03  0.27443239592E+03 0.  0.
         25    2    3    3    0    0  0.55039963345E+02  0.26401865326E+01 -0.78133841182E+01  0.13746822159E+03  0.12569842809E+03 0.  0.
         25    2    3    3    0    0 -0.55039963345E+02 -0.26401865326E+01 -0.39237811739E+01  0.13721505235E+03  0.12560336932E+03 0.  0.
          5    1    4    4  502    0  0.13825042459E+02  0.13536981765E+02 -0.63860999406E+02  0.66893190382E+02  0.47000000000E+01 0.  1.
         -5    1    4    4    0  502  0.41214920886E+02 -0.10896795233E+02  0.56047615288E+02  0.70575031204E+02  0.47000000000E+01 0.  1.
          5    1    5    5  503    0 -0.87092440538E+02 -0.10246328520E+02  0.26910142398E+02  0.91849475833E+02  0.47000000000E+01 0.  1.
         -5    1    5    5    0  503  0.32052477192E+02  0.76061419877E+01 -0.30833923572E+02  0.45365576519E+02  0.47000000000E+01 0.  1.
<mgrwt>
<rscale>  0 0.27443240E+03</rscale>
<asrwt>0</asrwt>
<pdfrwt beam="1">  1        2 0.20226624E-01 0.27443240E+03</pdfrwt>
<pdfrwt beam="2">  1       -2 0.22032342E-01 0.27443240E+03</pdfrwt>
<totfact> 0.48364821E+03</totfact>
</mgrwt>
</event>
<event>
 9    1  0.7816570E-001  0.2956389E+03  0.7818608E-02  0.1087441E+00
          1   -1    0    0  501    0  0.00000000000E+00  0.00000000000E+00  0.59037490278E+02  0.59037490278E+02  0.00000000000E+00 0. -1.
         -1   -1    0    0    0  501 -0.00000000000E+00 -0.00000000000E+00 -0.37011378664E+03  0.37011378664E+03  0.00000000000E+00 0. -1.
         35    2    1    2    0    0  0.71054273576E-14  0.00000000000E+00 -0.31107629636E+03  0.42915127692E+03  0.29563889514E+03 0.  0.
         25    2    3    3    0    0  0.24740937569E+02  0.59477304023E+02 -0.21535227082E+03  0.25721754169E+03  0.12503839218E+03 0.  0.
         25    2    3    3    0    0 -0.24740937569E+02 -0.59477304023E+02 -0.95724025544E+02  0.17193373523E+03  0.12746943382E+03 0.  0.
          5    1    4    4  502    0 -0.10789713251E+02  0.18693532449E+02 -0.19941231827E+03  0.20063207307E+03  0.47000000000E+01 0.  1.
         -5    1    4    4    0  502  0.35530650820E+02  0.40783771574E+02 -0.15939952551E+02  0.56585468619E+02  0.47000000000E+01 0.  1.
          5    1    5    5  503    0  0.14249279080E+02 -0.48118819788E+02  0.16066321387E+02  0.52902546772E+02  0.47000000000E+01 0. -1.
         -5    1    5    5    0  503 -0.38990216649E+02 -0.11358484235E+02 -0.11179034693E+03  0.11903118846E+03  0.47000000000E+01 0. -1.
<mgrwt>
<rscale>  0 0.29563890E+03</rscale>
<asrwt>0</asrwt>
<pdfrwt beam="1">  1        1 0.90826906E-02 0.29563890E+03</pdfrwt>
<pdfrwt beam="2">  1       -1 0.56940584E-01 0.29563890E+03</pdfrwt>
<totfact> 0.23491623E+03</totfact>
</mgrwt>
</event>
<event>
 9    1  0.7816570E-001  0.2806160E+03  0.7818608E-02  0.1095353E+00
          2   -1    0    0  501    0  0.00000000000E+00  0.00000000000E+00  0.33232279704E+04  0.33232279704E+04  0.00000000000E+00 0.  1.
         -2   -1    0    0    0  501 -0.00000000000E+00 -0.00000000000E+00 -0.59238581310E+01  0.59238581310E+01  0.00000000000E+00 0.  1.
         35    2    1    2    0    0  0.00000000000E+00  0.00000000000E+00  0.33173041122E+04  0.33291518285E+04  0.28061597270E+03 0.  0.
         25    2    3    3    0    0 -0.63482461180E+02  0.59880354559E+01  0.16376650832E+04  0.16436575914E+04  0.12488984567E+03 0.  0.
         25    2    3    3    0    0  0.63482461180E+02 -0.59880354559E+01  0.16796390290E+04  0.16854942371E+04  0.12505069381E+03 0.  0.
          5    1    4    4  502    0 -0.49668383506E+01 -0.37152151651E+02  0.11462092292E+04  0.11468315652E+04  0.47000000000E+01 0. -1.
         -5    1    4    4    0  502 -0.58515622830E+02  0.43140187107E+02  0.49145585399E+03  0.49682602617E+03  0.47000000000E+01 0. -1.
          5    1    5    5  503    0  0.61611323217E+02  0.48330702205E+02  0.70973587208E+03  0.71405805789E+03  0.47000000000E+01 0. -1.
         -5    1    5    5    0  503  0.18711379634E+01 -0.54318737661E+02  0.96990315697E+03  0.97143617923E+03  0.47000000000E+01 0. -1.
<mgrwt>
<rscale>  0 0.28061597E+03</rscale>
<asrwt>0</asrwt>
<pdfrwt beam="1">  1        2 0.51126435E+00 0.28061597E+03</pdfrwt>
<pdfrwt beam="2">  1       -2 0.91136545E-03 0.28061597E+03</pdfrwt>
<totfact> 0.32193834E+03</totfact>
</mgrwt>
</event>
<event>
 9    1  0.7816570E-001  0.2745212E+03  0.7818608E-02  0.1098720E+00
         -1   -1    0    0    0  501 -0.00000000000E+00  0.00000000000E+00  0.91222127403E+02  0.91222127403E+02  0.00000000000E+00 0.  1.
          1   -1    0    0  501    0  0.00000000000E+00 -0.00000000000E+00 -0.20653396675E+03  0.20653396675E+03  0.00000000000E+00 0.  1.
         35    2    1    2    0    0  0.00000000000E+00 -0.17763568394E-14 -0.11531183935E+03  0.29775609415E+03  0.27452116733E+03 0.  0.
         25    2    3    3    0    0  0.53391931676E+02 -0.37250628267E+01 -0.71490016117E+02  0.15629418494E+03  0.12826720306E+03 0.  0.
         25    2    3    3    0    0 -0.53391931676E+02  0.37250628267E+01 -0.43821823229E+02  0.14146190921E+03  0.12339588771E+03 0.  0.
          5    1    4    4  502    0 -0.35504833831E+02 -0.10524257991E+02  0.63265819697E+01  0.37861178945E+02  0.47000000000E+01 0. -1.
         -5    1    4    4    0  502  0.88896765507E+02  0.67991951642E+01 -0.77816598087E+02  0.11843300600E+03  0.47000000000E+01 0. -1.
          5    1    5    5  503    0 -0.66270250231E+02  0.28277559203E+02  0.17241896846E+02  0.74234354763E+02  0.47000000000E+01 0. -1.
         -5    1    5    5    0  503  0.12878318555E+02 -0.24552496377E+02 -0.61063720075E+02  0.67227554444E+02  0.47000000000E+01 0. -1.
<mgrwt>
<rscale>  0 0.27452117E+03</rscale>
<asrwt>0</asrwt>
<pdfrwt beam="1">  1        1 0.31774456E-01 0.27452117E+03</pdfrwt>
<pdfrwt beam="2">  1       -1 0.14034173E-01 0.27452117E+03</pdfrwt>
<totfact> 0.49971226E+03</totfact>
</mgrwt>
</event>
<event>
 9    1  0.7816570E-001  0.2750787E+03  0.7818608E-02  0.1098408E+00
         -4   -1    0    0    0  501 -0.00000000000E+00  0.00000000000E+00  0.33777185394E+03  0.33777185394E+03  0.00000000000E+00 0. -1.
          4   -1    0    0  501    0  0.00000000000E+00 -0.00000000000E+00 -0.56005478270E+02  0.56005478270E+02  0.00000000000E+00 0. -1.
         35    2    1    2    0    0  0.71054273576E-14  0.00000000000E+00  0.28176637567E+03  0.39377733221E+03  0.27507871038E+03 0.  0.
         25    2    3    3    0    0  0.16429950136E+01 -0.36237658385E+02  0.83910718043E+02  0.15499580857E+03  0.12516718721E+03 0.  0.
         25    2    3    3    0    0 -0.16429950136E+01  0.36237658385E+02  0.19785565763E+03  0.23878152364E+03  0.12866191145E+03 0.  0.
          5    1    4    4  502    0  0.40524896958E+02 -0.58219631037E+02  0.84050494882E+02  0.11008346107E+03  0.47000000000E+01 0. -1.
         -5    1    4    4    0  502 -0.38881901944E+02  0.21981972651E+02 -0.13977683854E+00  0.44912347500E+02  0.47000000000E+01 0. -1.
          5    1    5    5  503    0  0.55746518207E+02  0.49229646599E+02  0.11557067119E+03  0.13751328094E+03  0.47000000000E+01 0.  1.
         -5    1    5    5    0  503 -0.57389513221E+02 -0.12991988214E+02  0.82284986436E+02  0.10126824269E+03  0.47000000000E+01 0.  1.
<mgrwt>
<rscale>  0 0.27507871E+03</rscale>
<asrwt>0</asrwt>
<pdfrwt beam="1">  1        4 0.86162277E-02 0.27507871E+03</pdfrwt>
<pdfrwt beam="2">  1       -4 0.51964899E-01 0.27507871E+03</pdfrwt>
<totfact> 0.65507024E+02</totfact>
</mgrwt>
</event>
<event>
 9    1  0.7816570E-001  0.2766634E+03  0.7818608E-02  0.1097525E+00
         -2   -1    0    0    0  501 -0.00000000000E+00  0.00000000000E+00  0.23643556226E+03  0.23643556226E+03  0.00000000000E+00 0.  1.
          2   -1    0    0  501    0  0.00000000000E+00 -0.00000000000E+00 -0.80933925438E+02  0.80933925438E+02  0.00000000000E+00 0.  1.
         35    2    1    2    0    0  0.35527136788E-14  0.71054273576E-14  0.15550163683E+03  0.31736948770E+03  0.27666339235E+03 0.  0.
         25    2    3    3    0    0 -0.19420858668E+02 -0.56014742359E+02  0.69777300728E+02  0.15416476479E+03  0.12402855273E+03 0.  0.
         25    2    3    3    0    0  0.19420858668E+02  0.56014742359E+02  0.85724336097E+02  0.16320472292E+03  0.12558781258E+03 0.  0.
          5    1    4    4  502    0  0.20068458414E+02 -0.41914087664E+02 -0.23132878732E+02  0.52122488872E+02  0.47000000000E+01 0. -1.
         -5    1    4    4    0  502 -0.39489317082E+02 -0.14100654695E+02  0.92910179459E+02  0.10204227591E+03  0.47000000000E+01 0. -1.
          5    1    5    5  503    0 -0.17079414387E+02 -0.21056649128E+02 -0.14842909260E+02  0.31264849649E+02  0.47000000000E+01 0.  1.
         -5    1    5    5    0  503  0.36500273055E+02  0.77071391487E+02  0.10056724536E+03  0.13193987327E+03  0.47000000000E+01 0.  1.
<mgrwt>
<rscale>  0 0.27666339E+03</rscale>
<asrwt>0</asrwt>
<pdfrwt beam="1">  1        2 0.12451373E-01 0.27666339E+03</pdfrwt>
<pdfrwt beam="2">  1       -2 0.36374702E-01 0.27666339E+03</pdfrwt>
<totfact> 0.34724150E+03</totfact>
</mgrwt>
</event>
<event>
 9    1  0.7816570E-001  0.2787563E+03  0.7818608E-02  0.1096370E+00
         -1   -1    0    0    0  501 -0.00000000000E+00  0.00000000000E+00  0.28407314140E+03  0.28407314140E+03  0.00000000000E+00 0. -1.
          1   -1    0    0  501    0  0.00000000000E+00 -0.00000000000E+00 -0.68384758594E+02  0.68384758594E+02  0.00000000000E+00 0. -1.
         35    2    1    2    0    0 -0.71054273576E-14  0.00000000000E+00  0.21568838281E+03  0.35245790000E+03  0.27875633229E+03 0.  0.
         25    2    3    3    0    0 -0.34952247603E+02 -0.46257470277E+02  0.74155266374E+02  0.15739623649E+03  0.12614736843E+03 0.  0.
         25    2    3    3    0    0  0.34952247603E+02  0.46257470277E+02  0.14153311643E+03  0.19506166351E+03  0.12106203515E+03 0.  0.
          5    1    4    4  502    0  0.29754301295E+02  0.14203809056E+02 -0.10373455050E+02  0.34882161729E+02  0.47000000000E+01 0. -1.
         -5    1    4    4    0  502 -0.64706548898E+02 -0.60461279333E+02  0.84528721424E+02  0.12251407476E+03  0.47000000000E+01 0. -1.
          5    1    5    5  503    0  0.17913141525E+01  0.82931083393E+02  0.74203105656E+02  0.11139553083E+03  0.47000000000E+01 0.  1.
         -5    1    5    5    0  503  0.33160933450E+02 -0.36673613116E+02  0.67330010777E+02  0.83666132679E+02  0.47000000000E+01 0.  1.
<mgrwt>
<rscale>  0 0.27875633E+03</rscale>
<asrwt>0</asrwt>
<pdfrwt beam="1">  1        1 0.10520732E-01 0.27875633E+03</pdfrwt>
<pdfrwt beam="2">  1       -1 0.43703560E-01 0.27875633E+03</pdfrwt>
<totfact> 0.31409839E+03</totfact>
</mgrwt>
</event>
<event>
 9    1  0.7816570E-001  0.2745941E+03  0.7818608E-02  0.1098679E+00
         -1   -1    0    0    0  501 -0.00000000000E+00  0.00000000000E+00  0.74447502974E+01  0.74447502974E+01  0.00000000000E+00 0.  1.
          1   -1    0    0  501    0  0.00000000000E+00 -0.00000000000E+00 -0.25320503814E+04  0.25320503814E+04  0.00000000000E+00 0.  1.
         35    2    1    2    0    0 -0.35527136788E-14  0.00000000000E+00 -0.25246056311E+04  0.25394951317E+04  0.27459412106E+03 0.  0.
         25    2    3    3    0    0  0.10657170377E+02 -0.15155771080E+02 -0.77138335046E+03  0.78166685274E+03  0.12501009008E+03 0.  0.
         25    2    3    3    0    0 -0.10657170377E+02  0.15155771080E+02 -0.17532222806E+04  0.17578282789E+04  0.12581184482E+03 0.  0.
          5    1    4    4  502    0 -0.16568900095E+01 -0.42501715955E+02 -0.72481936705E+03  0.72608150093E+03  0.47000000000E+01 0. -1.
         -5    1    4    4    0  502  0.12314060387E+02  0.27345944875E+02 -0.46563983412E+02  0.55585351807E+02  0.47000000000E+01 0. -1.
          5    1    5    5  503    0 -0.22206289607E+02  0.21048162252E+02 -0.17334229937E+04  0.17336993711E+04  0.47000000000E+01 0.  1.
         -5    1    5    5    0  503  0.11549119230E+02 -0.58923911722E+01 -0.19799286931E+02  0.24128907801E+02  0.47000000000E+01 0.  1.
<mgrwt>
<rscale>  0 0.27459412E+03</rscale>
<asrwt>0</asrwt>
<pdfrwt beam="1">  1        1 0.38954542E+00 0.27459412E+03</pdfrwt>
<pdfrwt beam="2">  1       -1 0.11453485E-02 0.27459412E+03</pdfrwt>
<totfact> 0.23326018E+03</totfact>
</mgrwt>
</event>
<event>
 9    1  0.7816570E-001  0.2728360E+03  0.7818608E-02  0.1099667E+00
         -2   -1    0    0    0  501 -0.00000000000E+00  0.00000000000E+00  0.24766293651E+02  0.24766293651E+02  0.00000000000E+00 0.  1.
          2   -1    0    0  501    0  0.00000000000E+00 -0.00000000000E+00 -0.75141953192E+03  0.75141953192E+03  0.00000000000E+00 0.  1.
         35    2    1    2    0    0 -0.71054273576E-14 -0.71054273576E-14 -0.72665323827E+03  0.77618582557E+03  0.27283604441E+03 0.  0.
         25    2    3    3    0    0  0.38000331341E+02  0.16432154854E+02 -0.26223324355E+03  0.29339280948E+03  0.12489605974E+03 0.  0.
         25    2    3    3    0    0 -0.38000331341E+02 -0.16432154854E+02 -0.46441999472E+03  0.48279301609E+03  0.12525623335E+03 0.  0.
          5    1    4    4  502    0  0.49940779556E+02  0.64336184208E+02 -0.15172248826E+03  0.17226441740E+03  0.47000000000E+01 0.  1.
         -5    1    4    4    0  502 -0.11940448215E+02 -0.47904029354E+02 -0.11051075529E+03  0.12112839208E+03  0.47000000000E+01 0.  1.
          5    1    5    5  503    0 -0.83811055900E+02 -0.17308075736E+02 -0.31300535296E+03  0.32452781631E+03  0.47000000000E+01 0. -1.
         -5    1    5    5    0  503  0.45810724559E+02  0.87592088184E+00 -0.15141464177E+03  0.15826519979E+03  0.47000000000E+01 0. -1.
<mgrwt>
<rscale>  0 0.27283604E+03</rscale>
<asrwt>0</asrwt>
<pdfrwt beam="1">  1        2 0.11560301E+00 0.27283604E+03</pdfrwt>
<pdfrwt beam="2">  1       -2 0.38101989E-02 0.27283604E+03</pdfrwt>
<totfact> 0.11315052E+04</totfact>
</mgrwt>
</event>
<event>
 9    1  0.7816570E-001  0.2760435E+03  0.7818608E-02  0.1097870E+00
          2   -1    0    0  501    0  0.00000000000E+00  0.00000000000E+00  0.22285276014E+03  0.22285276014E+03  0.00000000000E+00 0.  1.
         -2   -1    0    0    0  501 -0.00000000000E+00 -0.00000000000E+00 -0.85482466619E+02  0.85482466619E+02  0.00000000000E+00 0.  1.
         35    2    1    2    0    0  0.71054273576E-14  0.00000000000E+00  0.13737029353E+03  0.30833522676E+03  0.27604350114E+03 0.  0.
         25    2    3    3    0    0 -0.43076131913E+02 -0.34571455638E+02  0.89177332980E+02  0.16344456928E+03  0.12534269754E+03 0.  0.
         25    2    3    3    0    0  0.43076131913E+02  0.34571455638E+02  0.48192960545E+02  0.14489065748E+03  0.12498000837E+03 0.  0.
          5    1    4    4  502    0 -0.30917400594E+02 -0.71503781625E+02  0.14869747138E+02  0.79447314783E+02  0.47000000000E+01 0. -1.
         -5    1    4    4    0  502 -0.12158731319E+02  0.36932325987E+02  0.74307585842E+02  0.83997254502E+02  0.47000000000E+01 0. -1.
          5    1    5    5  503    0  0.85157914425E+02  0.72304787384E+01  0.23483926827E+02  0.88756605564E+02  0.47000000000E+01 0.  1.
         -5    1    5    5    0  503 -0.42081782512E+02  0.27340976899E+02  0.24709033719E+02  0.56134051916E+02  0.47000000000E+01 0.  1.
<mgrwt>
<rscale>  0 0.27604350E+03</rscale>
<asrwt>0</asrwt>
<pdfrwt beam="1">  1        2 0.34285040E-01 0.27604350E+03</pdfrwt>
<pdfrwt beam="2">  1       -2 0.13151149E-01 0.27604350E+03</pdfrwt>
<totfact> 0.63919302E+03</totfact>
</mgrwt>
</event>
<event>
 9    1  0.7816570E-001  0.2773606E+03  0.7818608E-02  0.1097139E+00
          2   -1    0    0  501    0  0.00000000000E+00  0.00000000000E+00  0.13398689671E+03  0.13398689671E+03  0.00000000000E+00 0.  1.
         -2   -1    0    0    0  501 -0.00000000000E+00 -0.00000000000E+00 -0.14353805871E+03  0.14353805871E+03  0.00000000000E+00 0.  1.
         35    2    1    2    0    0 -0.71054273576E-14  0.71054273576E-14 -0.95511619959E+01  0.27752495543E+03  0.27736055269E+03 0.  0.
         25    2    3    3    0    0  0.16389699347E+02 -0.46324725548E+02  0.28862236356E+02  0.13747750870E+03  0.12510968895E+03 0.  0.
         25    2    3    3    0    0 -0.16389699347E+02  0.46324725548E+02 -0.38413398352E+02  0.14004744672E+03  0.12539176894E+03 0.  0.
          5    1    4    4  502    0 -0.13615134454E+02 -0.48559031593E+02  0.69932965239E+02  0.86348486162E+02  0.47000000000E+01 0. -1.
         -5    1    4    4    0  502  0.30004833801E+02  0.22343060453E+01 -0.41070728883E+02  0.51129022540E+02  0.47000000000E+01 0. -1.
          5    1    5    5  503    0  0.51273430908E+02  0.11315735222E+02  0.37454183040E+01  0.52850059025E+02  0.47000000000E+01 0.  1.
         -5    1    5    5    0  503 -0.67663130254E+02  0.35008990326E+02 -0.42158816656E+02  0.87197387697E+02  0.47000000000E+01 0.  1.
<mgrwt>
<rscale>  0 0.27736055E+03</rscale>
<asrwt>0</asrwt>
<pdfrwt beam="1">  1        2 0.20613369E-01 0.27736055E+03</pdfrwt>
<pdfrwt beam="2">  1       -2 0.22082778E-01 0.27736055E+03</pdfrwt>
<totfact> 0.47159491E+03</totfact>
</mgrwt>
</event>
<event>
 9    1  0.7816570E-001  0.2717266E+03  0.7818608E-02  0.1100295E+00
         -1   -1    0    0    0  501 -0.00000000000E+00  0.00000000000E+00  0.21605161582E+03  0.21605161582E+03  0.00000000000E+00 0.  1.
          1   -1    0    0  501    0  0.00000000000E+00 -0.00000000000E+00 -0.85437158377E+02  0.85437158377E+02  0.00000000000E+00 0.  1.
         35    2    1    2    0    0 -0.71054273576E-14  0.00000000000E+00  0.13061445744E+03  0.30148877420E+03  0.27172659876E+03 0.  0.
         25    2    3    3    0    0  0.55181935854E+01  0.45835150683E+02  0.26178178103E+02  0.13322404212E+03  0.12219671391E+03 0.  0.
         25    2    3    3    0    0 -0.55181935854E+01 -0.45835150683E+02  0.10443627934E+03  0.16826473208E+03  0.12359114904E+03 0.  0.
          5    1    4    4  502    0  0.63140271545E+02  0.21815480267E+02  0.50816495206E+01  0.67160421618E+02  0.47000000000E+01 0.  1.
         -5    1    4    4    0  502 -0.57622077960E+02  0.24019670416E+02  0.21096528583E+02  0.66063620499E+02  0.47000000000E+01 0.  1.
          5    1    5    5  503    0  0.37796341773E+02 -0.23924480009E+02  0.11032618750E+03  0.11914235957E+03  0.47000000000E+01 0.  1.
         -5    1    5    5    0  503 -0.43314535358E+02 -0.21910670675E+02 -0.58899081634E+01  0.49122372508E+02  0.47000000000E+01 0.  1.
<mgrwt>
<rscale>  0 0.27172660E+03</rscale>
<asrwt>0</asrwt>
<pdfrwt beam="1">  1        1 0.13144178E-01 0.27172660E+03</pdfrwt>
<pdfrwt beam="2">  1       -1 0.33238710E-01 0.27172660E+03</pdfrwt>
<totfact> 0.37796044E+03</totfact>
</mgrwt>
</event>
<event>
 9    1  0.7816570E-001  0.2682629E+03  0.7818608E-02  0.1102278E+00
         -2   -1    0    0    0  501 -0.00000000000E+00  0.00000000000E+00  0.17284151655E+03  0.17284151655E+03  0.00000000000E+00 0.  1.
          2   -1    0    0  501    0  0.00000000000E+00 -0.00000000000E+00 -0.10409097254E+03  0.10409097254E+03  0.00000000000E+00 0.  1.
         35    2    1    2    0    0 -0.35527136788E-14  0.00000000000E+00  0.68750544014E+02  0.27693248909E+03  0.26826286775E+03 0.  0.
         25    2    3    3    0    0 -0.25302591379E+02  0.39404930582E+02  0.16795143564E+02  0.13356707427E+03  0.12395610835E+03 0.  0.
         25    2    3    3    0    0  0.25302591379E+02 -0.39404930582E+02  0.51955400450E+02  0.14336541482E+03  0.12514515111E+03 0.  0.
          5    1    4    4  502    0 -0.32372460656E+02  0.73709464296E+01  0.66123800421E+02  0.74140097399E+02  0.47000000000E+01 0.  1.
         -5    1    4    4    0  502  0.70698692770E+01  0.32033984153E+02 -0.49328656857E+02  0.59426976868E+02  0.47000000000E+01 0.  1.
          5    1    5    5  503    0  0.93948860464E+01  0.22847759200E+02  0.71700799280E+02  0.75982752002E+02  0.47000000000E+01 0. -1.
         -5    1    5    5    0  503  0.15907705333E+02 -0.62252689782E+02 -0.19745398831E+02  0.67382662822E+02  0.47000000000E+01 0. -1.
<mgrwt>
<rscale>  0 0.26826287E+03</rscale>
<asrwt>0</asrwt>
<pdfrwt beam="1">  1        2 0.16013996E-01 0.26826287E+03</pdfrwt>
<pdfrwt beam="2">  1       -2 0.26591003E-01 0.26826287E+03</pdfrwt>
<totfact> 0.45538288E+03</totfact>
</mgrwt>
</event>
<event>
 9    1  0.7816570E-001  0.2741317E+03  0.7818608E-02  0.1098938E+00
          1   -1    0    0  501    0  0.00000000000E+00  0.00000000000E+00  0.20872244118E+04  0.20872244118E+04  0.00000000000E+00 0. -1.
         -1   -1    0    0    0  501 -0.00000000000E+00 -0.00000000000E+00 -0.90009736074E+01  0.90009736074E+01  0.00000000000E+00 0. -1.
         35    2    1    2    0    0  0.00000000000E+00  0.00000000000E+00  0.20782234381E+04  0.20962253854E+04  0.27413173361E+03 0.  0.
         25    2    3    3    0    0 -0.48275293962E+02  0.29133650317E+02  0.10069347341E+04  0.10162741296E+04  0.12536456515E+03 0.  0.
         25    2    3    3    0    0  0.48275293962E+02 -0.29133650317E+02  0.10712887040E+04  0.10799512557E+04  0.12432197628E+03 0.  0.
          5    1    4    4  502    0 -0.83967170590E+02  0.18121801717E+02  0.87050282951E+03  0.87474347761E+03  0.47000000000E+01 0. -1.
         -5    1    4    4    0  502  0.35691876628E+02  0.11011848600E+02  0.13643190463E+03  0.14153065204E+03  0.47000000000E+01 0. -1.
          5    1    5    5  503    0 -0.41841428024E+02 -0.14444777781E+02  0.30601953222E+03  0.30924003751E+03  0.47000000000E+01 0.  1.
         -5    1    5    5    0  503  0.90116721986E+02 -0.14688872537E+02  0.76526917179E+03  0.77071121820E+03  0.47000000000E+01 0.  1.
<mgrwt>
<rscale>  0 0.27413173E+03</rscale>
<asrwt>0</asrwt>
<pdfrwt beam="1">  1        1 0.32111106E+00 0.27413173E+03</pdfrwt>
<pdfrwt beam="2">  1       -1 0.13847668E-02 0.27413173E+03</pdfrwt>
<totfact> 0.34717220E+03</totfact>
</mgrwt>
</event>
<event>
 9    1  0.7816570E-001  0.2760871E+03  0.7818608E-02  0.1097845E+00
         -2   -1    0    0    0  501 -0.00000000000E+00  0.00000000000E+00  0.14217176698E+02  0.14217176698E+02  0.00000000000E+00 0. -1.
          2   -1    0    0  501    0  0.00000000000E+00 -0.00000000000E+00 -0.13403523212E+04  0.13403523212E+04  0.00000000000E+00 0. -1.
         35    2    1    2    0    0  0.71054273576E-14  0.14210854715E-13 -0.13261351445E+04  0.13545694979E+04  0.27608712963E+03 0.  0.
         25    2    3    3    0    0  0.40529797660E+02  0.47610318683E+02 -0.62074111578E+03  0.63393651074E+03  0.11245692460E+03 0.  0.
         25    2    3    3    0    0 -0.40529797660E+02 -0.47610318683E+02 -0.70539402869E+03  0.72063298712E+03  0.13349816281E+03 0.  0.
          5    1    4    4  502    0  0.19931438460E+02 -0.26485186013E+02 -0.67398427721E+02  0.75255334538E+02  0.47000000000E+01 0.  1.
         -5    1    4    4    0  502  0.20598359200E+02  0.74095504696E+02 -0.55334268806E+03  0.55868117621E+03  0.47000000000E+01 0.  1.
          5    1    5    5  503    0  0.16582251515E+02 -0.79820024567E+02 -0.39644651786E+03  0.40476924155E+03  0.47000000000E+01 0.  1.
         -5    1    5    5    0  503 -0.57112049175E+02  0.32209705883E+02 -0.30894751083E+03  0.31586374557E+03  0.47000000000E+01 0.  1.
<mgrwt>
<rscale>  0 0.27608713E+03</rscale>
<asrwt>0</asrwt>
<pdfrwt beam="1">  1        2 0.20620803E+00 0.27608713E+03</pdfrwt>
<pdfrwt beam="2">  1       -2 0.21872582E-02 0.27608713E+03</pdfrwt>
<totfact> 0.11283251E+04</totfact>
</mgrwt>
</event>
<event>
 9    1  0.7816570E-001  0.2681316E+03  0.7818608E-02  0.1102354E+00
         -1   -1    0    0    0  501 -0.00000000000E+00  0.00000000000E+00  0.36516383268E+02  0.36516383268E+02  0.00000000000E+00 0. -1.
          1   -1    0    0  501    0  0.00000000000E+00 -0.00000000000E+00 -0.49220735192E+03  0.49220735192E+03  0.00000000000E+00 0. -1.
         35    2    1    2    0    0  0.00000000000E+00  0.35527136788E-14 -0.45569096866E+03  0.52872373519E+03  0.26813155212E+03 0.  0.
         25    2    3    3    0    0  0.13072502232E+02 -0.78514499773E+01 -0.13722581479E+03  0.18646374534E+03  0.12532066270E+03 0.  0.
         25    2    3    3    0    0 -0.13072502232E+02  0.78514499773E+01 -0.31846515386E+03  0.34225998985E+03  0.12445605990E+03 0.  0.
          5    1    4    4  502    0 -0.30970520532E+02 -0.10923546519E+02 -0.13812698704E+03  0.14205510043E+03  0.47000000000E+01 0. -1.
         -5    1    4    4    0  502  0.44043022764E+02  0.30720965416E+01  0.90117224373E+00  0.44408644911E+02  0.47000000000E+01 0. -1.
          5    1    5    5  503    0  0.86117388787E+01 -0.55343956679E+02 -0.11397739961E+03  0.12708285962E+03  0.47000000000E+01 0.  1.
         -5    1    5    5    0  503 -0.21684241111E+02  0.63195406656E+02 -0.20448775425E+03  0.21517713023E+03  0.47000000000E+01 0.  1.
<mgrwt>
<rscale>  0 0.26813155E+03</rscale>
<asrwt>0</asrwt>
<pdfrwt beam="1">  1        1 0.75724199E-01 0.26813155E+03</pdfrwt>
<pdfrwt beam="2">  1       -1 0.56179058E-02 0.26813155E+03</pdfrwt>
<totfact> 0.67662852E+03</totfact>
</mgrwt>
</event>
<event>
 9    1  0.7816570E-001  0.2611732E+03  0.7818608E-02  0.1106440E+00
          1   -1    0    0  501    0  0.00000000000E+00  0.00000000000E+00  0.12721173682E+03  0.12721173682E+03  0.00000000000E+00 0. -1.
         -1   -1    0    0    0  501 -0.00000000000E+00 -0.00000000000E+00 -0.13405095628E+03  0.13405095628E+03  0.00000000000E+00 0. -1.
         35    2    1    2    0    0  0.00000000000E+00  0.00000000000E+00 -0.68392194655E+01  0.26126269310E+03  0.26117316073E+03 0.  0.
         25    2    3    3    0    0  0.34627992240E+02  0.55436561229E+01  0.72765363365E+01  0.12904597200E+03  0.12397614666E+03 0.  0.
         25    2    3    3    0    0 -0.34627992240E+02 -0.55436561229E+01 -0.14115755802E+02  0.13221672110E+03  0.12669718547E+03 0.  0.
          5    1    4    4  502    0  0.50279567199E+02  0.34651190320E+02 -0.38537919697E+02  0.72360217820E+02  0.47000000000E+01 0. -1.
         -5    1    4    4    0  502 -0.15651574959E+02 -0.29107534197E+02  0.45814456033E+02  0.56685754184E+02  0.47000000000E+01 0. -1.
          5    1    5    5  503    0 -0.76139790781E+02 -0.28288049239E+02 -0.21318581835E+02  0.84107392073E+02  0.47000000000E+01 0.  1.
         -5    1    5    5    0  503  0.41511798540E+02  0.22744393116E+02  0.72028260327E+01  0.48109329024E+02  0.47000000000E+01 0.  1.
<mgrwt>
<rscale>  0 0.26117316E+03</rscale>
<asrwt>0</asrwt>
<pdfrwt beam="1">  1        1 0.19571036E-01 0.26117316E+03</pdfrwt>
<pdfrwt beam="2">  1       -1 0.20623224E-01 0.26117316E+03</pdfrwt>
<totfact> 0.49885555E+03</totfact>
</mgrwt>
</event>
<event>
 9    1  0.7816570E-001  0.2710707E+03  0.7818608E-02  0.1100668E+00
          4   -1    0    0  501    0  0.00000000000E+00  0.00000000000E+00  0.40305978642E+03  0.40305978642E+03  0.00000000000E+00 0.  1.
         -4   -1    0    0    0  501 -0.00000000000E+00 -0.00000000000E+00 -0.45575959808E+02  0.45575959808E+02  0.00000000000E+00 0.  1.
         35    2    1    2    0    0  0.00000000000E+00  0.35527136788E-14  0.35748382661E+03  0.44863574622E+03  0.27107074077E+03 0.  0.
         25    2    3    3    0    0  0.52237288720E+02  0.38004439747E+01  0.18367999039E+03  0.22820726733E+03  0.12488811107E+03 0.  0.
         25    2    3    3    0    0 -0.52237288720E+02 -0.38004439747E+01  0.17380383622E+03  0.22042847889E+03  0.12505104204E+03 0.  0.
          5    1    4    4  502    0  0.81716424940E+02 -0.31159130096E+02  0.13766944875E+03  0.16316688577E+03  0.47000000000E+01 0. -1.
         -5    1    4    4    0  502 -0.29479136220E+02  0.34959574071E+02  0.46010541642E+02  0.65040381561E+02  0.47000000000E+01 0. -1.
          5    1    5    5  503    0 -0.19242961680E+02  0.23609922937E+02  0.17457071555E+03  0.17727025911E+03  0.47000000000E+01 0.  1.
         -5    1    5    5    0  503 -0.32994327040E+02 -0.27410366912E+02 -0.76687933593E+00  0.43158219784E+02  0.47000000000E+01 0.  1.
<mgrwt>
<rscale>  0 0.27107074E+03</rscale>
<asrwt>0</asrwt>
<pdfrwt beam="1">  1        4 0.62009195E-01 0.27107074E+03</pdfrwt>
<pdfrwt beam="2">  1       -4 0.70116864E-02 0.27107074E+03</pdfrwt>
<totfact> 0.63592035E+02</totfact>
</mgrwt>
</event>
<event>
 9    1  0.7816570E-001  0.2752505E+03  0.7818608E-02  0.1098312E+00
          1   -1    0    0  501    0  0.00000000000E+00  0.00000000000E+00  0.34214901324E+03  0.34214901324E+03  0.00000000000E+00 0. -1.
         -1   -1    0    0    0  501 -0.00000000000E+00 -0.00000000000E+00 -0.55358077338E+02  0.55358077338E+02  0.00000000000E+00 0. -1.
         35    2    1    2    0    0  0.00000000000E+00  0.00000000000E+00  0.28679093590E+03  0.39750709058E+03  0.27525051525E+03 0.  0.
         25    2    3    3    0    0  0.55524786577E+02  0.61721623141E+01  0.16699487902E+03  0.21567730540E+03  0.12453237704E+03 0.  0.
         25    2    3    3    0    0 -0.55524786577E+02 -0.61721623141E+01  0.11979605688E+03  0.18182978518E+03  0.12485943306E+03 0.  0.
          5    1    4    4  502    0  0.15811445258E+02  0.15457165820E+02 -0.16281797934E+02  0.27858799692E+02  0.47000000000E+01 0. -1.
         -5    1    4    4    0  502  0.39713341318E+02 -0.92850035062E+01  0.18327667696E+03  0.18781850570E+03  0.47000000000E+01 0. -1.
          5    1    5    5  503    0 -0.43429767969E+02  0.47425977453E+01  0.14496725914E+03  0.15148014127E+03  0.47000000000E+01 0. -1.
         -5    1    5    5    0  503 -0.12095018607E+02 -0.10914760059E+02 -0.25171202256E+02  0.30349643907E+02  0.47000000000E+01 0. -1.
<mgrwt>
<rscale>  0 0.27525052E+03</rscale>
<asrwt>0</asrwt>
<pdfrwt beam="1">  1        1 0.52638308E-01 0.27525052E+03</pdfrwt>
<pdfrwt beam="2">  1       -1 0.85166275E-02 0.27525052E+03</pdfrwt>
<totfact> 0.57567465E+03</totfact>
</mgrwt>
</event>
<event>
 9    1  0.7816570E-001  0.2765814E+03  0.7818608E-02  0.1097571E+00
          2   -1    0    0  501    0  0.00000000000E+00  0.00000000000E+00  0.26364285108E+04  0.26364285108E+04  0.00000000000E+00 0. -1.
         -2   -1    0    0    0  501 -0.00000000000E+00 -0.00000000000E+00 -0.72538726806E+01  0.72538726806E+01  0.00000000000E+00 0. -1.
         35    2    1    2    0    0  0.00000000000E+00  0.71054273576E-14  0.26291746381E+04  0.26436823835E+04  0.27658139307E+03 0.  0.
         25    2    3    3    0    0 -0.13599668910E+02 -0.27854953565E+02  0.17688071786E+04  0.17734451289E+04  0.12437017645E+03 0.  0.
         25    2    3    3    0    0  0.13599668910E+02  0.27854953565E+02  0.86036745953E+03  0.87023725457E+03  0.12696402795E+03 0.  0.
          5    1    4    4  502    0  0.16080062727E+02 -0.72471349474E+02  0.10278844549E+04  0.10305722719E+04  0.47000000000E+01 0.  1.
         -5    1    4    4    0  502 -0.29679731636E+02  0.44616395909E+02  0.74092272364E+03  0.74287285700E+03  0.47000000000E+01 0.  1.
          5    1    5    5  503    0  0.15204778972E+02  0.77703610728E+02  0.58466035704E+03  0.59001598242E+03  0.47000000000E+01 0.  1.
         -5    1    5    5    0  503 -0.16051100625E+01 -0.49848657164E+02  0.27570710250E+03  0.28022127215E+03  0.47000000000E+01 0.  1.
<mgrwt>
<rscale>  0 0.27658139E+03</rscale>
<asrwt>0</asrwt>
<pdfrwt beam="1">  1        2 0.40560362E+00 0.27658139E+03</pdfrwt>
<pdfrwt beam="2">  1       -2 0.11159825E-02 0.27658139E+03</pdfrwt>
<totfact> 0.61259374E+03</totfact>
</mgrwt>
</event>
<event>
 9    1  0.7816570E-001  0.2965606E+03  0.7818608E-02  0.1086973E+00
          1   -1    0    0  501    0  0.00000000000E+00  0.00000000000E+00  0.95670937908E+02  0.95670937908E+02  0.00000000000E+00 0. -1.
         -1   -1    0    0    0  501 -0.00000000000E+00 -0.00000000000E+00 -0.22981948311E+03  0.22981948311E+03  0.00000000000E+00 0. -1.
         35    2    1    2    0    0 -0.53290705182E-14  0.14210854715E-13 -0.13414854520E+03  0.32549042101E+03  0.29656058739E+03 0.  0.
         25    2    3    3    0    0 -0.12643342248E+02 -0.76714809877E+02 -0.78381939534E+02  0.16842486200E+03  0.12719351217E+03 0.  0.
         25    2    3    3    0    0  0.12643342248E+02  0.76714809877E+02 -0.55766605663E+02  0.15706555901E+03  0.12455785548E+03 0.  0.
          5    1    4    4  502    0  0.44289223148E+02  0.60115647808E+01 -0.78634167475E+01  0.45624527627E+02  0.47000000000E+01 0.  1.
         -5    1    4    4    0  502 -0.56932565396E+02 -0.82726374657E+02 -0.70518522786E+02  0.12280033437E+03  0.47000000000E+01 0.  1.
          5    1    5    5  503    0  0.17100445570E+02  0.50185265706E+02 -0.95217669352E+02  0.10908474086E+03  0.47000000000E+01 0. -1.
         -5    1    5    5    0  503 -0.44571033221E+01  0.26529544171E+02  0.39451063689E+02  0.47980818147E+02  0.47000000000E+01 0. -1.
<mgrwt>
<rscale>  0 0.29656059E+03</rscale>
<asrwt>0</asrwt>
<pdfrwt beam="1">  1        1 0.14718606E-01 0.29656059E+03</pdfrwt>
<pdfrwt beam="2">  1       -1 0.35356844E-01 0.29656059E+03</pdfrwt>
<totfact> 0.29311866E+03</totfact>
</mgrwt>
</event>
<event>
 9    1  0.7816570E-001  0.2732961E+03  0.7818608E-02  0.1099408E+00
         -2   -1    0    0    0  501 -0.00000000000E+00  0.00000000000E+00  0.10150259428E+04  0.10150259428E+04  0.00000000000E+00 0. -1.
          2   -1    0    0  501    0  0.00000000000E+00 -0.00000000000E+00 -0.18396263158E+02  0.18396263158E+02  0.00000000000E+00 0. -1.
         35    2    1    2    0    0 -0.71054273576E-14  0.71054273576E-14  0.99662967967E+03  0.10334222060E+04  0.27329606186E+03 0.  0.
         25    2    3    3    0    0  0.35038066913E+02  0.36758927464E+02  0.46815571704E+03  0.48778742301E+03  0.12723171683E+03 0.  0.
         25    2    3    3    0    0 -0.35038066913E+02 -0.36758927464E+02  0.52847396262E+03  0.54563478297E+03  0.12591148612E+03 0.  0.
          5    1    4    4  502    0 -0.54905090595E+01  0.70606767452E+02  0.15903820789E+03  0.17415712121E+03  0.47000000000E+01 0. -1.
         -5    1    4    4    0  502  0.40528575973E+02 -0.33847839988E+02  0.30911750915E+03  0.31363030180E+03  0.47000000000E+01 0. -1.
          5    1    5    5  503    0 -0.56811090504E+02 -0.69461620833E+02  0.28100653304E+03  0.29502403018E+03  0.47000000000E+01 0.  1.
         -5    1    5    5    0  503  0.21773023590E+02  0.32702693369E+02  0.24746742958E+03  0.25061075279E+03  0.47000000000E+01 0.  1.
<mgrwt>
<rscale>  0 0.27329606E+03</rscale>
<asrwt>0</asrwt>
<pdfrwt beam="1">  1        2 0.28301951E-02 0.27329606E+03</pdfrwt>
<pdfrwt beam="2">  1       -2 0.15615779E+00 0.27329606E+03</pdfrwt>
<totfact> 0.96884128E+02</totfact>
</mgrwt>
</event>
<event>
 9    1  0.7816570E-001  0.2777647E+03  0.7818608E-02  0.1096916E+00
         -2   -1    0    0    0  501 -0.00000000000E+00  0.00000000000E+00  0.98292986075E+01  0.98292986075E+01  0.00000000000E+00 0. -1.
          2   -1    0    0  501    0  0.00000000000E+00 -0.00000000000E+00 -0.19623285684E+04  0.19623285684E+04  0.00000000000E+00 0. -1.
         35    2    1    2    0    0  0.35527136788E-14  0.71054273576E-14 -0.19524992697E+04  0.19721578670E+04  0.27776474553E+03 0.  0.
         25    2    3    3    0    0  0.29234064624E+02  0.51653670578E+02 -0.93600178335E+03  0.94628516479E+03  0.12583140488E+03 0.  0.
         25    2    3    3    0    0 -0.29234064624E+02 -0.51653670578E+02 -0.10164974864E+04  0.10258727022E+04  0.12499971595E+03 0.  0.
          5    1    4    4  502    0  0.50947497452E+02  0.74993836811E+02 -0.44164271537E+03  0.45087703545E+03  0.47000000000E+01 0.  1.
         -5    1    4    4    0  502 -0.21713432828E+02 -0.23340166233E+02 -0.49435906798E+03  0.49540812934E+03  0.47000000000E+01 0.  1.
          5    1    5    5  503    0 -0.30411136421E+02  0.26784961045E+02 -0.13900434278E+03  0.14486741756E+03  0.47000000000E+01 0.  1.
         -5    1    5    5    0  503  0.11770717973E+01 -0.78438631623E+02 -0.87749314362E+03  0.88100528462E+03  0.47000000000E+01 0.  1.
<mgrwt>
<rscale>  0 0.27776475E+03</rscale>
<asrwt>0</asrwt>
<pdfrwt beam="1">  1        2 0.30189654E+00 0.27776475E+03</pdfrwt>
<pdfrwt beam="2">  1       -2 0.15122006E-02 0.27776475E+03</pdfrwt>
<totfact> 0.90675094E+03</totfact>
</mgrwt>
</event>
<event>
 9    1  0.7816570E-001  0.2747612E+03  0.7818608E-02  0.1098585E+00
          2   -1    0    0  501    0  0.00000000000E+00  0.00000000000E+00  0.14211446526E+03  0.14211446526E+03  0.00000000000E+00 0. -1.
         -2   -1    0    0    0  501 -0.00000000000E+00 -0.00000000000E+00 -0.13280446910E+03  0.13280446910E+03  0.00000000000E+00 0. -1.
         35    2    1    2    0    0  0.00000000000E+00  0.71054273576E-14  0.93099961565E+01  0.27491893435E+03  0.27476124988E+03 0.  0.
         25    2    3    3    0    0  0.13509239274E+02 -0.52975419995E+02 -0.77812298969E+01  0.13684072703E+03  0.12520360365E+03 0.  0.
         25    2    3    3    0    0 -0.13509239274E+02  0.52975419995E+02  0.17091226053E+02  0.13807820732E+03  0.12563672497E+03 0.  0.
          5    1    4    4  502    0 -0.38190304043E+02  0.34736052604E+01  0.32254470584E+02  0.50328979018E+02  0.47000000000E+01 0.  1.
         -5    1    4    4    0  502  0.51699543317E+02 -0.56449025255E+02 -0.40035700481E+02  0.86511748014E+02  0.47000000000E+01 0.  1.
          5    1    5    5  503    0  0.52966357536E+02  0.38020311387E+01 -0.93905603694E+00  0.53318498644E+02  0.47000000000E+01 0.  1.
         -5    1    5    5    0  503 -0.66475596811E+02  0.49173388856E+02  0.18030282090E+02  0.84759708678E+02  0.47000000000E+01 0.  1.
<mgrwt>
<rscale>  0 0.27476125E+03</rscale>
<asrwt>0</asrwt>
<pdfrwt beam="1">  1        2 0.21863764E-01 0.27476125E+03</pdfrwt>
<pdfrwt beam="2">  1       -2 0.20431457E-01 0.27476125E+03</pdfrwt>
<totfact> 0.50413595E+03</totfact>
</mgrwt>
</event>
<event>
 9    1  0.7816570E-001  0.2733514E+03  0.7818608E-02  0.1099377E+00
         -2   -1    0    0    0  501 -0.00000000000E+00  0.00000000000E+00  0.34129550318E+02  0.34129550318E+02  0.00000000000E+00 0. -1.
          2   -1    0    0  501    0  0.00000000000E+00 -0.00000000000E+00 -0.54733370072E+03  0.54733370072E+03  0.00000000000E+00 0. -1.
         35    2    1    2    0    0  0.00000000000E+00  0.00000000000E+00 -0.51320415040E+03  0.58146325104E+03  0.27335144470E+03 0.  0.
         25    2    3    3    0    0 -0.40391873271E+02 -0.37422647203E+02 -0.26334049587E+03  0.29589942530E+03  0.12319210680E+03 0.  0.
         25    2    3    3    0    0  0.40391873271E+02  0.37422647203E+02 -0.24986365453E+03  0.28556382573E+03  0.12681835342E+03 0.  0.
          5    1    4    4  502    0 -0.41727289736E+02 -0.69540661858E+02 -0.24601623844E+03  0.25908135775E+03  0.47000000000E+01 0. -1.
         -5    1    4    4    0  502  0.13354164653E+01  0.32118014655E+02 -0.17324257436E+02  0.36818067551E+02  0.47000000000E+01 0. -1.
          5    1    5    5  503    0  0.83693524732E+02  0.26544666492E+02 -0.19995999858E+03  0.21843835843E+03  0.47000000000E+01 0. -1.
         -5    1    5    5    0  503 -0.43301651461E+02  0.10877980711E+02 -0.49903655943E+02  0.67125467299E+02  0.47000000000E+01 0. -1.
<mgrwt>
<rscale>  0 0.27335144E+03</rscale>
<asrwt>0</asrwt>
<pdfrwt beam="1">  1        2 0.84205184E-01 0.27335144E+03</pdfrwt>
<pdfrwt beam="2">  1       -2 0.52507001E-02 0.27335144E+03</pdfrwt>
<totfact> 0.10143497E+04</totfact>
</mgrwt>
</event>
<event>
 9    1  0.7816570E-001  0.3018654E+03  0.7818608E-02  0.1084312E+00
         -1   -1    0    0    0  501 -0.00000000000E+00  0.00000000000E+00  0.24742602535E+03  0.24742602535E+03  0.00000000000E+00 0. -1.
          1   -1    0    0  501    0  0.00000000000E+00 -0.00000000000E+00 -0.92070686362E+02  0.92070686362E+02  0.00000000000E+00 0. -1.
         35    2    1    2    0    0 -0.71054273576E-14 -0.71054273576E-14  0.15535533899E+03  0.33949671171E+03  0.30186542682E+03 0.  0.
         25    2    3    3    0    0 -0.60398540952E+02  0.28072159066E+02  0.13581924306E+03  0.19614858357E+03  0.12486540829E+03 0.  0.
         25    2    3    3    0    0  0.60398540952E+02 -0.28072159066E+02  0.19536095927E+02  0.14334812814E+03  0.12542327110E+03 0.  0.
          5    1    4    4  502    0  0.34456363633E+02 -0.91493631396E+01  0.17694381852E+02  0.40076589049E+02  0.47000000000E+01 0.  1.
         -5    1    4    4    0  502 -0.94854904584E+02  0.37221522206E+02  0.11812486121E+03  0.15607199452E+03  0.47000000000E+01 0.  1.
          5    1    5    5  503    0  0.83221656360E+01  0.40806336109E+02  0.36081328041E+02  0.55302511161E+02  0.47000000000E+01 0. -1.
         -5    1    5    5    0  503  0.52076375316E+02 -0.68878495175E+02 -0.16545232114E+02  0.88045616979E+02  0.47000000000E+01 0. -1.
<mgrwt>
<rscale>  0 0.30186543E+03</rscale>
<asrwt>0</asrwt>
<pdfrwt beam="1">  1        1 0.14164721E-01 0.30186543E+03</pdfrwt>
<pdfrwt beam="2">  1       -1 0.38065542E-01 0.30186543E+03</pdfrwt>
<totfact> 0.27098000E+03</totfact>
</mgrwt>
</event>
<event>
 9    1  0.7816570E-001  0.2752770E+03  0.7818608E-02  0.1098297E+00
         -2   -1    0    0    0  501 -0.00000000000E+00  0.00000000000E+00  0.13205701443E+02  0.13205701443E+02  0.00000000000E+00 0. -1.
          2   -1    0    0  501    0  0.00000000000E+00 -0.00000000000E+00 -0.14345587798E+04  0.14345587798E+04  0.00000000000E+00 0. -1.
         35    2    1    2    0    0 -0.71054273576E-14 -0.71054273576E-14 -0.14213530783E+04  0.14477644812E+04  0.27527698740E+03 0.  0.
         25    2    3    3    0    0  0.34374998233E+02 -0.42600727044E+02 -0.61627557216E+03  0.63114375404E+03  0.12470122279E+03 0.  0.
         25    2    3    3    0    0 -0.34374998233E+02  0.42600727044E+02 -0.80507750614E+03  0.81662072716E+03  0.12539201999E+03 0.  0.
          5    1    4    4  502    0 -0.32589025766E+02  0.17912621222E+02 -0.95657415161E+02  0.10273917303E+03  0.47000000000E+01 0. -1.
         -5    1    4    4    0  502  0.66964023999E+02 -0.60513348266E+02 -0.52061815700E+03  0.52840458101E+03  0.47000000000E+01 0. -1.
          5    1    5    5  503    0 -0.77094637640E+02  0.85707799937E+01 -0.56778507407E+03  0.57307854764E+03  0.47000000000E+01 0.  1.
         -5    1    5    5    0  503  0.42719639407E+02  0.34029947051E+02 -0.23729243207E+03  0.24354217952E+03  0.47000000000E+01 0.  1.
<mgrwt>
<rscale>  0 0.27527699E+03</rscale>
<asrwt>0</asrwt>
<pdfrwt beam="1">  1        2 0.22070127E+00 0.27527699E+03</pdfrwt>
<pdfrwt beam="2">  1       -2 0.20316471E-02 0.27527699E+03</pdfrwt>
<totfact> 0.11177449E+04</totfact>
</mgrwt>
</event>
<event>
 9    1  0.7816570E-001  0.2660954E+03  0.7818608E-02  0.1103535E+00
         -2   -1    0    0    0  501 -0.00000000000E+00  0.00000000000E+00  0.35944668038E+02  0.35944668038E+02  0.00000000000E+00 0.  1.
          2   -1    0    0  501    0  0.00000000000E+00 -0.00000000000E+00 -0.49247050702E+03  0.49247050702E+03  0.00000000000E+00 0.  1.
         35    2    1    2    0    0 -0.35527136788E-14 -0.71054273576E-14 -0.45652583899E+03  0.52841517506E+03  0.26609538811E+03 0.  0.
         25    2    3    3    0    0 -0.36962315947E+01  0.43346118084E+02 -0.18711836215E+03  0.22926794119E+03  0.12513176785E+03 0.  0.
         25    2    3    3    0    0  0.36962315947E+01 -0.43346118084E+02 -0.26940747684E+03  0.29914723387E+03  0.12254032346E+03 0.  0.
          5    1    4    4  502    0 -0.31083062770E+02  0.24790873726E+02 -0.86864109325E+00  0.40044834231E+02  0.47000000000E+01 0.  1.
         -5    1    4    4    0  502  0.27386831175E+02  0.18555244358E+02 -0.18624972106E+03  0.18922310696E+03  0.47000000000E+01 0.  1.
          5    1    5    5  503    0  0.18979128561E+02  0.35526315536E+02 -0.44156939173E+02  0.59952078309E+02  0.47000000000E+01 0.  1.
         -5    1    5    5    0  503 -0.15282896966E+02 -0.78872433621E+02 -0.22525053766E+03  0.23919515556E+03  0.47000000000E+01 0.  1.
<mgrwt>
<rscale>  0 0.26609539E+03</rscale>
<asrwt>0</asrwt>
<pdfrwt beam="1">  1        2 0.75764683E-01 0.26609539E+03</pdfrwt>
<pdfrwt beam="2">  1       -2 0.55299497E-02 0.26609539E+03</pdfrwt>
<totfact> 0.10545081E+04</totfact>
</mgrwt>
</event>
<event>
 9    1  0.7816570E-001  0.2654343E+03  0.7818608E-02  0.1103921E+00
          2   -1    0    0  501    0  0.00000000000E+00  0.00000000000E+00  0.18839397926E+03  0.18839397926E+03  0.00000000000E+00 0.  1.
         -2   -1    0    0    0  501 -0.00000000000E+00 -0.00000000000E+00 -0.93494708148E+02  0.93494708148E+02  0.00000000000E+00 0.  1.
         35    2    1    2    0    0  0.00000000000E+00  0.35527136788E-14  0.94899271108E+02  0.28188868740E+03  0.26543428646E+03 0.  0.
         25    2    3    3    0    0  0.36229502042E+02 -0.21237519978E+02  0.37626882141E+02  0.13741284718E+03  0.12531120954E+03 0.  0.
         25    2    3    3    0    0 -0.36229502042E+02  0.21237519978E+02  0.57272388966E+02  0.14447584023E+03  0.12581547122E+03 0.  0.
          5    1    4    4  502    0  0.75688036130E+02 -0.38126690112E+02  0.40687271194E+02  0.94126868371E+02  0.47000000000E+01 0.  1.
         -5    1    4    4    0  502 -0.39458534088E+02  0.16889170134E+02 -0.30603890525E+01  0.43285978807E+02  0.47000000000E+01 0.  1.
          5    1    5    5  503    0  0.41162148011E+02 -0.59385137302E+01 -0.39148444106E+01  0.42035751224E+02  0.47000000000E+01 0.  1.
         -5    1    5    5    0  503 -0.77391650054E+02  0.27176033708E+02  0.61187233377E+02  0.10244008900E+03  0.47000000000E+01 0.  1.
<mgrwt>
<rscale>  0 0.26543429E+03</rscale>
<asrwt>0</asrwt>
<pdfrwt beam="1">  1        2 0.28983689E-01 0.26543429E+03</pdfrwt>
<pdfrwt beam="2">  1       -2 0.14383801E-01 0.26543429E+03</pdfrwt>
<totfact> 0.66229047E+03</totfact>
</mgrwt>
</event>
<event>
 9    1  0.7816570E-001  0.2752213E+03  0.7818608E-02  0.1098328E+00
          2   -1    0    0  501    0  0.00000000000E+00  0.00000000000E+00  0.13213928433E+04  0.13213928433E+04  0.00000000000E+00 0. -1.
         -2   -1    0    0    0  501 -0.00000000000E+00 -0.00000000000E+00 -0.14330852669E+02  0.14330852669E+02  0.00000000000E+00 0. -1.
         35    2    1    2    0    0  0.00000000000E+00  0.00000000000E+00  0.13070619906E+04  0.13357236960E+04  0.27522126484E+03 0.  0.
         25    2    3    3    0    0  0.44964799700E+02  0.26135535882E+02  0.78001807853E+03  0.79154990875E+03  0.12416986654E+03 0.  0.
         25    2    3    3    0    0 -0.44964799700E+02 -0.26135535882E+02  0.52704391209E+03  0.54417378721E+03  0.12507967848E+03 0.  0.
          5    1    4    4  502    0 -0.29832675431E+02  0.72913064732E+01  0.50289548219E+03  0.50385425242E+03  0.47000000000E+01 0. -1.
         -5    1    4    4    0  502  0.74797475131E+02  0.18844229409E+02  0.27712259634E+03  0.28769565633E+03  0.47000000000E+01 0. -1.
          5    1    5    5  503    0 -0.81315883791E+02  0.95472606023E+01  0.27393422962E+03  0.28594663015E+03  0.47000000000E+01 0.  1.
         -5    1    5    5    0  503  0.36351084090E+02 -0.35682796485E+02  0.25310968247E+03  0.25822715705E+03  0.47000000000E+01 0.  1.
<mgrwt>
<rscale>  0 0.27522126E+03</rscale>
<asrwt>0</asrwt>
<pdfrwt beam="1">  1        2 0.20329111E+00 0.27522126E+03</pdfrwt>
<pdfrwt beam="2">  1       -2 0.22047476E-02 0.27522126E+03</pdfrwt>
<totfact> 0.11421721E+04</totfact>
</mgrwt>
</event>
<event>
 9    1  0.7816570E-001  0.2793313E+03  0.7818608E-02  0.1096055E+00
         -2   -1    0    0    0  501 -0.00000000000E+00  0.00000000000E+00  0.18133631217E+02  0.18133631217E+02  0.00000000000E+00 0. -1.
          2   -1    0    0  501    0  0.00000000000E+00 -0.00000000000E+00 -0.10757082454E+04  0.10757082454E+04  0.00000000000E+00 0. -1.
         35    2    1    2    0    0  0.00000000000E+00  0.00000000000E+00 -0.10575746142E+04  0.10938418767E+04  0.27933132027E+03 0.  0.
         25    2    3    3    0    0  0.41846525554E+02 -0.46079301859E+02 -0.55193582306E+03  0.56940051887E+03  0.12533700312E+03 0.  0.
         25    2    3    3    0    0 -0.41846525554E+02  0.46079301859E+02 -0.50563879117E+03  0.52444135780E+03  0.12447375976E+03 0.  0.
          5    1    4    4  502    0  0.45423097531E+02 -0.30254826887E+02 -0.78834730809E+02  0.95998005818E+02  0.47000000000E+01 0. -1.
         -5    1    4    4    0  502 -0.35765719764E+01 -0.15824474972E+02 -0.47310109225E+03  0.47340251305E+03  0.47000000000E+01 0. -1.
          5    1    5    5  503    0 -0.63903673134E+02  0.75607031528E+02 -0.31526621566E+03  0.33047689691E+03  0.47000000000E+01 0.  1.
         -5    1    5    5    0  503  0.22057147580E+02 -0.29527729669E+02 -0.19037257551E+03  0.19396446088E+03  0.47000000000E+01 0.  1.
<mgrwt>
<rscale>  0 0.27933132E+03</rscale>
<asrwt>0</asrwt>
<pdfrwt beam="1">  1        2 0.16549362E+00 0.27933132E+03</pdfrwt>
<pdfrwt beam="2">  1       -2 0.27897887E-02 0.27933132E+03</pdfrwt>
<totfact> 0.11133788E+04</totfact>
</mgrwt>
</event>
<event>
 9    1  0.7816570E-001  0.2779769E+03  0.7818608E-02  0.1096799E+00
          1   -1    0    0  501    0  0.00000000000E+00  0.00000000000E+00  0.11029706457E+03  0.11029706457E+03  0.00000000000E+00 0. -1.
         -1   -1    0    0    0  501 -0.00000000000E+00 -0.00000000000E+00 -0.17514321835E+03  0.17514321835E+03  0.00000000000E+00 0. -1.
         35    2    1    2    0    0  0.00000000000E+00 -0.71054273576E-14 -0.64846153782E+02  0.28544028293E+03  0.27797685418E+03 0.  0.
         25    2    3    3    0    0 -0.51964717942E+01 -0.19013528475E+02  0.26943497555E+02  0.12916727123E+03  0.12477866128E+03 0.  0.
         25    2    3    3    0    0  0.51964717942E+01  0.19013528475E+02 -0.91789651337E+02  0.15627301170E+03  0.12492956619E+03 0.  0.
          5    1    4    4  502    0 -0.25417369718E+02 -0.45957846707E+02 -0.31591038253E+02  0.61467471522E+02  0.47000000000E+01 0. -1.
         -5    1    4    4    0  502  0.20220897923E+02  0.26944318232E+02  0.58534535808E+02  0.67699799705E+02  0.47000000000E+01 0. -1.
          5    1    5    5  503    0  0.43332002668E+01 -0.53409363190E+02 -0.35949145778E+02  0.64697509868E+02  0.47000000000E+01 0. -1.
         -5    1    5    5    0  503  0.86327152736E+00  0.72422891665E+02 -0.55840505559E+02  0.91575501833E+02  0.47000000000E+01 0. -1.
<mgrwt>
<rscale>  0 0.27797685E+03</rscale>
<asrwt>0</asrwt>
<pdfrwt beam="1">  1        1 0.16968779E-01 0.27797685E+03</pdfrwt>
<pdfrwt beam="2">  1       -1 0.26945110E-01 0.27797685E+03</pdfrwt>
<totfact> 0.38656771E+03</totfact>
</mgrwt>
</event>
<event>
 9    1  0.7816570E-001  0.2743820E+03  0.7818608E-02  0.1098798E+00
          1   -1    0    0  501    0  0.00000000000E+00  0.00000000000E+00  0.98583675879E+03  0.98583675879E+03  0.00000000000E+00 0.  1.
         -1   -1    0    0    0  501 -0.00000000000E+00 -0.00000000000E+00 -0.19091767822E+02  0.19091767822E+02  0.00000000000E+00 0.  1.
         35    2    1    2    0    0 -0.14210854715E-13 -0.35527136788E-14  0.96674499097E+03  0.10049285266E+04  0.27438197105E+03 0.  0.
         25    2    3    3    0    0 -0.47977445771E+02 -0.84046847071E+01  0.36818643042E+03  0.39169714225E+03  0.12447059761E+03 0.  0.
         25    2    3    3    0    0  0.47977445771E+02  0.84046847071E+01  0.59855856055E+03  0.61323138436E+03  0.12412858791E+03 0.  0.
          5    1    4    4  502    0 -0.47712697336E+02  0.10335131696E+02  0.36910896284E+03  0.37235310243E+03  0.47000000000E+01 0. -1.
         -5    1    4    4    0  502 -0.26474843471E+00 -0.18739816403E+02 -0.92253242229E+00  0.19344039822E+02  0.47000000000E+01 0. -1.
          5    1    5    5  503    0 -0.38890835364E+02 -0.30209757899E-01  0.28642496160E+03  0.28909141567E+03  0.47000000000E+01 0. -1.
         -5    1    5    5    0  503  0.86868281135E+02  0.84348944650E+01  0.31213359895E+03  0.32413996869E+03  0.47000000000E+01 0. -1.
<mgrwt>
<rscale>  0 0.27438197E+03</rscale>
<asrwt>0</asrwt>
<pdfrwt beam="1">  1        1 0.15166715E+00 0.27438197E+03</pdfrwt>
<pdfrwt beam="2">  1       -1 0.29371958E-02 0.27438197E+03</pdfrwt>
<totfact> 0.63737147E+03</totfact>
</mgrwt>
</event>
<event>
 9    1  0.7816570E-001  0.2809022E+03  0.7818608E-02  0.1095197E+00
          2   -1    0    0  501    0  0.00000000000E+00  0.00000000000E+00  0.15901309182E+04  0.15901309182E+04  0.00000000000E+00 0.  1.
         -2   -1    0    0    0  501 -0.00000000000E+00 -0.00000000000E+00 -0.12405593578E+02  0.12405593578E+02  0.00000000000E+00 0.  1.
         35    2    1    2    0    0 -0.71054273576E-14  0.00000000000E+00  0.15777253246E+04  0.16025365117E+04  0.28090224568E+03 0.  0.
         25    2    3    3    0    0 -0.10548372552E+02 -0.56169170463E+02  0.95346191967E+03  0.96331305238E+03  0.12496463796E+03 0.  0.
         25    2    3    3    0    0  0.10548372552E+02  0.56169170463E+02  0.62426340492E+03  0.63922345937E+03  0.12504234649E+03 0.  0.
          5    1    4    4  502    0  0.42176773956E+02 -0.31194800241E+02  0.74298730947E+03  0.74485181603E+03  0.47000000000E+01 0.  1.
         -5    1    4    4    0  502 -0.52725146508E+02 -0.24974370222E+02  0.21047461021E+03  0.21846123634E+03  0.47000000000E+01 0.  1.
          5    1    5    5  503    0 -0.42133433686E+02  0.14466801332E+02  0.45272448402E+03  0.45493522947E+03  0.47000000000E+01 0. -1.
         -5    1    5    5    0  503  0.52681806238E+02  0.41702369131E+02  0.17153892090E+03  0.18428822991E+03  0.47000000000E+01 0. -1.
<mgrwt>
<rscale>  0 0.28090225E+03</rscale>
<asrwt>0</asrwt>
<pdfrwt beam="1">  1        2 0.24463536E+00 0.28090225E+03</pdfrwt>
<pdfrwt beam="2">  1       -2 0.19085541E-02 0.28090225E+03</pdfrwt>
<totfact> 0.10120899E+04</totfact>
</mgrwt>
</event>
<event>
 9    1  0.7816570E-001  0.2762262E+03  0.7818608E-02  0.1097768E+00
         -1   -1    0    0    0  501 -0.00000000000E+00  0.00000000000E+00  0.77169443600E+01  0.77169443600E+01  0.00000000000E+00 0.  1.
          1   -1    0    0  501    0  0.00000000000E+00 -0.00000000000E+00 -0.24718624972E+04  0.24718624972E+04  0.00000000000E+00 0.  1.
         35    2    1    2    0    0  0.71054273576E-14  0.71054273576E-14 -0.24641455529E+04  0.24795794416E+04  0.27622617803E+03 0.  0.
         25    2    3    3    0    0  0.46886893415E+02 -0.43802726409E+01 -0.15600970397E+04  0.15658820762E+04  0.12596164323E+03 0.  0.
         25    2    3    3    0    0 -0.46886893415E+02  0.43802726409E+01 -0.90404851313E+03  0.91369736540E+03  0.12378042610E+03 0.  0.
          5    1    4    4  502    0  0.39352290279E+02 -0.47738637249E+02 -0.38630638350E+03  0.39125732219E+03  0.47000000000E+01 0. -1.
         -5    1    4    4    0  502  0.75346031359E+01  0.43358364608E+02 -0.11737906563E+04  0.11746247540E+04  0.47000000000E+01 0. -1.
          5    1    5    5  503    0 -0.33993897527E+02  0.63208521447E+02 -0.47323567094E+03  0.47867002465E+03  0.47000000000E+01 0.  1.
         -5    1    5    5    0  503 -0.12892995887E+02 -0.58828248806E+02 -0.43081284219E+03  0.43502734075E+03  0.47000000000E+01 0.  1.
<mgrwt>
<rscale>  0 0.27622618E+03</rscale>
<asrwt>0</asrwt>
<pdfrwt beam="1">  1        1 0.38028645E+00 0.27622618E+03</pdfrwt>
<pdfrwt beam="2">  1       -1 0.11872225E-02 0.27622618E+03</pdfrwt>
<totfact> 0.24278223E+03</totfact>
</mgrwt>
</event>
<event>
 9    1  0.7816570E-001  0.2727760E+03  0.7818608E-02  0.1099701E+00
         -2   -1    0    0    0  501 -0.00000000000E+00  0.00000000000E+00  0.12034403621E+02  0.12034403621E+02  0.00000000000E+00 0.  1.
          2   -1    0    0  501    0  0.00000000000E+00 -0.00000000000E+00 -0.15457095677E+04  0.15457095677E+04  0.00000000000E+00 0.  1.
         35    2    1    2    0    0  0.00000000000E+00 -0.71054273576E-14 -0.15336751641E+04  0.15577439713E+04  0.27277604600E+03 0.  0.
         25    2    3    3    0    0  0.39213222827E+02  0.87270470976E+01 -0.90635142530E+03  0.91584626869E+03  0.12525032348E+03 0.  0.
         25    2    3    3    0    0 -0.39213222827E+02 -0.87270470976E+01 -0.62732373877E+03  0.64189770263E+03  0.12993748194E+03 0.  0.
          5    1    4    4  502    0 -0.15046045420E+02 -0.96372656999E+01 -0.73264978405E+03  0.73288270306E+03  0.47000000000E+01 0. -1.
         -5    1    4    4    0  502  0.54259268247E+02  0.18364312798E+02 -0.17370164125E+03  0.18296356563E+03  0.47000000000E+01 0. -1.
          5    1    5    5  503    0 -0.91669426668E+01  0.50909679260E+02 -0.43835883187E+03  0.44142540000E+03  0.47000000000E+01 0.  1.
         -5    1    5    5    0  503 -0.30046280160E+02 -0.59636726358E+02 -0.18896490690E+03  0.20047230263E+03  0.47000000000E+01 0.  1.
<mgrwt>
<rscale>  0 0.27277605E+03</rscale>
<asrwt>0</asrwt>
<pdfrwt beam="1">  1        2 0.23780137E+00 0.27277605E+03</pdfrwt>
<pdfrwt beam="2">  1       -2 0.18514475E-02 0.27277605E+03</pdfrwt>
<totfact> 0.11168089E+04</totfact>
</mgrwt>
</event>
<event>
 9    1  0.7816570E-001  0.2682283E+03  0.7818608E-02  0.1102298E+00
         -1   -1    0    0    0  501 -0.00000000000E+00  0.00000000000E+00  0.26761123638E+02  0.26761123638E+02  0.00000000000E+00 0.  1.
          1   -1    0    0  501    0  0.00000000000E+00 -0.00000000000E+00 -0.67211695320E+03  0.67211695320E+03  0.00000000000E+00 0.  1.
         35    2    1    2    0    0  0.00000000000E+00  0.00000000000E+00 -0.64535582956E+03  0.69887807683E+03  0.26822829742E+03 0.  0.
         25    2    3    3    0    0 -0.89352355243E+01  0.43263701665E+02 -0.29152207080E+03  0.32021877898E+03  0.12491341935E+03 0.  0.
         25    2    3    3    0    0  0.89352355243E+01 -0.43263701665E+02 -0.35383375876E+03  0.37865929785E+03  0.12740858957E+03 0.  0.
          5    1    4    4  502    0  0.92647481756E+01  0.17734894870E+02  0.56852379739E+01  0.21325430491E+02  0.47000000000E+01 0.  1.
         -5    1    4    4    0  502 -0.18199983700E+02  0.25528806795E+02 -0.29720730877E+03  0.29889334849E+03  0.47000000000E+01 0.  1.
          5    1    5    5  503    0 -0.20673216601E+02 -0.50448156656E+02 -0.34083987393E+03  0.34520473353E+03  0.47000000000E+01 0. -1.
         -5    1    5    5    0  503  0.29608452125E+02  0.71844549908E+01 -0.12993884829E+02  0.33454564318E+02  0.47000000000E+01 0. -1.
<mgrwt>
<rscale>  0 0.26822830E+03</rscale>
<asrwt>0</asrwt>
<pdfrwt beam="1">  1        1 0.10340261E+00 0.26822830E+03</pdfrwt>
<pdfrwt beam="2">  1       -1 0.41170958E-02 0.26822830E+03</pdfrwt>
<totfact> 0.70180655E+03</totfact>
</mgrwt>
</event>
<event>
 9    1  0.7816570E-001  0.2775312E+03  0.7818608E-02  0.1097045E+00
         -2   -1    0    0    0  501 -0.00000000000E+00  0.00000000000E+00  0.36141767823E+03  0.36141767823E+03  0.00000000000E+00 0.  1.
          2   -1    0    0  501    0  0.00000000000E+00 -0.00000000000E+00 -0.53278786730E+02  0.53278786730E+02  0.00000000000E+00 0.  1.
         35    2    1    2    0    0  0.71054273576E-14 -0.71054273576E-14  0.30813889150E+03  0.41469646496E+03  0.27753122634E+03 0.  0.
         25    2    3    3    0    0  0.36000102291E+02 -0.14588288247E+02  0.83996064164E+02  0.15525830451E+03  0.12466345417E+03 0.  0.
         25    2    3    3    0    0 -0.36000102291E+02  0.14588288247E+02  0.22414282734E+03  0.25943816045E+03  0.12473702952E+03 0.  0.
          5    1    4    4  502    0  0.44665288842E+02 -0.30498708165E+02 -0.13532687034E+02  0.55949824356E+02  0.47000000000E+01 0. -1.
         -5    1    4    4    0  502 -0.86651865505E+01  0.15910419918E+02  0.97528751198E+02  0.99308480152E+02  0.47000000000E+01 0. -1.
          5    1    5    5  503    0 -0.79865244114E+01 -0.54785378343E+02  0.10089194775E+03  0.11518028205E+03  0.47000000000E+01 0. -1.
         -5    1    5    5    0  503 -0.28013577880E+02  0.69373666591E+02  0.12325087959E+03  0.14425787840E+03  0.47000000000E+01 0. -1.
<mgrwt>
<rscale>  0 0.27753123E+03</rscale>
<asrwt>0</asrwt>
<pdfrwt beam="1">  1        2 0.81967366E-02 0.27753123E+03</pdfrwt>
<pdfrwt beam="2">  1       -2 0.55602718E-01 0.27753123E+03</pdfrwt>
<totfact> 0.25448522E+03</totfact>
</mgrwt>
</event>
<event>
 9    1  0.7816570E-001  0.2751022E+03  0.7818608E-02  0.1098395E+00
          1   -1    0    0  501    0  0.00000000000E+00  0.00000000000E+00  0.11868050262E+03  0.11868050262E+03  0.00000000000E+00 0.  1.
         -1   -1    0    0    0  501 -0.00000000000E+00 -0.00000000000E+00 -0.15942214489E+03  0.15942214489E+03  0.00000000000E+00 0.  1.
         35    2    1    2    0    0  0.14210854715E-13  0.71054273576E-14 -0.40741642271E+02  0.27810264751E+03  0.27510216491E+03 0.  0.
         25    2    3    3    0    0  0.49112511700E+02  0.62163239245E+01  0.13485530957E+01  0.13750943033E+03  0.12828227994E+03 0.  0.
         25    2    3    3    0    0 -0.49112511700E+02 -0.62163239245E+01 -0.42090195367E+02  0.14059321718E+03  0.12467632768E+03 0.  0.
          5    1    4    4  502    0  0.23814684016E+02 -0.49845841713E+02  0.36627546830E+02  0.66448583865E+02  0.47000000000E+01 0. -1.
         -5    1    4    4    0  502  0.25297827684E+02  0.56062165638E+02 -0.35278993734E+02  0.71060846466E+02  0.47000000000E+01 0. -1.
          5    1    5    5  503    0 -0.62769721870E+02 -0.51315191512E+02 -0.45546397802E+02  0.93112035830E+02  0.47000000000E+01 0.  1.
         -5    1    5    5    0  503  0.13657210170E+02  0.45098867587E+02  0.34562024350E+01  0.47481181352E+02  0.47000000000E+01 0.  1.
<mgrwt>
<rscale>  0 0.27510216E+03</rscale>
<asrwt>0</asrwt>
<pdfrwt beam="1">  1        1 0.18258539E-01 0.27510216E+03</pdfrwt>
<pdfrwt beam="2">  1       -1 0.24526484E-01 0.27510216E+03</pdfrwt>
<totfact> 0.41107094E+03</totfact>
</mgrwt>
</event>
<event>
 9    1  0.7816570E-001  0.2847124E+03  0.7818608E-02  0.1093143E+00
          2   -1    0    0  501    0  0.00000000000E+00  0.00000000000E+00  0.94746671020E+03  0.94746671020E+03  0.00000000000E+00 0. -1.
         -2   -1    0    0    0  501 -0.00000000000E+00 -0.00000000000E+00 -0.21388912241E+02  0.21388912241E+02  0.00000000000E+00 0. -1.
         35    2    1    2    0    0 -0.71054273576E-14  0.00000000000E+00  0.92607779796E+03  0.96885562244E+03  0.28471236233E+03 0.  0.
         25    2    3    3    0    0  0.45219949279E+02  0.15908179938E+02  0.29600130742E+03  0.32319293679E+03  0.12057771931E+03 0.  0.
         25    2    3    3    0    0 -0.45219949279E+02 -0.15908179938E+02  0.63007649054E+03  0.64566268565E+03  0.13261223817E+03 0.  0.
          5    1    4    4  502    0  0.58626299098E+01 -0.15884670882E+02  0.26077040106E+03  0.26136178999E+03  0.47000000000E+01 0. -1.
         -5    1    4    4    0  502  0.39357319369E+02  0.31792850820E+02  0.35230906357E+02  0.61831146794E+02  0.47000000000E+01 0. -1.
          5    1    5    5  503    0 -0.40311564612E+02 -0.36048731192E+02  0.89546046075E+02  0.10471445760E+03  0.47000000000E+01 0.  1.
         -5    1    5    5    0  503 -0.49083846672E+01  0.20140551254E+02  0.54053044446E+03  0.54094822806E+03  0.47000000000E+01 0.  1.
<mgrwt>
<rscale>  0 0.28471236E+03</rscale>
<asrwt>0</asrwt>
<pdfrwt beam="1">  1        2 0.14576408E+00 0.28471236E+03</pdfrwt>
<pdfrwt beam="2">  1       -2 0.32906026E-02 0.28471236E+03</pdfrwt>
<totfact> 0.10431290E+04</totfact>
</mgrwt>
</event>
<event>
 9    1  0.7816570E-001  0.2751654E+03  0.7818608E-02  0.1098359E+00
         -1   -1    0    0    0  501 -0.00000000000E+00  0.00000000000E+00  0.30238157659E+02  0.30238157659E+02  0.00000000000E+00 0.  1.
          1   -1    0    0  501    0  0.00000000000E+00 -0.00000000000E+00 -0.62599719609E+03  0.62599719609E+03  0.00000000000E+00 0.  1.
         35    2    1    2    0    0  0.00000000000E+00  0.00000000000E+00 -0.59575903844E+03  0.65623535375E+03  0.27516541868E+03 0.  0.
         25    2    3    3    0    0  0.51335764209E+02 -0.86637608081E+01 -0.25028457405E+03  0.28468024721E+03  0.12525994454E+03 0.  0.
         25    2    3    3    0    0 -0.51335764209E+02  0.86637608081E+01 -0.34547446438E+03  0.37155510654E+03  0.12645224482E+03 0.  0.
          5    1    4    4  502    0 -0.30787312092E+02  0.31283675249E+02 -0.77531552561E+02  0.89217479036E+02  0.47000000000E+01 0. -1.
         -5    1    4    4    0  502  0.82123076301E+02 -0.39947436057E+02 -0.17275302149E+03  0.19546276817E+03  0.47000000000E+01 0. -1.
          5    1    5    5  503    0 -0.66565765257E+02  0.36711193351E+02 -0.32392799457E+03  0.33276139873E+03  0.47000000000E+01 0. -1.
         -5    1    5    5    0  503  0.15230001048E+02 -0.28047432543E+02 -0.21546469815E+02  0.38793707811E+02  0.47000000000E+01 0. -1.
<mgrwt>
<rscale>  0 0.27516542E+03</rscale>
<asrwt>0</asrwt>
<pdfrwt beam="1">  1        1 0.96307263E-01 0.27516542E+03</pdfrwt>
<pdfrwt beam="2">  1       -1 0.46520241E-02 0.27516542E+03</pdfrwt>
<totfact> 0.64763586E+03</totfact>
</mgrwt>
</event>
<event>
 9    1  0.7816570E-001  0.2811782E+03  0.7818608E-02  0.1095047E+00
          3   -1    0    0  501    0  0.00000000000E+00  0.00000000000E+00  0.54964087195E+02  0.54964087195E+02  0.00000000000E+00 0.  1.
         -3   -1    0    0    0  501 -0.00000000000E+00 -0.00000000000E+00 -0.35960393081E+03  0.35960393081E+03  0.00000000000E+00 0.  1.
         35    2    1    2    0    0 -0.71054273576E-14 -0.71054273576E-14 -0.30463984361E+03  0.41456801800E+03  0.28117824815E+03 0.  0.
         25    2    3    3    0    0  0.49639353032E+02  0.38840896428E+02 -0.16750461607E+03  0.21851154751E+03  0.12536673954E+03 0.  0.
         25    2    3    3    0    0 -0.49639353032E+02 -0.38840896428E+02 -0.13713522754E+03  0.19605647050E+03  0.12513747794E+03 0.  0.
          5    1    4    4  502    0  0.89007892929E+02  0.14045020519E+02 -0.13156043734E+03  0.15953026759E+03  0.47000000000E+01 0. -1.
         -5    1    4    4    0  502 -0.39368539897E+02  0.24795875909E+02 -0.35944178733E+02  0.58981279916E+02  0.47000000000E+01 0. -1.
          5    1    5    5  503    0 -0.89569416308E+01 -0.34024964441E+02  0.14923255461E+02  0.38506084742E+02  0.47000000000E+01 0.  1.
         -5    1    5    5    0  503 -0.40682411401E+02 -0.48159319870E+01 -0.15205848300E+03  0.15755038575E+03  0.47000000000E+01 0.  1.
<mgrwt>
<rscale>  0 0.28117825E+03</rscale>
<asrwt>0</asrwt>
<pdfrwt beam="1">  1        3 0.84560132E-02 0.28117825E+03</pdfrwt>
<pdfrwt beam="2">  1       -3 0.55323683E-01 0.28117825E+03</pdfrwt>
<totfact> 0.80716904E+02</totfact>
</mgrwt>
</event>
<event>
 9    1  0.7816570E-001  0.2717960E+03  0.7818608E-02  0.1100256E+00
         -4   -1    0    0    0  501 -0.00000000000E+00  0.00000000000E+00  0.24972070325E+02  0.24972070325E+02  0.00000000000E+00 0.  1.
          4   -1    0    0  501    0  0.00000000000E+00 -0.00000000000E+00 -0.73955666709E+03  0.73955666709E+03  0.00000000000E+00 0.  1.
         35    2    1    2    0    0  0.35527136788E-14 -0.71054273576E-14 -0.71458459676E+03  0.76452873741E+03  0.27179596097E+03 0.  0.
         25    2    3    3    0    0 -0.22415618359E+02  0.47328502464E+02 -0.36378174999E+03  0.38825488838E+03  0.12514890984E+03 0.  0.
         25    2    3    3    0    0  0.22415618359E+02 -0.47328502464E+02 -0.35080284677E+03  0.37627384903E+03  0.12560623022E+03 0.  0.
          5    1    4    4  502    0 -0.46148954389E+02  0.70933279502E+02 -0.32905014605E+03  0.33979014810E+03  0.47000000000E+01 0. -1.
         -5    1    4    4    0  502  0.23733336030E+02 -0.23604777038E+02 -0.34731603940E+02  0.48464740280E+02  0.47000000000E+01 0. -1.
          5    1    5    5  503    0 -0.27827757693E+02  0.22337760748E+02 -0.19506448314E+03  0.19835725910E+03  0.47000000000E+01 0. -1.
         -5    1    5    5    0  503  0.50243376053E+02 -0.69666263213E+02 -0.15573836363E+03  0.17791658993E+03  0.47000000000E+01 0. -1.
<mgrwt>
<rscale>  0 0.27179596E+03</rscale>
<asrwt>0</asrwt>
<pdfrwt beam="1">  1        4 0.11377796E+00 0.27179596E+03</pdfrwt>
<pdfrwt beam="2">  1       -4 0.38418564E-02 0.27179596E+03</pdfrwt>
<totfact> 0.42872184E+02</totfact>
</mgrwt>
</event>
<event>
 9    1  0.7816570E-001  0.2731174E+03  0.7818608E-02  0.1099509E+00
          2   -1    0    0  501    0  0.00000000000E+00  0.00000000000E+00  0.16164926583E+04  0.16164926583E+04  0.00000000000E+00 0. -1.
         -2   -1    0    0    0  501 -0.00000000000E+00 -0.00000000000E+00 -0.11536262985E+02  0.11536262985E+02  0.00000000000E+00 0. -1.
         35    2    1    2    0    0  0.17763568394E-14  0.00000000000E+00  0.16049563953E+04  0.16280289212E+04  0.27311744301E+03 0.  0.
         25    2    3    3    0    0  0.15158113779E+02  0.41975728894E+02  0.99219236497E+03  0.10010549577E+04  0.12519428506E+03 0.  0.
         25    2    3    3    0    0 -0.15158113779E+02 -0.41975728894E+02  0.61276403030E+03  0.62697396353E+03  0.12499945556E+03 0.  0.
          5    1    4    4  502    0  0.30768437888E+02  0.47381800113E+02  0.18076975796E+03  0.18945059288E+03  0.47000000000E+01 0. -1.
         -5    1    4    4    0  502 -0.15610324109E+02 -0.54060712190E+01  0.81142260702E+03  0.81160436482E+03  0.47000000000E+01 0. -1.
          5    1    5    5  503    0  0.32063169194E+01 -0.83339695021E+02  0.32137663320E+03  0.33205544056E+03  0.47000000000E+01 0.  1.
         -5    1    5    5    0  503 -0.18364430699E+02  0.41363966127E+02  0.29138739710E+03  0.29491852298E+03  0.47000000000E+01 0.  1.
<mgrwt>
<rscale>  0 0.27311744E+03</rscale>
<asrwt>0</asrwt>
<pdfrwt beam="1">  1        2 0.24869100E+00 0.27311744E+03</pdfrwt>
<pdfrwt beam="2">  1       -2 0.17748110E-02 0.27311744E+03</pdfrwt>
<totfact> 0.10898641E+04</totfact>
</mgrwt>
</event>
<event>
 9    1  0.7816570E-001  0.2640970E+03  0.7818608E-02  0.1104706E+00
          2   -1    0    0  501    0  0.00000000000E+00  0.00000000000E+00  0.91593165930E+03  0.91593165930E+03  0.00000000000E+00 0.  1.
         -2   -1    0    0    0  501 -0.00000000000E+00 -0.00000000000E+00 -0.19037239034E+02  0.19037239034E+02  0.00000000000E+00 0.  1.
         35    2    1    2    0    0  0.35527136788E-14  0.26645352591E-14  0.89689442027E+03  0.93496889834E+03  0.26409702715E+03 0.  0.
         25    2    3    3    0    0  0.19975982438E+02  0.16389940249E+01  0.47580309108E+03  0.49255106935E+03  0.12576266637E+03 0.  0.
         25    2    3    3    0    0 -0.19975982438E+02 -0.16389940249E+01  0.42109132919E+03  0.44241782899E+03  0.13421587730E+03 0.  0.
          5    1    4    4  502    0 -0.10620141246E+02  0.95825342818E+01  0.45309918387E+03  0.45334928343E+03  0.47000000000E+01 0.  1.
         -5    1    4    4    0  502  0.30596123684E+02 -0.79435402569E+01  0.22703907217E+02  0.39201785919E+02  0.47000000000E+01 0.  1.
          5    1    5    5  503    0 -0.68325684676E+02 -0.30540115897E+02  0.29235262454E+03  0.30181657499E+03  0.47000000000E+01 0. -1.
         -5    1    5    5    0  503  0.48349702237E+02  0.28901121872E+02  0.12873870465E+03  0.14060125400E+03  0.47000000000E+01 0. -1.
<mgrwt>
<rscale>  0 0.26409703E+03</rscale>
<asrwt>0</asrwt>
<pdfrwt beam="1">  1        2 0.14091253E+00 0.26409703E+03</pdfrwt>
<pdfrwt beam="2">  1       -2 0.29288067E-02 0.26409703E+03</pdfrwt>
<totfact> 0.12961094E+04</totfact>
</mgrwt>
</event>
<event>
 9    1  0.7816570E-001  0.2763587E+03  0.7818608E-02  0.1097695E+00
          2   -1    0    0  501    0  0.00000000000E+00  0.00000000000E+00  0.27376552902E+04  0.27376552902E+04  0.00000000000E+00 0.  1.
         -2   -1    0    0    0  501 -0.00000000000E+00 -0.00000000000E+00 -0.69744092130E+01  0.69744092130E+01  0.00000000000E+00 0.  1.
         35    2    1    2    0    0  0.00000000000E+00  0.35527136788E-14  0.27306808810E+04  0.27446296995E+04  0.27635866752E+03 0.  0.
         25    2    3    3    0    0 -0.42634788308E+02 -0.14989275336E+02  0.96109847235E+03  0.97014913033E+03  0.12424434784E+03 0.  0.
         25    2    3    3    0    0  0.42634788308E+02  0.14989275336E+02  0.17695824087E+04  0.17744805691E+04  0.12376180978E+03 0.  0.
          5    1    4    4  502    0 -0.95228221072E+01  0.53047863267E+02  0.49177710748E+03  0.49474394729E+03  0.47000000000E+01 0.  1.
         -5    1    4    4    0  502 -0.33111966200E+02 -0.68037138603E+02  0.46932136487E+03  0.47540518304E+03  0.47000000000E+01 0.  1.
          5    1    5    5  503    0  0.76534484218E+02  0.28149600788E+02  0.78987342649E+03  0.79408566740E+03  0.47000000000E+01 0.  1.
         -5    1    5    5    0  503 -0.33899695911E+02 -0.13160325452E+02  0.97970898220E+03  0.98039490173E+03  0.47000000000E+01 0.  1.
<mgrwt>
<rscale>  0 0.27635867E+03</rscale>
<asrwt>0</asrwt>
<pdfrwt beam="1">  1        2 0.42117688E+00 0.27635867E+03</pdfrwt>
<pdfrwt beam="2">  1       -2 0.10729882E-02 0.27635867E+03</pdfrwt>
<totfact> 0.56895613E+03</totfact>
</mgrwt>
</event>
<event>
 9    1  0.7816570E-001  0.2928240E+03  0.7818608E-02  0.1088884E+00
         -2   -1    0    0    0  501 -0.00000000000E+00  0.00000000000E+00  0.22420123727E+03  0.22420123727E+03  0.00000000000E+00 0. -1.
          2   -1    0    0  501    0  0.00000000000E+00 -0.00000000000E+00 -0.95612638950E+02  0.95612638950E+02  0.00000000000E+00 0. -1.
         35    2    1    2    0    0  0.14210854715E-13  0.71054273576E-14  0.12858859832E+03  0.31981387622E+03  0.29282398776E+03 0.  0.
         25    2    3    3    0    0  0.39373295618E+02  0.45651094901E+02  0.11464045984E+03  0.18000452168E+03  0.12499965567E+03 0.  0.
         25    2    3    3    0    0 -0.39373295618E+02 -0.45651094901E+02  0.13948138479E+02  0.13980935454E+03  0.12537075487E+03 0.  0.
          5    1    4    4  502    0  0.24068731981E+02 -0.32574534711E+02  0.58572298651E+00  0.40777901396E+02  0.47000000000E+01 0.  1.
         -5    1    4    4    0  502  0.15304563638E+02  0.78225629612E+02  0.11405473686E+03  0.13922662029E+03  0.47000000000E+01 0.  1.
          5    1    5    5  503    0  0.44843537859E+02 -0.46954696668E+01  0.54614522212E+01  0.45660790438E+02  0.47000000000E+01 0. -1.
         -5    1    5    5    0  503 -0.84216833477E+02 -0.40955625234E+02  0.84866862576E+01  0.94148564104E+02  0.47000000000E+01 0. -1.
<mgrwt>
<rscale>  0 0.29282399E+03</rscale>
<asrwt>0</asrwt>
<pdfrwt beam="1">  1        2 0.14709637E-01 0.29282399E+03</pdfrwt>
<pdfrwt beam="2">  1       -2 0.34492498E-01 0.29282399E+03</pdfrwt>
<totfact> 0.31441052E+03</totfact>
</mgrwt>
</event>
<event>
 9    1  0.7816570E-001  0.2754628E+03  0.7818608E-02  0.1098193E+00
          1   -1    0    0  501    0  0.00000000000E+00  0.00000000000E+00  0.13747013541E+04  0.13747013541E+04  0.00000000000E+00 0. -1.
         -1   -1    0    0    0  501 -0.00000000000E+00 -0.00000000000E+00 -0.13799317188E+02  0.13799317188E+02  0.00000000000E+00 0. -1.
         35    2    1    2    0    0 -0.71054273576E-14  0.00000000000E+00  0.13609020369E+04  0.13885006713E+04  0.27546281073E+03 0.  0.
         25    2    3    3    0    0 -0.40497750919E+02  0.20821684527E+02  0.79327251770E+03  0.80553584418E+03  0.13241260719E+03 0.  0.
         25    2    3    3    0    0  0.40497750919E+02 -0.20821684527E+02  0.56762951924E+03  0.58296482713E+03  0.12478424656E+03 0.  0.
          5    1    4    4  502    0 -0.24071771480E+02 -0.30665723599E+02  0.66635269646E+03  0.66750868374E+03  0.47000000000E+01 0.  1.
         -5    1    4    4    0  502 -0.16425979439E+02  0.51487408126E+02  0.12691982124E+03  0.13802716044E+03  0.47000000000E+01 0.  1.
          5    1    5    5  503    0  0.73169323918E+02 -0.28981534470E+02  0.50995694904E+03  0.51601536719E+03  0.47000000000E+01 0.  1.
         -5    1    5    5    0  503 -0.32671572999E+02  0.81598499437E+01  0.57672570197E+02  0.66949459942E+02  0.47000000000E+01 0.  1.
<mgrwt>
<rscale>  0 0.27546281E+03</rscale>
<asrwt>0</asrwt>
<pdfrwt beam="1">  1        1 0.21149241E+00 0.27546281E+03</pdfrwt>
<pdfrwt beam="2">  1       -1 0.21229730E-02 0.27546281E+03</pdfrwt>
<totfact> 0.54535875E+03</totfact>
</mgrwt>
</event>
<event>
 9    1  0.7816570E-001  0.2716300E+03  0.7818608E-02  0.1100350E+00
          2   -1    0    0  501    0  0.00000000000E+00  0.00000000000E+00  0.12148708748E+03  0.12148708748E+03  0.00000000000E+00 0. -1.
         -2   -1    0    0    0  501 -0.00000000000E+00 -0.00000000000E+00 -0.15183268184E+03  0.15183268184E+03  0.00000000000E+00 0. -1.
         35    2    1    2    0    0  0.00000000000E+00 -0.71054273576E-14 -0.30345594365E+02  0.27331976932E+03  0.27162997111E+03 0.  0.
         25    2    3    3    0    0  0.31687665361E+02 -0.28953785378E+02 -0.48090526107E+02  0.14092236260E+03  0.12531553677E+03 0.  0.
         25    2    3    3    0    0 -0.31687665361E+02  0.28953785378E+02  0.17744931741E+02  0.13239740672E+03  0.12398290560E+03 0.  0.
          5    1    4    4  502    0  0.78345467346E+01  0.89406955330E+01 -0.82982822381E+02  0.83961627959E+02  0.47000000000E+01 0.  1.
         -5    1    4    4    0  502  0.23853118627E+02 -0.37894480911E+02  0.34892296275E+02  0.56960734643E+02  0.47000000000E+01 0.  1.
          5    1    5    5  503    0  0.28287404646E+02  0.26318029015E+02 -0.35002146165E+02  0.52345545646E+02  0.47000000000E+01 0.  1.
         -5    1    5    5    0  503 -0.59975070008E+02  0.26357563629E+01  0.52747077906E+02  0.80051861075E+02  0.47000000000E+01 0.  1.
<mgrwt>
<rscale>  0 0.27162997E+03</rscale>
<asrwt>0</asrwt>
<pdfrwt beam="1">  1        2 0.18690321E-01 0.27162997E+03</pdfrwt>
<pdfrwt beam="2">  1       -2 0.23358874E-01 0.27162997E+03</pdfrwt>
<totfact> 0.47819637E+03</totfact>
</mgrwt>
</event>
<event>
 9    1  0.7816570E-001  0.2771147E+03  0.7818608E-02  0.1097275E+00
         -1   -1    0    0    0  501 -0.00000000000E+00  0.00000000000E+00  0.87935303787E+03  0.87935303787E+03  0.00000000000E+00 0.  1.
          1   -1    0    0  501    0  0.00000000000E+00 -0.00000000000E+00 -0.21832113059E+02  0.21832113059E+02  0.00000000000E+00 0.  1.
         35    2    1    2    0    0 -0.71054273576E-14  0.00000000000E+00  0.85752092481E+03  0.90118515093E+03  0.27711466898E+03 0.  0.
         25    2    3    3    0    0 -0.33718159470E+02 -0.11502655870E+02  0.26454253642E+03  0.29479136360E+03  0.12509983655E+03 0.  0.
         25    2    3    3    0    0  0.33718159470E+02  0.11502655870E+02  0.59297838839E+03  0.60639378733E+03  0.12174083476E+03 0.  0.
          5    1    4    4  502    0 -0.41213865781E+02 -0.58146647839E+02  0.95792770023E+02  0.11949041876E+03  0.47000000000E+01 0.  1.
         -5    1    4    4    0  502  0.74957063104E+01  0.46643991970E+02  0.16874976640E+03  0.17530094483E+03  0.47000000000E+01 0.  1.
          5    1    5    5  503    0  0.37488503364E+02 -0.28698614552E+02  0.89687847741E+02  0.10146427152E+03  0.47000000000E+01 0. -1.
         -5    1    5    5    0  503 -0.37703438939E+01  0.40201270422E+02  0.50329054065E+03  0.50492951582E+03  0.47000000000E+01 0. -1.
<mgrwt>
<rscale>  0 0.27711467E+03</rscale>
<asrwt>0</asrwt>
<pdfrwt beam="1">  1        1 0.33587873E-02 0.27711467E+03</pdfrwt>
<pdfrwt beam="2">  1       -1 0.13528506E+00 0.27711467E+03</pdfrwt>
<totfact> 0.14327511E+03</totfact>
</mgrwt>
</event>
<event>
 9    1  0.7816570E-001  0.2756555E+03  0.7818608E-02  0.1098086E+00
          1   -1    0    0  501    0  0.00000000000E+00  0.00000000000E+00  0.59503522089E+03  0.59503522089E+03  0.00000000000E+00 0.  1.
         -1   -1    0    0    0  501 -0.00000000000E+00 -0.00000000000E+00 -0.31924975621E+02  0.31924975621E+02  0.00000000000E+00 0.  1.
         35    2    1    2    0    0  0.00000000000E+00  0.00000000000E+00  0.56311024527E+03  0.62696019651E+03  0.27565547280E+03 0.  0.
         25    2    3    3    0    0 -0.39856498348E+02 -0.40719707853E+02  0.30215129597E+03  0.33200076304E+03  0.12522965276E+03 0.  0.
         25    2    3    3    0    0  0.39856498348E+02  0.40719707853E+02  0.26095894930E+03  0.29495943348E+03  0.12511937943E+03 0.  0.
          5    1    4    4  502    0 -0.26627352898E+02  0.19607966672E+02  0.12280788268E+02  0.35586458659E+02  0.47000000000E+01 0.  1.
         -5    1    4    4    0  502 -0.13229145450E+02 -0.60327674526E+02  0.28987050770E+03  0.29641430438E+03  0.47000000000E+01 0.  1.
          5    1    5    5  503    0  0.55740837294E+02 -0.28896507891E+02  0.15288042744E+03  0.16533772771E+03  0.47000000000E+01 0.  1.
         -5    1    5    5    0  503 -0.15884338947E+02  0.69616215745E+02  0.10807852186E+03  0.12962170576E+03  0.47000000000E+01 0.  1.
<mgrwt>
<rscale>  0 0.27565547E+03</rscale>
<asrwt>0</asrwt>
<pdfrwt beam="1">  1        1 0.91543872E-01 0.27565547E+03</pdfrwt>
<pdfrwt beam="2">  1       -1 0.49115352E-02 0.27565547E+03</pdfrwt>
<totfact> 0.64096525E+03</totfact>
</mgrwt>
</event>
<event>
 9    1  0.7816570E-001  0.2747334E+03  0.7818608E-02  0.1098601E+00
          1   -1    0    0  501    0  0.00000000000E+00  0.00000000000E+00  0.22385958529E+03  0.22385958529E+03  0.00000000000E+00 0. -1.
         -1   -1    0    0    0  501 -0.00000000000E+00 -0.00000000000E+00 -0.84292141530E+02  0.84292141530E+02  0.00000000000E+00 0. -1.
         35    2    1    2    0    0  0.00000000000E+00  0.00000000000E+00  0.13956744376E+03  0.30815172682E+03  0.27473335325E+03 0.  0.
         25    2    3    3    0    0 -0.43052181801E+02  0.29324087532E+02  0.60909702438E+02  0.14881732021E+03  0.12539222654E+03 0.  0.
         25    2    3    3    0    0  0.43052181801E+02 -0.29324087532E+02  0.78657741326E+02  0.15933440661E+03  0.12840179279E+03 0.  0.
          5    1    4    4  502    0 -0.18854143149E+02 -0.35451422955E+02  0.68039944109E+02  0.79144210766E+02  0.47000000000E+01 0.  1.
         -5    1    4    4    0  502 -0.24198038652E+02  0.64775510487E+02 -0.71302416717E+01  0.69673109445E+02  0.47000000000E+01 0.  1.
          5    1    5    5  503    0  0.49876194523E+02  0.47772072651E+01 -0.20356002797E+02  0.54285480003E+02  0.47000000000E+01 0. -1.
         -5    1    5    5    0  503 -0.68240127222E+01 -0.34101294797E+02  0.99013744123E+02  0.10504892661E+03  0.47000000000E+01 0. -1.
<mgrwt>
<rscale>  0 0.27473335E+03</rscale>
<asrwt>0</asrwt>
<pdfrwt beam="1">  1        1 0.34439936E-01 0.27473335E+03</pdfrwt>
<pdfrwt beam="2">  1       -1 0.12968022E-01 0.27473335E+03</pdfrwt>
<totfact> 0.51138297E+03</totfact>
</mgrwt>
</event>
<event>
 9    1  0.7816570E-001  0.2789204E+03  0.7818608E-02  0.1096280E+00
         -2   -1    0    0    0  501 -0.00000000000E+00  0.00000000000E+00  0.25771839373E+02  0.25771839373E+02  0.00000000000E+00 0. -1.
          2   -1    0    0  501    0  0.00000000000E+00 -0.00000000000E+00 -0.75466649354E+03  0.75466649354E+03  0.00000000000E+00 0. -1.
         35    2    1    2    0    0 -0.71054273576E-14 -0.14210854715E-13 -0.72889465416E+03  0.78043833291E+03  0.27892037324E+03 0.  0.
         25    2    3    3    0    0  0.61732627832E+01 -0.51399706579E+02 -0.27986628329E+03  0.31132880710E+03  0.12617626797E+03 0.  0.
         25    2    3    3    0    0 -0.61732627832E+01  0.51399706579E+02 -0.44902837087E+03  0.46910952581E+03  0.12552780706E+03 0.  0.
          5    1    4    4  502    0  0.50488842446E+02 -0.62253356963E+02 -0.11538195629E+03  0.14056916270E+03  0.47000000000E+01 0.  1.
         -5    1    4    4    0  502 -0.44315579663E+02  0.10853650384E+02 -0.16448432700E+03  0.17075964440E+03  0.47000000000E+01 0.  1.
          5    1    5    5  503    0 -0.62609979320E+02  0.25392021396E+02 -0.30049572136E+03  0.30803333069E+03  0.47000000000E+01 0. -1.
         -5    1    5    5    0  503  0.56436716537E+02  0.26007685183E+02 -0.14853264952E+03  0.16107619512E+03  0.47000000000E+01 0. -1.
<mgrwt>
<rscale>  0 0.27892037E+03</rscale>
<asrwt>0</asrwt>
<pdfrwt beam="1">  1        2 0.11610253E+00 0.27892037E+03</pdfrwt>
<pdfrwt beam="2">  1       -2 0.39648986E-02 0.27892037E+03</pdfrwt>
<totfact> 0.10609549E+04</totfact>
</mgrwt>
</event>
<event>
 9    1  0.7816570E-001  0.2701236E+03  0.7818608E-02  0.1101209E+00
         -2   -1    0    0    0  501 -0.00000000000E+00  0.00000000000E+00  0.23642406799E+02  0.23642406799E+02  0.00000000000E+00 0.  1.
          2   -1    0    0  501    0  0.00000000000E+00 -0.00000000000E+00 -0.77156668884E+03  0.77156668884E+03  0.00000000000E+00 0.  1.
         35    2    1    2    0    0  0.00000000000E+00  0.00000000000E+00 -0.74792428205E+03  0.79520909564E+03  0.27012362748E+03 0.  0.
         25    2    3    3    0    0 -0.21506198664E+02 -0.43510637346E+02 -0.38182098490E+03  0.40455995856E+03  0.12460258191E+03 0.  0.
         25    2    3    3    0    0  0.21506198664E+02  0.43510637346E+02 -0.36610329715E+03  0.39064913709E+03  0.12735553376E+03 0.  0.
          5    1    4    4  502    0  0.16445054916E+02  0.32794657731E+02 -0.51599201477E+02  0.63486195350E+02  0.47000000000E+01 0.  1.
         -5    1    4    4    0  502 -0.37951253580E+02 -0.76305295076E+02 -0.33022178342E+03  0.34107376321E+03  0.47000000000E+01 0.  1.
          5    1    5    5  503    0 -0.58819093413E+01  0.60688241314E+01 -0.33376574585E+03  0.33390581095E+03  0.47000000000E+01 0. -1.
         -5    1    5    5    0  503  0.27388108006E+02  0.37441813214E+02 -0.32337551302E+02  0.56743326137E+02  0.47000000000E+01 0. -1.
<mgrwt>
<rscale>  0 0.27012363E+03</rscale>
<asrwt>0</asrwt>
<pdfrwt beam="1">  1        2 0.11870257E+00 0.27012363E+03</pdfrwt>
<pdfrwt beam="2">  1       -2 0.36372933E-02 0.27012363E+03</pdfrwt>
<totfact> 0.11732589E+04</totfact>
</mgrwt>
</event>
<event>
 9    1  0.7816570E-001  0.2779460E+03  0.7818608E-02  0.1096816E+00
         -2   -1    0    0    0  501 -0.00000000000E+00  0.00000000000E+00  0.79779757185E+02  0.79779757185E+02  0.00000000000E+00 0.  1.
          2   -1    0    0  501    0  0.00000000000E+00 -0.00000000000E+00 -0.24208508170E+03  0.24208508170E+03  0.00000000000E+00 0.  1.
         35    2    1    2    0    0  0.71054273576E-14  0.00000000000E+00 -0.16230532451E+03  0.32186483888E+03  0.27794595903E+03 0.  0.
         25    2    3    3    0    0 -0.36694527305E+02 -0.36737630985E+02 -0.12029405124E+03  0.18078974665E+03  0.12457179403E+03 0.  0.
         25    2    3    3    0    0  0.36694527305E+02  0.36737630985E+02 -0.42011273275E+02  0.14107509223E+03  0.12426219337E+03 0.  0.
          5    1    4    4  502    0 -0.65940961884E+02 -0.23015906815E+02 -0.16411331220E+02  0.71898290753E+02  0.47000000000E+01 0. -1.
         -5    1    4    4    0  502  0.29246434579E+02 -0.13721724170E+02 -0.10388272002E+03  0.10889145590E+03  0.47000000000E+01 0. -1.
          5    1    5    5  503    0  0.46122668725E+01 -0.11678533669E+02 -0.73587462740E+02  0.74798835732E+02  0.47000000000E+01 0.  1.
         -5    1    5    5    0  503  0.32082260433E+02  0.48416164654E+02  0.31576189465E+02  0.66276256498E+02  0.47000000000E+01 0.  1.
<mgrwt>
<rscale>  0 0.27794596E+03</rscale>
<asrwt>0</asrwt>
<pdfrwt beam="1">  1        2 0.37243858E-01 0.27794596E+03</pdfrwt>
<pdfrwt beam="2">  1       -2 0.12273809E-01 0.27794596E+03</pdfrwt>
<totfact> 0.65378145E+03</totfact>
</mgrwt>
</event>
<event>
 9    1  0.7816570E-001  0.2695123E+03  0.7818608E-02  0.1101559E+00
          2   -1    0    0  501    0  0.00000000000E+00  0.00000000000E+00  0.32988177929E+02  0.32988177929E+02  0.00000000000E+00 0. -1.
         -2   -1    0    0    0  501 -0.00000000000E+00 -0.00000000000E+00 -0.55047672966E+03  0.55047672966E+03  0.00000000000E+00 0. -1.
         35    2    1    2    0    0  0.71054273576E-14 -0.17763568394E-14 -0.51748855173E+03  0.58346490759E+03  0.26951233221E+03 0.  0.
         25    2    3    3    0    0 -0.31874742050E+02 -0.36505382651E+01 -0.35007732744E+03  0.37275790926E+03  0.12395562962E+03 0.  0.
         25    2    3    3    0    0  0.31874742050E+02  0.36505382651E+01 -0.16741122429E+03  0.21070699833E+03  0.12386119456E+03 0.  0.
          5    1    4    4  502    0 -0.52574657070E+02 -0.48441705375E+02 -0.14444760462E+03  0.16123862399E+03  0.47000000000E+01 0.  1.
         -5    1    4    4    0  502  0.20699915020E+02  0.44791167110E+02 -0.20562972282E+03  0.21151928527E+03  0.47000000000E+01 0.  1.
          5    1    5    5  503    0  0.36026885773E+02 -0.97760219086E+01  0.47375993224E+01  0.37921523574E+02  0.47000000000E+01 0. -1.
         -5    1    5    5    0  503 -0.41521437228E+01  0.13426560174E+02 -0.17214882361E+03  0.17278547476E+03  0.47000000000E+01 0. -1.
<mgrwt>
<rscale>  0 0.26951233E+03</rscale>
<asrwt>0</asrwt>
<pdfrwt beam="1">  1        2 0.50751048E-02 0.26951233E+03</pdfrwt>
<pdfrwt beam="2">  1       -2 0.84688719E-01 0.26951233E+03</pdfrwt>
<totfact> 0.19284089E+03</totfact>
</mgrwt>
</event>
<event>
 9    1  0.7816570E-001  0.2647238E+03  0.7818608E-02  0.1104338E+00
          1   -1    0    0  501    0  0.00000000000E+00  0.00000000000E+00  0.30976039144E+04  0.30976039144E+04  0.00000000000E+00 0.  1.
         -1   -1    0    0    0  501 -0.00000000000E+00 -0.00000000000E+00 -0.56558802130E+01  0.56558802130E+01  0.00000000000E+00 0.  1.
         35    2    1    2    0    0 -0.17763568394E-14  0.00000000000E+00  0.30919480342E+04  0.31032597947E+04  0.26472383110E+03 0.  0.
         25    2    3    3    0    0  0.10891424754E-01  0.41601944317E+02  0.16174564331E+04  0.16228914376E+04  0.12601818674E+03 0.  0.
         25    2    3    3    0    0 -0.10891424754E-01 -0.41601944317E+02  0.14744916011E+04  0.14803683571E+04  0.12503706995E+03 0.  0.
          5    1    4    4  502    0  0.15826709467E+02 -0.27441800573E+02  0.13539897092E+03  0.13913485716E+03  0.47000000000E+01 0. -1.
         -5    1    4    4    0  502 -0.15815818042E+02  0.69043744890E+02  0.14820574622E+04  0.14837565804E+04  0.47000000000E+01 0. -1.
          5    1    5    5  503    0 -0.40832708877E+02 -0.49017066329E+02  0.12724623675E+04  0.12740692876E+04  0.47000000000E+01 0.  1.
         -5    1    5    5    0  503  0.40821817453E+02  0.74151220117E+01  0.20202923368E+03  0.20629906950E+03  0.47000000000E+01 0.  1.
<mgrwt>
<rscale>  0 0.26472383E+03</rscale>
<asrwt>0</asrwt>
<pdfrwt beam="1">  1        1 0.47655309E+00 0.26472383E+03</pdfrwt>
<pdfrwt beam="2">  1       -1 0.87013789E-03 0.26472383E+03</pdfrwt>
<totfact> 0.14226976E+03</totfact>
</mgrwt>
</event>
<event>
 9    1  0.7816570E-001  0.2725353E+03  0.7818608E-02  0.1099837E+00
          1   -1    0    0  501    0  0.00000000000E+00  0.00000000000E+00  0.38670683009E+03  0.38670683009E+03  0.00000000000E+00 0. -1.
         -1   -1    0    0    0  501 -0.00000000000E+00 -0.00000000000E+00 -0.48017955162E+02  0.48017955162E+02  0.00000000000E+00 0. -1.
         35    2    1    2    0    0  0.71054273576E-14  0.00000000000E+00  0.33868887493E+03  0.43472478525E+03  0.27253529113E+03 0.  0.
         25    2    3    3    0    0  0.34900712911E+02 -0.40335175249E+02  0.18754106423E+03  0.23155625974E+03  0.12490662324E+03 0.  0.
         25    2    3    3    0    0 -0.34900712911E+02  0.40335175249E+02  0.15114781071E+03  0.20316852552E+03  0.12484711833E+03 0.  0.
          5    1    4    4  502    0  0.71041398677E+02 -0.41198389643E+02  0.68456640660E+02  0.10701677105E+03  0.47000000000E+01 0.  1.
         -5    1    4    4    0  502 -0.36140685766E+02  0.86321439341E+00  0.11908442357E+03  0.12453948869E+03  0.47000000000E+01 0.  1.
          5    1    5    5  503    0 -0.72318011160E+02 -0.89967238017E+01  0.71795808053E+02  0.10240880739E+03  0.47000000000E+01 0. -1.
         -5    1    5    5    0  503  0.37417298249E+02  0.49331899051E+02  0.79352002652E+02  0.10075971813E+03  0.47000000000E+01 0. -1.
<mgrwt>
<rscale>  0 0.27253529E+03</rscale>
<asrwt>0</asrwt>
<pdfrwt beam="1">  1        1 0.59493356E-01 0.27253529E+03</pdfrwt>
<pdfrwt beam="2">  1       -1 0.73873780E-02 0.27253529E+03</pdfrwt>
<totfact> 0.61198502E+03</totfact>
</mgrwt>
</event>
<event>
 9    1  0.7816570E-001  0.2747866E+03  0.7818608E-02  0.1098571E+00
          1   -1    0    0  501    0  0.00000000000E+00  0.00000000000E+00  0.78845165726E+02  0.78845165726E+02  0.00000000000E+00 0. -1.
         -1   -1    0    0    0  501 -0.00000000000E+00 -0.00000000000E+00 -0.23941762478E+03  0.23941762478E+03  0.00000000000E+00 0. -1.
         35    2    1    2    0    0  0.35527136788E-14  0.14210854715E-13 -0.16057245906E+03  0.31826279051E+03  0.27478662488E+03 0.  0.
         25    2    3    3    0    0  0.16536451823E+02  0.51069680171E+02 -0.10273057573E+03  0.17080746473E+03  0.12545936531E+03 0.  0.
         25    2    3    3    0    0 -0.16536451823E+02 -0.51069680171E+02 -0.57841883328E+02  0.14745532578E+03  0.12456252712E+03 0.  0.
          5    1    4    4  502    0  0.67826693037E+02  0.44687441758E+02 -0.44237304710E+02  0.92609161896E+02  0.47000000000E+01 0.  1.
         -5    1    4    4    0  502 -0.51290241213E+02  0.63822384127E+01 -0.58493271019E+02  0.78198302829E+02  0.47000000000E+01 0.  1.
          5    1    5    5  503    0  0.60903149718E+01 -0.79827726292E+02 -0.16252742906E+01  0.80214022078E+02  0.47000000000E+01 0. -1.
         -5    1    5    5    0  503 -0.22626766795E+02  0.28758046121E+02 -0.56216609038E+02  0.67241303705E+02  0.47000000000E+01 0. -1.
<mgrwt>
<rscale>  0 0.27478662E+03</rscale>
<asrwt>0</asrwt>
<pdfrwt beam="1">  1        1 0.12130025E-01 0.27478662E+03</pdfrwt>
<pdfrwt beam="2">  1       -1 0.36833481E-01 0.27478662E+03</pdfrwt>
<totfact> 0.35182674E+03</totfact>
</mgrwt>
</event>
<event>
 9    1  0.7816570E-001  0.2743691E+03  0.7818608E-02  0.1098805E+00
          2   -1    0    0  501    0  0.00000000000E+00  0.00000000000E+00  0.21437067935E+04  0.21437067935E+04  0.00000000000E+00 0.  1.
         -2   -1    0    0    0  501 -0.00000000000E+00 -0.00000000000E+00 -0.87789986461E+01  0.87789986461E+01  0.00000000000E+00 0.  1.
         35    2    1    2    0    0  0.35527136788E-14  0.00000000000E+00  0.21349277949E+04  0.21524857922E+04  0.27436908746E+03 0.  0.
         25    2    3    3    0    0  0.15524846420E+02 -0.96677852270E+00  0.14368679261E+04  0.14423884236E+04  0.12511183865E+03 0.  0.
         25    2    3    3    0    0 -0.15524846420E+02  0.96677852270E+00  0.69805986884E+03  0.71009736856E+03  0.12926227924E+03 0.  0.
          5    1    4    4  502    0 -0.40820546529E+00 -0.35804099281E+02  0.12923299629E+03  0.13418404334E+03  0.47000000000E+01 0. -1.
         -5    1    4    4    0  502  0.15933051885E+02  0.34837320758E+02  0.13076349298E+04  0.13082043803E+04  0.47000000000E+01 0. -1.
          5    1    5    5  503    0  0.18472072382E+02  0.53455189216E+02  0.47536461016E+03  0.47874030257E+03  0.47000000000E+01 0. -1.
         -5    1    5    5    0  503 -0.33996918803E+02 -0.52488410693E+02  0.22269525868E+03  0.23135706599E+03  0.47000000000E+01 0. -1.
<mgrwt>
<rscale>  0 0.27436909E+03</rscale>
<asrwt>0</asrwt>
<pdfrwt beam="1">  1        2 0.32980063E+00 0.27436909E+03</pdfrwt>
<pdfrwt beam="2">  1       -2 0.13506169E-02 0.27436909E+03</pdfrwt>
<totfact> 0.85804805E+03</totfact>
</mgrwt>
</event>
<event>
 9    1  0.7816570E-001  0.2799325E+03  0.7818608E-02  0.1095726E+00
         -2   -1    0    0    0  501 -0.00000000000E+00  0.00000000000E+00  0.10555918979E+03  0.10555918979E+03  0.00000000000E+00 0. -1.
          2   -1    0    0  501    0  0.00000000000E+00 -0.00000000000E+00 -0.18558834876E+03  0.18558834876E+03  0.00000000000E+00 0. -1.
         35    2    1    2    0    0 -0.71054273576E-14 -0.71054273576E-14 -0.80029158963E+02  0.29114753855E+03  0.27993253280E+03 0.  0.
         25    2    3    3    0    0 -0.51545143445E+02  0.36906571024E+02 -0.43123513483E+02  0.14667675006E+03  0.12504173222E+03 0.  0.
         25    2    3    3    0    0  0.51545143445E+02 -0.36906571024E+02 -0.36905645481E+02  0.14447078848E+03  0.12446198319E+03 0.  0.
          5    1    4    4  502    0  0.12090520581E+02  0.65880534958E+02 -0.61084249424E+01  0.67422758988E+02  0.47000000000E+01 0. -1.
         -5    1    4    4    0  502 -0.63635664025E+02 -0.28973963933E+02 -0.37015088540E+02  0.79253991077E+02  0.47000000000E+01 0. -1.
          5    1    5    5  503    0  0.62427363696E+02 -0.72561503237E+02 -0.63579871554E+01  0.96046142508E+02  0.47000000000E+01 0. -1.
         -5    1    5    5    0  503 -0.10882220252E+02  0.35654932212E+02 -0.30547658325E+02  0.48424645975E+02  0.47000000000E+01 0. -1.
<mgrwt>
<rscale>  0 0.27993253E+03</rscale>
<asrwt>0</asrwt>
<pdfrwt beam="1">  1        2 0.28552054E-01 0.27993253E+03</pdfrwt>
<pdfrwt beam="2">  1       -2 0.16239875E-01 0.27993253E+03</pdfrwt>
<totfact> 0.55185826E+03</totfact>
</mgrwt>
</event>
<event>
 9    1  0.7816570E-001  0.2609980E+03  0.7818608E-02  0.1106545E+00
          2   -1    0    0  501    0  0.00000000000E+00  0.00000000000E+00  0.18883041193E+03  0.18883041193E+03  0.00000000000E+00 0. -1.
         -2   -1    0    0    0  501 -0.00000000000E+00 -0.00000000000E+00 -0.90186716858E+02  0.90186716858E+02  0.00000000000E+00 0. -1.
         35    2    1    2    0    0  0.35527136788E-14  0.00000000000E+00  0.98643695071E+02  0.27901712879E+03  0.26099804516E+03 0.  0.
         25    2    3    3    0    0  0.65034832871E+01  0.34872006347E+02  0.46994652837E+02  0.13949407523E+03  0.12645848135E+03 0.  0.
         25    2    3    3    0    0 -0.65034832871E+01 -0.34872006347E+02  0.51649042234E+02  0.13952305356E+03  0.12466237119E+03 0.  0.
          5    1    4    4  502    0 -0.50555000199E+02 -0.13360634816E+02  0.28326186978E+01  0.52577831227E+02  0.47000000000E+01 0. -1.
         -5    1    4    4    0  502  0.57058483487E+02  0.48232641163E+02  0.44162034139E+02  0.86916243998E+02  0.47000000000E+01 0. -1.
          5    1    5    5  503    0  0.15891609425E+02 -0.76146109470E+02  0.14053536396E+02  0.79185637099E+02  0.47000000000E+01 0.  1.
         -5    1    5    5    0  503 -0.22395092713E+02  0.41274103123E+02  0.37595505838E+02  0.60337416463E+02  0.47000000000E+01 0.  1.
<mgrwt>
<rscale>  0 0.26099805E+03</rscale>
<asrwt>0</asrwt>
<pdfrwt beam="1">  1        2 0.29050833E-01 0.26099805E+03</pdfrwt>
<pdfrwt beam="2">  1       -2 0.13874880E-01 0.26099805E+03</pdfrwt>
<totfact> 0.70034924E+03</totfact>
</mgrwt>
</event>
<event>
 9    1  0.7816570E-001  0.2739420E+03  0.7818608E-02  0.1099044E+00
          2   -1    0    0  501    0  0.00000000000E+00  0.00000000000E+00  0.17518696273E+03  0.17518696273E+03  0.00000000000E+00 0.  1.
         -2   -1    0    0    0  501 -0.00000000000E+00 -0.00000000000E+00 -0.10709164726E+03  0.10709164726E+03  0.00000000000E+00 0.  1.
         35    2    1    2    0    0  0.00000000000E+00  0.14210854715E-13  0.68095315468E+02  0.28227860998E+03  0.27394204070E+03 0.  0.
         25    2    3    3    0    0 -0.24590951238E+02  0.44778663449E+02  0.16537405164E+02  0.13738455687E+03  0.12645626562E+03 0.  0.
         25    2    3    3    0    0  0.24590951238E+02 -0.44778663449E+02  0.51557910304E+02  0.14489405311E+03  0.12540424606E+03 0.  0.
          5    1    4    4  502    0  0.34018075298E+02 -0.23852735413E+02 -0.10391482273E+02  0.43084281792E+02  0.47000000000E+01 0.  1.
         -5    1    4    4    0  502 -0.58609026536E+02  0.68631398862E+02  0.26928887437E+02  0.94300275078E+02  0.47000000000E+01 0.  1.
          5    1    5    5  503    0  0.41681920620E+02  0.26896201729E+02  0.50654217567E+02  0.71054401210E+02  0.47000000000E+01 0.  1.
         -5    1    5    5    0  503 -0.17090969382E+02 -0.71674865177E+02  0.90369273719E+00  0.73839651903E+02  0.47000000000E+01 0.  1.
<mgrwt>
<rscale>  0 0.27394204E+03</rscale>
<asrwt>0</asrwt>
<pdfrwt beam="1">  1        2 0.26951840E-01 0.27394204E+03</pdfrwt>
<pdfrwt beam="2">  1       -2 0.16475638E-01 0.27394204E+03</pdfrwt>
<totfact> 0.57377299E+03</totfact>
</mgrwt>
</event>
<event>
 9    1  0.7816570E-001  0.2751094E+03  0.7818608E-02  0.1098390E+00
          1   -1    0    0  501    0  0.00000000000E+00  0.00000000000E+00  0.96620762327E+03  0.96620762327E+03  0.00000000000E+00 0. -1.
         -1   -1    0    0    0  501 -0.00000000000E+00 -0.00000000000E+00 -0.19583047879E+02  0.19583047879E+02  0.00000000000E+00 0. -1.
         35    2    1    2    0    0 -0.71054273576E-14  0.00000000000E+00  0.94662457539E+03  0.98579067115E+03  0.27510936115E+03 0.  0.
         25    2    3    3    0    0 -0.14381448489E+02 -0.32079607410E+02  0.63685834177E+03  0.64994159796E+03  0.12489838275E+03 0.  0.
         25    2    3    3    0    0  0.14381448489E+02  0.32079607410E+02  0.30976623363E+03  0.33584907319E+03  0.12491418331E+03 0.  0.
          5    1    4    4  502    0  0.44100654402E+02  0.64911585157E+01  0.11577196385E+03  0.12414604493E+03  0.47000000000E+01 0.  1.
         -5    1    4    4    0  502 -0.58482102891E+02 -0.38570765926E+02  0.52108637792E+03  0.52579555304E+03  0.47000000000E+01 0.  1.
          5    1    5    5  503    0  0.57689906303E+02  0.18871262251E+02  0.74460292345E+02  0.96180429216E+02  0.47000000000E+01 0. -1.
         -5    1    5    5    0  503 -0.43308457814E+02  0.13208345159E+02  0.23530594128E+03  0.23966864397E+03  0.47000000000E+01 0. -1.
<mgrwt>
<rscale>  0 0.27510936E+03</rscale>
<asrwt>0</asrwt>
<pdfrwt beam="1">  1        1 0.14864729E+00 0.27510936E+03</pdfrwt>
<pdfrwt beam="2">  1       -1 0.30127774E-02 0.27510936E+03</pdfrwt>
<totfact> 0.63531363E+03</totfact>
</mgrwt>
</event>
<event>
 9    1  0.7816570E-001  0.2730986E+03  0.7818608E-02  0.1099519E+00
         -1   -1    0    0    0  501 -0.00000000000E+00  0.00000000000E+00  0.30471535400E+03  0.30471535400E+03  0.00000000000E+00 0. -1.
          1   -1    0    0  501    0  0.00000000000E+00 -0.00000000000E+00 -0.61190578732E+02  0.61190578732E+02  0.00000000000E+00 0. -1.
         35    2    1    2    0    0  0.14210854715E-13  0.00000000000E+00  0.24352477527E+03  0.36590593273E+03  0.27309858191E+03 0.  0.
         25    2    3    3    0    0  0.52828180452E+02  0.13147950476E+02  0.12442793788E+03  0.18428357733E+03  0.12455697449E+03 0.  0.
         25    2    3    3    0    0 -0.52828180452E+02 -0.13147950476E+02  0.11909683739E+03  0.18162235540E+03  0.12585284286E+03 0.  0.
          5    1    4    4  502    0  0.88318276285E+02  0.25680509709E+02  0.11057086204E+03  0.14390139693E+03  0.47000000000E+01 0. -1.
         -5    1    4    4    0  502 -0.35490095833E+02 -0.12532559233E+02  0.13857075845E+02  0.40382180403E+02  0.47000000000E+01 0. -1.
          5    1    5    5  503    0 -0.84999237473E+02 -0.21002341967E+02  0.41262218714E+02  0.96905260086E+02  0.47000000000E+01 0. -1.
         -5    1    5    5    0  503  0.32171057021E+02  0.78543914909E+01  0.77834618672E+02  0.84717095319E+02  0.47000000000E+01 0. -1.
<mgrwt>
<rscale>  0 0.27309858E+03</rscale>
<asrwt>0</asrwt>
<pdfrwt beam="1">  1        1 0.94139353E-02 0.27309858E+03</pdfrwt>
<pdfrwt beam="2">  1       -1 0.46879284E-01 0.27309858E+03</pdfrwt>
<totfact> 0.32096423E+03</totfact>
</mgrwt>
</event>
<event>
 9    1  0.7816570E-001  0.2758490E+03  0.7818608E-02  0.1097978E+00
          3   -1    0    0  501    0  0.00000000000E+00  0.00000000000E+00  0.80650127684E+02  0.80650127684E+02  0.00000000000E+00 0.  1.
         -3   -1    0    0    0  501 -0.00000000000E+00 -0.00000000000E+00 -0.23587280128E+03  0.23587280128E+03  0.00000000000E+00 0.  1.
         35    2    1    2    0    0 -0.71054273576E-14  0.00000000000E+00 -0.15522267360E+03  0.31652292897E+03  0.27584902784E+03 0.  0.
         25    2    3    3    0    0 -0.11705764627E+02 -0.14237733923E+02 -0.19616409812E+02  0.12793557415E+03  0.12507185777E+03 0.  0.
         25    2    3    3    0    0  0.11705764627E+02  0.14237733923E+02 -0.13560626378E+03  0.18858735482E+03  0.12975512948E+03 0.  0.
          5    1    4    4  502    0  0.52921328362E+02  0.15149772036E+02 -0.98360366608E+01  0.56116131420E+02  0.47000000000E+01 0. -1.
         -5    1    4    4    0  502 -0.64627092988E+02 -0.29387505959E+02 -0.97803731508E+01  0.71819442727E+02  0.47000000000E+01 0. -1.
          5    1    5    5  503    0 -0.52957010408E+02  0.14628579252E+02 -0.10105711607E+03  0.11512198309E+03  0.47000000000E+01 0. -1.
         -5    1    5    5    0  503  0.64662775034E+02 -0.39084532839E+00 -0.34549147711E+02  0.73465371725E+02  0.47000000000E+01 0. -1.
<mgrwt>
<rscale>  0 0.27584903E+03</rscale>
<asrwt>0</asrwt>
<pdfrwt beam="1">  1        3 0.12407712E-01 0.27584903E+03</pdfrwt>
<pdfrwt beam="2">  1       -3 0.36288123E-01 0.27584903E+03</pdfrwt>
<totfact> 0.97866260E+02</totfact>
</mgrwt>
</event>
<event>
 9    1  0.7816570E-001  0.2729150E+03  0.7818608E-02  0.1099623E+00
          2   -1    0    0  501    0  0.00000000000E+00  0.00000000000E+00  0.44687602440E+04  0.44687602440E+04  0.00000000000E+00 0.  1.
         -2   -1    0    0    0  501 -0.00000000000E+00 -0.00000000000E+00 -0.41668481748E+01  0.41668481748E+01  0.00000000000E+00 0.  1.
         35    2    1    2    0    0  0.00000000000E+00  0.71054273576E-14  0.44645933958E+04  0.44729270921E+04  0.27291497186E+03 0.  0.
         25    2    3    3    0    0  0.23562739976E+02 -0.36091052395E+02  0.16770080198E+04  0.16822076500E+04  0.12493563343E+03 0.  0.
         25    2    3    3    0    0 -0.23562739976E+02  0.36091052395E+02  0.27875853760E+04  0.27907194421E+04  0.12500003787E+03 0.  0.
          5    1    4    4  502    0 -0.16966014044E+02 -0.64169033880E+02  0.53439457803E+03  0.53852127681E+03  0.47000000000E+01 0. -1.
         -5    1    4    4    0  502  0.40528754020E+02  0.28077981485E+02  0.11426134418E+04  0.11436863732E+04  0.47000000000E+01 0. -1.
          5    1    5    5  503    0  0.28975944715E+02 -0.19657206243E+02  0.32061802786E+03  0.32255855425E+03  0.47000000000E+01 0. -1.
         -5    1    5    5    0  503 -0.52538684691E+02  0.55748258639E+02  0.24669673481E+04  0.24681608879E+04  0.47000000000E+01 0. -1.
<mgrwt>
<rscale>  0 0.27291497E+03</rscale>
<asrwt>0</asrwt>
<pdfrwt beam="1">  1        2 0.68749774E+00 0.27291497E+03</pdfrwt>
<pdfrwt beam="2">  1       -2 0.64105714E-03 0.27291497E+03</pdfrwt>
<totfact> 0.73717435E+02</totfact>
</mgrwt>
</event>
<event>
 9    1  0.7816570E-001  0.2740677E+03  0.7818608E-02  0.1098974E+00
         -1   -1    0    0    0  501 -0.00000000000E+00  0.00000000000E+00  0.92875103495E+03  0.92875103495E+03  0.00000000000E+00 0.  1.
          1   -1    0    0  501    0  0.00000000000E+00 -0.00000000000E+00 -0.20218854096E+02  0.20218854096E+02  0.00000000000E+00 0.  1.
         35    2    1    2    0    0 -0.17763568394E-14  0.00000000000E+00  0.90853218085E+03  0.94896988904E+03  0.27406774102E+03 0.  0.
         25    2    3    3    0    0 -0.69860906982E+01  0.54582346990E+02  0.45442984691E+03  0.47446986274E+03  0.12484841535E+03 0.  0.
         25    2    3    3    0    0  0.69860906982E+01 -0.54582346990E+02  0.45410233394E+03  0.47450002631E+03  0.12614795762E+03 0.  0.
          5    1    4    4  502    0  0.42257654677E+02  0.26297637140E+02  0.71037137863E+02  0.86865643690E+02  0.47000000000E+01 0.  1.
         -5    1    4    4    0  502 -0.49243745376E+02  0.28284709849E+02  0.38339270905E+03  0.38760421905E+03  0.47000000000E+01 0.  1.
          5    1    5    5  503    0 -0.13675901445E+02 -0.59751566239E+02  0.85792259641E+02  0.10554469083E+03  0.47000000000E+01 0.  1.
         -5    1    5    5    0  503  0.20661992143E+02  0.51692192492E+01  0.36831007430E+03  0.36895533547E+03  0.47000000000E+01 0.  1.
<mgrwt>
<rscale>  0 0.27406774E+03</rscale>
<asrwt>0</asrwt>
<pdfrwt beam="1">  1        1 0.31105937E-02 0.27406774E+03</pdfrwt>
<pdfrwt beam="2">  1       -1 0.14288474E+00 0.27406774E+03</pdfrwt>
<totfact> 0.13889127E+03</totfact>
</mgrwt>
</event>
<event>
 9    1  0.7816570E-001  0.2719084E+03  0.7818608E-02  0.1100192E+00
         -2   -1    0    0    0  501 -0.00000000000E+00  0.00000000000E+00  0.16160813652E+02  0.16160813652E+02  0.00000000000E+00 0.  1.
          2   -1    0    0  501    0  0.00000000000E+00 -0.00000000000E+00 -0.11437263753E+04  0.11437263753E+04  0.00000000000E+00 0.  1.
         35    2    1    2    0    0  0.00000000000E+00 -0.71054273576E-14 -0.11275655616E+04  0.11598871889E+04  0.27190843179E+03 0.  0.
         25    2    3    3    0    0 -0.44901044193E+02 -0.32589546003E+02 -0.56992276865E+03  0.58580843331E+03  0.12361786295E+03 0.  0.
         25    2    3    3    0    0  0.44901044193E+02  0.32589546003E+02 -0.55764279296E+03  0.57407875560E+03  0.12459033193E+03 0.  0.
          5    1    4    4  502    0 -0.15331479638E+02 -0.78642886975E+02 -0.35743501302E+03  0.36633541526E+03  0.47000000000E+01 0.  1.
         -5    1    4    4    0  502 -0.29569564555E+02  0.46053340973E+02 -0.21248775562E+03  0.21947301805E+03  0.47000000000E+01 0.  1.
          5    1    5    5  503    0  0.32245168311E+02  0.56678933843E+02 -0.12970173046E+03  0.14524765507E+03  0.47000000000E+01 0.  1.
         -5    1    5    5    0  503  0.12655875882E+02 -0.24089387840E+02 -0.42794106251E+03  0.42883110053E+03  0.47000000000E+01 0.  1.
<mgrwt>
<rscale>  0 0.27190843E+03</rscale>
<asrwt>0</asrwt>
<pdfrwt beam="1">  1        2 0.17595793E+00 0.27190843E+03</pdfrwt>
<pdfrwt beam="2">  1       -2 0.24862786E-02 0.27190843E+03</pdfrwt>
<totfact> 0.12039870E+04</totfact>
</mgrwt>
</event>
<event>
 9    1  0.7816570E-001  0.2725639E+03  0.7818608E-02  0.1099821E+00
          2   -1    0    0  501    0  0.00000000000E+00  0.00000000000E+00  0.13776193950E+04  0.13776193950E+04  0.00000000000E+00 0. -1.
         -2   -1    0    0    0  501 -0.00000000000E+00 -0.00000000000E+00 -0.13481787933E+02  0.13481787933E+02  0.00000000000E+00 0. -1.
         35    2    1    2    0    0  0.35527136788E-14  0.14210854715E-13  0.13641376071E+04  0.13911011830E+04  0.27256391937E+03 0.  0.
         25    2    3    3    0    0 -0.18407805075E+02 -0.35960769801E+02  0.86221489907E+03  0.87239951894E+03  0.12662687007E+03 0.  0.
         25    2    3    3    0    0  0.18407805075E+02  0.35960769801E+02  0.50192270803E+03  0.51870166402E+03  0.12447082859E+03 0.  0.
          5    1    4    4  502    0  0.34083295086E+02 -0.61242022433E+02  0.57674312872E+03  0.58100514873E+03  0.47000000000E+01 0. -1.
         -5    1    4    4    0  502 -0.52491100161E+02  0.25281252632E+02  0.28547177034E+03  0.29139437022E+03  0.47000000000E+01 0. -1.
          5    1    5    5  503    0  0.55238039052E+01  0.43749568346E+02  0.51332385163E+02  0.67835395676E+02  0.47000000000E+01 0.  1.
         -5    1    5    5    0  503  0.12884001170E+02 -0.77887985455E+01  0.45059032287E+03  0.45086626835E+03  0.47000000000E+01 0.  1.
<mgrwt>
<rscale>  0 0.27256392E+03</rscale>
<asrwt>0</asrwt>
<pdfrwt beam="1">  1        2 0.21194133E+00 0.27256392E+03</pdfrwt>
<pdfrwt beam="2">  1       -2 0.20741223E-02 0.27256392E+03</pdfrwt>
<totfact> 0.11638592E+04</totfact>
</mgrwt>
</event>
<event>
 9    1  0.7816570E-001  0.2606923E+03  0.7818608E-02  0.1106728E+00
         -2   -1    0    0    0  501 -0.00000000000E+00  0.00000000000E+00  0.27869920999E+02  0.27869920999E+02  0.00000000000E+00 0.  1.
          2   -1    0    0  501    0  0.00000000000E+00 -0.00000000000E+00 -0.60962192722E+03  0.60962192722E+03  0.00000000000E+00 0.  1.
         35    2    1    2    0    0  0.53290705182E-14  0.00000000000E+00 -0.58175200622E+03  0.63749184821E+03  0.26069227032E+03 0.  0.
         25    2    3    3    0    0 -0.76840963040E+01  0.19653832310E+02 -0.36855849592E+03  0.38976617630E+03  0.12504794604E+03 0.  0.
         25    2    3    3    0    0  0.76840963040E+01 -0.19653832310E+02 -0.21319351030E+03  0.24772567192E+03  0.12438334790E+03 0.  0.
          5    1    4    4  502    0 -0.18396336538E+02  0.40103182623E+02 -0.38143752156E+02  0.58512616443E+02  0.47000000000E+01 0. -1.
         -5    1    4    4    0  502  0.10712240234E+02 -0.20449350313E+02 -0.33041474376E+03  0.33125355985E+03  0.47000000000E+01 0. -1.
          5    1    5    5  503    0 -0.52682608266E+02 -0.34209522008E+02 -0.92465418465E+02  0.11188249292E+03  0.47000000000E+01 0. -1.
         -5    1    5    5    0  503  0.60366704570E+02  0.14555689699E+02 -0.12072809183E+03  0.13584317900E+03  0.47000000000E+01 0. -1.
<mgrwt>
<rscale>  0 0.26069227E+03</rscale>
<asrwt>0</asrwt>
<pdfrwt beam="1">  1        2 0.93787985E-01 0.26069227E+03</pdfrwt>
<pdfrwt beam="2">  1       -2 0.42876803E-02 0.26069227E+03</pdfrwt>
<totfact> 0.12157147E+04</totfact>
</mgrwt>
</event>
<event>
 9    1  0.7816570E-001  0.2757433E+03  0.7818608E-02  0.1098037E+00
          1   -1    0    0  501    0  0.00000000000E+00  0.00000000000E+00  0.19196421153E+02  0.19196421153E+02  0.00000000000E+00 0.  1.
         -1   -1    0    0    0  501 -0.00000000000E+00 -0.00000000000E+00 -0.99021522925E+03  0.99021522925E+03  0.00000000000E+00 0.  1.
         35    2    1    2    0    0  0.00000000000E+00  0.00000000000E+00 -0.97101880809E+03  0.10094116504E+04  0.27574327606E+03 0.  0.
         25    2    3    3    0    0  0.23014232065E+02  0.51968082602E+02 -0.46492789173E+03  0.48474893038E+03  0.12487291344E+03 0.  0.
         25    2    3    3    0    0 -0.23014232065E+02 -0.51968082602E+02 -0.50609091637E+03  0.52466272002E+03  0.12614522449E+03 0.  0.
          5    1    4    4  502    0 -0.30119270154E+01  0.30659114556E+02 -0.16929154941E+02  0.35464620352E+02  0.47000000000E+01 0.  1.
         -5    1    4    4    0  502  0.26026159080E+02  0.21308968046E+02 -0.44799873679E+03  0.44928431003E+03  0.47000000000E+01 0.  1.
          5    1    5    5  503    0  0.15525174831E+02 -0.48103542338E+02 -0.46586644477E+03  0.46862417373E+03  0.47000000000E+01 0.  1.
         -5    1    5    5    0  503 -0.38539406895E+02 -0.38645402633E+01 -0.40224471596E+02  0.56038546292E+02  0.47000000000E+01 0.  1.
<mgrwt>
<rscale>  0 0.27574328E+03</rscale>
<asrwt>0</asrwt>
<pdfrwt beam="1">  1        1 0.29532950E-02 0.27574328E+03</pdfrwt>
<pdfrwt beam="2">  1       -1 0.15234084E+00 0.27574328E+03</pdfrwt>
<totfact> 0.12644271E+03</totfact>
</mgrwt>
</event>
<event>
 9    1  0.7816570E-001  0.2731060E+03  0.7818608E-02  0.1099515E+00
          1   -1    0    0  501    0  0.00000000000E+00  0.00000000000E+00  0.58411476939E+03  0.58411476939E+03  0.00000000000E+00 0. -1.
         -1   -1    0    0    0  501 -0.00000000000E+00 -0.00000000000E+00 -0.31923043025E+02  0.31923043025E+02  0.00000000000E+00 0. -1.
         35    2    1    2    0    0  0.35527136788E-14 -0.35527136788E-14  0.55219172637E+03  0.61603781242E+03  0.27310599345E+03 0.  0.
         25    2    3    3    0    0  0.92441864838E+00 -0.29539951248E+02  0.38030745159E+03  0.40116719843E+03  0.12420909828E+03 0.  0.
         25    2    3    3    0    0 -0.92441864838E+00  0.29539951248E+02  0.17188427478E+03  0.21487061398E+03  0.12550583081E+03 0.  0.
          5    1    4    4  502    0  0.47769946122E+02 -0.39307882389E+02  0.30897289648E+03  0.31514031499E+03  0.47000000000E+01 0. -1.
         -5    1    4    4    0  502 -0.46845527474E+02  0.97679311407E+01  0.71334555109E+02  0.86026883447E+02  0.47000000000E+01 0. -1.
          5    1    5    5  503    0 -0.23173735474E+02 -0.18975126547E+02  0.15609562200E+03  0.15901261161E+03  0.47000000000E+01 0.  1.
         -5    1    5    5    0  503  0.22249316826E+02  0.48515077795E+02  0.15788652778E+02  0.55858002374E+02  0.47000000000E+01 0.  1.
<mgrwt>
<rscale>  0 0.27310599E+03</rscale>
<asrwt>0</asrwt>
<pdfrwt beam="1">  1        1 0.89863803E-01 0.27310599E+03</pdfrwt>
<pdfrwt beam="2">  1       -1 0.49112378E-02 0.27310599E+03</pdfrwt>
<totfact> 0.65746461E+03</totfact>
</mgrwt>
</event>
<event>
 9    1  0.7816570E-001  0.2727478E+03  0.7818608E-02  0.1099717E+00
          1   -1    0    0  501    0  0.00000000000E+00  0.00000000000E+00  0.49035889681E+03  0.49035889681E+03  0.00000000000E+00 0.  1.
         -1   -1    0    0    0  501 -0.00000000000E+00 -0.00000000000E+00 -0.37926984460E+02  0.37926984460E+02  0.00000000000E+00 0.  1.
         35    2    1    2    0    0  0.00000000000E+00  0.71054273576E-14  0.45243191235E+03  0.52828588127E+03  0.27274775350E+03 0.  0.
         25    2    3    3    0    0  0.30773639609E+02 -0.30343539678E+02  0.17600271405E+03  0.22179351771E+03  0.12785797530E+03 0.  0.
         25    2    3    3    0    0 -0.30773639609E+02  0.30343539678E+02  0.27642919830E+03  0.30649236356E+03  0.12512681549E+03 0.  0.
          5    1    4    4  502    0 -0.51979041082E+01 -0.41378684621E+02  0.17890740239E+03  0.18376387669E+03  0.47000000000E+01 0.  1.
         -5    1    4    4    0  502  0.35971543718E+02  0.11035144943E+02 -0.29046883375E+01  0.38029641014E+02  0.47000000000E+01 0.  1.
          5    1    5    5  503    0  0.11384581932E+01  0.72727024079E+02  0.20368786871E+03  0.21633620589E+03  0.47000000000E+01 0. -1.
         -5    1    5    5    0  503 -0.31912097803E+02 -0.42383484401E+02  0.72741329586E+02  0.90156157672E+02  0.47000000000E+01 0. -1.
<mgrwt>
<rscale>  0 0.27274775E+03</rscale>
<asrwt>0</asrwt>
<pdfrwt beam="1">  1        1 0.75439826E-01 0.27274775E+03</pdfrwt>
<pdfrwt beam="2">  1       -1 0.58349210E-02 0.27274775E+03</pdfrwt>
<totfact> 0.64265487E+03</totfact>
</mgrwt>
</event>
<event>
 9    1  0.7816570E-001  0.2851318E+03  0.7818608E-02  0.1092919E+00
         -1   -1    0    0    0  501 -0.00000000000E+00  0.00000000000E+00  0.32274149452E+02  0.32274149452E+02  0.00000000000E+00 0. -1.
          1   -1    0    0  501    0  0.00000000000E+00 -0.00000000000E+00 -0.62976221314E+03  0.62976221314E+03  0.00000000000E+00 0. -1.
         35    2    1    2    0    0  0.00000000000E+00  0.35527136788E-14 -0.59748806369E+03  0.66203636260E+03  0.28513182766E+03 0.  0.
         25    2    3    3    0    0  0.67183992675E+02 -0.15673693894E+02 -0.31040587246E+03  0.34164432063E+03  0.12493871541E+03 0.  0.
         25    2    3    3    0    0 -0.67183992675E+02  0.15673693894E+02 -0.28708219123E+03  0.32039204196E+03  0.12440065306E+03 0.  0.
          5    1    4    4  502    0  0.16689064428E+02 -0.48830115216E+02 -0.25274677466E+03  0.25800373471E+03  0.47000000000E+01 0. -1.
         -5    1    4    4    0  502  0.50494928247E+02  0.33156421322E+02 -0.57659097803E+02  0.83640585920E+02  0.47000000000E+01 0. -1.
          5    1    5    5  503    0  0.36185793078E+02  0.12209695834E+02 -0.69791453704E+02  0.79695829898E+02  0.47000000000E+01 0. -1.
         -5    1    5    5    0  503 -0.10336978575E+03  0.34639980592E+01 -0.21729073752E+03  0.24069621207E+03  0.47000000000E+01 0. -1.
<mgrwt>
<rscale>  0 0.28513183E+03</rscale>
<asrwt>0</asrwt>
<pdfrwt beam="1">  1        1 0.96886490E-01 0.28513183E+03</pdfrwt>
<pdfrwt beam="2">  1       -1 0.49652540E-02 0.28513183E+03</pdfrwt>
<totfact> 0.58305897E+03</totfact>
</mgrwt>
</event>
<event>
 9    1  0.7816570E-001  0.2740833E+03  0.7818608E-02  0.1098965E+00
         -2   -1    0    0    0  501 -0.00000000000E+00  0.00000000000E+00  0.74051515287E+02  0.74051515287E+02  0.00000000000E+00 0. -1.
          2   -1    0    0  501    0  0.00000000000E+00 -0.00000000000E+00 -0.25361283807E+03  0.25361283807E+03  0.00000000000E+00 0. -1.
         35    2    1    2    0    0  0.71054273576E-14 -0.35527136788E-14 -0.17956132278E+03  0.32766435335E+03  0.27408330818E+03 0.  0.
         25    2    3    3    0    0 -0.57104056750E+02 -0.35208627329E+01 -0.10406731914E+03  0.17086075432E+03  0.12284185233E+03 0.  0.
         25    2    3    3    0    0  0.57104056750E+02  0.35208627329E+01 -0.75494003638E+02  0.15680359903E+03  0.12495901053E+03 0.  0.
          5    1    4    4  502    0  0.29151646130E+02  0.30535748551E+02 -0.36794929579E+02  0.56197929271E+02  0.47000000000E+01 0.  1.
         -5    1    4    4    0  502 -0.86255702880E+02 -0.34056611284E+02 -0.67272389563E+02  0.11466282505E+03  0.47000000000E+01 0.  1.
          5    1    5    5  503    0  0.14263123552E+02  0.54397467995E+02 -0.69979682660E+02  0.89898649617E+02  0.47000000000E+01 0.  1.
         -5    1    5    5    0  503  0.42840933198E+02 -0.50876605262E+02 -0.55143209777E+01  0.66904949414E+02  0.47000000000E+01 0.  1.
<mgrwt>
<rscale>  0 0.27408331E+03</rscale>
<asrwt>0</asrwt>
<pdfrwt beam="1">  1        2 0.39017360E-01 0.27408331E+03</pdfrwt>
<pdfrwt beam="2">  1       -2 0.11392541E-01 0.27408331E+03</pdfrwt>
<totfact> 0.70071815E+03</totfact>
</mgrwt>
</event>
<event>
 9    1  0.7816570E-001  0.2724666E+03  0.7818608E-02  0.1099876E+00
          2   -1    0    0  501    0  0.00000000000E+00  0.00000000000E+00  0.23027606455E+04  0.23027606455E+04  0.00000000000E+00 0.  1.
         -2   -1    0    0    0  501 -0.00000000000E+00 -0.00000000000E+00 -0.80596800937E+01  0.80596800937E+01  0.00000000000E+00 0.  1.
         35    2    1    2    0    0  0.00000000000E+00  0.71054273576E-14  0.22947009654E+04  0.23108203256E+04  0.27246661546E+03 0.  0.
         25    2    3    3    0    0 -0.41115675829E+02 -0.32819456191E+02  0.11383400198E+04  0.11466110010E+04  0.12700854822E+03 0.  0.
         25    2    3    3    0    0  0.41115675829E+02  0.32819456191E+02  0.11563609456E+04  0.11642093246E+04  0.12427831491E+03 0.  0.
          5    1    4    4  502    0  0.45052197785E+01 -0.78967445961E+01  0.38714581845E+01  0.10942292673E+02  0.47000000000E+01 0. -1.
         -5    1    4    4    0  502 -0.45620895608E+02 -0.24922711595E+02  0.11344685616E+04  0.11356687083E+04  0.47000000000E+01 0. -1.
          5    1    5    5  503    0  0.56879151344E+02 -0.27672620555E+02  0.78832664406E+03  0.79087419955E+03  0.47000000000E+01 0. -1.
         -5    1    5    5    0  503 -0.15763475514E+02  0.60492076746E+02  0.36803430153E+03  0.37333512507E+03  0.47000000000E+01 0. -1.
<mgrwt>
<rscale>  0 0.27246662E+03</rscale>
<asrwt>0</asrwt>
<pdfrwt beam="1">  1        2 0.35427034E+00 0.27246662E+03</pdfrwt>
<pdfrwt beam="2">  1       -2 0.12399526E-02 0.27246662E+03</pdfrwt>
<totfact> 0.79964561E+03</totfact>
</mgrwt>
</event>
<event>
 9    1  0.7816570E-001  0.2744150E+03  0.7818608E-02  0.1098779E+00
         -2   -1    0    0    0  501 -0.00000000000E+00  0.00000000000E+00  0.15991800057E+02  0.15991800057E+02  0.00000000000E+00 0.  1.
          2   -1    0    0  501    0  0.00000000000E+00 -0.00000000000E+00 -0.11772216123E+04  0.11772216123E+04  0.00000000000E+00 0.  1.
         35    2    1    2    0    0  0.71054273576E-14  0.00000000000E+00 -0.11612298122E+04  0.11932134124E+04  0.27441496057E+03 0.  0.
         25    2    3    3    0    0  0.29903986124E+02 -0.37539689049E+02 -0.44115312693E+03  0.46085585474E+03  0.12437266904E+03 0.  0.
         25    2    3    3    0    0 -0.29903986124E+02  0.37539689049E+02 -0.72007668531E+03  0.73235755762E+03  0.12463419608E+03 0.  0.
          5    1    4    4  502    0  0.62830066307E+02 -0.15476512528E+02 -0.39296685959E+03  0.39828655816E+03  0.47000000000E+01 0.  1.
         -5    1    4    4    0  502 -0.32926080183E+02 -0.22063176520E+02 -0.48186267342E+02  0.62569296582E+02  0.47000000000E+01 0.  1.
          5    1    5    5  503    0 -0.76922743366E+02  0.22530408687E+02 -0.35742336781E+03  0.36633083629E+03  0.47000000000E+01 0.  1.
         -5    1    5    5    0  503  0.47018757242E+02  0.15009280362E+02 -0.36265331750E+03  0.36602672133E+03  0.47000000000E+01 0.  1.
<mgrwt>
<rscale>  0 0.27441496E+03</rscale>
<asrwt>0</asrwt>
<pdfrwt beam="1">  1        2 0.18111110E+00 0.27441496E+03</pdfrwt>
<pdfrwt beam="2">  1       -2 0.24602758E-02 0.27441496E+03</pdfrwt>
<totfact> 0.11701181E+04</totfact>
</mgrwt>
</event>
<event>
 9    1  0.7816570E-001  0.2762187E+03  0.7818608E-02  0.1097772E+00
         -2   -1    0    0    0  501 -0.00000000000E+00  0.00000000000E+00  0.25103399187E+02  0.25103399187E+02  0.00000000000E+00 0.  1.
          2   -1    0    0  501    0  0.00000000000E+00 -0.00000000000E+00 -0.75982484149E+03  0.75982484149E+03  0.00000000000E+00 0.  1.
         35    2    1    2    0    0  0.71054273576E-14  0.71054273576E-14 -0.73472144230E+03  0.78492824067E+03  0.27621865475E+03 0.  0.
         25    2    3    3    0    0 -0.12315522780E+02 -0.55884742196E+02 -0.40804749507E+03  0.43050882266E+03  0.12474097819E+03 0.  0.
         25    2    3    3    0    0  0.12315522780E+02  0.55884742196E+02 -0.32667394723E+03  0.35441941801E+03  0.12498991782E+03 0.  0.
          5    1    4    4  502    0 -0.59391059071E+02 -0.49760128555E+01 -0.11836309931E+03  0.13260456960E+03  0.47000000000E+01 0.  1.
         -5    1    4    4    0  502  0.47075536291E+02 -0.50908729341E+02 -0.28968439576E+03  0.29790425306E+03  0.47000000000E+01 0.  1.
          5    1    5    5  503    0 -0.28367513729E+02  0.19976595882E+02 -0.15115528775E+02  0.38135933558E+02  0.47000000000E+01 0. -1.
         -5    1    5    5    0  503  0.40683036509E+02  0.35908146314E+02 -0.31155841845E+03  0.31628348446E+03  0.47000000000E+01 0. -1.
<mgrwt>
<rscale>  0 0.27621865E+03</rscale>
<asrwt>0</asrwt>
<pdfrwt beam="1">  1        2 0.11689612E+00 0.27621865E+03</pdfrwt>
<pdfrwt beam="2">  1       -2 0.38620616E-02 0.27621865E+03</pdfrwt>
<totfact> 0.10939949E+04</totfact>
</mgrwt>
</event>
<event>
 9    1  0.7816570E-001  0.2750811E+03  0.7818608E-02  0.1098406E+00
          2   -1    0    0  501    0  0.00000000000E+00  0.00000000000E+00  0.32408852892E+04  0.32408852892E+04  0.00000000000E+00 0.  1.
         -2   -1    0    0    0  501 -0.00000000000E+00 -0.00000000000E+00 -0.58371107856E+01  0.58371107856E+01  0.00000000000E+00 0.  1.
         35    2    1    2    0    0  0.00000000000E+00 -0.14210854715E-13  0.32350481784E+04  0.32467224000E+04  0.27508112604E+03 0.  0.
         25    2    3    3    0    0 -0.91244291568E+01 -0.58421987361E+02  0.14751959849E+04  0.14814994414E+04  0.12304884062E+03 0.  0.
         25    2    3    3    0    0  0.91244291568E+01  0.58421987361E+02  0.17598521935E+04  0.17652229586E+04  0.12424156590E+03 0.  0.
          5    1    4    4  502    0  0.31362356352E+02 -0.83008512323E+02  0.98114525898E+03  0.98516096134E+03  0.47000000000E+01 0.  1.
         -5    1    4    4    0  502 -0.40486785509E+02  0.24586524962E+02  0.49405072590E+03  0.49633848004E+03  0.47000000000E+01 0.  1.
          5    1    5    5  503    0 -0.38983184438E+02  0.14268054391E+02  0.13065372167E+04  0.13072049781E+04  0.47000000000E+01 0.  1.
         -5    1    5    5    0  503  0.48107613595E+02  0.44153932970E+02  0.45331497678E+03  0.45801798049E+03  0.47000000000E+01 0.  1.
<mgrwt>
<rscale>  0 0.27508113E+03</rscale>
<asrwt>0</asrwt>
<pdfrwt beam="1">  1        2 0.49859630E+00 0.27508113E+03</pdfrwt>
<pdfrwt beam="2">  1       -2 0.89801963E-03 0.27508113E+03</pdfrwt>
<totfact> 0.37079458E+03</totfact>
</mgrwt>
</event>
<event>
 9    1  0.7816570E-001  0.2726723E+03  0.7818608E-02  0.1099760E+00
          2   -1    0    0  501    0  0.00000000000E+00  0.00000000000E+00  0.54511429113E+02  0.54511429113E+02  0.00000000000E+00 0.  1.
         -2   -1    0    0    0  501 -0.00000000000E+00 -0.00000000000E+00 -0.34098445073E+03  0.34098445073E+03  0.00000000000E+00 0.  1.
         35    2    1    2    0    0  0.71054273576E-14  0.00000000000E+00 -0.28647302161E+03  0.39549587984E+03  0.27267232873E+03 0.  0.
         25    2    3    3    0    0 -0.31373012430E+02  0.20014028858E+02 -0.87274478157E+02  0.15710953343E+03  0.12522676909E+03 0.  0.
         25    2    3    3    0    0  0.31373012430E+02 -0.20014028858E+02 -0.19919854346E+03  0.23838634641E+03  0.12555143638E+03 0.  0.
          5    1    4    4  502    0 -0.52766596809E+02 -0.14032180841E+02  0.62901158044E+01  0.55162227972E+02  0.47000000000E+01 0. -1.
         -5    1    4    4    0  502  0.21393584380E+02  0.34046209698E+02 -0.93564593961E+02  0.10194730546E+03  0.47000000000E+01 0. -1.
          5    1    5    5  503    0 -0.19137150674E+02 -0.43378340737E+02 -0.16754951251E+03  0.17419196342E+03  0.47000000000E+01 0. -1.
         -5    1    5    5    0  503  0.50510163104E+02  0.23364311879E+02 -0.31649030952E+02  0.64194382983E+02  0.47000000000E+01 0. -1.
<mgrwt>
<rscale>  0 0.27267233E+03</rscale>
<asrwt>0</asrwt>
<pdfrwt beam="1">  1        2 0.83863737E-02 0.27267233E+03</pdfrwt>
<pdfrwt beam="2">  1       -2 0.52459146E-01 0.27267233E+03</pdfrwt>
<totfact> 0.27802445E+03</totfact>
</mgrwt>
</event>
<event>
 9    1  0.7816570E-001  0.2750350E+03  0.7818608E-02  0.1098432E+00
         -1   -1    0    0    0  501 -0.00000000000E+00  0.00000000000E+00  0.19315332710E+02  0.19315332710E+02  0.00000000000E+00 0. -1.
          1   -1    0    0  501    0  0.00000000000E+00 -0.00000000000E+00 -0.97907019976E+03  0.97907019976E+03  0.00000000000E+00 0. -1.
         35    2    1    2    0    0 -0.71054273576E-14  0.00000000000E+00 -0.95975486705E+03  0.99838553247E+03  0.27503502799E+03 0.  0.
         25    2    3    3    0    0  0.45256544336E+02  0.23524093910E+02 -0.58447106999E+03  0.59958209082E+03  0.12365562734E+03 0.  0.
         25    2    3    3    0    0 -0.45256544336E+02 -0.23524093910E+02 -0.37528379706E+03  0.39880344166E+03  0.12491884942E+03 0.  0.
          5    1    4    4  502    0 -0.41760171022E+02  0.11460017840E+02 -0.14540708484E+03  0.15179115328E+03  0.47000000000E+01 0. -1.
         -5    1    4    4    0  502  0.87016715358E+02  0.12064076071E+02 -0.43906398515E+03  0.44779093753E+03  0.47000000000E+01 0. -1.
          5    1    5    5  503    0 -0.47558169843E+02 -0.15700329795E+02 -0.42405436173E+02  0.65792027568E+02  0.47000000000E+01 0.  1.
         -5    1    5    5    0  503  0.23016255067E+01 -0.78237641151E+01 -0.33287836089E+03  0.33301141409E+03  0.47000000000E+01 0.  1.
<mgrwt>
<rscale>  0 0.27503503E+03</rscale>
<asrwt>0</asrwt>
<pdfrwt beam="1">  1        1 0.15062616E+00 0.27503503E+03</pdfrwt>
<pdfrwt beam="2">  1       -1 0.29715901E-02 0.27503503E+03</pdfrwt>
<totfact> 0.63395843E+03</totfact>
</mgrwt>
</event>
<event>
 9    1  0.7816570E-001  0.2726786E+03  0.7818608E-02  0.1099756E+00
          2   -1    0    0  501    0  0.00000000000E+00  0.00000000000E+00  0.19166119295E+03  0.19166119295E+03  0.00000000000E+00 0. -1.
         -2   -1    0    0    0  501 -0.00000000000E+00 -0.00000000000E+00 -0.96985728297E+02  0.96985728297E+02  0.00000000000E+00 0. -1.
         35    2    1    2    0    0  0.00000000000E+00  0.35527136788E-14  0.94675464652E+02  0.28864692125E+03  0.27267856817E+03 0.  0.
         25    2    3    3    0    0  0.51823413653E+02  0.95134154712E+01  0.54404818705E+02  0.14707917209E+03  0.12608024146E+03 0.  0.
         25    2    3    3    0    0 -0.51823413653E+02 -0.95134154712E+01  0.40270645947E+02  0.14156774916E+03  0.12507410364E+03 0.  0.
          5    1    4    4  502    0  0.17280017856E+02 -0.45346875322E+02 -0.15946733742E+02  0.51296456365E+02  0.47000000000E+01 0. -1.
         -5    1    4    4    0  502  0.34543395797E+02  0.54860290793E+02  0.70351552447E+02  0.95782715721E+02  0.47000000000E+01 0. -1.
          5    1    5    5  503    0 -0.77526607203E+02 -0.32733002944E+02 -0.49286586169E+01  0.84428703542E+02  0.47000000000E+01 0. -1.
         -5    1    5    5    0  503  0.25703193550E+02  0.23219587473E+02  0.45199304564E+02  0.57139045618E+02  0.47000000000E+01 0. -1.
<mgrwt>
<rscale>  0 0.27267857E+03</rscale>
<asrwt>0</asrwt>
<pdfrwt beam="1">  1        2 0.29486337E-01 0.27267857E+03</pdfrwt>
<pdfrwt beam="2">  1       -2 0.14920881E-01 0.27267857E+03</pdfrwt>
<totfact> 0.61243283E+03</totfact>
</mgrwt>
</event>
<event>
 9    1  0.7816570E-001  0.2822488E+03  0.7818608E-02  0.1094467E+00
          3   -1    0    0  501    0  0.00000000000E+00  0.00000000000E+00  0.70490757881E+03  0.70490757881E+03  0.00000000000E+00 0. -1.
         -3   -1    0    0    0  501 -0.00000000000E+00 -0.00000000000E+00 -0.28253476405E+02  0.28253476405E+02  0.00000000000E+00 0. -1.
         35    2    1    2    0    0  0.00000000000E+00 -0.35527136788E-14  0.67665410240E+03  0.73316105521E+03  0.28224875302E+03 0.  0.
         25    2    3    3    0    0  0.59797897905E+02 -0.15976873317E+02  0.22979541096E+03  0.26514175652E+03  0.11688956787E+03 0.  0.
         25    2    3    3    0    0 -0.59797897905E+02  0.15976873317E+02  0.44685869144E+03  0.46801929869E+03  0.12461269902E+03 0.  0.
          5    1    4    4  502    0 -0.87461979544E+01 -0.47612749549E+02  0.48435474126E+02  0.68640768149E+02  0.47000000000E+01 0.  1.
         -5    1    4    4    0  502  0.68544095860E+02  0.31635876231E+02  0.18135993684E+03  0.19650098837E+03  0.47000000000E+01 0.  1.
          5    1    5    5  503    0 -0.37638354589E+02 -0.34062892341E+02  0.66899892404E+02  0.84110712602E+02  0.47000000000E+01 0.  1.
         -5    1    5    5    0  503 -0.22159543316E+02  0.50039765658E+02  0.37995879904E+03  0.38390858609E+03  0.47000000000E+01 0.  1.
<mgrwt>
<rscale>  0 0.28224875E+03</rscale>
<asrwt>0</asrwt>
<pdfrwt beam="1">  1        3 0.10844731E+00 0.28224875E+03</pdfrwt>
<pdfrwt beam="2">  1       -3 0.43466892E-02 0.28224875E+03</pdfrwt>
<totfact> 0.54439503E+02</totfact>
</mgrwt>
</event>
<event>
 9    1  0.7816570E-001  0.2874896E+03  0.7818608E-02  0.1091667E+00
          1   -1    0    0  501    0  0.00000000000E+00  0.00000000000E+00  0.28927532513E+03  0.28927532513E+03  0.00000000000E+00 0. -1.
         -1   -1    0    0    0  501 -0.00000000000E+00 -0.00000000000E+00 -0.71428708818E+02  0.71428708818E+02  0.00000000000E+00 0. -1.
         35    2    1    2    0    0 -0.71054273576E-14  0.00000000000E+00  0.21784661631E+03  0.36070403395E+03  0.28748956828E+03 0.  0.
         25    2    3    3    0    0  0.45897424152E+02  0.66149210089E+01  0.41395772620E+02  0.13974735908E+03  0.12516143038E+03 0.  0.
         25    2    3    3    0    0 -0.45897424152E+02 -0.66149210089E+01  0.17645084369E+03  0.22095667487E+03  0.12464598352E+03 0.  0.
          5    1    4    4  502    0  0.50724149143E+01  0.51370120482E+02  0.56971576597E+02  0.77022524052E+02  0.47000000000E+01 0.  1.
         -5    1    4    4    0  502  0.40825009238E+02 -0.44755199473E+02 -0.15575803978E+02  0.62724835024E+02  0.47000000000E+01 0.  1.
          5    1    5    5  503    0  0.12866991018E+02 -0.50779364273E+02  0.40679126346E+02  0.66490485140E+02  0.47000000000E+01 0. -1.
         -5    1    5    5    0  503 -0.58764415170E+02  0.44164443264E+02  0.13577171735E+03  0.15446618973E+03  0.47000000000E+01 0. -1.
<mgrwt>
<rscale>  0 0.28748957E+03</rscale>
<asrwt>0</asrwt>
<pdfrwt beam="1">  1        1 0.44503896E-01 0.28748957E+03</pdfrwt>
<pdfrwt beam="2">  1       -1 0.10989032E-01 0.28748957E+03</pdfrwt>
<totfact> 0.48065209E+03</totfact>
</mgrwt>
</event>
<event>
 9    1  0.7816570E-001  0.2711362E+03  0.7818608E-02  0.1100631E+00
         -1   -1    0    0    0  501 -0.00000000000E+00  0.00000000000E+00  0.17283083084E+02  0.17283083084E+02  0.00000000000E+00 0. -1.
          1   -1    0    0  501    0  0.00000000000E+00 -0.00000000000E+00 -0.10633927936E+04  0.10633927936E+04  0.00000000000E+00 0. -1.
         35    2    1    2    0    0 -0.14210854715E-13  0.14210854715E-13 -0.10461097105E+04  0.10806758767E+04  0.27113617245E+03 0.  0.
         25    2    3    3    0    0 -0.41844899670E+02  0.31406533543E+02 -0.54273932416E+03  0.55940877386E+03  0.12503933901E+03 0.  0.
         25    2    3    3    0    0  0.41844899670E+02 -0.31406533543E+02 -0.50337038638E+03  0.52126710286E+03  0.12490108348E+03 0.  0.
          5    1    4    4  502    0 -0.79890320363E+01 -0.44532196642E+02 -0.28339257465E+03  0.28701982952E+03  0.47000000000E+01 0.  1.
         -5    1    4    4    0  502 -0.33855867634E+02  0.75938730185E+02 -0.25934674951E+03  0.27238894434E+03  0.47000000000E+01 0.  1.
          5    1    5    5  503    0  0.47155014544E+02 -0.76190712833E+02 -0.35162297004E+03  0.36289037350E+03  0.47000000000E+01 0. -1.
         -5    1    5    5    0  503 -0.53101148734E+01  0.44784179290E+02 -0.15174741635E+03  0.15837672936E+03  0.47000000000E+01 0. -1.
<mgrwt>
<rscale>  0 0.27113617E+03</rscale>
<asrwt>0</asrwt>
<pdfrwt beam="1">  1        1 0.16359891E+00 0.27113617E+03</pdfrwt>
<pdfrwt beam="2">  1       -1 0.26589355E-02 0.27113617E+03</pdfrwt>
<totfact> 0.64634291E+03</totfact>
</mgrwt>
</event>
<event>
 9    1  0.7816570E-001  0.2739904E+03  0.7818608E-02  0.1099017E+00
         -1   -1    0    0    0  501 -0.00000000000E+00  0.00000000000E+00  0.99864587443E+02  0.99864587443E+02  0.00000000000E+00 0. -1.
          1   -1    0    0  501    0  0.00000000000E+00 -0.00000000000E+00 -0.18793138650E+03  0.18793138650E+03  0.00000000000E+00 0. -1.
         35    2    1    2    0    0  0.00000000000E+00 -0.14210854715E-13 -0.88066799058E+02  0.28779597394E+03  0.27399044057E+03 0.  0.
         25    2    3    3    0    0 -0.40166582117E+02 -0.47143902412E+02 -0.46348503891E+02  0.14300640229E+03  0.12027778444E+03 0.  0.
         25    2    3    3    0    0  0.40166582117E+02  0.47143902412E+02 -0.41718295168E+02  0.14478957165E+03  0.12404717673E+03 0.  0.
          5    1    4    4  502    0 -0.44039410906E+02 -0.66235474632E+02  0.12668890041E+02  0.80679604533E+02  0.47000000000E+01 0.  1.
         -5    1    4    4    0  502  0.38728287898E+01  0.19091572220E+02 -0.59017393932E+02  0.62326797761E+02  0.47000000000E+01 0.  1.
          5    1    5    5  503    0  0.11161667051E+02 -0.31462863456E+02  0.21269254787E+02  0.39861833719E+02  0.47000000000E+01 0. -1.
         -5    1    5    5    0  503  0.29004915065E+02  0.78606765868E+02 -0.62987549954E+02  0.10492773793E+03  0.47000000000E+01 0. -1.
<mgrwt>
<rscale>  0 0.27399044E+03</rscale>
<asrwt>0</asrwt>
<pdfrwt beam="1">  1        1 0.28912521E-01 0.27399044E+03</pdfrwt>
<pdfrwt beam="2">  1       -1 0.15363783E-01 0.27399044E+03</pdfrwt>
<totfact> 0.48766544E+03</totfact>
</mgrwt>
</event>
<event>
 9    1  0.7816570E-001  0.2760637E+03  0.7818608E-02  0.1097858E+00
          1   -1    0    0  501    0  0.00000000000E+00  0.00000000000E+00  0.15907766456E+04  0.15907766456E+04  0.00000000000E+00 0.  1.
         -1   -1    0    0    0  501 -0.00000000000E+00 -0.00000000000E+00 -0.11977037375E+02  0.11977037375E+02  0.00000000000E+00 0.  1.
         35    2    1    2    0    0  0.26645352591E-14 -0.71054273576E-14  0.15787996083E+04  0.16027536830E+04  0.27606369801E+03 0.  0.
         25    2    3    3    0    0  0.78112845569E+01 -0.51887603490E+02  0.62307442919E+03  0.63741931298E+03  0.12380749851E+03 0.  0.
         25    2    3    3    0    0 -0.78112845569E+01  0.51887603490E+02  0.95572517908E+03  0.96533437004E+03  0.12532553009E+03 0.  0.
          5    1    4    4  502    0 -0.47121184796E+02  0.73163567181E+01  0.14970146608E+03  0.15718318638E+03  0.47000000000E+01 0. -1.
         -5    1    4    4    0  502  0.54932469353E+02 -0.59203960208E+02  0.47337296311E+03  0.48023612661E+03  0.47000000000E+01 0. -1.
          5    1    5    5  503    0 -0.16661749980E+01  0.15592867898E+02  0.88765217416E+03  0.88780312342E+03  0.47000000000E+01 0.  1.
         -5    1    5    5    0  503 -0.61451095589E+01  0.36294735591E+02  0.68073004914E+02  0.77531246612E+02  0.47000000000E+01 0.  1.
<mgrwt>
<rscale>  0 0.27606370E+03</rscale>
<asrwt>0</asrwt>
<pdfrwt beam="1">  1        1 0.24473470E+00 0.27606370E+03</pdfrwt>
<pdfrwt beam="2">  1       -1 0.18426224E-02 0.27606370E+03</pdfrwt>
<totfact> 0.48191001E+03</totfact>
</mgrwt>
</event>
<event>
 9    1  0.7816570E-001  0.2741023E+03  0.7818608E-02  0.1098954E+00
         -1   -1    0    0    0  501 -0.00000000000E+00  0.00000000000E+00  0.12761325263E+02  0.12761325263E+02  0.00000000000E+00 0.  1.
          1   -1    0    0  501    0  0.00000000000E+00 -0.00000000000E+00 -0.14718703175E+04  0.14718703175E+04  0.00000000000E+00 0.  1.
         35    2    1    2    0    0 -0.71054273576E-14  0.00000000000E+00 -0.14591089923E+04  0.14846316428E+04  0.27410228651E+03 0.  0.
         25    2    3    3    0    0 -0.37465473293E+02  0.20180363771E+01 -0.50424541849E+03  0.52095449170E+03  0.12538901942E+03 0.  0.
         25    2    3    3    0    0  0.37465473293E+02 -0.20180363771E+01 -0.95486357376E+03  0.96367715108E+03  0.12450491098E+03 0.  0.
          5    1    4    4  502    0  0.27126823860E+02 -0.35485407535E+02 -0.30171230743E+03  0.30503685872E+03  0.47000000000E+01 0. -1.
         -5    1    4    4    0  502 -0.64592297153E+02  0.37503443912E+02 -0.20253311106E+03  0.21591763298E+03  0.47000000000E+01 0. -1.
          5    1    5    5  503    0  0.46127399381E+02 -0.45742864913E+02 -0.28640887566E+03  0.29372143388E+03  0.47000000000E+01 0.  1.
         -5    1    5    5    0  503 -0.86619260880E+01  0.43724828536E+02 -0.66845469810E+03  0.66995571720E+03  0.47000000000E+01 0.  1.
<mgrwt>
<rscale>  0 0.27410229E+03</rscale>
<asrwt>0</asrwt>
<pdfrwt beam="1">  1        1 0.22644145E+00 0.27410229E+03</pdfrwt>
<pdfrwt beam="2">  1       -1 0.19632820E-02 0.27410229E+03</pdfrwt>
<totfact> 0.52636162E+03</totfact>
</mgrwt>
</event>
<event>
 9    1  0.7816570E-001  0.2746035E+03  0.7818608E-02  0.1098673E+00
         -1   -1    0    0    0  501 -0.00000000000E+00  0.00000000000E+00  0.93630961896E+01  0.93630961896E+01  0.00000000000E+00 0.  1.
          1   -1    0    0  501    0  0.00000000000E+00 -0.00000000000E+00 -0.20134124015E+04  0.20134124015E+04  0.00000000000E+00 0.  1.
         35    2    1    2    0    0 -0.71054273576E-14  0.71054273576E-14 -0.20040493053E+04  0.20227754977E+04  0.27460352499E+03 0.  0.
         25    2    3    3    0    0 -0.38936159691E+02  0.30392472115E+02 -0.12273556198E+04  0.12344879548E+04  0.12295920516E+03 0.  0.
         25    2    3    3    0    0  0.38936159691E+02 -0.30392472115E+02 -0.77669368544E+03  0.78828754284E+03  0.12531736636E+03 0.  0.
          5    1    4    4  502    0 -0.79203559513E+02  0.55660386122E+01 -0.92555112505E+03  0.92896241027E+03  0.47000000000E+01 0.  1.
         -5    1    4    4    0  502  0.40267399823E+02  0.24826433503E+02 -0.30180449480E+03  0.30552554454E+03  0.47000000000E+01 0.  1.
          5    1    5    5  503    0  0.30469967530E+02  0.46375733895E+02 -0.38700780398E+03  0.39099393596E+03  0.47000000000E+01 0. -1.
         -5    1    5    5    0  503  0.84661921602E+01 -0.76768206010E+02 -0.38968588145E+03  0.39729360688E+03  0.47000000000E+01 0. -1.
<mgrwt>
<rscale>  0 0.27460352E+03</rscale>
<asrwt>0</asrwt>
<pdfrwt beam="1">  1        1 0.30975579E+00 0.27460352E+03</pdfrwt>
<pdfrwt beam="2">  1       -1 0.14404762E-02 0.27460352E+03</pdfrwt>
<totfact> 0.36610001E+03</totfact>
</mgrwt>
</event>
<event>
 9    1  0.7816570E-001  0.2660449E+03  0.7818608E-02  0.1103565E+00
          2   -1    0    0  501    0  0.00000000000E+00  0.00000000000E+00  0.58915030475E+03  0.58915030475E+03  0.00000000000E+00 0.  1.
         -2   -1    0    0    0  501 -0.00000000000E+00 -0.00000000000E+00 -0.30034744436E+02  0.30034744436E+02  0.00000000000E+00 0.  1.
         35    2    1    2    0    0 -0.71054273576E-14  0.00000000000E+00  0.55911556032E+03  0.61918504919E+03  0.26604494987E+03 0.  0.
         25    2    3    3    0    0 -0.21979879634E+02 -0.23586050389E+02  0.35313615649E+03  0.37599154605E+03  0.12500032318E+03 0.  0.
         25    2    3    3    0    0  0.21979879634E+02  0.23586050389E+02  0.20597940382E+03  0.24319350314E+03  0.12520442599E+03 0.  0.
          5    1    4    4  502    0 -0.32803847970E+02  0.43454567027E+02  0.10110068129E+03  0.11492532181E+03  0.47000000000E+01 0.  1.
         -5    1    4    4    0  502  0.10823968336E+02 -0.67040617416E+02  0.25203547521E+03  0.26106622424E+03  0.47000000000E+01 0.  1.
          5    1    5    5  503    0  0.23973847824E+01 -0.42276578753E+02  0.24642375297E+02  0.49217814103E+02  0.47000000000E+01 0. -1.
         -5    1    5    5    0  503  0.19582494851E+02  0.65862629142E+02  0.18133702852E+03  0.19397568903E+03  0.47000000000E+01 0. -1.
<mgrwt>
<rscale>  0 0.26604495E+03</rscale>
<asrwt>0</asrwt>
<pdfrwt beam="1">  1        2 0.90638500E-01 0.26604495E+03</pdfrwt>
<pdfrwt beam="2">  1       -2 0.46207304E-02 0.26604495E+03</pdfrwt>
<totfact> 0.11306782E+04</totfact>
</mgrwt>
</event>
<event>
 9    1  0.7816570E-001  0.2724379E+03  0.7818608E-02  0.1099892E+00
         -3   -1    0    0    0  501 -0.00000000000E+00  0.00000000000E+00  0.12466491453E+03  0.12466491453E+03  0.00000000000E+00 0. -1.
          3   -1    0    0  501    0  0.00000000000E+00 -0.00000000000E+00 -0.14884384868E+03  0.14884384868E+03  0.00000000000E+00 0. -1.
         35    2    1    2    0    0  0.35527136788E-14  0.14210854715E-13 -0.24178934150E+02  0.27350876320E+03  0.27243792448E+03 0.  0.
         25    2    3    3    0    0 -0.27402583718E+02 -0.41613745894E+02  0.59376897071E+01  0.13381445414E+03  0.12405017750E+03 0.  0.
         25    2    3    3    0    0  0.27402583718E+02  0.41613745894E+02 -0.30116623858E+02  0.13969430906E+03  0.12698379231E+03 0.  0.
          5    1    4    4  502    0  0.10253736419E+02 -0.36897281201E+01 -0.52884978359E+02  0.54200222695E+02  0.47000000000E+01 0. -1.
         -5    1    4    4    0  502 -0.37656320138E+02 -0.37924017774E+02  0.58822668066E+02  0.79614231447E+02  0.47000000000E+01 0. -1.
          5    1    5    5  503    0  0.76243784623E+02  0.35572229864E+02 -0.54398712984E+01  0.84440395729E+02  0.47000000000E+01 0. -1.
         -5    1    5    5    0  503 -0.48841200905E+02  0.60415160303E+01 -0.24676752559E+02  0.55253913333E+02  0.47000000000E+01 0. -1.
<mgrwt>
<rscale>  0 0.27243792E+03</rscale>
<asrwt>0</asrwt>
<pdfrwt beam="1">  1        3 0.22899053E-01 0.27243792E+03</pdfrwt>
<pdfrwt beam="2">  1       -3 0.19179218E-01 0.27243792E+03</pdfrwt>
<totfact> 0.10818484E+03</totfact>
</mgrwt>
</event>
<event>
 9    1  0.7816570E-001  0.2769163E+03  0.7818608E-02  0.1097385E+00
         -2   -1    0    0    0  501 -0.00000000000E+00  0.00000000000E+00  0.11190798986E+03  0.11190798986E+03  0.00000000000E+00 0. -1.
          2   -1    0    0  501    0  0.00000000000E+00 -0.00000000000E+00 -0.17130733338E+03  0.17130733338E+03  0.00000000000E+00 0. -1.
         35    2    1    2    0    0  0.00000000000E+00  0.00000000000E+00 -0.59399343521E+02  0.28321532324E+03  0.27691630018E+03 0.  0.
         25    2    3    3    0    0  0.77794292898E+01 -0.56298547000E+02 -0.49154419577E+02  0.14647363108E+03  0.12573114858E+03 0.  0.
         25    2    3    3    0    0 -0.77794292898E+01  0.56298547000E+02 -0.10244923943E+02  0.13674169216E+03  0.12394872324E+03 0.  0.
          5    1    4    4  502    0  0.49588075338E+02  0.15147788863E+00  0.14164082134E+02  0.51785242917E+02  0.47000000000E+01 0.  1.
         -5    1    4    4    0  502 -0.41808646048E+02 -0.56450024888E+02 -0.63318501712E+02  0.94688388165E+02  0.47000000000E+01 0.  1.
          5    1    5    5  503    0  0.17393025846E+02 -0.32687086460E+02  0.15832528855E+02  0.40542840789E+02  0.47000000000E+01 0.  1.
         -5    1    5    5    0  503 -0.25172455136E+02  0.88985633460E+02 -0.26077452798E+02  0.96198851366E+02  0.47000000000E+01 0.  1.
<mgrwt>
<rscale>  0 0.27691630E+03</rscale>
<asrwt>0</asrwt>
<pdfrwt beam="1">  1        2 0.26354974E-01 0.27691630E+03</pdfrwt>
<pdfrwt beam="2">  1       -2 0.17216614E-01 0.27691630E+03</pdfrwt>
<totfact> 0.54667513E+03</totfact>
</mgrwt>
</event>
<event>
 9    1  0.7816570E-001  0.2775934E+03  0.7818608E-02  0.1097011E+00
          1   -1    0    0  501    0  0.00000000000E+00  0.00000000000E+00  0.69324756519E+03  0.69324756519E+03  0.00000000000E+00 0.  1.
         -1   -1    0    0    0  501 -0.00000000000E+00 -0.00000000000E+00 -0.27788816777E+02  0.27788816777E+02  0.00000000000E+00 0.  1.
         35    2    1    2    0    0  0.71054273576E-14  0.00000000000E+00  0.66545874841E+03  0.72103638197E+03  0.27759344063E+03 0.  0.
         25    2    3    3    0    0  0.53894810864E+02  0.26115707404E+02  0.35086623087E+03  0.37726526201E+03  0.12504113382E+03 0.  0.
         25    2    3    3    0    0 -0.53894810864E+02 -0.26115707404E+02  0.31459251754E+03  0.34377111995E+03  0.12499379987E+03 0.  0.
          5    1    4    4  502    0  0.54488052619E+02  0.42600923926E+02  0.80005444821E+02  0.10586192799E+03  0.47000000000E+01 0. -1.
         -5    1    4    4    0  502 -0.59324175470E+00 -0.16485216522E+02  0.27086078605E+03  0.27140333402E+03  0.47000000000E+01 0. -1.
          5    1    5    5  503    0  0.11666637373E+02 -0.49104768765E+02  0.54120888331E+02  0.74152203587E+02  0.47000000000E+01 0. -1.
         -5    1    5    5    0  503 -0.65561448237E+02  0.22989061361E+02  0.26047162921E+03  0.26961891636E+03  0.47000000000E+01 0. -1.
<mgrwt>
<rscale>  0 0.27759344E+03</rscale>
<asrwt>0</asrwt>
<pdfrwt beam="1">  1        1 0.10665346E+00 0.27759344E+03</pdfrwt>
<pdfrwt beam="2">  1       -1 0.42752031E-02 0.27759344E+03</pdfrwt>
<totfact> 0.63506971E+03</totfact>
</mgrwt>
</event>
<event>
 9    1  0.7816570E-001  0.2694230E+03  0.7818608E-02  0.1101610E+00
         -1   -1    0    0    0  501 -0.00000000000E+00  0.00000000000E+00  0.21734081790E+02  0.21734081790E+02  0.00000000000E+00 0. -1.
          1   -1    0    0  501    0  0.00000000000E+00 -0.00000000000E+00 -0.83496427160E+03  0.83496427160E+03  0.00000000000E+00 0. -1.
         35    2    1    2    0    0  0.17763568394E-14  0.00000000000E+00 -0.81323018981E+03  0.85669835339E+03  0.26942295204E+03 0.  0.
         25    2    3    3    0    0 -0.73012513685E+01 -0.41723423629E+02 -0.34815660749E+03  0.37284338837E+03  0.12651093457E+03 0.  0.
         25    2    3    3    0    0  0.73012513685E+01  0.41723423629E+02 -0.46507358232E+03  0.48385496502E+03  0.12660188722E+03 0.  0.
          5    1    4    4  502    0 -0.26083919058E+02  0.29964299889E+02 -0.22881629593E+03  0.23228692900E+03  0.47000000000E+01 0. -1.
         -5    1    4    4    0  502  0.18782667690E+02 -0.71687723519E+02 -0.11934031156E+03  0.14055645937E+03  0.47000000000E+01 0. -1.
          5    1    5    5  503    0 -0.88389341976E+01  0.81933447281E+02 -0.37249347964E+03  0.38152942078E+03  0.47000000000E+01 0. -1.
         -5    1    5    5    0  503  0.16140185566E+02 -0.40210023652E+02 -0.92580102682E+02  0.10232554424E+03  0.47000000000E+01 0. -1.
<mgrwt>
<rscale>  0 0.26942295E+03</rscale>
<asrwt>0</asrwt>
<pdfrwt beam="1">  1        1 0.12845606E+00 0.26942295E+03</pdfrwt>
<pdfrwt beam="2">  1       -1 0.33437044E-02 0.26942295E+03</pdfrwt>
<totfact> 0.69035570E+03</totfact>
</mgrwt>
</event>
<event>
 9    1  0.7816570E-001  0.2843177E+03  0.7818608E-02  0.1093354E+00
         -2   -1    0    0    0  501 -0.00000000000E+00  0.00000000000E+00  0.23378297591E+02  0.23378297591E+02  0.00000000000E+00 0. -1.
          2   -1    0    0  501    0  0.00000000000E+00 -0.00000000000E+00 -0.86444020475E+03  0.86444020475E+03  0.00000000000E+00 0. -1.
         35    2    1    2    0    0  0.00000000000E+00  0.71054273576E-14 -0.84106190716E+03  0.88781850234E+03  0.28431771212E+03 0.  0.
         25    2    3    3    0    0  0.42552522984E+02 -0.33491154368E+02 -0.53842659702E+03  0.55580568198E+03  0.12682421339E+03 0.  0.
         25    2    3    3    0    0 -0.42552522984E+02  0.33491154368E+02 -0.30263531014E+03  0.33201282037E+03  0.12534754610E+03 0.  0.
          5    1    4    4  502    0 -0.14278562904E+02 -0.45674396701E+01 -0.22984072432E+01  0.15878020645E+02  0.47000000000E+01 0. -1.
         -5    1    4    4    0  502  0.56831085888E+02 -0.28923714698E+02 -0.53612818978E+03  0.53992766133E+03  0.47000000000E+01 0. -1.
          5    1    5    5  503    0  0.11276538359E+02 -0.41959394553E+02 -0.10064283404E+03  0.10972156192E+03  0.47000000000E+01 0.  1.
         -5    1    5    5    0  503 -0.53829061343E+02  0.75450548921E+02 -0.20199247610E+03  0.22229125844E+03  0.47000000000E+01 0.  1.
<mgrwt>
<rscale>  0 0.28431771E+03</rscale>
<asrwt>0</asrwt>
<pdfrwt beam="1">  1        2 0.13299077E+00 0.28431771E+03</pdfrwt>
<pdfrwt beam="2">  1       -2 0.35966621E-02 0.28431771E+03</pdfrwt>
<totfact> 0.10328968E+04</totfact>
</mgrwt>
</event>
<event>
 9    1  0.7816570E-001  0.2690069E+03  0.7818608E-02  0.1101849E+00
          1   -1    0    0  501    0  0.00000000000E+00  0.00000000000E+00  0.12805401836E+03  0.12805401836E+03  0.00000000000E+00 0. -1.
         -1   -1    0    0    0  501 -0.00000000000E+00 -0.00000000000E+00 -0.14127772178E+03  0.14127772178E+03  0.00000000000E+00 0. -1.
         35    2    1    2    0    0  0.35527136788E-14  0.00000000000E+00 -0.13223703419E+02  0.26933174015E+03  0.26900691426E+03 0.  0.
         25    2    3    3    0    0 -0.30987095650E+02 -0.10896908970E+02  0.33665043507E+02  0.13250169140E+03  0.12387259724E+03 0.  0.
         25    2    3    3    0    0  0.30987095650E+02  0.10896908970E+02 -0.46888746926E+02  0.13683004875E+03  0.12427777327E+03 0.  0.
          5    1    4    4  502    0 -0.36264026099E+02 -0.44240194527E+02  0.64640639472E+02  0.86445223535E+02  0.47000000000E+01 0. -1.
         -5    1    4    4    0  502  0.52769304492E+01  0.33343285557E+02 -0.30975595964E+02  0.46056467864E+02  0.47000000000E+01 0. -1.
          5    1    5    5  503    0 -0.77188540438E+01 -0.91924388639E+01  0.38627407194E+02  0.40721594106E+02  0.47000000000E+01 0.  1.
         -5    1    5    5    0  503  0.38705949694E+02  0.20089347834E+02 -0.85516154120E+02  0.96108454642E+02  0.47000000000E+01 0.  1.
<mgrwt>
<rscale>  0 0.26900691E+03</rscale>
<asrwt>0</asrwt>
<pdfrwt beam="1">  1        1 0.19700618E-01 0.26900691E+03</pdfrwt>
<pdfrwt beam="2">  1       -1 0.21735034E-01 0.26900691E+03</pdfrwt>
<totfact> 0.45442401E+03</totfact>
</mgrwt>
</event>
<event>
 9    1  0.7816570E-001  0.2751015E+03  0.7818608E-02  0.1098395E+00
          2   -1    0    0  501    0  0.00000000000E+00  0.00000000000E+00  0.30112370202E+03  0.30112370202E+03  0.00000000000E+00 0.  1.
         -2   -1    0    0    0  501 -0.00000000000E+00 -0.00000000000E+00 -0.62832031622E+02  0.62832031622E+02  0.00000000000E+00 0.  1.
         35    2    1    2    0    0  0.00000000000E+00  0.14210854715E-13  0.23829167039E+03  0.36395573364E+03  0.27510153738E+03 0.  0.
         25    2    3    3    0    0 -0.22353513468E+02 -0.49379970418E+02  0.13970703928E+03  0.19512901824E+03  0.12497686143E+03 0.  0.
         25    2    3    3    0    0  0.22353513468E+02  0.49379970418E+02  0.98584631117E+02  0.16882671540E+03  0.12587878812E+03 0.  0.
          5    1    4    4  502    0 -0.25493472458E+02 -0.64763115625E+01  0.14857229905E+03  0.15095588029E+03  0.47000000000E+01 0. -1.
         -5    1    4    4    0  502  0.31399589900E+01 -0.42903658855E+02 -0.88652597685E+01  0.44173137951E+02  0.47000000000E+01 0. -1.
          5    1    5    5  503    0 -0.11195700057E+02  0.77299018871E+02  0.97366134183E+02  0.12491091267E+03  0.47000000000E+01 0. -1.
         -5    1    5    5    0  503  0.33549213526E+02 -0.27919048453E+02  0.12184969335E+01  0.43915802731E+02  0.47000000000E+01 0. -1.
<mgrwt>
<rscale>  0 0.27510154E+03</rscale>
<asrwt>0</asrwt>
<pdfrwt beam="1">  1        2 0.46326723E-01 0.27510154E+03</pdfrwt>
<pdfrwt beam="2">  1       -2 0.96664666E-02 0.27510154E+03</pdfrwt>
<totfact> 0.75718636E+03</totfact>
</mgrwt>
</event>
<event>
 9    1  0.7816570E-001  0.2730222E+03  0.7818608E-02  0.1099562E+00
         -2   -1    0    0    0  501 -0.00000000000E+00  0.00000000000E+00  0.70489509849E+02  0.70489509849E+02  0.00000000000E+00 0.  1.
          2   -1    0    0  501    0  0.00000000000E+00 -0.00000000000E+00 -0.26436951265E+03  0.26436951265E+03  0.00000000000E+00 0.  1.
         35    2    1    2    0    0  0.00000000000E+00  0.00000000000E+00 -0.19388000281E+03  0.33485902250E+03  0.27302217760E+03 0.  0.
         25    2    3    3    0    0  0.45794613023E+02  0.73056766225E+01 -0.67983829904E+02  0.15116756123E+03  0.12680422291E+03 0.  0.
         25    2    3    3    0    0 -0.45794613023E+02 -0.73056766225E+01 -0.12589617290E+03  0.18369146127E+03  0.12546787278E+03 0.  0.
          5    1    4    4  502    0  0.44727032674E+02  0.27329779931E+02  0.23325779972E+02  0.57563932581E+02  0.47000000000E+01 0.  1.
         -5    1    4    4    0  502  0.10675803493E+01 -0.20024103308E+02 -0.91309609876E+02  0.93603628652E+02  0.47000000000E+01 0.  1.
          5    1    5    5  503    0  0.27753094272E+02  0.87384461710E+01 -0.99513507633E+02  0.10378642919E+03  0.47000000000E+01 0. -1.
         -5    1    5    5    0  503 -0.73547707295E+02 -0.16044122793E+02 -0.26382665268E+02  0.79905032077E+02  0.47000000000E+01 0. -1.
<mgrwt>
<rscale>  0 0.27302218E+03</rscale>
<asrwt>0</asrwt>
<pdfrwt beam="1">  1        2 0.40672232E-01 0.27302218E+03</pdfrwt>
<pdfrwt beam="2">  1       -2 0.10844540E-01 0.27302218E+03</pdfrwt>
<totfact> 0.72503731E+03</totfact>
</mgrwt>
</event>
<event>
 9    1  0.7816570E-001  0.2741469E+03  0.7818608E-02  0.1098929E+00
          1   -1    0    0  501    0  0.00000000000E+00  0.00000000000E+00  0.88917272019E+03  0.88917272019E+03  0.00000000000E+00 0.  1.
         -1   -1    0    0    0  501 -0.00000000000E+00 -0.00000000000E+00 -0.21131032312E+02  0.21131032312E+02  0.00000000000E+00 0.  1.
         35    2    1    2    0    0  0.35527136788E-14  0.00000000000E+00  0.86804168788E+03  0.91030375250E+03  0.27414694951E+03 0.  0.
         25    2    3    3    0    0  0.25417632056E+02  0.35371622977E+01  0.28712952134E+03  0.31563916900E+03  0.12855409541E+03 0.  0.
         25    2    3    3    0    0 -0.25417632056E+02 -0.35371622977E+01  0.58091216654E+03  0.59466458350E+03  0.12453294384E+03 0.  0.
          5    1    4    4  502    0  0.27103243418E+02  0.62941081197E+02  0.12099803275E+03  0.13913583089E+03  0.47000000000E+01 0. -1.
         -5    1    4    4    0  502 -0.16856113615E+01 -0.59403918899E+02  0.16613148859E+03  0.17650333812E+03  0.47000000000E+01 0. -1.
          5    1    5    5  503    0  0.46951820493E+01 -0.29971313402E+02  0.52402664292E+03  0.52492507737E+03  0.47000000000E+01 0. -1.
         -5    1    5    5    0  503 -0.30112814106E+02  0.26434151104E+02  0.56885523615E+02  0.69739506127E+02  0.47000000000E+01 0. -1.
<mgrwt>
<rscale>  0 0.27414695E+03</rscale>
<asrwt>0</asrwt>
<pdfrwt beam="1">  1        1 0.13679577E+00 0.27414695E+03</pdfrwt>
<pdfrwt beam="2">  1       -1 0.32509287E-02 0.27414695E+03</pdfrwt>
<totfact> 0.65135962E+03</totfact>
</mgrwt>
</event>
<event>
 9    1  0.7816570E-001  0.2767711E+03  0.7818608E-02  0.1097466E+00
          2   -1    0    0  501    0  0.00000000000E+00  0.00000000000E+00  0.73263313008E+03  0.73263313008E+03  0.00000000000E+00 0.  1.
         -2   -1    0    0    0  501 -0.00000000000E+00 -0.00000000000E+00 -0.26139355771E+02  0.26139355771E+02  0.00000000000E+00 0.  1.
         35    2    1    2    0    0  0.14210854715E-13  0.00000000000E+00  0.70649377431E+03  0.75877248585E+03  0.27677108257E+03 0.  0.
         25    2    3    3    0    0 -0.44472497240E+02  0.74870194320E+01  0.46568926337E+03  0.48428267864E+03  0.12501745614E+03 0.  0.
         25    2    3    3    0    0  0.44472497240E+02 -0.74870194320E+01  0.24080451094E+03  0.27448980721E+03  0.12379007757E+03 0.  0.
          5    1    4    4  502    0 -0.53636000792E+02 -0.34942494115E+02  0.40183072026E+03  0.40692482871E+03  0.47000000000E+01 0. -1.
         -5    1    4    4    0  502  0.91635035526E+01  0.42429513547E+02  0.63858543111E+02  0.77357849928E+02  0.47000000000E+01 0. -1.
          5    1    5    5  503    0 -0.99515538524E+01  0.24227323670E+02  0.11325686246E+01  0.26633988585E+02  0.47000000000E+01 0. -1.
         -5    1    5    5    0  503  0.54424051092E+02 -0.31714343102E+02  0.23967194231E+03  0.24785581863E+03  0.47000000000E+01 0. -1.
<mgrwt>
<rscale>  0 0.27677108E+03</rscale>
<asrwt>0</asrwt>
<pdfrwt beam="1">  1        2 0.11271277E+00 0.27677108E+03</pdfrwt>
<pdfrwt beam="2">  1       -2 0.40214399E-02 0.27677108E+03</pdfrwt>
<totfact> 0.10771353E+04</totfact>
</mgrwt>
</event>
<event>
 9    1  0.7816570E-001  0.2768187E+03  0.7818608E-02  0.1097439E+00
         -2   -1    0    0    0  501 -0.00000000000E+00  0.00000000000E+00  0.12074191018E+04  0.12074191018E+04  0.00000000000E+00 0.  1.
          2   -1    0    0  501    0  0.00000000000E+00 -0.00000000000E+00 -0.15866191909E+02  0.15866191909E+02  0.00000000000E+00 0.  1.
         35    2    1    2    0    0 -0.35527136788E-14  0.00000000000E+00  0.11915529098E+04  0.12232852937E+04  0.27681866399E+03 0.  0.
         25    2    3    3    0    0  0.99614948339E+01 -0.57912603596E+02  0.64687308614E+03  0.66144076320E+03  0.12492394734E+03 0.  0.
         25    2    3    3    0    0 -0.99614948339E+01  0.57912603596E+02  0.54467982371E+03  0.56184453046E+03  0.12465979714E+03 0.  0.
          5    1    4    4  502    0  0.27356289751E+02 -0.18722155282E+02  0.36440926804E+02  0.49486531841E+02  0.47000000000E+01 0.  1.
         -5    1    4    4    0  502 -0.17394794917E+02 -0.39190448314E+02  0.61043215933E+03  0.61195423136E+03  0.47000000000E+01 0.  1.
          5    1    5    5  503    0  0.55188180020E+02  0.91172250732E+01  0.23507352548E+03  0.24168266671E+03  0.47000000000E+01 0.  1.
         -5    1    5    5    0  503 -0.65149674854E+02  0.48795378523E+02  0.30960629823E+03  0.32016186376E+03  0.47000000000E+01 0.  1.
<mgrwt>
<rscale>  0 0.27681866E+03</rscale>
<asrwt>0</asrwt>
<pdfrwt beam="1">  1        2 0.24409536E-02 0.27681866E+03</pdfrwt>
<pdfrwt beam="2">  1       -2 0.18575671E+00 0.27681866E+03</pdfrwt>
<totfact> 0.74121800E+02</totfact>
</mgrwt>
</event>
<event>
 9    1  0.7816570E-001  0.2848590E+03  0.7818608E-02  0.1093064E+00
          1   -1    0    0  501    0  0.00000000000E+00  0.00000000000E+00  0.12192439838E+04  0.12192439838E+04  0.00000000000E+00 0.  1.
         -1   -1    0    0    0  501 -0.00000000000E+00 -0.00000000000E+00 -0.16638317028E+02  0.16638317028E+02  0.00000000000E+00 0.  1.
         35    2    1    2    0    0  0.00000000000E+00 -0.71054273576E-14  0.12026056667E+04  0.12358823008E+04  0.28485903838E+03 0.  0.
         25    2    3    3    0    0  0.25778742926E+02 -0.63264114146E+02  0.64848978520E+03  0.66392447469E+03  0.12485918013E+03 0.  0.
         25    2    3    3    0    0 -0.25778742926E+02  0.63264114146E+02  0.55411588153E+03  0.57195782610E+03  0.12419522108E+03 0.  0.
          5    1    4    4  502    0  0.20212763420E+02 -0.93528788544E+02  0.32188573356E+03  0.33584029770E+03  0.47000000000E+01 0.  1.
         -5    1    4    4    0  502  0.55659795053E+01  0.30264674398E+02  0.32660405164E+03  0.32808417699E+03  0.47000000000E+01 0.  1.
          5    1    5    5  503    0  0.23468057870E+02  0.21063136357E+02  0.43568480007E+03  0.43684979166E+03  0.47000000000E+01 0.  1.
         -5    1    5    5    0  503 -0.49246800796E+02  0.42200977789E+02  0.11843108146E+03  0.13510803444E+03  0.47000000000E+01 0.  1.
<mgrwt>
<rscale>  0 0.28485904E+03</rscale>
<asrwt>0</asrwt>
<pdfrwt beam="1">  1        1 0.18757593E+00 0.28485904E+03</pdfrwt>
<pdfrwt beam="2">  1       -1 0.25597420E-02 0.28485904E+03</pdfrwt>
<totfact> 0.52978493E+03</totfact>
</mgrwt>
</event>
<event>
 9    1  0.7816570E-001  0.2754949E+03  0.7818608E-02  0.1098175E+00
          1   -1    0    0  501    0  0.00000000000E+00  0.00000000000E+00  0.46959917787E+03  0.46959917787E+03  0.00000000000E+00 0. -1.
         -1   -1    0    0    0  501 -0.00000000000E+00 -0.00000000000E+00 -0.40405437251E+02  0.40405437251E+02  0.00000000000E+00 0. -1.
         35    2    1    2    0    0 -0.71054273576E-14  0.00000000000E+00  0.42919374062E+03  0.51000461512E+03  0.27549490097E+03 0.  0.
         25    2    3    3    0    0  0.24635830967E+02 -0.41750685273E+02  0.25602259072E+03  0.29134886063E+03  0.13033245085E+03 0.  0.
         25    2    3    3    0    0 -0.24635830967E+02  0.41750685273E+02  0.17317114990E+03  0.21865575449E+03  0.12438668709E+03 0.  0.
          5    1    4    4  502    0  0.21386565807E+02  0.11873328550E+02 -0.44924760204E+01  0.25310738209E+02  0.47000000000E+01 0.  1.
         -5    1    4    4    0  502  0.32492651602E+01 -0.53624013824E+02  0.26051506674E+03  0.26603812242E+03  0.47000000000E+01 0.  1.
          5    1    5    5  503    0 -0.16248018154E+02  0.85866233766E+02  0.10233494719E+03  0.13465340550E+03  0.47000000000E+01 0. -1.
         -5    1    5    5    0  503 -0.83878128130E+01 -0.44115548492E+02  0.70836202709E+02  0.84002348995E+02  0.47000000000E+01 0. -1.
<mgrwt>
<rscale>  0 0.27549490E+03</rscale>
<asrwt>0</asrwt>
<pdfrwt beam="1">  1        1 0.72246024E-01 0.27549490E+03</pdfrwt>
<pdfrwt beam="2">  1       -1 0.62162214E-02 0.27549490E+03</pdfrwt>
<totfact> 0.61859504E+03</totfact>
</mgrwt>
</event>
<event>
 9    1  0.7816570E-001  0.2737574E+03  0.7818608E-02  0.1099148E+00
         -2   -1    0    0    0  501 -0.00000000000E+00  0.00000000000E+00  0.28022223051E+02  0.28022223051E+02  0.00000000000E+00 0.  1.
          2   -1    0    0  501    0  0.00000000000E+00 -0.00000000000E+00 -0.66860426012E+03  0.66860426012E+03  0.00000000000E+00 0.  1.
         35    2    1    2    0    0 -0.71054273576E-14  0.00000000000E+00 -0.64058203707E+03  0.69662648317E+03  0.27375739413E+03 0.  0.
         25    2    3    3    0    0  0.27783749989E+02  0.35146384494E+02 -0.23697174474E+03  0.27149320296E+03  0.12468258235E+03 0.  0.
         25    2    3    3    0    0 -0.27783749989E+02 -0.35146384494E+02 -0.40361029233E+03  0.42513328021E+03  0.12581666330E+03 0.  0.
          5    1    4    4  502    0 -0.47457285191E+02 -0.22140050841E+01 -0.98589371605E+02  0.10954017496E+03  0.47000000000E+01 0.  1.
         -5    1    4    4    0  502  0.75241035180E+02  0.37360389578E+02 -0.13838237314E+03  0.16195302800E+03  0.47000000000E+01 0.  1.
          5    1    5    5  503    0 -0.19808991693E+02 -0.62945563956E+02 -0.38450514864E+03  0.39015489168E+03  0.47000000000E+01 0. -1.
         -5    1    5    5    0  503 -0.79747582952E+01  0.27799179462E+02 -0.19105143686E+02  0.34978388526E+02  0.47000000000E+01 0. -1.
<mgrwt>
<rscale>  0 0.27375739E+03</rscale>
<asrwt>0</asrwt>
<pdfrwt beam="1">  1        2 0.10286220E+00 0.27375739E+03</pdfrwt>
<pdfrwt beam="2">  1       -2 0.43111112E-02 0.27375739E+03</pdfrwt>
<totfact> 0.10833948E+04</totfact>
</mgrwt>
</event>
<event>
 9    1  0.7816570E-001  0.2763523E+03  0.7818608E-02  0.1097698E+00
         -1   -1    0    0    0  501 -0.00000000000E+00  0.00000000000E+00  0.36634270052E+03  0.36634270052E+03  0.00000000000E+00 0. -1.
          1   -1    0    0  501    0  0.00000000000E+00 -0.00000000000E+00 -0.52116921605E+02  0.52116921605E+02  0.00000000000E+00 0. -1.
         35    2    1    2    0    0  0.00000000000E+00  0.00000000000E+00  0.31422577891E+03  0.41845962212E+03  0.27635233890E+03 0.  0.
         25    2    3    3    0    0 -0.28734671514E+02  0.30143293899E+02  0.90009504579E+02  0.15825448327E+03  0.12332262990E+03 0.  0.
         25    2    3    3    0    0  0.28734671514E+02 -0.30143293899E+02  0.22421627434E+03  0.26020513886E+03  0.12529755424E+03 0.  0.
          5    1    4    4  502    0  0.19159028601E+02 -0.32930880747E+02  0.15536295064E+00  0.38387829079E+02  0.47000000000E+01 0.  1.
         -5    1    4    4    0  502 -0.47893700115E+02  0.63074174646E+02  0.89854141628E+02  0.11986665419E+03  0.47000000000E+01 0.  1.
          5    1    5    5  503    0 -0.20014710176E+02 -0.17956582055E+02  0.20403171368E+03  0.20584959959E+03  0.47000000000E+01 0. -1.
         -5    1    5    5    0  503  0.48749381690E+02 -0.12186711844E+02  0.20184560655E+02  0.54355539272E+02  0.47000000000E+01 0. -1.
<mgrwt>
<rscale>  0 0.27635234E+03</rscale>
<asrwt>0</asrwt>
<pdfrwt beam="1">  1        1 0.80179882E-02 0.27635234E+03</pdfrwt>
<pdfrwt beam="2">  1       -1 0.56360414E-01 0.27635234E+03</pdfrwt>
<totfact> 0.28327531E+03</totfact>
</mgrwt>
</event>
<event>
 9    1  0.7816570E-001  0.2794558E+03  0.7818608E-02  0.1095987E+00
          2   -1    0    0  501    0  0.00000000000E+00  0.00000000000E+00  0.88605150855E+02  0.88605150855E+02  0.00000000000E+00 0. -1.
         -2   -1    0    0    0  501 -0.00000000000E+00 -0.00000000000E+00 -0.22034709043E+03  0.22034709043E+03  0.00000000000E+00 0. -1.
         35    2    1    2    0    0  0.00000000000E+00  0.00000000000E+00 -0.13174193958E+03  0.30895224129E+03  0.27945580823E+03 0.  0.
         25    2    3    3    0    0 -0.29890664336E+02  0.55842544284E+02 -0.75698334905E+02  0.15881590857E+03  0.12442030920E+03 0.  0.
         25    2    3    3    0    0  0.29890664336E+02 -0.55842544284E+02 -0.56043604673E+02  0.15013633271E+03  0.12404914836E+03 0.  0.
          5    1    4    4  502    0 -0.40956960116E+02  0.63183184518E+02  0.62162766192E+01  0.75698873722E+02  0.47000000000E+01 0.  1.
         -5    1    4    4    0  502  0.11066295780E+02 -0.73406402349E+01 -0.81914611524E+02  0.83117034851E+02  0.47000000000E+01 0.  1.
          5    1    5    5  503    0  0.73314906795E+01 -0.93316396102E+02 -0.27414902310E+02  0.97649205863E+02  0.47000000000E+01 0. -1.
         -5    1    5    5    0  503  0.22559173656E+02  0.37473851819E+02 -0.28628702362E+02  0.52487126851E+02  0.47000000000E+01 0. -1.
<mgrwt>
<rscale>  0 0.27945581E+03</rscale>
<asrwt>0</asrwt>
<pdfrwt beam="1">  1        2 0.13631562E-01 0.27945581E+03</pdfrwt>
<pdfrwt beam="2">  1       -2 0.33899552E-01 0.27945581E+03</pdfrwt>
<totfact> 0.35517561E+03</totfact>
</mgrwt>
</event>
<event>
 9    1  0.7816570E-001  0.2729660E+03  0.7818608E-02  0.1099594E+00
          2   -1    0    0  501    0  0.00000000000E+00  0.00000000000E+00  0.13271440810E+04  0.13271440810E+04  0.00000000000E+00 0. -1.
         -2   -1    0    0    0  501 -0.00000000000E+00 -0.00000000000E+00 -0.14035856180E+02  0.14035856180E+02  0.00000000000E+00 0. -1.
         35    2    1    2    0    0  0.00000000000E+00  0.00000000000E+00  0.13131082248E+04  0.13411799372E+04  0.27296595722E+03 0.  0.
         25    2    3    3    0    0  0.60045930588E+02 -0.17629654160E+02  0.77854345211E+03  0.79080770335E+03  0.12381679355E+03 0.  0.
         25    2    3    3    0    0 -0.60045930588E+02  0.17629654160E+02  0.53456477268E+03  0.55037223380E+03  0.11503817221E+03 0.  0.
          5    1    4    4  502    0  0.77665835079E+02 -0.15479697408E+02  0.76191845183E+03  0.76603747964E+03  0.47000000000E+01 0. -1.
         -5    1    4    4    0  502 -0.17619904492E+02 -0.21499567515E+01  0.16625000280E+02  0.24770223710E+02  0.47000000000E+01 0. -1.
          5    1    5    5  503    0 -0.77693650369E+02  0.44018311168E+02  0.28358540038E+03  0.29734943137E+03  0.47000000000E+01 0. -1.
         -5    1    5    5    0  503  0.17647719782E+02 -0.26388657008E+02  0.25097937230E+03  0.25302280243E+03  0.47000000000E+01 0. -1.
<mgrwt>
<rscale>  0 0.27296596E+03</rscale>
<asrwt>0</asrwt>
<pdfrwt beam="1">  1        2 0.20417591E+00 0.27296596E+03</pdfrwt>
<pdfrwt beam="2">  1       -2 0.21593635E-02 0.27296596E+03</pdfrwt>
<totfact> 0.11689400E+04</totfact>
</mgrwt>
</event>
<event>
 9    1  0.7816570E-001  0.2768561E+03  0.7818608E-02  0.1097419E+00
         -1   -1    0    0    0  501 -0.00000000000E+00  0.00000000000E+00  0.94026966265E+01  0.94026966265E+01  0.00000000000E+00 0.  1.
          1   -1    0    0  501    0  0.00000000000E+00 -0.00000000000E+00 -0.20379608316E+04  0.20379608316E+04  0.00000000000E+00 0.  1.
         35    2    1    2    0    0  0.71054273576E-14  0.00000000000E+00 -0.20285581349E+04  0.20473635282E+04  0.27685611740E+03 0.  0.
         25    2    3    3    0    0  0.36743912636E+02  0.47003668646E+02 -0.93152854995E+03  0.94179934259E+03  0.12522420835E+03 0.  0.
         25    2    3    3    0    0 -0.36743912636E+02 -0.47003668646E+02 -0.10970295850E+04  0.11055641856E+04  0.12344552707E+03 0.  0.
          5    1    4    4  502    0  0.19319306053E+02  0.75985241435E+02 -0.84703347387E+03  0.85066726066E+03  0.47000000000E+01 0.  1.
         -5    1    4    4    0  502  0.17424606584E+02 -0.28981572789E+02 -0.84495076079E+02  0.91132081933E+02  0.47000000000E+01 0.  1.
          5    1    5    5  503    0 -0.81621584951E+02 -0.33178257104E+02 -0.79301446901E+03  0.79790783799E+03  0.47000000000E+01 0.  1.
         -5    1    5    5    0  503  0.44877672314E+02 -0.13825411542E+02 -0.30401511597E+03  0.30765634759E+03  0.47000000000E+01 0.  1.
<mgrwt>
<rscale>  0 0.27685612E+03</rscale>
<asrwt>0</asrwt>
<pdfrwt beam="1">  1        1 0.31353230E+00 0.27685612E+03</pdfrwt>
<pdfrwt beam="2">  1       -1 0.14465693E-02 0.27685612E+03</pdfrwt>
<totfact> 0.35072597E+03</totfact>
</mgrwt>
</event>
<event>
 9    1  0.7816570E-001  0.2717118E+03  0.7818608E-02  0.1100304E+00
         -2   -1    0    0    0  501 -0.00000000000E+00  0.00000000000E+00  0.21970420442E+02  0.21970420442E+02  0.00000000000E+00 0.  1.
          2   -1    0    0  501    0  0.00000000000E+00 -0.00000000000E+00 -0.84007591531E+03  0.84007591531E+03  0.00000000000E+00 0.  1.
         35    2    1    2    0    0 -0.35527136788E-14  0.00000000000E+00 -0.81810549487E+03  0.86204633576E+03  0.27171176686E+03 0.  0.
         25    2    3    3    0    0  0.83125766904E+01 -0.45772991658E+02 -0.41599499291E+03  0.43795921199E+03  0.12881060338E+03 0.  0.
         25    2    3    3    0    0 -0.83125766904E+01  0.45772991658E+02 -0.40211050196E+03  0.42408712376E+03  0.12646251247E+03 0.  0.
          5    1    4    4  502    0 -0.45519525921E+02  0.20296587480E+02 -0.18664343730E+03  0.19324037206E+03  0.47000000000E+01 0.  1.
         -5    1    4    4    0  502  0.53832102612E+02 -0.66069579138E+02 -0.22935155561E+03  0.24471883994E+03  0.47000000000E+01 0.  1.
          5    1    5    5  503    0 -0.27397939536E+01  0.74237576731E+02 -0.38024127806E+03  0.38745869949E+03  0.47000000000E+01 0.  1.
         -5    1    5    5    0  503 -0.55727827368E+01 -0.28464585072E+02 -0.21869223895E+02  0.36628424270E+02  0.47000000000E+01 0.  1.
<mgrwt>
<rscale>  0 0.27171177E+03</rscale>
<asrwt>0</asrwt>
<pdfrwt beam="1">  1        2 0.12924246E+00 0.27171177E+03</pdfrwt>
<pdfrwt beam="2">  1       -2 0.33800644E-02 0.27171177E+03</pdfrwt>
<totfact> 0.11749135E+04</totfact>
</mgrwt>
</event>
<event>
 9    1  0.7816570E-001  0.2732734E+03  0.7818608E-02  0.1099421E+00
          2   -1    0    0  501    0  0.00000000000E+00  0.00000000000E+00  0.78194802072E+03  0.78194802072E+03  0.00000000000E+00 0.  1.
         -2   -1    0    0    0  501 -0.00000000000E+00 -0.00000000000E+00 -0.23875745405E+02  0.23875745405E+02  0.00000000000E+00 0.  1.
         35    2    1    2    0    0  0.00000000000E+00  0.00000000000E+00  0.75807227531E+03  0.80582376612E+03  0.27327342983E+03 0.  0.
         25    2    3    3    0    0  0.50654323861E+02  0.17312934385E+02  0.41310177973E+03  0.43483601641E+03  0.12475448902E+03 0.  0.
         25    2    3    3    0    0 -0.50654323861E+02 -0.17312934385E+02  0.34497049558E+03  0.37098774971E+03  0.12554548733E+03 0.  0.
          5    1    4    4  502    0  0.42377563114E+02 -0.26132701085E+02  0.56423549235E+02  0.75395509347E+02  0.47000000000E+01 0. -1.
         -5    1    4    4    0  502  0.82767607467E+01  0.43445635470E+02  0.35667823050E+03  0.35944050707E+03  0.47000000000E+01 0. -1.
          5    1    5    5  503    0 -0.90643319500E+02 -0.32797130067E+01  0.26832784738E+03  0.28328235308E+03  0.47000000000E+01 0. -1.
         -5    1    5    5    0  503  0.39988995639E+02 -0.14033221378E+02  0.76642648202E+02  0.87705396629E+02  0.47000000000E+01 0. -1.
<mgrwt>
<rscale>  0 0.27327343E+03</rscale>
<asrwt>0</asrwt>
<pdfrwt beam="1">  1        2 0.12029968E+00 0.27327343E+03</pdfrwt>
<pdfrwt beam="2">  1       -2 0.36731922E-02 0.27327343E+03</pdfrwt>
<totfact> 0.11373234E+04</totfact>
</mgrwt>
</event>
<event>
 9    1  0.7816570E-001  0.2751670E+03  0.7818608E-02  0.1098358E+00
         -2   -1    0    0    0  501 -0.00000000000E+00  0.00000000000E+00  0.16103332826E+02  0.16103332826E+02  0.00000000000E+00 0. -1.
          2   -1    0    0  501    0  0.00000000000E+00 -0.00000000000E+00 -0.11754843532E+04  0.11754843532E+04  0.00000000000E+00 0. -1.
         35    2    1    2    0    0  0.00000000000E+00 -0.35527136788E-14 -0.11593810204E+04  0.11915876861E+04  0.27516697310E+03 0.  0.
         25    2    3    3    0    0 -0.43938198317E+02  0.15352656248E+02 -0.43799606547E+03  0.45794217801E+03  0.12531646223E+03 0.  0.
         25    2    3    3    0    0  0.43938198317E+02 -0.15352656248E+02 -0.72138495495E+03  0.73364550806E+03  0.12519268728E+03 0.  0.
          5    1    4    4  502    0 -0.60372811129E+02 -0.41237349577E+02 -0.27365136870E+03  0.28328882243E+03  0.47000000000E+01 0.  1.
         -5    1    4    4    0  502  0.16434612812E+02  0.56590005825E+02 -0.16434469677E+03  0.17465335558E+03  0.47000000000E+01 0.  1.
          5    1    5    5  503    0  0.24931417065E+02 -0.17883493889E+02 -0.34233754535E+02  0.46210765630E+02  0.47000000000E+01 0. -1.
         -5    1    5    5    0  503  0.19006781253E+02  0.25308376412E+01 -0.68715120041E+03  0.68743474243E+03  0.47000000000E+01 0. -1.
<mgrwt>
<rscale>  0 0.27516697E+03</rscale>
<asrwt>0</asrwt>
<pdfrwt beam="1">  1        2 0.18084378E+00 0.27516697E+03</pdfrwt>
<pdfrwt beam="2">  1       -2 0.24774353E-02 0.27516697E+03</pdfrwt>
<totfact> 0.11608927E+04</totfact>
</mgrwt>
</event>
<event>
 9    1  0.7816570E-001  0.2782241E+03  0.7818608E-02  0.1096663E+00
          1   -1    0    0  501    0  0.00000000000E+00  0.00000000000E+00  0.58289333233E+03  0.58289333233E+03  0.00000000000E+00 0. -1.
         -1   -1    0    0    0  501 -0.00000000000E+00 -0.00000000000E+00 -0.33200176923E+02  0.33200176923E+02  0.00000000000E+00 0. -1.
         35    2    1    2    0    0  0.00000000000E+00 -0.71054273576E-14  0.54969315541E+03  0.61609350925E+03  0.27822409501E+03 0.  0.
         25    2    3    3    0    0 -0.34146045364E+01  0.27680249825E+02  0.15258739596E+03  0.19876102087E+03  0.12427861544E+03 0.  0.
         25    2    3    3    0    0  0.34146045364E+01 -0.27680249825E+02  0.39710575944E+03  0.41733248838E+03  0.12528194572E+03 0.  0.
          5    1    4    4  502    0  0.12737331886E+02 -0.28181733283E+02 -0.41149302011E+01  0.31551107190E+02  0.47000000000E+01 0.  1.
         -5    1    4    4    0  502 -0.16151936422E+02  0.55861983107E+02  0.15670232617E+03  0.16720991368E+03  0.47000000000E+01 0.  1.
          5    1    5    5  503    0 -0.24042552724E+02 -0.12726788674E+02  0.10655838540E+02  0.29591424204E+02  0.47000000000E+01 0.  1.
         -5    1    5    5    0  503  0.27457157260E+02 -0.14953461150E+02  0.38644992090E+03  0.38774106418E+03  0.47000000000E+01 0.  1.
<mgrwt>
<rscale>  0 0.27822410E+03</rscale>
<asrwt>0</asrwt>
<pdfrwt beam="1">  1        1 0.89675890E-01 0.27822410E+03</pdfrwt>
<pdfrwt beam="2">  1       -1 0.51077200E-02 0.27822410E+03</pdfrwt>
<totfact> 0.62206326E+03</totfact>
</mgrwt>
</event>
<event>
 9    1  0.7816570E-001  0.2767779E+03  0.7818608E-02  0.1097462E+00
          2   -1    0    0  501    0  0.00000000000E+00  0.00000000000E+00  0.15951167227E+04  0.15951167227E+04  0.00000000000E+00 0.  1.
         -2   -1    0    0    0  501 -0.00000000000E+00 -0.00000000000E+00 -0.12006331037E+02  0.12006331037E+02  0.00000000000E+00 0.  1.
         35    2    1    2    0    0  0.00000000000E+00  0.00000000000E+00  0.15831103916E+04  0.16071230537E+04  0.27677788506E+03 0.  0.
         25    2    3    3    0    0 -0.12705543371E+02 -0.10169831945E+02  0.11254749139E+04  0.11324644045E+04  0.12456720825E+03 0.  0.
         25    2    3    3    0    0  0.12705543371E+02  0.10169831945E+02  0.45763547773E+03  0.47465864918E+03  0.12492296208E+03 0.  0.
          5    1    4    4  502    0  0.71003203135E+01  0.75334410775E+01  0.63654269732E+01  0.13029809806E+02  0.47000000000E+01 0.  1.
         -5    1    4    4    0  502 -0.19805863684E+02 -0.17703273023E+02  0.11191094869E+04  0.11194345947E+04  0.47000000000E+01 0.  1.
          5    1    5    5  503    0  0.15624693253E+02 -0.54737381165E+02  0.15755109879E+03  0.16758505502E+03  0.47000000000E+01 0.  1.
         -5    1    5    5    0  503 -0.29191498824E+01  0.64907213110E+02  0.30008437893E+03  0.30707359416E+03  0.47000000000E+01 0.  1.
<mgrwt>
<rscale>  0 0.27677789E+03</rscale>
<asrwt>0</asrwt>
<pdfrwt beam="1">  1        2 0.24540241E+00 0.27677789E+03</pdfrwt>
<pdfrwt beam="2">  1       -2 0.18471291E-02 0.27677789E+03</pdfrwt>
<totfact> 0.10552134E+04</totfact>
</mgrwt>
</event>
<event>
 9    1  0.7816570E-001  0.2959224E+03  0.7818608E-02  0.1087297E+00
         -1   -1    0    0    0  501 -0.00000000000E+00  0.00000000000E+00  0.71638148982E+02  0.71638148982E+02  0.00000000000E+00 0.  1.
          1   -1    0    0  501    0  0.00000000000E+00 -0.00000000000E+00 -0.30559859010E+03  0.30559859010E+03  0.00000000000E+00 0.  1.
         35    2    1    2    0    0  0.00000000000E+00  0.71054273576E-14 -0.23396044112E+03  0.37723673909E+03  0.29592240420E+03 0.  0.
         25    2    3    3    0    0 -0.22101208183E+02  0.45941431968E+02 -0.19405499184E+03  0.23678333761E+03  0.12573754625E+03 0.  0.
         25    2    3    3    0    0  0.22101208183E+02 -0.45941431968E+02 -0.39905449282E+02  0.14045340148E+03  0.12464202553E+03 0.  0.
          5    1    4    4  502    0 -0.21532534082E+02  0.32783738804E+02  0.26404318542E+01  0.39591481840E+02  0.47000000000E+01 0.  1.
         -5    1    4    4    0  502 -0.56867410066E+00  0.13157693165E+02 -0.19669542369E+03  0.19719185577E+03  0.47000000000E+01 0.  1.
          5    1    5    5  503    0 -0.68083474198E+01  0.41312445833E+02 -0.70037947090E+01  0.42710829021E+02  0.47000000000E+01 0.  1.
         -5    1    5    5    0  503  0.28909555602E+02 -0.87253877801E+02 -0.32901654573E+02  0.97742572455E+02  0.47000000000E+01 0.  1.
<mgrwt>
<rscale>  0 0.29592240E+03</rscale>
<asrwt>0</asrwt>
<pdfrwt beam="1">  1        1 0.47015168E-01 0.29592240E+03</pdfrwt>
<pdfrwt beam="2">  1       -1 0.11021254E-01 0.29592240E+03</pdfrwt>
<totfact> 0.44683866E+03</totfact>
</mgrwt>
</event>
<event>
 9    1  0.7816570E-001  0.2736141E+03  0.7818608E-02  0.1099229E+00
          1   -1    0    0  501    0  0.00000000000E+00  0.00000000000E+00  0.24711490929E+03  0.24711490929E+03  0.00000000000E+00 0.  1.
         -1   -1    0    0    0  501 -0.00000000000E+00 -0.00000000000E+00 -0.75738750443E+02  0.75738750443E+02  0.00000000000E+00 0.  1.
         35    2    1    2    0    0  0.00000000000E+00  0.00000000000E+00  0.17137615885E+03  0.32285365973E+03  0.27361414032E+03 0.  0.
         25    2    3    3    0    0  0.39166920953E+02 -0.55534812067E+01  0.13089277713E+03  0.18531640737E+03  0.12507742756E+03 0.  0.
         25    2    3    3    0    0 -0.39166920953E+02  0.55534812067E+01  0.40483381716E+02  0.13753725236E+03  0.12535032007E+03 0.  0.
          5    1    4    4  502    0  0.11021683874E+02  0.47817984038E+02  0.10259050453E+02  0.50352509660E+02  0.47000000000E+01 0. -1.
         -5    1    4    4    0  502  0.28145237079E+02 -0.53371465244E+02  0.12063372668E+03  0.13496389771E+03  0.47000000000E+01 0. -1.
          5    1    5    5  503    0  0.63732319444E+01  0.39569938469E+02  0.64148922414E+02  0.75786360004E+02  0.47000000000E+01 0.  1.
         -5    1    5    5    0  503 -0.45540152898E+02 -0.34016457263E+02 -0.23665540698E+02  0.61750892359E+02  0.47000000000E+01 0.  1.
<mgrwt>
<rscale>  0 0.27361414E+03</rscale>
<asrwt>0</asrwt>
<pdfrwt beam="1">  1        1 0.38017678E-01 0.27361414E+03</pdfrwt>
<pdfrwt beam="2">  1       -1 0.11652116E-01 0.27361414E+03</pdfrwt>
<totfact> 0.53391533E+03</totfact>
</mgrwt>
</event>
<event>
 9    1  0.7816570E-001  0.2775906E+03  0.7818608E-02  0.1097012E+00
          2   -1    0    0  501    0  0.00000000000E+00  0.00000000000E+00  0.58855958074E+03  0.58855958074E+03  0.00000000000E+00 0.  1.
         -2   -1    0    0    0  501 -0.00000000000E+00 -0.00000000000E+00 -0.32730994244E+02  0.32730994244E+02  0.00000000000E+00 0.  1.
         35    2    1    2    0    0  0.71054273576E-14 -0.14210854715E-13  0.55582858650E+03  0.62129057498E+03  0.27759063564E+03 0.  0.
         25    2    3    3    0    0 -0.34938455667E+02  0.42166419585E+02  0.30856161526E+03  0.33898409853E+03  0.12923330074E+03 0.  0.
         25    2    3    3    0    0  0.34938455667E+02 -0.42166419585E+02  0.24726697124E+03  0.28230647645E+03  0.12472886177E+03 0.  0.
          5    1    4    4  502    0 -0.38863548079E+02 -0.15597000950E+02  0.25964904329E+03  0.26304630294E+03  0.47000000000E+01 0. -1.
         -5    1    4    4    0  502  0.39250924115E+01  0.57763420535E+02  0.48912571966E+02  0.75937795587E+02  0.47000000000E+01 0. -1.
          5    1    5    5  503    0  0.74732386720E+02 -0.14058133681E+02  0.20099600484E+03  0.21495126124E+03  0.47000000000E+01 0. -1.
         -5    1    5    5    0  503 -0.39793931053E+02 -0.28108285905E+02  0.46270966396E+02  0.67355215213E+02  0.47000000000E+01 0. -1.
<mgrwt>
<rscale>  0 0.27759064E+03</rscale>
<asrwt>0</asrwt>
<pdfrwt beam="1">  1        2 0.90547620E-01 0.27759064E+03</pdfrwt>
<pdfrwt beam="2">  1       -2 0.50355380E-02 0.27759064E+03</pdfrwt>
<totfact> 0.99525488E+03</totfact>
</mgrwt>
</event>
<event>
 9    1  0.7816570E-001  0.2739495E+03  0.7818608E-02  0.1099040E+00
         -2   -1    0    0    0  501 -0.00000000000E+00  0.00000000000E+00  0.14160334680E+02  0.14160334680E+02  0.00000000000E+00 0. -1.
          2   -1    0    0  501    0  0.00000000000E+00 -0.00000000000E+00 -0.13249749443E+04  0.13249749443E+04  0.00000000000E+00 0. -1.
         35    2    1    2    0    0  0.00000000000E+00  0.00000000000E+00 -0.13108146096E+04  0.13391352790E+04  0.27394954758E+03 0.  0.
         25    2    3    3    0    0  0.31839171825E+02  0.46095032712E+02 -0.65392979532E+03  0.66820653181E+03  0.12544842386E+03 0.  0.
         25    2    3    3    0    0 -0.31839171825E+02 -0.46095032712E+02 -0.65688481431E+03  0.67092874718E+03  0.12453609763E+03 0.  0.
          5    1    4    4  502    0  0.35251284372E+02  0.64499014249E+02 -0.64043807295E+03  0.64465943813E+03  0.47000000000E+01 0. -1.
         -5    1    4    4    0  502 -0.34121125470E+01 -0.18403981537E+02 -0.13491722374E+02  0.23547093686E+02  0.47000000000E+01 0. -1.
          5    1    5    5  503    0  0.22966161928E+02  0.33014318125E+01 -0.46019531112E+03  0.46080381772E+03  0.47000000000E+01 0. -1.
         -5    1    5    5    0  503 -0.54805333753E+02 -0.49396464525E+02 -0.19668950319E+03  0.21012492946E+03  0.47000000000E+01 0. -1.
<mgrwt>
<rscale>  0 0.27394955E+03</rscale>
<asrwt>0</asrwt>
<pdfrwt beam="1">  1        2 0.20384230E+00 0.27394955E+03</pdfrwt>
<pdfrwt beam="2">  1       -2 0.21785130E-02 0.27394955E+03</pdfrwt>
<totfact> 0.11571066E+04</totfact>
</mgrwt>
</event>
<event>
 9    1  0.7816570E-001  0.2728056E+03  0.7818608E-02  0.1099685E+00
         -2   -1    0    0    0  501 -0.00000000000E+00  0.00000000000E+00  0.28167618750E+03  0.28167618750E+03  0.00000000000E+00 0. -1.
          2   -1    0    0  501    0  0.00000000000E+00 -0.00000000000E+00 -0.66053594743E+02  0.66053594743E+02  0.00000000000E+00 0. -1.
         35    2    1    2    0    0  0.71054273576E-14 -0.14210854715E-13  0.21562259276E+03  0.34772978224E+03  0.27280560652E+03 0.  0.
         25    2    3    3    0    0 -0.24876329068E+02  0.32466228323E+02  0.14934686539E+03  0.20060240677E+03  0.12753019906E+03 0.  0.
         25    2    3    3    0    0  0.24876329068E+02 -0.32466228323E+02  0.66275727370E+02  0.14712737547E+03  0.12482429589E+03 0.  0.
          5    1    4    4  502    0  0.18824345556E+02  0.56830994985E+02  0.22439699709E+02  0.64107317052E+02  0.47000000000E+01 0.  1.
         -5    1    4    4    0  502 -0.43700674624E+02 -0.24364766663E+02  0.12690716568E+03  0.13649508972E+03  0.47000000000E+01 0.  1.
          5    1    5    5  503    0  0.33962171622E+02  0.42035264529E+02  0.15590966501E+02  0.56440772511E+02  0.47000000000E+01 0.  1.
         -5    1    5    5    0  503 -0.90858425536E+01 -0.74501492851E+02  0.50684760869E+02  0.90686602959E+02  0.47000000000E+01 0.  1.
<mgrwt>
<rscale>  0 0.27280561E+03</rscale>
<asrwt>0</asrwt>
<pdfrwt beam="1">  1        2 0.10162092E-01 0.27280561E+03</pdfrwt>
<pdfrwt beam="2">  1       -2 0.43334797E-01 0.27280561E+03</pdfrwt>
<totfact> 0.31885424E+03</totfact>
</mgrwt>
</event>
<event>
 9    1  0.7816570E-001  0.2810188E+03  0.7818608E-02  0.1095134E+00
          3   -1    0    0  501    0  0.00000000000E+00  0.00000000000E+00  0.24544456014E+03  0.24544456014E+03  0.00000000000E+00 0. -1.
         -3   -1    0    0    0  501 -0.00000000000E+00 -0.00000000000E+00 -0.80437278402E+02  0.80437278402E+02  0.00000000000E+00 0. -1.
         35    2    1    2    0    0  0.00000000000E+00  0.00000000000E+00  0.16500728174E+03  0.32588183855E+03  0.28101880661E+03 0.  0.
         25    2    3    3    0    0  0.60498649911E+02 -0.46412974115E+01  0.97722446680E+02  0.17009001498E+03  0.12529688076E+03 0.  0.
         25    2    3    3    0    0 -0.60498649911E+02  0.46412974115E+01  0.67284835061E+02  0.15579182357E+03  0.12673679410E+03 0.  0.
          5    1    4    4  502    0  0.18113540312E+02  0.34057241805E+02 -0.16464638101E+02  0.42203914153E+02  0.47000000000E+01 0.  1.
         -5    1    4    4    0  502  0.42385109599E+02 -0.38698539216E+02  0.11418708478E+03  0.12788610082E+03  0.47000000000E+01 0.  1.
          5    1    5    5  503    0 -0.81284531157E+02  0.25344530840E+02  0.34064649684E+01  0.85341749763E+02  0.47000000000E+01 0. -1.
         -5    1    5    5    0  503  0.20785881246E+02 -0.20703233429E+02  0.63878370093E+02  0.70450073806E+02  0.47000000000E+01 0. -1.
<mgrwt>
<rscale>  0 0.28101881E+03</rscale>
<asrwt>0</asrwt>
<pdfrwt beam="1">  1        3 0.37760701E-01 0.28101881E+03</pdfrwt>
<pdfrwt beam="2">  1       -3 0.12374966E-01 0.28101881E+03</pdfrwt>
<totfact> 0.91267826E+02</totfact>
</mgrwt>
</event>
<event>
 9    1  0.7816570E-001  0.2782569E+03  0.7818608E-02  0.1096645E+00
          2   -1    0    0  501    0  0.00000000000E+00  0.00000000000E+00  0.20316049561E+03  0.20316049561E+03  0.00000000000E+00 0. -1.
         -2   -1    0    0    0  501 -0.00000000000E+00 -0.00000000000E+00 -0.95278002285E+02  0.95278002285E+02  0.00000000000E+00 0. -1.
         35    2    1    2    0    0  0.00000000000E+00  0.35527136788E-14  0.10788249332E+03  0.29843849789E+03  0.27825690407E+03 0.  0.
         25    2    3    3    0    0  0.55047699945E+02  0.21517551686E+02  0.31976638550E+02  0.14157785201E+03  0.12461351639E+03 0.  0.
         25    2    3    3    0    0 -0.55047699945E+02 -0.21517551686E+02  0.75905854774E+02  0.15686064588E+03  0.12389636451E+03 0.  0.
          5    1    4    4  502    0 -0.13124742974E+02 -0.13239660467E+01  0.61970769357E+02  0.63533282765E+02  0.47000000000E+01 0. -1.
         -5    1    4    4    0  502  0.68172442919E+02  0.22841517733E+02 -0.29994130807E+02  0.78044569245E+02  0.47000000000E+01 0. -1.
          5    1    5    5  503    0 -0.49735973397E+02 -0.48017583380E+02 -0.68940938996E+01  0.69634573985E+02  0.47000000000E+01 0. -1.
         -5    1    5    5    0  503 -0.53117265477E+01  0.26500031694E+02  0.82799948674E+02  0.87226071900E+02  0.47000000000E+01 0. -1.
<mgrwt>
<rscale>  0 0.27825690E+03</rscale>
<asrwt>0</asrwt>
<pdfrwt beam="1">  1        2 0.31255461E-01 0.27825690E+03</pdfrwt>
<pdfrwt beam="2">  1       -2 0.14658154E-01 0.27825690E+03</pdfrwt>
<totfact> 0.59204863E+03</totfact>
</mgrwt>
</event>
<event>
 9    1  0.7816570E-001  0.2758953E+03  0.7818608E-02  0.1097952E+00
          1   -1    0    0  501    0  0.00000000000E+00  0.00000000000E+00  0.28609830985E+02  0.28609830985E+02  0.00000000000E+00 0.  1.
         -1   -1    0    0    0  501 -0.00000000000E+00 -0.00000000000E+00 -0.66514028778E+03  0.66514028778E+03  0.00000000000E+00 0.  1.
         35    2    1    2    0    0  0.00000000000E+00 -0.71054273576E-14 -0.63653045679E+03  0.69375011876E+03  0.27589527879E+03 0.  0.
         25    2    3    3    0    0  0.13317887419E+02  0.42812397759E+02 -0.40936702816E+03  0.43045264354E+03  0.12529104940E+03 0.  0.
         25    2    3    3    0    0 -0.13317887419E+02 -0.42812397759E+02 -0.22716342863E+03  0.26329747522E+03  0.12534779465E+03 0.  0.
          5    1    4    4  502    0  0.10514059436E+02  0.83035774245E+02 -0.33904445347E+03  0.34925451561E+03  0.47000000000E+01 0. -1.
         -5    1    4    4    0  502  0.28038279830E+01 -0.40223376485E+02 -0.70322574696E+02  0.81198127928E+02  0.47000000000E+01 0. -1.
          5    1    5    5  503    0 -0.96125045327E+01  0.64202599373E+01 -0.21065901133E+03  0.21102826596E+03  0.47000000000E+01 0.  1.
         -5    1    5    5    0  503 -0.37053828862E+01 -0.49232657697E+02 -0.16504417305E+02  0.52269209261E+02  0.47000000000E+01 0.  1.
<mgrwt>
<rscale>  0 0.27589528E+03</rscale>
<asrwt>0</asrwt>
<pdfrwt beam="1">  1        1 0.44015124E-02 0.27589528E+03</pdfrwt>
<pdfrwt beam="2">  1       -1 0.10232928E+00 0.27589528E+03</pdfrwt>
<totfact> 0.19017185E+03</totfact>
</mgrwt>
</event>
<event>
 9    1  0.7816570E-001  0.2746913E+03  0.7818608E-02  0.1098624E+00
         -1   -1    0    0    0  501 -0.00000000000E+00  0.00000000000E+00  0.56361551950E+02  0.56361551950E+02  0.00000000000E+00 0.  1.
          1   -1    0    0  501    0  0.00000000000E+00 -0.00000000000E+00 -0.33469307833E+03  0.33469307833E+03  0.00000000000E+00 0.  1.
         35    2    1    2    0    0  0.00000000000E+00  0.71054273576E-14 -0.27833152638E+03  0.39105463028E+03  0.27469125448E+03 0.  0.
         25    2    3    3    0    0 -0.27025062123E+01 -0.54438102266E+02 -0.11449584837E+03  0.17763005676E+03  0.12438780990E+03 0.  0.
         25    2    3    3    0    0  0.27025062123E+01  0.54438102266E+02 -0.16383567801E+03  0.21342457352E+03  0.12544763320E+03 0.  0.
          5    1    4    4  502    0  0.54313759268E+02 -0.56304548745E+02 -0.70816163107E+02  0.10562767446E+03  0.47000000000E+01 0. -1.
         -5    1    4    4    0  502 -0.57016265481E+02  0.18664464789E+01 -0.43679685263E+02  0.72002382297E+02  0.47000000000E+01 0. -1.
          5    1    5    5  503    0 -0.55974842779E+02  0.52449211694E+02 -0.79654526668E+02  0.11068440021E+03  0.47000000000E+01 0.  1.
         -5    1    5    5    0  503  0.58677348991E+02  0.19888905713E+01 -0.84181151345E+02  0.10274017331E+03  0.47000000000E+01 0.  1.
<mgrwt>
<rscale>  0 0.27469125E+03</rscale>
<asrwt>0</asrwt>
<pdfrwt beam="1">  1        1 0.51491242E-01 0.27469125E+03</pdfrwt>
<pdfrwt beam="2">  1       -1 0.86710082E-02 0.27469125E+03</pdfrwt>
<totfact> 0.57583208E+03</totfact>
</mgrwt>
</event>
<event>
 9    1  0.7816570E-001  0.2721250E+03  0.7818608E-02  0.1100070E+00
          3   -1    0    0  501    0  0.00000000000E+00  0.00000000000E+00  0.16350876118E+03  0.16350876118E+03  0.00000000000E+00 0. -1.
         -3   -1    0    0    0  501 -0.00000000000E+00 -0.00000000000E+00 -0.11322330077E+03  0.11322330077E+03  0.00000000000E+00 0. -1.
         35    2    1    2    0    0  0.71054273576E-14  0.35527136788E-14  0.50285460407E+02  0.27673206195E+03  0.27212498338E+03 0.  0.
         25    2    3    3    0    0 -0.53279401636E+02  0.24358309323E+01  0.26981236986E+02  0.13890076239E+03  0.12538264127E+03 0.  0.
         25    2    3    3    0    0  0.53279401636E+02 -0.24358309323E+01  0.23304223421E+02  0.13783129956E+03  0.12493899470E+03 0.  0.
          5    1    4    4  502    0 -0.37956400779E+02 -0.57024199798E+02  0.34532510820E+02  0.76857218439E+02  0.47000000000E+01 0. -1.
         -5    1    4    4    0  502 -0.15323000857E+02  0.59460030730E+02 -0.75512738340E+01  0.62043543953E+02  0.47000000000E+01 0. -1.
          5    1    5    5  503    0  0.73012583046E+02 -0.24600362259E+02  0.54522588331E+02  0.94503003892E+02  0.47000000000E+01 0.  1.
         -5    1    5    5    0  503 -0.19733181410E+02  0.22164531327E+02 -0.31218364910E+02  0.43328295665E+02  0.47000000000E+01 0.  1.
<mgrwt>
<rscale>  0 0.27212498E+03</rscale>
<asrwt>0</asrwt>
<pdfrwt beam="1">  1        3 0.25155194E-01 0.27212498E+03</pdfrwt>
<pdfrwt beam="2">  1       -3 0.17418969E-01 0.27212498E+03</pdfrwt>
<totfact> 0.10805708E+03</totfact>
</mgrwt>
</event>
<event>
 9    1  0.7816570E-001  0.2736833E+03  0.7818608E-02  0.1099190E+00
         -2   -1    0    0    0  501 -0.00000000000E+00  0.00000000000E+00  0.24080176884E+02  0.24080176884E+02  0.00000000000E+00 0. -1.
          2   -1    0    0  501    0  0.00000000000E+00 -0.00000000000E+00 -0.77763679641E+03  0.77763679641E+03  0.00000000000E+00 0. -1.
         35    2    1    2    0    0 -0.17763568394E-14  0.00000000000E+00 -0.75355661953E+03  0.80171697330E+03  0.27368325933E+03 0.  0.
         25    2    3    3    0    0 -0.12527055844E+02  0.41821245679E+02 -0.42257118718E+03  0.44514670138E+03  0.13297832078E+03 0.  0.
         25    2    3    3    0    0  0.12527055844E+02 -0.41821245679E+02 -0.33098543235E+03  0.35657027192E+03  0.12524000427E+03 0.  0.
          5    1    4    4  502    0 -0.14458721901E+02  0.28769940984E+01 -0.39908657197E+03  0.39938642148E+03  0.47000000000E+01 0.  1.
         -5    1    4    4    0  502  0.19316660567E+01  0.38944251581E+02 -0.23484615203E+02  0.45760279896E+02  0.47000000000E+01 0.  1.
          5    1    5    5  503    0  0.84136929735E+01  0.32039998440E+02 -0.25085971347E+02  0.41818030656E+02  0.47000000000E+01 0. -1.
         -5    1    5    5    0  503  0.41133628706E+01 -0.73861244120E+02 -0.30589946101E+03  0.31475224127E+03  0.47000000000E+01 0. -1.
<mgrwt>
<rscale>  0 0.27368326E+03</rscale>
<asrwt>0</asrwt>
<pdfrwt beam="1">  1        2 0.11963641E+00 0.27368326E+03</pdfrwt>
<pdfrwt beam="2">  1       -2 0.37046433E-02 0.27368326E+03</pdfrwt>
<totfact> 0.11307904E+04</totfact>
</mgrwt>
</event>
<event>
 9    1  0.7816570E-001  0.2835233E+03  0.7818608E-02  0.1093780E+00
         -1   -1    0    0    0  501 -0.00000000000E+00  0.00000000000E+00  0.99570297544E+01  0.99570297544E+01  0.00000000000E+00 0. -1.
          1   -1    0    0  501    0  0.00000000000E+00 -0.00000000000E+00 -0.20183089578E+04  0.20183089578E+04  0.00000000000E+00 0. -1.
         35    2    1    2    0    0  0.35527136788E-14  0.71054273576E-14 -0.20083519281E+04  0.20282659876E+04  0.28352327839E+03 0.  0.
         25    2    3    3    0    0  0.77651014699E+00 -0.63315110376E+02 -0.11698188763E+04  0.11782468275E+04  0.12561837826E+03 0.  0.
         25    2    3    3    0    0 -0.77651014699E+00  0.63315110376E+02 -0.83853305177E+03  0.85001916010E+03  0.12403824995E+03 0.  0.
          5    1    4    4  502    0  0.36743471442E+02  0.25335820946E+02 -0.38032498746E+03  0.38296367008E+03  0.47000000000E+01 0.  1.
         -5    1    4    4    0  502 -0.35966961295E+02 -0.88650931322E+02 -0.78949388885E+03  0.79528315741E+03  0.47000000000E+01 0.  1.
          5    1    5    5  503    0  0.30118972605E+02  0.91907861758E+02 -0.59614933071E+03  0.60396218596E+03  0.47000000000E+01 0. -1.
         -5    1    5    5    0  503 -0.30895482752E+02 -0.28592751381E+02 -0.24238372106E+03  0.24605697414E+03  0.47000000000E+01 0. -1.
<mgrwt>
<rscale>  0 0.28352328E+03</rscale>
<asrwt>0</asrwt>
<pdfrwt beam="1">  1        1 0.31050907E+00 0.28352328E+03</pdfrwt>
<pdfrwt beam="2">  1       -1 0.15318507E-02 0.28352328E+03</pdfrwt>
<totfact> 0.33224427E+03</totfact>
</mgrwt>
</event>
<event>
 9    1  0.7816570E-001  0.2749766E+03  0.7818608E-02  0.1098465E+00
          1   -1    0    0  501    0  0.00000000000E+00  0.00000000000E+00  0.35241282768E+03  0.35241282768E+03  0.00000000000E+00 0.  1.
         -1   -1    0    0    0  501 -0.00000000000E+00 -0.00000000000E+00 -0.53638892814E+02  0.53638892814E+02  0.00000000000E+00 0.  1.
         35    2    1    2    0    0 -0.35527136788E-14  0.71054273576E-14  0.29877393486E+03  0.40605172049E+03  0.27497660912E+03 0.  0.
         25    2    3    3    0    0  0.93396217627E+01 -0.54439048783E+02  0.12222159698E+03  0.18356526204E+03  0.12532856056E+03 0.  0.
         25    2    3    3    0    0 -0.93396217627E+01  0.54439048783E+02  0.17655233789E+03  0.22248645846E+03  0.12360686719E+03 0.  0.
          5    1    4    4  502    0  0.54000286980E+02  0.85194679662E+01  0.27781088884E+02  0.61501961171E+02  0.47000000000E+01 0. -1.
         -5    1    4    4    0  502 -0.44660665217E+02 -0.62958516749E+02  0.94440508094E+02  0.12206330086E+03  0.47000000000E+01 0. -1.
          5    1    5    5  503    0 -0.28708502208E+02 -0.32800982356E+02  0.40783134384E+02  0.59878515285E+02  0.47000000000E+01 0.  1.
         -5    1    5    5    0  503  0.19368880445E+02  0.87240031139E+02  0.13576920350E+03  0.16260794317E+03  0.47000000000E+01 0.  1.
<mgrwt>
<rscale>  0 0.27497661E+03</rscale>
<asrwt>0</asrwt>
<pdfrwt beam="1">  1        1 0.54217357E-01 0.27497661E+03</pdfrwt>
<pdfrwt beam="2">  1       -1 0.82521376E-02 0.27497661E+03</pdfrwt>
<totfact> 0.58192755E+03</totfact>
</mgrwt>
</event>
<event>
 9    1  0.7816570E-001  0.2745851E+03  0.7818608E-02  0.1098684E+00
          2   -1    0    0  501    0  0.00000000000E+00  0.00000000000E+00  0.50726631095E+03  0.50726631095E+03  0.00000000000E+00 0.  1.
         -2   -1    0    0    0  501 -0.00000000000E+00 -0.00000000000E+00 -0.37158476142E+02  0.37158476142E+02  0.00000000000E+00 0.  1.
         35    2    1    2    0    0  0.00000000000E+00 -0.71054273576E-14  0.47010783481E+03  0.54442478709E+03  0.27458509146E+03 0.  0.
         25    2    3    3    0    0  0.32810520068E+02  0.37178176108E+02  0.18057899827E+03  0.22515424763E+03  0.12500765419E+03 0.  0.
         25    2    3    3    0    0 -0.32810520068E+02 -0.37178176108E+02  0.28952883654E+03  0.31927053946E+03  0.12509189891E+03 0.  0.
          5    1    4    4  502    0  0.43281625716E+02  0.64353775225E+02  0.17954589719E+03  0.19563621012E+03  0.47000000000E+01 0. -1.
         -5    1    4    4    0  502 -0.10471105648E+02 -0.27175599117E+02  0.10331010760E+01  0.29518037514E+02  0.47000000000E+01 0. -1.
          5    1    5    5  503    0 -0.23749513518E+02 -0.25857698791E+02  0.29915349511E+03  0.30124336278E+03  0.47000000000E+01 0. -1.
         -5    1    5    5    0  503 -0.90610065504E+01 -0.11320477317E+02 -0.96246585756E+01  0.18027176681E+02  0.47000000000E+01 0. -1.
<mgrwt>
<rscale>  0 0.27458509E+03</rscale>
<asrwt>0</asrwt>
<pdfrwt beam="1">  1        2 0.78040966E-01 0.27458509E+03</pdfrwt>
<pdfrwt beam="2">  1       -2 0.57166890E-02 0.27458509E+03</pdfrwt>
<totfact> 0.97090879E+03</totfact>
</mgrwt>
</event>
<event>
 9    1  0.7816570E-001  0.2787986E+03  0.7818608E-02  0.1096347E+00
         -2   -1    0    0    0  501 -0.00000000000E+00  0.00000000000E+00  0.23937440356E+02  0.23937440356E+02  0.00000000000E+00 0. -1.
          2   -1    0    0  501    0  0.00000000000E+00 -0.00000000000E+00 -0.81178982491E+03  0.81178982491E+03  0.00000000000E+00 0. -1.
         35    2    1    2    0    0  0.14210854715E-13 -0.71054273576E-14 -0.78785238456E+03  0.83572726527E+03  0.27879864071E+03 0.  0.
         25    2    3    3    0    0 -0.36379260453E+02 -0.37361779127E+02 -0.48359111234E+03  0.50226506458E+03  0.12526163830E+03 0.  0.
         25    2    3    3    0    0  0.36379260453E+02  0.37361779127E+02 -0.30426127221E+03  0.33346220069E+03  0.12610616317E+03 0.  0.
          5    1    4    4  502    0 -0.82595652873E+02 -0.19580093508E+02 -0.33251420498E+03  0.34321015202E+03  0.47000000000E+01 0.  1.
         -5    1    4    4    0  502  0.46216392419E+02 -0.17781685619E+02 -0.15107690736E+03  0.15905491256E+03  0.47000000000E+01 0.  1.
          5    1    5    5  503    0 -0.18549486559E+02  0.56713978328E+02 -0.23665434786E+03  0.24410638900E+03  0.47000000000E+01 0. -1.
         -5    1    5    5    0  503  0.54928747012E+02 -0.19352199200E+02 -0.67606924356E+02  0.89355811692E+02  0.47000000000E+01 0. -1.
<mgrwt>
<rscale>  0 0.27879864E+03</rscale>
<asrwt>0</asrwt>
<pdfrwt beam="1">  1        2 0.12489073E+00 0.27879864E+03</pdfrwt>
<pdfrwt beam="2">  1       -2 0.36826835E-02 0.27879864E+03</pdfrwt>
<totfact> 0.10810115E+04</totfact>
</mgrwt>
</event>
<event>
 9    1  0.7816570E-001  0.2872660E+03  0.7818608E-02  0.1091785E+00
         -1   -1    0    0    0  501 -0.00000000000E+00  0.00000000000E+00  0.22924165053E+03  0.22924165053E+03  0.00000000000E+00 0.  1.
          1   -1    0    0  501    0  0.00000000000E+00 -0.00000000000E+00 -0.89994305828E+02  0.89994305828E+02  0.00000000000E+00 0.  1.
         35    2    1    2    0    0 -0.71054273576E-14  0.00000000000E+00  0.13924734471E+03  0.31923595636E+03  0.28726603145E+03 0.  0.
         25    2    3    3    0    0 -0.39495051027E+02  0.47440371655E+02  0.11366214741E+03  0.17989178665E+03  0.12502609021E+03 0.  0.
         25    2    3    3    0    0  0.39495051027E+02 -0.47440371655E+02  0.25585197297E+02  0.13934416971E+03  0.12227733801E+03 0.  0.
          5    1    4    4  502    0 -0.70758532949E+02  0.62864087847E+02  0.10895453431E+03  0.14440167614E+03  0.47000000000E+01 0.  1.
         -5    1    4    4    0  502  0.31263481921E+02 -0.15423716192E+02  0.47076130966E+01  0.35490110511E+02  0.47000000000E+01 0.  1.
          5    1    5    5  503    0 -0.87082462467E+01 -0.88631732804E+01  0.64737219067E+02  0.66086208288E+02  0.47000000000E+01 0.  1.
         -5    1    5    5    0  503  0.48203297274E+02 -0.38577198375E+02 -0.39152021770E+02  0.73257961419E+02  0.47000000000E+01 0.  1.
<mgrwt>
<rscale>  0 0.28726603E+03</rscale>
<asrwt>0</asrwt>
<pdfrwt beam="1">  1        1 0.13845278E-01 0.28726603E+03</pdfrwt>
<pdfrwt beam="2">  1       -1 0.35267946E-01 0.28726603E+03</pdfrwt>
<totfact> 0.31890941E+03</totfact>
</mgrwt>
</event>
<event>
 9    1  0.7816570E-001  0.2740985E+03  0.7818608E-02  0.1098957E+00
          2   -1    0    0  501    0  0.00000000000E+00  0.00000000000E+00  0.58662068747E+02  0.58662068747E+02  0.00000000000E+00 0. -1.
         -2   -1    0    0    0  501 -0.00000000000E+00 -0.00000000000E+00 -0.32018133626E+03  0.32018133626E+03  0.00000000000E+00 0. -1.
         35    2    1    2    0    0  0.14210854715E-13  0.00000000000E+00 -0.26151926751E+03  0.37884340500E+03  0.27409851922E+03 0.  0.
         25    2    3    3    0    0 -0.56869206677E+02  0.22926400741E+01 -0.14189714200E+03  0.19718768878E+03  0.12453442428E+03 0.  0.
         25    2    3    3    0    0  0.56869206677E+02 -0.22926400741E+01 -0.11962212551E+03  0.18165571623E+03  0.12429796241E+03 0.  0.
          5    1    4    4  502    0 -0.30027529164E+02  0.27477799324E+02  0.88696308688E+01  0.41921859633E+02  0.47000000000E+01 0. -1.
         -5    1    4    4    0  502 -0.26841677514E+02 -0.25185159250E+02 -0.15076677287E+03  0.15526582914E+03  0.47000000000E+01 0. -1.
          5    1    5    5  503    0  0.84063877154E+02 -0.28853221778E+02 -0.11121105362E+03  0.14244027624E+03  0.47000000000E+01 0. -1.
         -5    1    5    5    0  503 -0.27194670477E+02  0.26560581704E+02 -0.84110718894E+01  0.39215439984E+02  0.47000000000E+01 0. -1.
<mgrwt>
<rscale>  0 0.27409852E+03</rscale>
<asrwt>0</asrwt>
<pdfrwt beam="1">  1        2 0.90249337E-02 0.27409852E+03</pdfrwt>
<pdfrwt beam="2">  1       -2 0.49258667E-01 0.27409852E+03</pdfrwt>
<totfact> 0.28754106E+03</totfact>
</mgrwt>
</event>
<event>
 9    1  0.7816570E-001  0.2734688E+03  0.7818608E-02  0.1099311E+00
          1   -1    0    0  501    0  0.00000000000E+00  0.00000000000E+00  0.12294471530E+03  0.12294471530E+03  0.00000000000E+00 0.  1.
         -1   -1    0    0    0  501 -0.00000000000E+00 -0.00000000000E+00 -0.15207080586E+03  0.15207080586E+03  0.00000000000E+00 0.  1.
         35    2    1    2    0    0  0.00000000000E+00  0.00000000000E+00 -0.29126090563E+02  0.27501552116E+03  0.27346884234E+03 0.  0.
         25    2    3    3    0    0  0.18381144374E+02 -0.13361263799E+02  0.35057523020E+02  0.13120347710E+03  0.12437416389E+03 0.  0.
         25    2    3    3    0    0 -0.18381144374E+02  0.13361263799E+02 -0.64183613583E+02  0.14381204406E+03  0.12667271974E+03 0.  0.
          5    1    4    4  502    0 -0.27673119554E+02  0.16888547392E+02 -0.30967561521E+02  0.45078869167E+02  0.47000000000E+01 0.  1.
         -5    1    4    4    0  502  0.46054263927E+02 -0.30249811191E+02  0.66025084542E+02  0.86124607933E+02  0.47000000000E+01 0.  1.
          5    1    5    5  503    0  0.17723575163E+02  0.21679581923E+01 -0.93776224833E+02  0.95576647269E+02  0.47000000000E+01 0.  1.
         -5    1    5    5    0  503 -0.36104719537E+02  0.11193305607E+02  0.29592611250E+02  0.48235396794E+02  0.47000000000E+01 0.  1.
<mgrwt>
<rscale>  0 0.27346884E+03</rscale>
<asrwt>0</asrwt>
<pdfrwt beam="1">  1        1 0.18914572E-01 0.27346884E+03</pdfrwt>
<pdfrwt beam="2">  1       -1 0.23395509E-01 0.27346884E+03</pdfrwt>
<totfact> 0.42455365E+03</totfact>
</mgrwt>
</event>
<event>
 9    1  0.7816570E-001  0.2813202E+03  0.7818608E-02  0.1094970E+00
          1   -1    0    0  501    0  0.00000000000E+00  0.00000000000E+00  0.50115354679E+03  0.50115354679E+03  0.00000000000E+00 0. -1.
         -1   -1    0    0    0  501 -0.00000000000E+00 -0.00000000000E+00 -0.39479454977E+02  0.39479454977E+02  0.00000000000E+00 0. -1.
         35    2    1    2    0    0  0.00000000000E+00 -0.71054273576E-14  0.46167409181E+03  0.54063300176E+03  0.28132023665E+03 0.  0.
         25    2    3    3    0    0  0.80023603190E+01 -0.30300065932E+02  0.34121756686E+03  0.36464305801E+03  0.12471166767E+03 0.  0.
         25    2    3    3    0    0 -0.80023603190E+01  0.30300065932E+02  0.12045652495E+03  0.17598994376E+03  0.12442087499E+03 0.  0.
          5    1    4    4  502    0 -0.24681435111E+02  0.35676660312E+02  0.61822901660E+02  0.75671384947E+02  0.47000000000E+01 0.  1.
         -5    1    4    4    0  502  0.32683795430E+02 -0.65976726244E+02  0.27939466520E+03  0.28897167306E+03  0.47000000000E+01 0.  1.
          5    1    5    5  503    0 -0.62270204307E+01  0.27989118926E+02 -0.20096081094E+02  0.35328586683E+02  0.47000000000E+01 0.  1.
         -5    1    5    5    0  503 -0.17753398883E+01  0.23109470067E+01  0.14055260605E+03  0.14066135707E+03  0.47000000000E+01 0.  1.
<mgrwt>
<rscale>  0 0.28132024E+03</rscale>
<asrwt>0</asrwt>
<pdfrwt beam="1">  1        1 0.77100541E-01 0.28132024E+03</pdfrwt>
<pdfrwt beam="2">  1       -1 0.60737627E-02 0.28132024E+03</pdfrwt>
<totfact> 0.58825034E+03</totfact>
</mgrwt>
</event>
<event>
 9    1  0.7816570E-001  0.2753345E+03  0.7818608E-02  0.1098265E+00
         -2   -1    0    0    0  501 -0.00000000000E+00  0.00000000000E+00  0.13985507843E+03  0.13985507843E+03  0.00000000000E+00 0. -1.
          2   -1    0    0  501    0  0.00000000000E+00 -0.00000000000E+00 -0.13551363589E+03  0.13551363589E+03  0.00000000000E+00 0. -1.
         35    2    1    2    0    0  0.00000000000E+00 -0.14210854715E-13  0.43414425443E+01  0.27536871432E+03  0.27533448876E+03 0.  0.
         25    2    3    3    0    0  0.33348315827E+02 -0.44565501791E+02 -0.90595676442E+01  0.13764689538E+03  0.12556431787E+03 0.  0.
         25    2    3    3    0    0 -0.33348315827E+02  0.44565501791E+02  0.13401010188E+02  0.13772181894E+03  0.12525780702E+03 0.  0.
          5    1    4    4  502    0 -0.34914499124E+02 -0.37714942405E+02 -0.36915140972E+02  0.63452791606E+02  0.47000000000E+01 0.  1.
         -5    1    4    4    0  502  0.68262814950E+02 -0.68505593867E+01  0.27855573328E+02  0.74194103770E+02  0.47000000000E+01 0.  1.
          5    1    5    5  503    0 -0.26176464153E+02  0.33657537719E+02 -0.53967576302E+02  0.68939295128E+02  0.47000000000E+01 0. -1.
         -5    1    5    5    0  503 -0.71718516732E+01  0.10907964072E+02  0.67368586490E+02  0.68782523815E+02  0.47000000000E+01 0. -1.
<mgrwt>
<rscale>  0 0.27533449E+03</rscale>
<asrwt>0</asrwt>
<pdfrwt beam="1">  1        2 0.20848252E-01 0.27533449E+03</pdfrwt>
<pdfrwt beam="2">  1       -2 0.21516166E-01 0.27533449E+03</pdfrwt>
<totfact> 0.48683788E+03</totfact>
</mgrwt>
</event>
<event>
 9    1  0.7816570E-001  0.2750029E+03  0.7818608E-02  0.1098450E+00
          3   -1    0    0  501    0  0.00000000000E+00  0.00000000000E+00  0.22550469940E+02  0.22550469940E+02  0.00000000000E+00 0.  1.
         -3   -1    0    0    0  501 -0.00000000000E+00 -0.00000000000E+00 -0.83841511799E+03  0.83841511799E+03  0.00000000000E+00 0.  1.
         35    2    1    2    0    0  0.00000000000E+00 -0.35527136788E-14 -0.81586464805E+03  0.86096558793E+03  0.27500294483E+03 0.  0.
         25    2    3    3    0    0 -0.31480231696E+01 -0.20196355346E+02 -0.24379648373E+03  0.27670008827E+03  0.12926101713E+03 0.  0.
         25    2    3    3    0    0  0.31480231696E+01  0.20196355346E+02 -0.57206816432E+03  0.58426549966E+03  0.11698883129E+03 0.  0.
          5    1    4    4  502    0  0.39179137457E+02  0.37991862132E+02 -0.13981935550E+03  0.15016633635E+03  0.47000000000E+01 0.  1.
         -5    1    4    4    0  502 -0.42327160627E+02 -0.58188217478E+02 -0.10397712822E+03  0.12653375192E+03  0.47000000000E+01 0.  1.
          5    1    5    5  503    0  0.56577796745E+02  0.15420115284E+02 -0.20520062864E+03  0.21346712870E+03  0.47000000000E+01 0.  1.
         -5    1    5    5    0  503 -0.53429773576E+02  0.47762400623E+01 -0.36686753567E+03  0.37079837096E+03  0.47000000000E+01 0.  1.
<mgrwt>
<rscale>  0 0.27500294E+03</rscale>
<asrwt>0</asrwt>
<pdfrwt beam="1">  1        3 0.34693033E-02 0.27500294E+03</pdfrwt>
<pdfrwt beam="2">  1       -3 0.12898693E+00 0.27500294E+03</pdfrwt>
<totfact> 0.51151084E+02</totfact>
</mgrwt>
</event>
<event>
 9    1  0.7816570E-001  0.2731238E+03  0.7818608E-02  0.1099505E+00
          2   -1    0    0  501    0  0.00000000000E+00  0.00000000000E+00  0.88125190235E+02  0.88125190235E+02  0.00000000000E+00 0.  1.
         -2   -1    0    0    0  501 -0.00000000000E+00 -0.00000000000E+00 -0.21162120767E+03  0.21162120767E+03  0.00000000000E+00 0.  1.
         35    2    1    2    0    0  0.35527136788E-14 -0.71054273576E-14 -0.12349601743E+03  0.29974639790E+03  0.27312384871E+03 0.  0.
         25    2    3    3    0    0  0.48047509719E+01  0.27381618155E+02 -0.10204433943E+02  0.12923256766E+03  0.12579382905E+03 0.  0.
         25    2    3    3    0    0 -0.48047509719E+01 -0.27381618155E+02 -0.11329158349E+03  0.17051383024E+03  0.12436697620E+03 0.  0.
          5    1    4    4  502    0 -0.17851888680E+02 -0.41210726232E+02 -0.29964691514E+02  0.54193972207E+02  0.47000000000E+01 0.  1.
         -5    1    4    4    0  502  0.22656639652E+02  0.68592344387E+02  0.19760257572E+02  0.75038595457E+02  0.47000000000E+01 0.  1.
          5    1    5    5  503    0 -0.37469919433E+02 -0.45941984850E+02 -0.97473241137E+01  0.60264095128E+02  0.47000000000E+01 0. -1.
         -5    1    5    5    0  503  0.32665168461E+02  0.18560366695E+02 -0.10354425938E+03  0.11024973511E+03  0.47000000000E+01 0. -1.
<mgrwt>
<rscale>  0 0.27312385E+03</rscale>
<asrwt>0</asrwt>
<pdfrwt beam="1">  1        2 0.13557722E-01 0.27312385E+03</pdfrwt>
<pdfrwt beam="2">  1       -2 0.32557109E-01 0.27312385E+03</pdfrwt>
<totfact> 0.38492952E+03</totfact>
</mgrwt>
</event>
<event>
 9    1  0.7816570E-001  0.2679819E+03  0.7818608E-02  0.1102440E+00
          1   -1    0    0  501    0  0.00000000000E+00  0.00000000000E+00  0.16251911458E+04  0.16251911458E+04  0.00000000000E+00 0. -1.
         -1   -1    0    0    0  501 -0.00000000000E+00 -0.00000000000E+00 -0.11047053059E+02  0.11047053059E+02  0.00000000000E+00 0. -1.
         35    2    1    2    0    0 -0.71054273576E-14  0.10658141036E-13  0.16141440927E+04  0.16362381988E+04  0.26798188609E+03 0.  0.
         25    2    3    3    0    0 -0.27274468062E+02  0.29659161625E+02  0.83020999528E+03  0.84120659594E+03  0.12944627577E+03 0.  0.
         25    2    3    3    0    0  0.27274468062E+02 -0.29659161625E+02  0.78393409742E+03  0.79503160288E+03  0.12609130820E+03 0.  0.
          5    1    4    4  502    0 -0.78117944143E+01 -0.35684507400E+02  0.82116645614E+02  0.89998009352E+02  0.47000000000E+01 0.  1.
         -5    1    4    4    0  502 -0.19462673648E+02  0.65343669025E+02  0.74809334966E+03  0.75120858658E+03  0.47000000000E+01 0.  1.
          5    1    5    5  503    0  0.74849220589E+02 -0.51307918758E+01  0.54300811401E+03  0.54818667689E+03  0.47000000000E+01 0.  1.
         -5    1    5    5    0  503 -0.47574752527E+02 -0.24528369749E+02  0.24092598342E+03  0.24684492599E+03  0.47000000000E+01 0.  1.
<mgrwt>
<rscale>  0 0.26798189E+03</rscale>
<asrwt>0</asrwt>
<pdfrwt beam="1">  1        1 0.25002922E+00 0.26798189E+03</pdfrwt>
<pdfrwt beam="2">  1       -1 0.16995479E-02 0.26798189E+03</pdfrwt>
<totfact> 0.51464420E+03</totfact>
</mgrwt>
</event>
<event>
 9    1  0.7816570E-001  0.2754954E+03  0.7818608E-02  0.1098175E+00
          2   -1    0    0  501    0  0.00000000000E+00  0.00000000000E+00  0.11888001578E+04  0.11888001578E+04  0.00000000000E+00 0. -1.
         -2   -1    0    0    0  501 -0.00000000000E+00 -0.00000000000E+00 -0.15960988547E+02  0.15960988547E+02  0.00000000000E+00 0. -1.
         35    2    1    2    0    0  0.35527136788E-14  0.14210854715E-13  0.11728391692E+04  0.12047611463E+04  0.27549537712E+03 0.  0.
         25    2    3    3    0    0 -0.26095223587E+00  0.60775940720E+02  0.55026495900E+03  0.56704770438E+03  0.12271019060E+03 0.  0.
         25    2    3    3    0    0  0.26095223587E+00 -0.60775940720E+02  0.62257421025E+03  0.63771344196E+03  0.12404033103E+03 0.  0.
          5    1    4    4  502    0  0.42174495494E+02 -0.16411108838E+02  0.24950450332E+03  0.25361900509E+03  0.47000000000E+01 0.  1.
         -5    1    4    4    0  502 -0.42435447730E+02  0.77187049557E+02  0.30076045567E+03  0.31342869929E+03  0.47000000000E+01 0.  1.
          5    1    5    5  503    0  0.31377914862E+02 -0.51048939095E+02  0.58358898383E+03  0.58667602625E+03  0.47000000000E+01 0.  1.
         -5    1    5    5    0  503 -0.31116962626E+02 -0.97270016252E+01  0.38985226416E+02  0.51037415710E+02  0.47000000000E+01 0.  1.
<mgrwt>
<rscale>  0 0.27549538E+03</rscale>
<asrwt>0</asrwt>
<pdfrwt beam="1">  1        2 0.18289226E+00 0.27549538E+03</pdfrwt>
<pdfrwt beam="2">  1       -2 0.24555376E-02 0.27549538E+03</pdfrwt>
<totfact> 0.11558550E+04</totfact>
</mgrwt>
</event>
<event>
 9    1  0.7816570E-001  0.2756271E+03  0.7818608E-02  0.1098102E+00
         -3   -1    0    0    0  501 -0.00000000000E+00  0.00000000000E+00  0.13678300039E+02  0.13678300039E+02  0.00000000000E+00 0.  1.
          3   -1    0    0  501    0  0.00000000000E+00 -0.00000000000E+00 -0.13885186083E+04  0.13885186083E+04  0.00000000000E+00 0.  1.
         35    2    1    2    0    0 -0.35527136788E-14 -0.71054273576E-14 -0.13748403083E+04  0.14021969084E+04  0.27562709688E+03 0.  0.
         25    2    3    3    0    0 -0.18071460650E+02 -0.83617094998E+01 -0.41042720967E+03  0.42953269167E+03  0.12510532723E+03 0.  0.
         25    2    3    3    0    0  0.18071460650E+02  0.83617094998E+01 -0.96441309861E+03  0.97266421669E+03  0.12484613642E+03 0.  0.
          5    1    4    4  502    0 -0.12814197595E+02  0.58181783010E+02 -0.19223549601E+03  0.20131045542E+03  0.47000000000E+01 0. -1.
         -5    1    4    4    0  502 -0.52572630553E+01 -0.66543492510E+02 -0.21819171367E+03  0.22822223626E+03  0.47000000000E+01 0. -1.
          5    1    5    5  503    0 -0.19874327264E+02  0.47882458584E+02 -0.21405168926E+03  0.22029056811E+03  0.47000000000E+01 0. -1.
         -5    1    5    5    0  503  0.37945787914E+02 -0.39520749084E+02 -0.75036140935E+03  0.75237364857E+03  0.47000000000E+01 0. -1.
<mgrwt>
<rscale>  0 0.27562710E+03</rscale>
<asrwt>0</asrwt>
<pdfrwt beam="1">  1        3 0.21361825E+00 0.27562710E+03</pdfrwt>
<pdfrwt beam="2">  1       -3 0.21043539E-02 0.27562710E+03</pdfrwt>
<totfact> 0.29703489E+02</totfact>
</mgrwt>
</event>
<event>
 9    1  0.7816570E-001  0.2720689E+03  0.7818608E-02  0.1100101E+00
          1   -1    0    0  501    0  0.00000000000E+00  0.00000000000E+00  0.21304772488E+04  0.21304772488E+04  0.00000000000E+00 0. -1.
         -1   -1    0    0    0  501 -0.00000000000E+00 -0.00000000000E+00 -0.86860238248E+01  0.86860238248E+01  0.00000000000E+00 0. -1.
         35    2    1    2    0    0  0.35527136788E-14 -0.35527136788E-14  0.21217912250E+04  0.21391632726E+04  0.27206893348E+03 0.  0.
         25    2    3    3    0    0  0.51046836403E+01  0.17066518972E+02  0.14664487242E+04  0.14717465616E+04  0.12348585773E+03 0.  0.
         25    2    3    3    0    0 -0.51046836403E+01 -0.17066518972E+02  0.65534250079E+03  0.66741671102E+03  0.12511574220E+03 0.  0.
          5    1    4    4  502    0 -0.10982019227E+01  0.27411145701E+02  0.14523103835E+04  0.14525770606E+04  0.47000000000E+01 0.  1.
         -5    1    4    4    0  502  0.62028855630E+01 -0.10344626729E+02  0.14138340693E+02  0.19169501011E+02  0.47000000000E+01 0.  1.
          5    1    5    5  503    0 -0.52269696297E+02 -0.39622730051E+02  0.47694397205E+03  0.48145583844E+03  0.47000000000E+01 0. -1.
         -5    1    5    5    0  503  0.47165012656E+02  0.22556211079E+02  0.17839852874E+03  0.18596087259E+03  0.47000000000E+01 0. -1.
<mgrwt>
<rscale>  0 0.27206893E+03</rscale>
<asrwt>0</asrwt>
<pdfrwt beam="1">  1        1 0.32776531E+00 0.27206893E+03</pdfrwt>
<pdfrwt beam="2">  1       -1 0.13363131E-02 0.27206893E+03</pdfrwt>
<totfact> 0.34268505E+03</totfact>
</mgrwt>
</event>
<event>
 9    1  0.7816570E-001  0.2708703E+03  0.7818608E-02  0.1100783E+00
          2   -1    0    0  501    0  0.00000000000E+00  0.00000000000E+00  0.63379501170E+03  0.63379501170E+03  0.00000000000E+00 0.  1.
         -2   -1    0    0    0  501 -0.00000000000E+00 -0.00000000000E+00 -0.28941021621E+02  0.28941021621E+02  0.00000000000E+00 0.  1.
         35    2    1    2    0    0 -0.14210854715E-13  0.71054273576E-14  0.60485399008E+03  0.66273603332E+03  0.27087026516E+03 0.  0.
         25    2    3    3    0    0 -0.35733698091E+02 -0.37629020380E+02  0.30803283839E+03  0.33663278819E+03  0.12547734539E+03 0.  0.
         25    2    3    3    0    0  0.35733698091E+02  0.37629020380E+02  0.29682115169E+03  0.32610324513E+03  0.12469037669E+03 0.  0.
          5    1    4    4  502    0 -0.69237286095E+02 -0.35534240769E+02  0.28544191173E+03  0.29589805513E+03  0.47000000000E+01 0.  1.
         -5    1    4    4    0  502  0.33503588004E+02 -0.20947796109E+01  0.22590926652E+02  0.40734733063E+02  0.47000000000E+01 0.  1.
          5    1    5    5  503    0  0.55999484470E+02  0.17961723003E+02  0.29095971432E+03  0.29688080287E+03  0.47000000000E+01 0.  1.
         -5    1    5    5    0  503 -0.20265786379E+02  0.19667297377E+02  0.58614373689E+01  0.29222442261E+02  0.47000000000E+01 0.  1.
<mgrwt>
<rscale>  0 0.27087027E+03</rscale>
<asrwt>0</asrwt>
<pdfrwt beam="1">  1        2 0.97506915E-01 0.27087027E+03</pdfrwt>
<pdfrwt beam="2">  1       -2 0.44524653E-02 0.27087027E+03</pdfrwt>
<totfact> 0.10990389E+04</totfact>
</mgrwt>
</event>
<event>
 9    1  0.7816570E-001  0.2816716E+03  0.7818608E-02  0.1094779E+00
          2   -1    0    0  501    0  0.00000000000E+00  0.00000000000E+00  0.98624230768E+02  0.98624230768E+02  0.00000000000E+00 0. -1.
         -2   -1    0    0    0  501 -0.00000000000E+00 -0.00000000000E+00 -0.20111405121E+03  0.20111405121E+03  0.00000000000E+00 0. -1.
         35    2    1    2    0    0  0.00000000000E+00  0.00000000000E+00 -0.10248982044E+03  0.29973828198E+03  0.28167157185E+03 0.  0.
         25    2    3    3    0    0  0.47449326083E+02  0.35835172652E+02 -0.39236179212E+02  0.14362809554E+03  0.12471549191E+03 0.  0.
         25    2    3    3    0    0 -0.47449326083E+02 -0.35835172652E+02 -0.63253641227E+02  0.15611018644E+03  0.12974501546E+03 0.  0.
          5    1    4    4  502    0 -0.28373991588E+02 -0.27003185341E+02 -0.84713700530E+01  0.40349839253E+02  0.47000000000E+01 0. -1.
         -5    1    4    4    0  502  0.75823317671E+02  0.62838357993E+02 -0.30764809159E+02  0.10327825628E+03  0.47000000000E+01 0. -1.
          5    1    5    5  503    0 -0.66794545442E+02 -0.73059470817E+02 -0.54130673018E+02  0.11292217381E+03  0.47000000000E+01 0.  1.
         -5    1    5    5    0  503  0.19345219359E+02  0.37224298165E+02 -0.91229682095E+01  0.43188012629E+02  0.47000000000E+01 0.  1.
<mgrwt>
<rscale>  0 0.28167157E+03</rscale>
<asrwt>0</asrwt>
<pdfrwt beam="1">  1        2 0.15172959E-01 0.28167157E+03</pdfrwt>
<pdfrwt beam="2">  1       -2 0.30940623E-01 0.28167157E+03</pdfrwt>
<totfact> 0.36989802E+03</totfact>
</mgrwt>
</event>
<event>
 9    1  0.7816570E-001  0.2574806E+03  0.7818608E-02  0.1108666E+00
         -2   -1    0    0    0  501 -0.00000000000E+00  0.00000000000E+00  0.24260597188E+02  0.24260597188E+02  0.00000000000E+00 0.  1.
          2   -1    0    0  501    0  0.00000000000E+00 -0.00000000000E+00 -0.68316790904E+03  0.68316790904E+03  0.00000000000E+00 0.  1.
         35    2    1    2    0    0 -0.35527136788E-14 -0.17763568394E-14 -0.65890731186E+03  0.70742850623E+03  0.25748057366E+03 0.  0.
         25    2    3    3    0    0  0.26524886043E+02  0.14509668023E+02 -0.35602038147E+03  0.37817948479E+03  0.12391574011E+03 0.  0.
         25    2    3    3    0    0 -0.26524886043E+02 -0.14509668023E+02 -0.30288693039E+03  0.32924902144E+03  0.12550030071E+03 0.  0.
          5    1    4    4  502    0 -0.13561571117E+02  0.17726927519E+02 -0.31870131348E+01  0.23030571490E+02  0.47000000000E+01 0. -1.
         -5    1    4    4    0  502  0.40086457160E+02 -0.32172594962E+01 -0.35283336834E+03  0.35514891330E+03  0.47000000000E+01 0. -1.
          5    1    5    5  503    0  0.45079508125E+02  0.19494376680E+02 -0.12795532095E+03  0.13713805793E+03  0.47000000000E+01 0. -1.
         -5    1    5    5    0  503 -0.71604394168E+02 -0.34004044703E+02 -0.17493160944E+03  0.19211096351E+03  0.47000000000E+01 0. -1.
<mgrwt>
<rscale>  0 0.25748057E+03</rscale>
<asrwt>0</asrwt>
<pdfrwt beam="1">  1        2 0.10510275E+00 0.25748057E+03</pdfrwt>
<pdfrwt beam="2">  1       -2 0.37323999E-02 0.25748057E+03</pdfrwt>
<totfact> 0.13080282E+04</totfact>
</mgrwt>
</event>
<event>
 9    1  0.7816570E-001  0.2857475E+03  0.7818608E-02  0.1092591E+00
          1   -1    0    0  501    0  0.00000000000E+00  0.00000000000E+00  0.12095408548E+04  0.12095408548E+04  0.00000000000E+00 0. -1.
         -1   -1    0    0    0  501 -0.00000000000E+00 -0.00000000000E+00 -0.16876579385E+02  0.16876579385E+02  0.00000000000E+00 0. -1.
         35    2    1    2    0    0  0.14210854715E-13  0.00000000000E+00  0.11926642754E+04  0.12264174342E+04  0.28574752671E+03 0.  0.
         25    2    3    3    0    0  0.67306026824E+02  0.53702684685E+01  0.66411897941E+03  0.67917962991E+03  0.12518789811E+03 0.  0.
         25    2    3    3    0    0 -0.67306026824E+02 -0.53702684685E+01  0.52854529597E+03  0.54723780425E+03  0.12470021441E+03 0.  0.
          5    1    4    4  502    0  0.66229349625E+02 -0.31266051791E+01  0.14008747015E+03  0.15505705951E+03  0.47000000000E+01 0.  1.
         -5    1    4    4    0  502  0.10766771990E+01  0.84968736476E+01  0.52403150927E+03  0.52412257040E+03  0.47000000000E+01 0.  1.
          5    1    5    5  503    0 -0.61922967911E+02  0.13737154772E+02  0.10200058333E+03  0.12020554220E+03  0.47000000000E+01 0.  1.
         -5    1    5    5    0  503 -0.53830589138E+01 -0.19107423241E+02  0.42654471264E+03  0.42703226205E+03  0.47000000000E+01 0.  1.
<mgrwt>
<rscale>  0 0.28574753E+03</rscale>
<asrwt>0</asrwt>
<pdfrwt beam="1">  1        1 0.18608314E+00 0.28574753E+03</pdfrwt>
<pdfrwt beam="2">  1       -1 0.25963978E-02 0.28574753E+03</pdfrwt>
<totfact> 0.52699098E+03</totfact>
</mgrwt>
</event>
<event>
 9    1  0.7816570E-001  0.2748180E+03  0.7818608E-02  0.1098553E+00
         -1   -1    0    0    0  501 -0.00000000000E+00  0.00000000000E+00  0.14780820245E+03  0.14780820245E+03  0.00000000000E+00 0.  1.
          1   -1    0    0  501    0  0.00000000000E+00 -0.00000000000E+00 -0.12774148075E+03  0.12774148075E+03  0.00000000000E+00 0.  1.
         35    2    1    2    0    0 -0.71054273576E-14 -0.71054273576E-14  0.20066721698E+02  0.27554968320E+03  0.27481803906E+03 0.  0.
         25    2    3    3    0    0  0.26657136914E+02  0.44059278827E+02 -0.12642264487E+02  0.13689268802E+03  0.12620601484E+03 0.  0.
         25    2    3    3    0    0 -0.26657136914E+02 -0.44059278827E+02  0.32708986185E+02  0.13865699518E+03  0.12451530644E+03 0.  0.
          5    1    4    4  502    0  0.10494863398E+02  0.28976336805E+02 -0.69248027836E+02  0.75941751439E+02  0.47000000000E+01 0. -1.
         -5    1    4    4    0  502  0.16162273516E+02  0.15082942022E+02  0.56605763349E+02  0.60950936577E+02  0.47000000000E+01 0. -1.
          5    1    5    5  503    0 -0.61073168991E+02 -0.10781455860E+01 -0.17792776509E+02  0.63794727560E+02  0.47000000000E+01 0. -1.
         -5    1    5    5    0  503  0.34416032077E+02 -0.42981133241E+02  0.50501762694E+02  0.74862267624E+02  0.47000000000E+01 0. -1.
<mgrwt>
<rscale>  0 0.27481804E+03</rscale>
<asrwt>0</asrwt>
<pdfrwt beam="1">  1        1 0.19652535E-01 0.27481804E+03</pdfrwt>
<pdfrwt beam="2">  1       -1 0.22739724E-01 0.27481804E+03</pdfrwt>
<totfact> 0.42353701E+03</totfact>
</mgrwt>
</event>
<event>
 9    1  0.7816570E-001  0.2725144E+03  0.7818608E-02  0.1099849E+00
         -2   -1    0    0    0  501 -0.00000000000E+00  0.00000000000E+00  0.15131051393E+02  0.15131051393E+02  0.00000000000E+00 0. -1.
          2   -1    0    0  501    0  0.00000000000E+00 -0.00000000000E+00 -0.12270151810E+04  0.12270151810E+04  0.00000000000E+00 0. -1.
         35    2    1    2    0    0  0.71054273576E-14 -0.35527136788E-14 -0.12118841296E+04  0.12421462324E+04  0.27251443825E+03 0.  0.
         25    2    3    3    0    0 -0.25986455216E+01  0.26590660139E+02 -0.82241110441E+03  0.83223460360E+03  0.12466192121E+03 0.  0.
         25    2    3    3    0    0  0.25986455216E+01 -0.26590660139E+02 -0.38947302520E+03  0.40991162880E+03  0.12499795960E+03 0.  0.
          5    1    4    4  502    0  0.44228385477E+02  0.56352382825E+02 -0.47034471562E+03  0.47579195311E+03  0.47000000000E+01 0. -1.
         -5    1    4    4    0  502 -0.46827030999E+02 -0.29761722686E+02 -0.35206638879E+03  0.35644265048E+03  0.47000000000E+01 0. -1.
          5    1    5    5  503    0  0.49421182471E+02 -0.12497917699E+02 -0.70210998721E+02  0.86892609381E+02  0.47000000000E+01 0.  1.
         -5    1    5    5    0  503 -0.46822536949E+02 -0.14092742439E+02 -0.31926202648E+03  0.32301901942E+03  0.47000000000E+01 0.  1.
<mgrwt>
<rscale>  0 0.27251444E+03</rscale>
<asrwt>0</asrwt>
<pdfrwt beam="1">  1        2 0.18877155E+00 0.27251444E+03</pdfrwt>
<pdfrwt beam="2">  1       -2 0.23278542E-02 0.27251444E+03</pdfrwt>
<totfact> 0.11895477E+04</totfact>
</mgrwt>
</event>
<event>
 9    1  0.7816570E-001  0.2780507E+03  0.7818608E-02  0.1096758E+00
          1   -1    0    0  501    0  0.00000000000E+00  0.00000000000E+00  0.13652393284E+03  0.13652393284E+03  0.00000000000E+00 0.  1.
         -1   -1    0    0    0  501 -0.00000000000E+00 -0.00000000000E+00 -0.14157264584E+03  0.14157264584E+03  0.00000000000E+00 0.  1.
         35    2    1    2    0    0  0.14210854715E-13  0.00000000000E+00 -0.50487130053E+01  0.27809657868E+03  0.27805074640E+03 0.  0.
         25    2    3    3    0    0 -0.54772449304E+02  0.19361901466E+02  0.15472200435E+02  0.13864596850E+03  0.12493362704E+03 0.  0.
         25    2    3    3    0    0  0.54772449304E+02 -0.19361901466E+02 -0.20520913440E+02  0.13945061018E+03  0.12510179999E+03 0.  0.
          5    1    4    4  502    0 -0.76616715728E+02 -0.22605730985E+02  0.34880649607E+02  0.87291980843E+02  0.47000000000E+01 0. -1.
         -5    1    4    4    0  502  0.21844266424E+02  0.41967632451E+02 -0.19408449173E+02  0.51353987659E+02  0.47000000000E+01 0. -1.
          5    1    5    5  503    0 -0.35914673168E+02 -0.19193063059E+02  0.12450910199E+02  0.42841015197E+02  0.47000000000E+01 0.  1.
         -5    1    5    5    0  503  0.90687122473E+02 -0.16883840767E+00 -0.32971823639E+02  0.96609594983E+02  0.47000000000E+01 0.  1.
<mgrwt>
<rscale>  0 0.27805075E+03</rscale>
<asrwt>0</asrwt>
<pdfrwt beam="1">  1        1 0.21003682E-01 0.27805075E+03</pdfrwt>
<pdfrwt beam="2">  1       -1 0.21780407E-01 0.27805075E+03</pdfrwt>
<totfact> 0.41746505E+03</totfact>
</mgrwt>
</event>
<event>
 9    1  0.7816570E-001  0.2691808E+03  0.7818608E-02  0.1101749E+00
         -2   -1    0    0    0  501 -0.00000000000E+00  0.00000000000E+00  0.18981745814E+03  0.18981745814E+03  0.00000000000E+00 0. -1.
          2   -1    0    0  501    0  0.00000000000E+00 -0.00000000000E+00 -0.95431563525E+02  0.95431563525E+02  0.00000000000E+00 0. -1.
         35    2    1    2    0    0  0.00000000000E+00  0.00000000000E+00  0.94385894616E+02  0.28524902167E+03  0.26918080775E+03 0.  0.
         25    2    3    3    0    0 -0.92118997810E+01  0.41932937073E+02  0.23912099931E+02  0.13558953635E+03  0.12637050105E+03 0.  0.
         25    2    3    3    0    0  0.92118997810E+01 -0.41932937073E+02  0.70473794685E+02  0.14965948532E+03  0.12485261511E+03 0.  0.
          5    1    4    4  502    0  0.26285429698E+01  0.56749260893E+02 -0.39423237505E+02  0.69308509618E+02  0.47000000000E+01 0.  1.
         -5    1    4    4    0  502 -0.11840442751E+02 -0.14816323820E+02  0.63335337436E+02  0.66281026729E+02  0.47000000000E+01 0.  1.
          5    1    5    5  503    0 -0.38537119657E+02  0.25059341115E+02  0.42097109686E+02  0.62508693895E+02  0.47000000000E+01 0.  1.
         -5    1    5    5    0  503  0.47749019438E+02 -0.66992278188E+02  0.28376684998E+02  0.87150791423E+02  0.47000000000E+01 0.  1.
<mgrwt>
<rscale>  0 0.26918081E+03</rscale>
<asrwt>0</asrwt>
<pdfrwt beam="1">  1        2 0.14681779E-01 0.26918081E+03</pdfrwt>
<pdfrwt beam="2">  1       -2 0.29202686E-01 0.26918081E+03</pdfrwt>
<totfact> 0.42659336E+03</totfact>
</mgrwt>
</event>
<event>
 9    1  0.7816570E-001  0.2725471E+03  0.7818608E-02  0.1099831E+00
          2   -1    0    0  501    0  0.00000000000E+00  0.00000000000E+00  0.73615327047E+03  0.73615327047E+03  0.00000000000E+00 0. -1.
         -2   -1    0    0    0  501 -0.00000000000E+00 -0.00000000000E+00 -0.25226374106E+02  0.25226374106E+02  0.00000000000E+00 0. -1.
         35    2    1    2    0    0  0.44408920985E-15  0.14210854715E-13  0.71092689636E+03  0.76137964458E+03  0.27254708070E+03 0.  0.
         25    2    3    3    0    0 -0.65772925086E+00  0.51584364756E+02  0.31812096172E+03  0.34579061375E+03  0.12533484341E+03 0.  0.
         25    2    3    3    0    0  0.65772925086E+00 -0.51584364756E+02  0.39280593464E+03  0.41558903083E+03  0.12552434409E+03 0.  0.
          5    1    4    4  502    0 -0.19051755535E+01 -0.31816687250E+02  0.19084593023E+03  0.19354635199E+03  0.47000000000E+01 0. -1.
         -5    1    4    4    0  502  0.12474463027E+01  0.83401052006E+02  0.12727503149E+03  0.15224426176E+03  0.47000000000E+01 0. -1.
          5    1    5    5  503    0  0.67793497269E+01  0.36433015733E+02  0.55480849387E+02  0.66884518888E+02  0.47000000000E+01 0.  1.
         -5    1    5    5    0  503 -0.61216204760E+01 -0.88017380490E+02  0.33732508525E+03  0.34870451194E+03  0.47000000000E+01 0.  1.
<mgrwt>
<rscale>  0 0.27254708E+03</rscale>
<asrwt>0</asrwt>
<pdfrwt beam="1">  1        2 0.11325433E+00 0.27254708E+03</pdfrwt>
<pdfrwt beam="2">  1       -2 0.38809812E-02 0.27254708E+03</pdfrwt>
<totfact> 0.11289483E+04</totfact>
</mgrwt>
</event>
<event>
 9    1  0.7816570E-001  0.2729707E+03  0.7818608E-02  0.1099591E+00
          1   -1    0    0  501    0  0.00000000000E+00  0.00000000000E+00  0.94257379232E+02  0.94257379232E+02  0.00000000000E+00 0. -1.
         -1   -1    0    0    0  501 -0.00000000000E+00 -0.00000000000E+00 -0.19763180749E+03  0.19763180749E+03  0.00000000000E+00 0. -1.
         35    2    1    2    0    0  0.35527136788E-14  0.00000000000E+00 -0.10337442825E+03  0.29188918672E+03  0.27297074002E+03 0.  0.
         25    2    3    3    0    0 -0.88208998777E+01 -0.12390649873E+02  0.56475823661E+01  0.12545587681E+03  0.12440235271E+03 0.  0.
         25    2    3    3    0    0  0.88208998777E+01  0.12390649873E+02 -0.10902201062E+03  0.16643330991E+03  0.12483153195E+03 0.  0.
          5    1    4    4  502    0  0.55125904392E+01  0.41997054365E+02  0.40770865996E+02  0.58978765186E+02  0.47000000000E+01 0.  1.
         -5    1    4    4    0  502 -0.14333490317E+02 -0.54387704238E+02 -0.35123283630E+02  0.66477111624E+02  0.47000000000E+01 0.  1.
          5    1    5    5  503    0 -0.40909539885E+02 -0.22545179814E+02 -0.68280649036E+01  0.47440363160E+02  0.47000000000E+01 0.  1.
         -5    1    5    5    0  503  0.49730439762E+02  0.34935829687E+02 -0.10219394572E+03  0.11899294675E+03  0.47000000000E+01 0.  1.
<mgrwt>
<rscale>  0 0.27297074E+03</rscale>
<asrwt>0</asrwt>
<pdfrwt beam="1">  1        1 0.14501135E-01 0.27297074E+03</pdfrwt>
<pdfrwt beam="2">  1       -1 0.30404893E-01 0.27297074E+03</pdfrwt>
<totfact> 0.38688300E+03</totfact>
</mgrwt>
</event>
<event>
 9    1  0.7816570E-001  0.2737729E+03  0.7818608E-02  0.1099139E+00
         -1   -1    0    0    0  501 -0.00000000000E+00  0.00000000000E+00  0.32787587451E+02  0.32787587451E+02  0.00000000000E+00 0. -1.
          1   -1    0    0  501    0  0.00000000000E+00 -0.00000000000E+00 -0.57149379757E+03  0.57149379757E+03  0.00000000000E+00 0. -1.
         35    2    1    2    0    0 -0.53290705182E-14  0.71054273576E-14 -0.53870621012E+03  0.60428138502E+03  0.27377291952E+03 0.  0.
         25    2    3    3    0    0 -0.13241275843E+02  0.28539872469E+02 -0.16762382084E+03  0.21127316310E+03  0.12469462068E+03 0.  0.
         25    2    3    3    0    0  0.13241275843E+02 -0.28539872469E+02 -0.37108238928E+03  0.39300822192E+03  0.12555264696E+03 0.  0.
          5    1    4    4  502    0 -0.23537958345E+02 -0.46381049159E+02 -0.58455170322E+02  0.78385803188E+02  0.47000000000E+01 0. -1.
         -5    1    4    4    0  502  0.10296682502E+02  0.74920921627E+02 -0.10916865051E+03  0.13288735991E+03  0.47000000000E+01 0. -1.
          5    1    5    5  503    0  0.62541290782E+02 -0.16313764711E+02 -0.29047654627E+03  0.29761765053E+03  0.47000000000E+01 0.  1.
         -5    1    5    5    0  503 -0.49300014939E+02 -0.12226107757E+02 -0.80605843010E+02  0.95390571396E+02  0.47000000000E+01 0.  1.
<mgrwt>
<rscale>  0 0.27377292E+03</rscale>
<asrwt>0</asrwt>
<pdfrwt beam="1">  1        1 0.87922124E-01 0.27377292E+03</pdfrwt>
<pdfrwt beam="2">  1       -1 0.50442442E-02 0.27377292E+03</pdfrwt>
<totfact> 0.65096911E+03</totfact>
</mgrwt>
</event>
<event>
 9    1  0.7816570E-001  0.2749044E+03  0.7818608E-02  0.1098505E+00
         -1   -1    0    0    0  501 -0.00000000000E+00  0.00000000000E+00  0.61592182383E+03  0.61592182383E+03  0.00000000000E+00 0. -1.
          1   -1    0    0  501    0  0.00000000000E+00 -0.00000000000E+00 -0.30674512909E+02  0.30674512909E+02  0.00000000000E+00 0. -1.
         35    2    1    2    0    0  0.00000000000E+00  0.00000000000E+00  0.58524731092E+03  0.64659633674E+03  0.27490436109E+03 0.  0.
         25    2    3    3    0    0 -0.51413415253E+02 -0.78952737101E+01  0.35006021648E+03  0.37525310975E+03  0.12476805117E+03 0.  0.
         25    2    3    3    0    0  0.51413415253E+02  0.78952737101E+01  0.23518709444E+03  0.27134322700E+03  0.12493399390E+03 0.  0.
          5    1    4    4  502    0 -0.52210689695E+02  0.16675228512E+02  0.50580960368E+02  0.74729799385E+02  0.47000000000E+01 0.  1.
         -5    1    4    4    0  502  0.79727444146E+00 -0.24570502222E+02  0.29947925612E+03  0.30052331036E+03  0.47000000000E+01 0.  1.
          5    1    5    5  503    0  0.64799128287E+02  0.44992284268E+02  0.85292962929E+02  0.11627644730E+03  0.47000000000E+01 0. -1.
         -5    1    5    5    0  503 -0.13385713034E+02 -0.37097010558E+02  0.14989413151E+03  0.15506677970E+03  0.47000000000E+01 0. -1.
<mgrwt>
<rscale>  0 0.27490436E+03</rscale>
<asrwt>0</asrwt>
<pdfrwt beam="1">  1        1 0.47191563E-02 0.27490436E+03</pdfrwt>
<pdfrwt beam="2">  1       -1 0.94757195E-01 0.27490436E+03</pdfrwt>
<totfact> 0.20466088E+03</totfact>
</mgrwt>
</event>
<event>
 9    1  0.7816570E-001  0.2742642E+03  0.7818608E-02  0.1098864E+00
         -2   -1    0    0    0  501 -0.00000000000E+00  0.00000000000E+00  0.85300775338E+02  0.85300775338E+02  0.00000000000E+00 0. -1.
          2   -1    0    0  501    0  0.00000000000E+00 -0.00000000000E+00 -0.22045763190E+03  0.22045763190E+03  0.00000000000E+00 0. -1.
         35    2    1    2    0    0 -0.35527136788E-14 -0.35527136788E-14 -0.13515685656E+03  0.30575840724E+03  0.27426415683E+03 0.  0.
         25    2    3    3    0    0  0.79571577627E+01  0.23441838654E+01 -0.67087379580E+01  0.12623409202E+03  0.12578246009E+03 0.  0.
         25    2    3    3    0    0 -0.79571577627E+01 -0.23441838654E+01 -0.12844811860E+03  0.17952431522E+03  0.12514491210E+03 0.  0.
          5    1    4    4  502    0  0.33142640355E+02 -0.53355434501E+02 -0.13906418569E+02  0.64503608255E+02  0.47000000000E+01 0.  1.
         -5    1    4    4    0  502 -0.25185482592E+02  0.55699618366E+02  0.71976806106E+01  0.61730483764E+02  0.47000000000E+01 0.  1.
          5    1    5    5  503    0 -0.61005344342E+02  0.16243221795E+02 -0.94325850481E+02  0.11359995758E+03  0.47000000000E+01 0.  1.
         -5    1    5    5    0  503  0.53048186579E+02 -0.18587405661E+02 -0.34122268121E+02  0.65924357640E+02  0.47000000000E+01 0.  1.
<mgrwt>
<rscale>  0 0.27426416E+03</rscale>
<asrwt>0</asrwt>
<pdfrwt beam="1">  1        2 0.33916558E-01 0.27426416E+03</pdfrwt>
<pdfrwt beam="2">  1       -2 0.13123196E-01 0.27426416E+03</pdfrwt>
<totfact> 0.64884024E+03</totfact>
</mgrwt>
</event>
<event>
 9    1  0.7816570E-001  0.3018773E+03  0.7818608E-02  0.1084306E+00
         -2   -1    0    0    0  501 -0.00000000000E+00  0.00000000000E+00  0.34318004764E+02  0.34318004764E+02  0.00000000000E+00 0. -1.
          2   -1    0    0  501    0  0.00000000000E+00 -0.00000000000E+00 -0.66386369392E+03  0.66386369392E+03  0.00000000000E+00 0. -1.
         35    2    1    2    0    0  0.71054273576E-14  0.71054273576E-14 -0.62954568915E+03  0.69818169868E+03  0.30187730892E+03 0.  0.
         25    2    3    3    0    0 -0.50890793052E+02 -0.32792404255E+02 -0.43733113239E+03  0.46098965308E+03  0.13261872529E+03 0.  0.
         25    2    3    3    0    0  0.50890793052E+02  0.32792404255E+02 -0.19221455677E+03  0.23719204560E+03  0.12509362921E+03 0.  0.
          5    1    4    4  502    0  0.21330764207E+02 -0.41863588753E+02 -0.31533704379E+03  0.31885279166E+03  0.47000000000E+01 0. -1.
         -5    1    4    4    0  502 -0.72221557259E+02  0.90711844981E+01 -0.12199408860E+03  0.14213686142E+03  0.47000000000E+01 0. -1.
          5    1    5    5  503    0  0.84918212243E+02  0.13341614884E+02 -0.77349199484E+02  0.11573283941E+03  0.47000000000E+01 0.  1.
         -5    1    5    5    0  503 -0.34027419191E+02  0.19450789371E+02 -0.11486535728E+03  0.12145920619E+03  0.47000000000E+01 0.  1.
<mgrwt>
<rscale>  0 0.30187731E+03</rscale>
<asrwt>0</asrwt>
<pdfrwt beam="1">  1        2 0.10213286E+00 0.30187731E+03</pdfrwt>
<pdfrwt beam="2">  1       -2 0.52796940E-02 0.30187731E+03</pdfrwt>
<totfact> 0.80583543E+03</totfact>
</mgrwt>
</event>
<event>
 9    1  0.7816570E-001  0.2727357E+03  0.7818608E-02  0.1099724E+00
         -2   -1    0    0    0  501 -0.00000000000E+00  0.00000000000E+00  0.97412041676E+01  0.97412041676E+01  0.00000000000E+00 0.  1.
          2   -1    0    0  501    0  0.00000000000E+00 -0.00000000000E+00 -0.19090232975E+04  0.19090232975E+04  0.00000000000E+00 0.  1.
         35    2    1    2    0    0  0.00000000000E+00  0.00000000000E+00 -0.18992820934E+04  0.19187645017E+04  0.27273566472E+03 0.  0.
         25    2    3    3    0    0  0.73800419058E+01 -0.27898044065E+02 -0.78827677278E+03  0.79863852905E+03  0.12494184124E+03 0.  0.
         25    2    3    3    0    0 -0.73800419058E+01  0.27898044065E+02 -0.11110053206E+04  0.11201259727E+04  0.13970184811E+03 0.  0.
          5    1    4    4  502    0 -0.51530037229E+02 -0.10754669069E+02 -0.55041462737E+03  0.55294607302E+03  0.47000000000E+01 0.  1.
         -5    1    4    4    0  502  0.58910079135E+02 -0.17143374996E+02 -0.23786214541E+03  0.24569245603E+03  0.47000000000E+01 0.  1.
          5    1    5    5  503    0 -0.40667227721E+02  0.29421905979E+02 -0.14462473932E+03  0.15315964608E+03  0.47000000000E+01 0. -1.
         -5    1    5    5    0  503  0.33287185816E+02 -0.15238619141E+01 -0.96638058127E+03  0.96696632658E+03  0.47000000000E+01 0. -1.
<mgrwt>
<rscale>  0 0.27273566E+03</rscale>
<asrwt>0</asrwt>
<pdfrwt beam="1">  1        2 0.29369625E+00 0.27273566E+03</pdfrwt>
<pdfrwt beam="2">  1       -2 0.14986450E-02 0.27273566E+03</pdfrwt>
<totfact> 0.97976396E+03</totfact>
</mgrwt>
</event>
<event>
 9    1  0.7816570E-001  0.2792726E+03  0.7818608E-02  0.1096087E+00
          3   -1    0    0  501    0  0.00000000000E+00  0.00000000000E+00  0.28049646759E+02  0.28049646759E+02  0.00000000000E+00 0.  1.
         -3   -1    0    0    0  501 -0.00000000000E+00 -0.00000000000E+00 -0.69513522354E+03  0.69513522354E+03  0.00000000000E+00 0.  1.
         35    2    1    2    0    0  0.35527136788E-14  0.71054273576E-14 -0.66708557679E+03  0.72318487030E+03  0.27927260854E+03 0.  0.
         25    2    3    3    0    0  0.11664261219E+02  0.61931032222E+02 -0.34954548243E+03  0.37596983781E+03  0.12328733475E+03 0.  0.
         25    2    3    3    0    0 -0.11664261219E+02 -0.61931032222E+02 -0.31754009435E+03  0.34721503249E+03  0.12551916000E+03 0.  0.
          5    1    4    4  502    0  0.54294689372E+02  0.30755794446E+02 -0.28806549988E+03  0.29478408099E+03  0.47000000000E+01 0. -1.
         -5    1    4    4    0  502 -0.42630428153E+02  0.31175237776E+02 -0.61479982551E+02  0.81185756814E+02  0.47000000000E+01 0. -1.
          5    1    5    5  503    0  0.19068077926E+02 -0.76374802414E+02 -0.10181494634E+03  0.12878305532E+03  0.47000000000E+01 0. -1.
         -5    1    5    5    0  503 -0.30732339145E+02  0.14443770192E+02 -0.21572514801E+03  0.21843197717E+03  0.47000000000E+01 0. -1.
<mgrwt>
<rscale>  0 0.27927261E+03</rscale>
<asrwt>0</asrwt>
<pdfrwt beam="1">  1        3 0.43153308E-02 0.27927261E+03</pdfrwt>
<pdfrwt beam="2">  1       -3 0.10694387E+00 0.27927261E+03</pdfrwt>
<totfact> 0.56704137E+02</totfact>
</mgrwt>
</event>
<event>
 9    1  0.7816570E-001  0.2756741E+03  0.7818608E-02  0.1098075E+00
         -2   -1    0    0    0  501 -0.00000000000E+00  0.00000000000E+00  0.74549148953E+03  0.74549148953E+03  0.00000000000E+00 0. -1.
          2   -1    0    0  501    0  0.00000000000E+00 -0.00000000000E+00 -0.25485271517E+02  0.25485271517E+02  0.00000000000E+00 0. -1.
         35    2    1    2    0    0  0.35527136788E-14  0.35527136788E-14  0.72000621802E+03  0.77097676105E+03  0.27567410487E+03 0.  0.
         25    2    3    3    0    0  0.69597416786E+01  0.29607899042E+02  0.22557625063E+03  0.25991714393E+03  0.12548789253E+03 0.  0.
         25    2    3    3    0    0 -0.69597416786E+01 -0.29607899042E+02  0.49442996739E+03  0.51105961712E+03  0.12568163713E+03 0.  0.
          5    1    4    4  502    0  0.37938592919E+02  0.33097428428E+02  0.24146357529E+02  0.56034928242E+02  0.47000000000E+01 0. -1.
         -5    1    4    4    0  502 -0.30978851240E+02 -0.34895293867E+01  0.20142989310E+03  0.20388221569E+03  0.47000000000E+01 0. -1.
          5    1    5    5  503    0  0.41488431778E+02 -0.48170643168E+02  0.15409251341E+03  0.16675818878E+03  0.47000000000E+01 0. -1.
         -5    1    5    5    0  503 -0.48448173457E+02  0.18562744126E+02  0.34033745398E+03  0.34430142835E+03  0.47000000000E+01 0. -1.
<mgrwt>
<rscale>  0 0.27567410E+03</rscale>
<asrwt>0</asrwt>
<pdfrwt beam="1">  1        2 0.39208116E-02 0.27567410E+03</pdfrwt>
<pdfrwt beam="2">  1       -2 0.11469098E+00 0.27567410E+03</pdfrwt>
<totfact> 0.13488268E+03</totfact>
</mgrwt>
</event>
<event>
 9    1  0.7816570E-001  0.2776615E+03  0.7818608E-02  0.1096973E+00
          1   -1    0    0  501    0  0.00000000000E+00  0.00000000000E+00  0.95549291347E+03  0.95549291347E+03  0.00000000000E+00 0. -1.
         -1   -1    0    0    0  501 -0.00000000000E+00 -0.00000000000E+00 -0.20171761506E+02  0.20171761506E+02  0.00000000000E+00 0. -1.
         35    2    1    2    0    0  0.00000000000E+00  0.00000000000E+00  0.93532115196E+03  0.97566467497E+03  0.27766148578E+03 0.  0.
         25    2    3    3    0    0 -0.34663174184E+02 -0.91183003468E+01  0.64109671279E+03  0.65438199066E+03  0.12619871435E+03 0.  0.
         25    2    3    3    0    0  0.34663174184E+02  0.91183003468E+01  0.29422443917E+03  0.32128268431E+03  0.12397525394E+03 0.  0.
          5    1    4    4  502    0  0.41785980929E+02 -0.85709598001E+00  0.37520702635E+03  0.37755689033E+03  0.47000000000E+01 0. -1.
         -5    1    4    4    0  502 -0.76449155113E+02 -0.82612043667E+01  0.26588968645E+03  0.27682510033E+03  0.47000000000E+01 0. -1.
          5    1    5    5  503    0  0.78763399003E+02  0.14968999188E+02  0.14822609294E+03  0.16858472228E+03  0.47000000000E+01 0. -1.
         -5    1    5    5    0  503 -0.44100224819E+02 -0.58506988411E+01  0.14599834623E+03  0.15269796203E+03  0.47000000000E+01 0. -1.
<mgrwt>
<rscale>  0 0.27766149E+03</rscale>
<asrwt>0</asrwt>
<pdfrwt beam="1">  1        1 0.14699887E+00 0.27766149E+03</pdfrwt>
<pdfrwt beam="2">  1       -1 0.31033487E-02 0.27766149E+03</pdfrwt>
<totfact> 0.61979085E+03</totfact>
</mgrwt>
</event>
<event>
 9    1  0.7816570E-001  0.2709849E+03  0.7818608E-02  0.1100717E+00
          3   -1    0    0  501    0  0.00000000000E+00  0.00000000000E+00  0.47605557330E+02  0.47605557330E+02  0.00000000000E+00 0. -1.
         -3   -1    0    0    0  501 -0.00000000000E+00 -0.00000000000E+00 -0.38563140272E+03  0.38563140272E+03  0.00000000000E+00 0. -1.
         35    2    1    2    0    0  0.00000000000E+00  0.35527136788E-14 -0.33802584539E+03  0.43323696005E+03  0.27098485456E+03 0.  0.
         25    2    3    3    0    0 -0.31619088985E+02  0.18244073302E+02 -0.21053146452E+03  0.24798783564E+03  0.12586443531E+03 0.  0.
         25    2    3    3    0    0  0.31619088985E+02 -0.18244073302E+02 -0.12749438088E+03  0.18524912441E+03  0.12934375880E+03 0.  0.
          5    1    4    4  502    0 -0.21418777995E+02 -0.10635938754E+01  0.11535551419E+02  0.24800286879E+02  0.47000000000E+01 0.  1.
         -5    1    4    4    0  502 -0.10200310990E+02  0.19307667177E+02 -0.22206701593E+03  0.22318754876E+03  0.47000000000E+01 0.  1.
          5    1    5    5  503    0 -0.15375396499E+02  0.46024014514E+02 -0.23298147637E+02  0.54032457030E+02  0.47000000000E+01 0. -1.
         -5    1    5    5    0  503  0.46994485484E+02 -0.64268087815E+02 -0.10419623324E+03  0.13121666738E+03  0.47000000000E+01 0. -1.
<mgrwt>
<rscale>  0 0.27098485E+03</rscale>
<asrwt>0</asrwt>
<pdfrwt beam="1">  1        3 0.73239323E-02 0.27098485E+03</pdfrwt>
<pdfrwt beam="2">  1       -3 0.59327905E-01 0.27098485E+03</pdfrwt>
<totfact> 0.88120488E+02</totfact>
</mgrwt>
</event>
<event>
 9    1  0.7816570E-001  0.2714817E+03  0.7818608E-02  0.1100435E+00
         -2   -1    0    0    0  501 -0.00000000000E+00  0.00000000000E+00  0.39831674153E+02  0.39831674153E+02  0.00000000000E+00 0. -1.
          2   -1    0    0  501    0  0.00000000000E+00 -0.00000000000E+00 -0.46258598674E+03  0.46258598674E+03  0.00000000000E+00 0. -1.
         35    2    1    2    0    0  0.14210854715E-13  0.35527136788E-14 -0.42275431259E+03  0.50241766090E+03  0.27148167004E+03 0.  0.
         25    2    3    3    0    0 -0.44170492627E+02  0.27614205368E+02 -0.23784803786E+03  0.27348010552E+03  0.12452350077E+03 0.  0.
         25    2    3    3    0    0  0.44170492627E+02 -0.27614205368E+02 -0.18490627473E+03  0.22893755538E+03  0.12453311636E+03 0.  0.
          5    1    4    4  502    0 -0.56630744289E+02  0.49646723937E+02 -0.23588555662E+03  0.24766090571E+03  0.47000000000E+01 0.  1.
         -5    1    4    4    0  502  0.12460251662E+02 -0.22032518569E+02 -0.19624812396E+01  0.25819199805E+02  0.47000000000E+01 0.  1.
          5    1    5    5  503    0 -0.12809732469E+02  0.69333091335E+01 -0.15498961150E+03  0.15574347400E+03  0.47000000000E+01 0. -1.
         -5    1    5    5    0  503  0.56980225096E+02 -0.34547514501E+02 -0.29916663237E+02  0.73194081383E+02  0.47000000000E+01 0. -1.
<mgrwt>
<rscale>  0 0.27148167E+03</rscale>
<asrwt>0</asrwt>
<pdfrwt beam="1">  1        2 0.71167077E-01 0.27148167E+03</pdfrwt>
<pdfrwt beam="2">  1       -2 0.61279497E-02 0.27148167E+03</pdfrwt>
<totfact> 0.96673150E+03</totfact>
</mgrwt>
</event>
<event>
 9    1  0.7816570E-001  0.2705226E+03  0.7818608E-02  0.1100981E+00
         -2   -1    0    0    0  501 -0.00000000000E+00  0.00000000000E+00  0.40008858823E+03  0.40008858823E+03  0.00000000000E+00 0. -1.
          2   -1    0    0  501    0  0.00000000000E+00 -0.00000000000E+00 -0.45728908691E+02  0.45728908691E+02  0.00000000000E+00 0. -1.
         35    2    1    2    0    0 -0.71054273576E-14  0.35527136788E-14  0.35435967954E+03  0.44581749692E+03  0.27052256482E+03 0.  0.
         25    2    3    3    0    0 -0.45776588915E+02  0.23748054739E+02  0.18404996140E+03  0.22796797364E+03  0.12423985881E+03 0.  0.
         25    2    3    3    0    0  0.45776588915E+02 -0.23748054739E+02  0.17030971814E+03  0.21784952329E+03  0.12567238561E+03 0.  0.
          5    1    4    4  502    0  0.42221021985E+02  0.18179187134E+02  0.61862112874E+02  0.77214691293E+02  0.47000000000E+01 0.  1.
         -5    1    4    4    0  502 -0.87997610900E+02  0.55688676042E+01  0.12218784852E+03  0.15075328234E+03  0.47000000000E+01 0.  1.
          5    1    5    5  503    0  0.25649143828E+02 -0.65542176249E+02  0.15234421430E+03  0.16788241443E+03  0.47000000000E+01 0. -1.
         -5    1    5    5    0  503  0.20127445087E+02  0.41794121511E+02  0.17965503849E+02  0.49967108853E+02  0.47000000000E+01 0. -1.
<mgrwt>
<rscale>  0 0.27052256E+03</rscale>
<asrwt>0</asrwt>
<pdfrwt beam="1">  1        2 0.70352170E-02 0.27052256E+03</pdfrwt>
<pdfrwt beam="2">  1       -2 0.61552088E-01 0.27052256E+03</pdfrwt>
<totfact> 0.25070143E+03</totfact>
</mgrwt>
</event>
<event>
 9    1  0.7816570E-001  0.2752237E+03  0.7818608E-02  0.1098327E+00
          1   -1    0    0  501    0  0.00000000000E+00  0.00000000000E+00  0.11145853168E+04  0.11145853168E+04  0.00000000000E+00 0. -1.
         -1   -1    0    0    0  501 -0.00000000000E+00 -0.00000000000E+00 -0.16990191313E+02  0.16990191313E+02  0.00000000000E+00 0. -1.
         35    2    1    2    0    0  0.71054273576E-14  0.00000000000E+00  0.10975951255E+04  0.11315755081E+04  0.27522367461E+03 0.  0.
         25    2    3    3    0    0  0.36323761294E+02  0.36670454168E+02  0.45870089696E+03  0.47824703618E+03  0.12509826898E+03 0.  0.
         25    2    3    3    0    0 -0.36323761294E+02 -0.36670454168E+02  0.63889422851E+03  0.65332847191E+03  0.12644413448E+03 0.  0.
          5    1    4    4  502    0 -0.37511403842E+02  0.79281533162E+00  0.58288087132E+02  0.69478954194E+02  0.47000000000E+01 0. -1.
         -5    1    4    4    0  502  0.73835165136E+02  0.35877638837E+02  0.40041280983E+03  0.40876808199E+03  0.47000000000E+01 0. -1.
          5    1    5    5  503    0 -0.57816384964E+02  0.20295296024E+02  0.17594194260E+03  0.18636601239E+03  0.47000000000E+01 0.  1.
         -5    1    5    5    0  503  0.21492623670E+02 -0.56965750192E+02  0.46295228591E+03  0.46696245951E+03  0.47000000000E+01 0.  1.
<mgrwt>
<rscale>  0 0.27522367E+03</rscale>
<asrwt>0</asrwt>
<pdfrwt beam="1">  1        1 0.17147461E+00 0.27522367E+03</pdfrwt>
<pdfrwt beam="2">  1       -1 0.26138765E-02 0.27522367E+03</pdfrwt>
<totfact> 0.60879607E+03</totfact>
</mgrwt>
</event>
<event>
 9    1  0.7816570E-001  0.2746897E+03  0.7818608E-02  0.1098625E+00
          2   -1    0    0  501    0  0.00000000000E+00  0.00000000000E+00  0.43902594473E+03  0.43902594473E+03  0.00000000000E+00 0. -1.
         -2   -1    0    0    0  501 -0.00000000000E+00 -0.00000000000E+00 -0.42966961901E+02  0.42966961901E+02  0.00000000000E+00 0. -1.
         35    2    1    2    0    0  0.35527136788E-14 -0.71054273576E-14  0.39605898283E+03  0.48199290663E+03  0.27468972344E+03 0.  0.
         25    2    3    3    0    0 -0.29841189410E+02 -0.45641262158E+02  0.16826811251E+03  0.21684962620E+03  0.12544313969E+03 0.  0.
         25    2    3    3    0    0  0.29841189410E+02  0.45641262158E+02  0.22779087031E+03  0.26514328043E+03  0.12425239299E+03 0.  0.
          5    1    4    4  502    0 -0.78774750597E+02 -0.24924646712E+02  0.91589978661E+02  0.12344032379E+03  0.47000000000E+01 0.  1.
         -5    1    4    4    0  502  0.48933561187E+02 -0.20716615446E+02  0.76678133853E+02  0.93409302413E+02  0.47000000000E+01 0.  1.
          5    1    5    5  503    0  0.28009920198E+02  0.87644145036E+02  0.17207026060E+03  0.19518277683E+03  0.47000000000E+01 0. -1.
         -5    1    5    5    0  503  0.18312692116E+01 -0.42002882878E+02  0.55720609713E+02  0.69960503599E+02  0.47000000000E+01 0. -1.
<mgrwt>
<rscale>  0 0.27468972E+03</rscale>
<asrwt>0</asrwt>
<pdfrwt beam="1">  1        2 0.67542450E-01 0.27468972E+03</pdfrwt>
<pdfrwt beam="2">  1       -2 0.66103021E-02 0.27468972E+03</pdfrwt>
<totfact> 0.91168883E+03</totfact>
</mgrwt>
</event>
<event>
 9    1  0.7816570E-001  0.2696661E+03  0.7818608E-02  0.1101471E+00
          2   -1    0    0  501    0  0.00000000000E+00  0.00000000000E+00  0.44944639168E+03  0.44944639168E+03  0.00000000000E+00 0.  1.
         -2   -1    0    0    0  501 -0.00000000000E+00 -0.00000000000E+00 -0.40449659897E+02  0.40449659897E+02  0.00000000000E+00 0.  1.
         35    2    1    2    0    0  0.00000000000E+00 -0.71054273576E-14  0.40899673179E+03  0.48989605158E+03  0.26966611716E+03 0.  0.
         25    2    3    3    0    0 -0.60299482844E+01 -0.17108562001E+02  0.15710978876E+03  0.20169091294E+03  0.12516659087E+03 0.  0.
         25    2    3    3    0    0  0.60299482844E+01  0.17108562001E+02  0.25188694303E+03  0.28820513864E+03  0.13887442781E+03 0.  0.
          5    1    4    4  502    0  0.22801081247E+02 -0.57504132758E+02  0.13204720566E+03  0.14589437656E+03  0.47000000000E+01 0.  1.
         -5    1    4    4    0  502 -0.28831029532E+02  0.40395570757E+02  0.25062583105E+02  0.55796536385E+02  0.47000000000E+01 0.  1.
          5    1    5    5  503    0 -0.11774383005E+02  0.38560252788E+02  0.63960289588E+01  0.41091706909E+02  0.47000000000E+01 0. -1.
         -5    1    5    5    0  503  0.17804331290E+02 -0.21451690787E+02  0.24549091407E+03  0.24711343173E+03  0.47000000000E+01 0. -1.
<mgrwt>
<rscale>  0 0.26966612E+03</rscale>
<asrwt>0</asrwt>
<pdfrwt beam="1">  1        2 0.69145595E-01 0.26966612E+03</pdfrwt>
<pdfrwt beam="2">  1       -2 0.62230249E-02 0.26966612E+03</pdfrwt>
<totfact> 0.97434852E+03</totfact>
</mgrwt>
</event>
<event>
 9    1  0.7816570E-001  0.2743239E+03  0.7818608E-02  0.1098830E+00
          2   -1    0    0  501    0  0.00000000000E+00  0.00000000000E+00  0.26316706649E+04  0.26316706649E+04  0.00000000000E+00 0. -1.
         -2   -1    0    0    0  501 -0.00000000000E+00 -0.00000000000E+00 -0.71488414340E+01  0.71488414340E+01  0.00000000000E+00 0. -1.
         35    2    1    2    0    0  0.00000000000E+00  0.00000000000E+00  0.26245218235E+04  0.26388195063E+04  0.27432386910E+03 0.  0.
         25    2    3    3    0    0  0.33345277151E+02  0.21498637505E+02  0.89616172916E+03  0.90559132504E+03  0.12415999456E+03 0.  0.
         25    2    3    3    0    0 -0.33345277151E+02 -0.21498637505E+02  0.17283600943E+04  0.17332281813E+04  0.12360102721E+03 0.  0.
          5    1    4    4  502    0 -0.25275219896E+02 -0.11624277166E+02  0.55838852154E+02  0.62562192819E+02  0.47000000000E+01 0.  1.
         -5    1    4    4    0  502  0.58620497047E+02  0.33122914671E+02  0.84032287701E+03  0.84302913222E+03  0.47000000000E+01 0.  1.
          5    1    5    5  503    0 -0.62839529159E+02  0.28845539007E+02  0.78478308438E+03  0.78783719833E+03  0.47000000000E+01 0. -1.
         -5    1    5    5    0  503  0.29494252009E+02 -0.50344176512E+02  0.94357700993E+03  0.94539098296E+03  0.47000000000E+01 0. -1.
<mgrwt>
<rscale>  0 0.27432387E+03</rscale>
<asrwt>0</asrwt>
<pdfrwt beam="1">  1        2 0.40487164E+00 0.27432387E+03</pdfrwt>
<pdfrwt beam="2">  1       -2 0.10998239E-02 0.27432387E+03</pdfrwt>
<totfact> 0.62961974E+03</totfact>
</mgrwt>
</event>
<event>
 9    1  0.7816570E-001  0.2728854E+03  0.7818608E-02  0.1099639E+00
          2   -1    0    0  501    0  0.00000000000E+00  0.00000000000E+00  0.13354128104E+04  0.13354128104E+04  0.00000000000E+00 0. -1.
         -2   -1    0    0    0  501 -0.00000000000E+00 -0.00000000000E+00 -0.13940719827E+02  0.13940719827E+02  0.00000000000E+00 0. -1.
         35    2    1    2    0    0  0.00000000000E+00  0.00000000000E+00  0.13214720905E+04  0.13493535302E+04  0.27288544001E+03 0.  0.
         25    2    3    3    0    0 -0.19963077879E+00 -0.39446184453E+02  0.83238061457E+03  0.84248835340E+03  0.12398829297E+03 0.  0.
         25    2    3    3    0    0  0.19963077879E+00  0.39446184453E+02  0.48909147598E+03  0.50686517679E+03  0.12706610190E+03 0.  0.
          5    1    4    4  502    0 -0.42710787506E+02 -0.63295637723E+02  0.39215983776E+03  0.39955222122E+03  0.47000000000E+01 0. -1.
         -5    1    4    4    0  502  0.42511156727E+02  0.23849453270E+02  0.44022077680E+03  0.44293613219E+03  0.47000000000E+01 0. -1.
          5    1    5    5  503    0  0.51424208255E+02  0.29316800178E+02  0.39246654687E+03  0.39693324927E+03  0.47000000000E+01 0.  1.
         -5    1    5    5    0  503 -0.51224577477E+02  0.10129384275E+02  0.96624929110E+02  0.10993192752E+03  0.47000000000E+01 0.  1.
<mgrwt>
<rscale>  0 0.27288544E+03</rscale>
<asrwt>0</asrwt>
<pdfrwt beam="1">  1        2 0.20544802E+00 0.27288544E+03</pdfrwt>
<pdfrwt beam="2">  1       -2 0.21447272E-02 0.27288544E+03</pdfrwt>
<totfact> 0.11684082E+04</totfact>
</mgrwt>
</event>
<event>
 9    1  0.7816570E-001  0.2808210E+03  0.7818608E-02  0.1095241E+00
          2   -1    0    0  501    0  0.00000000000E+00  0.00000000000E+00  0.26957225728E+03  0.26957225728E+03  0.00000000000E+00 0. -1.
         -2   -1    0    0    0  501 -0.00000000000E+00 -0.00000000000E+00 -0.73134791884E+02  0.73134791884E+02  0.00000000000E+00 0. -1.
         35    2    1    2    0    0 -0.17763568394E-14 -0.71054273576E-14  0.19643746539E+03  0.34270704916E+03  0.28082101726E+03 0.  0.
         25    2    3    3    0    0  0.15273614436E+02  0.46460446388E+02  0.14616456655E+03  0.19938387599E+03  0.12648317324E+03 0.  0.
         25    2    3    3    0    0 -0.15273614436E+02 -0.46460446388E+02  0.50272898840E+02  0.14332317317E+03  0.12498924447E+03 0.  0.
          5    1    4    4  502    0  0.49139453106E+02 -0.20293207476E+02  0.30328409459E+02  0.61387315803E+02  0.47000000000E+01 0. -1.
         -5    1    4    4    0  502 -0.33865838671E+02  0.66753653864E+02  0.11583615709E+03  0.13799656019E+03  0.47000000000E+01 0. -1.
          5    1    5    5  503    0  0.90062484663E+01  0.99491756551E+01  0.75453867678E+02  0.76781994994E+02  0.47000000000E+01 0. -1.
         -5    1    5    5    0  503 -0.24279862902E+02 -0.56409622043E+02 -0.25180968838E+02  0.66541178177E+02  0.47000000000E+01 0. -1.
<mgrwt>
<rscale>  0 0.28082102E+03</rscale>
<asrwt>0</asrwt>
<pdfrwt beam="1">  1        2 0.41472654E-01 0.28082102E+03</pdfrwt>
<pdfrwt beam="2">  1       -2 0.11251507E-01 0.28082102E+03</pdfrwt>
<totfact> 0.66996871E+03</totfact>
</mgrwt>
</event>
<event>
 9    1  0.7816570E-001  0.2731990E+03  0.7818608E-02  0.1099463E+00
          2   -1    0    0  501    0  0.00000000000E+00  0.00000000000E+00  0.27893753251E+04  0.27893753251E+04  0.00000000000E+00 0.  1.
         -2   -1    0    0    0  501 -0.00000000000E+00 -0.00000000000E+00 -0.66894646979E+01  0.66894646979E+01  0.00000000000E+00 0.  1.
         35    2    1    2    0    0  0.00000000000E+00  0.00000000000E+00  0.27826858604E+04  0.27960647898E+04  0.27319903196E+03 0.  0.
         25    2    3    3    0    0  0.30712650136E+02 -0.44467317680E+02  0.11974241807E+04  0.12051265485E+04  0.12483877644E+03 0.  0.
         25    2    3    3    0    0 -0.30712650136E+02  0.44467317680E+02  0.15852616797E+04  0.15909382413E+04  0.12291983298E+03 0.  0.
          5    1    4    4  502    0  0.35930122814E+02  0.18313032576E+02  0.90713964778E+03  0.90804778039E+03  0.47000000000E+01 0. -1.
         -5    1    4    4    0  502 -0.52174726774E+01 -0.62780350255E+02  0.29028453293E+03  0.29707876810E+03  0.47000000000E+01 0. -1.
          5    1    5    5  503    0 -0.28356559723E+02  0.86526071269E+02  0.11554284479E+04  0.11590202085E+04  0.47000000000E+01 0. -1.
         -5    1    5    5    0  503 -0.23560904137E+01 -0.42058753590E+02  0.42983323179E+03  0.43191803281E+03  0.47000000000E+01 0. -1.
<mgrwt>
<rscale>  0 0.27319903E+03</rscale>
<asrwt>0</asrwt>
<pdfrwt beam="1">  1        2 0.42913374E+00 0.27319903E+03</pdfrwt>
<pdfrwt beam="2">  1       -2 0.10291506E-02 0.27319903E+03</pdfrwt>
<totfact> 0.56501799E+03</totfact>
</mgrwt>
</event>
<event>
 9    1  0.7816570E-001  0.2788078E+03  0.7818608E-02  0.1096342E+00
          2   -1    0    0  501    0  0.00000000000E+00  0.00000000000E+00  0.18199810442E+04  0.18199810442E+04  0.00000000000E+00 0. -1.
         -2   -1    0    0    0  501 -0.00000000000E+00 -0.00000000000E+00 -0.10677832655E+02  0.10677832655E+02  0.00000000000E+00 0. -1.
         35    2    1    2    0    0  0.00000000000E+00  0.35527136788E-14  0.18093032115E+04  0.18306588768E+04  0.27880784081E+03 0.  0.
         25    2    3    3    0    0  0.52674280392E+02  0.20668604860E+02  0.11051424886E+04  0.11136423742E+04  0.12513051713E+03 0.  0.
         25    2    3    3    0    0 -0.52674280392E+02 -0.20668604860E+02  0.70416072285E+03  0.71701650263E+03  0.12275410539E+03 0.  0.
          5    1    4    4  502    0  0.47268908220E+01 -0.20666334934E+02  0.86435887230E+03  0.86463159265E+03  0.47000000000E+01 0.  1.
         -5    1    4    4    0  502  0.47947389570E+02  0.41334939794E+02  0.24078361635E+03  0.24901078153E+03  0.47000000000E+01 0.  1.
          5    1    5    5  503    0 -0.31870003956E+02 -0.35219184311E+02  0.86326325787E+02  0.98642853870E+02  0.47000000000E+01 0. -1.
         -5    1    5    5    0  503 -0.20804276437E+02  0.14550579451E+02  0.61783439706E+03  0.61837364876E+03  0.47000000000E+01 0. -1.
<mgrwt>
<rscale>  0 0.27880784E+03</rscale>
<asrwt>0</asrwt>
<pdfrwt beam="1">  1        2 0.27999684E+00 0.27880784E+03</pdfrwt>
<pdfrwt beam="2">  1       -2 0.16427449E-02 0.27880784E+03</pdfrwt>
<totfact> 0.95412383E+03</totfact>
</mgrwt>
</event>
<event>
 9    1  0.7816570E-001  0.2753839E+03  0.7818608E-02  0.1098237E+00
          2   -1    0    0  501    0  0.00000000000E+00  0.00000000000E+00  0.66089554044E+03  0.66089554044E+03  0.00000000000E+00 0. -1.
         -2   -1    0    0    0  501 -0.00000000000E+00 -0.00000000000E+00 -0.28686941218E+02  0.28686941218E+02  0.00000000000E+00 0. -1.
         35    2    1    2    0    0  0.71054273576E-14  0.35527136788E-14  0.63220859922E+03  0.68958248166E+03  0.27538388856E+03 0.  0.
         25    2    3    3    0    0  0.45342308643E+02  0.19596034604E+02  0.40051631917E+03  0.42232078957E+03  0.12450541296E+03 0.  0.
         25    2    3    3    0    0 -0.45342308643E+02 -0.19596034604E+02  0.23169228005E+03  0.26726169209E+03  0.12372376448E+03 0.  0.
          5    1    4    4  502    0  0.54850444269E+02 -0.42173063214E+02  0.24571505391E+03  0.25531376033E+03  0.47000000000E+01 0.  1.
         -5    1    4    4    0  502 -0.95081356258E+01  0.61769097819E+02  0.15480126527E+03  0.16700702924E+03  0.47000000000E+01 0.  1.
          5    1    5    5  503    0  0.24507596291E+01  0.31440971988E+02  0.80336226744E+01  0.32881150156E+02  0.47000000000E+01 0. -1.
         -5    1    5    5    0  503 -0.47793068272E+02 -0.51037006593E+02  0.22365865737E+03  0.23438054193E+03  0.47000000000E+01 0. -1.
<mgrwt>
<rscale>  0 0.27538389E+03</rscale>
<asrwt>0</asrwt>
<pdfrwt beam="1">  1        2 0.10167623E+00 0.27538389E+03</pdfrwt>
<pdfrwt beam="2">  1       -2 0.44133761E-02 0.27538389E+03</pdfrwt>
<totfact> 0.10605301E+04</totfact>
</mgrwt>
</event>
<event>
 9    1  0.7816570E-001  0.2799851E+03  0.7818608E-02  0.1095697E+00
         -2   -1    0    0    0  501 -0.00000000000E+00  0.00000000000E+00  0.48056828092E+02  0.48056828092E+02  0.00000000000E+00 0. -1.
          2   -1    0    0  501    0  0.00000000000E+00 -0.00000000000E+00 -0.40780705248E+03  0.40780705248E+03  0.00000000000E+00 0. -1.
         35    2    1    2    0    0 -0.71054273576E-14  0.00000000000E+00 -0.35975022439E+03  0.45586388057E+03  0.27998509543E+03 0.  0.
         25    2    3    3    0    0  0.61327220755E+02 -0.12647257455E+02 -0.18555426716E+03  0.23237879203E+03  0.12509410776E+03 0.  0.
         25    2    3    3    0    0 -0.61327220755E+02  0.12647257455E+02 -0.17419595723E+03  0.22348508855E+03  0.12522129276E+03 0.  0.
          5    1    4    4  502    0  0.12782873148E+02  0.51682194549E+01  0.17512308032E+02  0.22779009435E+02  0.47000000000E+01 0.  1.
         -5    1    4    4    0  502  0.48544347607E+02 -0.17815476910E+02 -0.20306657519E+03  0.20959978259E+03  0.47000000000E+01 0.  1.
          5    1    5    5  503    0 -0.23701040391E+02  0.90787618106E+01 -0.18265589989E+03  0.18447067788E+03  0.47000000000E+01 0. -1.
         -5    1    5    5    0  503 -0.37626180364E+02  0.35684956442E+01  0.84599426625E+01  0.39014410669E+02  0.47000000000E+01 0. -1.
<mgrwt>
<rscale>  0 0.27998510E+03</rscale>
<asrwt>0</asrwt>
<pdfrwt beam="1">  1        2 0.62739546E-01 0.27998510E+03</pdfrwt>
<pdfrwt beam="2">  1       -2 0.73933582E-02 0.27998510E+03</pdfrwt>
<totfact> 0.83154707E+03</totfact>
</mgrwt>
</event>
<event>
 9    1  0.7816570E-001  0.2786100E+03  0.7818608E-02  0.1096451E+00
          2   -1    0    0  501    0  0.00000000000E+00  0.00000000000E+00  0.21590555360E+04  0.21590555360E+04  0.00000000000E+00 0.  1.
         -2   -1    0    0    0  501 -0.00000000000E+00 -0.00000000000E+00 -0.89881345954E+01  0.89881345954E+01  0.00000000000E+00 0.  1.
         35    2    1    2    0    0  0.71054273576E-14  0.00000000000E+00  0.21500674014E+04  0.21680436706E+04  0.27860999089E+03 0.  0.
         25    2    3    3    0    0  0.52285413482E+02 -0.31231856636E+02  0.10655489345E+04  0.10745426950E+04  0.12465263024E+03 0.  0.
         25    2    3    3    0    0 -0.52285413482E+02  0.31231856636E+02  0.10845184669E+04  0.10935009756E+04  0.12591618341E+03 0.  0.
          5    1    4    4  502    0  0.46610809572E+02  0.38580735261E+02  0.67601495901E+03  0.67873364107E+03  0.47000000000E+01 0. -1.
         -5    1    4    4    0  502  0.56746039104E+01 -0.69812591897E+02  0.38953397545E+03  0.39580905390E+03  0.47000000000E+01 0. -1.
          5    1    5    5  503    0 -0.88416975904E+02  0.32899622175E+02  0.92771737308E+03  0.93251357152E+03  0.47000000000E+01 0. -1.
         -5    1    5    5    0  503  0.36131562421E+02 -0.16677655396E+01  0.15680109382E+03  0.16098740406E+03  0.47000000000E+01 0. -1.
<mgrwt>
<rscale>  0 0.27860999E+03</rscale>
<asrwt>0</asrwt>
<pdfrwt beam="1">  1        2 0.33216198E+00 0.27860999E+03</pdfrwt>
<pdfrwt beam="2">  1       -2 0.13827917E-02 0.27860999E+03</pdfrwt>
<totfact> 0.81371363E+03</totfact>
</mgrwt>
</event>
<event>
 9    1  0.7816570E-001  0.2734101E+03  0.7818608E-02  0.1099344E+00
         -1   -1    0    0    0  501 -0.00000000000E+00  0.00000000000E+00  0.14801717700E+03  0.14801717700E+03  0.00000000000E+00 0. -1.
          1   -1    0    0  501    0  0.00000000000E+00 -0.00000000000E+00 -0.12625745676E+03  0.12625745676E+03  0.00000000000E+00 0. -1.
         35    2    1    2    0    0  0.14210854715E-13  0.71054273576E-14  0.21759720234E+02  0.27427463376E+03  0.27341011192E+03 0.  0.
         25    2    3    3    0    0  0.42635872478E+02  0.12619148444E+01  0.20831293337E+02  0.14180913691E+03  0.13362813506E+03 0.  0.
         25    2    3    3    0    0 -0.42635872478E+02 -0.12619148444E+01  0.92842689678E+00  0.13246549685E+03  0.12540668175E+03 0.  0.
          5    1    4    4  502    0 -0.21943613490E+02  0.52695137478E+02  0.39438534234E+01  0.57410309759E+02  0.47000000000E+01 0.  1.
         -5    1    4    4    0  502  0.64579485968E+02 -0.51433222634E+02  0.16887439914E+02  0.84398827155E+02  0.47000000000E+01 0.  1.
          5    1    5    5  503    0 -0.68482732205E+02 -0.39040446042E+02  0.21822687557E+02  0.81928998100E+02  0.47000000000E+01 0.  1.
         -5    1    5    5    0  503  0.25846859727E+02  0.37778531198E+02 -0.20894260660E+02  0.50536498749E+02  0.47000000000E+01 0.  1.
<mgrwt>
<rscale>  0 0.27341011E+03</rscale>
<asrwt>0</asrwt>
<pdfrwt beam="1">  1        1 0.19424224E-01 0.27341011E+03</pdfrwt>
<pdfrwt beam="2">  1       -1 0.22771874E-01 0.27341011E+03</pdfrwt>
<totfact> 0.42890475E+03</totfact>
</mgrwt>
</event>
<event>
 9    1  0.7816570E-001  0.2753065E+03  0.7818608E-02  0.1098280E+00
         -1   -1    0    0    0  501 -0.00000000000E+00  0.00000000000E+00  0.12444284303E+02  0.12444284303E+02  0.00000000000E+00 0. -1.
          1   -1    0    0  501    0  0.00000000000E+00 -0.00000000000E+00 -0.15226605213E+04  0.15226605213E+04  0.00000000000E+00 0. -1.
         35    2    1    2    0    0  0.00000000000E+00 -0.35527136788E-14 -0.15102162370E+04  0.15351048056E+04  0.27530652316E+03 0.  0.
         25    2    3    3    0    0 -0.56277942757E+02 -0.15894101376E+02 -0.76132238056E+03  0.77344142934E+03  0.12320733818E+03 0.  0.
         25    2    3    3    0    0  0.56277942757E+02  0.15894101376E+02 -0.74889385641E+03  0.76166337624E+03  0.12597325600E+03 0.  0.
          5    1    4    4  502    0  0.25597771431E+02 -0.41068309927E+02 -0.21535177633E+03  0.22077212132E+03  0.47000000000E+01 0. -1.
         -5    1    4    4    0  502 -0.81875714188E+02  0.25174208551E+02 -0.54597060423E+03  0.55266930802E+03  0.47000000000E+01 0. -1.
          5    1    5    5  503    0 -0.16401352180E+02  0.36127864502E+02 -0.49875619520E+03  0.50035393393E+03  0.47000000000E+01 0.  1.
         -5    1    5    5    0  503  0.72679294937E+02 -0.20233763126E+02 -0.25013766121E+03  0.26130944231E+03  0.47000000000E+01 0.  1.
<mgrwt>
<rscale>  0 0.27530652E+03</rscale>
<asrwt>0</asrwt>
<pdfrwt beam="1">  1        1 0.23425554E+00 0.27530652E+03</pdfrwt>
<pdfrwt beam="2">  1       -1 0.19145046E-02 0.27530652E+03</pdfrwt>
<totfact> 0.50534120E+03</totfact>
</mgrwt>
</event>
<event>
 9    1  0.7816570E-001  0.2768690E+03  0.7818608E-02  0.1097411E+00
         -1   -1    0    0    0  501 -0.00000000000E+00  0.00000000000E+00  0.84671782734E+03  0.84671782734E+03  0.00000000000E+00 0.  1.
          1   -1    0    0  501    0  0.00000000000E+00 -0.00000000000E+00 -0.22633402561E+02  0.22633402561E+02  0.00000000000E+00 0.  1.
         35    2    1    2    0    0  0.35527136788E-14  0.00000000000E+00  0.82408442478E+03  0.86935122990E+03  0.27686896136E+03 0.  0.
         25    2    3    3    0    0  0.58080599996E+00 -0.83630540964E+01  0.22193331521E+03  0.25428563379E+03  0.12384066030E+03 0.  0.
         25    2    3    3    0    0 -0.58080599996E+00  0.83630540964E+01  0.60215110958E+03  0.61506559612E+03  0.12509776478E+03 0.  0.
          5    1    4    4  502    0 -0.26885146466E+02 -0.35777355738E+02  0.20796086360E+03  0.21277368511E+03  0.47000000000E+01 0.  1.
         -5    1    4    4    0  502  0.27465952466E+02  0.27414301641E+02  0.13972451604E+02  0.41511948680E+02  0.47000000000E+01 0.  1.
          5    1    5    5  503    0 -0.55800058052E+02 -0.20583907259E+02  0.36333082813E+03  0.36819658389E+03  0.47000000000E+01 0. -1.
         -5    1    5    5    0  503  0.55219252052E+02  0.28946961356E+02  0.23882028144E+03  0.24686901223E+03  0.47000000000E+01 0. -1.
<mgrwt>
<rscale>  0 0.27686896E+03</rscale>
<asrwt>0</asrwt>
<pdfrwt beam="1">  1        1 0.34820626E-02 0.27686896E+03</pdfrwt>
<pdfrwt beam="2">  1       -1 0.13026426E+00 0.27686896E+03</pdfrwt>
<totfact> 0.14961430E+03</totfact>
</mgrwt>
</event>
<event>
 9    1  0.7816570E-001  0.2740240E+03  0.7818608E-02  0.1098998E+00
          1   -1    0    0  501    0  0.00000000000E+00  0.00000000000E+00  0.17072556741E+04  0.17072556741E+04  0.00000000000E+00 0. -1.
         -1   -1    0    0    0  501 -0.00000000000E+00 -0.00000000000E+00 -0.10995591187E+02  0.10995591187E+02  0.00000000000E+00 0. -1.
         35    2    1    2    0    0  0.00000000000E+00 -0.71054273576E-14  0.16962600829E+04  0.17182512653E+04  0.27402398030E+03 0.  0.
         25    2    3    3    0    0 -0.21380887413E+02  0.22855738944E+02  0.69992066171E+03  0.71374617438E+03  0.13625395997E+03 0.  0.
         25    2    3    3    0    0  0.21380887413E+02 -0.22855738944E+02  0.99633942124E+03  0.10045050909E+04  0.12393025564E+03 0.  0.
          5    1    4    4  502    0 -0.19596877935E+02 -0.45481995395E+02  0.12163031766E+03  0.13141032572E+03  0.47000000000E+01 0.  1.
         -5    1    4    4    0  502 -0.17840094778E+01  0.68337734339E+02  0.57829034404E+03  0.58233584866E+03  0.47000000000E+01 0.  1.
          5    1    5    5  503    0 -0.10430707417E+02 -0.65899073104E+02  0.38116504054E+03  0.38698884432E+03  0.47000000000E+01 0. -1.
         -5    1    5    5    0  503  0.31811594830E+02  0.43043334160E+02  0.61517438070E+03  0.61751624663E+03  0.47000000000E+01 0. -1.
<mgrwt>
<rscale>  0 0.27402398E+03</rscale>
<asrwt>0</asrwt>
<pdfrwt beam="1">  1        1 0.26265451E+00 0.27402398E+03</pdfrwt>
<pdfrwt beam="2">  1       -1 0.16916308E-02 0.27402398E+03</pdfrwt>
<totfact> 0.45802539E+03</totfact>
</mgrwt>
</event>
<event>
 9    1  0.7816570E-001  0.2724768E+03  0.7818608E-02  0.1099870E+00
          1   -1    0    0  501    0  0.00000000000E+00  0.00000000000E+00  0.22128365243E+03  0.22128365243E+03  0.00000000000E+00 0.  1.
         -1   -1    0    0    0  501 -0.00000000000E+00 -0.00000000000E+00 -0.83878334087E+02  0.83878334087E+02  0.00000000000E+00 0.  1.
         35    2    1    2    0    0  0.00000000000E+00  0.71054273576E-14  0.13740531834E+03  0.30516198652E+03  0.27247681829E+03 0.  0.
         25    2    3    3    0    0  0.21039532237E+01 -0.49102044695E+02  0.89550847016E+02  0.16148343650E+03  0.12506841587E+03 0.  0.
         25    2    3    3    0    0 -0.21039532237E+01  0.49102044695E+02  0.47854471325E+02  0.14367855002E+03  0.12624594210E+03 0.  0.
          5    1    4    4  502    0  0.42971852990E+02 -0.44217689325E+02  0.10106922156E+03  0.11848570271E+03  0.47000000000E+01 0. -1.
         -5    1    4    4    0  502 -0.40867899766E+02 -0.48843553692E+01 -0.11518374547E+02  0.42997733788E+02  0.47000000000E+01 0. -1.
          5    1    5    5  503    0  0.22110613368E+01 -0.35867439199E+02 -0.13505088185E+02  0.38676082969E+02  0.47000000000E+01 0.  1.
         -5    1    5    5    0  503 -0.43150145604E+01  0.84969483894E+02  0.61359559510E+02  0.10500246705E+03  0.47000000000E+01 0.  1.
<mgrwt>
<rscale>  0 0.27247682E+03</rscale>
<asrwt>0</asrwt>
<pdfrwt beam="1">  1        1 0.34043639E-01 0.27247682E+03</pdfrwt>
<pdfrwt beam="2">  1       -1 0.12904359E-01 0.27247682E+03</pdfrwt>
<totfact> 0.52276044E+03</totfact>
</mgrwt>
</event>
<event>
 9    1  0.7816570E-001  0.2741311E+03  0.7818608E-02  0.1098938E+00
          2   -1    0    0  501    0  0.00000000000E+00  0.00000000000E+00  0.42296433994E+03  0.42296433994E+03  0.00000000000E+00 0. -1.
         -2   -1    0    0    0  501 -0.00000000000E+00 -0.00000000000E+00 -0.44417383098E+02  0.44417383098E+02  0.00000000000E+00 0. -1.
         35    2    1    2    0    0  0.35527136788E-14  0.00000000000E+00  0.37854695684E+03  0.46738172303E+03  0.27413113011E+03 0.  0.
         25    2    3    3    0    0  0.32305102783E+01  0.61220865248E+02  0.18841364604E+03  0.23183898016E+03  0.12037931785E+03 0.  0.
         25    2    3    3    0    0 -0.32305102783E+01 -0.61220865248E+02  0.19013331080E+03  0.23554274288E+03  0.12478492421E+03 0.  0.
          5    1    4    4  502    0 -0.18800447977E+02 -0.32294496714E+02  0.67878347626E+02  0.77627001994E+02  0.47000000000E+01 0.  1.
         -5    1    4    4    0  502  0.22030958255E+02  0.93515361962E+02  0.12053529841E+03  0.15421197816E+03  0.47000000000E+01 0.  1.
          5    1    5    5  503    0 -0.27680458133E+02  0.25907389113E+01 -0.50899290768E+01  0.28651650363E+02  0.47000000000E+01 0.  1.
         -5    1    5    5    0  503  0.24449947854E+02 -0.63811604159E+02  0.19522323987E+03  0.20689109251E+03  0.47000000000E+01 0.  1.
<mgrwt>
<rscale>  0 0.27413113E+03</rscale>
<asrwt>0</asrwt>
<pdfrwt beam="1">  1        2 0.65071434E-01 0.27413113E+03</pdfrwt>
<pdfrwt beam="2">  1       -2 0.68334438E-02 0.27413113E+03</pdfrwt>
<totfact> 0.90212915E+03</totfact>
</mgrwt>
</event>
<event>
 9    1  0.7816570E-001  0.2776041E+03  0.7818608E-02  0.1097005E+00
         -2   -1    0    0    0  501 -0.00000000000E+00  0.00000000000E+00  0.97401664591E+01  0.97401664591E+01  0.00000000000E+00 0. -1.
          2   -1    0    0  501    0  0.00000000000E+00 -0.00000000000E+00 -0.19779957322E+04  0.19779957322E+04  0.00000000000E+00 0. -1.
         35    2    1    2    0    0  0.00000000000E+00  0.00000000000E+00 -0.19682555657E+04  0.19877358986E+04  0.27760408993E+03 0.  0.
         25    2    3    3    0    0 -0.50475945946E+01 -0.16989851269E+02 -0.13960571551E+04  0.14017587839E+04  0.12505188796E+03 0.  0.
         25    2    3    3    0    0  0.50475945946E+01  0.16989851269E+02 -0.57219841067E+03  0.58597711479E+03  0.12507607534E+03 0.  0.
          5    1    4    4  502    0 -0.21769968301E+02  0.53389634597E+00 -0.42572003329E+02  0.48048746420E+02  0.47000000000E+01 0.  1.
         -5    1    4    4    0  502  0.16722373706E+02 -0.17523747615E+02 -0.13534851517E+04  0.13537100374E+04  0.47000000000E+01 0.  1.
          5    1    5    5  503    0 -0.59662929684E+02  0.13491023906E+02 -0.27682391015E+03  0.28354054408E+03  0.47000000000E+01 0.  1.
         -5    1    5    5    0  503  0.64710524279E+02  0.34988273638E+01 -0.29537450052E+03  0.30243657071E+03  0.47000000000E+01 0.  1.
<mgrwt>
<rscale>  0 0.27760409E+03</rscale>
<asrwt>0</asrwt>
<pdfrwt beam="1">  1        2 0.30430699E+00 0.27760409E+03</pdfrwt>
<pdfrwt beam="2">  1       -2 0.14984873E-02 0.27760409E+03</pdfrwt>
<totfact> 0.90164684E+03</totfact>
</mgrwt>
</event>
<event>
 9    1  0.7816570E-001  0.2721108E+03  0.7818608E-02  0.1100078E+00
          2   -1    0    0  501    0  0.00000000000E+00  0.00000000000E+00  0.47849923295E+02  0.47849923295E+02  0.00000000000E+00 0. -1.
         -2   -1    0    0    0  501 -0.00000000000E+00 -0.00000000000E+00 -0.38685675183E+03  0.38685675183E+03  0.00000000000E+00 0. -1.
         35    2    1    2    0    0  0.35527136788E-14 -0.71054273576E-14 -0.33900682853E+03  0.43470667512E+03  0.27211075614E+03 0.  0.
         25    2    3    3    0    0  0.24774011268E+02 -0.16066216917E+02 -0.97482905381E+02  0.16150735352E+03  0.12533887442E+03 0.  0.
         25    2    3    3    0    0 -0.24774011268E+02  0.16066216917E+02 -0.24152392315E+03  0.27319932160E+03  0.12422636157E+03 0.  0.
          5    1    4    4  502    0 -0.82576958073E+00 -0.69236289722E+02 -0.56740934217E+02  0.89643568234E+02  0.47000000000E+01 0. -1.
         -5    1    4    4    0  502  0.25599780849E+02  0.53170072805E+02 -0.40741971164E+02  0.71863785288E+02  0.47000000000E+01 0. -1.
          5    1    5    5  503    0  0.43796262687E+02  0.16959898789E+02 -0.45849129301E+02  0.65802609751E+02  0.47000000000E+01 0. -1.
         -5    1    5    5    0  503 -0.68570273955E+02 -0.89368187252E+00 -0.19567479385E+03  0.20739671185E+03  0.47000000000E+01 0. -1.
<mgrwt>
<rscale>  0 0.27211076E+03</rscale>
<asrwt>0</asrwt>
<pdfrwt beam="1">  1        2 0.73615268E-02 0.27211076E+03</pdfrwt>
<pdfrwt beam="2">  1       -2 0.59516422E-01 0.27211076E+03</pdfrwt>
<totfact> 0.25366384E+03</totfact>
</mgrwt>
</event>
<event>
 9    1  0.7816570E-001  0.2805618E+03  0.7818608E-02  0.1095382E+00
         -2   -1    0    0    0  501 -0.00000000000E+00  0.00000000000E+00  0.18731129496E+03  0.18731129496E+03  0.00000000000E+00 0. -1.
          2   -1    0    0  501    0  0.00000000000E+00 -0.00000000000E+00 -0.10505896858E+03  0.10505896858E+03  0.00000000000E+00 0. -1.
         35    2    1    2    0    0  0.14210854715E-13  0.00000000000E+00  0.82252326376E+02  0.29237026354E+03  0.28056180390E+03 0.  0.
         25    2    3    3    0    0  0.29646025801E+02 -0.58173886898E+02  0.40913262623E+02  0.14705923633E+03  0.12525747870E+03 0.  0.
         25    2    3    3    0    0 -0.29646025801E+02  0.58173886898E+02  0.41339063753E+02  0.14531102720E+03  0.12305806951E+03 0.  0.
          5    1    4    4  502    0 -0.45389141748E+02 -0.19099525450E+02 -0.66170158638E+01  0.49908325558E+02  0.47000000000E+01 0. -1.
         -5    1    4    4    0  502  0.75035167550E+02 -0.39074361448E+02  0.47530278486E+02  0.97150910777E+02  0.47000000000E+01 0. -1.
          5    1    5    5  503    0 -0.75784194534E+02  0.45391257234E+02  0.12821635678E+02  0.89387329728E+02  0.47000000000E+01 0.  1.
         -5    1    5    5    0  503  0.46138168733E+02  0.12782629664E+02  0.28517428075E+02  0.55923697474E+02  0.47000000000E+01 0.  1.
<mgrwt>
<rscale>  0 0.28056180E+03</rscale>
<asrwt>0</asrwt>
<pdfrwt beam="1">  1        2 0.16162918E-01 0.28056180E+03</pdfrwt>
<pdfrwt beam="2">  1       -2 0.28817122E-01 0.28056180E+03</pdfrwt>
<totfact> 0.39057403E+03</totfact>
</mgrwt>
</event>
<event>
 9    1  0.7816570E-001  0.2705875E+03  0.7818608E-02  0.1100944E+00
          1   -1    0    0  501    0  0.00000000000E+00  0.00000000000E+00  0.23859414682E+03  0.23859414682E+03  0.00000000000E+00 0. -1.
         -1   -1    0    0    0  501 -0.00000000000E+00 -0.00000000000E+00 -0.76717720364E+02  0.76717720364E+02  0.00000000000E+00 0. -1.
         35    2    1    2    0    0 -0.71054273576E-14  0.00000000000E+00  0.16187642645E+03  0.31531186718E+03  0.27058750183E+03 0.  0.
         25    2    3    3    0    0  0.44057633567E+02 -0.70541469492E+01  0.11623943326E+03  0.17680804057E+03  0.12553342702E+03 0.  0.
         25    2    3    3    0    0 -0.44057633567E+02  0.70541469492E+01  0.45636993194E+02  0.13850382662E+03  0.12292167740E+03 0.  0.
          5    1    4    4  502    0  0.28033738545E+02 -0.23384589702E+02  0.13924274676E+03  0.14402556043E+03  0.47000000000E+01 0.  1.
         -5    1    4    4    0  502  0.16023895022E+02  0.16330442753E+02 -0.23003313497E+02  0.32782480138E+02  0.47000000000E+01 0.  1.
          5    1    5    5  503    0  0.23202706915E+02  0.42190222572E+02  0.39080852008E+02  0.62191506515E+02  0.47000000000E+01 0. -1.
         -5    1    5    5    0  503 -0.67260340482E+02 -0.35136075623E+02  0.65561411865E+01  0.76312320101E+02  0.47000000000E+01 0. -1.
<mgrwt>
<rscale>  0 0.27058750E+03</rscale>
<asrwt>0</asrwt>
<pdfrwt beam="1">  1        1 0.36706792E-01 0.27058750E+03</pdfrwt>
<pdfrwt beam="2">  1       -1 0.11802726E-01 0.27058750E+03</pdfrwt>
<totfact> 0.54669451E+03</totfact>
</mgrwt>
</event>
<event>
 9    1  0.7816570E-001  0.2721049E+03  0.7818608E-02  0.1100081E+00
          2   -1    0    0  501    0  0.00000000000E+00  0.00000000000E+00  0.11433391619E+04  0.11433391619E+04  0.00000000000E+00 0. -1.
         -2   -1    0    0    0  501 -0.00000000000E+00 -0.00000000000E+00 -0.16189660056E+02  0.16189660056E+02  0.00000000000E+00 0. -1.
         35    2    1    2    0    0  0.22204460493E-14 -0.71054273576E-14  0.11271495018E+04  0.11595288219E+04  0.27210492358E+03 0.  0.
         25    2    3    3    0    0 -0.88148719722E+00  0.53409962870E+02  0.56994236257E+03  0.58604891365E+03  0.12556126544E+03 0.  0.
         25    2    3    3    0    0  0.88148719722E+00 -0.53409962870E+02  0.55720713926E+03  0.57347990829E+03  0.12468363174E+03 0.  0.
          5    1    4    4  502    0  0.20313753914E+02  0.10130839325E+02  0.50245233637E+03  0.50298680184E+03  0.47000000000E+01 0. -1.
         -5    1    4    4    0  502 -0.21195241112E+02  0.43279123546E+02  0.67490026204E+02  0.83062111806E+02  0.47000000000E+01 0. -1.
          5    1    5    5  503    0  0.41940540931E+01  0.40712307976E+02  0.15725639948E+03  0.16256305635E+03  0.47000000000E+01 0.  1.
         -5    1    5    5    0  503 -0.33125668958E+01 -0.94122270847E+02  0.39995073977E+03  0.41091685195E+03  0.47000000000E+01 0.  1.
<mgrwt>
<rscale>  0 0.27210492E+03</rscale>
<asrwt>0</asrwt>
<pdfrwt beam="1">  1        2 0.17589827E+00 0.27210492E+03</pdfrwt>
<pdfrwt beam="2">  1       -2 0.24907178E-02 0.27210492E+03</pdfrwt>
<totfact> 0.12014598E+04</totfact>
</mgrwt>
</event>
<event>
 9    1  0.7816570E-001  0.2790258E+03  0.7818608E-02  0.1096222E+00
         -3   -1    0    0    0  501 -0.00000000000E+00  0.00000000000E+00  0.44588707456E+03  0.44588707456E+03  0.00000000000E+00 0. -1.
          3   -1    0    0  501    0  0.00000000000E+00 -0.00000000000E+00 -0.43651976442E+02  0.43651976442E+02  0.00000000000E+00 0. -1.
         35    2    1    2    0    0  0.00000000000E+00  0.00000000000E+00  0.40223509812E+03  0.48953905101E+03  0.27902582013E+03 0.  0.
         25    2    3    3    0    0  0.27314784257E+02  0.46805654830E+02  0.14946788255E+03  0.20227772203E+03  0.12505503650E+03 0.  0.
         25    2    3    3    0    0 -0.27314784257E+02 -0.46805654830E+02  0.25276721557E+03  0.28726132897E+03  0.12526347868E+03 0.  0.
          5    1    4    4  502    0 -0.41974126603E+02  0.49470066446E+02  0.56198131804E+02  0.85961821738E+02  0.47000000000E+01 0. -1.
         -5    1    4    4    0  502  0.69288910861E+02 -0.26644116153E+01  0.93269750747E+02  0.11631590030E+03  0.47000000000E+01 0. -1.
          5    1    5    5  503    0  0.14703679138E+02 -0.61516740400E+01  0.21890269944E+03  0.21953251034E+03  0.47000000000E+01 0. -1.
         -5    1    5    5    0  503 -0.42018463395E+02 -0.40653980790E+02  0.33864516129E+02  0.67728818629E+02  0.47000000000E+01 0. -1.
<mgrwt>
<rscale>  0 0.27902582E+03</rscale>
<asrwt>0</asrwt>
<pdfrwt beam="1">  1        3 0.67156890E-02 0.27902582E+03</pdfrwt>
<pdfrwt beam="2">  1       -3 0.68598008E-01 0.27902582E+03</pdfrwt>
<totfact> 0.74997445E+02</totfact>
</mgrwt>
</event>
<event>
 9    1  0.7816570E-001  0.2755174E+03  0.7818608E-02  0.1098163E+00
         -2   -1    0    0    0  501 -0.00000000000E+00  0.00000000000E+00  0.72148959012E+02  0.72148959012E+02  0.00000000000E+00 0.  1.
          2   -1    0    0  501    0  0.00000000000E+00 -0.00000000000E+00 -0.26303157322E+03  0.26303157322E+03  0.00000000000E+00 0.  1.
         35    2    1    2    0    0  0.62172489379E-14  0.14210854715E-13 -0.19088261421E+03  0.33518053223E+03  0.27551736203E+03 0.  0.
         25    2    3    3    0    0 -0.74015680613E+01 -0.45699922930E+02 -0.55974290779E+02  0.14497562792E+03  0.12546531512E+03 0.  0.
         25    2    3    3    0    0  0.74015680613E+01  0.45699922930E+02 -0.13490832343E+03  0.19020490431E+03  0.12583474770E+03 0.  0.
          5    1    4    4  502    0 -0.60655778594E+02 -0.51605986976E+02 -0.29829801207E+02  0.85171640871E+02  0.47000000000E+01 0.  1.
         -5    1    4    4    0  502  0.53254210533E+02  0.59060640455E+01 -0.26144489572E+02  0.59803987049E+02  0.47000000000E+01 0.  1.
          5    1    5    5  503    0 -0.38352476486E+01 -0.38373488976E+02 -0.11746563470E+02  0.40587011889E+02  0.47000000000E+01 0. -1.
         -5    1    5    5    0  503  0.11236815710E+02  0.84073411907E+02 -0.12316175996E+03  0.14961789242E+03  0.47000000000E+01 0. -1.
<mgrwt>
<rscale>  0 0.27551736E+03</rscale>
<asrwt>0</asrwt>
<pdfrwt beam="1">  1        2 0.40466396E-01 0.27551736E+03</pdfrwt>
<pdfrwt beam="2">  1       -2 0.11099840E-01 0.27551736E+03</pdfrwt>
<totfact> 0.70258241E+03</totfact>
</mgrwt>
</event>
<event>
 9    1  0.7816570E-001  0.2758089E+03  0.7818608E-02  0.1098000E+00
          1   -1    0    0  501    0  0.00000000000E+00  0.00000000000E+00  0.13750444718E+03  0.13750444718E+03  0.00000000000E+00 0. -1.
         -1   -1    0    0    0  501 -0.00000000000E+00 -0.00000000000E+00 -0.13830563618E+03  0.13830563618E+03  0.00000000000E+00 0. -1.
         35    2    1    2    0    0 -0.71054273576E-14  0.35527136788E-14 -0.80118900158E+00  0.27581008336E+03  0.27580891969E+03 0.  0.
         25    2    3    3    0    0  0.46422678115E+02 -0.13797451051E+02  0.29584346325E+02  0.13783530236E+03  0.12561012034E+03 0.  0.
         25    2    3    3    0    0 -0.46422678115E+02  0.13797451051E+02 -0.30385535327E+02  0.13797478100E+03  0.12557199025E+03 0.  0.
          5    1    4    4  502    0 -0.20974554488E+02 -0.50628791446E+02 -0.10514430672E+01  0.55012743903E+02  0.47000000000E+01 0.  1.
         -5    1    4    4    0  502  0.67397232603E+02  0.36831340395E+02  0.30635789392E+02  0.82822558458E+02  0.47000000000E+01 0.  1.
          5    1    5    5  503    0 -0.30858067494E+02 -0.15262192191E+02 -0.74792949176E+02  0.82469570670E+02  0.47000000000E+01 0.  1.
         -5    1    5    5    0  503 -0.15564610621E+02  0.29059643242E+02  0.44407413850E+02  0.55505210332E+02  0.47000000000E+01 0.  1.
<mgrwt>
<rscale>  0 0.27580892E+03</rscale>
<asrwt>0</asrwt>
<pdfrwt beam="1">  1        1 0.21154530E-01 0.27580892E+03</pdfrwt>
<pdfrwt beam="2">  1       -1 0.21277790E-01 0.27580892E+03</pdfrwt>
<totfact> 0.42966047E+03</totfact>
</mgrwt>
</event>
<event>
 9    1  0.7816570E-001  0.2729665E+03  0.7818608E-02  0.1099594E+00
         -4   -1    0    0    0  501 -0.00000000000E+00  0.00000000000E+00  0.13576517402E+03  0.13576517402E+03  0.00000000000E+00 0. -1.
          4   -1    0    0  501    0  0.00000000000E+00 -0.00000000000E+00 -0.13720516674E+03  0.13720516674E+03  0.00000000000E+00 0. -1.
         35    2    1    2    0    0  0.00000000000E+00  0.14210854715E-13 -0.14399927139E+01  0.27297034076E+03  0.27296654256E+03 0.  0.
         25    2    3    3    0    0  0.21522632064E+02 -0.29859684707E+02  0.40301199726E+02  0.13616773188E+03  0.12475031080E+03 0.  0.
         25    2    3    3    0    0 -0.21522632064E+02  0.29859684707E+02 -0.41741192440E+02  0.13680260888E+03  0.12497120543E+03 0.  0.
          5    1    4    4  502    0  0.50908735542E+02 -0.65556173350E+02  0.31286642131E+02  0.88827108444E+02  0.47000000000E+01 0. -1.
         -5    1    4    4    0  502 -0.29386103478E+02  0.35696488643E+02  0.90145575943E+01  0.47340623439E+02  0.47000000000E+01 0. -1.
          5    1    5    5  503    0 -0.21346826783E+02 -0.40793694111E+02  0.12113799824E+02  0.47839801830E+02  0.47000000000E+01 0. -1.
         -5    1    5    5    0  503 -0.17580528121E+00  0.70653378818E+02 -0.53854992263E+02  0.88962807047E+02  0.47000000000E+01 0. -1.
<mgrwt>
<rscale>  0 0.27296654E+03</rscale>
<asrwt>0</asrwt>
<pdfrwt beam="1">  1        4 0.21108487E-01 0.27296654E+03</pdfrwt>
<pdfrwt beam="2">  1       -4 0.20886950E-01 0.27296654E+03</pdfrwt>
<totfact> 0.79918460E+02</totfact>
</mgrwt>
</event>
<event>
 9    1  0.7816570E-001  0.2742376E+03  0.7818608E-02  0.1098879E+00
         -2   -1    0    0    0  501 -0.00000000000E+00  0.00000000000E+00  0.56136318893E+02  0.56136318893E+02  0.00000000000E+00 0.  1.
          2   -1    0    0  501    0  0.00000000000E+00 -0.00000000000E+00 -0.33492698717E+03  0.33492698717E+03  0.00000000000E+00 0.  1.
         35    2    1    2    0    0  0.00000000000E+00  0.00000000000E+00 -0.27879066828E+03  0.39106330607E+03  0.27423762074E+03 0.  0.
         25    2    3    3    0    0 -0.15485400501E+02 -0.58023063054E+02 -0.16814639919E+03  0.21800621884E+03  0.12508807466E+03 0.  0.
         25    2    3    3    0    0  0.15485400501E+02  0.58023063054E+02 -0.11064426910E+03  0.17305708722E+03  0.11874395850E+03 0.  0.
          5    1    4    4  502    0 -0.38288196503E+02  0.11591416298E+02 -0.69382926021E+01  0.40872690485E+02  0.47000000000E+01 0. -1.
         -5    1    4    4    0  502  0.22802796002E+02 -0.69614479352E+02 -0.16120810658E+03  0.17713352836E+03  0.47000000000E+01 0. -1.
          5    1    5    5  503    0 -0.11151157094E+01  0.63913022737E+02 -0.33047872556E+01  0.64180445442E+02  0.47000000000E+01 0. -1.
         -5    1    5    5    0  503  0.16600516211E+02 -0.58899596828E+01 -0.10733948184E+03  0.10887664178E+03  0.47000000000E+01 0. -1.
<mgrwt>
<rscale>  0 0.27423762E+03</rscale>
<asrwt>0</asrwt>
<pdfrwt beam="1">  1        2 0.51527228E-01 0.27423762E+03</pdfrwt>
<pdfrwt beam="2">  1       -2 0.86363569E-02 0.27423762E+03</pdfrwt>
<totfact> 0.80657691E+03</totfact>
</mgrwt>
</event>
<event>
 9    1  0.7816570E-001  0.2872025E+03  0.7818608E-02  0.1091819E+00
          2   -1    0    0  501    0  0.00000000000E+00  0.00000000000E+00  0.14107441972E+04  0.14107441972E+04  0.00000000000E+00 0.  1.
         -2   -1    0    0    0  501 -0.00000000000E+00 -0.00000000000E+00 -0.14617334076E+02  0.14617334076E+02  0.00000000000E+00 0.  1.
         35    2    1    2    0    0  0.00000000000E+00  0.00000000000E+00  0.13961268631E+04  0.14253615313E+04  0.28720250156E+03 0.  0.
         25    2    3    3    0    0 -0.58854193528E+02  0.64965657395E+01  0.51388935519E+03  0.53242940470E+03  0.12606657031E+03 0.  0.
         25    2    3    3    0    0  0.58854193528E+02 -0.64965657395E+01  0.88223750795E+03  0.89293212659E+03  0.12441358769E+03 0.  0.
          5    1    4    4  502    0 -0.33895503991E+02  0.10126529475E+02  0.26711007746E+02  0.44575999426E+02  0.47000000000E+01 0.  1.
         -5    1    4    4    0  502 -0.24958689537E+02 -0.36299637352E+01  0.48717834744E+03  0.48785340527E+03  0.47000000000E+01 0.  1.
          5    1    5    5  503    0  0.76799570870E+02 -0.21145286629E+02  0.84543706088E+03  0.84919444837E+03  0.47000000000E+01 0.  1.
         -5    1    5    5    0  503 -0.17945377342E+02  0.14648720889E+02  0.36800447071E+02  0.43737678222E+02  0.47000000000E+01 0.  1.
<mgrwt>
<rscale>  0 0.28720250E+03</rscale>
<asrwt>0</asrwt>
<pdfrwt beam="1">  1        2 0.21703746E+00 0.28720250E+03</pdfrwt>
<pdfrwt beam="2">  1       -2 0.22488217E-02 0.28720250E+03</pdfrwt>
<totfact> 0.99214957E+03</totfact>
</mgrwt>
</event>
<event>
 9    1  0.7816570E-001  0.2726420E+03  0.7818608E-02  0.1099777E+00
         -2   -1    0    0    0  501 -0.00000000000E+00  0.00000000000E+00  0.10913092921E+03  0.10913092921E+03  0.00000000000E+00 0.  1.
          2   -1    0    0  501    0  0.00000000000E+00 -0.00000000000E+00 -0.17028553319E+03  0.17028553319E+03  0.00000000000E+00 0.  1.
         35    2    1    2    0    0  0.00000000000E+00  0.71054273576E-14 -0.61154603979E+02  0.27941646240E+03  0.27264202514E+03 0.  0.
         25    2    3    3    0    0 -0.30795184736E+02 -0.70954141262E+01  0.14667108193E+02  0.12975745701E+03  0.12499274092E+03 0.  0.
         25    2    3    3    0    0  0.30795184736E+02  0.70954141262E+01 -0.75821712172E+02  0.14965900539E+03  0.12510074961E+03 0.  0.
          5    1    4    4  502    0 -0.25245491640E+02 -0.44537818484E+02  0.54283102121E+02  0.74764278230E+02  0.47000000000E+01 0.  1.
         -5    1    4    4    0  502 -0.55496930958E+01  0.37442404358E+02 -0.39615993928E+02  0.54993178781E+02  0.47000000000E+01 0.  1.
          5    1    5    5  503    0 -0.21188720132E+02 -0.45027281306E+02 -0.10383997701E+02  0.51052280369E+02  0.47000000000E+01 0. -1.
         -5    1    5    5    0  503  0.51983904867E+02  0.52122695432E+02 -0.65437714471E+02  0.98606725022E+02  0.47000000000E+01 0. -1.
<mgrwt>
<rscale>  0 0.27264203E+03</rscale>
<asrwt>0</asrwt>
<pdfrwt beam="1">  1        2 0.26197774E-01 0.27264203E+03</pdfrwt>
<pdfrwt beam="2">  1       -2 0.16789374E-01 0.27264203E+03</pdfrwt>
<totfact> 0.57366982E+03</totfact>
</mgrwt>
</event>
<event>
 9    1  0.7816570E-001  0.2746934E+03  0.7818608E-02  0.1098623E+00
          2   -1    0    0  501    0  0.00000000000E+00  0.00000000000E+00  0.56381463585E+03  0.56381463585E+03  0.00000000000E+00 0.  1.
         -2   -1    0    0    0  501 -0.00000000000E+00 -0.00000000000E+00 -0.33458004330E+02  0.33458004330E+02  0.00000000000E+00 0.  1.
         35    2    1    2    0    0 -0.35527136788E-14  0.00000000000E+00  0.53035663152E+03  0.59727264018E+03  0.27469337471E+03 0.  0.
         25    2    3    3    0    0  0.27054886994E+02  0.35594041303E+02  0.17609939901E+03  0.21887144888E+03  0.12204429570E+03 0.  0.
         25    2    3    3    0    0 -0.27054886994E+02 -0.35594041303E+02  0.35425723251E+03  0.37840119131E+03  0.12526121551E+03 0.  0.
          5    1    4    4  502    0 -0.18639618558E+02  0.59780619395E+02  0.14583454794E+03  0.15877960577E+03  0.47000000000E+01 0.  1.
         -5    1    4    4    0  502  0.45694505552E+02 -0.24186578092E+02  0.30264851075E+02  0.60091843107E+02  0.47000000000E+01 0.  1.
          5    1    5    5  503    0  0.22877565300E+00  0.46036269332E+02  0.14023047669E+03  0.14766877471E+03  0.47000000000E+01 0.  1.
         -5    1    5    5    0  503 -0.27283662647E+02 -0.81630310635E+02  0.21402675582E+03  0.23073241660E+03  0.47000000000E+01 0.  1.
<mgrwt>
<rscale>  0 0.27469337E+03</rscale>
<asrwt>0</asrwt>
<pdfrwt beam="1">  1        2 0.86740706E-01 0.27469337E+03</pdfrwt>
<pdfrwt beam="2">  1       -2 0.51473857E-02 0.27469337E+03</pdfrwt>
<totfact> 0.10109047E+04</totfact>
</mgrwt>
</event>
<event>
 9    1  0.7816570E-001  0.2738042E+03  0.7818608E-02  0.1099122E+00
          1   -1    0    0  501    0  0.00000000000E+00  0.00000000000E+00  0.14213548875E+02  0.14213548875E+02  0.00000000000E+00 0.  1.
         -1   -1    0    0    0  501 -0.00000000000E+00 -0.00000000000E+00 -0.13186141082E+04  0.13186141082E+04  0.00000000000E+00 0.  1.
         35    2    1    2    0    0  0.00000000000E+00  0.71054273576E-14 -0.13044005594E+04  0.13328276571E+04  0.27380420797E+03 0.  0.
         25    2    3    3    0    0  0.18396016839E+02  0.52009726457E+02 -0.69675143576E+03  0.70976105394E+03  0.12351018325E+03 0.  0.
         25    2    3    3    0    0 -0.18396016839E+02 -0.52009726457E+02 -0.60764912360E+03  0.62306660318E+03  0.12621849904E+03 0.  0.
          5    1    4    4  502    0 -0.32138348879E+02 -0.18628261850E+02 -0.10145703569E+03  0.10814576136E+03  0.47000000000E+01 0.  1.
         -5    1    4    4    0  502  0.50534365718E+02  0.70637988307E+02 -0.59529440007E+03  0.60161529258E+03  0.47000000000E+01 0.  1.
          5    1    5    5  503    0  0.44359946308E+02  0.13417651817E+02 -0.18456997998E+03  0.19035757333E+03  0.47000000000E+01 0.  1.
         -5    1    5    5    0  503 -0.62755963147E+02 -0.65427378274E+02 -0.42307914363E+03  0.43270902984E+03  0.47000000000E+01 0.  1.
<mgrwt>
<rscale>  0 0.27380421E+03</rscale>
<asrwt>0</asrwt>
<pdfrwt beam="1">  1        1 0.21866995E-02 0.27380421E+03</pdfrwt>
<pdfrwt beam="2">  1       -1 0.20286374E+00 0.27380421E+03</pdfrwt>
<totfact> 0.85166505E+02</totfact>
</mgrwt>
</event>
<event>
 9    1  0.7816570E-001  0.2646728E+03  0.7818608E-02  0.1104368E+00
          2   -1    0    0  501    0  0.00000000000E+00  0.00000000000E+00  0.25288591469E+03  0.25288591469E+03  0.00000000000E+00 0.  1.
         -2   -1    0    0    0  501 -0.00000000000E+00 -0.00000000000E+00 -0.69252280719E+02  0.69252280719E+02  0.00000000000E+00 0.  1.
         35    2    1    2    0    0  0.00000000000E+00 -0.71054273576E-14  0.18363363397E+03  0.32213819541E+03  0.26467282712E+03 0.  0.
         25    2    3    3    0    0 -0.38628857426E+02  0.22045044719E+02  0.86322789384E+02  0.15786414560E+03  0.12446401839E+03 0.  0.
         25    2    3    3    0    0  0.38628857426E+02 -0.22045044719E+02  0.97310844586E+02  0.16427404981E+03  0.12465307997E+03 0.  0.
          5    1    4    4  502    0  0.37681309339E+02  0.25740374231E+02  0.62831003303E+02  0.77796355410E+02  0.47000000000E+01 0. -1.
         -5    1    4    4    0  502 -0.76310166765E+02 -0.36953295124E+01  0.23491786082E+02  0.80067790186E+02  0.47000000000E+01 0. -1.
          5    1    5    5  503    0 -0.39741169704E+02 -0.59584381117E+01  0.67637873744E+02  0.78815198526E+02  0.47000000000E+01 0.  1.
         -5    1    5    5    0  503  0.78370027130E+02 -0.16086606607E+02  0.29672970843E+02  0.85458851286E+02  0.47000000000E+01 0.  1.
<mgrwt>
<rscale>  0 0.26467283E+03</rscale>
<asrwt>0</asrwt>
<pdfrwt beam="1">  1        2 0.38905525E-01 0.26467283E+03</pdfrwt>
<pdfrwt beam="2">  1       -2 0.10654197E-01 0.26467283E+03</pdfrwt>
<totfact> 0.78145685E+03</totfact>
</mgrwt>
</event>
<event>
 9    1  0.7816570E-001  0.2557780E+03  0.7818608E-02  0.1109707E+00
         -2   -1    0    0    0  501 -0.00000000000E+00  0.00000000000E+00  0.10300441051E+03  0.10300441051E+03  0.00000000000E+00 0. -1.
          2   -1    0    0  501    0  0.00000000000E+00 -0.00000000000E+00 -0.15878542896E+03  0.15878542896E+03  0.00000000000E+00 0. -1.
         35    2    1    2    0    0  0.17763568394E-14  0.71054273576E-14 -0.55781018456E+02  0.26178983947E+03  0.25577802492E+03 0.  0.
         25    2    3    3    0    0  0.73113505471E+01  0.12695488986E+02 -0.53354579316E+02  0.13567553134E+03  0.12388102108E+03 0.  0.
         25    2    3    3    0    0 -0.73113505471E+01 -0.12695488986E+02 -0.24264391401E+01  0.12611430813E+03  0.12523697465E+03 0.  0.
          5    1    4    4  502    0  0.18047219411E+02  0.50571998212E+02  0.15619039804E+02  0.56118388573E+02  0.47000000000E+01 0.  1.
         -5    1    4    4    0  502 -0.10735868864E+02 -0.37876509227E+02 -0.68973619120E+02  0.79557142771E+02  0.47000000000E+01 0.  1.
          5    1    5    5  503    0 -0.19905808709E+02 -0.53672200297E+02 -0.39117411081E+02  0.69492504306E+02  0.47000000000E+01 0. -1.
         -5    1    5    5    0  503  0.12594458162E+02  0.40976711311E+02  0.36690971941E+02  0.56621803824E+02  0.47000000000E+01 0. -1.
<mgrwt>
<rscale>  0 0.25577802E+03</rscale>
<asrwt>0</asrwt>
<pdfrwt beam="1">  1        2 0.24428528E-01 0.25577802E+03</pdfrwt>
<pdfrwt beam="2">  1       -2 0.15846832E-01 0.25577802E+03</pdfrwt>
<totfact> 0.68118081E+03</totfact>
</mgrwt>
</event>
<event>
 9    1  0.7816570E-001  0.2751485E+03  0.7818608E-02  0.1098369E+00
          2   -1    0    0  501    0  0.00000000000E+00  0.00000000000E+00  0.47310122488E+03  0.47310122488E+03  0.00000000000E+00 0.  1.
         -2   -1    0    0    0  501 -0.00000000000E+00 -0.00000000000E+00 -0.40005547059E+02  0.40005547059E+02  0.00000000000E+00 0.  1.
         35    2    1    2    0    0  0.17763568394E-14 -0.71054273576E-14  0.43309567782E+03  0.51310677194E+03  0.27514849311E+03 0.  0.
         25    2    3    3    0    0  0.14657883199E+02  0.34868681687E+02  0.14419866072E+03  0.19521811815E+03  0.12604039589E+03 0.  0.
         25    2    3    3    0    0 -0.14657883199E+02 -0.34868681687E+02  0.28889701710E+03  0.31788865379E+03  0.12712604461E+03 0.  0.
          5    1    4    4  502    0 -0.16591916913E+02 -0.74048891763E+01 -0.17170377961E+02  0.25436901735E+02  0.47000000000E+01 0.  1.
         -5    1    4    4    0  502  0.31249800112E+02  0.42273570863E+02  0.16136903868E+03  0.16978121641E+03  0.47000000000E+01 0.  1.
          5    1    5    5  503    0 -0.10177444592E+02  0.42845994279E+02  0.51053614083E+02  0.67586397412E+02  0.47000000000E+01 0.  1.
         -5    1    5    5    0  503 -0.44804386068E+01 -0.77714675966E+02  0.23784340302E+03  0.25030225638E+03  0.47000000000E+01 0.  1.
<mgrwt>
<rscale>  0 0.27514849E+03</rscale>
<asrwt>0</asrwt>
<pdfrwt beam="1">  1        2 0.72784800E-01 0.27514849E+03</pdfrwt>
<pdfrwt beam="2">  1       -2 0.61546999E-02 0.27514849E+03</pdfrwt>
<totfact> 0.93717979E+03</totfact>
</mgrwt>
</event>
<event>
 9    1  0.7816570E-001  0.2764440E+03  0.7818608E-02  0.1097647E+00
          4   -1    0    0  501    0  0.00000000000E+00  0.00000000000E+00  0.21509992374E+03  0.21509992374E+03  0.00000000000E+00 0. -1.
         -4   -1    0    0    0  501 -0.00000000000E+00 -0.00000000000E+00 -0.88820690771E+02  0.88820690771E+02  0.00000000000E+00 0. -1.
         35    2    1    2    0    0  0.14210854715E-13  0.00000000000E+00  0.12627923297E+03  0.30392061451E+03  0.27644401829E+03 0.  0.
         25    2    3    3    0    0 -0.42628874717E+02 -0.82237426521E+01  0.18638299628E+02  0.13366333549E+03  0.12503459577E+03 0.  0.
         25    2    3    3    0    0  0.42628874717E+02  0.82237426521E+01  0.10764093334E+03  0.17025727902E+03  0.12456371713E+03 0.  0.
          5    1    4    4  502    0 -0.84839602679E+02  0.11048293350E+02  0.13492807934E+02  0.86740814123E+02  0.47000000000E+01 0. -1.
         -5    1    4    4    0  502  0.42210727963E+02 -0.19272036002E+02  0.51454916939E+01  0.46922521368E+02  0.47000000000E+01 0. -1.
          5    1    5    5  503    0  0.81125582086E+02  0.27403562106E+02  0.54003692536E+02  0.10134497566E+03  0.47000000000E+01 0. -1.
         -5    1    5    5    0  503 -0.38496707369E+02 -0.19179819454E+02  0.53637240808E+02  0.68912303357E+02  0.47000000000E+01 0. -1.
<mgrwt>
<rscale>  0 0.27644402E+03</rscale>
<asrwt>0</asrwt>
<pdfrwt beam="1">  1        4 0.33092296E-01 0.27644402E+03</pdfrwt>
<pdfrwt beam="2">  1       -4 0.13664722E-01 0.27644402E+03</pdfrwt>
<totfact> 0.73363111E+02</totfact>
</mgrwt>
</event>
<event>
 9    1  0.7816570E-001  0.2736282E+03  0.7818608E-02  0.1099221E+00
          2   -1    0    0  501    0  0.00000000000E+00  0.00000000000E+00  0.11558695052E+04  0.11558695052E+04  0.00000000000E+00 0.  1.
         -2   -1    0    0    0  501 -0.00000000000E+00 -0.00000000000E+00 -0.16193950247E+02  0.16193950247E+02  0.00000000000E+00 0.  1.
         35    2    1    2    0    0 -0.71054273576E-14  0.71054273576E-14  0.11396755550E+04  0.11720634555E+04  0.27362816566E+03 0.  0.
         25    2    3    3    0    0  0.32293097709E+02  0.91715618122E+01  0.37638165425E+03  0.39771306774E+03  0.12403859436E+03 0.  0.
         25    2    3    3    0    0 -0.32293097709E+02 -0.91715618122E+01  0.76329390075E+03  0.77435038775E+03  0.12599199334E+03 0.  0.
          5    1    4    4  502    0  0.86644317941E+01  0.61680995705E+02  0.12450001527E+03  0.13929092365E+03  0.47000000000E+01 0. -1.
         -5    1    4    4    0  502  0.23628665915E+02 -0.52509433893E+02  0.25188163898E+03  0.25842214409E+03  0.47000000000E+01 0. -1.
          5    1    5    5  503    0  0.47911563050E+02 -0.12909951642E+02  0.30807056155E+03  0.31207650604E+03  0.47000000000E+01 0.  1.
         -5    1    5    5    0  503 -0.80204660760E+02  0.37383898295E+01  0.45522333919E+03  0.46227388171E+03  0.47000000000E+01 0.  1.
<mgrwt>
<rscale>  0 0.27362817E+03</rscale>
<asrwt>0</asrwt>
<pdfrwt beam="1">  1        2 0.17782601E+00 0.27362817E+03</pdfrwt>
<pdfrwt beam="2">  1       -2 0.24913779E-02 0.27362817E+03</pdfrwt>
<totfact> 0.11813524E+04</totfact>
</mgrwt>
</event>
<event>
 9    1  0.7816570E-001  0.2875237E+03  0.7818608E-02  0.1091649E+00
          1   -1    0    0  501    0  0.00000000000E+00  0.00000000000E+00  0.81594702917E+02  0.81594702917E+02  0.00000000000E+00 0.  1.
         -1   -1    0    0    0  501 -0.00000000000E+00 -0.00000000000E+00 -0.25329426104E+03  0.25329426104E+03  0.00000000000E+00 0.  1.
         35    2    1    2    0    0 -0.35527136788E-14 -0.71054273576E-14 -0.17169955812E+03  0.33488896395E+03  0.28752370323E+03 0.  0.
         25    2    3    3    0    0  0.24550430561E+02  0.51070499023E+02 -0.37793162284E+02  0.14287828873E+03  0.12559841863E+03 0.  0.
         25    2    3    3    0    0 -0.24550430561E+02 -0.51070499023E+02 -0.13390639584E+03  0.19201067522E+03  0.12540437410E+03 0.  0.
          5    1    4    4  502    0 -0.33277208970E+02 -0.22180625958E+02  0.40949722566E+01  0.40474826775E+02  0.47000000000E+01 0. -1.
         -5    1    4    4    0  502  0.57827639531E+02  0.73251124981E+02 -0.41888134540E+02  0.10240346195E+03  0.47000000000E+01 0. -1.
          5    1    5    5  503    0  0.12056226676E+02 -0.30379717452E+02 -0.14463816857E+03  0.14835959572E+03  0.47000000000E+01 0. -1.
         -5    1    5    5    0  503 -0.36606657237E+02 -0.20690781571E+02  0.10731772735E+02  0.43651079507E+02  0.47000000000E+01 0. -1.
<mgrwt>
<rscale>  0 0.28752370E+03</rscale>
<asrwt>0</asrwt>
<pdfrwt beam="1">  1        1 0.12553031E-01 0.28752370E+03</pdfrwt>
<pdfrwt beam="2">  1       -1 0.38968348E-01 0.28752370E+03</pdfrwt>
<totfact> 0.30477598E+03</totfact>
</mgrwt>
</event>
<event>
 9    1  0.7816570E-001  0.2922876E+03  0.7818608E-02  0.1089161E+00
          2   -1    0    0  501    0  0.00000000000E+00  0.00000000000E+00  0.10405200974E+04  0.10405200974E+04  0.00000000000E+00 0.  1.
         -2   -1    0    0    0  501 -0.00000000000E+00 -0.00000000000E+00 -0.20526287882E+02  0.20526287882E+02  0.00000000000E+00 0.  1.
         35    2    1    2    0    0  0.00000000000E+00  0.35527136788E-14  0.10199938095E+04  0.10610463852E+04  0.29228763276E+03 0.  0.
         25    2    3    3    0    0 -0.47271879556E+02 -0.26706078526E+02  0.69843688561E+03  0.71167056705E+03  0.12535177540E+03 0.  0.
         25    2    3    3    0    0  0.47271879556E+02  0.26706078526E+02  0.32155692387E+03  0.34937581820E+03  0.12536650998E+03 0.  0.
          5    1    4    4  502    0 -0.81814229155E+02  0.13844534136E+01  0.56523199427E+03  0.57114339894E+03  0.47000000000E+01 0.  1.
         -5    1    4    4    0  502  0.34542349598E+02 -0.28090531940E+02  0.13320489134E+03  0.14052716811E+03  0.47000000000E+01 0.  1.
          5    1    5    5  503    0 -0.21997889597E+02  0.25433096345E+02  0.23943475164E+03  0.24183018800E+03  0.47000000000E+01 0.  1.
         -5    1    5    5    0  503  0.69269769153E+02  0.12729821807E+01  0.82122172235E+02  0.10754563020E+03  0.47000000000E+01 0.  1.
<mgrwt>
<rscale>  0 0.29228763E+03</rscale>
<asrwt>0</asrwt>
<pdfrwt beam="1">  1        2 0.16007997E+00 0.29228763E+03</pdfrwt>
<pdfrwt beam="2">  1       -2 0.31578912E-02 0.29228763E+03</pdfrwt>
<totfact> 0.97285231E+03</totfact>
</mgrwt>
</event>
<event>
 9    1  0.7816570E-001  0.2741132E+03  0.7818608E-02  0.1098948E+00
         -2   -1    0    0    0  501 -0.00000000000E+00  0.00000000000E+00  0.54931610158E+02  0.54931610158E+02  0.00000000000E+00 0. -1.
          2   -1    0    0  501    0  0.00000000000E+00 -0.00000000000E+00 -0.34196170511E+03  0.34196170511E+03  0.00000000000E+00 0. -1.
         35    2    1    2    0    0 -0.71054273576E-14  0.00000000000E+00 -0.28703009495E+03  0.39689331527E+03  0.27411316695E+03 0.  0.
         25    2    3    3    0    0 -0.34202394711E+02 -0.42709539351E+02 -0.13751278292E+03  0.19370633101E+03  0.12497387188E+03 0.  0.
         25    2    3    3    0    0  0.34202394711E+02  0.42709539351E+02 -0.14951731203E+03  0.20318698425E+03  0.12623634745E+03 0.  0.
          5    1    4    4  502    0 -0.68100646041E+02 -0.68295321156E+01 -0.12496786494E+03  0.14256015491E+03  0.47000000000E+01 0.  1.
         -5    1    4    4    0  502  0.33898251330E+02 -0.35880007235E+02 -0.12544917976E+02  0.51146176098E+02  0.47000000000E+01 0.  1.
          5    1    5    5  503    0 -0.31790291020E+01 -0.43302586117E+02 -0.48611228345E+02  0.65348004650E+02  0.47000000000E+01 0.  1.
         -5    1    5    5    0  503  0.37381423813E+02  0.86012125468E+02 -0.10090608368E+03  0.13783897960E+03  0.47000000000E+01 0.  1.
<mgrwt>
<rscale>  0 0.27411317E+03</rscale>
<asrwt>0</asrwt>
<pdfrwt beam="1">  1        2 0.52609493E-01 0.27411317E+03</pdfrwt>
<pdfrwt beam="2">  1       -2 0.84510170E-02 0.27411317E+03</pdfrwt>
<totfact> 0.81600960E+03</totfact>
</mgrwt>
</event>
<event>
 9    1  0.7816570E-001  0.2725840E+03  0.7818608E-02  0.1099810E+00
         -4   -1    0    0    0  501 -0.00000000000E+00  0.00000000000E+00  0.12233071837E+03  0.12233071837E+03  0.00000000000E+00 0.  1.
          4   -1    0    0  501    0  0.00000000000E+00 -0.00000000000E+00 -0.15184665501E+03  0.15184665501E+03  0.00000000000E+00 0.  1.
         35    2    1    2    0    0 -0.35527136788E-14  0.00000000000E+00 -0.29515936638E+02  0.27417737337E+03  0.27258400825E+03 0.  0.
         25    2    3    3    0    0  0.89258561751E+01  0.53346055437E+01 -0.52175945055E+02  0.13582005460E+03  0.12496651177E+03 0.  0.
         25    2    3    3    0    0 -0.89258561751E+01 -0.53346055437E+01  0.22660008417E+02  0.13835731878E+03  0.13609240520E+03 0.  0.
          5    1    4    4  502    0 -0.33773945539E+02 -0.42859536131E+02 -0.33433572043E+01  0.54871552484E+02  0.47000000000E+01 0. -1.
         -5    1    4    4    0  502  0.42699801715E+02  0.48194141674E+02 -0.48832587851E+02  0.80948502113E+02  0.47000000000E+01 0. -1.
          5    1    5    5  503    0 -0.17279528877E+02 -0.65852019067E+02 -0.99225119567E+01  0.68960980105E+02  0.47000000000E+01 0.  1.
         -5    1    5    5    0  503  0.83536727021E+01  0.60517413524E+02  0.32582520374E+02  0.69396338672E+02  0.47000000000E+01 0.  1.
<mgrwt>
<rscale>  0 0.27258401E+03</rscale>
<asrwt>0</asrwt>
<pdfrwt beam="1">  1        4 0.23361024E-01 0.27258401E+03</pdfrwt>
<pdfrwt beam="2">  1       -4 0.18820111E-01 0.27258401E+03</pdfrwt>
<totfact> 0.80120141E+02</totfact>
</mgrwt>
</event>
<event>
 9    1  0.7816570E-001  0.2748794E+03  0.7818608E-02  0.1098519E+00
          2   -1    0    0  501    0  0.00000000000E+00  0.00000000000E+00  0.30401524172E+03  0.30401524172E+03  0.00000000000E+00 0. -1.
         -2   -1    0    0    0  501 -0.00000000000E+00 -0.00000000000E+00 -0.62133972415E+02  0.62133972415E+02  0.00000000000E+00 0. -1.
         35    2    1    2    0    0  0.00000000000E+00  0.00000000000E+00  0.24188126931E+03  0.36614921414E+03  0.27487942551E+03 0.  0.
         25    2    3    3    0    0 -0.35315332831E+02 -0.44100708110E+02  0.11299058365E+03  0.17750594585E+03  0.12469740827E+03 0.  0.
         25    2    3    3    0    0  0.35315332831E+02  0.44100708110E+02  0.12889068565E+03  0.18864326828E+03  0.12562415624E+03 0.  0.
          5    1    4    4  502    0 -0.24834148002E+02 -0.87863773897E+02  0.70709442353E+02  0.11557981185E+03  0.47000000000E+01 0. -1.
         -5    1    4    4    0  502 -0.10481184830E+02  0.43763065787E+02  0.42281141300E+02  0.61926134000E+02  0.47000000000E+01 0. -1.
          5    1    5    5  503    0  0.33637901359E+01 -0.98011797021E+00 -0.24680030423E+02  0.25366702919E+02  0.47000000000E+01 0. -1.
         -5    1    5    5    0  503  0.31951542695E+02  0.45080826080E+02  0.15357071608E+03  0.16327656536E+03  0.47000000000E+01 0. -1.
<mgrwt>
<rscale>  0 0.27487943E+03</rscale>
<asrwt>0</asrwt>
<pdfrwt beam="1">  1        2 0.46771575E-01 0.27487943E+03</pdfrwt>
<pdfrwt beam="2">  1       -2 0.95590729E-02 0.27487943E+03</pdfrwt>
<totfact> 0.76280438E+03</totfact>
</mgrwt>
</event>
<event>
 9    1  0.7816570E-001  0.2750487E+03  0.7818608E-02  0.1098424E+00
          2   -1    0    0  501    0  0.00000000000E+00  0.00000000000E+00  0.27016200030E+04  0.27016200030E+04  0.00000000000E+00 0.  1.
         -2   -1    0    0    0  501 -0.00000000000E+00 -0.00000000000E+00 -0.70005927865E+01  0.70005927865E+01  0.00000000000E+00 0.  1.
         35    2    1    2    0    0 -0.35527136788E-14  0.00000000000E+00  0.26946194102E+04  0.27086205958E+04  0.27504866118E+03 0.  0.
         25    2    3    3    0    0  0.28675389071E+02  0.44438926391E+02  0.12232432485E+04  0.12309364903E+04  0.12682074807E+03 0.  0.
         25    2    3    3    0    0 -0.28675389071E+02 -0.44438926391E+02  0.14713761617E+04  0.14776841055E+04  0.12571956929E+03 0.  0.
          5    1    4    4  502    0  0.99499359729E+01 -0.32722589918E+02  0.76952462529E+03  0.77029864861E+03  0.47000000000E+01 0.  1.
         -5    1    4    4    0  502  0.18725453099E+02  0.77161516309E+02  0.45371862319E+03  0.46063784171E+03  0.47000000000E+01 0.  1.
          5    1    5    5  503    0  0.46317413343E+02  0.44092290116E+01  0.49843562248E+03  0.50062451382E+03  0.47000000000E+01 0.  1.
         -5    1    5    5    0  503 -0.74992802414E+02 -0.48848155403E+02  0.97294053925E+03  0.97705959164E+03  0.47000000000E+01 0.  1.
<mgrwt>
<rscale>  0 0.27504866E+03</rscale>
<asrwt>0</asrwt>
<pdfrwt beam="1">  1        2 0.41563301E+00 0.27504866E+03</pdfrwt>
<pdfrwt beam="2">  1       -2 0.10770164E-02 0.27504866E+03</pdfrwt>
<totfact> 0.59305912E+03</totfact>
</mgrwt>
</event>
<event>
 9    1  0.7816570E-001  0.2753558E+03  0.7818608E-02  0.1098253E+00
         -1   -1    0    0    0  501 -0.00000000000E+00  0.00000000000E+00  0.16191818966E+04  0.16191818966E+04  0.00000000000E+00 0. -1.
          1   -1    0    0  501    0  0.00000000000E+00 -0.00000000000E+00 -0.11706655369E+02  0.11706655369E+02  0.00000000000E+00 0. -1.
         35    2    1    2    0    0  0.00000000000E+00  0.00000000000E+00  0.16074752412E+04  0.16308885519E+04  0.27535580214E+03 0.  0.
         25    2    3    3    0    0 -0.17159421334E+02  0.52303589898E+02  0.68925873128E+03  0.70267864608E+03  0.12509824038E+03 0.  0.
         25    2    3    3    0    0  0.17159421334E+02 -0.52303589898E+02  0.91821650992E+03  0.92820990586E+03  0.12418518026E+03 0.  0.
          5    1    4    4  502    0  0.32580340662E+01  0.47226917743E+02  0.67535012055E+03  0.67702353863E+03  0.47000000000E+01 0.  1.
         -5    1    4    4    0  502 -0.20417455400E+02  0.50766721552E+01  0.13908610735E+02  0.25655107440E+02  0.47000000000E+01 0.  1.
          5    1    5    5  503    0 -0.40177729463E+02  0.99756718335E+01  0.16265146040E+03  0.16790280386E+03  0.47000000000E+01 0. -1.
         -5    1    5    5    0  503  0.57337150797E+02 -0.62279261732E+02  0.75556504952E+03  0.76030710200E+03  0.47000000000E+01 0. -1.
<mgrwt>
<rscale>  0 0.27535580E+03</rscale>
<asrwt>0</asrwt>
<pdfrwt beam="1">  1        1 0.18010252E-02 0.27535580E+03</pdfrwt>
<pdfrwt beam="2">  1       -1 0.24910473E+00 0.27535580E+03</pdfrwt>
<totfact> 0.56419511E+02</totfact>
</mgrwt>
</event>
<event>
 9    1  0.7816570E-001  0.2781853E+03  0.7818608E-02  0.1096684E+00
         -2   -1    0    0    0  501 -0.00000000000E+00  0.00000000000E+00  0.29242440736E+02  0.29242440736E+02  0.00000000000E+00 0.  1.
          2   -1    0    0  501    0  0.00000000000E+00 -0.00000000000E+00 -0.66159902268E+03  0.66159902268E+03  0.00000000000E+00 0.  1.
         35    2    1    2    0    0  0.00000000000E+00  0.00000000000E+00 -0.63235658194E+03  0.69084146342E+03  0.27818533543E+03 0.  0.
         25    2    3    3    0    0 -0.21539071260E+02  0.20694481860E+02 -0.18414147350E+03  0.22458553331E+03  0.12505353390E+03 0.  0.
         25    2    3    3    0    0  0.21539071260E+02 -0.20694481860E+02 -0.44821510844E+03  0.46625593010E+03  0.12492243893E+03 0.  0.
          5    1    4    4  502    0 -0.63308861115E+02 -0.23324606663E+02 -0.93099286149E+02  0.11507222190E+03  0.47000000000E+01 0. -1.
         -5    1    4    4    0  502  0.41769789855E+02  0.44019088524E+02 -0.91042187352E+02  0.10951331141E+03  0.47000000000E+01 0. -1.
          5    1    5    5  503    0  0.21512527515E+02  0.50657986190E+02 -0.23359259163E+03  0.24003460015E+03  0.47000000000E+01 0.  1.
         -5    1    5    5    0  503  0.26543744856E-01 -0.71352468050E+02 -0.21462251682E+03  0.22622132995E+03  0.47000000000E+01 0.  1.
<mgrwt>
<rscale>  0 0.27818534E+03</rscale>
<asrwt>0</asrwt>
<pdfrwt beam="1">  1        2 0.10178446E+00 0.27818534E+03</pdfrwt>
<pdfrwt beam="2">  1       -2 0.44988371E-02 0.27818534E+03</pdfrwt>
<totfact> 0.10292976E+04</totfact>
</mgrwt>
</event>
<event>
 9    1  0.7816570E-001  0.3042564E+03  0.7818608E-02  0.1083132E+00
         -1   -1    0    0    0  501 -0.00000000000E+00  0.00000000000E+00  0.11889960376E+02  0.11889960376E+02  0.00000000000E+00 0.  1.
          1   -1    0    0  501    0  0.00000000000E+00 -0.00000000000E+00 -0.19464309833E+04  0.19464309833E+04  0.00000000000E+00 0.  1.
         35    2    1    2    0    0  0.00000000000E+00  0.00000000000E+00 -0.19345410229E+04  0.19583209437E+04  0.30425638706E+03 0.  0.
         25    2    3    3    0    0 -0.76348545448E+02  0.33055481482E+02 -0.11093127899E+04  0.11194433321E+04  0.12512690591E+03 0.  0.
         25    2    3    3    0    0  0.76348545448E+02 -0.33055481482E+02 -0.82522823297E+03  0.83887761157E+03  0.12566720122E+03 0.  0.
          5    1    4    4  502    0 -0.86014085030E+02  0.43941270870E+02 -0.10922687636E+04  0.10965411073E+04  0.47000000000E+01 0.  1.
         -5    1    4    4    0  502  0.96655395818E+01 -0.10885789388E+02 -0.17044026394E+02  0.22902224820E+02  0.47000000000E+01 0.  1.
          5    1    5    5  503    0  0.11023080169E+03 -0.25137466441E+02 -0.55849363628E+03  0.56984204270E+03  0.47000000000E+01 0.  1.
         -5    1    5    5    0  503 -0.33882256237E+02 -0.79180150412E+01 -0.26673459669E+03  0.26903556888E+03  0.47000000000E+01 0.  1.
<mgrwt>
<rscale>  0 0.30425639E+03</rscale>
<asrwt>0</asrwt>
<pdfrwt beam="1">  1        1 0.29945118E+00 0.30425639E+03</pdfrwt>
<pdfrwt beam="2">  1       -1 0.18292231E-02 0.30425639E+03</pdfrwt>
<totfact> 0.28539425E+03</totfact>
</mgrwt>
</event>
<event>
 9    1  0.7816570E-001  0.2758351E+03  0.7818608E-02  0.1097986E+00
          2   -1    0    0  501    0  0.00000000000E+00  0.00000000000E+00  0.11446294647E+03  0.11446294647E+03  0.00000000000E+00 0.  1.
         -2   -1    0    0    0  501 -0.00000000000E+00 -0.00000000000E+00 -0.16617820528E+03  0.16617820528E+03  0.00000000000E+00 0.  1.
         35    2    1    2    0    0  0.00000000000E+00  0.71054273576E-14 -0.51715258808E+02  0.28064115175E+03  0.27583507403E+03 0.  0.
         25    2    3    3    0    0  0.23790914064E+02 -0.51705316178E+02 -0.41681320142E+02  0.14315576585E+03  0.12456642217E+03 0.  0.
         25    2    3    3    0    0 -0.23790914064E+02  0.51705316178E+02 -0.10033938666E+02  0.13748538591E+03  0.12474816271E+03 0.  0.
          5    1    4    4  502    0  0.34615039093E+02 -0.31354351394E+01  0.36335237401E+02  0.50501201589E+02  0.47000000000E+01 0. -1.
         -5    1    4    4    0  502 -0.10824125029E+02 -0.48569881038E+02 -0.78016557544E+02  0.92654564257E+02  0.47000000000E+01 0. -1.
          5    1    5    5  503    0  0.24852318155E+02  0.76022814787E+02 -0.18550346408E+02  0.82239354555E+02  0.47000000000E+01 0.  1.
         -5    1    5    5    0  503 -0.48643232219E+02 -0.24317498609E+02  0.85164077423E+01  0.55246031352E+02  0.47000000000E+01 0.  1.
<mgrwt>
<rscale>  0 0.27583507E+03</rscale>
<asrwt>0</asrwt>
<pdfrwt beam="1">  1        2 0.17609684E-01 0.27583507E+03</pdfrwt>
<pdfrwt beam="2">  1       -2 0.25565878E-01 0.27583507E+03</pdfrwt>
<totfact> 0.43738142E+03</totfact>
</mgrwt>
</event>
<event>
 9    1  0.7816570E-001  0.2734614E+03  0.7818608E-02  0.1099315E+00
          2   -1    0    0  501    0  0.00000000000E+00  0.00000000000E+00  0.21753069291E+03  0.21753069291E+03  0.00000000000E+00 0.  1.
         -2   -1    0    0    0  501 -0.00000000000E+00 -0.00000000000E+00 -0.85943189156E+02  0.85943189156E+02  0.00000000000E+00 0.  1.
         35    2    1    2    0    0 -0.35527136788E-14  0.00000000000E+00  0.13158750375E+03  0.30347388206E+03  0.27346137927E+03 0.  0.
         25    2    3    3    0    0  0.22278996499E+02  0.39041474623E+01  0.12251834751E+03  0.17670904731E+03  0.12531458763E+03 0.  0.
         25    2    3    3    0    0 -0.22278996499E+02 -0.39041474623E+01  0.90691562453E+01  0.12676483475E+03  0.12440047300E+03 0.  0.
          5    1    4    4  502    0 -0.37295724832E+02  0.35431429335E+02  0.84889062387E+02  0.99371022881E+02  0.47000000000E+01 0.  1.
         -5    1    4    4    0  502  0.59574721332E+02 -0.31527281873E+02  0.37629285119E+02  0.77338024429E+02  0.47000000000E+01 0.  1.
          5    1    5    5  503    0  0.13951803312E+02  0.20582091147E+02  0.56604894282E+02  0.62003865591E+02  0.47000000000E+01 0.  1.
         -5    1    5    5    0  503 -0.36230799811E+02 -0.24486238610E+02 -0.47535738036E+02  0.64760969162E+02  0.47000000000E+01 0.  1.
<mgrwt>
<rscale>  0 0.27346138E+03</rscale>
<asrwt>0</asrwt>
<pdfrwt beam="1">  1        2 0.33466260E-01 0.27346138E+03</pdfrwt>
<pdfrwt beam="2">  1       -2 0.13222029E-01 0.27346138E+03</pdfrwt>
<totfact> 0.65027389E+03</totfact>
</mgrwt>
</event>
<event>
 9    1  0.7816570E-001  0.2756494E+03  0.7818608E-02  0.1098089E+00
          1   -1    0    0  501    0  0.00000000000E+00  0.00000000000E+00  0.45481094071E+03  0.45481094071E+03  0.00000000000E+00 0. -1.
         -1   -1    0    0    0  501 -0.00000000000E+00 -0.00000000000E+00 -0.41766018486E+02  0.41766018486E+02  0.00000000000E+00 0. -1.
         35    2    1    2    0    0  0.00000000000E+00  0.35527136788E-14  0.41304492223E+03  0.49657695920E+03  0.27564935812E+03 0.  0.
         25    2    3    3    0    0  0.46694551725E+02  0.60427024967E+01  0.14574521117E+03  0.19764402487E+03  0.12491836764E+03 0.  0.
         25    2    3    3    0    0 -0.46694551725E+02 -0.60427024967E+01  0.26729971105E+03  0.29893293433E+03  0.12527916141E+03 0.  0.
          5    1    4    4  502    0  0.55888754122E+02 -0.48453135690E+02  0.10627812664E+03  0.12957001736E+03  0.47000000000E+01 0. -1.
         -5    1    4    4    0  502 -0.91942023974E+01  0.54495838187E+02  0.39467084532E+02  0.68074007513E+02  0.47000000000E+01 0. -1.
          5    1    5    5  503    0 -0.33350505000E+02  0.29948857350E+02  0.21188569787E+02  0.49801965122E+02  0.47000000000E+01 0.  1.
         -5    1    5    5    0  503 -0.13344046724E+02 -0.35991559847E+02  0.24611114127E+03  0.24913096921E+03  0.47000000000E+01 0.  1.
<mgrwt>
<rscale>  0 0.27564936E+03</rscale>
<asrwt>0</asrwt>
<pdfrwt beam="1">  1        1 0.69970910E-01 0.27564936E+03</pdfrwt>
<pdfrwt beam="2">  1       -1 0.64255416E-02 0.27564936E+03</pdfrwt>
<totfact> 0.61357481E+03</totfact>
</mgrwt>
</event>
<event>
 9    1  0.7816570E-001  0.2747833E+03  0.7818608E-02  0.1098573E+00
         -2   -1    0    0    0  501 -0.00000000000E+00  0.00000000000E+00  0.21926657628E+02  0.21926657628E+02  0.00000000000E+00 0. -1.
          2   -1    0    0  501    0  0.00000000000E+00 -0.00000000000E+00 -0.86089100709E+03  0.86089100709E+03  0.00000000000E+00 0. -1.
         35    2    1    2    0    0  0.00000000000E+00  0.00000000000E+00 -0.83896434947E+03  0.88281766472E+03  0.27478327728E+03 0.  0.
         25    2    3    3    0    0 -0.38203042846E+02  0.35583402227E+01 -0.55488612315E+03  0.57010102647E+03  0.12507772162E+03 0.  0.
         25    2    3    3    0    0  0.38203042846E+02 -0.35583402227E+01 -0.28407822632E+03  0.31271663825E+03  0.12497648942E+03 0.  0.
          5    1    4    4  502    0 -0.57273713497E+02  0.46645121647E+01 -0.54507872967E+03  0.54811946459E+03  0.47000000000E+01 0. -1.
         -5    1    4    4    0  502  0.19070670651E+02 -0.11061719419E+01 -0.98073934831E+01  0.21981561873E+02  0.47000000000E+01 0. -1.
          5    1    5    5  503    0  0.42558085165E+02  0.18190474935E+02 -0.28618916122E+03  0.28994552935E+03  0.47000000000E+01 0. -1.
         -5    1    5    5    0  503 -0.43550423187E+01 -0.21748815158E+02  0.21109349072E+01  0.22771108901E+02  0.47000000000E+01 0. -1.
<mgrwt>
<rscale>  0 0.27478328E+03</rscale>
<asrwt>0</asrwt>
<pdfrwt beam="1">  1        2 0.13244476E+00 0.27478328E+03</pdfrwt>
<pdfrwt beam="2">  1       -2 0.33733322E-02 0.27478328E+03</pdfrwt>
<totfact> 0.11418188E+04</totfact>
</mgrwt>
</event>
<event>
 9    1  0.7816570E-001  0.2775594E+03  0.7818608E-02  0.1097029E+00
         -1   -1    0    0    0  501 -0.00000000000E+00  0.00000000000E+00  0.27457018556E+03  0.27457018556E+03  0.00000000000E+00 0.  1.
          1   -1    0    0  501    0  0.00000000000E+00 -0.00000000000E+00 -0.70145294672E+02  0.70145294672E+02  0.00000000000E+00 0.  1.
         35    2    1    2    0    0  0.14210854715E-13  0.10658141036E-13  0.20442489089E+03  0.34471548023E+03  0.27755941039E+03 0.  0.
         25    2    3    3    0    0 -0.39516443549E+02 -0.73103719107E+01  0.15782986152E+03  0.20538098420E+03  0.12512430873E+03 0.  0.
         25    2    3    3    0    0  0.39516443549E+02  0.73103719107E+01  0.46595029364E+02  0.13933449603E+03  0.12501205612E+03 0.  0.
          5    1    4    4  502    0 -0.28865972537E+02 -0.15304839702E+02  0.17784663652E+03  0.18088393685E+03  0.47000000000E+01 0.  1.
         -5    1    4    4    0  502 -0.10650471013E+02  0.79944677911E+01 -0.20016774993E+02  0.24497047356E+02  0.47000000000E+01 0.  1.
          5    1    5    5  503    0  0.17801406504E+02  0.65833684373E+02  0.29424570994E+02  0.74423514092E+02  0.47000000000E+01 0.  1.
         -5    1    5    5    0  503  0.21715037045E+02 -0.58523312462E+02  0.17170458370E+02  0.64910981937E+02  0.47000000000E+01 0.  1.
<mgrwt>
<rscale>  0 0.27755941E+03</rscale>
<asrwt>0</asrwt>
<pdfrwt beam="1">  1        1 0.10791584E-01 0.27755941E+03</pdfrwt>
<pdfrwt beam="2">  1       -1 0.42241566E-01 0.27755941E+03</pdfrwt>
<totfact> 0.32269653E+03</totfact>
</mgrwt>
</event>
<event>
 9    1  0.7816570E-001  0.2752945E+03  0.7818608E-02  0.1098287E+00
          2   -1    0    0  501    0  0.00000000000E+00  0.00000000000E+00  0.89427054687E+02  0.89427054687E+02  0.00000000000E+00 0.  1.
         -2   -1    0    0    0  501 -0.00000000000E+00 -0.00000000000E+00 -0.21186843486E+03  0.21186843486E+03  0.00000000000E+00 0.  1.
         35    2    1    2    0    0  0.00000000000E+00  0.71054273576E-14 -0.12244138017E+03  0.30129548955E+03  0.27529453399E+03 0.  0.
         25    2    3    3    0    0  0.46767772710E+02  0.30586144418E+02 -0.64992627399E+02  0.15252294948E+03  0.12616049979E+03 0.  0.
         25    2    3    3    0    0 -0.46767772710E+02 -0.30586144418E+02 -0.57448752775E+02  0.14877254007E+03  0.12534022773E+03 0.  0.
          5    1    4    4  502    0 -0.34598651903E+02 -0.21735400387E+02 -0.19809627911E+02  0.45650911288E+02  0.47000000000E+01 0. -1.
         -5    1    4    4    0  502  0.81366424613E+02  0.52321544805E+02 -0.45182999488E+02  0.10687203819E+03  0.47000000000E+01 0. -1.
          5    1    5    5  503    0 -0.57081101811E+02 -0.49637864329E+02 -0.84689826470E+02  0.11365133729E+03  0.47000000000E+01 0. -1.
         -5    1    5    5    0  503  0.10313329100E+02  0.19051719911E+02  0.27241073695E+02  0.35121202781E+02  0.47000000000E+01 0. -1.
<mgrwt>
<rscale>  0 0.27529453E+03</rscale>
<asrwt>0</asrwt>
<pdfrwt beam="1">  1        2 0.13758008E-01 0.27529453E+03</pdfrwt>
<pdfrwt beam="2">  1       -2 0.32595144E-01 0.27529453E+03</pdfrwt>
<totfact> 0.37750619E+03</totfact>
</mgrwt>
</event>
<event>
 9    1  0.7816570E-001  0.2790506E+03  0.7818608E-02  0.1096209E+00
         -1   -1    0    0    0  501 -0.00000000000E+00  0.00000000000E+00  0.17987595575E+03  0.17987595575E+03  0.00000000000E+00 0. -1.
          1   -1    0    0  501    0  0.00000000000E+00 -0.00000000000E+00 -0.10822628355E+03  0.10822628355E+03  0.00000000000E+00 0. -1.
         35    2    1    2    0    0 -0.71054273576E-14  0.71054273576E-14  0.71649672194E+02  0.28810223930E+03  0.27905057743E+03 0.  0.
         25    2    3    3    0    0  0.11486202295E+02  0.15587625519E+02 -0.27235923110E+02  0.12884411896E+03  0.12443514202E+03 0.  0.
         25    2    3    3    0    0 -0.11486202295E+02 -0.15587625519E+02  0.98885595304E+02  0.15925812034E+03  0.12332834639E+03 0.  0.
          5    1    4    4  502    0 -0.38287981938E+02 -0.19624810104E+02 -0.47653549752E+02  0.64374323581E+02  0.47000000000E+01 0. -1.
         -5    1    4    4    0  502  0.49774184233E+02  0.35212435624E+02  0.20417626642E+02  0.64469795380E+02  0.47000000000E+01 0. -1.
          5    1    5    5  503    0 -0.60209731641E+02 -0.26859832386E+02  0.83963001900E+02  0.10685755972E+03  0.47000000000E+01 0. -1.
         -5    1    5    5    0  503  0.48723529346E+02  0.11272206867E+02  0.14922593403E+02  0.52400560622E+02  0.47000000000E+01 0. -1.
<mgrwt>
<rscale>  0 0.27905058E+03</rscale>
<asrwt>0</asrwt>
<pdfrwt beam="1">  1        1 0.16650197E-01 0.27905058E+03</pdfrwt>
<pdfrwt beam="2">  1       -1 0.27673224E-01 0.27905058E+03</pdfrwt>
<totfact> 0.37890556E+03</totfact>
</mgrwt>
</event>
<event>
 9    1  0.7816570E-001  0.2743764E+03  0.7818608E-02  0.1098801E+00
          1   -1    0    0  501    0  0.00000000000E+00  0.00000000000E+00  0.85250022801E+02  0.85250022801E+02  0.00000000000E+00 0.  1.
         -1   -1    0    0    0  501 -0.00000000000E+00 -0.00000000000E+00 -0.22076941297E+03  0.22076941297E+03  0.00000000000E+00 0.  1.
         35    2    1    2    0    0  0.35527136788E-14  0.71054273576E-14 -0.13551939017E+03  0.30601943577E+03  0.27437636552E+03 0.  0.
         25    2    3    3    0    0  0.13699669430E+02 -0.33942287595E+02 -0.20212668575E+02  0.13189542741E+03  0.12509233379E+03 0.  0.
         25    2    3    3    0    0 -0.13699669430E+02  0.33942287595E+02 -0.11530672159E+03  0.17412400836E+03  0.12523486101E+03 0.  0.
          5    1    4    4  502    0  0.67422040950E+02 -0.89263820636E+01 -0.24135384177E+02  0.72318868022E+02  0.47000000000E+01 0.  1.
         -5    1    4    4    0  502 -0.53722371520E+02 -0.25015905531E+02  0.39227156028E+01  0.59576559392E+02  0.47000000000E+01 0.  1.
          5    1    5    5  503    0 -0.12876536997E+02  0.81508235935E+02 -0.74394701666E+02  0.11120278489E+03  0.47000000000E+01 0.  1.
         -5    1    5    5    0  503 -0.82313243293E+00 -0.47565948340E+02 -0.40912019928E+02  0.62921223471E+02  0.47000000000E+01 0.  1.
<mgrwt>
<rscale>  0 0.27437637E+03</rscale>
<asrwt>0</asrwt>
<pdfrwt beam="1">  1        1 0.13115388E-01 0.27437637E+03</pdfrwt>
<pdfrwt beam="2">  1       -1 0.33964525E-01 0.27437637E+03</pdfrwt>
<totfact> 0.36527869E+03</totfact>
</mgrwt>
</event>
<event>
 9    1  0.7816570E-001  0.2710045E+03  0.7818608E-02  0.1100706E+00
         -2   -1    0    0    0  501 -0.00000000000E+00  0.00000000000E+00  0.77251572895E+01  0.77251572895E+01  0.00000000000E+00 0.  1.
          2   -1    0    0  501    0  0.00000000000E+00 -0.00000000000E+00 -0.23767616552E+04  0.23767616552E+04  0.00000000000E+00 0.  1.
         35    2    1    2    0    0  0.00000000000E+00  0.00000000000E+00 -0.23690364979E+04  0.23844868125E+04  0.27100448429E+03 0.  0.
         25    2    3    3    0    0  0.83928678694E+00 -0.47114692201E+02 -0.10165861044E+04  0.10255075293E+04  0.12648275114E+03 0.  0.
         25    2    3    3    0    0 -0.83928678694E+00  0.47114692201E+02 -0.13524503935E+04  0.13589792831E+04  0.12442719418E+03 0.  0.
          5    1    4    4  502    0 -0.31739732909E+02 -0.17701437078E+02 -0.81262043934E+02  0.89142365372E+02  0.47000000000E+01 0.  1.
         -5    1    4    4    0  502  0.32579019696E+02 -0.29413255123E+02 -0.93532406050E+03  0.93636516394E+03  0.47000000000E+01 0.  1.
          5    1    5    5  503    0 -0.42169728454E+02 -0.20421140596E+02 -0.72632072754E+03  0.72784558681E+03  0.47000000000E+01 0.  1.
         -5    1    5    5    0  503  0.41330441667E+02  0.67535832797E+02 -0.62612966591E+03  0.63113369634E+03  0.47000000000E+01 0.  1.
<mgrwt>
<rscale>  0 0.27100448E+03</rscale>
<asrwt>0</asrwt>
<pdfrwt beam="1">  1        2 0.36565625E+00 0.27100448E+03</pdfrwt>
<pdfrwt beam="2">  1       -2 0.11884838E-02 0.27100448E+03</pdfrwt>
<totfact> 0.77604497E+03</totfact>
</mgrwt>
</event>
<event>
 9    1  0.7816570E-001  0.2692581E+03  0.7818608E-02  0.1101705E+00
         -4   -1    0    0    0  501 -0.00000000000E+00  0.00000000000E+00  0.19660311261E+03  0.19660311261E+03  0.00000000000E+00 0. -1.
          4   -1    0    0  501    0  0.00000000000E+00 -0.00000000000E+00 -0.92190698824E+02  0.92190698824E+02  0.00000000000E+00 0. -1.
         35    2    1    2    0    0 -0.35527136788E-14 -0.71054273576E-14  0.10441241379E+03  0.28879381144E+03  0.26925807949E+03 0.  0.
         25    2    3    3    0    0  0.27487905490E+02 -0.42009310020E+02  0.49234130333E+02  0.14326184987E+03  0.12481823169E+03 0.  0.
         25    2    3    3    0    0 -0.27487905490E+02  0.42009310020E+02  0.55178283457E+02  0.14553196157E+03  0.12495816018E+03 0.  0.
          5    1    4    4  502    0 -0.33173965148E+02 -0.18724809825E+02  0.65678460323E+02  0.76071549327E+02  0.47000000000E+01 0.  1.
         -5    1    4    4    0  502  0.60661870638E+02 -0.23284500195E+02 -0.16444329990E+02  0.67190300546E+02  0.47000000000E+01 0.  1.
          5    1    5    5  503    0 -0.49028951639E+02  0.54176590515E+02  0.81188960635E+02  0.10932830552E+03  0.47000000000E+01 0. -1.
         -5    1    5    5    0  503  0.21541046149E+02 -0.12167280495E+02 -0.26010677178E+02  0.36203656046E+02  0.47000000000E+01 0. -1.
<mgrwt>
<rscale>  0 0.26925808E+03</rscale>
<asrwt>0</asrwt>
<pdfrwt beam="1">  1        4 0.14183185E-01 0.26925808E+03</pdfrwt>
<pdfrwt beam="2">  1       -4 0.30246633E-01 0.26925808E+03</pdfrwt>
<totfact> 0.81394194E+02</totfact>
</mgrwt>
</event>
<event>
 9    1  0.7816570E-001  0.2849628E+03  0.7818608E-02  0.1093009E+00
         -2   -1    0    0    0  501 -0.00000000000E+00  0.00000000000E+00  0.16133698952E+03  0.16133698952E+03  0.00000000000E+00 0. -1.
          2   -1    0    0  501    0  0.00000000000E+00 -0.00000000000E+00 -0.12582947972E+03  0.12582947972E+03  0.00000000000E+00 0. -1.
         35    2    1    2    0    0 -0.17763568394E-14  0.00000000000E+00  0.35507509805E+02  0.28716646924E+03  0.28496280074E+03 0.  0.
         25    2    3    3    0    0 -0.38930567171E+01 -0.65593024347E+02  0.36159068391E+02  0.14548954210E+03  0.12466807089E+03 0.  0.
         25    2    3    3    0    0  0.38930567171E+01  0.65593024347E+02 -0.65155858540E+00  0.14167692714E+03  0.12551623968E+03 0.  0.
          5    1    4    4  502    0  0.43359471828E+01  0.90425798963E+01  0.64237981290E+02  0.65185711083E+02  0.47000000000E+01 0.  1.
         -5    1    4    4    0  502 -0.82290038999E+01 -0.74635604243E+02 -0.28078912899E+02  0.80303831014E+02  0.47000000000E+01 0.  1.
          5    1    5    5  503    0  0.32331074263E+02 -0.28433215049E+02  0.88310785211E+00  0.43319925675E+02  0.47000000000E+01 0.  1.
         -5    1    5    5    0  503 -0.28438017546E+02  0.94026239396E+02 -0.15346664375E+01  0.98357001469E+02  0.47000000000E+01 0.  1.
<mgrwt>
<rscale>  0 0.28496280E+03</rscale>
<asrwt>0</asrwt>
<pdfrwt beam="1">  1        2 0.19358381E-01 0.28496280E+03</pdfrwt>
<pdfrwt beam="2">  1       -2 0.24821075E-01 0.28496280E+03</pdfrwt>
<totfact> 0.41345061E+03</totfact>
</mgrwt>
</event>
<event>
 9    1  0.7816570E-001  0.2776740E+03  0.7818608E-02  0.1096966E+00
          2   -1    0    0  501    0  0.00000000000E+00  0.00000000000E+00  0.24115904110E+04  0.24115904110E+04  0.00000000000E+00 0. -1.
         -2   -1    0    0    0  501 -0.00000000000E+00 -0.00000000000E+00 -0.79929439459E+01  0.79929439459E+01  0.00000000000E+00 0. -1.
         35    2    1    2    0    0 -0.35527136788E-14  0.14210854715E-13  0.24035974671E+04  0.24195833549E+04  0.27767395971E+03 0.  0.
         25    2    3    3    0    0  0.19141207524E+02 -0.43651559895E+02  0.89039860440E+03  0.90039183675E+03  0.12499576176E+03 0.  0.
         25    2    3    3    0    0 -0.19141207524E+02  0.43651559895E+02  0.15131988627E+04  0.15191915182E+04  0.12609610034E+03 0.  0.
          5    1    4    4  502    0 -0.10329292783E+02  0.29120907444E+02  0.55559636256E+03  0.55647473404E+03  0.47000000000E+01 0.  1.
         -5    1    4    4    0  502  0.29470500306E+02 -0.72772467340E+02  0.33480224184E+03  0.34391710271E+03  0.47000000000E+01 0.  1.
          5    1    5    5  503    0  0.12816034068E+02 -0.30655113409E+02  0.90469168940E+03  0.90531382934E+03  0.47000000000E+01 0. -1.
         -5    1    5    5    0  503 -0.31957241592E+02  0.74306673305E+02  0.60850717325E+03  0.61387768886E+03  0.47000000000E+01 0. -1.
<mgrwt>
<rscale>  0 0.27767396E+03</rscale>
<asrwt>0</asrwt>
<pdfrwt beam="1">  1        2 0.37101333E+00 0.27767396E+03</pdfrwt>
<pdfrwt beam="2">  1       -2 0.12296856E-02 0.27767396E+03</pdfrwt>
<totfact> 0.70705158E+03</totfact>
</mgrwt>
</event>
<event>
 9    1  0.7816570E-001  0.2735600E+03  0.7818608E-02  0.1099259E+00
         -4   -1    0    0    0  501 -0.00000000000E+00  0.00000000000E+00  0.31220155704E+03  0.31220155704E+03  0.00000000000E+00 0.  1.
          4   -1    0    0  501    0  0.00000000000E+00 -0.00000000000E+00 -0.59925272587E+02  0.59925272587E+02  0.00000000000E+00 0.  1.
         35    2    1    2    0    0 -0.71054273576E-14  0.00000000000E+00  0.25227628445E+03  0.37212682962E+03  0.27355996350E+03 0.  0.
         25    2    3    3    0    0  0.31522908353E+02 -0.17294787458E+02  0.18162386209E+03  0.22401059032E+03  0.12609803279E+03 0.  0.
         25    2    3    3    0    0 -0.31522908353E+02  0.17294787458E+02  0.70652422364E+02  0.14811623930E+03  0.12511535531E+03 0.  0.
          5    1    4    4  502    0 -0.38283116761E+02  0.59620870436E-01  0.13128847749E+02  0.40743799857E+02  0.47000000000E+01 0.  1.
         -5    1    4    4    0  502  0.69806025114E+02 -0.17354408328E+02  0.16849501434E+03  0.18326679047E+03  0.47000000000E+01 0.  1.
          5    1    5    5  503    0  0.77860797931E+01 -0.10053390462E+02  0.93762545290E+02  0.94737524759E+02  0.47000000000E+01 0.  1.
         -5    1    5    5    0  503 -0.39308988146E+02  0.27348177920E+02 -0.23110122926E+02  0.53378714543E+02  0.47000000000E+01 0.  1.
<mgrwt>
<rscale>  0 0.27355996E+03</rscale>
<asrwt>0</asrwt>
<pdfrwt beam="1">  1        4 0.92192728E-02 0.27355996E+03</pdfrwt>
<pdfrwt beam="2">  1       -4 0.48031008E-01 0.27355996E+03</pdfrwt>
<totfact> 0.68672799E+02</totfact>
</mgrwt>
</event>
<event>
 9    1  0.7816570E-001  0.2759509E+03  0.7818608E-02  0.1097921E+00
          2   -1    0    0  501    0  0.00000000000E+00  0.00000000000E+00  0.83227142725E+03  0.83227142725E+03  0.00000000000E+00 0.  1.
         -2   -1    0    0    0  501 -0.00000000000E+00 -0.00000000000E+00 -0.22873817669E+02  0.22873817669E+02  0.00000000000E+00 0.  1.
         35    2    1    2    0    0  0.35527136788E-14  0.00000000000E+00  0.80939760958E+03  0.85514524492E+03  0.27595090055E+03 0.  0.
         25    2    3    3    0    0 -0.17983196269E+02  0.34881799729E+02  0.27296251438E+03  0.30284874565E+03  0.12517465072E+03 0.  0.
         25    2    3    3    0    0  0.17983196269E+02 -0.34881799729E+02  0.53643509520E+03  0.55229649927E+03  0.12541402012E+03 0.  0.
          5    1    4    4  502    0 -0.61380903283E+02 -0.54912090340E+01  0.19648626118E+03  0.20597744900E+03  0.47000000000E+01 0.  1.
         -5    1    4    4    0  502  0.43397707014E+02  0.40373008763E+02  0.76476253201E+02  0.96871296648E+02  0.47000000000E+01 0.  1.
          5    1    5    5  503    0 -0.30866003534E+02  0.13244235211E+02  0.46448399379E+02  0.57512292124E+02  0.47000000000E+01 0. -1.
         -5    1    5    5    0  503  0.48849199803E+02 -0.48126034939E+02  0.48998669582E+03  0.49478420715E+03  0.47000000000E+01 0. -1.
<mgrwt>
<rscale>  0 0.27595090E+03</rscale>
<asrwt>0</asrwt>
<pdfrwt beam="1">  1        2 0.12804174E+00 0.27595090E+03</pdfrwt>
<pdfrwt beam="2">  1       -2 0.35190495E-02 0.27595090E+03</pdfrwt>
<totfact> 0.11202687E+04</totfact>
</mgrwt>
</event>
<event>
 9    1  0.7816570E-001  0.2798117E+03  0.7818608E-02  0.1095792E+00
         -2   -1    0    0    0  501 -0.00000000000E+00  0.00000000000E+00  0.28596885573E+03  0.28596885573E+03  0.00000000000E+00 0.  1.
          2   -1    0    0  501    0  0.00000000000E+00 -0.00000000000E+00 -0.68446778980E+02  0.68446778980E+02  0.00000000000E+00 0.  1.
         35    2    1    2    0    0  0.00000000000E+00 -0.71054273576E-14  0.21752207675E+03  0.35441563471E+03  0.27981170142E+03 0.  0.
         25    2    3    3    0    0 -0.28296658511E+02 -0.55662779074E+02  0.12680825987E+03  0.18777745204E+03  0.12361630501E+03 0.  0.
         25    2    3    3    0    0  0.28296658511E+02  0.55662779074E+02  0.90713816883E+02  0.16663818267E+03  0.12506095112E+03 0.  0.
          5    1    4    4  502    0 -0.17386830756E+02  0.39038387316E+02  0.36934127542E+02  0.56679073257E+02  0.47000000000E+01 0.  1.
         -5    1    4    4    0  502 -0.10909827755E+02 -0.94701166390E+02  0.89874132324E+02  0.13109837878E+03  0.47000000000E+01 0.  1.
          5    1    5    5  503    0  0.16550018124E+02  0.92894161887E+02  0.84651815747E+02  0.12685128427E+03  0.47000000000E+01 0. -1.
         -5    1    5    5    0  503  0.11746640387E+02 -0.37231382813E+02  0.60620011359E+01  0.39786898400E+02  0.47000000000E+01 0. -1.
<mgrwt>
<rscale>  0 0.27981170E+03</rscale>
<asrwt>0</asrwt>
<pdfrwt beam="1">  1        2 0.10530274E-01 0.27981170E+03</pdfrwt>
<pdfrwt beam="2">  1       -2 0.43995208E-01 0.27981170E+03</pdfrwt>
<totfact> 0.29650426E+03</totfact>
</mgrwt>
</event>
<event>
 9    1  0.7816570E-001  0.2762656E+03  0.7818608E-02  0.1097746E+00
         -4   -1    0    0    0  501 -0.00000000000E+00  0.00000000000E+00  0.26423583032E+04  0.26423583032E+04  0.00000000000E+00 0.  1.
          4   -1    0    0  501    0  0.00000000000E+00 -0.00000000000E+00 -0.72210753072E+01  0.72210753072E+01  0.00000000000E+00 0.  1.
         35    2    1    2    0    0  0.00000000000E+00  0.00000000000E+00  0.26351372279E+04  0.26495793785E+04  0.27626558451E+03 0.  0.
         25    2    3    3    0    0 -0.36277852971E+02  0.39633910915E+02  0.15556161236E+04  0.15615233016E+04  0.12460564919E+03 0.  0.
         25    2    3    3    0    0  0.36277852971E+02 -0.39633910915E+02  0.10795211043E+04  0.10880560770E+04  0.12495312101E+03 0.  0.
          5    1    4    4  502    0  0.31674335192E+02  0.61957502832E+01  0.10239925051E+04  0.10245117819E+04  0.47000000000E+01 0.  1.
         -5    1    4    4    0  502 -0.67952188162E+02  0.33438160632E+02  0.53162361855E+03  0.53701151967E+03  0.47000000000E+01 0.  1.
          5    1    5    5  503    0 -0.38706402387E+02 -0.37926600243E+02  0.62516862208E+03  0.62753048422E+03  0.47000000000E+01 0.  1.
         -5    1    5    5    0  503  0.74984255357E+02 -0.17073106722E+01  0.45435248223E+03  0.46052559274E+03  0.47000000000E+01 0.  1.
<mgrwt>
<rscale>  0 0.27626558E+03</rscale>
<asrwt>0</asrwt>
<pdfrwt beam="1">  1        4 0.11109368E-02 0.27626558E+03</pdfrwt>
<pdfrwt beam="2">  1       -4 0.40651589E+00 0.27626558E+03</pdfrwt>
<totfact> 0.36369725E+01</totfact>
</mgrwt>
</event>
<event>
 9    1  0.7816570E-001  0.2748985E+03  0.7818608E-02  0.1098508E+00
         -2   -1    0    0    0  501 -0.00000000000E+00  0.00000000000E+00  0.93149958044E+02  0.93149958044E+02  0.00000000000E+00 0. -1.
          2   -1    0    0  501    0  0.00000000000E+00 -0.00000000000E+00 -0.20281591229E+03  0.20281591229E+03  0.00000000000E+00 0. -1.
         35    2    1    2    0    0  0.00000000000E+00  0.71054273576E-14 -0.10966595425E+03  0.29596587033E+03  0.27489848105E+03 0.  0.
         25    2    3    3    0    0 -0.49099535556E+02  0.23314990556E+02 -0.44223932709E+02  0.14468183856E+03  0.12658090301E+03 0.  0.
         25    2    3    3    0    0  0.49099535556E+02 -0.23314990556E+02 -0.65442021537E+02  0.15128403178E+03  0.12509934816E+03 0.  0.
          5    1    4    4  502    0 -0.60974854178E+02  0.64454423985E+02 -0.48788718428E+02  0.10136436583E+03  0.47000000000E+01 0.  1.
         -5    1    4    4    0  502  0.11875318622E+02 -0.41139433429E+02  0.45647857195E+01  0.43317472732E+02  0.47000000000E+01 0.  1.
          5    1    5    5  503    0 -0.15994437663E+02 -0.24359844496E+02  0.25728508186E+02  0.39156994184E+02  0.47000000000E+01 0. -1.
         -5    1    5    5    0  503  0.65093973219E+02  0.10448539399E+01 -0.91170529723E+02  0.11212703759E+03  0.47000000000E+01 0. -1.
<mgrwt>
<rscale>  0 0.27489848E+03</rscale>
<asrwt>0</asrwt>
<pdfrwt beam="1">  1        2 0.31202448E-01 0.27489848E+03</pdfrwt>
<pdfrwt beam="2">  1       -2 0.14330763E-01 0.27489848E+03</pdfrwt>
<totfact> 0.61535103E+03</totfact>
</mgrwt>
</event>
<event>
 9    1  0.7816570E-001  0.2710307E+03  0.7818608E-02  0.1100691E+00
         -1   -1    0    0    0  501 -0.00000000000E+00  0.00000000000E+00  0.10279913773E+04  0.10279913773E+04  0.00000000000E+00 0. -1.
          1   -1    0    0  501    0  0.00000000000E+00 -0.00000000000E+00 -0.17864366415E+02  0.17864366415E+02  0.00000000000E+00 0. -1.
         35    2    1    2    0    0  0.00000000000E+00  0.35527136788E-14  0.10101270108E+04  0.10458557437E+04  0.27103073357E+03 0.  0.
         25    2    3    3    0    0 -0.36940325852E+02 -0.31302716511E+02  0.63044747747E+03  0.64300152540E+03  0.11680107914E+03 0.  0.
         25    2    3    3    0    0  0.36940325852E+02  0.31302716511E+02  0.37967953338E+03  0.40285421827E+03  0.12566035723E+03 0.  0.
          5    1    4    4  502    0 -0.27601782183E+02  0.37893850705E+02  0.38171134716E+03  0.38460817055E+03  0.47000000000E+01 0. -1.
         -5    1    4    4    0  502 -0.93385436686E+01 -0.69196567216E+02  0.24873613030E+03  0.25839335485E+03  0.47000000000E+01 0. -1.
          5    1    5    5  503    0  0.20036632828E+02 -0.28897791122E+02  0.26840170782E+02  0.44486332220E+02  0.47000000000E+01 0. -1.
         -5    1    5    5    0  503  0.16903693024E+02  0.60200507633E+02  0.35283936259E+03  0.35836788605E+03  0.47000000000E+01 0. -1.
<mgrwt>
<rscale>  0 0.27103073E+03</rscale>
<asrwt>0</asrwt>
<pdfrwt beam="1">  1        1 0.27483649E-02 0.27103073E+03</pdfrwt>
<pdfrwt beam="2">  1       -1 0.15815247E+00 0.27103073E+03</pdfrwt>
<totfact> 0.12656633E+03</totfact>
</mgrwt>
</event>
<event>
 9    1  0.7816570E-001  0.2709606E+03  0.7818608E-02  0.1100731E+00
          1   -1    0    0  501    0  0.00000000000E+00  0.00000000000E+00  0.78622267373E+03  0.78622267373E+03  0.00000000000E+00 0.  1.
         -1   -1    0    0    0  501 -0.00000000000E+00 -0.00000000000E+00 -0.23345695171E+02  0.23345695171E+02  0.00000000000E+00 0.  1.
         35    2    1    2    0    0  0.21316282073E-13 -0.10658141036E-13  0.76287697856E+03  0.80956836890E+03  0.27096062354E+03 0.  0.
         25    2    3    3    0    0 -0.47709426706E+02  0.17788333987E+02  0.36391219190E+03  0.38821999710E+03  0.12526000365E+03 0.  0.
         25    2    3    3    0    0  0.47709426706E+02 -0.17788333987E+02  0.39896478666E+03  0.42134837180E+03  0.12557442097E+03 0.  0.
          5    1    4    4  502    0 -0.80726162795E+02 -0.16527956040E+02  0.17728071020E+03  0.19555159651E+03  0.47000000000E+01 0.  1.
         -5    1    4    4    0  502  0.33016736089E+02  0.34316290027E+02  0.18663148170E+03  0.19266840059E+03  0.47000000000E+01 0.  1.
          5    1    5    5  503    0  0.38529472249E+02 -0.59144481400E+02  0.34700758461E+03  0.35414537085E+03  0.47000000000E+01 0. -1.
         -5    1    5    5    0  503  0.91799544569E+01  0.41356147413E+02  0.51957202042E+02  0.67203000950E+02  0.47000000000E+01 0. -1.
<mgrwt>
<rscale>  0 0.27096062E+03</rscale>
<asrwt>0</asrwt>
<pdfrwt beam="1">  1        1 0.12095731E+00 0.27096062E+03</pdfrwt>
<pdfrwt beam="2">  1       -1 0.35916460E-02 0.27096062E+03</pdfrwt>
<totfact> 0.68168173E+03</totfact>
</mgrwt>
</event>
<event>
 9    1  0.7816570E-001  0.2748045E+03  0.7818608E-02  0.1098561E+00
         -2   -1    0    0    0  501 -0.00000000000E+00  0.00000000000E+00  0.17932270201E+02  0.17932270201E+02  0.00000000000E+00 0. -1.
          2   -1    0    0  501    0  0.00000000000E+00 -0.00000000000E+00 -0.10528158209E+04  0.10528158209E+04  0.00000000000E+00 0. -1.
         35    2    1    2    0    0  0.71054273576E-14  0.00000000000E+00 -0.10348835507E+04  0.10707480911E+04  0.27480449611E+03 0.  0.
         25    2    3    3    0    0 -0.12334071039E+02  0.12534866196E+01 -0.29820565029E+03  0.32366698065E+03  0.12521982254E+03 0.  0.
         25    2    3    3    0    0  0.12334071039E+02 -0.12534866196E+01 -0.73667790036E+03  0.74708111041E+03  0.12362101808E+03 0.  0.
          5    1    4    4  502    0 -0.61020976779E+02  0.29909116786E+02 -0.18305462940E+03  0.19531820760E+03  0.47000000000E+01 0.  1.
         -5    1    4    4    0  502  0.48686905740E+02 -0.28655630166E+02 -0.11515102089E+03  0.12834877305E+03  0.47000000000E+01 0.  1.
          5    1    5    5  503    0 -0.29915598688E+02  0.48957185270E+02 -0.29970367462E+03  0.30518212860E+03  0.47000000000E+01 0.  1.
         -5    1    5    5    0  503  0.42249669727E+02 -0.50210671890E+02 -0.43697422574E+03  0.44189898181E+03  0.47000000000E+01 0.  1.
<mgrwt>
<rscale>  0 0.27480450E+03</rscale>
<asrwt>0</asrwt>
<pdfrwt beam="1">  1        2 0.16197174E+00 0.27480450E+03</pdfrwt>
<pdfrwt beam="2">  1       -2 0.27588095E-02 0.27480450E+03</pdfrwt>
<totfact> 0.11675368E+04</totfact>
</mgrwt>
</event>
<event>
 9    1  0.7816570E-001  0.2794491E+03  0.7818608E-02  0.1095990E+00
         -1   -1    0    0    0  501 -0.00000000000E+00  0.00000000000E+00  0.12043798462E+02  0.12043798462E+02  0.00000000000E+00 0.  1.
          1   -1    0    0  501    0  0.00000000000E+00 -0.00000000000E+00 -0.16209961797E+04  0.16209961797E+04  0.00000000000E+00 0.  1.
         35    2    1    2    0    0  0.10658141036E-13  0.00000000000E+00 -0.16089523813E+04  0.16330399782E+04  0.27944911019E+03 0.  0.
         25    2    3    3    0    0 -0.25400146538E+02 -0.31392828432E+02 -0.10702162152E+04  0.10785210259E+04  0.12733490854E+03 0.  0.
         25    2    3    3    0    0  0.25400146538E+02  0.31392828432E+02 -0.53873616611E+03  0.55451895233E+03  0.12499573869E+03 0.  0.
          5    1    4    4  502    0  0.25620949589E+02  0.17641332670E+02 -0.83024653449E+02  0.88785318361E+02  0.47000000000E+01 0. -1.
         -5    1    4    4    0  502 -0.51021096127E+02 -0.49034161103E+02 -0.98719156172E+03  0.98973570751E+03  0.47000000000E+01 0. -1.
          5    1    5    5  503    0 -0.45732498963E+02  0.34397515345E+01 -0.30743938667E+03  0.31087675987E+03  0.47000000000E+01 0. -1.
         -5    1    5    5    0  503  0.71132645501E+02  0.27953076898E+02 -0.23129677944E+03  0.24364219246E+03  0.47000000000E+01 0. -1.
<mgrwt>
<rscale>  0 0.27944911E+03</rscale>
<asrwt>0</asrwt>
<pdfrwt beam="1">  1        1 0.24938393E+00 0.27944911E+03</pdfrwt>
<pdfrwt beam="2">  1       -1 0.18528928E-02 0.27944911E+03</pdfrwt>
<totfact> 0.45669133E+03</totfact>
</mgrwt>
</event>
<event>
 9    1  0.7816570E-001  0.2742782E+03  0.7818608E-02  0.1098856E+00
          2   -1    0    0  501    0  0.00000000000E+00  0.00000000000E+00  0.59263103232E+03  0.59263103232E+03  0.00000000000E+00 0. -1.
         -2   -1    0    0    0  501 -0.00000000000E+00 -0.00000000000E+00 -0.31734977169E+02  0.31734977169E+02  0.00000000000E+00 0. -1.
         35    2    1    2    0    0  0.00000000000E+00  0.35527136788E-14  0.56089605515E+03  0.62436600949E+03  0.27427819658E+03 0.  0.
         25    2    3    3    0    0 -0.54031181905E+02 -0.14005633791E+02  0.28769983428E+03  0.31881142793E+03  0.12551496141E+03 0.  0.
         25    2    3    3    0    0  0.54031181905E+02  0.14005633791E+02  0.27319622087E+03  0.30555458156E+03  0.12494759229E+03 0.  0.
          5    1    4    4  502    0 -0.11125474870E+02  0.15809415857E+02 -0.57503628465E+01  0.20709188629E+02  0.47000000000E+01 0. -1.
         -5    1    4    4    0  502 -0.42905707035E+02 -0.29815049648E+02  0.29345019713E+03  0.29810223930E+03  0.47000000000E+01 0. -1.
          5    1    5    5  503    0  0.13438343901E+02  0.54654363189E+02  0.51313225970E+02  0.76307441720E+02  0.47000000000E+01 0. -1.
         -5    1    5    5    0  503  0.40592838004E+02 -0.40648729398E+02  0.22188299490E+03  0.22924713984E+03  0.47000000000E+01 0. -1.
<mgrwt>
<rscale>  0 0.27427820E+03</rscale>
<asrwt>0</asrwt>
<pdfrwt beam="1">  1        2 0.91173997E-01 0.27427820E+03</pdfrwt>
<pdfrwt beam="2">  1       -2 0.48823046E-02 0.27427820E+03</pdfrwt>
<totfact> 0.10343371E+04</totfact>
</mgrwt>
</event>
<event>
 9    1  0.7816570E-001  0.2740170E+03  0.7818608E-02  0.1099002E+00
         -2   -1    0    0    0  501 -0.00000000000E+00  0.00000000000E+00  0.85781738953E+02  0.85781738953E+02  0.00000000000E+00 0. -1.
          2   -1    0    0  501    0  0.00000000000E+00 -0.00000000000E+00 -0.21882659566E+03  0.21882659566E+03  0.00000000000E+00 0. -1.
         35    2    1    2    0    0  0.35527136788E-14 -0.14210854715E-13 -0.13304485671E+03  0.30460833461E+03  0.27401697688E+03 0.  0.
         25    2    3    3    0    0 -0.17486955886E+02 -0.51139906687E+02 -0.61849684676E+02  0.14990609941E+03  0.12540084315E+03 0.  0.
         25    2    3    3    0    0  0.17486955886E+02  0.51139906687E+02 -0.71195172033E+02  0.15470223521E+03  0.12626537679E+03 0.  0.
          5    1    4    4  502    0  0.17278107265E+01  0.41456751730E+02 -0.16201072668E+02  0.44790761877E+02  0.47000000000E+01 0.  1.
         -5    1    4    4    0  502 -0.19214766613E+02 -0.92596658416E+02 -0.45648612007E+02  0.10511533753E+03  0.47000000000E+01 0.  1.
          5    1    5    5  503    0 -0.15815454544E+02  0.44048141725E+02  0.24490306504E+02  0.53030486558E+02  0.47000000000E+01 0. -1.
         -5    1    5    5    0  503  0.33302410430E+02  0.70917649617E+01 -0.95685478537E+02  0.10167174865E+03  0.47000000000E+01 0. -1.
<mgrwt>
<rscale>  0 0.27401698E+03</rscale>
<asrwt>0</asrwt>
<pdfrwt beam="1">  1        2 0.33665630E-01 0.27401698E+03</pdfrwt>
<pdfrwt beam="2">  1       -2 0.13197191E-01 0.27401698E+03</pdfrwt>
<totfact> 0.64811592E+03</totfact>
</mgrwt>
</event>
<event>
 9    1  0.7816570E-001  0.2762148E+03  0.7818608E-02  0.1097774E+00
         -2   -1    0    0    0  501 -0.00000000000E+00  0.00000000000E+00  0.19943939144E+02  0.19943939144E+02  0.00000000000E+00 0. -1.
          2   -1    0    0  501    0  0.00000000000E+00 -0.00000000000E+00 -0.95636344677E+03  0.95636344677E+03  0.00000000000E+00 0. -1.
         35    2    1    2    0    0  0.00000000000E+00  0.00000000000E+00 -0.93641950763E+03  0.97630738592E+03  0.27621480324E+03 0.  0.
         25    2    3    3    0    0 -0.23983763129E+02 -0.15571599833E+02 -0.64199094088E+03  0.65504372726E+03  0.12693392312E+03 0.  0.
         25    2    3    3    0    0  0.23983763129E+02  0.15571599833E+02 -0.29442856674E+03  0.32126365865E+03  0.12531744427E+03 0.  0.
          5    1    4    4  502    0  0.31492557049E+02 -0.27726639003E+02 -0.50377068849E+03  0.50553688713E+03  0.47000000000E+01 0. -1.
         -5    1    4    4    0  502 -0.55476320179E+02  0.12155039171E+02 -0.13822025239E+03  0.14950684014E+03  0.47000000000E+01 0. -1.
          5    1    5    5  503    0 -0.21225942199E+02  0.11491414296E+02 -0.13221917365E+01  0.24625828224E+02  0.47000000000E+01 0.  1.
         -5    1    5    5    0  503  0.45209705328E+02  0.40801855363E+01 -0.29310637501E+03  0.29663783043E+03  0.47000000000E+01 0.  1.
<mgrwt>
<rscale>  0 0.27621480E+03</rscale>
<asrwt>0</asrwt>
<pdfrwt beam="1">  1        2 0.14713284E+00 0.27621480E+03</pdfrwt>
<pdfrwt beam="2">  1       -2 0.30682983E-02 0.27621480E+03</pdfrwt>
<totfact> 0.11420248E+04</totfact>
</mgrwt>
</event>
<event>
 9    1  0.7816570E-001  0.2781120E+03  0.7818608E-02  0.1096725E+00
          3   -1    0    0  501    0  0.00000000000E+00  0.00000000000E+00  0.83910063199E+01  0.83910063199E+01  0.00000000000E+00 0. -1.
         -3   -1    0    0    0  501 -0.00000000000E+00 -0.00000000000E+00 -0.23044397927E+04  0.23044397927E+04  0.00000000000E+00 0. -1.
         35    2    1    2    0    0  0.35527136788E-14 -0.71054273576E-14 -0.22960487864E+04  0.23128307990E+04  0.27811198366E+03 0.  0.
         25    2    3    3    0    0  0.21775381731E+02 -0.38157679546E+02 -0.79933897473E+03  0.81037297223E+03  0.12582281928E+03 0.  0.
         25    2    3    3    0    0 -0.21775381731E+02  0.38157679546E+02 -0.14967098116E+04  0.15024578268E+04  0.12372988812E+03 0.  0.
          5    1    4    4  502    0 -0.31209265205E+02  0.15745408845E+02 -0.84947807744E+02  0.91979107274E+02  0.47000000000E+01 0.  1.
         -5    1    4    4    0  502  0.52984646936E+02 -0.53903088391E+02 -0.71439116698E+03  0.71839386496E+03  0.47000000000E+01 0.  1.
          5    1    5    5  503    0 -0.27559592331E+02 -0.50404999578E+00 -0.72522731799E+02  0.77726583763E+02  0.47000000000E+01 0.  1.
         -5    1    5    5    0  503  0.57842106000E+01  0.38661729541E+02 -0.14241870798E+04  0.14247312430E+04  0.47000000000E+01 0.  1.
<mgrwt>
<rscale>  0 0.27811198E+03</rscale>
<asrwt>0</asrwt>
<pdfrwt beam="1">  1        3 0.12909210E-02 0.27811198E+03</pdfrwt>
<pdfrwt beam="2">  1       -3 0.35453005E+00 0.27811198E+03</pdfrwt>
<totfact> 0.10557697E+02</totfact>
</mgrwt>
</event>
<event>
 9    1  0.7816570E-001  0.2761902E+03  0.7818608E-02  0.1097788E+00
          4   -1    0    0  501    0  0.00000000000E+00  0.00000000000E+00  0.68079367391E+03  0.68079367391E+03  0.00000000000E+00 0. -1.
         -4   -1    0    0    0  501 -0.00000000000E+00 -0.00000000000E+00 -0.28011799366E+02  0.28011799366E+02  0.00000000000E+00 0. -1.
         35    2    1    2    0    0  0.00000000000E+00  0.71054273576E-14  0.65278187455E+03  0.70880547328E+03  0.27619019391E+03 0.  0.
         25    2    3    3    0    0 -0.25397641373E+02  0.29464594215E+02  0.21144196498E+03  0.24840306704E+03  0.12443141349E+03 0.  0.
         25    2    3    3    0    0  0.25397641373E+02 -0.29464594215E+02  0.44133990957E+03  0.46040240624E+03  0.12520486170E+03 0.  0.
          5    1    4    4  502    0 -0.67563241904E+02 -0.10713779366E+02  0.85759600655E+02  0.10980152927E+03  0.47000000000E+01 0.  1.
         -5    1    4    4    0  502  0.42165600531E+02  0.40178373580E+02  0.12568236433E+03  0.13860153778E+03  0.47000000000E+01 0.  1.
          5    1    5    5  503    0  0.21451644591E+02  0.11046410100E+02  0.40467069682E+03  0.40541664876E+03  0.47000000000E+01 0.  1.
         -5    1    5    5    0  503  0.39459967814E+01 -0.40511004315E+02  0.36669212748E+02  0.54985757472E+02  0.47000000000E+01 0.  1.
<mgrwt>
<rscale>  0 0.27619019E+03</rscale>
<asrwt>0</asrwt>
<pdfrwt beam="1">  1        4 0.10473748E+00 0.27619019E+03</pdfrwt>
<pdfrwt beam="2">  1       -4 0.43095081E-02 0.27619019E+03</pdfrwt>
<totfact> 0.43535319E+02</totfact>
</mgrwt>
</event>
<event>
 9    1  0.7816570E-001  0.2739358E+03  0.7818608E-02  0.1099048E+00
         -1   -1    0    0    0  501 -0.00000000000E+00  0.00000000000E+00  0.76855152976E+02  0.76855152976E+02  0.00000000000E+00 0.  1.
          1   -1    0    0  501    0  0.00000000000E+00 -0.00000000000E+00 -0.24409823441E+03  0.24409823441E+03  0.00000000000E+00 0.  1.
         35    2    1    2    0    0  0.00000000000E+00 -0.35527136788E-14 -0.16724308143E+03  0.32095338738E+03  0.27393581107E+03 0.  0.
         25    2    3    3    0    0  0.54483906584E+02  0.22355518655E+02 -0.81872954127E+02  0.15986618041E+03  0.12403930720E+03 0.  0.
         25    2    3    3    0    0 -0.54483906584E+02 -0.22355518655E+02 -0.85370127304E+02  0.16108720697E+03  0.12325893202E+03 0.  0.
          5    1    4    4  502    0  0.87597431790E+02  0.33485273515E+02 -0.81932009201E+02  0.12461748565E+03  0.47000000000E+01 0.  1.
         -5    1    4    4    0  502 -0.33113525206E+02 -0.11129754860E+02  0.59055074115E-01  0.35248694761E+02  0.47000000000E+01 0.  1.
          5    1    5    5  503    0 -0.28513438049E+02  0.25494583347E+02  0.19233508293E+02  0.43069801145E+02  0.47000000000E+01 0.  1.
         -5    1    5    5    0  503 -0.25970468535E+02 -0.47850102002E+02 -0.10460363560E+03  0.11801740583E+03  0.47000000000E+01 0.  1.
<mgrwt>
<rscale>  0 0.27393581E+03</rscale>
<asrwt>0</asrwt>
<pdfrwt beam="1">  1        1 0.37553574E-01 0.27393581E+03</pdfrwt>
<pdfrwt beam="2">  1       -1 0.11823870E-01 0.27393581E+03</pdfrwt>
<totfact> 0.52999777E+03</totfact>
</mgrwt>
</event>
<event>
 9    1  0.7816570E-001  0.2763037E+03  0.7818608E-02  0.1097725E+00
         -2   -1    0    0    0  501 -0.00000000000E+00  0.00000000000E+00  0.85004450702E+01  0.85004450702E+01  0.00000000000E+00 0. -1.
          2   -1    0    0  501    0  0.00000000000E+00 -0.00000000000E+00 -0.22452865554E+04  0.22452865554E+04  0.00000000000E+00 0. -1.
         35    2    1    2    0    0 -0.14210854715E-13  0.00000000000E+00 -0.22367861103E+04  0.22537870005E+04  0.27630370994E+03 0.  0.
         25    2    3    3    0    0  0.55607877689E+02 -0.45617482679E+01 -0.13028488987E+04  0.13100218127E+04  0.12501540359E+03 0.  0.
         25    2    3    3    0    0 -0.55607877689E+02  0.45617482679E+01 -0.93393721160E+03  0.94376518780E+03  0.12385866497E+03 0.  0.
          5    1    4    4  502    0 -0.39817250978E+02  0.67195113897E+01 -0.40229064990E+03  0.40433948893E+03  0.47000000000E+01 0. -1.
         -5    1    4    4    0  502  0.95425128667E+02 -0.11281259658E+02 -0.90055824884E+03  0.90568232375E+03  0.47000000000E+01 0. -1.
          5    1    5    5  503    0  0.27100232908E+02  0.63006277678E+01 -0.64672103368E+02  0.70559843311E+02  0.47000000000E+01 0. -1.
         -5    1    5    5    0  503 -0.82708110598E+02 -0.17388794999E+01 -0.86926510823E+03  0.87320534449E+03  0.47000000000E+01 0. -1.
<mgrwt>
<rscale>  0 0.27630371E+03</rscale>
<asrwt>0</asrwt>
<pdfrwt beam="1">  1        2 0.34542843E+00 0.27630371E+03</pdfrwt>
<pdfrwt beam="2">  1       -2 0.13077618E-02 0.27630371E+03</pdfrwt>
<totfact> 0.79422075E+03</totfact>
</mgrwt>
</event>
<event>
 9    1  0.7816570E-001  0.2743641E+03  0.7818608E-02  0.1098808E+00
         -2   -1    0    0    0  501 -0.00000000000E+00  0.00000000000E+00  0.13648247349E+02  0.13648247349E+02  0.00000000000E+00 0. -1.
          2   -1    0    0  501    0  0.00000000000E+00 -0.00000000000E+00 -0.13788520202E+04  0.13788520202E+04  0.00000000000E+00 0. -1.
         35    2    1    2    0    0  0.00000000000E+00 -0.35527136788E-14 -0.13652037729E+04  0.13925002676E+04  0.27436408970E+03 0.  0.
         25    2    3    3    0    0 -0.53143740874E+02  0.17591563864E+02 -0.78907598094E+03  0.80084338625E+03  0.12480186417E+03 0.  0.
         25    2    3    3    0    0  0.53143740874E+02 -0.17591563864E+02 -0.57612779191E+03  0.59165688130E+03  0.12247821135E+03 0.  0.
          5    1    4    4  502    0 -0.39034927063E+02  0.17781473569E+02 -0.74364450440E+02  0.85977135462E+02  0.47000000000E+01 0. -1.
         -5    1    4    4    0  502 -0.14108813810E+02 -0.18990970422E+00 -0.71471153050E+03  0.71486625079E+03  0.47000000000E+01 0. -1.
          5    1    5    5  503    0  0.65112379202E+02  0.18263271416E+02 -0.51630879741E+03  0.52073989025E+03  0.47000000000E+01 0.  1.
         -5    1    5    5    0  503 -0.11968638328E+02 -0.35854835281E+02 -0.59818994500E+02  0.70916991049E+02  0.47000000000E+01 0.  1.
<mgrwt>
<rscale>  0 0.27436409E+03</rscale>
<asrwt>0</asrwt>
<pdfrwt beam="1">  1        2 0.21213113E+00 0.27436409E+03</pdfrwt>
<pdfrwt beam="2">  1       -2 0.20997298E-02 0.27436409E+03</pdfrwt>
<totfact> 0.11414293E+04</totfact>
</mgrwt>
</event>
<event>
 9    1  0.7816570E-001  0.2737123E+03  0.7818608E-02  0.1099174E+00
          2   -1    0    0  501    0  0.00000000000E+00  0.00000000000E+00  0.22473471515E+03  0.22473471515E+03  0.00000000000E+00 0. -1.
         -2   -1    0    0    0  501 -0.00000000000E+00 -0.00000000000E+00 -0.83340928997E+02  0.83340928997E+02  0.00000000000E+00 0. -1.
         35    2    1    2    0    0  0.00000000000E+00  0.10658141036E-13  0.14139378615E+03  0.30807564415E+03  0.27371225722E+03 0.  0.
         25    2    3    3    0    0 -0.46631331635E+02 -0.19465344124E+02  0.47804370542E+02  0.14368182537E+03  0.12572123284E+03 0.  0.
         25    2    3    3    0    0  0.46631331635E+02  0.19465344124E+02  0.93589415613E+02  0.16439381878E+03  0.12535137904E+03 0.  0.
          5    1    4    4  502    0  0.32768383516E+02  0.18436232873E+02 -0.88763983641E+01  0.38917118197E+02  0.47000000000E+01 0. -1.
         -5    1    4    4    0  502 -0.79399715151E+02 -0.37901576997E+02  0.56680768906E+02  0.10476470717E+03  0.47000000000E+01 0. -1.
          5    1    5    5  503    0  0.35671962407E+02  0.71994446288E+02  0.47185951473E+02  0.93296801739E+02  0.47000000000E+01 0.  1.
         -5    1    5    5    0  503  0.10959369227E+02 -0.52529102165E+02  0.46403464140E+02  0.71097017042E+02  0.47000000000E+01 0.  1.
<mgrwt>
<rscale>  0 0.27371226E+03</rscale>
<asrwt>0</asrwt>
<pdfrwt beam="1">  1        2 0.34574571E-01 0.27371226E+03</pdfrwt>
<pdfrwt beam="2">  1       -2 0.12821681E-01 0.27371226E+03</pdfrwt>
<totfact> 0.65986990E+03</totfact>
</mgrwt>
</event>
<event>
 9    1  0.7816570E-001  0.2639736E+03  0.7818608E-02  0.1104779E+00
         -2   -1    0    0    0  501 -0.00000000000E+00  0.00000000000E+00  0.20584781383E+03  0.20584781383E+03  0.00000000000E+00 0. -1.
          2   -1    0    0  501    0  0.00000000000E+00 -0.00000000000E+00 -0.84628141051E+02  0.84628141051E+02  0.00000000000E+00 0. -1.
         35    2    1    2    0    0  0.71054273576E-14  0.00000000000E+00  0.12121967278E+03  0.29047595488E+03  0.26397361856E+03 0.  0.
         25    2    3    3    0    0 -0.29417736418E+02 -0.30954469419E+02  0.62121115303E+02  0.14597450353E+03  0.12500376123E+03 0.  0.
         25    2    3    3    0    0  0.29417736418E+02  0.30954469419E+02  0.59098557480E+02  0.14450145136E+03  0.12475755510E+03 0.  0.
          5    1    4    4  502    0 -0.19262007844E+02  0.23974316295E+02 -0.26663848083E+02  0.40973693787E+02  0.47000000000E+01 0.  1.
         -5    1    4    4    0  502 -0.10155728575E+02 -0.54928785715E+02  0.88784963386E+02  0.10500080974E+03  0.47000000000E+01 0.  1.
          5    1    5    5  503    0 -0.22422707547E+02  0.40579422857E+02 -0.18857896622E+02  0.50271041745E+02  0.47000000000E+01 0. -1.
         -5    1    5    5    0  503  0.51840443965E+02 -0.96249534380E+01  0.77956454102E+02  0.94230409611E+02  0.47000000000E+01 0. -1.
<mgrwt>
<rscale>  0 0.26397362E+03</rscale>
<asrwt>0</asrwt>
<pdfrwt beam="1">  1        2 0.13019714E-01 0.26397362E+03</pdfrwt>
<pdfrwt beam="2">  1       -2 0.31668894E-01 0.26397362E+03</pdfrwt>
<totfact> 0.42469482E+03</totfact>
</mgrwt>
</event>
<event>
 9    1  0.7816570E-001  0.2746032E+03  0.7818608E-02  0.1098674E+00
         -2   -1    0    0    0  501 -0.00000000000E+00  0.00000000000E+00  0.31131839593E+03  0.31131839593E+03  0.00000000000E+00 0.  1.
          2   -1    0    0  501    0  0.00000000000E+00 -0.00000000000E+00 -0.60554502510E+02  0.60554502510E+02  0.00000000000E+00 0.  1.
         35    2    1    2    0    0  0.17763568394E-14  0.00000000000E+00  0.25076389342E+03  0.37187289844E+03  0.27460320892E+03 0.  0.
         25    2    3    3    0    0 -0.15759519527E+02 -0.15817129624E+02  0.54482089348E+02  0.13812062961E+03  0.12494185135E+03 0.  0.
         25    2    3    3    0    0  0.15759519527E+02  0.15817129624E+02  0.19628180407E+03  0.23375226883E+03  0.12496012376E+03 0.  0.
          5    1    4    4  502    0 -0.40236585292E+02  0.39459917269E+02  0.52939725480E+02  0.77464652589E+02  0.47000000000E+01 0.  1.
         -5    1    4    4    0  502  0.24477065766E+02 -0.55277046893E+02  0.15423638680E+01  0.60655977018E+02  0.47000000000E+01 0.  1.
          5    1    5    5  503    0 -0.13827380162E+02  0.19384378931E+02  0.20165306238E+03  0.20310834094E+03  0.47000000000E+01 0. -1.
         -5    1    5    5    0  503  0.29586899688E+02 -0.35672493066E+01 -0.53712583170E+01  0.30643927892E+02  0.47000000000E+01 0. -1.
<mgrwt>
<rscale>  0 0.27460321E+03</rscale>
<asrwt>0</asrwt>
<pdfrwt beam="1">  1        2 0.93160775E-02 0.27460321E+03</pdfrwt>
<pdfrwt beam="2">  1       -2 0.47895137E-01 0.27460321E+03</pdfrwt>
<totfact> 0.29215624E+03</totfact>
</mgrwt>
</event>
<event>
 9    1  0.7816570E-001  0.2755442E+03  0.7818608E-02  0.1098148E+00
          2   -1    0    0  501    0  0.00000000000E+00  0.00000000000E+00  0.21694213235E+03  0.21694213235E+03  0.00000000000E+00 0. -1.
         -2   -1    0    0    0  501 -0.00000000000E+00 -0.00000000000E+00 -0.87494070795E+02  0.87494070795E+02  0.00000000000E+00 0. -1.
         35    2    1    2    0    0  0.00000000000E+00  0.14210854715E-13  0.12944806156E+03  0.30443620315E+03  0.27554419091E+03 0.  0.
         25    2    3    3    0    0  0.24838832040E+02 -0.35110714193E+02  0.10930113671E+03  0.17131331217E+03  0.12470678655E+03 0.  0.
         25    2    3    3    0    0 -0.24838832040E+02  0.35110714193E+02  0.20146924842E+02  0.13312289098E+03  0.12436267806E+03 0.  0.
          5    1    4    4  502    0 -0.32161983803E+02  0.30653946837E+02  0.39895845907E+02  0.59898465585E+02  0.47000000000E+01 0.  1.
         -5    1    4    4    0  502  0.57000815842E+02 -0.65764661031E+02  0.69405290806E+02  0.11141484658E+03  0.47000000000E+01 0.  1.
          5    1    5    5  503    0  0.30400608857E+01 -0.45272239109E+02  0.23617335702E+00  0.45617577555E+02  0.47000000000E+01 0. -1.
         -5    1    5    5    0  503 -0.27878892925E+02  0.80382953303E+02  0.19910751485E+02  0.87505313422E+02  0.47000000000E+01 0. -1.
<mgrwt>
<rscale>  0 0.27554419E+03</rscale>
<asrwt>0</asrwt>
<pdfrwt beam="1">  1        2 0.33375713E-01 0.27554419E+03</pdfrwt>
<pdfrwt beam="2">  1       -2 0.13460626E-01 0.27554419E+03</pdfrwt>
<totfact> 0.63361242E+03</totfact>
</mgrwt>
</event>
<event>
 9    1  0.7816570E-001  0.2724450E+03  0.7818608E-02  0.1099888E+00
          2   -1    0    0  501    0  0.00000000000E+00  0.00000000000E+00  0.56494444813E+03  0.56494444813E+03  0.00000000000E+00 0. -1.
         -2   -1    0    0    0  501 -0.00000000000E+00 -0.00000000000E+00 -0.32846705604E+02  0.32846705604E+02  0.00000000000E+00 0. -1.
         35    2    1    2    0    0 -0.35527136788E-14  0.00000000000E+00  0.53209774253E+03  0.59779115374E+03  0.27244495936E+03 0.  0.
         25    2    3    3    0    0 -0.10681154816E+02 -0.51426596743E+02  0.29062061609E+03  0.32116570094E+03  0.12620730184E+03 0.  0.
         25    2    3    3    0    0  0.10681154816E+02  0.51426596743E+02  0.24147712644E+03  0.27662545280E+03  0.12430469270E+03 0.  0.
          5    1    4    4  502    0 -0.14179505229E+02 -0.63234761057E+02  0.54862252289E+02  0.85039109242E+02  0.47000000000E+01 0.  1.
         -5    1    4    4    0  502  0.34983504135E+01  0.11808164314E+02  0.23575836381E+03  0.23612659169E+03  0.47000000000E+01 0.  1.
          5    1    5    5  503    0  0.62227383329E+02  0.36996699453E+02  0.88202892226E+02  0.11420526784E+03  0.47000000000E+01 0.  1.
         -5    1    5    5    0  503 -0.51546228513E+02  0.14429897291E+02  0.15327423421E+03  0.16242018496E+03  0.47000000000E+01 0.  1.
<mgrwt>
<rscale>  0 0.27244496E+03</rscale>
<asrwt>0</asrwt>
<pdfrwt beam="1">  1        2 0.86914523E-01 0.27244496E+03</pdfrwt>
<pdfrwt beam="2">  1       -2 0.50533397E-02 0.27244496E+03</pdfrwt>
<totfact> 0.10369492E+04</totfact>
</mgrwt>
</event>
<event>
 9    1  0.7816570E-001  0.2743767E+03  0.7818608E-02  0.1098801E+00
         -1   -1    0    0    0  501 -0.00000000000E+00  0.00000000000E+00  0.32838531060E+02  0.32838531060E+02  0.00000000000E+00 0.  1.
          1   -1    0    0  501    0  0.00000000000E+00 -0.00000000000E+00 -0.57312677027E+03  0.57312677027E+03  0.00000000000E+00 0.  1.
         35    2    1    2    0    0  0.00000000000E+00 -0.71054273576E-14 -0.54028823921E+03  0.60596530133E+03  0.27437668448E+03 0.  0.
         25    2    3    3    0    0  0.14325339473E+02 -0.31690720885E+02 -0.16979941430E+03  0.21319425044E+03  0.12413875375E+03 0.  0.
         25    2    3    3    0    0 -0.14325339473E+02  0.31690720885E+02 -0.37048882491E+03  0.39277105089E+03  0.12568855116E+03 0.  0.
          5    1    4    4  502    0 -0.54460139177E+02 -0.12909549879E+02 -0.89888903848E+02  0.10599371808E+03  0.47000000000E+01 0.  1.
         -5    1    4    4    0  502  0.68785478650E+02 -0.18781171006E+02 -0.79910510451E+02  0.10720053236E+03  0.47000000000E+01 0.  1.
          5    1    5    5  503    0  0.55898067587E+02  0.15284532548E+02 -0.16372553445E+03  0.17374219846E+03  0.47000000000E+01 0.  1.
         -5    1    5    5    0  503 -0.70223407061E+02  0.16406188337E+02 -0.20676329046E+03  0.21902885243E+03  0.47000000000E+01 0.  1.
<mgrwt>
<rscale>  0 0.27437668E+03</rscale>
<asrwt>0</asrwt>
<pdfrwt beam="1">  1        1 0.88173344E-01 0.27437668E+03</pdfrwt>
<pdfrwt beam="2">  1       -1 0.50520820E-02 0.27437668E+03</pdfrwt>
<totfact> 0.64696315E+03</totfact>
</mgrwt>
</event>
<event>
 9    1  0.7816570E-001  0.2679742E+03  0.7818608E-02  0.1102445E+00
          1   -1    0    0  501    0  0.00000000000E+00  0.00000000000E+00  0.12593246128E+03  0.12593246128E+03  0.00000000000E+00 0. -1.
         -1   -1    0    0    0  501 -0.00000000000E+00 -0.00000000000E+00 -0.14255693574E+03  0.14255693574E+03  0.00000000000E+00 0. -1.
         35    2    1    2    0    0 -0.35527136788E-14  0.00000000000E+00 -0.16624474458E+02  0.26848939702E+03  0.26797422108E+03 0.  0.
         25    2    3    3    0    0 -0.97222261281E+01  0.52789292158E+02 -0.26338962956E+02  0.13508658813E+03  0.12113386923E+03 0.  0.
         25    2    3    3    0    0  0.97222261281E+01 -0.52789292158E+02  0.97144884981E+01  0.13340280889E+03  0.12174032645E+03 0.  0.
          5    1    4    4  502    0 -0.37233975332E+02  0.74104195150E+02 -0.45883632974E+02  0.94895723996E+02  0.47000000000E+01 0.  1.
         -5    1    4    4    0  502  0.27511749204E+02 -0.21314902992E+02  0.19544670018E+02  0.40190864135E+02  0.47000000000E+01 0.  1.
          5    1    5    5  503    0 -0.52144449673E+02 -0.46070193599E+02 -0.26164364718E+01  0.69788552856E+02  0.47000000000E+01 0. -1.
         -5    1    5    5    0  503  0.61866675801E+02 -0.67190985591E+01  0.12330924970E+02  0.63614256033E+02  0.47000000000E+01 0. -1.
<mgrwt>
<rscale>  0 0.26797422E+03</rscale>
<asrwt>0</asrwt>
<pdfrwt beam="1">  1        1 0.19374225E-01 0.26797422E+03</pdfrwt>
<pdfrwt beam="2">  1       -1 0.21931836E-01 0.26797422E+03</pdfrwt>
<totfact> 0.45745563E+03</totfact>
</mgrwt>
</event>
<event>
 9    1  0.7816570E-001  0.2996079E+03  0.7818608E-02  0.1085437E+00
          2   -1    0    0  501    0  0.00000000000E+00  0.00000000000E+00  0.10372145303E+04  0.10372145303E+04  0.00000000000E+00 0.  1.
         -2   -1    0    0    0  501 -0.00000000000E+00 -0.00000000000E+00 -0.21636051450E+02  0.21636051450E+02  0.00000000000E+00 0.  1.
         35    2    1    2    0    0  0.00000000000E+00 -0.71054273576E-14  0.10155784788E+04  0.10588505817E+04  0.29960792341E+03 0.  0.
         25    2    3    3    0    0 -0.71826561338E+02 -0.42380218839E+02  0.49481650195E+03  0.51686940000E+03  0.12391718282E+03 0.  0.
         25    2    3    3    0    0  0.71826561338E+02  0.42380218839E+02  0.52076197687E+03  0.54198118172E+03  0.12488165165E+03 0.  0.
          5    1    4    4  502    0  0.20551972872E+02  0.16719882381E+02  0.35083708636E+02  0.44214190792E+02  0.47000000000E+01 0.  1.
         -5    1    4    4    0  502 -0.92378534210E+02 -0.59100101221E+02  0.45973279331E+03  0.47265520921E+03  0.47000000000E+01 0.  1.
          5    1    5    5  503    0  0.41126356054E+02  0.58848031167E+02  0.12172314646E+03  0.14139689643E+03  0.47000000000E+01 0. -1.
         -5    1    5    5    0  503  0.30700205284E+02 -0.16467812328E+02  0.39903883041E+03  0.40058428529E+03  0.47000000000E+01 0. -1.
<mgrwt>
<rscale>  0 0.29960792E+03</rscale>
<asrwt>0</asrwt>
<pdfrwt beam="1">  1        2 0.15957143E+00 0.29960792E+03</pdfrwt>
<pdfrwt beam="2">  1       -2 0.33286241E-02 0.29960792E+03</pdfrwt>
<totfact> 0.90388026E+03</totfact>
</mgrwt>
</event>
<event>
 9    1  0.7816570E-001  0.2794973E+03  0.7818608E-02  0.1095964E+00
         -2   -1    0    0    0  501 -0.00000000000E+00  0.00000000000E+00  0.29405912995E+03  0.29405912995E+03  0.00000000000E+00 0. -1.
          2   -1    0    0  501    0  0.00000000000E+00 -0.00000000000E+00 -0.66414155808E+02  0.66414155808E+02  0.00000000000E+00 0. -1.
         35    2    1    2    0    0  0.71054273576E-14  0.14210854715E-13  0.22764497414E+03  0.36047328576E+03  0.27949732645E+03 0.  0.
         25    2    3    3    0    0 -0.28926856692E+02  0.55089635511E+02  0.12626709106E+03  0.18808762822E+03  0.12474753154E+03 0.  0.
         25    2    3    3    0    0  0.28926856692E+02 -0.55089635511E+02  0.10137788308E+03  0.17238565754E+03  0.12477062462E+03 0.  0.
          5    1    4    4  502    0  0.12835918955E+01 -0.38716877463E+02  0.49763927856E+02  0.63239091741E+02  0.47000000000E+01 0.  1.
         -5    1    4    4    0  502 -0.30210448587E+02  0.93806512974E+02  0.76503163208E+02  0.12484853648E+03  0.47000000000E+01 0.  1.
          5    1    5    5  503    0  0.70506977934E+02 -0.58537551070E+02  0.90790188160E+02  0.12908457340E+03  0.47000000000E+01 0.  1.
         -5    1    5    5    0  503 -0.41580121242E+02  0.34479155589E+01  0.10587694917E+02  0.43301084142E+02  0.47000000000E+01 0.  1.
<mgrwt>
<rscale>  0 0.27949733E+03</rscale>
<asrwt>0</asrwt>
<pdfrwt beam="1">  1        2 0.10217563E-01 0.27949733E+03</pdfrwt>
<pdfrwt beam="2">  1       -2 0.45239865E-01 0.27949733E+03</pdfrwt>
<totfact> 0.29146545E+03</totfact>
</mgrwt>
</event>
<event>
 9    1  0.7816570E-001  0.2721228E+03  0.7818608E-02  0.1100071E+00
          2   -1    0    0  501    0  0.00000000000E+00  0.00000000000E+00  0.13558581192E+04  0.13558581192E+04  0.00000000000E+00 0. -1.
         -2   -1    0    0    0  501 -0.00000000000E+00 -0.00000000000E+00 -0.13653865497E+02  0.13653865497E+02  0.00000000000E+00 0. -1.
         35    2    1    2    0    0  0.00000000000E+00  0.00000000000E+00  0.13422042537E+04  0.13695119847E+04  0.27212279869E+03 0.  0.
         25    2    3    3    0    0 -0.11323785570E+02 -0.24546806619E+02  0.89829249549E+03  0.90737119033E+03  0.12514909413E+03 0.  0.
         25    2    3    3    0    0  0.11323785570E+02  0.24546806619E+02  0.44391175820E+03  0.46214079435E+03  0.12564111945E+03 0.  0.
          5    1    4    4  502    0 -0.67116698181E+01 -0.73782502471E+02  0.64464764998E+03  0.64890799564E+03  0.47000000000E+01 0.  1.
         -5    1    4    4    0  502 -0.46121157522E+01  0.49235695852E+02  0.25364484551E+03  0.25846319469E+03  0.47000000000E+01 0.  1.
          5    1    5    5  503    0 -0.28286497630E+02  0.65059585143E+02  0.22495110208E+03  0.23591940127E+03  0.47000000000E+01 0.  1.
         -5    1    5    5    0  503  0.39610283200E+02 -0.40512778524E+02  0.21896065613E+03  0.22622139309E+03  0.47000000000E+01 0.  1.
<mgrwt>
<rscale>  0 0.27212280E+03</rscale>
<asrwt>0</asrwt>
<pdfrwt beam="1">  1        2 0.20859345E+00 0.27212280E+03</pdfrwt>
<pdfrwt beam="2">  1       -2 0.21005958E-02 0.27212280E+03</pdfrwt>
<totfact> 0.11739657E+04</totfact>
</mgrwt>
</event>
<event>
 9    1  0.7816570E-001  0.2583435E+03  0.7818608E-02  0.1108143E+00
         -1   -1    0    0    0  501 -0.00000000000E+00  0.00000000000E+00  0.15114366576E+03  0.15114366576E+03  0.00000000000E+00 0.  1.
          1   -1    0    0  501    0  0.00000000000E+00 -0.00000000000E+00 -0.11039387401E+03  0.11039387401E+03  0.00000000000E+00 0.  1.
         35    2    1    2    0    0  0.00000000000E+00  0.44408920985E-15  0.40749791751E+02  0.26153753976E+03  0.25834345198E+03 0.  0.
         25    2    3    3    0    0 -0.30183995400E+02 -0.28086113770E+01  0.32766851043E+02  0.13310076248E+03  0.12539212323E+03 0.  0.
         25    2    3    3    0    0  0.30183995400E+02  0.28086113770E+01  0.79829407077E+01  0.12843677728E+03  0.12455246501E+03 0.  0.
          5    1    4    4  502    0  0.40293572780E+02 -0.29998770292E+02  0.26925608192E+02  0.57188955253E+02  0.47000000000E+01 0.  1.
         -5    1    4    4    0  502 -0.70477568180E+02  0.27190158915E+02  0.58412428510E+01  0.75911807227E+02  0.47000000000E+01 0.  1.
          5    1    5    5  503    0 -0.48517707028E+02  0.52541059103E+01  0.72001404486E+01  0.49553057894E+02  0.47000000000E+01 0.  1.
         -5    1    5    5    0  503  0.78701702429E+02 -0.24454945333E+01  0.78280025911E+00  0.78883719391E+02  0.47000000000E+01 0.  1.
<mgrwt>
<rscale>  0 0.25834345E+03</rscale>
<asrwt>0</asrwt>
<pdfrwt beam="1">  1        1 0.16983673E-01 0.25834345E+03</pdfrwt>
<pdfrwt beam="2">  1       -1 0.23252872E-01 0.25834345E+03</pdfrwt>
<totfact> 0.49219834E+03</totfact>
</mgrwt>
</event>
<event>
 9    1  0.7816570E-001  0.2780735E+03  0.7818608E-02  0.1096746E+00
         -2   -1    0    0    0  501 -0.00000000000E+00  0.00000000000E+00  0.11530838303E+02  0.11530838303E+02  0.00000000000E+00 0. -1.
          2   -1    0    0  501    0  0.00000000000E+00 -0.00000000000E+00 -0.16764800468E+04  0.16764800468E+04  0.00000000000E+00 0. -1.
         35    2    1    2    0    0 -0.71054273576E-14  0.00000000000E+00 -0.16649492085E+04  0.16880108851E+04  0.27807351789E+03 0.  0.
         25    2    3    3    0    0  0.36645315764E+02 -0.25213250051E+02 -0.67145188805E+03  0.68461265218E+03  0.12596927570E+03 0.  0.
         25    2    3    3    0    0 -0.36645315764E+02  0.25213250051E+02 -0.99349732043E+03  0.10033982329E+04  0.13338853377E+03 0.  0.
          5    1    4    4  502    0 -0.37923016727E+02 -0.29785783001E+02 -0.14536083043E+03  0.15322274339E+03  0.47000000000E+01 0.  1.
         -5    1    4    4    0  502  0.74568332491E+02  0.45725329497E+01 -0.52609105762E+03  0.53138990880E+03  0.47000000000E+01 0.  1.
          5    1    5    5  503    0 -0.74411936626E+02  0.51479099702E+02 -0.75867886901E+03  0.76406999044E+03  0.47000000000E+01 0. -1.
         -5    1    5    5    0  503  0.37766620862E+02 -0.26265849651E+02 -0.23481845142E+03  0.23932824246E+03  0.47000000000E+01 0. -1.
<mgrwt>
<rscale>  0 0.27807352E+03</rscale>
<asrwt>0</asrwt>
<pdfrwt beam="1">  1        2 0.25791989E+00 0.27807352E+03</pdfrwt>
<pdfrwt beam="2">  1       -2 0.17739759E-02 0.27807352E+03</pdfrwt>
<totfact> 0.10141924E+04</totfact>
</mgrwt>
</event>
<event>
 9    1  0.7816570E-001  0.2957317E+03  0.7818608E-02  0.1087394E+00
         -2   -1    0    0    0  501 -0.00000000000E+00  0.00000000000E+00  0.60691533210E+01  0.60691533210E+01  0.00000000000E+00 0.  1.
          2   -1    0    0  501    0  0.00000000000E+00 -0.00000000000E+00 -0.36025299275E+04  0.36025299275E+04  0.00000000000E+00 0.  1.
         35    2    1    2    0    0  0.00000000000E+00  0.71054273576E-14 -0.35964607742E+04  0.36085990809E+04  0.29573167888E+03 0.  0.
         25    2    3    3    0    0  0.70953199558E+02 -0.20409878483E+02 -0.14246448959E+04  0.14319387112E+04  0.12403416246E+03 0.  0.
         25    2    3    3    0    0 -0.70953199558E+02  0.20409878483E+02 -0.21718158783E+04  0.21766603697E+04  0.12496093794E+03 0.  0.
          5    1    4    4  502    0  0.10004918169E+03  0.11441520345E+02 -0.96664923326E+03  0.97189175185E+03  0.47000000000E+01 0. -1.
         -5    1    4    4    0  502 -0.29095982131E+02 -0.31851398828E+02 -0.45799566267E+03  0.46004695936E+03  0.47000000000E+01 0. -1.
          5    1    5    5  503    0 -0.40855324123E+02  0.21914918026E+02 -0.23349850196E+03  0.23810304819E+03  0.47000000000E+01 0.  1.
         -5    1    5    5    0  503 -0.30097875435E+02 -0.15050395425E+01 -0.19383173763E+04  0.19385573215E+04  0.47000000000E+01 0.  1.
<mgrwt>
<rscale>  0 0.29573168E+03</rscale>
<asrwt>0</asrwt>
<pdfrwt beam="1">  1        2 0.55423638E+00 0.29573168E+03</pdfrwt>
<pdfrwt beam="2">  1       -2 0.93371421E-03 0.29573168E+03</pdfrwt>
<totfact> 0.20320698E+03</totfact>
</mgrwt>
</event>
<event>
 9    1  0.7816570E-001  0.2825198E+03  0.7818608E-02  0.1094321E+00
          2   -1    0    0  501    0  0.00000000000E+00  0.00000000000E+00  0.79414787476E+03  0.79414787476E+03  0.00000000000E+00 0.  1.
         -2   -1    0    0    0  501 -0.00000000000E+00 -0.00000000000E+00 -0.25126760991E+02  0.25126760991E+02  0.00000000000E+00 0.  1.
         35    2    1    2    0    0 -0.35527136788E-14 -0.71054273576E-14  0.76902111376E+03  0.81927463575E+03  0.28251983180E+03 0.  0.
         25    2    3    3    0    0  0.26541752203E+02 -0.45302082177E+02  0.49870639961E+03  0.51676122214E+03  0.12480923219E+03 0.  0.
         25    2    3    3    0    0 -0.26541752203E+02  0.45302082177E+02  0.27031471416E+03  0.30251341360E+03  0.12525005973E+03 0.  0.
          5    1    4    4  502    0 -0.33684240814E+02 -0.18865898607E+02  0.37102418733E+03  0.37305708382E+03  0.47000000000E+01 0.  1.
         -5    1    4    4    0  502  0.60225993017E+02 -0.26436183571E+02  0.12768221228E+03  0.14370413832E+03  0.47000000000E+01 0.  1.
          5    1    5    5  503    0 -0.15653114769E+02 -0.37618921393E+02  0.15274208613E+03  0.15815321092E+03  0.47000000000E+01 0.  1.
         -5    1    5    5    0  503 -0.10888637434E+02  0.82921003571E+02  0.11757262803E+03  0.14436020269E+03  0.47000000000E+01 0.  1.
<mgrwt>
<rscale>  0 0.28251983E+03</rscale>
<asrwt>0</asrwt>
<pdfrwt beam="1">  1        2 0.12217658E+00 0.28251983E+03</pdfrwt>
<pdfrwt beam="2">  1       -2 0.38656561E-02 0.28251983E+03</pdfrwt>
<totfact> 0.10341312E+04</totfact>
</mgrwt>
</event>
<event>
 9    1  0.7816570E-001  0.2729133E+03  0.7818608E-02  0.1099624E+00
          1   -1    0    0  501    0  0.00000000000E+00  0.00000000000E+00  0.10716570813E+04  0.10716570813E+04  0.00000000000E+00 0. -1.
         -1   -1    0    0    0  501 -0.00000000000E+00 -0.00000000000E+00 -0.17375352758E+02  0.17375352758E+02  0.00000000000E+00 0. -1.
         35    2    1    2    0    0  0.17763568394E-14 -0.71054273576E-14  0.10542817286E+04  0.10890324341E+04  0.27291331828E+03 0.  0.
         25    2    3    3    0    0 -0.53379603254E+01  0.52706914092E+02  0.47949905504E+03  0.49854049834E+03  0.12576474900E+03 0.  0.
         25    2    3    3    0    0  0.53379603254E+01 -0.52706914092E+02  0.57478267352E+03  0.59049193573E+03  0.12449534840E+03 0.  0.
          5    1    4    4  502    0  0.37797925877E+02  0.20039241868E+02  0.51532517877E+02  0.67141230358E+02  0.47000000000E+01 0. -1.
         -5    1    4    4    0  502 -0.43135886202E+02  0.32667672223E+02  0.42796653716E+03  0.43139926799E+03  0.47000000000E+01 0. -1.
          5    1    5    5  503    0  0.17014020825E+02 -0.71209999205E+02  0.55726262700E+03  0.56207122889E+03  0.47000000000E+01 0. -1.
         -5    1    5    5    0  503 -0.11676060499E+02  0.18503085114E+02  0.17520046519E+02  0.28420706844E+02  0.47000000000E+01 0. -1.
<mgrwt>
<rscale>  0 0.27291332E+03</rscale>
<asrwt>0</asrwt>
<pdfrwt beam="1">  1        1 0.16487027E+00 0.27291332E+03</pdfrwt>
<pdfrwt beam="2">  1       -1 0.26731320E-02 0.27291332E+03</pdfrwt>
<totfact> 0.63255271E+03</totfact>
</mgrwt>
</event>
<event>
 9    1  0.7816570E-001  0.2767034E+03  0.7818608E-02  0.1097503E+00
          2   -1    0    0  501    0  0.00000000000E+00  0.00000000000E+00  0.17053159191E+04  0.17053159191E+04  0.00000000000E+00 0. -1.
         -2   -1    0    0    0  501 -0.00000000000E+00 -0.00000000000E+00 -0.11224429273E+02  0.11224429273E+02  0.00000000000E+00 0. -1.
         35    2    1    2    0    0 -0.71054273576E-14  0.00000000000E+00  0.16940914899E+04  0.17165403484E+04  0.27670343636E+03 0.  0.
         25    2    3    3    0    0  0.39689037119E+02 -0.11743426258E+02  0.10993219342E+04  0.11072684984E+04  0.12578427934E+03 0.  0.
         25    2    3    3    0    0 -0.39689037119E+02  0.11743426258E+02  0.59476955568E+03  0.60927184997E+03  0.12549197216E+03 0.  0.
          5    1    4    4  502    0  0.64775618150E+02  0.35109311267E+02  0.78359453485E+03  0.78706481911E+03  0.47000000000E+01 0. -1.
         -5    1    4    4    0  502 -0.25086581030E+02 -0.46852737525E+02  0.31572739934E+03  0.32020367933E+03  0.47000000000E+01 0. -1.
          5    1    5    5  503    0 -0.71402687773E+02  0.76930098107E+01  0.18934462154E+03  0.20256110665E+03  0.47000000000E+01 0. -1.
         -5    1    5    5    0  503  0.31713650653E+02  0.40504164468E+01  0.40542493414E+03  0.40671074332E+03  0.47000000000E+01 0. -1.
<mgrwt>
<rscale>  0 0.27670344E+03</rscale>
<asrwt>0</asrwt>
<pdfrwt beam="1">  1        2 0.26235609E+00 0.27670344E+03</pdfrwt>
<pdfrwt beam="2">  1       -2 0.17268366E-02 0.27670344E+03</pdfrwt>
<totfact> 0.10187113E+04</totfact>
</mgrwt>
</event>
<event>
 9    1  0.7816570E-001  0.2686185E+03  0.7818608E-02  0.1102073E+00
         -2   -1    0    0    0  501 -0.00000000000E+00  0.00000000000E+00  0.18490363119E+02  0.18490363119E+02  0.00000000000E+00 0.  1.
          2   -1    0    0  501    0  0.00000000000E+00 -0.00000000000E+00 -0.97558775795E+03  0.97558775795E+03  0.00000000000E+00 0.  1.
         35    2    1    2    0    0  0.35527136788E-14  0.00000000000E+00 -0.95709739483E+03  0.99407812107E+03  0.26861847962E+03 0.  0.
         25    2    3    3    0    0 -0.16488708984E+02  0.45167165097E+02 -0.43945388252E+03  0.45926162982E+03  0.12445713896E+03 0.  0.
         25    2    3    3    0    0  0.16488708984E+02 -0.45167165097E+02 -0.51764351231E+03  0.53481649124E+03  0.12554649794E+03 0.  0.
          5    1    4    4  502    0  0.29343810484E+02  0.33824816896E+02 -0.38246332959E+03  0.38510448703E+03  0.47000000000E+01 0. -1.
         -5    1    4    4    0  502 -0.45832519469E+02  0.11342348201E+02 -0.56990552932E+02  0.74157142792E+02  0.47000000000E+01 0. -1.
          5    1    5    5  503    0  0.24914786291E+02 -0.97823981652E+01 -0.48486819075E+03  0.48562917364E+03  0.47000000000E+01 0.  1.
         -5    1    5    5    0  503 -0.84260773071E+01 -0.35384766932E+02 -0.32775321556E+02  0.49187317600E+02  0.47000000000E+01 0.  1.
<mgrwt>
<rscale>  0 0.26861848E+03</rscale>
<asrwt>0</asrwt>
<pdfrwt beam="1">  1        2 0.15009044E+00 0.26861848E+03</pdfrwt>
<pdfrwt beam="2">  1       -2 0.28446710E-02 0.26861848E+03</pdfrwt>
<totfact> 0.12421768E+04</totfact>
</mgrwt>
</event>
<event>
 9    1  0.7816570E-001  0.2807306E+03  0.7818608E-02  0.1095291E+00
         -2   -1    0    0    0  501 -0.00000000000E+00  0.00000000000E+00  0.15418614210E+02  0.15418614210E+02  0.00000000000E+00 0. -1.
          2   -1    0    0  501    0  0.00000000000E+00 -0.00000000000E+00 -0.12778331785E+04  0.12778331785E+04  0.00000000000E+00 0. -1.
         35    2    1    2    0    0  0.00000000000E+00  0.35527136788E-14 -0.12624145643E+04  0.12932517927E+04  0.28073059544E+03 0.  0.
         25    2    3    3    0    0  0.49639129382E+01  0.17453145046E+02 -0.34828192529E+03  0.37048521547E+03  0.12501896933E+03 0.  0.
         25    2    3    3    0    0 -0.49639129382E+01 -0.17453145046E+02 -0.91413263899E+03  0.92276657723E+03  0.12462111253E+03 0.  0.
          5    1    4    4  502    0 -0.44779858786E+02  0.48359496712E+02 -0.15568459199E+03  0.16912616255E+03  0.47000000000E+01 0. -1.
         -5    1    4    4    0  502  0.49743771724E+02 -0.30906351666E+02 -0.19259733330E+03  0.20135905292E+03  0.47000000000E+01 0. -1.
          5    1    5    5  503    0 -0.47206912362E+02 -0.52556049957E+02 -0.51958994258E+03  0.52439148486E+03  0.47000000000E+01 0.  1.
         -5    1    5    5    0  503  0.42242999424E+02  0.35102904911E+02 -0.39454269641E+03  0.39837509237E+03  0.47000000000E+01 0.  1.
<mgrwt>
<rscale>  0 0.28073060E+03</rscale>
<asrwt>0</asrwt>
<pdfrwt beam="1">  1        2 0.19658967E+00 0.28073060E+03</pdfrwt>
<pdfrwt beam="2">  1       -2 0.23720951E-02 0.28073060E+03</pdfrwt>
<totfact> 0.10843263E+04</totfact>
</mgrwt>
</event>
<event>
 9    1  0.7816570E-001  0.2748812E+03  0.7818608E-02  0.1098518E+00
          2   -1    0    0  501    0  0.00000000000E+00  0.00000000000E+00  0.12614057169E+03  0.12614057169E+03  0.00000000000E+00 0. -1.
         -2   -1    0    0    0  501 -0.00000000000E+00 -0.00000000000E+00 -0.14975293335E+03  0.14975293335E+03  0.00000000000E+00 0. -1.
         35    2    1    2    0    0  0.71054273576E-14  0.00000000000E+00 -0.23612361664E+02  0.27589350503E+03  0.27488121525E+03 0.  0.
         25    2    3    3    0    0 -0.36662166381E+02  0.38648953794E+02  0.90738430580E+01  0.13633470315E+03  0.12516772979E+03 0.  0.
         25    2    3    3    0    0  0.36662166381E+02 -0.38648953794E+02 -0.32686204722E+02  0.13955880189E+03  0.12478146951E+03 0.  0.
          5    1    4    4  502    0 -0.66308616620E+01  0.44153492069E+02 -0.51510390923E+02  0.68329419442E+02  0.47000000000E+01 0. -1.
         -5    1    4    4    0  502 -0.30031304719E+02 -0.55045382753E+01  0.60584233981E+02  0.68005283705E+02  0.47000000000E+01 0. -1.
          5    1    5    5  503    0  0.41073831565E+02 -0.58013963320E+02 -0.68185551300E+02  0.98610541960E+02  0.47000000000E+01 0. -1.
         -5    1    5    5    0  503 -0.44116651844E+01  0.19365009526E+02  0.35499346578E+02  0.40948259928E+02  0.47000000000E+01 0. -1.
<mgrwt>
<rscale>  0 0.27488122E+03</rscale>
<asrwt>0</asrwt>
<pdfrwt beam="1">  1        2 0.19406242E-01 0.27488122E+03</pdfrwt>
<pdfrwt beam="2">  1       -2 0.23038913E-01 0.27488122E+03</pdfrwt>
<totfact> 0.46928984E+03</totfact>
</mgrwt>
</event>
<event>
 9    1  0.7816570E-001  0.2775184E+03  0.7818608E-02  0.1097052E+00
          4   -1    0    0  501    0  0.00000000000E+00  0.00000000000E+00  0.10743506600E+03  0.10743506600E+03  0.00000000000E+00 0. -1.
         -4   -1    0    0    0  501 -0.00000000000E+00 -0.00000000000E+00 -0.17921636953E+03  0.17921636953E+03  0.00000000000E+00 0. -1.
         35    2    1    2    0    0  0.71054273576E-14  0.00000000000E+00 -0.71781303533E+02  0.28665143552E+03  0.27751844975E+03 0.  0.
         25    2    3    3    0    0 -0.42809239591E+02  0.18758888793E+02  0.44433681886E+01  0.13272678282E+03  0.12414559378E+03 0.  0.
         25    2    3    3    0    0  0.42809239591E+02 -0.18758888793E+02 -0.76224671721E+02  0.15392465270E+03  0.12529194399E+03 0.  0.
          5    1    4    4  502    0 -0.67785158844E+02  0.82313058063E+01  0.46304306662E+02  0.82636317502E+02  0.47000000000E+01 0. -1.
         -5    1    4    4    0  502  0.24975919253E+02  0.10527582987E+02 -0.41860938473E+02  0.50090465320E+02  0.47000000000E+01 0. -1.
          5    1    5    5  503    0  0.17134445917E+02  0.40821230739E+02  0.10281084086E+02  0.45691933707E+02  0.47000000000E+01 0.  1.
         -5    1    5    5    0  503  0.25674793674E+02 -0.59580119532E+02 -0.86505755807E+02  0.10823271900E+03  0.47000000000E+01 0.  1.
<mgrwt>
<rscale>  0 0.27751845E+03</rscale>
<asrwt>0</asrwt>
<pdfrwt beam="1">  1        4 0.16528472E-01 0.27751845E+03</pdfrwt>
<pdfrwt beam="2">  1       -4 0.27571749E-01 0.27751845E+03</pdfrwt>
<totfact> 0.74378997E+02</totfact>
</mgrwt>
</event>
<event>
 9    1  0.7816570E-001  0.2725029E+03  0.7818608E-02  0.1099856E+00
         -2   -1    0    0    0  501 -0.00000000000E+00  0.00000000000E+00  0.56250099832E+01  0.56250099832E+01  0.00000000000E+00 0. -1.
          2   -1    0    0  501    0  0.00000000000E+00 -0.00000000000E+00 -0.33003410219E+04  0.33003410219E+04  0.00000000000E+00 0. -1.
         35    2    1    2    0    0  0.71054273576E-14  0.71054273576E-14 -0.32947160119E+04  0.33059660319E+04  0.27250285280E+03 0.  0.
         25    2    3    3    0    0  0.18178563955E+01  0.33647992978E+02 -0.16625386716E+04  0.16686157252E+04  0.13823209402E+03 0.  0.
         25    2    3    3    0    0 -0.18178563955E+01 -0.33647992978E+02 -0.16321773404E+04  0.16373503067E+04  0.12560917358E+03 0.  0.
          5    1    4    4  502    0  0.68360209527E+02  0.31808751122E+02 -0.87854063381E+03  0.88178265471E+03  0.47000000000E+01 0.  1.
         -5    1    4    4    0  502 -0.66542353132E+02  0.18392418555E+01 -0.78399803774E+03  0.78683307045E+03  0.47000000000E+01 0.  1.
          5    1    5    5  503    0 -0.44315980999E+02  0.29742193873E+02 -0.68262893000E+03  0.68472830403E+03  0.47000000000E+01 0. -1.
         -5    1    5    5    0  503  0.42498124603E+02 -0.63390186850E+02 -0.94954841036E+03  0.95262200269E+03  0.47000000000E+01 0. -1.
<mgrwt>
<rscale>  0 0.27250285E+03</rscale>
<asrwt>0</asrwt>
<pdfrwt beam="1">  1        2 0.50774350E+00 0.27250285E+03</pdfrwt>
<pdfrwt beam="2">  1       -2 0.86538832E-03 0.27250285E+03</pdfrwt>
<totfact> 0.35915872E+03</totfact>
</mgrwt>
</event>
<event>
 9    1  0.7816570E-001  0.2881618E+03  0.7818608E-02  0.1091313E+00
         -2   -1    0    0    0  501 -0.00000000000E+00  0.00000000000E+00  0.34402017387E+02  0.34402017387E+02  0.00000000000E+00 0.  1.
          2   -1    0    0  501    0  0.00000000000E+00 -0.00000000000E+00 -0.60343288749E+03  0.60343288749E+03  0.00000000000E+00 0.  1.
         35    2    1    2    0    0  0.35527136788E-14  0.00000000000E+00 -0.56903087011E+03  0.63783490488E+03  0.28816182042E+03 0.  0.
         25    2    3    3    0    0 -0.80083464230E+01  0.55505494800E+02 -0.18629620575E+03  0.23096007562E+03  0.12446399755E+03 0.  0.
         25    2    3    3    0    0  0.80083464230E+01 -0.55505494800E+02 -0.38273466436E+03  0.40687482926E+03  0.12615985820E+03 0.  0.
          5    1    4    4  502    0 -0.20096564601E+02 -0.25579166977E+00  0.12468998191E+02  0.24114378574E+02  0.47000000000E+01 0.  1.
         -5    1    4    4    0  502  0.12088218178E+02  0.55761286470E+02 -0.19876520394E+03  0.20684569704E+03  0.47000000000E+01 0.  1.
          5    1    5    5  503    0 -0.52549383058E+02 -0.49195248866E+02 -0.15284550954E+03  0.16901316504E+03  0.47000000000E+01 0.  1.
         -5    1    5    5    0  503  0.60557729481E+02 -0.63102459339E+01 -0.22988915482E+03  0.23786166423E+03  0.47000000000E+01 0.  1.
<mgrwt>
<rscale>  0 0.28816182E+03</rscale>
<asrwt>0</asrwt>
<pdfrwt beam="1">  1        2 0.92835819E-01 0.28816182E+03</pdfrwt>
<pdfrwt beam="2">  1       -2 0.52926186E-02 0.28816182E+03</pdfrwt>
<totfact> 0.89737449E+03</totfact>
</mgrwt>
</event>
<event>
 9    1  0.7816570E-001  0.2738122E+03  0.7818608E-02  0.1099117E+00
         -4   -1    0    0    0  501 -0.00000000000E+00  0.00000000000E+00  0.86104225132E+01  0.86104225132E+01  0.00000000000E+00 0.  1.
          4   -1    0    0  501    0  0.00000000000E+00 -0.00000000000E+00 -0.21768122766E+04  0.21768122766E+04  0.00000000000E+00 0.  1.
         35    2    1    2    0    0  0.00000000000E+00  0.71054273576E-14 -0.21682018541E+04  0.21854226991E+04  0.27381215045E+03 0.  0.
         25    2    3    3    0    0 -0.40312282908E+02 -0.47273335704E+01 -0.77575256579E+03  0.78684171873E+03  0.12522148046E+03 0.  0.
         25    2    3    3    0    0  0.40312282908E+02  0.47273335704E+01 -0.13924492883E+04  0.13985809804E+04  0.12436362160E+03 0.  0.
          5    1    4    4  502    0 -0.15292294968E+02 -0.57299906164E+02 -0.56567104973E+03  0.56879078758E+03  0.47000000000E+01 0. -1.
         -5    1    4    4    0  502 -0.25019987941E+02  0.52572572594E+02 -0.21008151606E+03  0.21805093115E+03  0.47000000000E+01 0. -1.
          5    1    5    5  503    0  0.48263740603E+02  0.22952735698E+02 -0.23886839830E+03  0.24481915456E+03  0.47000000000E+01 0.  1.
         -5    1    5    5    0  503 -0.79514576945E+01 -0.18225402128E+02 -0.11535808900E+04  0.11537618258E+04  0.47000000000E+01 0.  1.
<mgrwt>
<rscale>  0 0.27381215E+03</rscale>
<asrwt>0</asrwt>
<pdfrwt beam="1">  1        4 0.33489445E+00 0.27381215E+03</pdfrwt>
<pdfrwt beam="2">  1       -4 0.13246794E-02 0.27381215E+03</pdfrwt>
<totfact> 0.80118144E+01</totfact>
</mgrwt>
</event>
<event>
 9    1  0.7816570E-001  0.2722055E+03  0.7818608E-02  0.1100024E+00
         -2   -1    0    0    0  501 -0.00000000000E+00  0.00000000000E+00  0.14237012062E+02  0.14237012062E+02  0.00000000000E+00 0.  1.
          2   -1    0    0  501    0  0.00000000000E+00 -0.00000000000E+00 -0.13011124728E+04  0.13011124728E+04  0.00000000000E+00 0.  1.
         35    2    1    2    0    0  0.35527136788E-14  0.00000000000E+00 -0.12868754607E+04  0.13153494849E+04  0.27220546629E+03 0.  0.
         25    2    3    3    0    0 -0.24483446338E+02 -0.33260208488E+02 -0.80527019348E+03  0.81596458851E+03  0.12502977473E+03 0.  0.
         25    2    3    3    0    0  0.24483446338E+02  0.33260208488E+02 -0.48160526724E+03  0.49938489635E+03  0.12544305739E+03 0.  0.
          5    1    4    4  502    0 -0.17116734867E+01  0.47107299360E+02 -0.33078222348E+03  0.33415714395E+03  0.47000000000E+01 0. -1.
         -5    1    4    4    0  502 -0.22771772851E+02 -0.80367507849E+02 -0.47448797000E+03  0.48180744456E+03  0.47000000000E+01 0. -1.
          5    1    5    5  503    0 -0.32282643570E+02 -0.19792861757E+02 -0.29110289093E+03  0.29359310203E+03  0.47000000000E+01 0.  1.
         -5    1    5    5    0  503  0.56766089908E+02  0.53053070245E+02 -0.19050237631E+03  0.20579179431E+03  0.47000000000E+01 0.  1.
<mgrwt>
<rscale>  0 0.27220547E+03</rscale>
<asrwt>0</asrwt>
<pdfrwt beam="1">  1        2 0.20017119E+00 0.27220547E+03</pdfrwt>
<pdfrwt beam="2">  1       -2 0.21903091E-02 0.27220547E+03</pdfrwt>
<totfact> 0.11830916E+04</totfact>
</mgrwt>
</event>
<event>
 9    1  0.7816570E-001  0.2723704E+03  0.7818608E-02  0.1099931E+00
         -2   -1    0    0    0  501 -0.00000000000E+00  0.00000000000E+00  0.24820018843E+02  0.24820018843E+02  0.00000000000E+00 0.  1.
          2   -1    0    0  501    0  0.00000000000E+00 -0.00000000000E+00 -0.74723563068E+03  0.74723563068E+03  0.00000000000E+00 0.  1.
         35    2    1    2    0    0 -0.71054273576E-14  0.00000000000E+00 -0.72241561183E+03  0.77205564952E+03  0.27237035399E+03 0.  0.
         25    2    3    3    0    0 -0.37526690866E+02  0.12265720559E+02 -0.46890158406E+03  0.48684870544E+03  0.12487700359E+03 0.  0.
         25    2    3    3    0    0  0.37526690866E+02 -0.12265720559E+02 -0.25351402777E+03  0.28520694408E+03  0.12455897497E+03 0.  0.
          5    1    4    4  502    0 -0.39199146091E+02  0.63640149098E+02 -0.21270310644E+03  0.22550242376E+03  0.47000000000E+01 0. -1.
         -5    1    4    4    0  502  0.16724552252E+01 -0.51374428539E+02 -0.25619847762E+03  0.26134628168E+03  0.47000000000E+01 0. -1.
          5    1    5    5  503    0  0.38856219582E+02 -0.31555115204E+02 -0.25585186689E+02  0.56411194577E+02  0.47000000000E+01 0. -1.
         -5    1    5    5    0  503 -0.13295287156E+01  0.19289394645E+02 -0.22792884109E+03  0.22879574950E+03  0.47000000000E+01 0. -1.
<mgrwt>
<rscale>  0 0.27237035E+03</rscale>
<asrwt>0</asrwt>
<pdfrwt beam="1">  1        2 0.11495932E+00 0.27237035E+03</pdfrwt>
<pdfrwt beam="2">  1       -2 0.38184648E-02 0.27237035E+03</pdfrwt>
<totfact> 0.11356045E+04</totfact>
</mgrwt>
</event>
<event>
 9    1  0.7816570E-001  0.2751610E+03  0.7818608E-02  0.1098362E+00
          2   -1    0    0  501    0  0.00000000000E+00  0.00000000000E+00  0.57846440888E+03  0.57846440888E+03  0.00000000000E+00 0.  1.
         -2   -1    0    0    0  501 -0.00000000000E+00 -0.00000000000E+00 -0.32721803791E+02  0.32721803791E+02  0.00000000000E+00 0.  1.
         35    2    1    2    0    0  0.53290705182E-14  0.71054273576E-14  0.54574260509E+03  0.61118621267E+03  0.27516103567E+03 0.  0.
         25    2    3    3    0    0  0.10117283575E+02 -0.42851088073E+02  0.19610801235E+03  0.23722671708E+03  0.12601423575E+03 0.  0.
         25    2    3    3    0    0 -0.10117283575E+02  0.42851088073E+02  0.34963459274E+03  0.37395949560E+03  0.12515103167E+03 0.  0.
          5    1    4    4  502    0 -0.56356239022E+02 -0.10693082772E+02  0.66169557004E+02  0.87697593866E+02  0.47000000000E+01 0.  1.
         -5    1    4    4    0  502  0.66473522597E+02 -0.32158005300E+02  0.12993845534E+03  0.14952912321E+03  0.47000000000E+01 0.  1.
          5    1    5    5  503    0  0.84945561558E+01 -0.33009588706E+02  0.21895836493E+03  0.22164531578E+03  0.47000000000E+01 0.  1.
         -5    1    5    5    0  503 -0.18611839731E+02  0.75860676779E+02  0.13067622781E+03  0.15231417982E+03  0.47000000000E+01 0.  1.
<mgrwt>
<rscale>  0 0.27516104E+03</rscale>
<asrwt>0</asrwt>
<pdfrwt beam="1">  1        2 0.88994517E-01 0.27516104E+03</pdfrwt>
<pdfrwt beam="2">  1       -2 0.50341241E-02 0.27516104E+03</pdfrwt>
<totfact> 0.10154217E+04</totfact>
</mgrwt>
</event>
<event>
 9    1  0.7816570E-001  0.2743613E+03  0.7818608E-02  0.1098809E+00
         -1   -1    0    0    0  501 -0.00000000000E+00  0.00000000000E+00  0.11737999285E+02  0.11737999285E+02  0.00000000000E+00 0. -1.
          1   -1    0    0  501    0  0.00000000000E+00 -0.00000000000E+00 -0.16032140499E+04  0.16032140499E+04  0.00000000000E+00 0. -1.
         35    2    1    2    0    0  0.00000000000E+00 -0.17763568394E-14 -0.15914760506E+04  0.16149520492E+04  0.27436126091E+03 0.  0.
         25    2    3    3    0    0  0.25007074976E+02 -0.44137840187E+01 -0.50245578972E+03  0.51842454309E+03  0.12512933695E+03 0.  0.
         25    2    3    3    0    0 -0.25007074976E+02  0.44137840187E+01 -0.10890202609E+04  0.10965275061E+04  0.12554922420E+03 0.  0.
          5    1    4    4  502    0  0.60236875668E+02 -0.54248061588E+01 -0.45551926292E+03  0.45954085629E+03  0.47000000000E+01 0. -1.
         -5    1    4    4    0  502 -0.35229800692E+02  0.10110221401E+01 -0.46936526799E+02  0.58883686794E+02  0.47000000000E+01 0. -1.
          5    1    5    5  503    0  0.55564264257E+00 -0.18988273960E+00 -0.10462979015E+04  0.10463086225E+04  0.47000000000E+01 0.  1.
         -5    1    5    5    0  503 -0.25562717619E+02  0.46036667583E+01 -0.42722359419E+02  0.50218883639E+02  0.47000000000E+01 0.  1.
<mgrwt>
<rscale>  0 0.27436126E+03</rscale>
<asrwt>0</asrwt>
<pdfrwt beam="1">  1        1 0.24664824E+00 0.27436126E+03</pdfrwt>
<pdfrwt beam="2">  1       -1 0.18058466E-02 0.27436126E+03</pdfrwt>
<totfact> 0.48703670E+03</totfact>
</mgrwt>
</event>
<event>
 9    1  0.7816570E-001  0.2713040E+03  0.7818608E-02  0.1100536E+00
         -1   -1    0    0    0  501 -0.00000000000E+00  0.00000000000E+00  0.34276019395E+02  0.34276019395E+02  0.00000000000E+00 0.  1.
          1   -1    0    0  501    0  0.00000000000E+00 -0.00000000000E+00 -0.53686134080E+03  0.53686134080E+03  0.00000000000E+00 0.  1.
         35    2    1    2    0    0  0.00000000000E+00  0.00000000000E+00 -0.50258532141E+03  0.57113736020E+03  0.27130403410E+03 0.  0.
         25    2    3    3    0    0 -0.29294413630E+02  0.16254839343E+02 -0.33722622544E+03  0.36116285215E+03  0.12487872587E+03 0.  0.
         25    2    3    3    0    0  0.29294413630E+02 -0.16254839343E+02 -0.16535909597E+03  0.20997450805E+03  0.12499312357E+03 0.  0.
          5    1    4    4  502    0  0.35812035680E+02  0.41977021947E+02 -0.19282077506E+03  0.20061533732E+03  0.47000000000E+01 0. -1.
         -5    1    4    4    0  502 -0.65106449310E+02 -0.25722182605E+02 -0.14440545038E+03  0.16054751483E+03  0.47000000000E+01 0. -1.
          5    1    5    5  503    0  0.54059947264E+01 -0.21648282931E+02 -0.17974511873E+03  0.18118573520E+03  0.47000000000E+01 0.  1.
         -5    1    5    5    0  503  0.23888418903E+02  0.53934435883E+01  0.14386022760E+02  0.28788772852E+02  0.47000000000E+01 0.  1.
<mgrwt>
<rscale>  0 0.27130403E+03</rscale>
<asrwt>0</asrwt>
<pdfrwt beam="1">  1        1 0.82594049E-01 0.27130403E+03</pdfrwt>
<pdfrwt beam="2">  1       -1 0.52732340E-02 0.27130403E+03</pdfrwt>
<totfact> 0.66288839E+03</totfact>
</mgrwt>
</event>
<event>
 9    1  0.7816570E-001  0.2735061E+03  0.7818608E-02  0.1099290E+00
          1   -1    0    0  501    0  0.00000000000E+00  0.00000000000E+00  0.36630202225E+02  0.36630202225E+02  0.00000000000E+00 0.  1.
         -1   -1    0    0    0  501 -0.00000000000E+00 -0.00000000000E+00 -0.51054564022E+03  0.51054564022E+03  0.00000000000E+00 0.  1.
         35    2    1    2    0    0  0.71054273576E-14 -0.35527136788E-14 -0.47391543799E+03  0.54717584244E+03  0.27350605146E+03 0.  0.
         25    2    3    3    0    0 -0.43326564753E+02 -0.31375889533E+02 -0.22994573752E+03  0.26751775813E+03  0.12581363619E+03 0.  0.
         25    2    3    3    0    0  0.43326564753E+02  0.31375889533E+02 -0.24396970047E+03  0.27965808432E+03  0.12580060302E+03 0.  0.
          5    1    4    4  502    0 -0.79896790160E+02 -0.97786689664E+01 -0.19912942254E+03  0.21483420669E+03  0.47000000000E+01 0.  1.
         -5    1    4    4    0  502  0.36570225407E+02 -0.21597220567E+02 -0.30816314987E+02  0.52683551436E+02  0.47000000000E+01 0.  1.
          5    1    5    5  503    0  0.66307045652E+01  0.18208113394E+02 -0.23928058971E+03  0.24010995866E+03  0.47000000000E+01 0.  1.
         -5    1    5    5    0  503  0.36695860188E+02  0.13167776140E+02 -0.46891107638E+01  0.39548125659E+02  0.47000000000E+01 0.  1.
<mgrwt>
<rscale>  0 0.27350605E+03</rscale>
<asrwt>0</asrwt>
<pdfrwt beam="1">  1        1 0.56354160E-02 0.27350605E+03</pdfrwt>
<pdfrwt beam="2">  1       -1 0.78545480E-01 0.27350605E+03</pdfrwt>
<totfact> 0.23835314E+03</totfact>
</mgrwt>
</event>
<event>
 9    1  0.7816570E-001  0.2756387E+03  0.7818608E-02  0.1098095E+00
          2   -1    0    0  501    0  0.00000000000E+00  0.00000000000E+00  0.62040148891E+03  0.62040148891E+03  0.00000000000E+00 0.  1.
         -2   -1    0    0    0  501 -0.00000000000E+00 -0.00000000000E+00 -0.30615930186E+02  0.30615930186E+02  0.00000000000E+00 0.  1.
         35    2    1    2    0    0  0.71054273576E-14  0.35527136788E-14  0.58978555872E+03  0.65101741910E+03  0.27563866689E+03 0.  0.
         25    2    3    3    0    0  0.41683177106E+02  0.98242807537E+01  0.37227529936E+03  0.39507644175E+03  0.12514988040E+03 0.  0.
         25    2    3    3    0    0 -0.41683177106E+02 -0.98242807537E+01  0.21751025936E+03  0.25594097735E+03  0.12791038743E+03 0.  0.
          5    1    4    4  502    0  0.78571245070E+02  0.16719158805E+02  0.15612007035E+03  0.17563751646E+03  0.47000000000E+01 0.  1.
         -5    1    4    4    0  502 -0.36888067964E+02 -0.68948780510E+01  0.21615522902E+03  0.21943892529E+03  0.47000000000E+01 0.  1.
          5    1    5    5  503    0  0.25574732155E+02  0.27589800922E+02  0.14577678541E+03  0.15062611064E+03  0.47000000000E+01 0. -1.
         -5    1    5    5    0  503 -0.67257909261E+02 -0.37414081675E+02  0.71733473949E+02  0.10531486671E+03  0.47000000000E+01 0. -1.
<mgrwt>
<rscale>  0 0.27563867E+03</rscale>
<asrwt>0</asrwt>
<pdfrwt beam="1">  1        2 0.95446374E-01 0.27563867E+03</pdfrwt>
<pdfrwt beam="2">  1       -2 0.47101435E-02 0.27563867E+03</pdfrwt>
<totfact> 0.10356781E+04</totfact>
</mgrwt>
</event>
<event>
 9    1  0.7816570E-001  0.2759542E+03  0.7818608E-02  0.1097919E+00
          2   -1    0    0  501    0  0.00000000000E+00  0.00000000000E+00  0.16566596781E+04  0.16566596781E+04  0.00000000000E+00 0. -1.
         -2   -1    0    0    0  501 -0.00000000000E+00 -0.00000000000E+00 -0.11491602053E+02  0.11491602053E+02  0.00000000000E+00 0. -1.
         35    2    1    2    0    0  0.00000000000E+00  0.71054273576E-14  0.16451680761E+04  0.16681512802E+04  0.27595415386E+03 0.  0.
         25    2    3    3    0    0  0.64074582428E+00 -0.21866173765E+02  0.46919302273E+03  0.48529877284E+03  0.12204206746E+03 0.  0.
         25    2    3    3    0    0 -0.64074582428E+00  0.21866173765E+02  0.11759750533E+04  0.11828525073E+04  0.12547584598E+03 0.  0.
          5    1    4    4  502    0  0.26937873882E+02 -0.64118932190E+02  0.20812955637E+03  0.21949234326E+03  0.47000000000E+01 0. -1.
         -5    1    4    4    0  502 -0.26297128057E+02  0.42252758425E+02  0.26106346636E+03  0.26580642958E+03  0.47000000000E+01 0. -1.
          5    1    5    5  503    0 -0.51805782938E+02 -0.13309310314E+02  0.30787522161E+03  0.31252234955E+03  0.47000000000E+01 0.  1.
         -5    1    5    5    0  503  0.51165037113E+02  0.35175484079E+02  0.86809983173E+03  0.87033015779E+03  0.47000000000E+01 0.  1.
<mgrwt>
<rscale>  0 0.27595415E+03</rscale>
<asrwt>0</asrwt>
<pdfrwt beam="1">  1        2 0.25487053E+00 0.27595415E+03</pdfrwt>
<pdfrwt beam="2">  1       -2 0.17679401E-02 0.27595415E+03</pdfrwt>
<totfact> 0.10439919E+04</totfact>
</mgrwt>
</event>
<event>
 9    1  0.7816570E-001  0.2730783E+03  0.7818608E-02  0.1099531E+00
          1   -1    0    0  501    0  0.00000000000E+00  0.00000000000E+00  0.12517319619E+03  0.12517319619E+03  0.00000000000E+00 0.  1.
         -1   -1    0    0    0  501 -0.00000000000E+00 -0.00000000000E+00 -0.14893718590E+03  0.14893718590E+03  0.00000000000E+00 0.  1.
         35    2    1    2    0    0  0.00000000000E+00  0.00000000000E+00 -0.23763989707E+02  0.27411038209E+03  0.27307833009E+03 0.  0.
         25    2    3    3    0    0  0.15722114156E+02  0.50284762483E+01  0.39642164117E+02  0.13293020458E+03  0.12580328957E+03 0.  0.
         25    2    3    3    0    0 -0.15722114156E+02 -0.50284762483E+01 -0.63406153825E+02  0.14118017751E+03  0.12505611434E+03 0.  0.
          5    1    4    4  502    0  0.45717717396E+01  0.57845424969E+02  0.51198110033E+02  0.77526322998E+02  0.47000000000E+01 0.  1.
         -5    1    4    4    0  502  0.11150342417E+02 -0.52816948721E+02 -0.11555945915E+02  0.55403881581E+02  0.47000000000E+01 0.  1.
          5    1    5    5  503    0 -0.23871028464E+02 -0.62780491758E+02 -0.29077807710E+02  0.73340473454E+02  0.47000000000E+01 0. -1.
         -5    1    5    5    0  503  0.81489143076E+01  0.57752015510E+02 -0.34328346115E+02  0.67839704059E+02  0.47000000000E+01 0. -1.
<mgrwt>
<rscale>  0 0.27307833E+03</rscale>
<asrwt>0</asrwt>
<pdfrwt beam="1">  1        1 0.19257415E-01 0.27307833E+03</pdfrwt>
<pdfrwt beam="2">  1       -1 0.22913413E-01 0.27307833E+03</pdfrwt>
<totfact> 0.42928735E+03</totfact>
</mgrwt>
</event>
<event>
 9    1  0.7816570E-001  0.2756309E+03  0.7818608E-02  0.1098099E+00
         -2   -1    0    0    0  501 -0.00000000000E+00  0.00000000000E+00  0.13028238525E+02  0.13028238525E+02  0.00000000000E+00 0.  1.
          2   -1    0    0  501    0  0.00000000000E+00 -0.00000000000E+00 -0.14578404772E+04  0.14578404772E+04  0.00000000000E+00 0.  1.
         35    2    1    2    0    0  0.00000000000E+00 -0.71054273576E-14 -0.14448122386E+04  0.14708687157E+04  0.27563086524E+03 0.  0.
         25    2    3    3    0    0  0.22593320523E+02  0.52046051042E+02 -0.78599071424E+03  0.79802572851E+03  0.12587458414E+03 0.  0.
         25    2    3    3    0    0 -0.22593320523E+02 -0.52046051042E+02 -0.65882152440E+03  0.67284298718E+03  0.12430862731E+03 0.  0.
          5    1    4    4  502    0 -0.12534853164E+01 -0.27888663654E+02 -0.51242022770E+02  0.58542153047E+02  0.47000000000E+01 0.  1.
         -5    1    4    4    0  502  0.23846805840E+02  0.79934714696E+02 -0.73474869147E+03  0.73948357547E+03  0.47000000000E+01 0.  1.
          5    1    5    5  503    0 -0.41603794298E+01  0.20496018884E+02 -0.45757992936E+03  0.45808173648E+03  0.47000000000E+01 0. -1.
         -5    1    5    5    0  503 -0.18432941093E+02 -0.72542069926E+02 -0.20124159504E+03  0.21476125070E+03  0.47000000000E+01 0. -1.
<mgrwt>
<rscale>  0 0.27563087E+03</rscale>
<asrwt>0</asrwt>
<pdfrwt beam="1">  1        2 0.22428295E+00 0.27563087E+03</pdfrwt>
<pdfrwt beam="2">  1       -2 0.20043462E-02 0.27563087E+03</pdfrwt>
<totfact> 0.11077696E+04</totfact>
</mgrwt>
</event>
<event>
 9    1  0.7816570E-001  0.2721622E+03  0.7818608E-02  0.1100048E+00
          1   -1    0    0  501    0  0.00000000000E+00  0.00000000000E+00  0.84316193511E+03  0.84316193511E+03  0.00000000000E+00 0. -1.
         -1   -1    0    0    0  501 -0.00000000000E+00 -0.00000000000E+00 -0.21962650033E+02  0.21962650033E+02  0.00000000000E+00 0. -1.
         35    2    1    2    0    0  0.00000000000E+00 -0.71054273576E-14  0.82119928508E+03  0.86512458514E+03  0.27216223472E+03 0.  0.
         25    2    3    3    0    0  0.19475693831E+01 -0.37402252163E+02  0.36020252332E+03  0.38567979090E+03  0.13266620447E+03 0.  0.
         25    2    3    3    0    0 -0.19475693831E+01  0.37402252163E+02  0.46099676175E+03  0.47944479424E+03  0.12627974851E+03 0.  0.
          5    1    4    4  502    0 -0.29465530504E+02  0.41872464536E+02  0.15888433022E+03  0.16699653039E+03  0.47000000000E+01 0. -1.
         -5    1    4    4    0  502  0.31413099887E+02 -0.79274716699E+02  0.20131819311E+03  0.21868326051E+03  0.47000000000E+01 0. -1.
          5    1    5    5  503    0 -0.27637497336E+02 -0.14967662577E+02  0.27530894525E+02  0.42046430708E+02  0.47000000000E+01 0.  1.
         -5    1    5    5    0  503  0.25689927953E+02  0.52369914740E+02  0.43346586723E+03  0.43739836353E+03  0.47000000000E+01 0.  1.
<mgrwt>
<rscale>  0 0.27216223E+03</rscale>
<asrwt>0</asrwt>
<pdfrwt beam="1">  1        1 0.12971720E+00 0.27216223E+03</pdfrwt>
<pdfrwt beam="2">  1       -1 0.33788699E-02 0.27216223E+03</pdfrwt>
<totfact> 0.66956377E+03</totfact>
</mgrwt>
</event>
<event>
 9    1  0.7816570E-001  0.2757379E+03  0.7818608E-02  0.1098040E+00
         -2   -1    0    0    0  501 -0.00000000000E+00  0.00000000000E+00  0.33349111027E+02  0.33349111027E+02  0.00000000000E+00 0.  1.
          2   -1    0    0  501    0  0.00000000000E+00 -0.00000000000E+00 -0.56996568531E+03  0.56996568531E+03  0.00000000000E+00 0.  1.
         35    2    1    2    0    0  0.71054273576E-14  0.71054273576E-14 -0.53661657429E+03  0.60331479634E+03  0.27573791122E+03 0.  0.
         25    2    3    3    0    0 -0.22981576018E+02 -0.54230256156E+02 -0.28886153256E+03  0.31974390059E+03  0.12379864075E+03 0.  0.
         25    2    3    3    0    0  0.22981576018E+02  0.54230256156E+02 -0.24775504172E+03  0.28357089575E+03  0.12474301061E+03 0.  0.
          5    1    4    4  502    0 -0.57020177009E+02  0.11479384431E+02 -0.16909353113E+03  0.17887925850E+03  0.47000000000E+01 0.  1.
         -5    1    4    4    0  502  0.34038600991E+02 -0.65709640587E+02 -0.11976800144E+03  0.14086464209E+03  0.47000000000E+01 0.  1.
          5    1    5    5  503    0  0.53907331917E+02 -0.16408021127E+02 -0.13996281844E+03  0.15095331775E+03  0.47000000000E+01 0. -1.
         -5    1    5    5    0  503 -0.30925755899E+02  0.70638277283E+02 -0.10779222328E+03  0.13261757800E+03  0.47000000000E+01 0. -1.
<mgrwt>
<rscale>  0 0.27573791E+03</rscale>
<asrwt>0</asrwt>
<pdfrwt beam="1">  1        2 0.87687024E-01 0.27573791E+03</pdfrwt>
<pdfrwt beam="2">  1       -2 0.51306327E-02 0.27573791E+03</pdfrwt>
<totfact> 0.10035213E+04</totfact>
</mgrwt>
</event>
<event>
 9    1  0.7816570E-001  0.2772661E+03  0.7818608E-02  0.1097192E+00
         -2   -1    0    0    0  501 -0.00000000000E+00  0.00000000000E+00  0.33196769125E+02  0.33196769125E+02  0.00000000000E+00 0.  1.
          2   -1    0    0  501    0  0.00000000000E+00 -0.00000000000E+00 -0.57894536603E+03  0.57894536603E+03  0.00000000000E+00 0.  1.
         35    2    1    2    0    0 -0.71054273576E-14  0.00000000000E+00 -0.54574859691E+03  0.61214213516E+03  0.27726605023E+03 0.  0.
         25    2    3    3    0    0 -0.52239825562E+02  0.90717327837E+01 -0.33987252863E+03  0.36589234288E+03  0.12470996414E+03 0.  0.
         25    2    3    3    0    0  0.52239825562E+02 -0.90717327837E+01 -0.20587606828E+03  0.24624979227E+03  0.12426869676E+03 0.  0.
          5    1    4    4  502    0  0.13293453072E+02  0.54070376797E+02 -0.13953210364E+03  0.15030508803E+03  0.47000000000E+01 0.  1.
         -5    1    4    4    0  502 -0.65533278634E+02 -0.44998644014E+02 -0.20034042498E+03  0.21558725485E+03  0.47000000000E+01 0.  1.
          5    1    5    5  503    0  0.51330077001E+02 -0.55232154743E+02 -0.17471922749E+03  0.19035300412E+03  0.47000000000E+01 0.  1.
         -5    1    5    5    0  503  0.90974856092E+00  0.46160421960E+02 -0.31156840791E+02  0.55896788155E+02  0.47000000000E+01 0.  1.
<mgrwt>
<rscale>  0 0.27726605E+03</rscale>
<asrwt>0</asrwt>
<pdfrwt beam="1">  1        2 0.89068509E-01 0.27726605E+03</pdfrwt>
<pdfrwt beam="2">  1       -2 0.51071958E-02 0.27726605E+03</pdfrwt>
<totfact> 0.99274378E+03</totfact>
</mgrwt>
</event>
<event>
 9    1  0.7816570E-001  0.2746932E+03  0.7818608E-02  0.1098623E+00
          1   -1    0    0  501    0  0.00000000000E+00  0.00000000000E+00  0.15029915707E+04  0.15029915707E+04  0.00000000000E+00 0. -1.
         -1   -1    0    0    0  501 -0.00000000000E+00 -0.00000000000E+00 -0.12551030228E+02  0.12551030228E+02  0.00000000000E+00 0. -1.
         35    2    1    2    0    0  0.00000000000E+00  0.00000000000E+00  0.14904405405E+04  0.15155426009E+04  0.27469322988E+03 0.  0.
         25    2    3    3    0    0  0.50274020884E+02  0.33305502924E+02  0.74387951715E+03  0.75620161617E+03  0.12184996740E+03 0.  0.
         25    2    3    3    0    0 -0.50274020884E+02 -0.33305502924E+02  0.74656102333E+03  0.75934098477E+03  0.12493452643E+03 0.  0.
          5    1    4    4  502    0  0.51265684740E+02 -0.37791009503E+02  0.31004402568E+03  0.31655286871E+03  0.47000000000E+01 0.  1.
         -5    1    4    4    0  502 -0.99166385621E+00  0.71096512428E+02  0.43383549148E+03  0.43964874746E+03  0.47000000000E+01 0.  1.
          5    1    5    5  503    0 -0.12940306212E+02  0.60555251632E+00  0.30599113090E+01  0.14116347826E+02  0.47000000000E+01 0. -1.
         -5    1    5    5    0  503 -0.37333714672E+02 -0.33911055441E+02  0.74350111202E+03  0.74522463694E+03  0.47000000000E+01 0. -1.
<mgrwt>
<rscale>  0 0.27469323E+03</rscale>
<asrwt>0</asrwt>
<pdfrwt beam="1">  1        1 0.23122933E+00 0.27469323E+03</pdfrwt>
<pdfrwt beam="2">  1       -1 0.19309289E-02 0.27469323E+03</pdfrwt>
<totfact> 0.51425461E+03</totfact>
</mgrwt>
</event>
<event>
 9    1  0.7816570E-001  0.2736374E+03  0.7818608E-02  0.1099216E+00
          2   -1    0    0  501    0  0.00000000000E+00  0.00000000000E+00  0.62674315766E+03  0.62674315766E+03  0.00000000000E+00 0. -1.
         -2   -1    0    0    0  501 -0.00000000000E+00 -0.00000000000E+00 -0.29867670433E+02  0.29867670433E+02  0.00000000000E+00 0. -1.
         35    2    1    2    0    0 -0.17763568394E-14  0.00000000000E+00  0.59687548723E+03  0.65661082810E+03  0.27363741030E+03 0.  0.
         25    2    3    3    0    0 -0.12786346355E+02 -0.23848534330E+02  0.41835786037E+03  0.43721760243E+03  0.12411160016E+03 0.  0.
         25    2    3    3    0    0  0.12786346355E+02  0.23848534330E+02  0.17851762686E+03  0.21939322567E+03  0.12462985648E+03 0.  0.
          5    1    4    4  502    0  0.13062223577E+02  0.38045950958E+02  0.28504344585E+03  0.28790618627E+03  0.47000000000E+01 0. -1.
         -5    1    4    4    0  502 -0.25848569932E+02 -0.61894485288E+02  0.13331441452E+03  0.14931141616E+03  0.47000000000E+01 0. -1.
          5    1    5    5  503    0 -0.27481247139E+02 -0.23463229550E+02  0.14322200793E+03  0.14778489653E+03  0.47000000000E+01 0. -1.
         -5    1    5    5    0  503  0.40267593494E+02  0.47311763880E+02  0.35295618930E+02  0.71608329145E+02  0.47000000000E+01 0. -1.
<mgrwt>
<rscale>  0 0.27363741E+03</rscale>
<asrwt>0</asrwt>
<pdfrwt beam="1">  1        2 0.96422015E-01 0.27363741E+03</pdfrwt>
<pdfrwt beam="2">  1       -2 0.45950267E-02 0.27363741E+03</pdfrwt>
<totfact> 0.10621814E+04</totfact>
</mgrwt>
</event>
<event>
 9    1  0.7816570E-001  0.2707894E+03  0.7818608E-02  0.1100829E+00
         -1   -1    0    0    0  501 -0.00000000000E+00  0.00000000000E+00  0.27607085865E+02  0.27607085865E+02  0.00000000000E+00 0. -1.
          1   -1    0    0  501    0  0.00000000000E+00 -0.00000000000E+00 -0.66402250576E+03  0.66402250576E+03  0.00000000000E+00 0. -1.
         35    2    1    2    0    0 -0.71054273576E-14 -0.71054273576E-14 -0.63641541990E+03  0.69162959163E+03  0.27078941141E+03 0.  0.
         25    2    3    3    0    0 -0.37658411193E+02 -0.23132848024E+02 -0.40175459458E+03  0.42298972726E+03  0.12474081335E+03 0.  0.
         25    2    3    3    0    0  0.37658411193E+02  0.23132848024E+02 -0.23466082532E+03  0.26863986436E+03  0.12307879263E+03 0.  0.
          5    1    4    4  502    0 -0.28176462150E+02 -0.58709539855E+00 -0.39650930692E+03  0.39753739217E+03  0.47000000000E+01 0. -1.
         -5    1    4    4    0  502 -0.94819490433E+01 -0.22545752626E+02 -0.52452876599E+01  0.25452335094E+02  0.47000000000E+01 0. -1.
          5    1    5    5  503    0  0.44803485532E+01  0.42510757923E+02 -0.22455207879E+03  0.22863281512E+03  0.47000000000E+01 0. -1.
         -5    1    5    5    0  503  0.33178062640E+02 -0.19377909899E+02 -0.10108746532E+02  0.40007049242E+02  0.47000000000E+01 0. -1.
<mgrwt>
<rscale>  0 0.27078941E+03</rscale>
<asrwt>0</asrwt>
<pdfrwt beam="1">  1        1 0.10215730E+00 0.27078941E+03</pdfrwt>
<pdfrwt beam="2">  1       -1 0.42472444E-02 0.27078941E+03</pdfrwt>
<totfact> 0.68198311E+03</totfact>
</mgrwt>
</event>
<event>
 9    1  0.7816570E-001  0.2739518E+03  0.7818608E-02  0.1099039E+00
          4   -1    0    0  501    0  0.00000000000E+00  0.00000000000E+00  0.18716189247E+03  0.18716189247E+03  0.00000000000E+00 0. -1.
         -4   -1    0    0    0  501 -0.00000000000E+00 -0.00000000000E+00 -0.10024685788E+03  0.10024685788E+03  0.00000000000E+00 0. -1.
         35    2    1    2    0    0 -0.35527136788E-14  0.71054273576E-14  0.86915034582E+02  0.28740875035E+03  0.27395175951E+03 0.  0.
         25    2    3    3    0    0  0.27986479104E+02 -0.24987622293E+02  0.89579148427E+02  0.15656602070E+03  0.12280419669E+03 0.  0.
         25    2    3    3    0    0 -0.27986479104E+02  0.24987622293E+02 -0.26641138452E+01  0.13084272965E+03  0.12531998292E+03 0.  0.
          5    1    4    4  502    0  0.11043785496E+02 -0.67073393891E+02  0.15992620219E+02  0.69990422685E+02  0.47000000000E+01 0.  1.
         -5    1    4    4    0  502  0.16942693608E+02  0.42085771598E+02  0.73586528208E+02  0.86575598014E+02  0.47000000000E+01 0.  1.
          5    1    5    5  503    0 -0.16041473544E+02  0.64998761448E+02 -0.36947278987E+02  0.76611743798E+02  0.47000000000E+01 0. -1.
         -5    1    5    5    0  503 -0.11945005559E+02 -0.40011139156E+02  0.34283165142E+02  0.54230985852E+02  0.47000000000E+01 0. -1.
<mgrwt>
<rscale>  0 0.27395176E+03</rscale>
<asrwt>0</asrwt>
<pdfrwt beam="1">  1        4 0.28794137E-01 0.27395176E+03</pdfrwt>
<pdfrwt beam="2">  1       -4 0.15422594E-01 0.27395176E+03</pdfrwt>
<totfact> 0.77326455E+02</totfact>
</mgrwt>
</event>
<event>
 9    1  0.7816570E-001  0.2688690E+03  0.7818608E-02  0.1101929E+00
         -1   -1    0    0    0  501 -0.00000000000E+00  0.00000000000E+00  0.42181653481E+02  0.42181653481E+02  0.00000000000E+00 0.  1.
          1   -1    0    0  501    0  0.00000000000E+00 -0.00000000000E+00 -0.42844784264E+03  0.42844784264E+03  0.00000000000E+00 0.  1.
         35    2    1    2    0    0  0.00000000000E+00 -0.35527136788E-14 -0.38626618916E+03  0.47062949612E+03  0.26886902710E+03 0.  0.
         25    2    3    3    0    0 -0.58093688524E+02  0.14516969175E+02 -0.17488206797E+03  0.22322489363E+03  0.12513990731E+03 0.  0.
         25    2    3    3    0    0  0.58093688524E+02 -0.14516969175E+02 -0.21138412119E+03  0.24740460249E+03  0.11375487506E+03 0.  0.
          5    1    4    4  502    0 -0.93605157715E+02  0.31675669574E+02 -0.12814224157E+03  0.16188822585E+03  0.47000000000E+01 0.  1.
         -5    1    4    4    0  502  0.35511469191E+02 -0.17158700400E+02 -0.46739826394E+02  0.61336667784E+02  0.47000000000E+01 0.  1.
          5    1    5    5  503    0  0.31816414604E+02 -0.18619774186E+02 -0.30066427464E+01  0.37284180688E+02  0.47000000000E+01 0. -1.
         -5    1    5    5    0  503  0.26277273920E+02  0.41028050111E+01 -0.20837747845E+03  0.21012042180E+03  0.47000000000E+01 0. -1.
<mgrwt>
<rscale>  0 0.26886903E+03</rscale>
<asrwt>0</asrwt>
<pdfrwt beam="1">  1        1 0.65915054E-01 0.26886903E+03</pdfrwt>
<pdfrwt beam="2">  1       -1 0.64894850E-02 0.26886903E+03</pdfrwt>
<totfact> 0.65270019E+03</totfact>
</mgrwt>
</event>
<event>
 9    1  0.7816570E-001  0.2722565E+03  0.7818608E-02  0.1099995E+00
          1   -1    0    0  501    0  0.00000000000E+00  0.00000000000E+00  0.10464714102E+02  0.10464714102E+02  0.00000000000E+00 0.  1.
         -1   -1    0    0    0  501 -0.00000000000E+00 -0.00000000000E+00 -0.17707988266E+04  0.17707988266E+04  0.00000000000E+00 0.  1.
         35    2    1    2    0    0 -0.14210854715E-13  0.26645352591E-14 -0.17603341125E+04  0.17812635407E+04  0.27225652207E+03 0.  0.
         25    2    3    3    0    0 -0.42379944847E+02  0.79173268084E+01 -0.70864785081E+03  0.72090191552E+03  0.12513613211E+03 0.  0.
         25    2    3    3    0    0  0.42379944847E+02 -0.79173268084E+01 -0.10516862617E+04  0.10603616252E+04  0.12831227274E+03 0.  0.
          5    1    4    4  502    0  0.36093291451E+02  0.97899921975E+01 -0.94487615547E+02  0.10172791715E+03  0.47000000000E+01 0.  1.
         -5    1    4    4    0  502 -0.78473236298E+02 -0.18726653891E+01 -0.61416023526E+03  0.61917399838E+03  0.47000000000E+01 0.  1.
          5    1    5    5  503    0 -0.12449000377E+02  0.82643554501E+01 -0.86316862360E+03  0.86331074356E+03  0.47000000000E+01 0. -1.
         -5    1    5    5    0  503  0.54828945224E+02 -0.16181682259E+02 -0.18851763809E+03  0.19705088162E+03  0.47000000000E+01 0. -1.
<mgrwt>
<rscale>  0 0.27225652E+03</rscale>
<asrwt>0</asrwt>
<pdfrwt beam="1">  1        1 0.16099555E-02 0.27225652E+03</pdfrwt>
<pdfrwt beam="2">  1       -1 0.27243068E+00 0.27225652E+03</pdfrwt>
<totfact> 0.47236008E+02</totfact>
</mgrwt>
</event>
<event>
 9    1  0.7816570E-001  0.2547166E+03  0.7818608E-02  0.1110360E+00
         -2   -1    0    0    0  501 -0.00000000000E+00  0.00000000000E+00  0.64900739757E+03  0.64900739757E+03  0.00000000000E+00 0.  1.
          2   -1    0    0  501    0  0.00000000000E+00 -0.00000000000E+00 -0.24992229688E+02  0.24992229688E+02  0.00000000000E+00 0.  1.
         35    2    1    2    0    0 -0.17763568394E-14  0.00000000000E+00  0.62401516788E+03  0.67399962726E+03  0.25471664217E+03 0.  0.
         25    2    3    3    0    0  0.15197646206E+02 -0.13832169155E+02  0.26383005250E+03  0.29245011366E+03  0.12449287140E+03 0.  0.
         25    2    3    3    0    0 -0.15197646206E+02  0.13832169155E+02  0.36018511539E+03  0.38154951359E+03  0.12419507487E+03 0.  0.
          5    1    4    4  502    0 -0.14236529061E+02  0.42103867504E+02  0.40547075503E+02  0.60345420293E+02  0.47000000000E+01 0.  1.
         -5    1    4    4    0  502  0.29434175267E+02 -0.55936036659E+02  0.22328297699E+03  0.23210469337E+03  0.47000000000E+01 0.  1.
          5    1    5    5  503    0 -0.21925617518E+02  0.21552384810E+02  0.12242717374E+02  0.33424723233E+02  0.47000000000E+01 0.  1.
         -5    1    5    5    0  503  0.67279713121E+01 -0.77202156546E+01  0.34794239801E+03  0.34812479036E+03  0.47000000000E+01 0.  1.
<mgrwt>
<rscale>  0 0.25471664E+03</rscale>
<asrwt>0</asrwt>
<pdfrwt beam="1">  1        2 0.38449589E-02 0.25471664E+03</pdfrwt>
<pdfrwt beam="2">  1       -2 0.99847279E-01 0.25471664E+03</pdfrwt>
<totfact> 0.19158916E+03</totfact>
</mgrwt>
</event>
<event>
 9    1  0.7816570E-001  0.2933921E+03  0.7818608E-02  0.1088591E+00
          2   -1    0    0  501    0  0.00000000000E+00  0.00000000000E+00  0.47509489061E+03  0.47509489061E+03  0.00000000000E+00 0. -1.
         -2   -1    0    0    0  501 -0.00000000000E+00 -0.00000000000E+00 -0.45295640339E+02  0.45295640339E+02  0.00000000000E+00 0. -1.
         35    2    1    2    0    0  0.14210854715E-13 -0.71054273576E-14  0.42979925027E+03  0.52039053095E+03  0.29339207414E+03 0.  0.
         25    2    3    3    0    0  0.72247623998E+02 -0.24007179417E+02  0.19015064706E+03  0.23982882580E+03  0.12475789863E+03 0.  0.
         25    2    3    3    0    0 -0.72247623998E+02  0.24007179417E+02  0.23964860321E+03  0.28056170515E+03  0.12444819620E+03 0.  0.
          5    1    4    4  502    0  0.13270022215E+02 -0.26480024707E+02  0.17653925101E+03  0.17906837338E+03  0.47000000000E+01 0.  1.
         -5    1    4    4    0  502  0.58977601783E+02  0.24728452894E+01  0.13611396052E+02  0.60760452421E+02  0.47000000000E+01 0.  1.
          5    1    5    5  503    0 -0.23467289404E+02  0.72543555080E+02  0.11401914409E+03  0.13724334693E+03  0.47000000000E+01 0. -1.
         -5    1    5    5    0  503 -0.48780334594E+02 -0.48536375663E+02  0.12562945912E+03  0.14331835822E+03  0.47000000000E+01 0. -1.
<mgrwt>
<rscale>  0 0.29339207E+03</rscale>
<asrwt>0</asrwt>
<pdfrwt beam="1">  1        2 0.73091518E-01 0.29339207E+03</pdfrwt>
<pdfrwt beam="2">  1       -2 0.69685604E-02 0.29339207E+03</pdfrwt>
<totfact> 0.77180449E+03</totfact>
</mgrwt>
</event>
<event>
 9    1  0.7816570E-001  0.2713822E+03  0.7818608E-02  0.1100491E+00
          2   -1    0    0  501    0  0.00000000000E+00  0.00000000000E+00  0.10855312726E+04  0.10855312726E+04  0.00000000000E+00 0. -1.
         -2   -1    0    0    0  501 -0.00000000000E+00 -0.00000000000E+00 -0.16961353329E+02  0.16961353329E+02  0.00000000000E+00 0. -1.
         35    2    1    2    0    0 -0.71054273576E-14 -0.17763568394E-14  0.10685699192E+04  0.11024926259E+04  0.27138223570E+03 0.  0.
         25    2    3    3    0    0  0.30393656114E+02  0.14644466207E+02  0.37014340012E+03  0.39217396904E+03  0.12512414083E+03 0.  0.
         25    2    3    3    0    0 -0.30393656114E+02 -0.14644466207E+02  0.69842651911E+03  0.71031865685E+03  0.12495902107E+03 0.  0.
          5    1    4    4  502    0  0.14860159797E+02 -0.84572467259E+01 -0.29824895674E+01  0.17981507595E+02  0.47000000000E+01 0. -1.
         -5    1    4    4    0  502  0.15533496317E+02  0.23101712932E+02  0.37312588969E+03  0.37419246145E+03  0.47000000000E+01 0. -1.
          5    1    5    5  503    0 -0.62204522929E+02 -0.48288408182E+02  0.51868262122E+03  0.52464742884E+03  0.47000000000E+01 0.  1.
         -5    1    5    5    0  503  0.31810866816E+02  0.33643941976E+02  0.17974389790E+03  0.18567122801E+03  0.47000000000E+01 0.  1.
<mgrwt>
<rscale>  0 0.27138224E+03</rscale>
<asrwt>0</asrwt>
<pdfrwt beam="1">  1        2 0.16700476E+00 0.27138224E+03</pdfrwt>
<pdfrwt beam="2">  1       -2 0.26094398E-02 0.27138224E+03</pdfrwt>
<totfact> 0.12120034E+04</totfact>
</mgrwt>
</event>
<event>
 9    1  0.7816570E-001  0.2776459E+03  0.7818608E-02  0.1096982E+00
          2   -1    0    0  501    0  0.00000000000E+00  0.00000000000E+00  0.13027657027E+04  0.13027657027E+04  0.00000000000E+00 0.  1.
         -2   -1    0    0    0  501 -0.00000000000E+00 -0.00000000000E+00 -0.14793003265E+02  0.14793003265E+02  0.00000000000E+00 0.  1.
         35    2    1    2    0    0  0.71054273576E-14  0.71054273576E-14  0.12879726994E+04  0.13175587059E+04  0.27764594211E+03 0.  0.
         25    2    3    3    0    0 -0.41884303510E+02  0.38284141245E+02  0.67329568789E+03  0.68742530468E+03  0.12651678080E+03 0.  0.
         25    2    3    3    0    0  0.41884303510E+02 -0.38284141245E+02  0.61467701151E+03  0.63013340126E+03  0.12657134173E+03 0.  0.
          5    1    4    4  502    0  0.33099014001E+02  0.20181123835E+02  0.78983483862E+02  0.88109609068E+02  0.47000000000E+01 0. -1.
         -5    1    4    4    0  502 -0.74983317512E+02  0.18103017410E+02  0.59431220403E+03  0.59931569561E+03  0.47000000000E+01 0. -1.
          5    1    5    5  503    0  0.78817577216E+02  0.63279034769E+01  0.39763253906E+03  0.40544540811E+03  0.47000000000E+01 0.  1.
         -5    1    5    5    0  503 -0.36933273705E+02 -0.44612044722E+02  0.21704447245E+03  0.22468799314E+03  0.47000000000E+01 0.  1.
<mgrwt>
<rscale>  0 0.27764594E+03</rscale>
<asrwt>0</asrwt>
<pdfrwt beam="1">  1        2 0.20042540E+00 0.27764594E+03</pdfrwt>
<pdfrwt beam="2">  1       -2 0.22758477E-02 0.27764594E+03</pdfrwt>
<totfact> 0.11162840E+04</totfact>
</mgrwt>
</event>
<event>
 9    1  0.7816570E-001  0.2683216E+03  0.7818608E-02  0.1102244E+00
         -1   -1    0    0    0  501 -0.00000000000E+00  0.00000000000E+00  0.89567945188E+02  0.89567945188E+02  0.00000000000E+00 0.  1.
          1   -1    0    0  501    0  0.00000000000E+00 -0.00000000000E+00 -0.20095488530E+03  0.20095488530E+03  0.00000000000E+00 0.  1.
         35    2    1    2    0    0  0.00000000000E+00 -0.71054273576E-14 -0.11138694012E+03  0.29052283049E+03  0.26832156941E+03 0.  0.
         25    2    3    3    0    0  0.64808092626E+00 -0.21169642909E+02 -0.10353007617E+03  0.16354946088E+03  0.12482538081E+03 0.  0.
         25    2    3    3    0    0 -0.64808092626E+00  0.21169642909E+02 -0.78568639502E+01  0.12697336961E+03  0.12494771903E+03 0.  0.
          5    1    4    4  502    0 -0.35008931503E+02  0.22843442300E+02  0.36570122793E+01  0.42224541204E+02  0.47000000000E+01 0. -1.
         -5    1    4    4    0  502  0.35657012429E+02 -0.44013085209E+02 -0.10718708844E+03  0.12132491968E+03  0.47000000000E+01 0. -1.
          5    1    5    5  503    0 -0.12398548503E+02  0.58929958082E+02  0.33903658823E+02  0.69267683995E+02  0.47000000000E+01 0.  1.
         -5    1    5    5    0  503  0.11750467577E+02 -0.37760315173E+02 -0.41760522773E+02  0.57705685617E+02  0.47000000000E+01 0.  1.
<mgrwt>
<rscale>  0 0.26832157E+03</rscale>
<asrwt>0</asrwt>
<pdfrwt beam="1">  1        1 0.30916136E-01 0.26832157E+03</pdfrwt>
<pdfrwt beam="2">  1       -1 0.13779684E-01 0.26832157E+03</pdfrwt>
<totfact> 0.53199618E+03</totfact>
</mgrwt>
</event>
<event>
 9    1  0.7816570E-001  0.2752627E+03  0.7818608E-02  0.1098305E+00
          1   -1    0    0  501    0  0.00000000000E+00  0.00000000000E+00  0.35412515936E+02  0.35412515936E+02  0.00000000000E+00 0. -1.
         -1   -1    0    0    0  501 -0.00000000000E+00 -0.00000000000E+00 -0.53490678853E+03  0.53490678853E+03  0.00000000000E+00 0. -1.
         35    2    1    2    0    0  0.00000000000E+00  0.00000000000E+00 -0.49949427259E+03  0.57031930446E+03  0.27526274846E+03 0.  0.
         25    2    3    3    0    0  0.11071745189E+02  0.32155977425E+02 -0.15216658946E+03  0.20037061342E+03  0.12584562507E+03 0.  0.
         25    2    3    3    0    0 -0.11071745189E+02 -0.32155977425E+02 -0.34732768313E+03  0.36994869105E+03  0.12275554615E+03 0.  0.
          5    1    4    4  502    0  0.38520706920E+02  0.30354334782E+01 -0.15515840839E+03  0.15996649778E+03  0.47000000000E+01 0.  1.
         -5    1    4    4    0  502 -0.27448961731E+02  0.29120543947E+02  0.29918189313E+01  0.40404115637E+02  0.47000000000E+01 0.  1.
          5    1    5    5  503    0 -0.66442104250E+02 -0.17239702358E+02 -0.21239279191E+03  0.22325892728E+03  0.47000000000E+01 0. -1.
         -5    1    5    5    0  503  0.55370359060E+02 -0.14916275067E+02 -0.13493489123E+03  0.14668976377E+03  0.47000000000E+01 0. -1.
<mgrwt>
<rscale>  0 0.27526275E+03</rscale>
<asrwt>0</asrwt>
<pdfrwt beam="1">  1        1 0.54480794E-02 0.27526275E+03</pdfrwt>
<pdfrwt beam="2">  1       -1 0.82293351E-01 0.27526275E+03</pdfrwt>
<totfact> 0.22673947E+03</totfact>
</mgrwt>
</event>
<event>
 9    1  0.7816570E-001  0.2754520E+03  0.7818608E-02  0.1098199E+00
         -2   -1    0    0    0  501 -0.00000000000E+00  0.00000000000E+00  0.28541133308E+02  0.28541133308E+02  0.00000000000E+00 0.  1.
          2   -1    0    0  501    0  0.00000000000E+00 -0.00000000000E+00 -0.66460035971E+03  0.66460035971E+03  0.00000000000E+00 0.  1.
         35    2    1    2    0    0 -0.35527136788E-14  0.00000000000E+00 -0.63605922640E+03  0.69314149302E+03  0.27545197377E+03 0.  0.
         25    2    3    3    0    0 -0.22302561106E+02  0.37599298950E+02 -0.40715058801E+03  0.42819367055E+03  0.12516831337E+03 0.  0.
         25    2    3    3    0    0  0.22302561106E+02 -0.37599298950E+02 -0.22890863840E+03  0.26494782247E+03  0.12604393038E+03 0.  0.
          5    1    4    4  502    0  0.20979182793E+02  0.11285193502E+02 -0.76361529020E+01  0.25453536771E+02  0.47000000000E+01 0. -1.
         -5    1    4    4    0  502 -0.43281743899E+02  0.26314105448E+02 -0.39951443510E+03  0.40274013378E+03  0.47000000000E+01 0. -1.
          5    1    5    5  503    0  0.11828356810E+02  0.29462255665E+02 -0.70069697662E+01  0.32849994809E+02  0.47000000000E+01 0.  1.
         -5    1    5    5    0  503  0.10474204297E+02 -0.67061554614E+02 -0.22190166863E+03  0.23209782766E+03  0.47000000000E+01 0.  1.
<mgrwt>
<rscale>  0 0.27545197E+03</rscale>
<asrwt>0</asrwt>
<pdfrwt beam="1">  1        2 0.10224621E+00 0.27545197E+03</pdfrwt>
<pdfrwt beam="2">  1       -2 0.43909436E-02 0.27545197E+03</pdfrwt>
<totfact> 0.10616294E+04</totfact>
</mgrwt>
</event>
<event>
 9    1  0.7816570E-001  0.2742734E+03  0.7818608E-02  0.1098858E+00
          2   -1    0    0  501    0  0.00000000000E+00  0.00000000000E+00  0.41436288190E+03  0.41436288190E+03  0.00000000000E+00 0.  1.
         -2   -1    0    0    0  501 -0.00000000000E+00 -0.00000000000E+00 -0.45386487056E+02  0.45386487056E+02  0.00000000000E+00 0.  1.
         35    2    1    2    0    0  0.00000000000E+00  0.00000000000E+00  0.36897639485E+03  0.45974936896E+03  0.27427340794E+03 0.  0.
         25    2    3    3    0    0 -0.54203394456E+02  0.25316412107E+02  0.17921849104E+03  0.22630404628E+03  0.12456052802E+03 0.  0.
         25    2    3    3    0    0  0.54203394456E+02 -0.25316412107E+02  0.18975790380E+03  0.23344532268E+03  0.12210539681E+03 0.  0.
          5    1    4    4  502    0 -0.63366047505E+02  0.66383549608E+02  0.14590422189E+03  0.17243017021E+03  0.47000000000E+01 0. -1.
         -5    1    4    4    0  502  0.91626530494E+01 -0.41067137501E+02  0.33314269156E+02  0.53873876070E+02  0.47000000000E+01 0. -1.
          5    1    5    5  503    0  0.58362662586E+02  0.98045146529E+01  0.18862848987E+03  0.19775016077E+03  0.47000000000E+01 0. -1.
         -5    1    5    5    0  503 -0.41592681308E+01 -0.35120926760E+02  0.11294139303E+01  0.35695161909E+02  0.47000000000E+01 0. -1.
<mgrwt>
<rscale>  0 0.27427341E+03</rscale>
<asrwt>0</asrwt>
<pdfrwt beam="1">  1        2 0.63748133E-01 0.27427341E+03</pdfrwt>
<pdfrwt beam="2">  1       -2 0.69825367E-02 0.27427341E+03</pdfrwt>
<totfact> 0.89230950E+03</totfact>
</mgrwt>
</event>
<event>
 9    1  0.7816570E-001  0.2746813E+03  0.7818608E-02  0.1098630E+00
          2   -1    0    0  501    0  0.00000000000E+00  0.00000000000E+00  0.24149380219E+04  0.24149380219E+04  0.00000000000E+00 0. -1.
         -2   -1    0    0    0  501 -0.00000000000E+00 -0.00000000000E+00 -0.78107429033E+01  0.78107429033E+01  0.00000000000E+00 0. -1.
         35    2    1    2    0    0  0.00000000000E+00 -0.35527136788E-14  0.24071272790E+04  0.24227487648E+04  0.27468134277E+03 0.  0.
         25    2    3    3    0    0 -0.24047126250E+02  0.13461751968E+01  0.74867543135E+03  0.75932486314E+03  0.12441571366E+03 0.  0.
         25    2    3    3    0    0  0.24047126250E+02 -0.13461751968E+01  0.16584518476E+04  0.16634239017E+04  0.12623972908E+03 0.  0.
          5    1    4    4  502    0  0.84726143037E+01  0.58259335179E+02  0.42121125716E+03  0.42533157476E+03  0.47000000000E+01 0.  1.
         -5    1    4    4    0  502 -0.32519740553E+02 -0.56913159982E+02  0.32746417419E+03  0.33399328838E+03  0.47000000000E+01 0.  1.
          5    1    5    5  503    0  0.48356980355E+02 -0.12261786711E+02  0.26421730850E+03  0.26892680244E+03  0.47000000000E+01 0.  1.
         -5    1    5    5    0  503 -0.24309854105E+02  0.10915611514E+02  0.13942345391E+04  0.13944970992E+04  0.47000000000E+01 0.  1.
<mgrwt>
<rscale>  0 0.27468134E+03</rscale>
<asrwt>0</asrwt>
<pdfrwt beam="1">  1        2 0.37152833E+00 0.27468134E+03</pdfrwt>
<pdfrwt beam="2">  1       -2 0.12016547E-02 0.27468134E+03</pdfrwt>
<totfact> 0.72818844E+03</totfact>
</mgrwt>
</event>
<event>
 9    1  0.7816570E-001  0.2746577E+03  0.7818608E-02  0.1098643E+00
         -1   -1    0    0    0  501 -0.00000000000E+00  0.00000000000E+00  0.20552294398E+02  0.20552294398E+02  0.00000000000E+00 0. -1.
          1   -1    0    0  501    0  0.00000000000E+00 -0.00000000000E+00 -0.91762058039E+03  0.91762058039E+03  0.00000000000E+00 0. -1.
         35    2    1    2    0    0 -0.14210854715E-13  0.00000000000E+00 -0.89706828599E+03  0.93817287479E+03  0.27465766557E+03 0.  0.
         25    2    3    3    0    0 -0.51692374027E+02 -0.32398475026E+02 -0.48369235393E+03  0.50333294930E+03  0.12515591034E+03 0.  0.
         25    2    3    3    0    0  0.51692374027E+02  0.32398475026E+02 -0.41337593206E+03  0.43483992548E+03  0.12035089059E+03 0.  0.
          5    1    4    4  502    0  0.33441138245E+02 -0.37182251460E+02 -0.12727469836E+03  0.13682751329E+03  0.47000000000E+01 0.  1.
         -5    1    4    4    0  502 -0.85133512271E+02  0.47837764340E+01 -0.35641765557E+03  0.36650543602E+03  0.47000000000E+01 0.  1.
          5    1    5    5  503    0  0.50830867847E+01  0.15559554642E+02 -0.36509558158E+03  0.36549255971E+03  0.47000000000E+01 0.  1.
         -5    1    5    5    0  503  0.46609287242E+02  0.16838920384E+02 -0.48280350480E+02  0.69347365771E+02  0.47000000000E+01 0.  1.
<mgrwt>
<rscale>  0 0.27465767E+03</rscale>
<asrwt>0</asrwt>
<pdfrwt beam="1">  1        1 0.14117242E+00 0.27465767E+03</pdfrwt>
<pdfrwt beam="2">  1       -1 0.31618910E-02 0.27465767E+03</pdfrwt>
<totfact> 0.64469233E+03</totfact>
</mgrwt>
</event>
<event>
 9    1  0.7816570E-001  0.2813112E+03  0.7818608E-02  0.1094975E+00
         -2   -1    0    0    0  501 -0.00000000000E+00  0.00000000000E+00  0.16791301358E+03  0.16791301358E+03  0.00000000000E+00 0. -1.
          2   -1    0    0  501    0  0.00000000000E+00 -0.00000000000E+00 -0.11782293259E+03  0.11782293259E+03  0.00000000000E+00 0. -1.
         35    2    1    2    0    0  0.71054273576E-14  0.00000000000E+00  0.50090080990E+02  0.28573594616E+03  0.28131124172E+03 0.  0.
         25    2    3    3    0    0  0.59968486219E+02  0.18715228166E+02  0.37435409910E+02  0.14550110314E+03  0.12578824267E+03 0.  0.
         25    2    3    3    0    0 -0.59968486219E+02 -0.18715228166E+02  0.12654671079E+02  0.14023484302E+03  0.12473648782E+03 0.  0.
          5    1    4    4  502    0  0.93919544451E+02  0.52984830050E+01  0.49966263054E+02  0.10661928623E+03  0.47000000000E+01 0.  1.
         -5    1    4    4    0  502 -0.33951058233E+02  0.13416745161E+02 -0.12530853143E+02  0.38881816911E+02  0.47000000000E+01 0.  1.
          5    1    5    5  503    0  0.37459842413E+02 -0.16645971933E+02 -0.32300071949E+01  0.41386605583E+02  0.47000000000E+01 0. -1.
         -5    1    5    5    0  503 -0.97428328632E+02 -0.20692562330E+01  0.15884678274E+02  0.98848237441E+02  0.47000000000E+01 0. -1.
<mgrwt>
<rscale>  0 0.28131124E+03</rscale>
<asrwt>0</asrwt>
<pdfrwt beam="1">  1        2 0.18126605E-01 0.28131124E+03</pdfrwt>
<pdfrwt beam="2">  1       -2 0.25832771E-01 0.28131124E+03</pdfrwt>
<totfact> 0.41548247E+03</totfact>
</mgrwt>
</event>
<event>
 9    1  0.7816570E-001  0.2743393E+03  0.7818608E-02  0.1098821E+00
         -1   -1    0    0    0  501 -0.00000000000E+00  0.00000000000E+00  0.48141524108E+02  0.48141524108E+02  0.00000000000E+00 0. -1.
          1   -1    0    0  501    0  0.00000000000E+00 -0.00000000000E+00 -0.39083754974E+03  0.39083754974E+03  0.00000000000E+00 0. -1.
         35    2    1    2    0    0  0.00000000000E+00  0.00000000000E+00 -0.34269602563E+03  0.43897907385E+03  0.27433931780E+03 0.  0.
         25    2    3    3    0    0 -0.59943883860E+01  0.53312705232E+02 -0.14723484848E+03  0.20066685226E+03  0.12534316000E+03 0.  0.
         25    2    3    3    0    0  0.59943883860E+01 -0.53312705232E+02 -0.19546117715E+03  0.23831222158E+03  0.12533740843E+03 0.  0.
          5    1    4    4  502    0 -0.79910705515E+01  0.16215522990E+02  0.21121660348E+02  0.28196009119E+02  0.47000000000E+01 0.  1.
         -5    1    4    4    0  502  0.19966821654E+01  0.37097182242E+02 -0.16835650883E+03  0.17247084314E+03  0.47000000000E+01 0.  1.
          5    1    5    5  503    0  0.72149218638E+01  0.34625854119E+02 -0.10980093276E+03  0.11545275963E+03  0.47000000000E+01 0. -1.
         -5    1    5    5    0  503 -0.12205334777E+01 -0.87938559352E+02 -0.85660244392E+02  0.12285946196E+03  0.47000000000E+01 0. -1.
<mgrwt>
<rscale>  0 0.27433932E+03</rscale>
<asrwt>0</asrwt>
<pdfrwt beam="1">  1        1 0.60128854E-01 0.27433932E+03</pdfrwt>
<pdfrwt beam="2">  1       -1 0.74063883E-02 0.27433932E+03</pdfrwt>
<totfact> 0.60149938E+03</totfact>
</mgrwt>
</event>
<event>
 9    1  0.7816570E-001  0.2733208E+03  0.7818608E-02  0.1099394E+00
          2   -1    0    0  501    0  0.00000000000E+00  0.00000000000E+00  0.81913277338E+02  0.81913277338E+02  0.00000000000E+00 0.  1.
         -2   -1    0    0    0  501 -0.00000000000E+00 -0.00000000000E+00 -0.22799806102E+03  0.22799806102E+03  0.00000000000E+00 0.  1.
         35    2    1    2    0    0  0.17763568394E-14 -0.71054273576E-14 -0.14608478369E+03  0.30991133836E+03  0.27332082544E+03 0.  0.
         25    2    3    3    0    0 -0.83564897713E+01 -0.52654989893E+02 -0.70103962466E+02  0.15333943033E+03  0.12552305150E+03 0.  0.
         25    2    3    3    0    0  0.83564897713E+01  0.52654989893E+02 -0.75980821220E+02  0.15657190803E+03  0.12609241971E+03 0.  0.
          5    1    4    4  502    0  0.95557345949E+01 -0.18702859329E+02  0.35144232985E+02  0.41210631188E+02  0.47000000000E+01 0. -1.
         -5    1    4    4    0  502 -0.17912224366E+02 -0.33952130563E+02 -0.10524819545E+03  0.11212879914E+03  0.47000000000E+01 0. -1.
          5    1    5    5  503    0  0.30185156667E+02 -0.32102956869E+02 -0.46157863524E+02  0.63987357250E+02  0.47000000000E+01 0.  1.
         -5    1    5    5    0  503 -0.21828666896E+02  0.84757946761E+02 -0.29822957695E+02  0.92584550781E+02  0.47000000000E+01 0.  1.
<mgrwt>
<rscale>  0 0.27332083E+03</rscale>
<asrwt>0</asrwt>
<pdfrwt beam="1">  1        2 0.12602043E-01 0.27332083E+03</pdfrwt>
<pdfrwt beam="2">  1       -2 0.35076625E-01 0.27332083E+03</pdfrwt>
<totfact> 0.36615500E+03</totfact>
</mgrwt>
</event>
<event>
 9    1  0.7816570E-001  0.2738772E+03  0.7818608E-02  0.1099081E+00
         -1   -1    0    0    0  501 -0.00000000000E+00  0.00000000000E+00  0.73973475318E+02  0.73973475318E+02  0.00000000000E+00 0.  1.
          1   -1    0    0  501    0  0.00000000000E+00 -0.00000000000E+00 -0.25349866018E+03  0.25349866018E+03  0.00000000000E+00 0.  1.
         35    2    1    2    0    0 -0.71054273576E-14 -0.17763568394E-14 -0.17952518486E+03  0.32747213550E+03  0.27387717599E+03 0.  0.
         25    2    3    3    0    0 -0.35616090099E+02  0.15091131035E+02 -0.47833736130E+02  0.14158402363E+03  0.12752145437E+03 0.  0.
         25    2    3    3    0    0  0.35616090099E+02 -0.15091131035E+02 -0.13169144873E+03  0.18588811187E+03  0.12536149471E+03 0.  0.
          5    1    4    4  502    0  0.26110763107E+02 -0.19675748809E+02 -0.61004515541E+02  0.69372530282E+02  0.47000000000E+01 0. -1.
         -5    1    4    4    0  502 -0.61726853205E+02  0.34766879845E+02  0.13170779411E+02  0.72211493345E+02  0.47000000000E+01 0. -1.
          5    1    5    5  503    0 -0.77502275853E-01  0.43218357715E+01 -0.14324363595E+03  0.14338589021E+03  0.47000000000E+01 0.  1.
         -5    1    5    5    0  503  0.35693592374E+02 -0.19412966807E+02  0.11552187217E+02  0.42502221663E+02  0.47000000000E+01 0.  1.
<mgrwt>
<rscale>  0 0.27387718E+03</rscale>
<asrwt>0</asrwt>
<pdfrwt beam="1">  1        1 0.38999794E-01 0.27387718E+03</pdfrwt>
<pdfrwt beam="2">  1       -1 0.11380535E-01 0.27387718E+03</pdfrwt>
<totfact> 0.53645975E+03</totfact>
</mgrwt>
</event>
<event>
 9    1  0.7816570E-001  0.2780557E+03  0.7818608E-02  0.1096756E+00
          1   -1    0    0  501    0  0.00000000000E+00  0.00000000000E+00  0.10430355685E+03  0.10430355685E+03  0.00000000000E+00 0.  1.
         -1   -1    0    0    0  501 -0.00000000000E+00 -0.00000000000E+00 -0.18531234704E+03  0.18531234704E+03  0.00000000000E+00 0.  1.
         35    2    1    2    0    0  0.00000000000E+00  0.00000000000E+00 -0.81008790192E+02  0.28961590389E+03  0.27805565575E+03 0.  0.
         25    2    3    3    0    0  0.13027769782E+02  0.58719306256E+02 -0.53164700579E+02  0.14804976467E+03  0.12439681555E+03 0.  0.
         25    2    3    3    0    0 -0.13027769782E+02 -0.58719306256E+02 -0.27844089613E+02  0.14156613921E+03  0.12509196110E+03 0.  0.
          5    1    4    4  502    0 -0.51823906879E+02  0.49154389021E+02 -0.19410004513E+02  0.74166768566E+02  0.47000000000E+01 0. -1.
         -5    1    4    4    0  502  0.64851676661E+02  0.95649172349E+01 -0.33754696065E+02  0.73882996109E+02  0.47000000000E+01 0. -1.
          5    1    5    5  503    0  0.18679487982E+02 -0.52864069029E+01 -0.65692514528E+02  0.68661967887E+02  0.47000000000E+01 0. -1.
         -5    1    5    5    0  503 -0.31707257764E+02 -0.53432899353E+02  0.37848424914E+02  0.72904171326E+02  0.47000000000E+01 0. -1.
<mgrwt>
<rscale>  0 0.27805566E+03</rscale>
<asrwt>0</asrwt>
<pdfrwt beam="1">  1        1 0.16046701E-01 0.27805566E+03</pdfrwt>
<pdfrwt beam="2">  1       -1 0.28509591E-01 0.27805566E+03</pdfrwt>
<totfact> 0.37809262E+03</totfact>
</mgrwt>
</event>
<event>
 9    1  0.7816570E-001  0.2712912E+03  0.7818608E-02  0.1100543E+00
         -3   -1    0    0    0  501 -0.00000000000E+00  0.00000000000E+00  0.11651681798E+03  0.11651681798E+03  0.00000000000E+00 0. -1.
          3   -1    0    0  501    0  0.00000000000E+00 -0.00000000000E+00 -0.15791476264E+03  0.15791476264E+03  0.00000000000E+00 0. -1.
         35    2    1    2    0    0  0.71054273576E-14 -0.71054273576E-14 -0.41397944656E+02  0.27443158062E+03  0.27129117681E+03 0.  0.
         25    2    3    3    0    0  0.26196480087E+02  0.32375865138E+02 -0.64525915035E+01  0.13746493157E+03  0.13084540215E+03 0.  0.
         25    2    3    3    0    0 -0.26196480087E+02 -0.32375865138E+02 -0.34945353152E+02  0.13696664904E+03  0.12571488787E+03 0.  0.
          5    1    4    4  502    0  0.37634635454E+02 -0.57110285876E+01  0.53220549549E+02  0.65601055842E+02  0.47000000000E+01 0. -1.
         -5    1    4    4    0  502 -0.11438155368E+02  0.38086893725E+02 -0.59673141052E+02  0.71863875730E+02  0.47000000000E+01 0. -1.
          5    1    5    5  503    0 -0.69451857989E+02  0.37344925651E+01  0.14450052666E+01  0.69725784707E+02  0.47000000000E+01 0.  1.
         -5    1    5    5    0  503  0.43255377902E+02 -0.36110357703E+02 -0.36390358419E+02  0.67240864336E+02  0.47000000000E+01 0.  1.
<mgrwt>
<rscale>  0 0.27129118E+03</rscale>
<asrwt>0</asrwt>
<pdfrwt beam="1">  1        3 0.24294579E-01 0.27129118E+03</pdfrwt>
<pdfrwt beam="2">  1       -3 0.17925664E-01 0.27129118E+03</pdfrwt>
<totfact> 0.10944565E+03</totfact>
</mgrwt>
</event>
<event>
 9    1  0.7816570E-001  0.2782451E+03  0.7818608E-02  0.1096651E+00
         -1   -1    0    0    0  501 -0.00000000000E+00  0.00000000000E+00  0.24239519098E+02  0.24239519098E+02  0.00000000000E+00 0.  1.
          1   -1    0    0  501    0  0.00000000000E+00 -0.00000000000E+00 -0.79849289901E+03  0.79849289901E+03  0.00000000000E+00 0.  1.
         35    2    1    2    0    0  0.00000000000E+00  0.14210854715E-13 -0.77425337991E+03  0.82273241811E+03  0.27824509969E+03 0.  0.
         25    2    3    3    0    0 -0.18886133233E+02  0.41123987818E+02 -0.25942048579E+03  0.29104675899E+03  0.12394094992E+03 0.  0.
         25    2    3    3    0    0  0.18886133233E+02 -0.41123987818E+02 -0.51483289412E+03  0.53168565912E+03  0.12485536769E+03 0.  0.
          5    1    4    4  502    0  0.61156904080E+01 -0.19160017774E+02 -0.20472780045E+03  0.20576702901E+03  0.47000000000E+01 0. -1.
         -5    1    4    4    0  502 -0.25001823641E+02  0.60284005592E+02 -0.54692685343E+02  0.85279729981E+02  0.47000000000E+01 0. -1.
          5    1    5    5  503    0 -0.28667891623E+02  0.15101218572E+02 -0.42629758799E+02  0.53752033894E+02  0.47000000000E+01 0.  1.
         -5    1    5    5    0  503  0.47554024856E+02 -0.56225206390E+02 -0.47220313532E+03  0.47793362522E+03  0.47000000000E+01 0.  1.
<mgrwt>
<rscale>  0 0.27824510E+03</rscale>
<asrwt>0</asrwt>
<pdfrwt beam="1">  1        1 0.12284506E+00 0.27824510E+03</pdfrwt>
<pdfrwt beam="2">  1       -1 0.37291567E-02 0.27824510E+03</pdfrwt>
<totfact> 0.63002660E+03</totfact>
</mgrwt>
</event>
<event>
 9    1  0.7816570E-001  0.2749226E+03  0.7818608E-02  0.1098495E+00
         -1   -1    0    0    0  501 -0.00000000000E+00  0.00000000000E+00  0.27842079338E+02  0.27842079338E+02  0.00000000000E+00 0. -1.
          1   -1    0    0  501    0  0.00000000000E+00 -0.00000000000E+00 -0.67867086351E+03  0.67867086351E+03  0.00000000000E+00 0. -1.
         35    2    1    2    0    0 -0.88817841970E-15  0.14210854715E-13 -0.65082878417E+03  0.70651294285E+03  0.27492259293E+03 0.  0.
         25    2    3    3    0    0  0.46212594052E+00  0.56155277683E+02 -0.34697382440E+03  0.37322770288E+03  0.12551675029E+03 0.  0.
         25    2    3    3    0    0 -0.46212594052E+00 -0.56155277683E+02 -0.30385495977E+03  0.33328523997E+03  0.12489029519E+03 0.  0.
          5    1    4    4  502    0  0.22404013123E+02  0.88621078592E+02 -0.18354562633E+03  0.20510173651E+03  0.47000000000E+01 0. -1.
         -5    1    4    4    0  502 -0.21941887182E+02 -0.32465800909E+02 -0.16342819808E+03  0.16812596637E+03  0.47000000000E+01 0. -1.
          5    1    5    5  503    0 -0.17417697342E+01 -0.73496228624E+02 -0.30636656971E+03  0.31509886451E+03  0.47000000000E+01 0. -1.
         -5    1    5    5    0  503  0.12796437937E+01  0.17340950942E+02  0.25116099353E+01  0.18186375457E+02  0.47000000000E+01 0. -1.
<mgrwt>
<rscale>  0 0.27492259E+03</rscale>
<asrwt>0</asrwt>
<pdfrwt beam="1">  1        1 0.10441090E+00 0.27492259E+03</pdfrwt>
<pdfrwt beam="2">  1       -1 0.42833971E-02 0.27492259E+03</pdfrwt>
<totfact> 0.65289770E+03</totfact>
</mgrwt>
</event>
<event>
 9    1  0.7816570E-001  0.2801961E+03  0.7818608E-02  0.1095582E+00
         -2   -1    0    0    0  501 -0.00000000000E+00  0.00000000000E+00  0.15806682844E+02  0.15806682844E+02  0.00000000000E+00 0.  1.
          2   -1    0    0  501    0  0.00000000000E+00 -0.00000000000E+00 -0.12417193276E+04  0.12417193276E+04  0.00000000000E+00 0.  1.
         35    2    1    2    0    0  0.00000000000E+00  0.00000000000E+00 -0.12259126447E+04  0.12575260104E+04  0.28019609984E+03 0.  0.
         25    2    3    3    0    0  0.15236748431E+02  0.12715042118E+02 -0.34282320255E+03  0.36563230568E+03  0.12556035980E+03 0.  0.
         25    2    3    3    0    0 -0.15236748431E+02 -0.12715042118E+02 -0.88308944218E+03  0.89189370473E+03  0.12342441758E+03 0.  0.
          5    1    4    4  502    0 -0.39177025575E+02  0.34871083839E+02 -0.25140983107E+03  0.25686538300E+03  0.47000000000E+01 0.  1.
         -5    1    4    4    0  502  0.54413774006E+02 -0.22156041720E+02 -0.91413371477E+02  0.10876692269E+03  0.47000000000E+01 0.  1.
          5    1    5    5  503    0  0.25704375378E+02 -0.53117378410E+01 -0.78228922019E+03  0.78274353622E+03  0.47000000000E+01 0.  1.
         -5    1    5    5    0  503 -0.40941123809E+02 -0.74033042775E+01 -0.10080022199E+03  0.10915016851E+03  0.47000000000E+01 0.  1.
<mgrwt>
<rscale>  0 0.28019610E+03</rscale>
<asrwt>0</asrwt>
<pdfrwt beam="1">  1        2 0.19103374E+00 0.28019610E+03</pdfrwt>
<pdfrwt beam="2">  1       -2 0.24317975E-02 0.28019610E+03</pdfrwt>
<totfact> 0.10949194E+04</totfact>
</mgrwt>
</event>
<event>
 9    1  0.7816570E-001  0.3299788E+03  0.7818608E-02  0.1071146E+00
         -1   -1    0    0    0  501 -0.00000000000E+00  0.00000000000E+00  0.28215089050E+02  0.28215089050E+02  0.00000000000E+00 0. -1.
          1   -1    0    0  501    0  0.00000000000E+00 -0.00000000000E+00 -0.96478543102E+03  0.96478543102E+03  0.00000000000E+00 0. -1.
         35    2    1    2    0    0  0.71054273576E-14  0.00000000000E+00 -0.93657034197E+03  0.99300052007E+03  0.32997882872E+03 0.  0.
         25    2    3    3    0    0  0.47821779237E+02  0.81042403143E+02 -0.62430236902E+03  0.64354328283E+03  0.12465839416E+03 0.  0.
         25    2    3    3    0    0 -0.47821779237E+02 -0.81042403143E+02 -0.31226797295E+03  0.34945723724E+03  0.12551605496E+03 0.  0.
          5    1    4    4  502    0 -0.42234831380E+02  0.28896459575E+02 -0.17996912691E+03  0.18716239739E+03  0.47000000000E+01 0. -1.
         -5    1    4    4    0  502  0.90056610617E+02  0.52145943568E+02 -0.44433324212E+03  0.45638088544E+03  0.47000000000E+01 0. -1.
          5    1    5    5  503    0  0.32043445315E+02 -0.18801875661E+02 -0.17417933341E+03  0.17815954396E+03  0.47000000000E+01 0.  1.
         -5    1    5    5    0  503 -0.79865224552E+02 -0.62240527483E+02 -0.13808863954E+03  0.17129769328E+03  0.47000000000E+01 0.  1.
<mgrwt>
<rscale>  0 0.32997883E+03</rscale>
<asrwt>0</asrwt>
<pdfrwt beam="1">  1        1 0.14842854E+00 0.32997883E+03</pdfrwt>
<pdfrwt beam="2">  1       -1 0.43407827E-02 0.32997883E+03</pdfrwt>
<totfact> 0.37103602E+03</totfact>
</mgrwt>
</event>
<event>
 9    1  0.7816570E-001  0.2751361E+03  0.7818608E-02  0.1098376E+00
          4   -1    0    0  501    0  0.00000000000E+00  0.00000000000E+00  0.10073098518E+03  0.10073098518E+03  0.00000000000E+00 0. -1.
         -4   -1    0    0    0  501 -0.00000000000E+00 -0.00000000000E+00 -0.18787639069E+03  0.18787639069E+03  0.00000000000E+00 0. -1.
         35    2    1    2    0    0 -0.71054273576E-14  0.00000000000E+00 -0.87145405518E+02  0.28860737587E+03  0.27513614031E+03 0.  0.
         25    2    3    3    0    0 -0.71443920414E+01 -0.35853662722E+02 -0.86788708703E+02  0.15848111069E+03  0.12746550522E+03 0.  0.
         25    2    3    3    0    0  0.71443920414E+01  0.35853662722E+02 -0.35669681531E+00  0.13012626518E+03  0.12488470758E+03 0.  0.
          5    1    4    4  502    0  0.21354115738E+02 -0.42115407860E+02 -0.11071491621E+03  0.12045575332E+03  0.47000000000E+01 0. -1.
         -5    1    4    4    0  502 -0.28498507779E+02  0.62617451380E+01  0.23926207503E+02  0.38025357372E+02  0.47000000000E+01 0. -1.
          5    1    5    5  503    0  0.42677095981E+02  0.64757873084E+02  0.19303082970E+02  0.80060075317E+02  0.47000000000E+01 0.  1.
         -5    1    5    5    0  503 -0.35532703939E+02 -0.28904210362E+02 -0.19659779785E+02  0.50066189860E+02  0.47000000000E+01 0.  1.
<mgrwt>
<rscale>  0 0.27513614E+03</rscale>
<asrwt>0</asrwt>
<pdfrwt beam="1">  1        4 0.15497075E-01 0.27513614E+03</pdfrwt>
<pdfrwt beam="2">  1       -4 0.28904060E-01 0.27513614E+03</pdfrwt>
<totfact> 0.76164777E+02</totfact>
</mgrwt>
</event>
<event>
 9    1  0.7816570E-001  0.2841262E+03  0.7818608E-02  0.1093456E+00
         -4   -1    0    0    0  501 -0.00000000000E+00  0.00000000000E+00  0.10893825164E+03  0.10893825164E+03  0.00000000000E+00 0.  1.
          4   -1    0    0  501    0  0.00000000000E+00 -0.00000000000E+00 -0.18526015569E+03  0.18526015569E+03  0.00000000000E+00 0.  1.
         35    2    1    2    0    0  0.00000000000E+00 -0.71054273576E-14 -0.76321904047E+02  0.29419840733E+03  0.28412615128E+03 0.  0.
         25    2    3    3    0    0 -0.18663691914E+02 -0.59198096172E+02 -0.12121325568E+02  0.14082731623E+03  0.12582789229E+03 0.  0.
         25    2    3    3    0    0  0.18663691914E+02  0.59198096172E+02 -0.64200578479E+02  0.15337109110E+03  0.12469253916E+03 0.  0.
          5    1    4    4  502    0 -0.10899445792E+01 -0.74988598052E+02 -0.53986728605E+02  0.92526399922E+02  0.47000000000E+01 0. -1.
         -5    1    4    4    0  502 -0.17573747334E+02  0.15790501881E+02  0.41865403037E+02  0.48300916311E+02  0.47000000000E+01 0. -1.
          5    1    5    5  503    0  0.23322484097E+02  0.83871026358E+00 -0.87127638186E+02  0.90321409617E+02  0.47000000000E+01 0. -1.
         -5    1    5    5    0  503 -0.46587921838E+01  0.58359385908E+02  0.22927059707E+02  0.63049681482E+02  0.47000000000E+01 0. -1.
<mgrwt>
<rscale>  0 0.28412615E+03</rscale>
<asrwt>0</asrwt>
<pdfrwt beam="1">  1        4 0.28501563E-01 0.28412615E+03</pdfrwt>
<pdfrwt beam="2">  1       -4 0.16759731E-01 0.28412615E+03</pdfrwt>
<totfact> 0.68366326E+02</totfact>
</mgrwt>
</event>
<event>
 9    1  0.7816570E-001  0.2737098E+03  0.7818608E-02  0.1099175E+00
         -4   -1    0    0    0  501 -0.00000000000E+00  0.00000000000E+00  0.31583841414E+03  0.31583841414E+03  0.00000000000E+00 0.  1.
          4   -1    0    0  501    0  0.00000000000E+00 -0.00000000000E+00 -0.59300144073E+02  0.59300144073E+02  0.00000000000E+00 0.  1.
         35    2    1    2    0    0  0.00000000000E+00 -0.17763568394E-14  0.25653827007E+03  0.37513855822E+03  0.27370979860E+03 0.  0.
         25    2    3    3    0    0 -0.36150611017E+01 -0.13329744330E+02  0.20273672165E+03  0.23836159562E+03  0.12459262101E+03 0.  0.
         25    2    3    3    0    0  0.36150611017E+01  0.13329744330E+02  0.53801548416E+02  0.13677696259E+03  0.12499032016E+03 0.  0.
          5    1    4    4  502    0 -0.62555985102E+02 -0.19349018505E+02  0.11424424582E+03  0.13176294431E+03  0.47000000000E+01 0. -1.
         -5    1    4    4    0  502  0.58940924000E+02  0.60192741747E+01  0.88492475833E+02  0.10659865132E+03  0.47000000000E+01 0. -1.
          5    1    5    5  503    0 -0.35567481566E+02 -0.40205176645E+02  0.46655286621E+01  0.54086589204E+02  0.47000000000E+01 0. -1.
         -5    1    5    5    0  503  0.39182542668E+02  0.53534920976E+02  0.49136019754E+02  0.82690373388E+02  0.47000000000E+01 0. -1.
<mgrwt>
<rscale>  0 0.27370980E+03</rscale>
<asrwt>0</asrwt>
<pdfrwt beam="1">  1        4 0.91230992E-02 0.27370980E+03</pdfrwt>
<pdfrwt beam="2">  1       -4 0.48590524E-01 0.27370980E+03</pdfrwt>
<totfact> 0.68268120E+02</totfact>
</mgrwt>
</event>
<event>
 9    1  0.7816570E-001  0.2776595E+03  0.7818608E-02  0.1096974E+00
         -1   -1    0    0    0  501 -0.00000000000E+00  0.00000000000E+00  0.12225378085E+02  0.12225378085E+02  0.00000000000E+00 0.  1.
          1   -1    0    0  501    0  0.00000000000E+00 -0.00000000000E+00 -0.15765320468E+04  0.15765320468E+04  0.00000000000E+00 0.  1.
         35    2    1    2    0    0  0.00000000000E+00  0.00000000000E+00 -0.15643066687E+04  0.15887574249E+04  0.27765950613E+03 0.  0.
         25    2    3    3    0    0 -0.18207876793E+02 -0.34280958576E+01 -0.45476219940E+03  0.47209585183E+03  0.12538961958E+03 0.  0.
         25    2    3    3    0    0  0.18207876793E+02  0.34280958576E+01 -0.11095444693E+04  0.11166615730E+04  0.12450245267E+03 0.  0.
          5    1    4    4  502    0 -0.41664481047E+02  0.36397930763E+02 -0.38027973521E+03  0.38431172940E+03  0.47000000000E+01 0. -1.
         -5    1    4    4    0  502  0.23456604254E+02 -0.39826026620E+02 -0.74482464185E+02  0.87784122429E+02  0.47000000000E+01 0. -1.
          5    1    5    5  503    0  0.66985224402E+02 -0.19831126531E+02 -0.53499768530E+03  0.53955991989E+03  0.47000000000E+01 0. -1.
         -5    1    5    5    0  503 -0.48777347610E+02  0.23259222389E+02 -0.57454678400E+03  0.57710165315E+03  0.47000000000E+01 0. -1.
<mgrwt>
<rscale>  0 0.27765951E+03</rscale>
<asrwt>0</asrwt>
<pdfrwt beam="1">  1        1 0.24254317E+00 0.27765951E+03</pdfrwt>
<pdfrwt beam="2">  1       -1 0.18808291E-02 0.27765951E+03</pdfrwt>
<totfact> 0.47789349E+03</totfact>
</mgrwt>
</event>
<event>
 9    1  0.7816570E-001  0.2742375E+03  0.7818608E-02  0.1098879E+00
          2   -1    0    0  501    0  0.00000000000E+00  0.00000000000E+00  0.13459364140E+04  0.13459364140E+04  0.00000000000E+00 0. -1.
         -2   -1    0    0    0  501 -0.00000000000E+00 -0.00000000000E+00 -0.13969118984E+02  0.13969118984E+02  0.00000000000E+00 0. -1.
         35    2    1    2    0    0  0.00000000000E+00  0.00000000000E+00  0.13319672951E+04  0.13599055330E+04  0.27423745851E+03 0.  0.
         25    2    3    3    0    0  0.47912917703E+02  0.28037978545E+02  0.63087915360E+03  0.64549561689E+03  0.12479707148E+03 0.  0.
         25    2    3    3    0    0 -0.47912917703E+02 -0.28037978545E+02  0.70108814146E+03  0.71440991614E+03  0.12559924467E+03 0.  0.
          5    1    4    4  502    0 -0.13359503040E+02  0.61831142577E+01  0.49007747271E+03  0.49032104430E+03  0.47000000000E+01 0.  1.
         -5    1    4    4    0  502  0.61272420743E+02  0.21854864287E+02  0.14080168089E+03  0.15517457258E+03  0.47000000000E+01 0.  1.
          5    1    5    5  503    0 -0.41301405885E+02 -0.70831726213E+02  0.57877717223E+03  0.58457509754E+03  0.47000000000E+01 0.  1.
         -5    1    5    5    0  503 -0.66115118181E+01  0.42793747668E+02  0.12231096923E+03  0.12983481861E+03  0.47000000000E+01 0.  1.
<mgrwt>
<rscale>  0 0.27423746E+03</rscale>
<asrwt>0</asrwt>
<pdfrwt beam="1">  1        2 0.20706704E+00 0.27423746E+03</pdfrwt>
<pdfrwt beam="2">  1       -2 0.21490963E-02 0.27423746E+03</pdfrwt>
<totfact> 0.11496580E+04</totfact>
</mgrwt>
</event>
<event>
 9    1  0.7816570E-001  0.2799623E+03  0.7818608E-02  0.1095710E+00
          2   -1    0    0  501    0  0.00000000000E+00  0.00000000000E+00  0.61397408724E+03  0.61397408724E+03  0.00000000000E+00 0. -1.
         -2   -1    0    0    0  501 -0.00000000000E+00 -0.00000000000E+00 -0.31914573438E+02  0.31914573438E+02  0.00000000000E+00 0. -1.
         35    2    1    2    0    0 -0.71054273576E-14 -0.71054273576E-14  0.58205951380E+03  0.64588866067E+03  0.27996229100E+03 0.  0.
         25    2    3    3    0    0 -0.16893254941E+02 -0.27440208741E+02  0.16377964647E+03  0.20808537107E+03  0.12424734178E+03 0.  0.
         25    2    3    3    0    0  0.16893254941E+02  0.27440208741E+02  0.41827986733E+03  0.43780328960E+03  0.12520114159E+03 0.  0.
          5    1    4    4  502    0  0.51911392943E+02  0.53654297827E+00  0.50729179071E+02  0.72736649667E+02  0.47000000000E+01 0. -1.
         -5    1    4    4    0  502 -0.68804647883E+02 -0.27976751719E+02  0.11305046740E+03  0.13534872141E+03  0.47000000000E+01 0. -1.
          5    1    5    5  503    0 -0.15808999671E+02  0.17680984040E+02  0.71240992455E+01  0.25206833544E+02  0.47000000000E+01 0.  1.
         -5    1    5    5    0  503  0.32702254612E+02  0.97592247002E+01  0.41115576808E+03  0.41259645606E+03  0.47000000000E+01 0.  1.
<mgrwt>
<rscale>  0 0.27996229E+03</rscale>
<asrwt>0</asrwt>
<pdfrwt beam="1">  1        2 0.94457543E-01 0.27996229E+03</pdfrwt>
<pdfrwt beam="2">  1       -2 0.49099348E-02 0.27996229E+03</pdfrwt>
<totfact> 0.98490655E+03</totfact>
</mgrwt>
</event>
<event>
 9    1  0.7816570E-001  0.2765286E+03  0.7818608E-02  0.1097600E+00
         -2   -1    0    0    0  501 -0.00000000000E+00  0.00000000000E+00  0.18829616791E+03  0.18829616791E+03  0.00000000000E+00 0.  1.
          2   -1    0    0  501    0  0.00000000000E+00 -0.00000000000E+00 -0.10152628525E+03  0.10152628525E+03  0.00000000000E+00 0.  1.
         35    2    1    2    0    0  0.00000000000E+00  0.00000000000E+00  0.86769882659E+02  0.28982245317E+03  0.27652855517E+03 0.  0.
         25    2    3    3    0    0  0.11241701354E+02  0.32053089493E+02  0.20016901011E+01  0.12881752755E+03  0.12424239311E+03 0.  0.
         25    2    3    3    0    0 -0.11241701354E+02 -0.32053089493E+02  0.84768192557E+02  0.16100492562E+03  0.13260152039E+03 0.  0.
          5    1    4    4  502    0  0.42017187640E+02  0.68482220594E+02 -0.36558330851E+01  0.80564965775E+02  0.47000000000E+01 0.  1.
         -5    1    4    4    0  502 -0.30775486286E+02 -0.36429131102E+02  0.56575231863E+01  0.48252561772E+02  0.47000000000E+01 0.  1.
          5    1    5    5  503    0 -0.63009995814E+02 -0.41221278871E+02  0.21170478361E+02  0.78356445544E+02  0.47000000000E+01 0. -1.
         -5    1    5    5    0  503  0.51768294460E+02  0.91681893785E+01  0.63597714197E+02  0.82648480076E+02  0.47000000000E+01 0. -1.
<mgrwt>
<rscale>  0 0.27652856E+03</rscale>
<asrwt>0</asrwt>
<pdfrwt beam="1">  1        2 0.15619429E-01 0.27652856E+03</pdfrwt>
<pdfrwt beam="2">  1       -2 0.28968641E-01 0.27652856E+03</pdfrwt>
<totfact> 0.40261051E+03</totfact>
</mgrwt>
</event>
<event>
 9    1  0.7816570E-001  0.2787400E+03  0.7818608E-02  0.1096379E+00
          2   -1    0    0  501    0  0.00000000000E+00  0.00000000000E+00  0.80191811185E+02  0.80191811185E+02  0.00000000000E+00 0. -1.
         -2   -1    0    0    0  501 -0.00000000000E+00 -0.00000000000E+00 -0.24221924223E+03  0.24221924223E+03  0.00000000000E+00 0. -1.
         35    2    1    2    0    0  0.00000000000E+00 -0.31086244690E-14 -0.16202743104E+03  0.32241105341E+03  0.27874002036E+03 0.  0.
         25    2    3    3    0    0 -0.58103298668E+02 -0.26575977112E+01 -0.55680771611E+02  0.14909785684E+03  0.12548612052E+03 0.  0.
         25    2    3    3    0    0  0.58103298668E+02  0.26575977112E+01 -0.10634665943E+03  0.17331319658E+03  0.12387411349E+03 0.  0.
          5    1    4    4  502    0  0.19008518387E+02  0.22383856748E+02 -0.60842501757E+02  0.67721937615E+02  0.47000000000E+01 0. -1.
         -5    1    4    4    0  502 -0.77111817056E+02 -0.25041454459E+02  0.51617301468E+01  0.81375919222E+02  0.47000000000E+01 0. -1.
          5    1    5    5  503    0  0.97243270807E+02  0.69570970369E+00 -0.77023014366E+02  0.12414254900E+03  0.47000000000E+01 0.  1.
         -5    1    5    5    0  503 -0.39139972138E+02  0.19618880075E+01 -0.29323645067E+02  0.49170647581E+02  0.47000000000E+01 0.  1.
<mgrwt>
<rscale>  0 0.27874002E+03</rscale>
<asrwt>0</asrwt>
<pdfrwt beam="1">  1        2 0.12337202E-01 0.27874002E+03</pdfrwt>
<pdfrwt beam="2">  1       -2 0.37264498E-01 0.27874002E+03</pdfrwt>
<totfact> 0.33561175E+03</totfact>
</mgrwt>
</event>
<event>
 9    1  0.7816570E-001  0.2688365E+03  0.7818608E-02  0.1101947E+00
         -2   -1    0    0    0  501 -0.00000000000E+00  0.00000000000E+00  0.51642774068E+02  0.51642774068E+02  0.00000000000E+00 0.  1.
          2   -1    0    0  501    0  0.00000000000E+00 -0.00000000000E+00 -0.34987018042E+03  0.34987018042E+03  0.00000000000E+00 0.  1.
         35    2    1    2    0    0  0.00000000000E+00  0.00000000000E+00 -0.29822740636E+03  0.40151295449E+03  0.26883650556E+03 0.  0.
         25    2    3    3    0    0  0.33365360619E+02  0.36563046206E+02 -0.14117859138E+03  0.19497898951E+03  0.12504122541E+03 0.  0.
         25    2    3    3    0    0 -0.33365360619E+02 -0.36563046206E+02 -0.15704881498E+03  0.20653396498E+03  0.12466693534E+03 0.  0.
          5    1    4    4  502    0  0.21715683157E+02 -0.38571749354E+02 -0.13878306346E+02  0.46626689033E+02  0.47000000000E+01 0.  1.
         -5    1    4    4    0  502  0.11649677463E+02  0.75134795560E+02 -0.12730028503E+03  0.14835230048E+03  0.47000000000E+01 0.  1.
          5    1    5    5  503    0 -0.78008777933E+02 -0.29984599281E+02 -0.12704289514E+03  0.15213951766E+03  0.47000000000E+01 0.  1.
         -5    1    5    5    0  503  0.44643417313E+02 -0.65784469252E+01 -0.30005919835E+02  0.54394447313E+02  0.47000000000E+01 0.  1.
<mgrwt>
<rscale>  0 0.26883651E+03</rscale>
<asrwt>0</asrwt>
<pdfrwt beam="1">  1        2 0.53826185E-01 0.26883651E+03</pdfrwt>
<pdfrwt beam="2">  1       -2 0.79450417E-02 0.26883651E+03</pdfrwt>
<totfact> 0.87619609E+03</totfact>
</mgrwt>
</event>
<event>
 9    1  0.7816570E-001  0.2763095E+03  0.7818608E-02  0.1097722E+00
         -1   -1    0    0    0  501 -0.00000000000E+00  0.00000000000E+00  0.35924648470E+02  0.35924648470E+02  0.00000000000E+00 0. -1.
          1   -1    0    0  501    0  0.00000000000E+00 -0.00000000000E+00 -0.53129923902E+03  0.53129923902E+03  0.00000000000E+00 0. -1.
         35    2    1    2    0    0  0.35527136788E-14 -0.17763568394E-14 -0.49537459055E+03  0.56722388749E+03  0.27630952495E+03 0.  0.
         25    2    3    3    0    0  0.14814079221E+02  0.10860466459E+01 -0.36355899707E+03  0.38460349933E+03  0.12459562954E+03 0.  0.
         25    2    3    3    0    0 -0.14814079221E+02 -0.10860466459E+01 -0.13181559348E+03  0.18262038816E+03  0.12551581195E+03 0.  0.
          5    1    4    4  502    0  0.59569246877E+02  0.14449048200E+02 -0.29612380105E+03  0.30243787084E+03  0.47000000000E+01 0.  1.
         -5    1    4    4    0  502 -0.44755167657E+02 -0.13363001554E+02 -0.67435196022E+02  0.82165628490E+02  0.47000000000E+01 0.  1.
          5    1    5    5  503    0 -0.37296811846E+02 -0.48976278878E+02 -0.10802205525E+03  0.12442098893E+03  0.47000000000E+01 0.  1.
         -5    1    5    5    0  503  0.22482732626E+02  0.47890232232E+02 -0.23793538229E+02  0.58199399232E+02  0.47000000000E+01 0.  1.
<mgrwt>
<rscale>  0 0.27630952E+03</rscale>
<asrwt>0</asrwt>
<pdfrwt beam="1">  1        1 0.81738338E-01 0.27630952E+03</pdfrwt>
<pdfrwt beam="2">  1       -1 0.55268694E-02 0.27630952E+03</pdfrwt>
<totfact> 0.62680314E+03</totfact>
</mgrwt>
</event>
<event>
 9    1  0.7816570E-001  0.2751408E+03  0.7818608E-02  0.1098373E+00
          2   -1    0    0  501    0  0.00000000000E+00  0.00000000000E+00  0.10479193435E+04  0.10479193435E+04  0.00000000000E+00 0.  1.
         -2   -1    0    0    0  501 -0.00000000000E+00 -0.00000000000E+00 -0.18060189245E+02  0.18060189245E+02  0.00000000000E+00 0.  1.
         35    2    1    2    0    0  0.35527136788E-14 -0.71054273576E-14  0.10298591542E+04  0.10659795327E+04  0.27514084870E+03 0.  0.
         25    2    3    3    0    0 -0.24441955786E+02 -0.32734658996E+02  0.67853656627E+03  0.69113050709E+03  0.12482202916E+03 0.  0.
         25    2    3    3    0    0  0.24441955786E+02  0.32734658996E+02  0.35132258796E+03  0.37484902563E+03  0.12415822205E+03 0.  0.
          5    1    4    4  502    0 -0.20183576254E+02 -0.36692715603E+02  0.68170831076E+03  0.68300954832E+03  0.47000000000E+01 0. -1.
         -5    1    4    4    0  502 -0.42583795319E+01  0.39580566071E+01 -0.31717444898E+01  0.81209587766E+01  0.47000000000E+01 0. -1.
          5    1    5    5  503    0 -0.72981579989E+01  0.61788453900E+02  0.30553066221E+03  0.31183673884E+03  0.47000000000E+01 0.  1.
         -5    1    5    5    0  503  0.31740113785E+02 -0.29053794904E+02  0.45791925750E+02  0.63012286780E+02  0.47000000000E+01 0.  1.
<mgrwt>
<rscale>  0 0.27514085E+03</rscale>
<asrwt>0</asrwt>
<pdfrwt beam="1">  1        2 0.16121831E+00 0.27514085E+03</pdfrwt>
<pdfrwt beam="2">  1       -2 0.27784915E-02 0.27514085E+03</pdfrwt>
<totfact> 0.11631553E+04</totfact>
</mgrwt>
</event>
<event>
 9    1  0.7816570E-001  0.2740664E+03  0.7818608E-02  0.1098975E+00
         -2   -1    0    0    0  501 -0.00000000000E+00  0.00000000000E+00  0.69042303938E+02  0.69042303938E+02  0.00000000000E+00 0. -1.
          2   -1    0    0  501    0  0.00000000000E+00 -0.00000000000E+00 -0.27197962502E+03  0.27197962502E+03  0.00000000000E+00 0. -1.
         35    2    1    2    0    0 -0.14210854715E-13 -0.71054273576E-14 -0.20293732108E+03  0.34102192896E+03  0.27406641484E+03 0.  0.
         25    2    3    3    0    0  0.39642834942E+02 -0.31848034225E+02 -0.13229215543E+03  0.18894554876E+03  0.12495340877E+03 0.  0.
         25    2    3    3    0    0 -0.39642834942E+02  0.31848034225E+02 -0.70645165652E+02  0.15207638019E+03  0.12470218256E+03 0.  0.
          5    1    4    4  502    0 -0.89020120722E+01  0.43572231460E+02 -0.37518535536E+02  0.58373929816E+02  0.47000000000E+01 0. -1.
         -5    1    4    4    0  502  0.48544847014E+02 -0.75420265686E+02 -0.94773619891E+02  0.13057161895E+03  0.47000000000E+01 0. -1.
          5    1    5    5  503    0  0.36360524110E+01 -0.44928499781E+02 -0.33311488980E+02  0.56245322186E+02  0.47000000000E+01 0.  1.
         -5    1    5    5    0  503 -0.43278887353E+02  0.76776534007E+02 -0.37333676673E+02  0.95831058005E+02  0.47000000000E+01 0.  1.
<mgrwt>
<rscale>  0 0.27406641E+03</rscale>
<asrwt>0</asrwt>
<pdfrwt beam="1">  1        2 0.41843019E-01 0.27406641E+03</pdfrwt>
<pdfrwt beam="2">  1       -2 0.10621893E-01 0.27406641E+03</pdfrwt>
<totfact> 0.72704007E+03</totfact>
</mgrwt>
</event>
<event>
 9    1  0.7816570E-001  0.2756328E+03  0.7818608E-02  0.1098098E+00
          2   -1    0    0  501    0  0.00000000000E+00  0.00000000000E+00  0.13241763573E+02  0.13241763573E+02  0.00000000000E+00 0. -1.
         -2   -1    0    0    0  501 -0.00000000000E+00 -0.00000000000E+00 -0.14343525866E+04  0.14343525866E+04  0.00000000000E+00 0. -1.
         35    2    1    2    0    0  0.14210854715E-13 -0.35527136788E-14 -0.14211108230E+04  0.14475943501E+04  0.27563278348E+03 0.  0.
         25    2    3    3    0    0  0.29568201506E+02  0.17526629351E+02 -0.95473944893E+03  0.96346762346E+03  0.12474367656E+03 0.  0.
         25    2    3    3    0    0 -0.29568201506E+02 -0.17526629351E+02 -0.46637137405E+03  0.48412672667E+03  0.12527955803E+03 0.  0.
          5    1    4    4  502    0 -0.43368661781E+02  0.19530413922E+02 -0.22184931541E+03  0.22693938979E+03  0.47000000000E+01 0. -1.
         -5    1    4    4    0  502  0.72936863287E+02 -0.20037845713E+01 -0.73289013352E+03  0.73652823366E+03  0.47000000000E+01 0. -1.
          5    1    5    5  503    0 -0.36160424323E+02 -0.46631337768E+02 -0.44018435576E+03  0.44414683947E+03  0.47000000000E+01 0. -1.
         -5    1    5    5    0  503  0.65922228175E+01  0.29104708417E+02 -0.26187018291E+02  0.39979887202E+02  0.47000000000E+01 0. -1.
<mgrwt>
<rscale>  0 0.27563278E+03</rscale>
<asrwt>0</asrwt>
<pdfrwt beam="1">  1        2 0.20371943E-02 0.27563278E+03</pdfrwt>
<pdfrwt beam="2">  1       -2 0.22066964E+00 0.27563278E+03</pdfrwt>
<totfact> 0.57314292E+02</totfact>
</mgrwt>
</event>
<event>
 9    1  0.7816570E-001  0.2757232E+03  0.7818608E-02  0.1098048E+00
          1   -1    0    0  501    0  0.00000000000E+00  0.00000000000E+00  0.44567019330E+02  0.44567019330E+02  0.00000000000E+00 0.  1.
         -1   -1    0    0    0  501 -0.00000000000E+00 -0.00000000000E+00 -0.42645470226E+03  0.42645470226E+03  0.00000000000E+00 0.  1.
         35    2    1    2    0    0  0.00000000000E+00  0.35527136788E-14 -0.38188768293E+03  0.47102172159E+03  0.27572315796E+03 0.  0.
         25    2    3    3    0    0 -0.28640049807E+02 -0.26148462779E+02 -0.26651673382E+03  0.29711656288E+03  0.12547146279E+03 0.  0.
         25    2    3    3    0    0  0.28640049807E+02  0.26148462779E+02 -0.11537094911E+03  0.17390515871E+03  0.12421172959E+03 0.  0.
          5    1    4    4  502    0 -0.57327975314E+02  0.10664505735E+02 -0.54434416786E+02  0.79908849116E+02  0.47000000000E+01 0.  1.
         -5    1    4    4    0  502  0.28687925507E+02 -0.36812968515E+02 -0.21208231703E+03  0.21720771376E+03  0.47000000000E+01 0.  1.
          5    1    5    5  503    0 -0.47479331570E+02  0.12941549694E+01 -0.28165163396E+02  0.55419565070E+02  0.47000000000E+01 0. -1.
         -5    1    5    5    0  503  0.76119381377E+02  0.24854307810E+02 -0.87205785711E+02  0.11848559364E+03  0.47000000000E+01 0. -1.
<mgrwt>
<rscale>  0 0.27572316E+03</rscale>
<asrwt>0</asrwt>
<pdfrwt beam="1">  1        1 0.68564643E-02 0.27572316E+03</pdfrwt>
<pdfrwt beam="2">  1       -1 0.65608418E-01 0.27572316E+03</pdfrwt>
<totfact> 0.26152957E+03</totfact>
</mgrwt>
</event>
<event>
 9    1  0.7816570E-001  0.2737404E+03  0.7818608E-02  0.1099158E+00
         -1   -1    0    0    0  501 -0.00000000000E+00  0.00000000000E+00  0.29729601593E+02  0.29729601593E+02  0.00000000000E+00 0. -1.
          1   -1    0    0  501    0  0.00000000000E+00 -0.00000000000E+00 -0.63012773348E+03  0.63012773348E+03  0.00000000000E+00 0. -1.
         35    2    1    2    0    0  0.00000000000E+00  0.71054273576E-14 -0.60039813189E+03  0.65985733508E+03  0.27374036216E+03 0.  0.
         25    2    3    3    0    0 -0.46271934228E+02 -0.31400179183E+02 -0.27893849727E+03  0.31068593892E+03  0.12486794718E+03 0.  0.
         25    2    3    3    0    0  0.46271934228E+02  0.31400179183E+02 -0.32145963462E+03  0.34917139615E+03  0.12432740669E+03 0.  0.
          5    1    4    4  502    0 -0.61633737555E+02  0.92800446631E+00 -0.51673884054E+02  0.80572073888E+02  0.47000000000E+01 0. -1.
         -5    1    4    4    0  502  0.15361803327E+02 -0.32328183649E+02 -0.22726461322E+03  0.23011386504E+03  0.47000000000E+01 0. -1.
          5    1    5    5  503    0  0.66442567230E+02  0.28161374636E+02 -0.32009710101E+03  0.32816447376E+03  0.47000000000E+01 0.  1.
         -5    1    5    5    0  503 -0.20170633002E+02  0.32388045469E+01 -0.13625336033E+01  0.21006922393E+02  0.47000000000E+01 0.  1.
<mgrwt>
<rscale>  0 0.27374036E+03</rscale>
<asrwt>0</asrwt>
<pdfrwt beam="1">  1        1 0.96942734E-01 0.27374036E+03</pdfrwt>
<pdfrwt beam="2">  1       -1 0.45737846E-02 0.27374036E+03</pdfrwt>
<totfact> 0.65803887E+03</totfact>
</mgrwt>
</event>
<event>
 9    1  0.7816570E-001  0.2741791E+03  0.7818608E-02  0.1098911E+00
         -1   -1    0    0    0  501 -0.00000000000E+00  0.00000000000E+00  0.35974952479E+03  0.35974952479E+03  0.00000000000E+00 0.  1.
          1   -1    0    0  501    0  0.00000000000E+00 -0.00000000000E+00 -0.52240647360E+02  0.52240647360E+02  0.00000000000E+00 0.  1.
         35    2    1    2    0    0  0.00000000000E+00  0.00000000000E+00  0.30750887743E+03  0.41199017215E+03  0.27417912439E+03 0.  0.
         25    2    3    3    0    0  0.31192274844E+02 -0.52171778054E+02  0.17167951857E+03  0.21727685943E+03  0.11849271756E+03 0.  0.
         25    2    3    3    0    0 -0.31192274844E+02  0.52171778054E+02  0.13582935886E+03  0.19471331271E+03  0.12557391045E+03 0.  0.
          5    1    4    4  502    0  0.39577869579E+02 -0.34228266759E+02  0.18541873310E+03  0.19271787304E+03  0.47000000000E+01 0. -1.
         -5    1    4    4    0  502 -0.83855947353E+01 -0.17943511295E+02 -0.13739214530E+02  0.24558986391E+02  0.47000000000E+01 0. -1.
          5    1    5    5  503    0 -0.13947633286E+02  0.62253307208E+02  0.71042699367E+01  0.64362810566E+02  0.47000000000E+01 0. -1.
         -5    1    5    5    0  503 -0.17244641558E+02 -0.10081529154E+02  0.12872508892E+03  0.13035050215E+03  0.47000000000E+01 0. -1.
<mgrwt>
<rscale>  0 0.27417912E+03</rscale>
<asrwt>0</asrwt>
<pdfrwt beam="1">  1        1 0.80370229E-02 0.27417912E+03</pdfrwt>
<pdfrwt beam="2">  1       -1 0.55346079E-01 0.27417912E+03</pdfrwt>
<totfact> 0.29217514E+03</totfact>
</mgrwt>
</event>
<event>
 9    1  0.7816570E-001  0.2768745E+03  0.7818608E-02  0.1097408E+00
         -2   -1    0    0    0  501 -0.00000000000E+00  0.00000000000E+00  0.22604920097E+03  0.22604920097E+03  0.00000000000E+00 0. -1.
          2   -1    0    0  501    0  0.00000000000E+00 -0.00000000000E+00 -0.84781836594E+02  0.84781836594E+02  0.00000000000E+00 0. -1.
         35    2    1    2    0    0  0.00000000000E+00 -0.71054273576E-14  0.14126736438E+03  0.31083103757E+03  0.27687445833E+03 0.  0.
         25    2    3    3    0    0 -0.48133135567E+02 -0.21634134310E+02  0.40304760264E+02  0.14189136710E+03  0.12539478398E+03 0.  0.
         25    2    3    3    0    0  0.48133135567E+02  0.21634134310E+02  0.10096260411E+03  0.16893967047E+03  0.12474906942E+03 0.  0.
          5    1    4    4  502    0  0.57020040488E+01 -0.62976699744E+02  0.12127720691E+01  0.63420330943E+02  0.47000000000E+01 0. -1.
         -5    1    4    4    0  502 -0.53835139616E+02  0.41342565434E+02  0.39091988195E+02  0.78471036155E+02  0.47000000000E+01 0. -1.
          5    1    5    5  503    0  0.24750348032E+01 -0.28490801285E+02  0.96578501349E+02  0.10083327069E+03  0.47000000000E+01 0. -1.
         -5    1    5    5    0  503  0.45658100764E+02  0.50124935595E+02  0.43841027639E+01  0.68106399779E+02  0.47000000000E+01 0. -1.
<mgrwt>
<rscale>  0 0.27687446E+03</rscale>
<asrwt>0</asrwt>
<pdfrwt beam="1">  1        2 0.13043360E-01 0.27687446E+03</pdfrwt>
<pdfrwt beam="2">  1       -2 0.34776800E-01 0.27687446E+03</pdfrwt>
<totfact> 0.35705289E+03</totfact>
</mgrwt>
</event>
<event>
 9    1  0.7816570E-001  0.2714640E+03  0.7818608E-02  0.1100445E+00
          2   -1    0    0  501    0  0.00000000000E+00  0.00000000000E+00  0.75405995686E+03  0.75405995686E+03  0.00000000000E+00 0.  1.
         -2   -1    0    0    0  501 -0.00000000000E+00 -0.00000000000E+00 -0.24431972705E+02  0.24431972705E+02  0.00000000000E+00 0.  1.
         35    2    1    2    0    0 -0.35527136788E-14  0.00000000000E+00  0.72962798415E+03  0.77849192956E+03  0.27146397392E+03 0.  0.
         25    2    3    3    0    0  0.24528130244E+02  0.46971156519E+02  0.39663724687E+03  0.41908761267E+03  0.12452069213E+03 0.  0.
         25    2    3    3    0    0 -0.24528130244E+02 -0.46971156519E+02  0.33299073728E+03  0.35940431689E+03  0.12442151409E+03 0.  0.
          5    1    4    4  502    0 -0.15707749620E+02  0.47181357874E+02  0.52094763757E+02  0.72171797399E+02  0.47000000000E+01 0.  1.
         -5    1    4    4    0  502  0.40235879864E+02 -0.21020135478E+00  0.34454248311E+03  0.34691581527E+03  0.47000000000E+01 0.  1.
          5    1    5    5  503    0 -0.45372923322E+02 -0.82193037361E+02  0.22766896120E+03  0.24631208548E+03  0.47000000000E+01 0.  1.
         -5    1    5    5    0  503  0.20844793077E+02  0.35221880843E+02  0.10532177608E+03  0.11309223141E+03  0.47000000000E+01 0.  1.
<mgrwt>
<rscale>  0 0.27146397E+03</rscale>
<asrwt>0</asrwt>
<pdfrwt beam="1">  1        2 0.11600921E+00 0.27146397E+03</pdfrwt>
<pdfrwt beam="2">  1       -2 0.37587656E-02 0.27146397E+03</pdfrwt>
<totfact> 0.11495789E+04</totfact>
</mgrwt>
</event>
<event>
 9    1  0.7816570E-001  0.2784148E+03  0.7818608E-02  0.1096558E+00
          1   -1    0    0  501    0  0.00000000000E+00  0.00000000000E+00  0.21880760198E+03  0.21880760198E+03  0.00000000000E+00 0. -1.
         -1   -1    0    0    0  501 -0.00000000000E+00 -0.00000000000E+00 -0.88564994329E+02  0.88564994329E+02  0.00000000000E+00 0. -1.
         35    2    1    2    0    0  0.71054273576E-14 -0.71054273576E-14  0.13024260765E+03  0.30737259631E+03  0.27841475556E+03 0.  0.
         25    2    3    3    0    0 -0.46621302365E+02  0.28774575337E+02  0.95028797671E+02  0.16625634554E+03  0.12493669607E+03 0.  0.
         25    2    3    3    0    0  0.46621302365E+02 -0.28774575337E+02  0.35213809984E+02  0.14111625077E+03  0.12518890446E+03 0.  0.
          5    1    4    4  502    0 -0.11480754217E+02  0.73860591065E+02  0.33209676515E+02  0.81927817279E+02  0.47000000000E+01 0.  1.
         -5    1    4    4    0  502 -0.35140548148E+02 -0.45086015727E+02  0.61819121155E+02  0.84328528261E+02  0.47000000000E+01 0.  1.
          5    1    5    5  503    0  0.55027647506E+02  0.24198560158E+02  0.57056363146E+02  0.83012835629E+02  0.47000000000E+01 0.  1.
         -5    1    5    5    0  503 -0.84063451411E+01 -0.52973135495E+02 -0.21842553162E+02  0.58103415145E+02  0.47000000000E+01 0.  1.
<mgrwt>
<rscale>  0 0.27841476E+03</rscale>
<asrwt>0</asrwt>
<pdfrwt beam="1">  1        1 0.33662708E-01 0.27841476E+03</pdfrwt>
<pdfrwt beam="2">  1       -1 0.13625384E-01 0.27841476E+03</pdfrwt>
<totfact> 0.48709239E+03</totfact>
</mgrwt>
</event>
<event>
 9    1  0.7816570E-001  0.2745526E+03  0.7818608E-02  0.1098702E+00
          1   -1    0    0  501    0  0.00000000000E+00  0.00000000000E+00  0.44158150555E+03  0.44158150555E+03  0.00000000000E+00 0. -1.
         -1   -1    0    0    0  501 -0.00000000000E+00 -0.00000000000E+00 -0.42675646577E+02  0.42675646577E+02  0.00000000000E+00 0. -1.
         35    2    1    2    0    0  0.00000000000E+00  0.26645352591E-14  0.39890585898E+03  0.48425715213E+03  0.27455255429E+03 0.  0.
         25    2    3    3    0    0  0.37016161041E+02 -0.29360165574E+01  0.27737096165E+03  0.30645939128E+03  0.12491553852E+03 0.  0.
         25    2    3    3    0    0 -0.37016161041E+02  0.29360165574E+01  0.12153489732E+03  0.17779776085E+03  0.12434828557E+03 0.  0.
          5    1    4    4  502    0 -0.18374150296E+02 -0.44005958119E+01  0.23686100249E+03  0.23765983915E+03  0.47000000000E+01 0. -1.
         -5    1    4    4    0  502  0.55390311337E+02  0.14645792545E+01  0.40509959163E+02  0.68799552134E+02  0.47000000000E+01 0. -1.
          5    1    5    5  503    0 -0.26421261268E+02 -0.35806473799E+02  0.12911970185E+03  0.13665348154E+03  0.47000000000E+01 0. -1.
         -5    1    5    5    0  503 -0.10594899773E+02  0.38742490356E+02 -0.75848045222E+01  0.41144279309E+02  0.47000000000E+01 0. -1.
<mgrwt>
<rscale>  0 0.27455255E+03</rscale>
<asrwt>0</asrwt>
<pdfrwt beam="1">  1        1 0.67935613E-01 0.27455255E+03</pdfrwt>
<pdfrwt beam="2">  1       -1 0.65654844E-02 0.27455255E+03</pdfrwt>
<totfact> 0.61709968E+03</totfact>
</mgrwt>
</event>
<event>
 9    1  0.7816570E-001  0.2873663E+03  0.7818608E-02  0.1091732E+00
          2   -1    0    0  501    0  0.00000000000E+00  0.00000000000E+00  0.65039331621E+02  0.65039331621E+02  0.00000000000E+00 0. -1.
         -2   -1    0    0    0  501 -0.00000000000E+00 -0.00000000000E+00 -0.31742105391E+03  0.31742105391E+03  0.00000000000E+00 0. -1.
         35    2    1    2    0    0  0.00000000000E+00  0.00000000000E+00 -0.25238172229E+03  0.38246038554E+03  0.28736633894E+03 0.  0.
         25    2    3    3    0    0 -0.44470072226E+02  0.41678419876E+02 -0.17496163143E+03  0.22354888839E+03  0.12509138667E+03 0.  0.
         25    2    3    3    0    0  0.44470072226E+02 -0.41678419876E+02 -0.77420090861E+02  0.15891149715E+03  0.12467684408E+03 0.  0.
          5    1    4    4  502    0 -0.51583155652E+02  0.33697153941E+02 -0.15562944178E+02  0.63722957890E+02  0.47000000000E+01 0.  1.
         -5    1    4    4    0  502  0.71130834257E+01  0.79812659354E+01 -0.15939868725E+03  0.15982593050E+03  0.47000000000E+01 0.  1.
          5    1    5    5  503    0  0.14172221620E+02 -0.20759287956E+02 -0.10789680109E+03  0.11088556979E+03  0.47000000000E+01 0. -1.
         -5    1    5    5    0  503  0.30297850606E+02 -0.20919131921E+02  0.30476710232E+02  0.48025927354E+02  0.47000000000E+01 0. -1.
<mgrwt>
<rscale>  0 0.28736634E+03</rscale>
<asrwt>0</asrwt>
<pdfrwt beam="1">  1        2 0.10006051E-01 0.28736634E+03</pdfrwt>
<pdfrwt beam="2">  1       -2 0.48834009E-01 0.28736634E+03</pdfrwt>
<totfact> 0.25746750E+03</totfact>
</mgrwt>
</event>
<event>
 9    1  0.7816570E-001  0.2738197E+03  0.7818608E-02  0.1099113E+00
          1   -1    0    0  501    0  0.00000000000E+00  0.00000000000E+00  0.16287993918E+04  0.16287993918E+04  0.00000000000E+00 0.  1.
         -1   -1    0    0    0  501 -0.00000000000E+00 -0.00000000000E+00 -0.11508049064E+02  0.11508049064E+02  0.00000000000E+00 0.  1.
         35    2    1    2    0    0  0.00000000000E+00 -0.71054273576E-14  0.16172913428E+04  0.16403074409E+04  0.27381967290E+03 0.  0.
         25    2    3    3    0    0  0.18456187797E+02  0.45112343594E+02  0.10431363204E+04  0.10516431308E+04  0.12427444292E+03 0.  0.
         25    2    3    3    0    0 -0.18456187797E+02 -0.45112343594E+02  0.57415502234E+03  0.58866431008E+03  0.12039902775E+03 0.  0.
          5    1    4    4  502    0 -0.73346770077E+01 -0.37219987613E+02  0.52149400252E+03  0.52289311492E+03  0.47000000000E+01 0. -1.
         -5    1    4    4    0  502  0.25790864805E+02  0.82332331207E+02  0.52164231791E+03  0.52875001589E+03  0.47000000000E+01 0. -1.
          5    1    5    5  503    0 -0.33491208307E+02  0.14564259912E+02  0.57130621593E+02  0.67968938673E+02  0.47000000000E+01 0. -1.
         -5    1    5    5    0  503  0.15035020510E+02 -0.59676603505E+02  0.51702440074E+03  0.52069537141E+03  0.47000000000E+01 0. -1.
<mgrwt>
<rscale>  0 0.27381967E+03</rscale>
<asrwt>0</asrwt>
<pdfrwt beam="1">  1        1 0.25058434E+00 0.27381967E+03</pdfrwt>
<pdfrwt beam="2">  1       -1 0.17704704E-02 0.27381967E+03</pdfrwt>
<totfact> 0.48229859E+03</totfact>
</mgrwt>
</event>
<event>
 9    1  0.7816570E-001  0.2742725E+03  0.7818608E-02  0.1098859E+00
          2   -1    0    0  501    0  0.00000000000E+00  0.00000000000E+00  0.18400141575E+04  0.18400141575E+04  0.00000000000E+00 0.  1.
         -2   -1    0    0    0  501 -0.00000000000E+00 -0.00000000000E+00 -0.10220762566E+02  0.10220762566E+02  0.00000000000E+00 0.  1.
         35    2    1    2    0    0  0.00000000000E+00  0.71054273576E-14  0.18297933949E+04  0.18502349200E+04  0.27427247636E+03 0.  0.
         25    2    3    3    0    0  0.34961551592E+02 -0.17102251441E+02  0.64290807497E+03  0.65620205953E+03  0.12552112562E+03 0.  0.
         25    2    3    3    0    0 -0.34961551592E+02  0.17102251441E+02  0.11868853199E+04  0.11940328605E+04  0.12451069111E+03 0.  0.
          5    1    4    4  502    0  0.29558990744E+02  0.47163525508E+02  0.17119796839E+03  0.18008044440E+03  0.47000000000E+01 0. -1.
         -5    1    4    4    0  502  0.54025608484E+01 -0.64265776949E+02  0.47171010657E+03  0.47612161513E+03  0.47000000000E+01 0. -1.
          5    1    5    5  503    0  0.10918173783E+02 -0.45448065082E+02  0.28927665594E+03  0.29306621574E+03  0.47000000000E+01 0. -1.
         -5    1    5    5    0  503 -0.45879725375E+02  0.62550316523E+02  0.89760866401E+03  0.90096664477E+03  0.47000000000E+01 0. -1.
<mgrwt>
<rscale>  0 0.27427248E+03</rscale>
<asrwt>0</asrwt>
<pdfrwt beam="1">  1        2 0.28307884E+00 0.27427248E+03</pdfrwt>
<pdfrwt beam="2">  1       -2 0.15724265E-02 0.27427248E+03</pdfrwt>
<totfact> 0.99272170E+03</totfact>
</mgrwt>
</event>
<event>
 9    1  0.7816570E-001  0.2719875E+03  0.7818608E-02  0.1100147E+00
          2   -1    0    0  501    0  0.00000000000E+00  0.00000000000E+00  0.17227171575E+03  0.17227171575E+03  0.00000000000E+00 0. -1.
         -2   -1    0    0    0  501 -0.00000000000E+00 -0.00000000000E+00 -0.10735537927E+03  0.10735537927E+03  0.00000000000E+00 0. -1.
         35    2    1    2    0    0  0.00000000000E+00 -0.35527136788E-14  0.64916336480E+02  0.27962709501E+03  0.27198746575E+03 0.  0.
         25    2    3    3    0    0 -0.46548628963E+02  0.13828035130E+02  0.56760211906E+02  0.14660080302E+03  0.12614311070E+03 0.  0.
         25    2    3    3    0    0  0.46548628963E+02 -0.13828035130E+02  0.81561245736E+01  0.13302629199E+03  0.12357784016E+03 0.  0.
          5    1    4    4  502    0 -0.51952116170E+01 -0.34575568768E+02 -0.24730813677E+02  0.43083213953E+02  0.47000000000E+01 0. -1.
         -5    1    4    4    0  502 -0.41353417346E+02  0.48403603898E+02  0.81491025583E+02  0.10351758907E+03  0.47000000000E+01 0. -1.
          5    1    5    5  503    0  0.17317132749E+02 -0.18226309657E+02 -0.56367117071E+02  0.61898492205E+02  0.47000000000E+01 0. -1.
         -5    1    5    5    0  503  0.29231496213E+02  0.43982745273E+01  0.64523241644E+02  0.71127799783E+02  0.47000000000E+01 0. -1.
<mgrwt>
<rscale>  0 0.27198747E+03</rscale>
<asrwt>0</asrwt>
<pdfrwt beam="1">  1        2 0.26503341E-01 0.27198747E+03</pdfrwt>
<pdfrwt beam="2">  1       -2 0.16516212E-01 0.27198747E+03</pdfrwt>
<totfact> 0.58201269E+03</totfact>
</mgrwt>
</event>
<event>
 9    1  0.7816570E-001  0.2714502E+03  0.7818608E-02  0.1100452E+00
          2   -1    0    0  501    0  0.00000000000E+00  0.00000000000E+00  0.28067677598E+03  0.28067677598E+03  0.00000000000E+00 0. -1.
         -2   -1    0    0    0  501 -0.00000000000E+00 -0.00000000000E+00 -0.65631753166E+02  0.65631753166E+02  0.00000000000E+00 0. -1.
         35    2    1    2    0    0 -0.14210854715E-13  0.00000000000E+00  0.21504502281E+03  0.34630852914E+03  0.27145024502E+03 0.  0.
         25    2    3    3    0    0  0.37895876492E+02  0.11670164947E+02  0.15005785347E+03  0.19974913964E+03  0.12573809763E+03 0.  0.
         25    2    3    3    0    0 -0.37895876492E+02 -0.11670164947E+02  0.64987169338E+02  0.14655938950E+03  0.12523590646E+03 0.  0.
          5    1    4    4  502    0 -0.22259213825E+02  0.38179711206E+02  0.11873289905E+03  0.12677836670E+03  0.47000000000E+01 0.  1.
         -5    1    4    4    0  502  0.60155090317E+02 -0.26509546259E+02  0.31324954428E+02  0.72970772943E+02  0.47000000000E+01 0.  1.
          5    1    5    5  503    0  0.10497435915E+02  0.10568088414E+01 -0.33801769610E+02  0.35720619179E+02  0.47000000000E+01 0. -1.
         -5    1    5    5    0  503 -0.48393312407E+02 -0.12726973788E+02  0.98788938948E+02  0.11083877032E+03  0.47000000000E+01 0. -1.
<mgrwt>
<rscale>  0 0.27145025E+03</rscale>
<asrwt>0</asrwt>
<pdfrwt beam="1">  1        2 0.43181042E-01 0.27145025E+03</pdfrwt>
<pdfrwt beam="2">  1       -2 0.10097193E-01 0.27145025E+03</pdfrwt>
<totfact> 0.76165115E+03</totfact>
</mgrwt>
</event>
<event>
 9    1  0.7816570E-001  0.2767973E+03  0.7818608E-02  0.1097451E+00
         -2   -1    0    0    0  501 -0.00000000000E+00  0.00000000000E+00  0.17595046751E+02  0.17595046751E+02  0.00000000000E+00 0. -1.
          2   -1    0    0  501    0  0.00000000000E+00 -0.00000000000E+00 -0.10886126964E+04  0.10886126964E+04  0.00000000000E+00 0. -1.
         35    2    1    2    0    0 -0.17763568394E-14 -0.71054273576E-14 -0.10710176496E+04  0.11062077431E+04  0.27679733587E+03 0.  0.
         25    2    3    3    0    0 -0.10277321158E+02  0.46497944855E+02 -0.67472374171E+03  0.68784092835E+03  0.12492130673E+03 0.  0.
         25    2    3    3    0    0  0.10277321158E+02 -0.46497944855E+02 -0.39629390789E+03  0.41836681476E+03  0.12535648389E+03 0.  0.
          5    1    4    4  502    0  0.12206705578E+02  0.20482205415E+02 -0.63344738839E+03  0.63391340754E+03  0.47000000000E+01 0.  1.
         -5    1    4    4    0  502 -0.22484026736E+02  0.26015739440E+02 -0.41276353318E+02  0.53927520805E+02  0.47000000000E+01 0.  1.
          5    1    5    5  503    0 -0.25692161800E+02 -0.71962972770E+02 -0.15317319097E+03  0.17123922757E+03  0.47000000000E+01 0.  1.
         -5    1    5    5    0  503  0.35969482959E+02  0.25465027915E+02 -0.24312071693E+03  0.24712758719E+03  0.47000000000E+01 0.  1.
<mgrwt>
<rscale>  0 0.27679734E+03</rscale>
<asrwt>0</asrwt>
<pdfrwt beam="1">  1        2 0.16747892E+00 0.27679734E+03</pdfrwt>
<pdfrwt beam="2">  1       -2 0.27069295E-02 0.27679734E+03</pdfrwt>
<totfact> 0.11437472E+04</totfact>
</mgrwt>
</event>
<event>
 9    1  0.7816570E-001  0.2692117E+03  0.7818608E-02  0.1101732E+00
         -2   -1    0    0    0  501 -0.00000000000E+00  0.00000000000E+00  0.90069953968E+02  0.90069953968E+02  0.00000000000E+00 0. -1.
          2   -1    0    0  501    0  0.00000000000E+00 -0.00000000000E+00 -0.20116294296E+03  0.20116294296E+03  0.00000000000E+00 0. -1.
         35    2    1    2    0    0  0.00000000000E+00 -0.35527136788E-14 -0.11109298900E+03  0.29123289693E+03  0.26921171604E+03 0.  0.
         25    2    3    3    0    0  0.25582271238E+02 -0.54414103035E+01 -0.10746934287E+02  0.12841340815E+03  0.12526150745E+03 0.  0.
         25    2    3    3    0    0 -0.25582271238E+02  0.54414103035E+01 -0.10034605471E+03  0.16281948878E+03  0.12552606774E+03 0.  0.
          5    1    4    4  502    0  0.37715229204E+02  0.80191126295E+01 -0.62383215643E+02  0.73488096147E+02  0.47000000000E+01 0.  1.
         -5    1    4    4    0  502 -0.12132957966E+02 -0.13460522933E+02  0.51636281356E+02  0.54925312006E+02  0.47000000000E+01 0.  1.
          5    1    5    5  503    0 -0.17098000765E+02  0.61649119526E+02 -0.26248619662E+02  0.69311150637E+02  0.47000000000E+01 0. -1.
         -5    1    5    5    0  503 -0.84842704734E+01 -0.56207709222E+02 -0.74097435047E+02  0.93508338142E+02  0.47000000000E+01 0. -1.
<mgrwt>
<rscale>  0 0.26921172E+03</rscale>
<asrwt>0</asrwt>
<pdfrwt beam="1">  1        2 0.30948145E-01 0.26921172E+03</pdfrwt>
<pdfrwt beam="2">  1       -2 0.13856916E-01 0.26921172E+03</pdfrwt>
<totfact> 0.65559162E+03</totfact>
</mgrwt>
</event>
<event>
 9    1  0.7816570E-001  0.2875329E+03  0.7818608E-02  0.1091644E+00
         -2   -1    0    0    0  501 -0.00000000000E+00  0.00000000000E+00  0.88697719158E+02  0.88697719158E+02  0.00000000000E+00 0. -1.
          2   -1    0    0  501    0  0.00000000000E+00 -0.00000000000E+00 -0.23302513138E+03  0.23302513138E+03  0.00000000000E+00 0. -1.
         35    2    1    2    0    0  0.00000000000E+00  0.00000000000E+00 -0.14432741222E+03  0.32172285054E+03  0.28753293835E+03 0.  0.
         25    2    3    3    0    0  0.59878027059E+02  0.33887144159E+02 -0.93044052139E+02  0.17019547339E+03  0.12480219093E+03 0.  0.
         25    2    3    3    0    0 -0.59878027059E+02 -0.33887144159E+02 -0.51283360081E+02  0.15152737715E+03  0.12488733459E+03 0.  0.
          5    1    4    4  502    0  0.17182089703E+02  0.34653404733E+02 -0.11537563565E+03  0.12177729660E+03  0.47000000000E+01 0.  1.
         -5    1    4    4    0  502  0.42695937356E+02 -0.76626057324E+00  0.22331583506E+02  0.48418176792E+02  0.47000000000E+01 0.  1.
          5    1    5    5  503    0  0.81244606280E+01  0.10140118145E+02 -0.67394634887E+02  0.68796480055E+02  0.47000000000E+01 0. -1.
         -5    1    5    5    0  503 -0.68002487687E+02 -0.44027262304E+02  0.16111274806E+02  0.82730897091E+02  0.47000000000E+01 0. -1.
<mgrwt>
<rscale>  0 0.28753294E+03</rscale>
<asrwt>0</asrwt>
<pdfrwt beam="1">  1        2 0.35850019E-01 0.28753294E+03</pdfrwt>
<pdfrwt beam="2">  1       -2 0.13645803E-01 0.28753294E+03</pdfrwt>
<totfact> 0.57408168E+03</totfact>
</mgrwt>
</event>
<event>
 8    1  0.7816570E-001  0.3376277E+03  0.7818608E-02  0.1067811E+00
          2   -1    0    0  501    0  0.00000000000E+00  0.00000000000E+00  0.72986259065E+02  0.72986259065E+02  0.00000000000E+00 0.  1.
         -2   -1    0    0    0  501 -0.00000000000E+00 -0.00000000000E+00 -0.39045872540E+03  0.39045872540E+03  0.00000000000E+00 0.  1.
         25    2    1    2    0    0  0.65139679696E+02  0.61023521939E+02 -0.65999302367E+02  0.16844813598E+03  0.12669577144E+03 0.  0.
         25    2    1    2    0    0 -0.65139679696E+02 -0.61023521939E+02 -0.25147316397E+03  0.29499684849E+03  0.12576700808E+03 0.  0.
          5    1    3    3  502    0  0.16623680280E+02  0.91135654663E+02 -0.19800976587E+02  0.94848421023E+02  0.47000000000E+01 0. -1.
         -5    1    3    3    0  502  0.48515999417E+02 -0.30112132723E+02 -0.46198325780E+02  0.73599714955E+02  0.47000000000E+01 0. -1.
          5    1    4    4  503    0 -0.56398065529E+02 -0.39298608287E+02 -0.35129688809E+02  0.77338912874E+02  0.47000000000E+01 0. -1.
         -5    1    4    4    0  503 -0.87416141678E+01 -0.21724913652E+02 -0.21634347516E+03  0.21765793562E+03  0.47000000000E+01 0. -1.
<mgrwt>
<rscale>  0 0.33762773E+03</rscale>
<asrwt>0</asrwt>
<pdfrwt beam="1">  1        2 0.11228656E-01 0.33762773E+03</pdfrwt>
<pdfrwt beam="2">  1       -2 0.60070571E-01 0.33762773E+03</pdfrwt>
<totfact> 0.14697448E+03</totfact>
</mgrwt>
</event>
<event>
 9    1  0.7816570E-001  0.2741946E+03  0.7818608E-02  0.1098903E+00
          1   -1    0    0  501    0  0.00000000000E+00  0.00000000000E+00  0.14520449200E+04  0.14520449200E+04  0.00000000000E+00 0.  1.
         -1   -1    0    0    0  501 -0.00000000000E+00 -0.00000000000E+00 -0.12944277091E+02  0.12944277091E+02  0.00000000000E+00 0.  1.
         35    2    1    2    0    0  0.00000000000E+00  0.00000000000E+00  0.14391006429E+04  0.14649891971E+04  0.27419461550E+03 0.  0.
         25    2    3    3    0    0 -0.26406282146E+02  0.95170311514E+00  0.98935822021E+03  0.99750972160E+03  0.12448999690E+03 0.  0.
         25    2    3    3    0    0  0.26406282146E+02 -0.95170311514E+00  0.44974242266E+03  0.46747947545E+03  0.12478227337E+03 0.  0.
          5    1    4    4  502    0 -0.34823342839E+02 -0.48640206284E+02  0.28013995539E+03  0.28649436204E+03  0.47000000000E+01 0.  1.
         -5    1    4    4    0  502  0.84170606930E+01  0.49591909399E+02  0.70921826482E+03  0.71101535957E+03  0.47000000000E+01 0.  1.
          5    1    5    5  503    0  0.35108697082E+02  0.25447551673E+02  0.48417030990E+02  0.65165154698E+02  0.47000000000E+01 0. -1.
         -5    1    5    5    0  503 -0.87024149367E+01 -0.26399254788E+02  0.40132539167E+03  0.40231432075E+03  0.47000000000E+01 0. -1.
<mgrwt>
<rscale>  0 0.27419462E+03</rscale>
<asrwt>0</asrwt>
<pdfrwt beam="1">  1        1 0.22339140E+00 0.27419462E+03</pdfrwt>
<pdfrwt beam="2">  1       -1 0.19914284E-02 0.27419462E+03</pdfrwt>
<totfact> 0.53143603E+03</totfact>
</mgrwt>
</event>
<event>
 9    1  0.7816570E-001  0.2732831E+03  0.7818608E-02  0.1099415E+00
         -2   -1    0    0    0  501 -0.00000000000E+00  0.00000000000E+00  0.19523655615E+02  0.19523655615E+02  0.00000000000E+00 0.  1.
          2   -1    0    0  501    0  0.00000000000E+00 -0.00000000000E+00 -0.95632232874E+03  0.95632232874E+03  0.00000000000E+00 0.  1.
         35    2    1    2    0    0 -0.71054273576E-14  0.00000000000E+00 -0.93679867313E+03  0.97584598436E+03  0.27328306060E+03 0.  0.
         25    2    3    3    0    0 -0.46119906574E+02  0.23011939438E+02 -0.49975486786E+03  0.51839536669E+03  0.12775849529E+03 0.  0.
         25    2    3    3    0    0  0.46119906574E+02 -0.23011939438E+02 -0.43704380527E+03  0.45745061767E+03  0.12488868940E+03 0.  0.
          5    1    4    4  502    0 -0.48733182600E+02  0.72074704452E+02 -0.35160882790E+03  0.36224376318E+03  0.47000000000E+01 0. -1.
         -5    1    4    4    0  502  0.26132760261E+01 -0.49062765014E+02 -0.14814603997E+03  0.15615160351E+03  0.47000000000E+01 0. -1.
          5    1    5    5  503    0  0.72994661670E+02  0.27136293247E+02 -0.25225202522E+03  0.26404123404E+03  0.47000000000E+01 0. -1.
         -5    1    5    5    0  503 -0.26874755096E+02 -0.50148232685E+02 -0.18479178004E+03  0.19340938363E+03  0.47000000000E+01 0. -1.
<mgrwt>
<rscale>  0 0.27328306E+03</rscale>
<asrwt>0</asrwt>
<pdfrwt beam="1">  1        2 0.14712657E+00 0.27328306E+03</pdfrwt>
<pdfrwt beam="2">  1       -2 0.30036381E-02 0.27328306E+03</pdfrwt>
<totfact> 0.11784825E+04</totfact>
</mgrwt>
</event>
<event>
 9    1  0.7816570E-001  0.2743675E+03  0.7818608E-02  0.1098806E+00
         -2   -1    0    0    0  501 -0.00000000000E+00  0.00000000000E+00  0.36933710182E+03  0.36933710182E+03  0.00000000000E+00 0.  1.
          2   -1    0    0  501    0  0.00000000000E+00 -0.00000000000E+00 -0.50954474315E+02  0.50954474315E+02  0.00000000000E+00 0.  1.
         35    2    1    2    0    0 -0.14210854715E-13  0.71054273576E-14  0.31838262750E+03  0.42029157613E+03  0.27436747524E+03 0.  0.
         25    2    3    3    0    0  0.39690418905E+02 -0.37684735627E+02  0.17679269861E+03  0.22366602008E+03  0.12560000638E+03 0.  0.
         25    2    3    3    0    0 -0.39690418905E+02  0.37684735627E+02  0.14158992889E+03  0.19662555605E+03  0.12497372795E+03 0.  0.
          5    1    4    4  502    0 -0.27795198999E+02 -0.28421498291E+02  0.69728917127E+01  0.40633309874E+02  0.47000000000E+01 0.  1.
         -5    1    4    4    0  502  0.67485617905E+02 -0.92632373361E+01  0.16981980690E+03  0.18303271021E+03  0.47000000000E+01 0.  1.
          5    1    5    5  503    0  0.39785491340E+02  0.30084940648E+02  0.27077737512E+02  0.56949827425E+02  0.47000000000E+01 0.  1.
         -5    1    5    5    0  503 -0.79475910245E+02  0.75997949784E+01  0.11451219137E+03  0.13967572862E+03  0.47000000000E+01 0.  1.
<mgrwt>
<rscale>  0 0.27436748E+03</rscale>
<asrwt>0</asrwt>
<pdfrwt beam="1">  1        2 0.78391501E-02 0.27436748E+03</pdfrwt>
<pdfrwt beam="2">  1       -2 0.56821091E-01 0.27436748E+03</pdfrwt>
<totfact> 0.25757301E+03</totfact>
</mgrwt>
</event>
<event>
 9    1  0.7816570E-001  0.2777921E+03  0.7818608E-02  0.1096901E+00
          2   -1    0    0  501    0  0.00000000000E+00  0.00000000000E+00  0.19825978431E+02  0.19825978431E+02  0.00000000000E+00 0. -1.
         -2   -1    0    0    0  501 -0.00000000000E+00 -0.00000000000E+00 -0.97307241817E+03  0.97307241817E+03  0.00000000000E+00 0. -1.
         35    2    1    2    0    0 -0.71054273576E-14  0.26645352591E-14 -0.95324643974E+03  0.99289839660E+03  0.27779210049E+03 0.  0.
         25    2    3    3    0    0 -0.59251775023E+02  0.74127481296E+01 -0.39477106950E+03  0.41755119809E+03  0.12222554576E+03 0.  0.
         25    2    3    3    0    0  0.59251775023E+02 -0.74127481296E+01 -0.55847537024E+03  0.57534719851E+03  0.12475551286E+03 0.  0.
          5    1    4    4  502    0 -0.71083168151E+02 -0.43491632543E+02 -0.23472663046E+03  0.24912450691E+03  0.47000000000E+01 0. -1.
         -5    1    4    4    0  502  0.11831393128E+02  0.50904380673E+02 -0.16004443903E+03  0.16842669118E+03  0.47000000000E+01 0. -1.
          5    1    5    5  503    0 -0.38871929442E+02 -0.75808330111E+01 -0.17530867977E+03  0.17978798383E+03  0.47000000000E+01 0.  1.
         -5    1    5    5    0  503  0.98123704466E+02  0.16808488141E+00 -0.38316669048E+03  0.39555921468E+03  0.47000000000E+01 0.  1.
<mgrwt>
<rscale>  0 0.27779210E+03</rscale>
<asrwt>0</asrwt>
<pdfrwt beam="1">  1        2 0.30501506E-02 0.27779210E+03</pdfrwt>
<pdfrwt beam="2">  1       -2 0.14970345E+00 0.27779210E+03</pdfrwt>
<totfact> 0.97672744E+02</totfact>
</mgrwt>
</event>
<event>
 9    1  0.7816570E-001  0.2741301E+03  0.7818608E-02  0.1098939E+00
          2   -1    0    0  501    0  0.00000000000E+00  0.00000000000E+00  0.39610323034E+03  0.39610323034E+03  0.00000000000E+00 0.  1.
         -2   -1    0    0    0  501 -0.00000000000E+00 -0.00000000000E+00 -0.47429111265E+02  0.47429111265E+02  0.00000000000E+00 0.  1.
         35    2    1    2    0    0  0.00000000000E+00 -0.35527136788E-14  0.34867411908E+03  0.44353234161E+03  0.27413007266E+03 0.  0.
         25    2    3    3    0    0  0.37714725181E+02 -0.30371330209E+02  0.22398940843E+03  0.26346667727E+03  0.12999467969E+03 0.  0.
         25    2    3    3    0    0 -0.37714725181E+02  0.30371330209E+02  0.12468471065E+03  0.18006566434E+03  0.12055101912E+03 0.  0.
          5    1    4    4  502    0 -0.39842570967E+02 -0.41553435827E+02  0.71122860775E+02  0.91622430742E+02  0.47000000000E+01 0.  1.
         -5    1    4    4    0  502  0.77557296148E+02  0.11182105618E+02  0.15286654766E+03  0.17184424653E+03  0.47000000000E+01 0.  1.
          5    1    5    5  503    0  0.38316774549E+02  0.33855250853E+02  0.67191554701E+02  0.84564462071E+02  0.47000000000E+01 0.  1.
         -5    1    5    5    0  503 -0.76031499731E+02 -0.34839206444E+01  0.57493155946E+02  0.95501202270E+02  0.47000000000E+01 0.  1.
<mgrwt>
<rscale>  0 0.27413007E+03</rscale>
<asrwt>0</asrwt>
<pdfrwt beam="1">  1        2 0.60938956E-01 0.27413007E+03</pdfrwt>
<pdfrwt beam="2">  1       -2 0.72967866E-02 0.27413007E+03</pdfrwt>
<totfact> 0.87531336E+03</totfact>
</mgrwt>
</event>
<event>
 9    1  0.7816570E-001  0.2748014E+03  0.7818608E-02  0.1098563E+00
          1   -1    0    0  501    0  0.00000000000E+00  0.00000000000E+00  0.82984321613E+02  0.82984321613E+02  0.00000000000E+00 0.  1.
         -1   -1    0    0    0  501 -0.00000000000E+00 -0.00000000000E+00 -0.22750018068E+03  0.22750018068E+03  0.00000000000E+00 0.  1.
         35    2    1    2    0    0  0.00000000000E+00  0.71054273576E-14 -0.14451585906E+03  0.31048450229E+03  0.27480136943E+03 0.  0.
         25    2    3    3    0    0 -0.47098261289E+01 -0.49619187530E+02 -0.41458733906E+02  0.14086687973E+03  0.12506160464E+03 0.  0.
         25    2    3    3    0    0  0.47098261289E+01  0.49619187530E+02 -0.10305712516E+03  0.16961762256E+03  0.12516037952E+03 0.  0.
          5    1    4    4  502    0 -0.27927787189E+02 -0.52455337672E+02 -0.77419973674E+02  0.97711135861E+02  0.47000000000E+01 0. -1.
         -5    1    4    4    0  502  0.23217961060E+02  0.28361501424E+01  0.35961239768E+02  0.43155743871E+02  0.47000000000E+01 0. -1.
          5    1    5    5  503    0  0.23930086670E+02 -0.18754655342E+02  0.13058614203E+02  0.33421603042E+02  0.47000000000E+01 0. -1.
         -5    1    5    5    0  503 -0.19220260541E+02  0.68373842872E+02 -0.11611573936E+03  0.13619601951E+03  0.47000000000E+01 0. -1.
<mgrwt>
<rscale>  0 0.27480137E+03</rscale>
<asrwt>0</asrwt>
<pdfrwt beam="1">  1        1 0.12766819E-01 0.27480137E+03</pdfrwt>
<pdfrwt beam="2">  1       -1 0.35000027E-01 0.27480137E+03</pdfrwt>
<totfact> 0.35934986E+03</totfact>
</mgrwt>
</event>
<event>
 9    1  0.7816570E-001  0.2560388E+03  0.7818608E-02  0.1109547E+00
         -1   -1    0    0    0  501 -0.00000000000E+00  0.00000000000E+00  0.43000283100E+03  0.43000283100E+03  0.00000000000E+00 0.  1.
          1   -1    0    0  501    0  0.00000000000E+00 -0.00000000000E+00 -0.38113621874E+02  0.38113621874E+02  0.00000000000E+00 0.  1.
         35    2    1    2    0    0  0.00000000000E+00  0.00000000000E+00  0.39188920912E+03  0.46811645287E+03  0.25603878851E+03 0.  0.
         25    2    3    3    0    0  0.21587352161E+02 -0.15782995125E+01  0.24165450953E+03  0.27197879166E+03  0.12291076575E+03 0.  0.
         25    2    3    3    0    0 -0.21587352161E+02  0.15782995125E+01  0.15023469959E+03  0.19613766121E+03  0.12422162605E+03 0.  0.
          5    1    4    4  502    0  0.10244434698E+02 -0.62030389960E+02  0.12668536275E+03  0.14150614423E+03  0.47000000000E+01 0.  1.
         -5    1    4    4    0  502  0.11342917463E+02  0.60452090447E+02  0.11496914678E+03  0.13047264743E+03  0.47000000000E+01 0.  1.
          5    1    5    5  503    0 -0.13962205113E+02 -0.46585215264E+02  0.13202045988E+02  0.50611357135E+02  0.47000000000E+01 0. -1.
         -5    1    5    5    0  503 -0.76251470487E+01  0.48163514776E+02  0.13703265360E+03  0.14552630407E+03  0.47000000000E+01 0. -1.
<mgrwt>
<rscale>  0 0.25603879E+03</rscale>
<asrwt>0</asrwt>
<pdfrwt beam="1">  1        1 0.58636344E-02 0.25603879E+03</pdfrwt>
<pdfrwt beam="2">  1       -1 0.66154278E-01 0.25603879E+03</pdfrwt>
<totfact> 0.31828735E+03</totfact>
</mgrwt>
</event>
<event>
 9    1  0.7816570E-001  0.2745958E+03  0.7818608E-02  0.1098678E+00
          1   -1    0    0  501    0  0.00000000000E+00  0.00000000000E+00  0.25022653466E+03  0.25022653466E+03  0.00000000000E+00 0. -1.
         -1   -1    0    0    0  501 -0.00000000000E+00 -0.00000000000E+00 -0.75334590460E+02  0.75334590460E+02  0.00000000000E+00 0. -1.
         35    2    1    2    0    0 -0.71054273576E-14 -0.17763568394E-14  0.17489194420E+03  0.32556112512E+03  0.27459580121E+03 0.  0.
         25    2    3    3    0    0  0.21185137552E+02 -0.12210818695E+02  0.30923181513E+02  0.13347869356E+03  0.12752413236E+03 0.  0.
         25    2    3    3    0    0 -0.21185137552E+02  0.12210818695E+02  0.14396876269E+03  0.19208243156E+03  0.12478277821E+03 0.  0.
          5    1    4    4  502    0  0.62451980316E+02 -0.11272310882E+02 -0.20973072125E+02  0.67002049165E+02  0.47000000000E+01 0. -1.
         -5    1    4    4    0  502 -0.41266842764E+02 -0.93850781299E+00  0.51896253638E+02  0.66476644397E+02  0.47000000000E+01 0. -1.
          5    1    5    5  503    0 -0.47833311367E+02 -0.22541180277E+02  0.14070105693E+02  0.54919835750E+02  0.47000000000E+01 0. -1.
         -5    1    5    5    0  503  0.26648173815E+02  0.34751998971E+02  0.12989865700E+03  0.13716259581E+03  0.47000000000E+01 0. -1.
<mgrwt>
<rscale>  0 0.27459580E+03</rscale>
<asrwt>0</asrwt>
<pdfrwt beam="1">  1        1 0.38496390E-01 0.27459580E+03</pdfrwt>
<pdfrwt beam="2">  1       -1 0.11589937E-01 0.27459580E+03</pdfrwt>
<totfact> 0.53005743E+03</totfact>
</mgrwt>
</event>
<event>
 9    1  0.7816570E-001  0.3323486E+03  0.7818608E-02  0.1070102E+00
          1   -1    0    0  501    0  0.00000000000E+00  0.00000000000E+00  0.28342469320E+03  0.28342469320E+03  0.00000000000E+00 0.  1.
         -1   -1    0    0    0  501 -0.00000000000E+00 -0.00000000000E+00 -0.97429385110E+02  0.97429385110E+02  0.00000000000E+00 0.  1.
         35    2    1    2    0    0  0.00000000000E+00  0.00000000000E+00  0.18599530809E+03  0.38085407831E+03  0.33234857354E+03 0.  0.
         25    2    3    3    0    0  0.14944435730E+02  0.24120497091E+02  0.21340457841E+03  0.24918398531E+03  0.12548310608E+03 0.  0.
         25    2    3    3    0    0 -0.14944435730E+02 -0.24120497091E+02 -0.27409270314E+02  0.13167009300E+03  0.12562090094E+03 0.  0.
          5    1    4    4  502    0  0.31691452656E+02 -0.10695832989E+02  0.20700420236E+03  0.20974169545E+03  0.47000000000E+01 0.  1.
         -5    1    4    4    0  502 -0.16747016926E+02  0.34816330080E+02  0.64003760465E+01  0.39442289864E+02  0.47000000000E+01 0.  1.
          5    1    5    5  503    0 -0.67852375653E+02 -0.26192987636E+02 -0.29119200458E+02  0.78485892480E+02  0.47000000000E+01 0.  1.
         -5    1    5    5    0  503  0.52907939923E+02  0.20724905451E+01  0.17099301444E+01  0.53184200521E+02  0.47000000000E+01 0.  1.
<mgrwt>
<rscale>  0 0.33234857E+03</rscale>
<asrwt>0</asrwt>
<pdfrwt beam="1">  1        1 0.43603799E-01 0.33234857E+03</pdfrwt>
<pdfrwt beam="2">  1       -1 0.14989136E-01 0.33234857E+03</pdfrwt>
<totfact> 0.30353504E+03</totfact>
</mgrwt>
</event>
<event>
 9    1  0.7816570E-001  0.2742709E+03  0.7818608E-02  0.1098860E+00
          2   -1    0    0  501    0  0.00000000000E+00  0.00000000000E+00  0.52006865375E+03  0.52006865375E+03  0.00000000000E+00 0.  1.
         -2   -1    0    0    0  501 -0.00000000000E+00 -0.00000000000E+00 -0.36160872410E+02  0.36160872410E+02  0.00000000000E+00 0.  1.
         35    2    1    2    0    0  0.00000000000E+00 -0.71054273576E-14  0.48390778134E+03  0.55622952616E+03  0.27427093344E+03 0.  0.
         25    2    3    3    0    0  0.36424103205E+02 -0.39188932533E+02  0.22763108096E+03  0.26497453528E+03  0.12463188837E+03 0.  0.
         25    2    3    3    0    0 -0.36424103205E+02  0.39188932533E+02  0.25627670038E+03  0.29125499089E+03  0.12762928673E+03 0.  0.
          5    1    4    4  502    0  0.77014658867E+02 -0.49187333317E+02  0.17609273211E+03  0.19844745335E+03  0.47000000000E+01 0.  1.
         -5    1    4    4    0  502 -0.40590555663E+02  0.99984007846E+01  0.51538348856E+02  0.66527081929E+02  0.47000000000E+01 0.  1.
          5    1    5    5  503    0  0.19909970503E+02 -0.48940973461E+01  0.19732260653E+03  0.19844057085E+03  0.47000000000E+01 0. -1.
         -5    1    5    5    0  503 -0.56334073708E+02  0.44083029879E+02  0.58954093853E+02  0.92814420032E+02  0.47000000000E+01 0. -1.
<mgrwt>
<rscale>  0 0.27427093E+03</rscale>
<asrwt>0</asrwt>
<pdfrwt beam="1">  1        2 0.80010557E-01 0.27427093E+03</pdfrwt>
<pdfrwt beam="2">  1       -2 0.55632115E-02 0.27427093E+03</pdfrwt>
<totfact> 0.98415079E+03</totfact>
</mgrwt>
</event>
<event>
 9    1  0.7816570E-001  0.2737236E+03  0.7818608E-02  0.1099167E+00
         -2   -1    0    0    0  501 -0.00000000000E+00  0.00000000000E+00  0.47964930731E+02  0.47964930731E+02  0.00000000000E+00 0. -1.
          2   -1    0    0  501    0  0.00000000000E+00 -0.00000000000E+00 -0.39051779334E+03  0.39051779334E+03  0.00000000000E+00 0. -1.
         35    2    1    2    0    0 -0.71054273576E-14  0.71054273576E-14 -0.34255286261E+03  0.43848272407E+03  0.27372364828E+03 0.  0.
         25    2    3    3    0    0  0.21382440281E+02  0.48468099670E+02 -0.13966112574E+03  0.19507554832E+03  0.12547061038E+03 0.  0.
         25    2    3    3    0    0 -0.21382440281E+02 -0.48468099670E+02 -0.20289173687E+03  0.24340717575E+03  0.12359462319E+03 0.  0.
          5    1    4    4  502    0 -0.45721895082E+02  0.32119458727E+02 -0.10167342827E+03  0.11611084073E+03  0.47000000000E+01 0. -1.
         -5    1    4    4    0  502  0.67104335363E+02  0.16348640943E+02 -0.37987697471E+02  0.78964707587E+02  0.47000000000E+01 0. -1.
          5    1    5    5  503    0 -0.72209442074E+01  0.14608412655E+02  0.10796519662E+02  0.20104790284E+02  0.47000000000E+01 0.  1.
         -5    1    5    5    0  503 -0.14161496073E+02 -0.63076512325E+02 -0.21368825653E+03  0.22330238547E+03  0.47000000000E+01 0.  1.
<mgrwt>
<rscale>  0 0.27372365E+03</rscale>
<asrwt>0</asrwt>
<pdfrwt beam="1">  1        2 0.60079658E-01 0.27372365E+03</pdfrwt>
<pdfrwt beam="2">  1       -2 0.73792204E-02 0.27372365E+03</pdfrwt>
<totfact> 0.87348330E+03</totfact>
</mgrwt>
</event>
<event>
 9    1  0.7816570E-001  0.2717269E+03  0.7818608E-02  0.1100295E+00
         -2   -1    0    0    0  501 -0.00000000000E+00  0.00000000000E+00  0.11913216579E+02  0.11913216579E+02  0.00000000000E+00 0. -1.
          2   -1    0    0  501    0  0.00000000000E+00 -0.00000000000E+00 -0.15494447938E+04  0.15494447938E+04  0.00000000000E+00 0. -1.
         35    2    1    2    0    0  0.00000000000E+00  0.00000000000E+00 -0.15375315772E+04  0.15613580104E+04  0.27172685849E+03 0.  0.
         25    2    3    3    0    0  0.27582525631E+02 -0.36544110174E+02 -0.94733914264E+03  0.95663651900E+03  0.12492281854E+03 0.  0.
         25    2    3    3    0    0 -0.27582525631E+02  0.36544110174E+02 -0.59019243460E+03  0.60472149140E+03  0.12355041317E+03 0.  0.
          5    1    4    4  502    0  0.28891886942E+02  0.33726054519E+02 -0.15886753989E+03  0.16502476515E+03  0.47000000000E+01 0. -1.
         -5    1    4    4    0  502 -0.13093613116E+01 -0.70270164693E+02 -0.78847160276E+03  0.79161175385E+03  0.47000000000E+01 0. -1.
          5    1    5    5  503    0  0.15101826469E+02 -0.32188476409E+02 -0.74311539002E+02  0.82513380764E+02  0.47000000000E+01 0. -1.
         -5    1    5    5    0  503 -0.42684352100E+02  0.68732586583E+02 -0.51588089560E+03  0.52220811064E+03  0.47000000000E+01 0. -1.
<mgrwt>
<rscale>  0 0.27172686E+03</rscale>
<asrwt>0</asrwt>
<pdfrwt beam="1">  1        2 0.23837595E+00 0.27172686E+03</pdfrwt>
<pdfrwt beam="2">  1       -2 0.18328039E-02 0.27172686E+03</pdfrwt>
<totfact> 0.11282600E+04</totfact>
</mgrwt>
</event>
<event>
 9    1  0.7816570E-001  0.2749665E+03  0.7818608E-02  0.1098470E+00
         -2   -1    0    0    0  501 -0.00000000000E+00  0.00000000000E+00  0.40020230902E+02  0.40020230902E+02  0.00000000000E+00 0.  1.
          2   -1    0    0  501    0  0.00000000000E+00 -0.00000000000E+00 -0.47230235242E+03  0.47230235242E+03  0.00000000000E+00 0.  1.
         35    2    1    2    0    0  0.00000000000E+00  0.00000000000E+00 -0.43228212152E+03  0.51232258332E+03  0.27496653760E+03 0.  0.
         25    2    3    3    0    0 -0.23564828491E+02  0.52317091643E+02 -0.21566488982E+03  0.25580783133E+03  0.12503568550E+03 0.  0.
         25    2    3    3    0    0  0.23564828491E+02 -0.52317091643E+02 -0.21661723169E+03  0.25651475199E+03  0.12483754925E+03 0.  0.
          5    1    4    4  502    0 -0.47549029431E+02  0.75688431720E+00 -0.19671130680E+02  0.51677136684E+02  0.47000000000E+01 0. -1.
         -5    1    4    4    0  502  0.23984200940E+02  0.51560207326E+02 -0.19599375914E+03  0.20413069465E+03  0.47000000000E+01 0. -1.
          5    1    5    5  503    0  0.63002849945E+02 -0.48092347916E+02 -0.19620099620E+03  0.21165810624E+03  0.47000000000E+01 0.  1.
         -5    1    5    5    0  503 -0.39438021454E+02 -0.42247437264E+01 -0.20416235494E+02  0.44856645745E+02  0.47000000000E+01 0.  1.
<mgrwt>
<rscale>  0 0.27496654E+03</rscale>
<asrwt>0</asrwt>
<pdfrwt beam="1">  1        2 0.72661897E-01 0.27496654E+03</pdfrwt>
<pdfrwt beam="2">  1       -2 0.61569589E-02 0.27496654E+03</pdfrwt>
<totfact> 0.93838426E+03</totfact>
</mgrwt>
</event>
<event>
 9    1  0.7816570E-001  0.2779577E+03  0.7818608E-02  0.1096810E+00
         -2   -1    0    0    0  501 -0.00000000000E+00  0.00000000000E+00  0.34139519041E+02  0.34139519041E+02  0.00000000000E+00 0. -1.
          2   -1    0    0  501    0  0.00000000000E+00 -0.00000000000E+00 -0.56577025802E+03  0.56577025802E+03  0.00000000000E+00 0. -1.
         35    2    1    2    0    0  0.00000000000E+00  0.00000000000E+00 -0.53163073898E+03  0.59990977706E+03  0.27795772698E+03 0.  0.
         25    2    3    3    0    0 -0.37707413954E+02 -0.62538565096E+02 -0.26545553734E+03  0.29681127645E+03  0.11089350897E+03 0.  0.
         25    2    3    3    0    0  0.37707413954E+02  0.62538565096E+02 -0.26617520165E+03  0.30309850062E+03  0.12524592574E+03 0.  0.
          5    1    4    4  502    0 -0.37523376305E+02 -0.96433952274E+01 -0.16698451500E+02  0.42449112162E+02  0.47000000000E+01 0. -1.
         -5    1    4    4    0  502 -0.18403764918E+00 -0.52895169869E+02 -0.24875708584E+03  0.25436216428E+03  0.47000000000E+01 0. -1.
          5    1    5    5  503    0  0.18199575569E+02 -0.32012858240E+02 -0.29402462759E+02  0.47356546114E+02  0.47000000000E+01 0. -1.
         -5    1    5    5    0  503  0.19507838385E+02  0.94551423336E+02 -0.23677273889E+03  0.25574195450E+03  0.47000000000E+01 0. -1.
<mgrwt>
<rscale>  0 0.27795773E+03</rscale>
<asrwt>0</asrwt>
<pdfrwt beam="1">  1        2 0.87041576E-01 0.27795773E+03</pdfrwt>
<pdfrwt beam="2">  1       -2 0.52522338E-02 0.27795773E+03</pdfrwt>
<totfact> 0.97689193E+03</totfact>
</mgrwt>
</event>
<event>
 9    1  0.7816570E-001  0.2763118E+03  0.7818608E-02  0.1097721E+00
          3   -1    0    0  501    0  0.00000000000E+00  0.00000000000E+00  0.10232234295E+03  0.10232234295E+03  0.00000000000E+00 0. -1.
         -3   -1    0    0    0  501 -0.00000000000E+00 -0.00000000000E+00 -0.18653852108E+03  0.18653852108E+03  0.00000000000E+00 0. -1.
         35    2    1    2    0    0 -0.71054273576E-14  0.00000000000E+00 -0.84216178131E+02  0.28886086403E+03  0.27631184215E+03 0.  0.
         25    2    3    3    0    0 -0.54212213425E+02 -0.18951767851E+02 -0.24627904771E+02  0.13948412148E+03  0.12470426161E+03 0.  0.
         25    2    3    3    0    0  0.54212213425E+02  0.18951767851E+02 -0.59588273360E+02  0.14937674255E+03  0.12435640435E+03 0.  0.
          5    1    4    4  502    0 -0.24722648342E+01  0.21922792290E+02 -0.60291287988E+02  0.64372745183E+02  0.47000000000E+01 0. -1.
         -5    1    4    4    0  502 -0.51739948591E+02 -0.40874560141E+02  0.35663383217E+02  0.75111376298E+02  0.47000000000E+01 0. -1.
          5    1    5    5  503    0 -0.10973575564E+02 -0.16688510126E+02 -0.71144064115E+02  0.74043862607E+02  0.47000000000E+01 0.  1.
         -5    1    5    5    0  503  0.65185788990E+02  0.35640277977E+02  0.11555790756E+02  0.75332879943E+02  0.47000000000E+01 0.  1.
<mgrwt>
<rscale>  0 0.27631184E+03</rscale>
<asrwt>0</asrwt>
<pdfrwt beam="1">  1        3 0.15741899E-01 0.27631184E+03</pdfrwt>
<pdfrwt beam="2">  1       -3 0.28698234E-01 0.27631184E+03</pdfrwt>
<totfact> 0.10130132E+03</totfact>
</mgrwt>
</event>
<event>
 9    1  0.7816570E-001  0.2747171E+03  0.7818608E-02  0.1098610E+00
         -2   -1    0    0    0  501 -0.00000000000E+00  0.00000000000E+00  0.62717676999E+01  0.62717676999E+01  0.00000000000E+00 0.  1.
          2   -1    0    0  501    0  0.00000000000E+00 -0.00000000000E+00 -0.30083014670E+04  0.30083014670E+04  0.00000000000E+00 0.  1.
         35    2    1    2    0    0 -0.71054273576E-14  0.00000000000E+00 -0.30020296993E+04  0.30145732347E+04  0.27471707608E+03 0.  0.
         25    2    3    3    0    0 -0.34728722152E+02  0.45052033956E+02 -0.16299894928E+04  0.16356774981E+04  0.12385217518E+03 0.  0.
         25    2    3    3    0    0  0.34728722152E+02 -0.45052033956E+02 -0.13720402066E+04  0.13788957366E+04  0.12499341667E+03 0.  0.
          5    1    4    4  502    0  0.15463035521E+02 -0.35595396429E+02 -0.61528526624E+03  0.61652590097E+03  0.47000000000E+01 0. -1.
         -5    1    4    4    0  502 -0.50191757674E+02  0.80647430385E+02 -0.10147042265E+04  0.10191515971E+04  0.47000000000E+01 0. -1.
          5    1    5    5  503    0 -0.31625112367E+02 -0.42401814080E+02 -0.29088288235E+03  0.29569072156E+03  0.47000000000E+01 0. -1.
         -5    1    5    5    0  503  0.66353834520E+02 -0.26502198761E+01 -0.10811573242E+04  0.10832050151E+04  0.47000000000E+01 0. -1.
<mgrwt>
<rscale>  0 0.27471708E+03</rscale>
<asrwt>0</asrwt>
<pdfrwt beam="1">  1        2 0.46281563E+00 0.27471708E+03</pdfrwt>
<pdfrwt beam="2">  1       -2 0.96488730E-03 0.27471708E+03</pdfrwt>
<totfact> 0.46266019E+03</totfact>
</mgrwt>
</event>
<event>
 9    1  0.7816570E-001  0.2761661E+03  0.7818608E-02  0.1097802E+00
         -1   -1    0    0    0  501 -0.00000000000E+00  0.00000000000E+00  0.25046083286E+03  0.25046083286E+03  0.00000000000E+00 0.  1.
          1   -1    0    0  501    0  0.00000000000E+00 -0.00000000000E+00 -0.76127403379E+02  0.76127403379E+02  0.00000000000E+00 0.  1.
         35    2    1    2    0    0  0.00000000000E+00  0.35527136788E-14  0.17433342948E+03  0.32658823624E+03  0.27616613010E+03 0.  0.
         25    2    3    3    0    0 -0.10372660976E+02 -0.44464357457E+01  0.20060716199E+02  0.12843727504E+03  0.12635797719E+03 0.  0.
         25    2    3    3    0    0  0.10372660976E+02  0.44464357457E+01  0.15427271328E+03  0.19815096120E+03  0.12384010043E+03 0.  0.
          5    1    4    4  502    0  0.51631667769E+02 -0.22316990934E+02  0.28428432579E+02  0.63199232431E+02  0.47000000000E+01 0.  1.
         -5    1    4    4    0  502 -0.62004328745E+02  0.17870555188E+02 -0.83677163806E+01  0.65238042608E+02  0.47000000000E+01 0.  1.
          5    1    5    5  503    0 -0.39276858506E+02 -0.39884728473E+02  0.55623028368E+02  0.79053617655E+02  0.47000000000E+01 0. -1.
         -5    1    5    5    0  503  0.49649519482E+02  0.44331164219E+02  0.98649684913E+02  0.11909734354E+03  0.47000000000E+01 0. -1.
<mgrwt>
<rscale>  0 0.27616613E+03</rscale>
<asrwt>0</asrwt>
<pdfrwt beam="1">  1        1 0.11711908E-01 0.27616613E+03</pdfrwt>
<pdfrwt beam="2">  1       -1 0.38532435E-01 0.27616613E+03</pdfrwt>
<totfact> 0.34060034E+03</totfact>
</mgrwt>
</event>
<event>
 9    1  0.7816570E-001  0.2760827E+03  0.7818608E-02  0.1097848E+00
         -2   -1    0    0    0  501 -0.00000000000E+00  0.00000000000E+00  0.10580994498E+03  0.10580994498E+03  0.00000000000E+00 0.  1.
          2   -1    0    0  501    0  0.00000000000E+00 -0.00000000000E+00 -0.18009089809E+03  0.18009089809E+03  0.00000000000E+00 0.  1.
         35    2    1    2    0    0 -0.35527136788E-14  0.17763568394E-14 -0.74280953103E+02  0.28590084307E+03  0.27608265443E+03 0.  0.
         25    2    3    3    0    0 -0.17158313602E+01  0.11664789375E+02 -0.89378492367E+02  0.15919665394E+03  0.13120993994E+03 0.  0.
         25    2    3    3    0    0  0.17158313602E+01 -0.11664789375E+02  0.15097539264E+02  0.12670418913E+03  0.12524777229E+03 0.  0.
          5    1    4    4  502    0  0.18064375400E+02 -0.12910909213E+02  0.28869472647E+02  0.36722604567E+02  0.47000000000E+01 0.  1.
         -5    1    4    4    0  502 -0.19780206760E+02  0.24575698587E+02 -0.11824796501E+03  0.12247404938E+03  0.47000000000E+01 0.  1.
          5    1    5    5  503    0  0.55478878613E+02  0.11684067433E+02 -0.17435368845E+02  0.59502146942E+02  0.47000000000E+01 0.  1.
         -5    1    5    5    0  503 -0.53763047252E+02 -0.23348856808E+02  0.32532908110E+02  0.67202042188E+02  0.47000000000E+01 0.  1.
<mgrwt>
<rscale>  0 0.27608265E+03</rscale>
<asrwt>0</asrwt>
<pdfrwt beam="1">  1        2 0.27706292E-01 0.27608265E+03</pdfrwt>
<pdfrwt beam="2">  1       -2 0.16278453E-01 0.27608265E+03</pdfrwt>
<totfact> 0.56795409E+03</totfact>
</mgrwt>
</event>
<event>
 9    1  0.7816570E-001  0.2740099E+03  0.7818608E-02  0.1099006E+00
          4   -1    0    0  501    0  0.00000000000E+00  0.00000000000E+00  0.37961581599E+02  0.37961581599E+02  0.00000000000E+00 0. -1.
         -4   -1    0    0    0  501 -0.00000000000E+00 -0.00000000000E+00 -0.49445665020E+03  0.49445665020E+03  0.00000000000E+00 0. -1.
         35    2    1    2    0    0 -0.71054273576E-14  0.00000000000E+00 -0.45649506860E+03  0.53241823180E+03  0.27400990109E+03 0.  0.
         25    2    3    3    0    0  0.17834761830E+02 -0.28765324252E+02 -0.30996528884E+03  0.33699155341E+03  0.12782528767E+03 0.  0.
         25    2    3    3    0    0 -0.17834761830E+02  0.28765324252E+02 -0.14652977976E+03  0.19542667840E+03  0.12480019096E+03 0.  0.
          5    1    4    4  502    0  0.69147196004E+02 -0.31788224891E+02 -0.22508679103E+03  0.23765096140E+03  0.47000000000E+01 0.  1.
         -5    1    4    4    0  502 -0.51312434174E+02  0.30229006399E+01 -0.84878497811E+02  0.99340592005E+02  0.47000000000E+01 0.  1.
          5    1    5    5  503    0 -0.53363596355E+02  0.21687168701E+02 -0.14798203294E+03  0.15886717337E+03  0.47000000000E+01 0.  1.
         -5    1    5    5    0  503  0.35528834525E+02  0.70781555508E+01  0.14522531757E+01  0.36559505030E+02  0.47000000000E+01 0.  1.
<mgrwt>
<rscale>  0 0.27400990E+03</rscale>
<asrwt>0</asrwt>
<pdfrwt beam="1">  1        4 0.58402434E-02 0.27400990E+03</pdfrwt>
<pdfrwt beam="2">  1       -4 0.76070253E-01 0.27400990E+03</pdfrwt>
<totfact> 0.55185952E+02</totfact>
</mgrwt>
</event>
<event>
 9    1  0.7816570E-001  0.2754456E+03  0.7818608E-02  0.1098203E+00
         -2   -1    0    0    0  501 -0.00000000000E+00  0.00000000000E+00  0.10685001941E+02  0.10685001941E+02  0.00000000000E+00 0. -1.
          2   -1    0    0  501    0  0.00000000000E+00 -0.00000000000E+00 -0.17751576435E+04  0.17751576435E+04  0.00000000000E+00 0. -1.
         35    2    1    2    0    0 -0.35527136788E-14  0.00000000000E+00 -0.17644726416E+04  0.17858426455E+04  0.27544555082E+03 0.  0.
         25    2    3    3    0    0  0.22539406665E+01 -0.39181510649E+02 -0.11610494133E+04  0.11684117327E+04  0.12493984967E+03 0.  0.
         25    2    3    3    0    0 -0.22539406665E+01  0.39181510649E+02 -0.60342322826E+03  0.61743091271E+03  0.12474401205E+03 0.  0.
          5    1    4    4  502    0 -0.22884807374E+02 -0.10109342151E+02 -0.10583423889E+04  0.10586484852E+04  0.47000000000E+01 0. -1.
         -5    1    4    4    0  502  0.25138748041E+02 -0.29072168497E+02 -0.10270702444E+03  0.10976324751E+03  0.47000000000E+01 0. -1.
          5    1    5    5  503    0  0.43410171287E+02  0.63158460508E+02 -0.41375068221E+03  0.42081486562E+03  0.47000000000E+01 0.  1.
         -5    1    5    5    0  503 -0.45664111954E+02 -0.23976949859E+02 -0.18967254606E+03  0.19661604709E+03  0.47000000000E+01 0.  1.
<mgrwt>
<rscale>  0 0.27544555E+03</rscale>
<asrwt>0</asrwt>
<pdfrwt beam="1">  1        2 0.27310106E+00 0.27544555E+03</pdfrwt>
<pdfrwt beam="2">  1       -2 0.16438471E-02 0.27544555E+03</pdfrwt>
<totfact> 0.10061190E+04</totfact>
</mgrwt>
</event>
<event>
 9    1  0.7816570E-001  0.2758981E+03  0.7818608E-02  0.1097951E+00
          2   -1    0    0  501    0  0.00000000000E+00  0.00000000000E+00  0.19967210055E+03  0.19967210055E+03  0.00000000000E+00 0. -1.
         -2   -1    0    0    0  501 -0.00000000000E+00 -0.00000000000E+00 -0.95305974888E+02  0.95305974888E+02  0.00000000000E+00 0. -1.
         35    2    1    2    0    0  0.35527136788E-14 -0.17763568394E-14  0.10436612566E+03  0.29497807544E+03  0.27589812758E+03 0.  0.
         25    2    3    3    0    0  0.19552343185E+02  0.30307067669E+01 -0.42666773263E+01  0.12744207162E+03  0.12582447208E+03 0.  0.
         25    2    3    3    0    0 -0.19552343185E+02 -0.30307067669E+01  0.10863280299E+03  0.16753600382E+03  0.12599899755E+03 0.  0.
          5    1    4    4  502    0  0.13583255155E+01 -0.12212132958E+02 -0.62769345082E+02  0.64133157739E+02  0.47000000000E+01 0. -1.
         -5    1    4    4    0  502  0.18194017669E+02  0.15242839725E+02  0.58502667756E+02  0.63308913878E+02  0.47000000000E+01 0. -1.
          5    1    5    5  503    0 -0.57949017159E+01  0.48685599284E+02  0.10217671812E+03  0.11342856867E+03  0.47000000000E+01 0.  1.
         -5    1    5    5    0  503 -0.13757441469E+02 -0.51716306051E+02  0.64560848661E+01  0.54107435155E+02  0.47000000000E+01 0.  1.
<mgrwt>
<rscale>  0 0.27589813E+03</rscale>
<asrwt>0</asrwt>
<pdfrwt beam="1">  1        2 0.30718785E-01 0.27589813E+03</pdfrwt>
<pdfrwt beam="2">  1       -2 0.14662458E-01 0.27589813E+03</pdfrwt>
<totfact> 0.60290671E+03</totfact>
</mgrwt>
</event>
<event>
 9    1  0.7816570E-001  0.2745753E+03  0.7818608E-02  0.1098689E+00
          1   -1    0    0  501    0  0.00000000000E+00  0.00000000000E+00  0.48006012023E+02  0.48006012023E+02  0.00000000000E+00 0. -1.
         -1   -1    0    0    0  501 -0.00000000000E+00 -0.00000000000E+00 -0.39261540666E+03  0.39261540666E+03  0.00000000000E+00 0. -1.
         35    2    1    2    0    0  0.00000000000E+00 -0.17763568394E-14 -0.34460939464E+03  0.44062141869E+03  0.27457530794E+03 0.  0.
         25    2    3    3    0    0 -0.57967501833E+02 -0.56001562320E+01 -0.19764203261E+03  0.24090307746E+03  0.12482117871E+03 0.  0.
         25    2    3    3    0    0  0.57967501833E+02  0.56001562320E+01 -0.14696736203E+03  0.19971834122E+03  0.12205087997E+03 0.  0.
          5    1    4    4  502    0 -0.92050999818E+02  0.20335250540E+02 -0.12862695146E+03  0.15954275798E+03  0.47000000000E+01 0.  1.
         -5    1    4    4    0  502  0.34083497985E+02 -0.25935406772E+02 -0.69015081151E+02  0.81360319478E+02  0.47000000000E+01 0.  1.
          5    1    5    5  503    0  0.88510663186E+02  0.14664939958E+02 -0.62837121138E+02  0.10963481087E+03  0.47000000000E+01 0.  1.
         -5    1    5    5    0  503 -0.30543161352E+02 -0.90647837264E+01 -0.84130240887E+02  0.90083530354E+02  0.47000000000E+01 0.  1.
<mgrwt>
<rscale>  0 0.27457531E+03</rscale>
<asrwt>0</asrwt>
<pdfrwt beam="1">  1        1 0.73855401E-02 0.27457531E+03</pdfrwt>
<pdfrwt beam="2">  1       -1 0.60402372E-01 0.27457531E+03</pdfrwt>
<totfact> 0.27748218E+03</totfact>
</mgrwt>
</event>
<event>
 9    1  0.7816570E-001  0.2826956E+03  0.7818608E-02  0.1094226E+00
          1   -1    0    0  501    0  0.00000000000E+00  0.00000000000E+00  0.19785608369E+04  0.19785608369E+04  0.00000000000E+00 0.  1.
         -1   -1    0    0    0  501 -0.00000000000E+00 -0.00000000000E+00 -0.10097845592E+02  0.10097845592E+02  0.00000000000E+00 0.  1.
         35    2    1    2    0    0  0.00000000000E+00  0.71054273576E-14  0.19684629913E+04  0.19886586825E+04  0.28269560891E+03 0.  0.
         25    2    3    3    0    0 -0.52290634381E+02  0.36512944226E+02  0.87442894631E+03  0.88567350010E+03  0.12539561833E+03 0.  0.
         25    2    3    3    0    0  0.52290634381E+02 -0.36512944226E+02  0.10940340450E+04  0.11029851824E+04  0.12489321605E+03 0.  0.
          5    1    4    4  502    0  0.63613911308E+01  0.54193660828E+02  0.66940728571E+03  0.67164397141E+03  0.47000000000E+01 0.  1.
         -5    1    4    4    0  502 -0.58652025512E+02 -0.17680716602E+02  0.20502166060E+03  0.21402952869E+03  0.47000000000E+01 0.  1.
          5    1    5    5  503    0 -0.39149042000E+02 -0.54005843617E+01  0.44651221424E+03  0.44828234548E+03  0.47000000000E+01 0. -1.
         -5    1    5    5    0  503  0.91439676381E+02 -0.31112359864E+02  0.64752183072E+03  0.65470283688E+03  0.47000000000E+01 0. -1.
<mgrwt>
<rscale>  0 0.28269561E+03</rscale>
<asrwt>0</asrwt>
<pdfrwt beam="1">  1        1 0.30439367E+00 0.28269561E+03</pdfrwt>
<pdfrwt beam="2">  1       -1 0.15535163E-02 0.28269561E+03</pdfrwt>
<totfact> 0.34546836E+03</totfact>
</mgrwt>
</event>
<event>
 9    1  0.7816570E-001  0.2779572E+03  0.7818608E-02  0.1096810E+00
          3   -1    0    0  501    0  0.00000000000E+00  0.00000000000E+00  0.10236758145E+03  0.10236758145E+03  0.00000000000E+00 0. -1.
         -3   -1    0    0    0  501 -0.00000000000E+00 -0.00000000000E+00 -0.18868330471E+03  0.18868330471E+03  0.00000000000E+00 0. -1.
         35    2    1    2    0    0 -0.71054273576E-14 -0.35527136788E-14 -0.86315723264E+02  0.29105088616E+03  0.27795721658E+03 0.  0.
         25    2    3    3    0    0  0.61413248355E+02 -0.86040143498E+01 -0.52240984637E+02  0.14910051672E+03  0.12512484755E+03 0.  0.
         25    2    3    3    0    0 -0.61413248355E+02  0.86040143498E+01 -0.34074738627E+02  0.14195036943E+03  0.12305772399E+03 0.  0.
          5    1    4    4  502    0 -0.36351817241E+02  0.10892278119E+02 -0.24868874100E+02  0.45614112272E+02  0.47000000000E+01 0. -1.
         -5    1    4    4    0  502  0.97765065596E+02 -0.19496292469E+02 -0.27372110538E+02  0.10348640445E+03  0.47000000000E+01 0. -1.
          5    1    5    5  503    0  0.10785202964E+02 -0.15914578728E+02  0.34187205958E+02  0.39502524859E+02  0.47000000000E+01 0. -1.
         -5    1    5    5    0  503 -0.72198451319E+02  0.24518593077E+02 -0.68261944584E+02  0.10244784457E+03  0.47000000000E+01 0. -1.
<mgrwt>
<rscale>  0 0.27795722E+03</rscale>
<asrwt>0</asrwt>
<pdfrwt beam="1">  1        3 0.15748859E-01 0.27795722E+03</pdfrwt>
<pdfrwt beam="2">  1       -3 0.29028200E-01 0.27795722E+03</pdfrwt>
<totfact> 0.99157764E+02</totfact>
</mgrwt>
</event>
<event>
 9    1  0.7816570E-001  0.2757823E+03  0.7818608E-02  0.1098015E+00
          2   -1    0    0  501    0  0.00000000000E+00  0.00000000000E+00  0.20486494340E+03  0.20486494340E+03  0.00000000000E+00 0.  1.
         -2   -1    0    0    0  501 -0.00000000000E+00 -0.00000000000E+00 -0.92812197752E+02  0.92812197752E+02  0.00000000000E+00 0.  1.
         35    2    1    2    0    0  0.00000000000E+00 -0.17763568394E-14  0.11205274565E+03  0.29767714115E+03  0.27578227383E+03 0.  0.
         25    2    3    3    0    0  0.57285631149E+02  0.36082311086E+01  0.65422365162E+02  0.15253154710E+03  0.12526421728E+03 0.  0.
         25    2    3    3    0    0 -0.57285631149E+02 -0.36082311086E+01  0.46630380488E+02  0.14514559405E+03  0.12489270684E+03 0.  0.
          5    1    4    4  502    0 -0.12878324259E+02 -0.33562489050E+02 -0.15167831440E+02  0.39299427700E+02  0.47000000000E+01 0. -1.
         -5    1    4    4    0  502  0.70163955408E+02  0.37170720159E+02  0.80590196602E+02  0.11323211940E+03  0.47000000000E+01 0. -1.
          5    1    5    5  503    0  0.20753980048E+02 -0.17681702683E+02  0.58607903613E+02  0.64810081496E+02  0.47000000000E+01 0.  1.
         -5    1    5    5    0  503 -0.78039611196E+02  0.14073471575E+02 -0.11977523125E+02  0.80335512558E+02  0.47000000000E+01 0.  1.
<mgrwt>
<rscale>  0 0.27578227E+03</rscale>
<asrwt>0</asrwt>
<pdfrwt beam="1">  1        2 0.31517683E-01 0.27578227E+03</pdfrwt>
<pdfrwt beam="2">  1       -2 0.14278800E-01 0.27578227E+03</pdfrwt>
<totfact> 0.61233934E+03</totfact>
</mgrwt>
</event>
<event>
 9    1  0.7816570E-001  0.2697276E+03  0.7818608E-02  0.1101436E+00
          1   -1    0    0  501    0  0.00000000000E+00  0.00000000000E+00  0.68699903493E+02  0.68699903493E+02  0.00000000000E+00 0.  1.
         -1   -1    0    0    0  501 -0.00000000000E+00 -0.00000000000E+00 -0.26474924793E+03  0.26474924793E+03  0.00000000000E+00 0.  1.
         35    2    1    2    0    0  0.00000000000E+00  0.71054273576E-14 -0.19604934443E+03  0.33344915142E+03  0.26972762396E+03 0.  0.
         25    2    3    3    0    0 -0.42150169857E+02  0.28908257187E+02 -0.10607922522E+03  0.17189031712E+03  0.12522441832E+03 0.  0.
         25    2    3    3    0    0  0.42150169857E+02 -0.28908257187E+02 -0.89970119211E+02  0.16155883430E+03  0.12407381043E+03 0.  0.
          5    1    4    4  502    0  0.37288151238E+02 -0.18538687775E+02 -0.25160211093E+02  0.48879600954E+02  0.47000000000E+01 0. -1.
         -5    1    4    4    0  502 -0.79438321095E+02  0.47446944962E+02 -0.80919014128E+02  0.12301071617E+03  0.47000000000E+01 0. -1.
          5    1    5    5  503    0  0.51870892895E+02 -0.34454704260E+02 -0.11661274336E+03  0.13228128397E+03  0.47000000000E+01 0. -1.
         -5    1    5    5    0  503 -0.97207230383E+01  0.55464470731E+01  0.26642624148E+02  0.29277550325E+02  0.47000000000E+01 0. -1.
<mgrwt>
<rscale>  0 0.26972762E+03</rscale>
<asrwt>0</asrwt>
<pdfrwt beam="1">  1        1 0.10569216E-01 0.26972762E+03</pdfrwt>
<pdfrwt beam="2">  1       -1 0.40730654E-01 0.26972762E+03</pdfrwt>
<totfact> 0.35384510E+03</totfact>
</mgrwt>
</event>
<event>
 9    1  0.7816570E-001  0.2758758E+03  0.7818608E-02  0.1097963E+00
         -2   -1    0    0    0  501 -0.00000000000E+00  0.00000000000E+00  0.27025487671E+03  0.27025487671E+03  0.00000000000E+00 0. -1.
          2   -1    0    0  501    0  0.00000000000E+00 -0.00000000000E+00 -0.70403391822E+02  0.70403391822E+02  0.00000000000E+00 0. -1.
         35    2    1    2    0    0 -0.71054273576E-14  0.71054273576E-14  0.19985148489E+03  0.34065826853E+03  0.27587576898E+03 0.  0.
         25    2    3    3    0    0 -0.83717001277E+01 -0.15084317681E+02  0.15572550985E+03  0.20163806538E+03  0.12692459569E+03 0.  0.
         25    2    3    3    0    0  0.83717001277E+01  0.15084317681E+02  0.44125975037E+02  0.13902020315E+03  0.13069771692E+03 0.  0.
          5    1    4    4  502    0 -0.25868700827E+02  0.45618417906E+02  0.11458322286E+03  0.12610168395E+03  0.47000000000E+01 0.  1.
         -5    1    4    4    0  502  0.17497000699E+02 -0.60702735587E+02  0.41142286993E+02  0.75536381435E+02  0.47000000000E+01 0.  1.
          5    1    5    5  503    0  0.50561840856E+02  0.37989837365E+02 -0.12496157916E+02  0.64637229647E+02  0.47000000000E+01 0.  1.
         -5    1    5    5    0  503 -0.42190140728E+02 -0.22905519684E+02  0.56622132953E+02  0.74382973500E+02  0.47000000000E+01 0.  1.
<mgrwt>
<rscale>  0 0.27587577E+03</rscale>
<asrwt>0</asrwt>
<pdfrwt beam="1">  1        2 0.10831291E-01 0.27587577E+03</pdfrwt>
<pdfrwt beam="2">  1       -2 0.41577673E-01 0.27587577E+03</pdfrwt>
<totfact> 0.31932777E+03</totfact>
</mgrwt>
</event>
<event>
 9    1  0.7816570E-001  0.2793894E+03  0.7818608E-02  0.1096023E+00
         -1   -1    0    0    0  501 -0.00000000000E+00  0.00000000000E+00  0.22586517414E+02  0.22586517414E+02  0.00000000000E+00 0. -1.
          1   -1    0    0  501    0  0.00000000000E+00 -0.00000000000E+00 -0.86399370328E+03  0.86399370328E+03  0.00000000000E+00 0. -1.
         35    2    1    2    0    0 -0.35527136788E-14  0.14210854715E-13 -0.84140718587E+03  0.88658022069E+03  0.27938939725E+03 0.  0.
         25    2    3    3    0    0 -0.37205258304E+00  0.30279780837E+02 -0.59274023672E+03  0.60662497812E+03  0.12544270525E+03 0.  0.
         25    2    3    3    0    0  0.37205258304E+00 -0.30279780837E+02 -0.24866694915E+03  0.27995524257E+03  0.12499073044E+03 0.  0.
          5    1    4    4  502    0  0.19558208787E+02  0.76172698037E+02 -0.35855854522E+03  0.36711186825E+03  0.47000000000E+01 0.  1.
         -5    1    4    4    0  502 -0.19930261370E+02 -0.45892917200E+02 -0.23418169150E+03  0.23951310987E+03  0.47000000000E+01 0.  1.
          5    1    5    5  503    0  0.61571617790E+02 -0.24748311297E+02 -0.11732419112E+03  0.13487252815E+03  0.47000000000E+01 0.  1.
         -5    1    5    5    0  503 -0.61199565207E+02 -0.55314695403E+01 -0.13134275803E+03  0.14508271442E+03  0.47000000000E+01 0.  1.
<mgrwt>
<rscale>  0 0.27938940E+03</rscale>
<asrwt>0</asrwt>
<pdfrwt beam="1">  1        1 0.13292211E+00 0.27938940E+03</pdfrwt>
<pdfrwt beam="2">  1       -1 0.34748489E-02 0.27938940E+03</pdfrwt>
<totfact> 0.61835622E+03</totfact>
</mgrwt>
</event>
<event>
 9    1  0.7816570E-001  0.2713314E+03  0.7818608E-02  0.1100520E+00
          1   -1    0    0  501    0  0.00000000000E+00  0.00000000000E+00  0.29857354543E+02  0.29857354543E+02  0.00000000000E+00 0.  1.
         -1   -1    0    0    0  501 -0.00000000000E+00 -0.00000000000E+00 -0.61643727967E+03  0.61643727967E+03  0.00000000000E+00 0.  1.
         35    2    1    2    0    0 -0.35527136788E-14 -0.71054273576E-14 -0.58657992512E+03  0.64629463421E+03  0.27133143137E+03 0.  0.
         25    2    3    3    0    0  0.73548306620E+01  0.52020974687E+02 -0.30341790849E+03  0.33203594550E+03  0.12419809406E+03 0.  0.
         25    2    3    3    0    0 -0.73548306620E+01 -0.52020974687E+02 -0.28316201663E+03  0.31425868871E+03  0.12576772410E+03 0.  0.
          5    1    4    4  502    0  0.22297607812E+02  0.61656224134E+01 -0.27469129942E+03  0.27570382331E+03  0.47000000000E+01 0. -1.
         -5    1    4    4    0  502 -0.14942777150E+02  0.45855352274E+02 -0.28726609074E+02  0.56332122186E+02  0.47000000000E+01 0. -1.
          5    1    5    5  503    0 -0.62125138745E+02 -0.40664793477E+02 -0.11493106064E+03  0.13691017855E+03  0.47000000000E+01 0. -1.
         -5    1    5    5    0  503  0.54770308083E+02 -0.11356181210E+02 -0.16823095600E+03  0.17734851016E+03  0.47000000000E+01 0. -1.
<mgrwt>
<rscale>  0 0.27133143E+03</rscale>
<asrwt>0</asrwt>
<pdfrwt beam="1">  1        1 0.45934390E-02 0.27133143E+03</pdfrwt>
<pdfrwt beam="2">  1       -1 0.94836507E-01 0.27133143E+03</pdfrwt>
<totfact> 0.21203513E+03</totfact>
</mgrwt>
</event>
<event>
 9    1  0.7816570E-001  0.2879723E+03  0.7818608E-02  0.1091413E+00
          1   -1    0    0  501    0  0.00000000000E+00  0.00000000000E+00  0.68124499465E+03  0.68124499465E+03  0.00000000000E+00 0.  1.
         -1   -1    0    0    0  501 -0.00000000000E+00 -0.00000000000E+00 -0.30432531239E+02  0.30432531239E+02  0.00000000000E+00 0.  1.
         35    2    1    2    0    0  0.00000000000E+00  0.00000000000E+00  0.65081246341E+03  0.71167752589E+03  0.28797228742E+03 0.  0.
         25    2    3    3    0    0 -0.26986843396E+02  0.22610433182E+02  0.48070529039E+03  0.49799952571E+03  0.12524547893E+03 0.  0.
         25    2    3    3    0    0  0.26986843396E+02 -0.22610433182E+02  0.17010717302E+03  0.21367800018E+03  0.12442795523E+03 0.  0.
          5    1    4    4  502    0  0.23136404304E+02 -0.18781350001E+02  0.35612885135E+03  0.35740436633E+03  0.47000000000E+01 0. -1.
         -5    1    4    4    0  502 -0.50123247700E+02  0.41391783183E+02  0.12457643904E+03  0.14059515937E+03  0.47000000000E+01 0. -1.
          5    1    5    5  503    0  0.16270833557E+02 -0.58334623604E+02  0.28372626305E+02  0.67043003058E+02  0.47000000000E+01 0. -1.
         -5    1    5    5    0  503  0.10716009839E+02  0.35724190422E+02  0.14173454672E+03  0.14663499712E+03  0.47000000000E+01 0. -1.
<mgrwt>
<rscale>  0 0.28797229E+03</rscale>
<asrwt>0</asrwt>
<pdfrwt beam="1">  1        1 0.10480691E+00 0.28797229E+03</pdfrwt>
<pdfrwt beam="2">  1       -1 0.46819284E-02 0.28797229E+03</pdfrwt>
<totfact> 0.56920222E+03</totfact>
</mgrwt>
</event>
<event>
 9    1  0.7816570E-001  0.2738596E+03  0.7818608E-02  0.1099091E+00
          2   -1    0    0  501    0  0.00000000000E+00  0.00000000000E+00  0.21603374820E+04  0.21603374820E+04  0.00000000000E+00 0. -1.
         -2   -1    0    0    0  501 -0.00000000000E+00 -0.00000000000E+00 -0.86790929600E+01  0.86790929600E+01  0.00000000000E+00 0. -1.
         35    2    1    2    0    0  0.00000000000E+00 -0.35527136788E-14  0.21516583890E+04  0.21690165749E+04  0.27385959783E+03 0.  0.
         25    2    3    3    0    0  0.46515100789E+02 -0.26308701986E+02  0.11675523626E+04  0.11754483074E+04  0.12507758212E+03 0.  0.
         25    2    3    3    0    0 -0.46515100789E+02  0.26308701986E+02  0.98410602636E+03  0.99356826749E+03  0.12592628252E+03 0.  0.
          5    1    4    4  502    0  0.82093459381E+02 -0.79125151750E+01  0.98680876277E+03  0.99026035377E+03  0.47000000000E+01 0.  1.
         -5    1    4    4    0  502 -0.35578358592E+02 -0.18396186811E+02  0.18074359987E+03  0.18518795367E+03  0.47000000000E+01 0.  1.
          5    1    5    5  503    0 -0.19431002090E+02  0.70160244383E+02  0.35984765881E+03  0.36716815124E+03  0.47000000000E+01 0. -1.
         -5    1    5    5    0  503 -0.27084098699E+02 -0.43851542397E+02  0.62425836756E+03  0.62640011625E+03  0.47000000000E+01 0. -1.
<mgrwt>
<rscale>  0 0.27385960E+03</rscale>
<asrwt>0</asrwt>
<pdfrwt beam="1">  1        2 0.33235919E+00 0.27385960E+03</pdfrwt>
<pdfrwt beam="2">  1       -2 0.13352468E-02 0.27385960E+03</pdfrwt>
<totfact> 0.85496140E+03</totfact>
</mgrwt>
</event>
<event>
 9    1  0.7816570E-001  0.2762010E+03  0.7818608E-02  0.1097782E+00
         -1   -1    0    0    0  501 -0.00000000000E+00  0.00000000000E+00  0.53456054190E+02  0.53456054190E+02  0.00000000000E+00 0.  1.
          1   -1    0    0  501    0  0.00000000000E+00 -0.00000000000E+00 -0.35677427773E+03  0.35677427773E+03  0.00000000000E+00 0.  1.
         35    2    1    2    0    0 -0.71054273576E-14  0.00000000000E+00 -0.30331822354E+03  0.41023033192E+03  0.27620097845E+03 0.  0.
         25    2    3    3    0    0  0.29780875620E+02 -0.69079055449E+01 -0.22478152450E+03  0.25903378421E+03  0.12504858215E+03 0.  0.
         25    2    3    3    0    0 -0.29780875620E+02  0.69079055449E+01 -0.78536699046E+02  0.15119654771E+03  0.12552992962E+03 0.  0.
          5    1    4    4  502    0  0.60289304768E+02 -0.42401045590E+02 -0.17790208015E+03  0.19262369807E+03  0.47000000000E+01 0. -1.
         -5    1    4    4    0  502 -0.30508429148E+02  0.35493140045E+02 -0.46879444341E+02  0.66410086139E+02  0.47000000000E+01 0. -1.
          5    1    5    5  503    0  0.21144989656E+02  0.40128606922E+02 -0.77832616226E+02  0.90207659485E+02  0.47000000000E+01 0. -1.
         -5    1    5    5    0  503 -0.50925865276E+02 -0.33220701377E+02 -0.70408281984E+00  0.60988888224E+02  0.47000000000E+01 0. -1.
<mgrwt>
<rscale>  0 0.27620098E+03</rscale>
<asrwt>0</asrwt>
<pdfrwt beam="1">  1        1 0.54888348E-01 0.27620098E+03</pdfrwt>
<pdfrwt beam="2">  1       -1 0.82240087E-02 0.27620098E+03</pdfrwt>
<totfact> 0.57599395E+03</totfact>
</mgrwt>
</event>
<event>
 9    1  0.7816570E-001  0.2729427E+03  0.7818608E-02  0.1099607E+00
          1   -1    0    0  501    0  0.00000000000E+00  0.00000000000E+00  0.43540372123E+03  0.43540372123E+03  0.00000000000E+00 0.  1.
         -1   -1    0    0    0  501 -0.00000000000E+00 -0.00000000000E+00 -0.42775075468E+02  0.42775075468E+02  0.00000000000E+00 0.  1.
         35    2    1    2    0    0  0.00000000000E+00  0.35527136788E-14  0.39262864577E+03  0.47817879670E+03  0.27294268288E+03 0.  0.
         25    2    3    3    0    0 -0.40138882998E+02  0.75989608021E+01  0.13012812562E+03  0.18487428156E+03  0.12480503504E+03 0.  0.
         25    2    3    3    0    0  0.40138882998E+02 -0.75989608021E+01  0.26250052015E+03  0.29330451515E+03  0.12430664259E+03 0.  0.
          5    1    4    4  502    0 -0.32681644774E+02 -0.22736823447E+02  0.14465240036E+03  0.15010482995E+03  0.47000000000E+01 0.  1.
         -5    1    4    4    0  502 -0.74572382240E+01  0.30335784249E+02 -0.14524274744E+02  0.34769451603E+02  0.47000000000E+01 0.  1.
          5    1    5    5  503    0  0.16621579612E+02 -0.38365044581E+02  0.24822480037E+03  0.25176535718E+03  0.47000000000E+01 0.  1.
         -5    1    5    5    0  503  0.23517303386E+02  0.30766083779E+02  0.14275719778E+02  0.41539157969E+02  0.47000000000E+01 0.  1.
<mgrwt>
<rscale>  0 0.27294268E+03</rscale>
<asrwt>0</asrwt>
<pdfrwt beam="1">  1        1 0.66985185E-01 0.27294268E+03</pdfrwt>
<pdfrwt beam="2">  1       -1 0.65807811E-02 0.27294268E+03</pdfrwt>
<totfact> 0.62616395E+03</totfact>
</mgrwt>
</event>
<event>
 9    1  0.7816570E-001  0.2752101E+03  0.7818608E-02  0.1098334E+00
          1   -1    0    0  501    0  0.00000000000E+00  0.00000000000E+00  0.13599305969E+04  0.13599305969E+04  0.00000000000E+00 0.  1.
         -1   -1    0    0    0  501 -0.00000000000E+00 -0.00000000000E+00 -0.13923613913E+02  0.13923613913E+02  0.00000000000E+00 0.  1.
         35    2    1    2    0    0  0.00000000000E+00 -0.35527136788E-14  0.13460069830E+04  0.13738542108E+04  0.27521009124E+03 0.  0.
         25    2    3    3    0    0 -0.17657591914E+02  0.14896473193E+02  0.93278049781E+03  0.94121425197E+03  0.12357635515E+03 0.  0.
         25    2    3    3    0    0  0.17657591914E+02 -0.14896473193E+02  0.41322648521E+03  0.43263995888E+03  0.12604566820E+03 0.  0.
          5    1    4    4  502    0 -0.51983690450E+02  0.35799085348E+02  0.27496712077E+03  0.28215755544E+03  0.47000000000E+01 0.  1.
         -5    1    4    4    0  502  0.34326098536E+02 -0.20902612156E+02  0.65781337704E+03  0.65905669653E+03  0.47000000000E+01 0.  1.
          5    1    5    5  503    0  0.60904500123E+02  0.27073336879E+02  0.19150810401E+03  0.20282940518E+03  0.47000000000E+01 0.  1.
         -5    1    5    5    0  503 -0.43246908210E+02 -0.41969810072E+02  0.22171838120E+03  0.22981055369E+03  0.47000000000E+01 0.  1.
<mgrwt>
<rscale>  0 0.27521009E+03</rscale>
<asrwt>0</asrwt>
<pdfrwt beam="1">  1        1 0.20921999E+00 0.27521009E+03</pdfrwt>
<pdfrwt beam="2">  1       -1 0.21420955E-02 0.27521009E+03</pdfrwt>
<totfact> 0.55074451E+03</totfact>
</mgrwt>
</event>
<event>
 9    1  0.7816570E-001  0.2735695E+03  0.7818608E-02  0.1099254E+00
          2   -1    0    0  501    0  0.00000000000E+00  0.00000000000E+00  0.16181249742E+02  0.16181249742E+02  0.00000000000E+00 0. -1.
         -2   -1    0    0    0  501 -0.00000000000E+00 -0.00000000000E+00 -0.11562807023E+04  0.11562807023E+04  0.00000000000E+00 0. -1.
         35    2    1    2    0    0  0.00000000000E+00  0.35527136788E-14 -0.11400994526E+04  0.11724619521E+04  0.27356949257E+03 0.  0.
         25    2    3    3    0    0  0.44476990063E+02  0.23184636969E+02 -0.47083245192E+03  0.48981938009E+03  0.12539576266E+03 0.  0.
         25    2    3    3    0    0 -0.44476990063E+02 -0.23184636969E+02 -0.66926700065E+03  0.68264257197E+03  0.12476711451E+03 0.  0.
          5    1    4    4  502    0 -0.13738424175E+02  0.30355058761E+01 -0.37809706882E+03  0.37838795177E+03  0.47000000000E+01 0. -1.
         -5    1    4    4    0  502  0.58215414239E+02  0.20149131092E+02 -0.92735383105E+02  0.11143142832E+03  0.47000000000E+01 0. -1.
          5    1    5    5  503    0  0.64435924219E+01  0.44521891381E+02 -0.15657752455E+03  0.16297953826E+03  0.47000000000E+01 0.  1.
         -5    1    5    5    0  503 -0.50920582485E+02 -0.67706528350E+02 -0.51268947610E+03  0.51966303371E+03  0.47000000000E+01 0.  1.
<mgrwt>
<rscale>  0 0.27356949E+03</rscale>
<asrwt>0</asrwt>
<pdfrwt beam="1">  1        2 0.24894231E-02 0.27356949E+03</pdfrwt>
<pdfrwt beam="2">  1       -2 0.17788933E+00 0.27356949E+03</pdfrwt>
<totfact> 0.81369082E+02</totfact>
</mgrwt>
</event>
<event>
 9    1  0.7816570E-001  0.2828862E+03  0.7818608E-02  0.1094123E+00
          2   -1    0    0  501    0  0.00000000000E+00  0.00000000000E+00  0.14341498699E+04  0.14341498699E+04  0.00000000000E+00 0. -1.
         -2   -1    0    0    0  501 -0.00000000000E+00 -0.00000000000E+00 -0.13949830183E+02  0.13949830183E+02  0.00000000000E+00 0. -1.
         35    2    1    2    0    0  0.00000000000E+00  0.71054273576E-14  0.14202000397E+04  0.14480997001E+04  0.28288617600E+03 0.  0.
         25    2    3    3    0    0 -0.71885198827E+01  0.16793598567E+02  0.10303342594E+04  0.10382274918E+04  0.12646714575E+03 0.  0.
         25    2    3    3    0    0  0.71885198827E+01 -0.16793598567E+02  0.38986578037E+03  0.40987220829E+03  0.12516469413E+03 0.  0.
          5    1    4    4  502    0 -0.33281794351E+02 -0.44962709457E+02  0.33701585939E+03  0.34165933699E+03  0.47000000000E+01 0.  1.
         -5    1    4    4    0  502  0.26093274468E+02  0.61756308024E+02  0.69331839999E+03  0.69656815482E+03  0.47000000000E+01 0.  1.
          5    1    5    5  503    0  0.38582980592E+02  0.38202046755E+02  0.10835663898E+03  0.12129012317E+03  0.47000000000E+01 0. -1.
         -5    1    5    5    0  503 -0.31394460709E+02 -0.54995645322E+02  0.28150914139E+03  0.28858208512E+03  0.47000000000E+01 0. -1.
<mgrwt>
<rscale>  0 0.28288618E+03</rscale>
<asrwt>0</asrwt>
<pdfrwt beam="1">  1        2 0.22063832E+00 0.28288618E+03</pdfrwt>
<pdfrwt beam="2">  1       -2 0.21461289E-02 0.28288618E+03</pdfrwt>
<totfact> 0.10321270E+04</totfact>
</mgrwt>
</event>
<event>
 9    1  0.7816570E-001  0.2736380E+03  0.7818608E-02  0.1099215E+00
         -2   -1    0    0    0  501 -0.00000000000E+00  0.00000000000E+00  0.34990567037E+02  0.34990567037E+02  0.00000000000E+00 0.  1.
          2   -1    0    0  501    0  0.00000000000E+00 -0.00000000000E+00 -0.53498523783E+03  0.53498523783E+03  0.00000000000E+00 0.  1.
         35    2    1    2    0    0  0.00000000000E+00  0.17763568394E-14 -0.49999467079E+03  0.56997580487E+03  0.27363798587E+03 0.  0.
         25    2    3    3    0    0 -0.31004515335E+00 -0.49302965712E+01 -0.36101476326E+03  0.38304324056E+03  0.12792990616E+03 0.  0.
         25    2    3    3    0    0  0.31004515335E+00  0.49302965712E+01 -0.13897990753E+03  0.18693256431E+03  0.12491583146E+03 0.  0.
          5    1    4    4  502    0 -0.59019643790E+02 -0.84638215916E+01 -0.11022104491E+03  0.12540224627E+03  0.47000000000E+01 0.  1.
         -5    1    4    4    0  502  0.58709598636E+02  0.35335250204E+01 -0.25079371835E+03  0.25764099429E+03  0.47000000000E+01 0.  1.
          5    1    5    5  503    0 -0.42813011811E+02 -0.93248120928E+01 -0.37794398703E+01  0.44229857186E+02  0.47000000000E+01 0.  1.
         -5    1    5    5    0  503  0.43123056965E+02  0.14255108664E+02 -0.13520046766E+03  0.14270270713E+03  0.47000000000E+01 0.  1.
<mgrwt>
<rscale>  0 0.27363799E+03</rscale>
<asrwt>0</asrwt>
<pdfrwt beam="1">  1        2 0.82305414E-01 0.27363799E+03</pdfrwt>
<pdfrwt beam="2">  1       -2 0.53831647E-02 0.27363799E+03</pdfrwt>
<totfact> 0.10022127E+04</totfact>
</mgrwt>
</event>
<event>
 9    1  0.7816570E-001  0.2908713E+03  0.7818608E-02  0.1089895E+00
          2   -1    0    0  501    0  0.00000000000E+00  0.00000000000E+00  0.24801196572E+03  0.24801196572E+03  0.00000000000E+00 0.  1.
         -2   -1    0    0    0  501 -0.00000000000E+00 -0.00000000000E+00 -0.85284304371E+02  0.85284304371E+02  0.00000000000E+00 0.  1.
         35    2    1    2    0    0 -0.71054273576E-14  0.00000000000E+00  0.16272766135E+03  0.33329627009E+03  0.29087129780E+03 0.  0.
         25    2    3    3    0    0  0.36712307028E+02  0.51943376733E+02  0.12014813415E+03  0.18417387925E+03  0.12425190455E+03 0.  0.
         25    2    3    3    0    0 -0.36712307028E+02 -0.51943376733E+02  0.42579527191E+02  0.14912239083E+03  0.12797876167E+03 0.  0.
          5    1    4    4  502    0  0.56371359100E+02  0.54896176867E+02  0.19133047672E+02  0.81114017745E+02  0.47000000000E+01 0. -1.
         -5    1    4    4    0  502 -0.19659052073E+02 -0.29528001341E+01  0.10101508648E+03  0.10305986151E+03  0.47000000000E+01 0. -1.
          5    1    5    5  503    0 -0.50682840978E+02 -0.83258175657E+02  0.55400020775E+02  0.11221375355E+03  0.47000000000E+01 0. -1.
         -5    1    5    5    0  503  0.13970533951E+02  0.31314798925E+02 -0.12820493584E+02  0.36908637286E+02  0.47000000000E+01 0. -1.
<mgrwt>
<rscale>  0 0.29087130E+03</rscale>
<asrwt>0</asrwt>
<pdfrwt beam="1">  1        2 0.38155687E-01 0.29087130E+03</pdfrwt>
<pdfrwt beam="2">  1       -2 0.13120662E-01 0.29087130E+03</pdfrwt>
<totfact> 0.57230868E+03</totfact>
</mgrwt>
</event>
<event>
 9    1  0.7816570E-001  0.2714832E+03  0.7818608E-02  0.1100434E+00
         -2   -1    0    0    0  501 -0.00000000000E+00  0.00000000000E+00  0.76457332704E+02  0.76457332704E+02  0.00000000000E+00 0.  1.
          2   -1    0    0  501    0  0.00000000000E+00 -0.00000000000E+00 -0.24099428229E+03  0.24099428229E+03  0.00000000000E+00 0.  1.
         35    2    1    2    0    0  0.00000000000E+00  0.00000000000E+00 -0.16453694959E+03  0.31745161500E+03  0.27148318564E+03 0.  0.
         25    2    3    3    0    0 -0.10600066611E+02 -0.51222707768E+02 -0.94169964221E+02  0.16459300053E+03  0.12444575710E+03 0.  0.
         25    2    3    3    0    0  0.10600066611E+02  0.51222707768E+02 -0.70366985369E+02  0.15285861447E+03  0.12521228448E+03 0.  0.
          5    1    4    4  502    0  0.43211024723E+02 -0.51530948786E+02 -0.15516573387E+02  0.69177202820E+02  0.47000000000E+01 0.  1.
         -5    1    4    4    0  502 -0.53811091334E+02  0.30824101813E+00 -0.78653390834E+02  0.95415797711E+02  0.47000000000E+01 0.  1.
          5    1    5    5  503    0  0.52901162888E+02 -0.11690708803E+02 -0.88115002567E+01  0.55090273588E+02  0.47000000000E+01 0. -1.
         -5    1    5    5    0  503 -0.42301096276E+02  0.62913416571E+02 -0.61555485112E+02  0.97768340879E+02  0.47000000000E+01 0. -1.
<mgrwt>
<rscale>  0 0.27148319E+03</rscale>
<asrwt>0</asrwt>
<pdfrwt beam="1">  1        2 0.37076043E-01 0.27148319E+03</pdfrwt>
<pdfrwt beam="2">  1       -2 0.11762667E-01 0.27148319E+03</pdfrwt>
<totfact> 0.70308171E+03</totfact>
</mgrwt>
</event>
<event>
 9    1  0.7816570E-001  0.2763295E+03  0.7818608E-02  0.1097711E+00
          1   -1    0    0  501    0  0.00000000000E+00  0.00000000000E+00  0.81574662791E+02  0.81574662791E+02  0.00000000000E+00 0. -1.
         -1   -1    0    0    0  501 -0.00000000000E+00 -0.00000000000E+00 -0.23401257781E+03  0.23401257781E+03  0.00000000000E+00 0. -1.
         35    2    1    2    0    0 -0.35527136788E-14  0.00000000000E+00 -0.15243791502E+03  0.31558724060E+03  0.27632949263E+03 0.  0.
         25    2    3    3    0    0  0.11323359232E+02  0.54763379804E+02 -0.95335217478E+02  0.16693268833E+03  0.12510184854E+03 0.  0.
         25    2    3    3    0    0 -0.11323359232E+02 -0.54763379804E+02 -0.57102697543E+02  0.14865455228E+03  0.12534038301E+03 0.  0.
          5    1    4    4  502    0 -0.49329368230E+02  0.56778549633E+02 -0.43708112878E+02  0.87118766060E+02  0.47000000000E+01 0.  1.
         -5    1    4    4    0  502  0.60652727462E+02 -0.20151698288E+01 -0.51627104600E+02  0.79813922266E+02  0.47000000000E+01 0.  1.
          5    1    5    5  503    0  0.30780267628E+02 -0.77880955973E+02 -0.16273797361E+02  0.85438835777E+02  0.47000000000E+01 0.  1.
         -5    1    5    5    0  503 -0.42103626859E+02  0.23117576168E+02 -0.40828900182E+02  0.63215716500E+02  0.47000000000E+01 0.  1.
<mgrwt>
<rscale>  0 0.27632949E+03</rscale>
<asrwt>0</asrwt>
<pdfrwt beam="1">  1        1 0.12549948E-01 0.27632949E+03</pdfrwt>
<pdfrwt beam="2">  1       -1 0.36001935E-01 0.27632949E+03</pdfrwt>
<totfact> 0.35003007E+03</totfact>
</mgrwt>
</event>
<event>
 9    1  0.7816570E-001  0.2882534E+03  0.7818608E-02  0.1091265E+00
         -3   -1    0    0    0  501 -0.00000000000E+00  0.00000000000E+00  0.94791492846E+03  0.94791492846E+03  0.00000000000E+00 0. -1.
          3   -1    0    0  501    0  0.00000000000E+00 -0.00000000000E+00 -0.21913886181E+02  0.21913886181E+02  0.00000000000E+00 0. -1.
         35    2    1    2    0    0  0.00000000000E+00  0.00000000000E+00  0.92600104228E+03  0.96982881464E+03  0.28825335975E+03 0.  0.
         25    2    3    3    0    0  0.40360583433E+02  0.38393757567E+02  0.61153004541E+03  0.62683128697E+03  0.12587854688E+03 0.  0.
         25    2    3    3    0    0 -0.40360583433E+02 -0.38393757567E+02  0.31447099687E+03  0.34299752767E+03  0.12510890777E+03 0.  0.
          5    1    4    4  502    0  0.58491637440E+02 -0.24577454226E+02  0.40882766586E+03  0.41374807949E+03  0.47000000000E+01 0. -1.
         -5    1    4    4    0  502 -0.18131054007E+02  0.62971211793E+02  0.20270237955E+03  0.21308320748E+03  0.47000000000E+01 0. -1.
          5    1    5    5  503    0  0.96186882693E+01 -0.21905409091E+02  0.27735837872E+03  0.27842795542E+03  0.47000000000E+01 0. -1.
         -5    1    5    5    0  503 -0.49979271703E+02 -0.16488348475E+02  0.37112618142E+02  0.64569572251E+02  0.47000000000E+01 0. -1.
<mgrwt>
<rscale>  0 0.28825336E+03</rscale>
<asrwt>0</asrwt>
<pdfrwt beam="1">  1        3 0.33713678E-02 0.28825336E+03</pdfrwt>
<pdfrwt beam="2">  1       -3 0.14583303E+00 0.28825336E+03</pdfrwt>
<totfact> 0.39663927E+02</totfact>
</mgrwt>
</event>
<event>
 9    1  0.7816570E-001  0.2679540E+03  0.7818608E-02  0.1102456E+00
         -2   -1    0    0    0  501 -0.00000000000E+00  0.00000000000E+00  0.24954398063E+02  0.24954398063E+02  0.00000000000E+00 0.  1.
          2   -1    0    0  501    0  0.00000000000E+00 -0.00000000000E+00 -0.71930559566E+03  0.71930559566E+03  0.00000000000E+00 0.  1.
         35    2    1    2    0    0  0.00000000000E+00  0.14210854715E-13 -0.69435119759E+03  0.74425999372E+03  0.26795401219E+03 0.  0.
         25    2    3    3    0    0 -0.78740149954E+01  0.46285832877E+02 -0.31393628453E+03  0.34102833163E+03  0.12465935100E+03 0.  0.
         25    2    3    3    0    0  0.78740149954E+01 -0.46285832877E+02 -0.38041491307E+03  0.40323166209E+03  0.12520338970E+03 0.  0.
          5    1    4    4  502    0  0.16736817393E+02 -0.21203704344E+02 -0.22473146389E+03  0.22639796598E+03  0.47000000000E+01 0. -1.
         -5    1    4    4    0  502 -0.24610832389E+02  0.67489537221E+02 -0.89204820633E+02  0.11463036565E+03  0.47000000000E+01 0. -1.
          5    1    5    5  503    0  0.21857210630E+02  0.39808876796E+02 -0.15093955882E+03  0.15769376889E+03  0.47000000000E+01 0. -1.
         -5    1    5    5    0  503 -0.13983195634E+02 -0.86094709672E+02 -0.22947535425E+03  0.24553789321E+03  0.47000000000E+01 0. -1.
<mgrwt>
<rscale>  0 0.26795401E+03</rscale>
<asrwt>0</asrwt>
<pdfrwt beam="1">  1        2 0.11066240E+00 0.26795401E+03</pdfrwt>
<pdfrwt beam="2">  1       -2 0.38391380E-02 0.26795401E+03</pdfrwt>
<totfact> 0.11798226E+04</totfact>
</mgrwt>
</event>
<event>
 9    1  0.7816570E-001  0.2742252E+03  0.7818608E-02  0.1098885E+00
         -2   -1    0    0    0  501 -0.00000000000E+00  0.00000000000E+00  0.17687173419E+03  0.17687173419E+03  0.00000000000E+00 0.  1.
          2   -1    0    0  501    0  0.00000000000E+00 -0.00000000000E+00 -0.10629097692E+03  0.10629097692E+03  0.00000000000E+00 0.  1.
         35    2    1    2    0    0 -0.88817841970E-15  0.00000000000E+00  0.70580757265E+02  0.28316271111E+03  0.27422523164E+03 0.  0.
         25    2    3    3    0    0 -0.16691968788E+01 -0.14161684535E+02  0.91475130213E+02  0.15571632874E+03  0.12520597455E+03 0.  0.
         25    2    3    3    0    0  0.16691968788E+01  0.14161684535E+02 -0.20894372948E+02  0.12744638237E+03  0.12491063217E+03 0.  0.
          5    1    4    4  502    0  0.52751096687E+02  0.25237365516E+02  0.42539657697E+02  0.72465959573E+02  0.47000000000E+01 0.  1.
         -5    1    4    4    0  502 -0.54420293566E+02 -0.39399050051E+02  0.48935472516E+02  0.83250369171E+02  0.47000000000E+01 0.  1.
          5    1    5    5  503    0  0.46214722707E+01  0.65795548548E+02 -0.33325546539E+02  0.74047918720E+02  0.47000000000E+01 0.  1.
         -5    1    5    5    0  503 -0.29522753919E+01 -0.51633864013E+02  0.12431173590E+02  0.53398463645E+02  0.47000000000E+01 0.  1.
<mgrwt>
<rscale>  0 0.27422523E+03</rscale>
<asrwt>0</asrwt>
<pdfrwt beam="1">  1        2 0.16352458E-01 0.27422523E+03</pdfrwt>
<pdfrwt beam="2">  1       -2 0.27211036E-01 0.27422523E+03</pdfrwt>
<totfact> 0.42675572E+03</totfact>
</mgrwt>
</event>
<event>
 9    1  0.7816570E-001  0.2750013E+03  0.7818608E-02  0.1098451E+00
         -2   -1    0    0    0  501 -0.00000000000E+00  0.00000000000E+00  0.12260030685E+02  0.12260030685E+02  0.00000000000E+00 0. -1.
          2   -1    0    0  501    0  0.00000000000E+00 -0.00000000000E+00 -0.15421186985E+04  0.15421186985E+04  0.00000000000E+00 0. -1.
         35    2    1    2    0    0  0.17763568394E-14  0.00000000000E+00 -0.15298586678E+04  0.15543787292E+04  0.27500125501E+03 0.  0.
         25    2    3    3    0    0 -0.55756165584E+01 -0.10529337978E+02 -0.45582266646E+03  0.47294831392E+03  0.12555417127E+03 0.  0.
         25    2    3    3    0    0  0.55756165584E+01  0.10529337978E+02 -0.10740360014E+04  0.10814304153E+04  0.12568395440E+03 0.  0.
          5    1    4    4  502    0 -0.80132236189E+01  0.54724638205E+02 -0.14401700155E+03  0.15434372198E+03  0.47000000000E+01 0.  1.
         -5    1    4    4    0  502  0.24376070605E+01 -0.65253976183E+02 -0.31180566491E+03  0.31860459194E+03  0.47000000000E+01 0.  1.
          5    1    5    5  503    0  0.34578783921E+02 -0.44329830358E+02 -0.69833142994E+03  0.70060666725E+03  0.47000000000E+01 0. -1.
         -5    1    5    5    0  503 -0.29003167362E+02  0.54859168335E+02 -0.37570457144E+03  0.38082374804E+03  0.47000000000E+01 0. -1.
<mgrwt>
<rscale>  0 0.27500126E+03</rscale>
<asrwt>0</asrwt>
<pdfrwt beam="1">  1        2 0.23724895E+00 0.27500126E+03</pdfrwt>
<pdfrwt beam="2">  1       -2 0.18861592E-02 0.27500126E+03</pdfrwt>
<totfact> 0.10917273E+04</totfact>
</mgrwt>
</event>
<event>
 9    1  0.7816570E-001  0.2742015E+03  0.7818608E-02  0.1098899E+00
         -2   -1    0    0    0  501 -0.00000000000E+00  0.00000000000E+00  0.14815480774E+02  0.14815480774E+02  0.00000000000E+00 0. -1.
          2   -1    0    0  501    0  0.00000000000E+00 -0.00000000000E+00 -0.12687149074E+04  0.12687149074E+04  0.00000000000E+00 0. -1.
         35    2    1    2    0    0 -0.71054273576E-14  0.00000000000E+00 -0.12538994267E+04  0.12835303882E+04  0.27420154134E+03 0.  0.
         25    2    3    3    0    0 -0.26089160755E+02 -0.40173221088E+02 -0.47979663765E+03  0.49804779384E+03  0.12470869837E+03 0.  0.
         25    2    3    3    0    0  0.26089160755E+02  0.40173221088E+02 -0.77410278902E+03  0.78548259438E+03  0.12431108598E+03 0.  0.
          5    1    4    4  502    0 -0.64408796918E+02 -0.11968123922E+02 -0.39734135825E+03  0.40273313011E+03  0.47000000000E+01 0.  1.
         -5    1    4    4    0  502  0.38319636163E+02 -0.28205097166E+02 -0.82455279401E+02  0.95314663735E+02  0.47000000000E+01 0.  1.
          5    1    5    5  503    0  0.59984099992E+02 -0.19935158445E+02 -0.40964070603E+03  0.41451550131E+03  0.47000000000E+01 0. -1.
         -5    1    5    5    0  503 -0.33894939237E+02  0.60108379534E+02 -0.36446208300E+03  0.37096709307E+03  0.47000000000E+01 0. -1.
<mgrwt>
<rscale>  0 0.27420154E+03</rscale>
<asrwt>0</asrwt>
<pdfrwt beam="1">  1        2 0.19518695E+00 0.27420154E+03</pdfrwt>
<pdfrwt beam="2">  1       -2 0.22793042E-02 0.27420154E+03</pdfrwt>
<totfact> 0.11630164E+04</totfact>
</mgrwt>
</event>
<event>
 9    1  0.7816570E-001  0.2714331E+03  0.7818608E-02  0.1100462E+00
          4   -1    0    0  501    0  0.00000000000E+00  0.00000000000E+00  0.26470456679E+03  0.26470456679E+03  0.00000000000E+00 0. -1.
         -4   -1    0    0    0  501 -0.00000000000E+00 -0.00000000000E+00 -0.69583143998E+02  0.69583143998E+02  0.00000000000E+00 0. -1.
         35    2    1    2    0    0  0.00000000000E+00 -0.71054273576E-14  0.19512142279E+03  0.33428771078E+03  0.27143305611E+03 0.  0.
         25    2    3    3    0    0  0.81222894929E+01 -0.49283654219E+02  0.74379247800E+02  0.15284509667E+03  0.12383255191E+03 0.  0.
         25    2    3    3    0    0 -0.81222894929E+01  0.49283654219E+02  0.12074217499E+03  0.18144261412E+03  0.12588843965E+03 0.  0.
          5    1    4    4  502    0  0.20904048412E+02 -0.83131077218E+02  0.21325113465E+02  0.88456801342E+02  0.47000000000E+01 0.  1.
         -5    1    4    4    0  502 -0.12781758919E+02  0.33847422998E+02  0.53054134335E+02  0.64388295324E+02  0.47000000000E+01 0.  1.
          5    1    5    5  503    0 -0.57443291682E+02  0.56933901921E+02  0.51646050603E+02  0.96076040146E+02  0.47000000000E+01 0. -1.
         -5    1    5    5    0  503  0.49321002189E+02 -0.76502477013E+01  0.69096124383E+02  0.85366573971E+02  0.47000000000E+01 0. -1.
<mgrwt>
<rscale>  0 0.27143306E+03</rscale>
<asrwt>0</asrwt>
<pdfrwt beam="1">  1        4 0.40723779E-01 0.27143306E+03</pdfrwt>
<pdfrwt beam="2">  1       -4 0.10705099E-01 0.27143306E+03</pdfrwt>
<totfact> 0.74243257E+02</totfact>
</mgrwt>
</event>
<event>
 9    1  0.7816570E-001  0.2779327E+03  0.7818608E-02  0.1096823E+00
          1   -1    0    0  501    0  0.00000000000E+00  0.00000000000E+00  0.18542595125E+03  0.18542595125E+03  0.00000000000E+00 0.  1.
         -1   -1    0    0    0  501 -0.00000000000E+00 -0.00000000000E+00 -0.10414748683E+03  0.10414748683E+03  0.00000000000E+00 0.  1.
         35    2    1    2    0    0  0.00000000000E+00  0.00000000000E+00  0.81278464419E+02  0.28957343809E+03  0.27793270277E+03 0.  0.
         25    2    3    3    0    0 -0.14262190097E+02 -0.89762299030E+01  0.10172763592E+03  0.16238302110E+03  0.12544222121E+03 0.  0.
         25    2    3    3    0    0  0.14262190097E+02  0.89762299030E+01 -0.20449171502E+02  0.12719041699E+03  0.12439956105E+03 0.  0.
          5    1    4    4  502    0  0.33921845216E+02 -0.90034130046E+01  0.10791554570E+03  0.11357644136E+03  0.47000000000E+01 0.  1.
         -5    1    4    4    0  502 -0.48184035314E+02  0.27183101613E-01 -0.61879097798E+01  0.48806579735E+02  0.47000000000E+01 0.  1.
          5    1    5    5  503    0  0.48230622483E+01 -0.24176972075E+01  0.52308158417E+02  0.52795270870E+02  0.47000000000E+01 0.  1.
         -5    1    5    5    0  503  0.94391278490E+01  0.11393927110E+02 -0.72757329919E+02  0.74395146122E+02  0.47000000000E+01 0.  1.
<mgrwt>
<rscale>  0 0.27793270E+03</rscale>
<asrwt>0</asrwt>
<pdfrwt beam="1">  1        1 0.28527069E-01 0.27793270E+03</pdfrwt>
<pdfrwt beam="2">  1       -1 0.16022690E-01 0.27793270E+03</pdfrwt>
<totfact> 0.46413849E+03</totfact>
</mgrwt>
</event>
<event>
 9    1  0.7816570E-001  0.2789109E+03  0.7818608E-02  0.1096285E+00
          2   -1    0    0  501    0  0.00000000000E+00  0.00000000000E+00  0.19981624559E+04  0.19981624559E+04  0.00000000000E+00 0.  1.
         -2   -1    0    0    0  501 -0.00000000000E+00 -0.00000000000E+00 -0.97328548383E+01  0.97328548383E+01  0.00000000000E+00 0.  1.
         35    2    1    2    0    0  0.00000000000E+00 -0.71054273576E-14  0.19884296011E+04  0.20078953107E+04  0.27891091859E+03 0.  0.
         25    2    3    3    0    0 -0.37864789947E+02  0.26854391573E+02  0.12558789629E+04  0.12628697456E+04  0.12431059613E+03 0.  0.
         25    2    3    3    0    0  0.37864789947E+02 -0.26854391573E+02  0.73255063820E+03  0.74502556514E+03  0.12758430361E+03 0.  0.
          5    1    4    4  502    0  0.39441766069E+02  0.80682425035E+01  0.20470924771E+03  0.20868329005E+03  0.47000000000E+01 0.  1.
         -5    1    4    4    0  502 -0.77306556016E+02  0.18786149070E+02  0.10511697152E+04  0.10541864556E+04  0.47000000000E+01 0.  1.
          5    1    5    5  503    0  0.43528993980E+02 -0.75102713291E+02  0.47634652155E+03  0.48421409465E+03  0.47000000000E+01 0. -1.
         -5    1    5    5    0  503 -0.56642040327E+01  0.48248321717E+02  0.25620411664E+03  0.26081147049E+03  0.47000000000E+01 0. -1.
<mgrwt>
<rscale>  0 0.27891092E+03</rscale>
<asrwt>0</asrwt>
<pdfrwt beam="1">  1        2 0.30740928E+00 0.27891092E+03</pdfrwt>
<pdfrwt beam="2">  1       -2 0.14973639E-02 0.27891092E+03</pdfrwt>
<totfact> 0.88088779E+03</totfact>
</mgrwt>
</event>
<event>
 9    1  0.7816570E-001  0.2732575E+03  0.7818608E-02  0.1099430E+00
         -2   -1    0    0    0  501 -0.00000000000E+00  0.00000000000E+00  0.55397652538E+02  0.55397652538E+02  0.00000000000E+00 0. -1.
          2   -1    0    0  501    0  0.00000000000E+00 -0.00000000000E+00 -0.33697120985E+03  0.33697120985E+03  0.00000000000E+00 0. -1.
         35    2    1    2    0    0 -0.35527136788E-14  0.35527136788E-14 -0.28157355732E+03  0.39236886239E+03  0.27325749028E+03 0.  0.
         25    2    3    3    0    0  0.26322923503E+02 -0.59119138522E+01 -0.20722915571E+03  0.24326947498E+03  0.12453219446E+03 0.  0.
         25    2    3    3    0    0 -0.26322923503E+02  0.59119138522E+01 -0.74344401610E+02  0.14909938741E+03  0.12639497715E+03 0.  0.
          5    1    4    4  502    0 -0.24590891971E+02  0.17896453492E+02 -0.24580079483E+01  0.30872752041E+02  0.47000000000E+01 0. -1.
         -5    1    4    4    0  502  0.50913815474E+02 -0.23808367344E+02 -0.20477114776E+03  0.21239672294E+03  0.47000000000E+01 0. -1.
          5    1    5    5  503    0 -0.43098136399E+02  0.49369810838E+02 -0.56214103512E+01  0.65943292590E+02  0.47000000000E+01 0. -1.
         -5    1    5    5    0  503  0.16775212896E+02 -0.43457896986E+02 -0.68722991259E+02  0.83156094820E+02  0.47000000000E+01 0. -1.
<mgrwt>
<rscale>  0 0.27325749E+03</rscale>
<asrwt>0</asrwt>
<pdfrwt beam="1">  1        2 0.51841724E-01 0.27325749E+03</pdfrwt>
<pdfrwt beam="2">  1       -2 0.85227158E-02 0.27325749E+03</pdfrwt>
<totfact> 0.81802952E+03</totfact>
</mgrwt>
</event>
<event>
 9    1  0.7816570E-001  0.2735054E+03  0.7818608E-02  0.1099290E+00
         -1   -1    0    0    0  501 -0.00000000000E+00  0.00000000000E+00  0.12121561814E+02  0.12121561814E+02  0.00000000000E+00 0. -1.
          1   -1    0    0  501    0  0.00000000000E+00 -0.00000000000E+00 -0.15428129498E+04  0.15428129498E+04  0.00000000000E+00 0. -1.
         35    2    1    2    0    0 -0.35527136788E-14 -0.71054273576E-14 -0.15306913880E+04  0.15549345116E+04  0.27350541157E+03 0.  0.
         25    2    3    3    0    0 -0.14237465853E+02 -0.16018838279E+02 -0.10557316249E+04  0.10632914128E+04  0.12473995385E+03 0.  0.
         25    2    3    3    0    0  0.14237465853E+02  0.16018838279E+02 -0.47495976312E+03  0.49164309886E+03  0.12516729388E+03 0.  0.
          5    1    4    4  502    0  0.47811513737E+01 -0.68926427142E+02 -0.51812728130E+03  0.52273480982E+03  0.47000000000E+01 0. -1.
         -5    1    4    4    0  502 -0.19018617227E+02  0.52907588863E+02 -0.53760434358E+03  0.54055660296E+03  0.47000000000E+01 0. -1.
          5    1    5    5  503    0 -0.33534843437E+02 -0.57880862052E+01 -0.39096763038E+03  0.39247403184E+03  0.47000000000E+01 0.  1.
         -5    1    5    5    0  503  0.47772309290E+02  0.21806924484E+02 -0.83992132741E+02  0.99169067016E+02  0.47000000000E+01 0.  1.
<mgrwt>
<rscale>  0 0.27350541E+03</rscale>
<asrwt>0</asrwt>
<pdfrwt beam="1">  1        1 0.23735562E+00 0.27350541E+03</pdfrwt>
<pdfrwt beam="2">  1       -1 0.18648573E-02 0.27350541E+03</pdfrwt>
<totfact> 0.50923509E+03</totfact>
</mgrwt>
</event>
<event>
 9    1  0.7816570E-001  0.2738814E+03  0.7818608E-02  0.1099078E+00
         -1   -1    0    0    0  501 -0.00000000000E+00  0.00000000000E+00  0.75768779253E+01  0.75768779253E+01  0.00000000000E+00 0. -1.
          1   -1    0    0  501    0  0.00000000000E+00 -0.00000000000E+00 -0.24749981490E+04  0.24749981490E+04  0.00000000000E+00 0. -1.
         35    2    1    2    0    0  0.14210854715E-13  0.00000000000E+00 -0.24674212710E+04  0.24825750269E+04  0.27388142573E+03 0.  0.
         25    2    3    3    0    0 -0.55423941426E+02  0.16606984931E+01 -0.11871248749E+04  0.11949970646E+04  0.12521159964E+03 0.  0.
         25    2    3    3    0    0  0.55423941426E+02 -0.16606984931E+01 -0.12802963962E+04  0.12875779623E+04  0.12499430270E+03 0.  0.
          5    1    4    4  502    0 -0.78606750807E+02  0.15190907323E+02 -0.11152465187E+04  0.11181264116E+04  0.47000000000E+01 0.  1.
         -5    1    4    4    0  502  0.23182809381E+02 -0.13530208830E+02 -0.71878356171E+02  0.76870652967E+02  0.47000000000E+01 0.  1.
          5    1    5    5  503    0  0.10351390845E+01  0.76808658305E+01 -0.10721694801E+04  0.10722077929E+04  0.47000000000E+01 0.  1.
         -5    1    5    5    0  503  0.54388802341E+02 -0.93415643236E+01 -0.20812691608E+03  0.21537016934E+03  0.47000000000E+01 0.  1.
<mgrwt>
<rscale>  0 0.27388143E+03</rscale>
<asrwt>0</asrwt>
<pdfrwt beam="1">  1        1 0.38076942E+00 0.27388143E+03</pdfrwt>
<pdfrwt beam="2">  1       -1 0.11656721E-02 0.27388143E+03</pdfrwt>
<totfact> 0.24816153E+03</totfact>
</mgrwt>
</event>
<event>
 9    1  0.7816570E-001  0.2633823E+03  0.7818608E-02  0.1105128E+00
          1   -1    0    0  501    0  0.00000000000E+00  0.00000000000E+00  0.14382340776E+03  0.14382340776E+03  0.00000000000E+00 0. -1.
         -1   -1    0    0    0  501 -0.00000000000E+00 -0.00000000000E+00 -0.12058234537E+03  0.12058234537E+03  0.00000000000E+00 0. -1.
         35    2    1    2    0    0  0.35527136788E-14 -0.35527136788E-14  0.23241062383E+02  0.26440575313E+03  0.26338233674E+03 0.  0.
         25    2    3    3    0    0 -0.17358305091E+02 -0.27804820316E+02  0.37591425900E+02  0.13434199651E+03  0.12474068276E+03 0.  0.
         25    2    3    3    0    0  0.17358305091E+02  0.27804820316E+02 -0.14350363517E+02  0.13006375662E+03  0.12504490819E+03 0.  0.
          5    1    4    4  502    0  0.46802395097E+02 -0.36424659116E+02  0.31685542195E+00  0.59492943917E+02  0.47000000000E+01 0.  1.
         -5    1    4    4    0  502 -0.64160700188E+02  0.86198387991E+01  0.37274570478E+02  0.74849052592E+02  0.47000000000E+01 0.  1.
          5    1    5    5  503    0  0.10560259733E+02 -0.23960363676E+02  0.44129715219E+02  0.51528049433E+02  0.47000000000E+01 0.  1.
         -5    1    5    5    0  503  0.67980453574E+01  0.51765183992E+02 -0.58480078736E+02  0.78535707187E+02  0.47000000000E+01 0.  1.
<mgrwt>
<rscale>  0 0.26338234E+03</rscale>
<asrwt>0</asrwt>
<pdfrwt beam="1">  1        1 0.22126678E-01 0.26338234E+03</pdfrwt>
<pdfrwt beam="2">  1       -1 0.18551130E-01 0.26338234E+03</pdfrwt>
<totfact> 0.50604340E+03</totfact>
</mgrwt>
</event>
<event>
 9    1  0.7816570E-001  0.2739786E+03  0.7818608E-02  0.1099024E+00
          4   -1    0    0  501    0  0.00000000000E+00  0.00000000000E+00  0.92166841064E+03  0.92166841064E+03  0.00000000000E+00 0. -1.
         -4   -1    0    0    0  501 -0.00000000000E+00 -0.00000000000E+00 -0.20360978757E+02  0.20360978757E+02  0.00000000000E+00 0. -1.
         35    2    1    2    0    0  0.00000000000E+00 -0.71054273576E-14  0.90130743188E+03  0.94202938940E+03  0.27397861909E+03 0.  0.
         25    2    3    3    0    0 -0.54629883149E+02 -0.62540498812E+01  0.50590324996E+03  0.52371894841E+03  0.12377358902E+03 0.  0.
         25    2    3    3    0    0  0.54629883149E+02  0.62540498812E+01  0.39540418193E+03  0.41831044098E+03  0.12496247708E+03 0.  0.
          5    1    4    4  502    0 -0.13110075669E+02 -0.43107184571E+02  0.41235844373E+03  0.41483934187E+03  0.47000000000E+01 0. -1.
         -5    1    4    4    0  502 -0.41519807480E+02  0.36853134690E+02  0.93544806228E+02  0.10887960655E+03  0.47000000000E+01 0. -1.
          5    1    5    5  503    0 -0.78659709323E+01 -0.13026070520E+02 -0.15275090390E+01  0.15999227974E+02  0.47000000000E+01 0. -1.
         -5    1    5    5    0  503  0.62495854081E+02  0.19280120402E+02  0.39693169097E+03  0.40231121301E+03  0.47000000000E+01 0. -1.
<mgrwt>
<rscale>  0 0.27397862E+03</rscale>
<asrwt>0</asrwt>
<pdfrwt beam="1">  1        4 0.14179511E+00 0.27397862E+03</pdfrwt>
<pdfrwt beam="2">  1       -4 0.31324590E-02 0.27397862E+03</pdfrwt>
<totfact> 0.34446717E+02</totfact>
</mgrwt>
</event>
<event>
 9    1  0.7816570E-001  0.2731110E+03  0.7818608E-02  0.1099512E+00
          1   -1    0    0  501    0  0.00000000000E+00  0.00000000000E+00  0.56661410132E+02  0.56661410132E+02  0.00000000000E+00 0.  1.
         -1   -1    0    0    0  501 -0.00000000000E+00 -0.00000000000E+00 -0.32910234507E+03  0.32910234507E+03  0.00000000000E+00 0.  1.
         35    2    1    2    0    0  0.00000000000E+00  0.71054273576E-14 -0.27244093494E+03  0.38576375520E+03  0.27311098806E+03 0.  0.
         25    2    3    3    0    0 -0.36198374772E+01 -0.50379173982E+02 -0.10337405927E+03  0.17037989359E+03  0.12566601616E+03 0.  0.
         25    2    3    3    0    0  0.36198374772E+01  0.50379173982E+02 -0.16906687567E+03  0.21538386161E+03  0.12351289406E+03 0.  0.
          5    1    4    4  502    0 -0.21119420939E+02 -0.63860435426E+01 -0.11836499738E+03  0.12049553560E+03  0.47000000000E+01 0. -1.
         -5    1    4    4    0  502  0.17499583462E+02 -0.43993130440E+02  0.14990938113E+02  0.49884357997E+02  0.47000000000E+01 0. -1.
          5    1    5    5  503    0 -0.38159246586E+02  0.20444050500E+02 -0.15625128082E+03  0.16220554879E+03  0.47000000000E+01 0.  1.
         -5    1    5    5    0  503  0.41779084063E+02  0.29935123483E+02 -0.12815594849E+02  0.53178312820E+02  0.47000000000E+01 0.  1.
<mgrwt>
<rscale>  0 0.27311099E+03</rscale>
<asrwt>0</asrwt>
<pdfrwt beam="1">  1        1 0.87171398E-02 0.27311099E+03</pdfrwt>
<pdfrwt beam="2">  1       -1 0.50631131E-01 0.27311099E+03</pdfrwt>
<totfact> 0.30908060E+03</totfact>
</mgrwt>
</event>
<event>
 9    1  0.7816570E-001  0.2708588E+03  0.7818608E-02  0.1100789E+00
         -2   -1    0    0    0  501 -0.00000000000E+00  0.00000000000E+00  0.71004313955E+01  0.71004313955E+01  0.00000000000E+00 0.  1.
          2   -1    0    0  501    0  0.00000000000E+00 -0.00000000000E+00 -0.25830999571E+04  0.25830999571E+04  0.00000000000E+00 0.  1.
         35    2    1    2    0    0 -0.71054273576E-14  0.00000000000E+00 -0.25759995257E+04  0.25902003885E+04  0.27085881217E+03 0.  0.
         25    2    3    3    0    0 -0.49706205059E+02  0.80513801691E+01 -0.14023923615E+04  0.14088773634E+04  0.12528191427E+03 0.  0.
         25    2    3    3    0    0  0.49706205059E+02 -0.80513801691E+01 -0.11736071642E+04  0.11813230251E+04  0.12503912243E+03 0.  0.
          5    1    4    4  502    0 -0.42651319241E+02 -0.44715896817E+02 -0.11039024935E+04  0.11056407426E+04  0.47000000000E+01 0.  1.
         -5    1    4    4    0  502 -0.70548858183E+01  0.52767276986E+02 -0.29848986794E+03  0.30323662081E+03  0.47000000000E+01 0.  1.
          5    1    5    5  503    0  0.58068815383E+02 -0.38927153513E+02 -0.10803596581E+04  0.10826293879E+04  0.47000000000E+01 0. -1.
         -5    1    5    5    0  503 -0.83626103242E+01  0.30875773344E+02 -0.93247506099E+02  0.98693637204E+02  0.47000000000E+01 0. -1.
<mgrwt>
<rscale>  0 0.27085881E+03</rscale>
<asrwt>0</asrwt>
<pdfrwt beam="1">  1        2 0.39740089E+00 0.27085881E+03</pdfrwt>
<pdfrwt beam="2">  1       -2 0.10923716E-02 0.27085881E+03</pdfrwt>
<totfact> 0.67670097E+03</totfact>
</mgrwt>
</event>
<event>
 9    1  0.7816570E-001  0.2741399E+03  0.7818608E-02  0.1098933E+00
          2   -1    0    0  501    0  0.00000000000E+00  0.00000000000E+00  0.24077910382E+03  0.24077910382E+03  0.00000000000E+00 0.  1.
         -2   -1    0    0    0  501 -0.00000000000E+00 -0.00000000000E+00 -0.78030748935E+02  0.78030748935E+02  0.00000000000E+00 0.  1.
         35    2    1    2    0    0 -0.71054273576E-14  0.14210854715E-13  0.16274835488E+03  0.31880985275E+03  0.27413991901E+03 0.  0.
         25    2    3    3    0    0  0.34916201856E+02 -0.44612284837E+02  0.90977419645E+02  0.16490309236E+03  0.12532654099E+03 0.  0.
         25    2    3    3    0    0 -0.34916201856E+02  0.44612284837E+02  0.71770935236E+02  0.15390676039E+03  0.12380156153E+03 0.  0.
          5    1    4    4  502    0  0.70965665886E+02  0.97465748048E+01  0.41684482795E+02  0.83010888208E+02  0.47000000000E+01 0.  1.
         -5    1    4    4    0  502 -0.36049464031E+02 -0.54358859641E+02  0.49292936850E+02  0.81892204157E+02  0.47000000000E+01 0.  1.
          5    1    5    5  503    0  0.91264761097E+01 -0.93003684927E+01 -0.28535067244E+02  0.31719544178E+02  0.47000000000E+01 0. -1.
         -5    1    5    5    0  503 -0.44042677965E+02  0.53912653329E+02  0.10030600248E+03  0.12218721621E+03  0.47000000000E+01 0. -1.
<mgrwt>
<rscale>  0 0.27413992E+03</rscale>
<asrwt>0</asrwt>
<pdfrwt beam="1">  1        2 0.37042939E-01 0.27413992E+03</pdfrwt>
<pdfrwt beam="2">  1       -2 0.12004731E-01 0.27413992E+03</pdfrwt>
<totfact> 0.68126578E+03</totfact>
</mgrwt>
</event>
<event>
 9    1  0.7816570E-001  0.2747418E+03  0.7818608E-02  0.1098596E+00
         -1   -1    0    0    0  501 -0.00000000000E+00  0.00000000000E+00  0.37422370967E+02  0.37422370967E+02  0.00000000000E+00 0.  1.
          1   -1    0    0  501    0  0.00000000000E+00 -0.00000000000E+00 -0.50426427801E+03  0.50426427801E+03  0.00000000000E+00 0.  1.
         35    2    1    2    0    0  0.71054273576E-14  0.71054273576E-14 -0.46684190705E+03  0.54168664898E+03  0.27474180517E+03 0.  0.
         25    2    3    3    0    0  0.26121024956E+02  0.48125754833E+02 -0.26603768573E+03  0.29875072910E+03  0.12440880872E+03 0.  0.
         25    2    3    3    0    0 -0.26121024956E+02 -0.48125754833E+02 -0.20080422132E+03  0.24293591988E+03  0.12528818638E+03 0.  0.
          5    1    4    4  502    0  0.45021564312E+02  0.56482384570E+02 -0.26787110886E+03  0.27747832705E+03  0.47000000000E+01 0. -1.
         -5    1    4    4    0  502 -0.18900539356E+02 -0.83566297371E+01  0.18334231343E+01  0.21272402049E+02  0.47000000000E+01 0. -1.
          5    1    5    5  503    0 -0.52530679011E+02 -0.51025773305E+02 -0.47817606981E+02  0.87588328652E+02  0.47000000000E+01 0. -1.
         -5    1    5    5    0  503  0.26409654055E+02  0.29000184719E+01 -0.15298661434E+03  0.15534759123E+03  0.47000000000E+01 0. -1.
<mgrwt>
<rscale>  0 0.27474181E+03</rscale>
<asrwt>0</asrwt>
<pdfrwt beam="1">  1        1 0.77579116E-01 0.27474181E+03</pdfrwt>
<pdfrwt beam="2">  1       -1 0.57572881E-02 0.27474181E+03</pdfrwt>
<totfact> 0.63200626E+03</totfact>
</mgrwt>
</event>
<event>
 9    1  0.7816570E-001  0.2621639E+03  0.7818608E-02  0.1105850E+00
         -1   -1    0    0    0  501 -0.00000000000E+00  0.00000000000E+00  0.55024774431E+03  0.55024774431E+03  0.00000000000E+00 0.  1.
          1   -1    0    0  501    0  0.00000000000E+00 -0.00000000000E+00 -0.31226800500E+02  0.31226800500E+02  0.00000000000E+00 0.  1.
         35    2    1    2    0    0  0.00000000000E+00 -0.13322676296E-14  0.51902094381E+03  0.58147454481E+03  0.26216389177E+03 0.  0.
         25    2    3    3    0    0  0.38559785192E+02 -0.26459842761E+01  0.25998084261E+03  0.29094614432E+03  0.12476282342E+03 0.  0.
         25    2    3    3    0    0 -0.38559785192E+02  0.26459842761E+01  0.25904010121E+03  0.29052840049E+03  0.12574227289E+03 0.  0.
          5    1    4    4  502    0  0.82304396644E+02  0.22908759734E+01  0.13326856113E+03  0.15672224222E+03  0.47000000000E+01 0.  1.
         -5    1    4    4    0  502 -0.43744611452E+02 -0.49368602495E+01  0.12671228148E+03  0.13422390211E+03  0.47000000000E+01 0.  1.
          5    1    5    5  503    0 -0.64730010424E+02  0.18390087235E+02  0.63765457781E+02  0.92823990240E+02  0.47000000000E+01 0. -1.
         -5    1    5    5    0  503  0.26170225232E+02 -0.15744102959E+02  0.19527464343E+03  0.19770441025E+03  0.47000000000E+01 0. -1.
<mgrwt>
<rscale>  0 0.26216389E+03</rscale>
<asrwt>0</asrwt>
<pdfrwt beam="1">  1        1 0.48041236E-02 0.26216389E+03</pdfrwt>
<pdfrwt beam="2">  1       -1 0.84653492E-01 0.26216389E+03</pdfrwt>
<totfact> 0.25401343E+03</totfact>
</mgrwt>
</event>
<event>
 9    1  0.7816570E-001  0.3126285E+03  0.7818608E-02  0.1079093E+00
         -2   -1    0    0    0  501 -0.00000000000E+00  0.00000000000E+00  0.62773487695E+02  0.62773487695E+02  0.00000000000E+00 0.  1.
          2   -1    0    0  501    0  0.00000000000E+00 -0.00000000000E+00 -0.38924316077E+03  0.38924316077E+03  0.00000000000E+00 0.  1.
         35    2    1    2    0    0  0.71054273576E-14  0.00000000000E+00 -0.32646967307E+03  0.45201664846E+03  0.31262853845E+03 0.  0.
         25    2    3    3    0    0 -0.16467008459E+02  0.74771918255E+02 -0.23825416430E+03  0.28085987408E+03  0.12749596045E+03 0.  0.
         25    2    3    3    0    0  0.16467008459E+02 -0.74771918255E+02 -0.88215508769E+02  0.17115677439E+03  0.12510261110E+03 0.  0.
          5    1    4    4  502    0 -0.53161607397E+02  0.84402507674E+02 -0.21241978962E+03  0.23472153038E+03  0.47000000000E+01 0. -1.
         -5    1    4    4    0  502  0.36694598938E+02 -0.96305894185E+01 -0.25834374690E+02  0.46138343700E+02  0.47000000000E+01 0. -1.
          5    1    5    5  503    0 -0.37026049537E+02  0.11091632950E+02 -0.34460683868E+01  0.39088592366E+02  0.47000000000E+01 0. -1.
         -5    1    5    5    0  503  0.53493057996E+02 -0.85863551205E+02 -0.84769440382E+02  0.13206818202E+03  0.47000000000E+01 0. -1.
<mgrwt>
<rscale>  0 0.31262854E+03</rscale>
<asrwt>0</asrwt>
<pdfrwt beam="1">  1        2 0.59883564E-01 0.31262854E+03</pdfrwt>
<pdfrwt beam="2">  1       -2 0.96574596E-02 0.31262854E+03</pdfrwt>
<totfact> 0.57689744E+03</totfact>
</mgrwt>
</event>
<event>
 9    1  0.7816570E-001  0.2813073E+03  0.7818608E-02  0.1094977E+00
         -2   -1    0    0    0  501 -0.00000000000E+00  0.00000000000E+00  0.10127479766E+02  0.10127479766E+02  0.00000000000E+00 0. -1.
          2   -1    0    0  501    0  0.00000000000E+00 -0.00000000000E+00 -0.19534430978E+04  0.19534430978E+04  0.00000000000E+00 0. -1.
         35    2    1    2    0    0 -0.71054273576E-14 -0.71054273576E-14 -0.19433156180E+04  0.19635705775E+04  0.28130734400E+03 0.  0.
         25    2    3    3    0    0 -0.21381919992E+02 -0.58462523373E+02 -0.10657761959E+04  0.10748220193E+04  0.12445248192E+03 0.  0.
         25    2    3    3    0    0  0.21381919992E+02  0.58462523373E+02 -0.87753942211E+03  0.88874855826E+03  0.12618838815E+03 0.  0.
          5    1    4    4  502    0 -0.23366801388E+02 -0.38175158900E+02 -0.10427174614E+04  0.10436882410E+04  0.47000000000E+01 0. -1.
         -5    1    4    4    0  502  0.19848813955E+01 -0.20287364472E+02 -0.23058734488E+02  0.31133778241E+02  0.47000000000E+01 0. -1.
          5    1    5    5  503    0  0.66936364463E+02  0.65075454434E+02 -0.53608418482E+03  0.54417243119E+03  0.47000000000E+01 0. -1.
         -5    1    5    5    0  503 -0.45554444471E+02 -0.66129310612E+01 -0.34145523729E+03  0.34457612706E+03  0.47000000000E+01 0. -1.
<mgrwt>
<rscale>  0 0.28130734E+03</rscale>
<asrwt>0</asrwt>
<pdfrwt beam="1">  1        2 0.30052983E+00 0.28130734E+03</pdfrwt>
<pdfrwt beam="2">  1       -2 0.15580732E-02 0.28130734E+03</pdfrwt>
<totfact> 0.87741737E+03</totfact>
</mgrwt>
</event>
<event>
 9    1  0.7816570E-001  0.3346495E+03  0.7818608E-02  0.1069098E+00
          1   -1    0    0  501    0  0.00000000000E+00  0.00000000000E+00  0.27769099479E+03  0.27769099479E+03  0.00000000000E+00 0.  1.
         -1   -1    0    0    0  501 -0.00000000000E+00 -0.00000000000E+00 -0.10082278680E+03  0.10082278680E+03  0.00000000000E+00 0.  1.
         35    2    1    2    0    0  0.71054273576E-14  0.71054273576E-14  0.17686820799E+03  0.37851378159E+03  0.33464954781E+03 0.  0.
         25    2    3    3    0    0  0.61239396918E+02  0.25743803882E+02  0.18543276981E+03  0.23390436814E+03  0.12614647891E+03 0.  0.
         25    2    3    3    0    0 -0.61239396918E+02 -0.25743803882E+02 -0.85645618227E+01  0.14460941344E+03  0.12816209878E+03 0.  0.
          5    1    4    4  502    0  0.67951686689E+02  0.65950291991E+02  0.93163364325E+02  0.13292244051E+03  0.47000000000E+01 0.  1.
         -5    1    4    4    0  502 -0.67122897717E+01 -0.40206488109E+02  0.92269405487E+02  0.10098192764E+03  0.47000000000E+01 0.  1.
          5    1    5    5  503    0 -0.86028629433E+02 -0.57653035496E+02 -0.54161424460E+01  0.10380858434E+03  0.47000000000E+01 0. -1.
         -5    1    5    5    0  503  0.24789232515E+02  0.31909231614E+02 -0.31484193767E+01  0.40800829103E+02  0.47000000000E+01 0. -1.
<mgrwt>
<rscale>  0 0.33464955E+03</rscale>
<asrwt>0</asrwt>
<pdfrwt beam="1">  1        1 0.42721691E-01 0.33464955E+03</pdfrwt>
<pdfrwt beam="2">  1       -1 0.15511198E-01 0.33464955E+03</pdfrwt>
<totfact> 0.29494072E+03</totfact>
</mgrwt>
</event>
<event>
 9    1  0.7816570E-001  0.2759224E+03  0.7818608E-02  0.1097937E+00
         -1   -1    0    0    0  501 -0.00000000000E+00  0.00000000000E+00  0.79170855882E+02  0.79170855882E+02  0.00000000000E+00 0. -1.
          1   -1    0    0  501    0  0.00000000000E+00 -0.00000000000E+00 -0.24040776662E+03  0.24040776662E+03  0.00000000000E+00 0. -1.
         35    2    1    2    0    0  0.00000000000E+00  0.00000000000E+00 -0.16123691074E+03  0.31957862251E+03  0.27592237056E+03 0.  0.
         25    2    3    3    0    0  0.32846499352E+02  0.24410214971E+02 -0.12659205012E+03  0.18221425052E+03  0.12450596301E+03 0.  0.
         25    2    3    3    0    0 -0.32846499352E+02 -0.24410214971E+02 -0.34644860626E+02  0.13736437199E+03  0.12646720211E+03 0.  0.
          5    1    4    4  502    0 -0.18652000400E+02 -0.42402206677E+02 -0.43860070948E+02  0.63965929006E+02  0.47000000000E+01 0. -1.
         -5    1    4    4    0  502  0.51498499752E+02  0.66812421649E+02 -0.82731979169E+02  0.11824832151E+03  0.47000000000E+01 0. -1.
          5    1    5    5  503    0 -0.73892112684E+02  0.34460165605E+01  0.41161537584E+01  0.74235786981E+02  0.47000000000E+01 0. -1.
         -5    1    5    5    0  503  0.41045613332E+02 -0.27856231532E+02 -0.38761014384E+02  0.63128585007E+02  0.47000000000E+01 0. -1.
<mgrwt>
<rscale>  0 0.27592237E+03</rscale>
<asrwt>0</asrwt>
<pdfrwt beam="1">  1        1 0.36985810E-01 0.27592237E+03</pdfrwt>
<pdfrwt beam="2">  1       -1 0.12180132E-01 0.27592237E+03</pdfrwt>
<totfact> 0.51587538E+03</totfact>
</mgrwt>
</event>
<event>
 9    1  0.7816570E-001  0.2759067E+03  0.7818608E-02  0.1097946E+00
          2   -1    0    0  501    0  0.00000000000E+00  0.00000000000E+00  0.52095322136E+03  0.52095322136E+03  0.00000000000E+00 0.  1.
         -2   -1    0    0    0  501 -0.00000000000E+00 -0.00000000000E+00 -0.36531358769E+02  0.36531358769E+02  0.00000000000E+00 0.  1.
         35    2    1    2    0    0  0.14210854715E-13  0.35527136788E-14  0.48442186259E+03  0.55748458013E+03  0.27590671635E+03 0.  0.
         25    2    3    3    0    0  0.51823116801E+02 -0.25508014022E+02  0.22367368059E+03  0.26272912710E+03  0.12514145844E+03 0.  0.
         25    2    3    3    0    0 -0.51823116801E+02  0.25508014022E+02  0.26074818200E+03  0.29475545303E+03  0.12471915836E+03 0.  0.
          5    1    4    4  502    0 -0.25216814539E+02 -0.41510154517E+02  0.13769676124E+03  0.14608719560E+03  0.47000000000E+01 0. -1.
         -5    1    4    4    0  502  0.77039931340E+02  0.16002140495E+02  0.85976919354E+02  0.11664193149E+03  0.47000000000E+01 0. -1.
          5    1    5    5  503    0 -0.82233585782E+02  0.51417181369E+02  0.17867261565E+03  0.20335211520E+03  0.47000000000E+01 0. -1.
         -5    1    5    5    0  503  0.30410468981E+02 -0.25909167348E+02  0.82075566342E+02  0.91403337831E+02  0.47000000000E+01 0. -1.
<mgrwt>
<rscale>  0 0.27590672E+03</rscale>
<asrwt>0</asrwt>
<pdfrwt beam="1">  1        2 0.80146644E-01 0.27590672E+03</pdfrwt>
<pdfrwt beam="2">  1       -2 0.56202094E-02 0.27590672E+03</pdfrwt>
<totfact> 0.96730547E+03</totfact>
</mgrwt>
</event>
<event>
 9    1  0.7816570E-001  0.2743498E+03  0.7818608E-02  0.1098816E+00
         -2   -1    0    0    0  501 -0.00000000000E+00  0.00000000000E+00  0.95145575103E+01  0.95145575103E+01  0.00000000000E+00 0. -1.
          2   -1    0    0  501    0  0.00000000000E+00 -0.00000000000E+00 -0.19777017425E+04  0.19777017425E+04  0.00000000000E+00 0. -1.
         35    2    1    2    0    0  0.00000000000E+00 -0.17763568394E-14 -0.19681871850E+04  0.19872163000E+04  0.27434982754E+03 0.  0.
         25    2    3    3    0    0 -0.49223712154E+02 -0.66860186625E+01 -0.79231373555E+03  0.80369560319E+03  0.12529122221E+03 0.  0.
         25    2    3    3    0    0  0.49223712154E+02  0.66860186625E+01 -0.11758734495E+04  0.11835206968E+04  0.12480061707E+03 0.  0.
          5    1    4    4  502    0 -0.42913104562E+02 -0.12968466571E+02 -0.79234553387E+03  0.79362664440E+03  0.47000000000E+01 0.  1.
         -5    1    4    4    0  502 -0.63106075923E+01  0.62824479082E+01  0.31798317683E-01  0.10068958786E+02  0.47000000000E+01 0.  1.
          5    1    5    5  503    0 -0.62668911276E+01  0.16835526723E+02 -0.24426218323E+02  0.30682878386E+02  0.47000000000E+01 0. -1.
         -5    1    5    5    0  503  0.55490603282E+02 -0.10149508061E+02 -0.11514472311E+04  0.11528378185E+04  0.47000000000E+01 0. -1.
<mgrwt>
<rscale>  0 0.27434983E+03</rscale>
<asrwt>0</asrwt>
<pdfrwt beam="1">  1        2 0.30426198E+00 0.27434983E+03</pdfrwt>
<pdfrwt beam="2">  1       -2 0.14637772E-02 0.27434983E+03</pdfrwt>
<totfact> 0.93331601E+03</totfact>
</mgrwt>
</event>
<event>
 9    1  0.7816570E-001  0.2727142E+03  0.7818608E-02  0.1099736E+00
          1   -1    0    0  501    0  0.00000000000E+00  0.00000000000E+00  0.20276206644E+02  0.20276206644E+02  0.00000000000E+00 0. -1.
         -1   -1    0    0    0  501 -0.00000000000E+00 -0.00000000000E+00 -0.91699880772E+03  0.91699880772E+03  0.00000000000E+00 0. -1.
         35    2    1    2    0    0 -0.35527136788E-14  0.00000000000E+00 -0.89672260108E+03  0.93727501437E+03  0.27271418971E+03 0.  0.
         25    2    3    3    0    0  0.24290385338E+02 -0.13401974749E+02 -0.28676134982E+03  0.31415494101E+03  0.12526619441E+03 0.  0.
         25    2    3    3    0    0 -0.24290385338E+02  0.13401974749E+02 -0.60996125126E+03  0.62312007335E+03  0.12432321600E+03 0.  0.
          5    1    4    4  502    0  0.70749857438E+01 -0.69182570095E+02 -0.15223387273E+03  0.16743215173E+03  0.47000000000E+01 0. -1.
         -5    1    4    4    0  502  0.17215399594E+02  0.55780595346E+02 -0.13452747710E+03  0.14672278928E+03  0.47000000000E+01 0. -1.
          5    1    5    5  503    0  0.26251122117E+02 -0.26461092046E+02 -0.43525376135E+03  0.43687210666E+03  0.47000000000E+01 0. -1.
         -5    1    5    5    0  503 -0.50541507454E+02  0.39863066795E+02 -0.17470748991E+03  0.18624796670E+03  0.47000000000E+01 0. -1.
<mgrwt>
<rscale>  0 0.27271419E+03</rscale>
<asrwt>0</asrwt>
<pdfrwt beam="1">  1        1 0.31194165E-02 0.27271419E+03</pdfrwt>
<pdfrwt beam="2">  1       -1 0.14107673E+00 0.27271419E+03</pdfrwt>
<totfact> 0.14291446E+03</totfact>
</mgrwt>
</event>
<event>
 9    1  0.7816570E-001  0.2686894E+03  0.7818608E-02  0.1102032E+00
          1   -1    0    0  501    0  0.00000000000E+00  0.00000000000E+00  0.31374873198E+03  0.31374873198E+03  0.00000000000E+00 0. -1.
         -1   -1    0    0    0  501 -0.00000000000E+00 -0.00000000000E+00 -0.57525337732E+02  0.57525337732E+02  0.00000000000E+00 0. -1.
         35    2    1    2    0    0  0.00000000000E+00  0.00000000000E+00  0.25622339424E+03  0.37127406971E+03  0.26868942495E+03 0.  0.
         25    2    3    3    0    0  0.39338594858E+02 -0.38543722268E+02  0.12418737054E+03  0.18105083731E+03  0.11968190807E+03 0.  0.
         25    2    3    3    0    0 -0.39338594858E+02  0.38543722268E+02  0.13203602371E+03  0.19022323240E+03  0.12537233752E+03 0.  0.
          5    1    4    4  502    0 -0.82672696887E+01  0.25433236365E+02 -0.64649442138E+01  0.27912054095E+02  0.47000000000E+01 0.  1.
         -5    1    4    4    0  502  0.47605864547E+02 -0.63976958633E+02  0.13065231475E+03  0.15313878322E+03  0.47000000000E+01 0.  1.
          5    1    5    5  503    0  0.26667797475E+02 -0.25651409446E+02  0.12658346963E+02  0.39388957546E+02  0.47000000000E+01 0. -1.
         -5    1    5    5    0  503 -0.66006392333E+02  0.64195131714E+02  0.11937767674E+03  0.15083427485E+03  0.47000000000E+01 0. -1.
<mgrwt>
<rscale>  0 0.26868942E+03</rscale>
<asrwt>0</asrwt>
<pdfrwt beam="1">  1        1 0.48269035E-01 0.26868942E+03</pdfrwt>
<pdfrwt beam="2">  1       -1 0.88500521E-02 0.26868942E+03</pdfrwt>
<totfact> 0.60501424E+03</totfact>
</mgrwt>
</event>
<event>
 9    1  0.7816570E-001  0.2763740E+03  0.7818608E-02  0.1097686E+00
          2   -1    0    0  501    0  0.00000000000E+00  0.00000000000E+00  0.53191842939E+03  0.53191842939E+03  0.00000000000E+00 0. -1.
         -2   -1    0    0    0  501 -0.00000000000E+00 -0.00000000000E+00 -0.35899573150E+02  0.35899573150E+02  0.00000000000E+00 0. -1.
         35    2    1    2    0    0  0.00000000000E+00  0.71054273576E-14  0.49601885624E+03  0.56781800254E+03  0.27637398261E+03 0.  0.
         25    2    3    3    0    0  0.28884887656E+02 -0.42772078074E+02  0.31012787360E+03  0.33789669871E+03  0.12381879347E+03 0.  0.
         25    2    3    3    0    0 -0.28884887656E+02  0.42772078074E+02  0.18589098263E+03  0.22992130383E+03  0.12507822005E+03 0.  0.
          5    1    4    4  502    0  0.34045535856E+00  0.39206218923E+02  0.50529829929E+02  0.64129534730E+02  0.47000000000E+01 0. -1.
         -5    1    4    4    0  502  0.28544432298E+02 -0.81978296998E+02  0.25959804368E+03  0.27376716398E+03  0.47000000000E+01 0. -1.
          5    1    5    5  503    0  0.11405022819E+02 -0.27301627624E+02  0.12519567050E+03  0.12873033569E+03  0.47000000000E+01 0. -1.
         -5    1    5    5    0  503 -0.40289910475E+02  0.70073705699E+02  0.60695312136E+02  0.10119096813E+03  0.47000000000E+01 0. -1.
<mgrwt>
<rscale>  0 0.27637398E+03</rscale>
<asrwt>0</asrwt>
<pdfrwt beam="1">  1        2 0.81833599E-01 0.27637398E+03</pdfrwt>
<pdfrwt beam="2">  1       -2 0.55230116E-02 0.27637398E+03</pdfrwt>
<totfact> 0.97040375E+03</totfact>
</mgrwt>
</event>
<event>
 9    1  0.7816570E-001  0.2608156E+03  0.7818608E-02  0.1106654E+00
          1   -1    0    0  501    0  0.00000000000E+00  0.00000000000E+00  0.19846723389E+02  0.19846723389E+02  0.00000000000E+00 0. -1.
         -1   -1    0    0    0  501 -0.00000000000E+00 -0.00000000000E+00 -0.85687693442E+03  0.85687693442E+03  0.00000000000E+00 0. -1.
         35    2    1    2    0    0 -0.71054273576E-14  0.35527136788E-14 -0.83703021103E+03  0.87672365781E+03  0.26081563984E+03 0.  0.
         25    2    3    3    0    0 -0.10676722595E+02 -0.10205003818E+02 -0.29819456539E+03  0.32345230164E+03  0.12443174073E+03 0.  0.
         25    2    3    3    0    0  0.10676722595E+02  0.10205003818E+02 -0.53883564564E+03  0.55327135617E+03  0.12468843585E+03 0.  0.
          5    1    4    4  502    0  0.55033847655E+02  0.57371476842E+00 -0.17254571438E+03  0.18117165090E+03  0.47000000000E+01 0. -1.
         -5    1    4    4    0  502 -0.65710570250E+02 -0.10778718586E+02 -0.12564885100E+03  0.14228065074E+03  0.47000000000E+01 0. -1.
          5    1    5    5  503    0  0.57153854959E+02  0.37855413307E+02 -0.24452530539E+03  0.25399667405E+03  0.47000000000E+01 0.  1.
         -5    1    5    5    0  503 -0.46477132364E+02 -0.27650409489E+02 -0.29431034025E+03  0.29927468212E+03  0.47000000000E+01 0.  1.
<mgrwt>
<rscale>  0 0.26081564E+03</rscale>
<asrwt>0</asrwt>
<pdfrwt beam="1">  1        1 0.30533427E-02 0.26081564E+03</pdfrwt>
<pdfrwt beam="2">  1       -1 0.13182719E+00 0.26081564E+03</pdfrwt>
<totfact> 0.17446792E+03</totfact>
</mgrwt>
</event>
<event>
 9    1  0.7816570E-001  0.2755122E+03  0.7818608E-02  0.1098166E+00
         -1   -1    0    0    0  501 -0.00000000000E+00  0.00000000000E+00  0.64027108404E+02  0.64027108404E+02  0.00000000000E+00 0.  1.
          1   -1    0    0  501    0  0.00000000000E+00 -0.00000000000E+00 -0.29638601669E+03  0.29638601669E+03  0.00000000000E+00 0.  1.
         35    2    1    2    0    0  0.35527136788E-14  0.35527136788E-14 -0.23235890828E+03  0.36041312509E+03  0.27551217483E+03 0.  0.
         25    2    3    3    0    0 -0.23362510348E+02 -0.15451476471E+02 -0.51052058047E+02  0.13818467058E+03  0.12531614236E+03 0.  0.
         25    2    3    3    0    0  0.23362510348E+02  0.15451476471E+02 -0.18130685024E+03  0.22222845451E+03  0.12541434144E+03 0.  0.
          5    1    4    4  502    0 -0.42981342174E+02 -0.67062935086E+01 -0.86232590911E+02  0.96698086242E+02  0.47000000000E+01 0.  1.
         -5    1    4    4    0  502  0.19618831826E+02 -0.87451829624E+01  0.35180532864E+02  0.41486584336E+02  0.47000000000E+01 0.  1.
          5    1    5    5  503    0  0.55494750769E+02  0.48741151847E+02 -0.14652253482E+03  0.16415331388E+03  0.47000000000E+01 0. -1.
         -5    1    5    5    0  503 -0.32132240421E+02 -0.33289675376E+02 -0.34784315414E+02  0.58075140636E+02  0.47000000000E+01 0. -1.
<mgrwt>
<rscale>  0 0.27551217E+03</rscale>
<asrwt>0</asrwt>
<pdfrwt beam="1">  1        1 0.45597847E-01 0.27551217E+03</pdfrwt>
<pdfrwt beam="2">  1       -1 0.98503247E-02 0.27551217E+03</pdfrwt>
<totfact> 0.55163107E+03</totfact>
</mgrwt>
</event>
<event>
 9    1  0.7816570E-001  0.2740375E+03  0.7818608E-02  0.1098991E+00
          2   -1    0    0  501    0  0.00000000000E+00  0.00000000000E+00  0.83228463742E+03  0.83228463742E+03  0.00000000000E+00 0.  1.
         -2   -1    0    0    0  501 -0.00000000000E+00 -0.00000000000E+00 -0.22557344829E+02  0.22557344829E+02  0.00000000000E+00 0.  1.
         35    2    1    2    0    0  0.00000000000E+00  0.71054273576E-14  0.80972729259E+03  0.85484198225E+03  0.27403745410E+03 0.  0.
         25    2    3    3    0    0  0.48951271273E+02  0.22639917592E+02  0.36072481224E+03  0.38564444484E+03  0.12526154575E+03 0.  0.
         25    2    3    3    0    0 -0.48951271273E+02 -0.22639917592E+02  0.44900248035E+03  0.46919753741E+03  0.12503723014E+03 0.  0.
          5    1    4    4  502    0  0.51349851656E+02  0.47511981006E+02  0.35176708353E+03  0.35868700375E+03  0.47000000000E+01 0.  1.
         -5    1    4    4    0  502 -0.23985803829E+01 -0.24872063414E+02  0.89577287050E+01  0.26957441086E+02  0.47000000000E+01 0.  1.
          5    1    5    5  503    0 -0.66606821384E+02  0.32888428746E+02  0.19935008242E+03  0.21279253456E+03  0.47000000000E+01 0. -1.
         -5    1    5    5    0  503  0.17655550112E+02 -0.55528346338E+02  0.24965239793E+03  0.25640500285E+03  0.47000000000E+01 0. -1.
<mgrwt>
<rscale>  0 0.27403745E+03</rscale>
<asrwt>0</asrwt>
<pdfrwt beam="1">  1        2 0.12804377E+00 0.27403745E+03</pdfrwt>
<pdfrwt beam="2">  1       -2 0.34703614E-02 0.27403745E+03</pdfrwt>
<totfact> 0.11435693E+04</totfact>
</mgrwt>
</event>
<event>
 9    1  0.7816570E-001  0.2876769E+03  0.7818608E-02  0.1091568E+00
          2   -1    0    0  501    0  0.00000000000E+00  0.00000000000E+00  0.24482053034E+04  0.24482053034E+04  0.00000000000E+00 0. -1.
         -2   -1    0    0    0  501 -0.00000000000E+00 -0.00000000000E+00 -0.84508860727E+01  0.84508860727E+01  0.00000000000E+00 0. -1.
         35    2    1    2    0    0  0.00000000000E+00 -0.14210854715E-13  0.24397544173E+04  0.24566561895E+04  0.28767693061E+03 0.  0.
         25    2    3    3    0    0 -0.44983149985E+02 -0.54740409732E+02  0.11543733787E+04  0.11632781065E+04  0.12497223409E+03 0.  0.
         25    2    3    3    0    0  0.44983149985E+02  0.54740409732E+02  0.12853810386E+04  0.12933780830E+04  0.12490978703E+03 0.  0.
          5    1    4    4  502    0  0.17800421749E+02  0.24810989812E+02  0.51311106043E+03  0.51404035889E+03  0.47000000000E+01 0.  1.
         -5    1    4    4    0  502 -0.62783571734E+02 -0.79551399544E+02  0.64126231831E+03  0.64923774762E+03  0.47000000000E+01 0.  1.
          5    1    5    5  503    0 -0.12066027509E+02  0.90575571793E+01  0.18285071660E+02  0.24167378996E+02  0.47000000000E+01 0.  1.
         -5    1    5    5    0  503  0.57049177494E+02  0.45682852553E+02  0.12670959669E+04  0.12692107040E+04  0.47000000000E+01 0.  1.
<mgrwt>
<rscale>  0 0.28767693E+03</rscale>
<asrwt>0</asrwt>
<pdfrwt beam="1">  1        2 0.37664641E+00 0.28767693E+03</pdfrwt>
<pdfrwt beam="2">  1       -2 0.13001383E-02 0.28767693E+03</pdfrwt>
<totfact> 0.62252843E+03</totfact>
</mgrwt>
</event>
<event>
 9    1  0.7816570E-001  0.2798991E+03  0.7818608E-02  0.1095744E+00
         -3   -1    0    0    0  501 -0.00000000000E+00  0.00000000000E+00  0.43856376302E+03  0.43856376302E+03  0.00000000000E+00 0.  1.
          3   -1    0    0  501    0  0.00000000000E+00 -0.00000000000E+00 -0.44659127191E+02  0.44659127191E+02  0.00000000000E+00 0.  1.
         35    2    1    2    0    0  0.00000000000E+00  0.00000000000E+00  0.39390463583E+03  0.48322289021E+03  0.27989908806E+03 0.  0.
         25    2    3    3    0    0 -0.40605588831E+02  0.40802711122E+02  0.15523828139E+03  0.20763055100E+03  0.12529104766E+03 0.  0.
         25    2    3    3    0    0  0.40605588831E+02 -0.40802711122E+02  0.23866635444E+03  0.27559233921E+03  0.12520316932E+03 0.  0.
          5    1    4    4  502    0 -0.68924627669E+02  0.55831252363E+02  0.60413757731E+02  0.10742274044E+03  0.47000000000E+01 0. -1.
         -5    1    4    4    0  502  0.28319038837E+02 -0.15028541241E+02  0.94824523655E+02  0.10020781057E+03  0.47000000000E+01 0. -1.
          5    1    5    5  503    0 -0.30389195545E+02 -0.12451794165E+02  0.16845143436E+03  0.17168729167E+03  0.47000000000E+01 0. -1.
         -5    1    5    5    0  503  0.70994784377E+02 -0.28350916957E+02  0.70214920086E+02  0.10390504754E+03  0.47000000000E+01 0. -1.
<mgrwt>
<rscale>  0 0.27989909E+03</rscale>
<asrwt>0</asrwt>
<pdfrwt beam="1">  1        3 0.68706352E-02 0.27989909E+03</pdfrwt>
<pdfrwt beam="2">  1       -3 0.67471345E-01 0.27989909E+03</pdfrwt>
<totfact> 0.74884691E+02</totfact>
</mgrwt>
</event>
<event>
 9    1  0.7816570E-001  0.3256000E+03  0.7818608E-02  0.1073101E+00
         -2   -1    0    0    0  501 -0.00000000000E+00  0.00000000000E+00  0.58390564079E+02  0.58390564079E+02  0.00000000000E+00 0.  1.
          2   -1    0    0  501    0  0.00000000000E+00 -0.00000000000E+00 -0.45390614881E+03  0.45390614881E+03  0.00000000000E+00 0.  1.
         35    2    1    2    0    0  0.00000000000E+00 -0.66613381478E-15 -0.39551558473E+03  0.51229671289E+03  0.32559997585E+03 0.  0.
         25    2    3    3    0    0  0.15187543706E+02  0.15733406406E+01 -0.36076901770E+03  0.38186332321E+03  0.12422631199E+03 0.  0.
         25    2    3    3    0    0 -0.15187543706E+02 -0.15733406406E+01 -0.34746567027E+02  0.13043338968E+03  0.12478945604E+03 0.  0.
          5    1    4    4  502    0  0.19808843289E+02 -0.59843378300E+02 -0.17222139373E+03  0.18345549503E+03  0.47000000000E+01 0.  1.
         -5    1    4    4    0  502 -0.46212995835E+01  0.61416718940E+02 -0.18854762397E+03  0.19840782817E+03  0.47000000000E+01 0.  1.
          5    1    5    5  503    0 -0.59444101010E+02 -0.24680637918E+01 -0.55336771268E+02  0.81387595726E+02  0.47000000000E+01 0.  1.
         -5    1    5    5    0  503  0.44256557305E+02  0.89472315123E+00  0.20590204241E+02  0.49045793955E+02  0.47000000000E+01 0.  1.
<mgrwt>
<rscale>  0 0.32559998E+03</rscale>
<asrwt>0</asrwt>
<pdfrwt beam="1">  1        2 0.69831715E-01 0.32559998E+03</pdfrwt>
<pdfrwt beam="2">  1       -2 0.89831637E-02 0.32559998E+03</pdfrwt>
<totfact> 0.54716132E+03</totfact>
</mgrwt>
</event>
<event>
 9    1  0.7816570E-001  0.2727466E+03  0.7818608E-02  0.1099718E+00
         -1   -1    0    0    0  501 -0.00000000000E+00  0.00000000000E+00  0.10641010885E+02  0.10641010885E+02  0.00000000000E+00 0.  1.
          1   -1    0    0  501    0  0.00000000000E+00 -0.00000000000E+00 -0.17477355816E+04  0.17477355816E+04  0.00000000000E+00 0.  1.
         35    2    1    2    0    0 -0.53290705182E-14  0.71054273576E-14 -0.17370945707E+04  0.17583765925E+04  0.27274657357E+03 0.  0.
         25    2    3    3    0    0  0.49003981581E+01  0.45360188764E+02 -0.66756077704E+03  0.68069970005E+03  0.12503251566E+03 0.  0.
         25    2    3    3    0    0 -0.49003981581E+01 -0.45360188764E+02 -0.10695337937E+04  0.10776768924E+04  0.12411038659E+03 0.  0.
          5    1    4    4  502    0 -0.94077608589E+01 -0.28158398066E+02 -0.48167393151E+02  0.56776659897E+02  0.47000000000E+01 0. -1.
         -5    1    4    4    0  502  0.14308159017E+02  0.73518586830E+02 -0.61939338389E+03  0.62392304015E+03  0.47000000000E+01 0. -1.
          5    1    5    5  503    0  0.33706683763E+02 -0.69530459907E+02 -0.46392050371E+03  0.47033493295E+03  0.47000000000E+01 0. -1.
         -5    1    5    5    0  503 -0.38607081921E+02  0.24170271143E+02 -0.60561328995E+03  0.60734195948E+03  0.47000000000E+01 0. -1.
<mgrwt>
<rscale>  0 0.27274657E+03</rscale>
<asrwt>0</asrwt>
<pdfrwt beam="1">  1        1 0.26888251E+00 0.27274657E+03</pdfrwt>
<pdfrwt beam="2">  1       -1 0.16370779E-02 0.27274657E+03</pdfrwt>
<totfact> 0.45212145E+03</totfact>
</mgrwt>
</event>
<event>
 9    1  0.7816570E-001  0.2791875E+03  0.7818608E-02  0.1096134E+00
          2   -1    0    0  501    0  0.00000000000E+00  0.00000000000E+00  0.47344024868E+02  0.47344024868E+02  0.00000000000E+00 0.  1.
         -2   -1    0    0    0  501 -0.00000000000E+00 -0.00000000000E+00 -0.41159199552E+03  0.41159199552E+03  0.00000000000E+00 0.  1.
         35    2    1    2    0    0 -0.17763568394E-14 -0.14210854715E-13 -0.36424797065E+03  0.45893602038E+03  0.27918754751E+03 0.  0.
         25    2    3    3    0    0  0.15743074554E+02  0.58651604600E+02 -0.20226917250E+03  0.24522451550E+03  0.12463703198E+03 0.  0.
         25    2    3    3    0    0 -0.15743074554E+02 -0.58651604600E+02 -0.16197879815E+03  0.21371150488E+03  0.12548952606E+03 0.  0.
          5    1    4    4  502    0  0.47759976039E+01  0.91294694555E+02 -0.18501403818E+03  0.20642145172E+03  0.47000000000E+01 0.  1.
         -5    1    4    4    0  502  0.10967076950E+02 -0.32643089955E+02 -0.17255134325E+02  0.38803063787E+02  0.47000000000E+01 0.  1.
          5    1    5    5  503    0  0.33921049223E+02  0.24721691433E+02 -0.50612880031E+02  0.65920810316E+02  0.47000000000E+01 0. -1.
         -5    1    5    5    0  503 -0.49664123777E+02 -0.83373296033E+02 -0.11136591812E+03  0.14779069456E+03  0.47000000000E+01 0. -1.
<mgrwt>
<rscale>  0 0.27918755E+03</rscale>
<asrwt>0</asrwt>
<pdfrwt beam="1">  1        2 0.72836962E-02 0.27918755E+03</pdfrwt>
<pdfrwt beam="2">  1       -2 0.63321844E-01 0.27918755E+03</pdfrwt>
<totfact> 0.22619185E+03</totfact>
</mgrwt>
</event>
<event>
 9    1  0.7816570E-001  0.2824176E+03  0.7818608E-02  0.1094376E+00
          2   -1    0    0  501    0  0.00000000000E+00  0.00000000000E+00  0.14638008572E+04  0.14638008572E+04  0.00000000000E+00 0. -1.
         -2   -1    0    0    0  501 -0.00000000000E+00 -0.00000000000E+00 -0.13622016517E+02  0.13622016517E+02  0.00000000000E+00 0. -1.
         35    2    1    2    0    0  0.14210854715E-13  0.71054273576E-14  0.14501788407E+04  0.14774228737E+04  0.28241755933E+03 0.  0.
         25    2    3    3    0    0  0.49382900659E+02  0.43795485358E+02  0.74954746433E+03  0.76263950800E+03  0.12426142792E+03 0.  0.
         25    2    3    3    0    0 -0.49382900659E+02 -0.43795485358E+02  0.70063137635E+03  0.71478336571E+03  0.12519672102E+03 0.  0.
          5    1    4    4  502    0  0.79785538037E+01  0.77913495086E+02  0.56408723599E+03  0.56951792759E+03  0.47000000000E+01 0.  1.
         -5    1    4    4    0  502  0.41404346855E+02 -0.34118009728E+02  0.18546022834E+03  0.19312158042E+03  0.47000000000E+01 0.  1.
          5    1    5    5  503    0  0.37676291356E+02  0.97582868823E+01  0.19756906222E+03  0.20142083169E+03  0.47000000000E+01 0.  1.
         -5    1    5    5    0  503 -0.87059192015E+02 -0.53553772240E+02  0.50306231413E+03  0.51336253402E+03  0.47000000000E+01 0.  1.
<mgrwt>
<rscale>  0 0.28241756E+03</rscale>
<asrwt>0</asrwt>
<pdfrwt beam="1">  1        2 0.22520001E+00 0.28241756E+03</pdfrwt>
<pdfrwt beam="2">  1       -2 0.20956960E-02 0.28241756E+03</pdfrwt>
<totfact> 0.10302675E+04</totfact>
</mgrwt>
</event>
<event>
 9    1  0.7816570E-001  0.2724666E+03  0.7818608E-02  0.1099876E+00
         -1   -1    0    0    0  501 -0.00000000000E+00  0.00000000000E+00  0.20463212846E+02  0.20463212846E+02  0.00000000000E+00 0.  1.
          1   -1    0    0  501    0  0.00000000000E+00 -0.00000000000E+00 -0.90696987601E+03  0.90696987601E+03  0.00000000000E+00 0.  1.
         35    2    1    2    0    0  0.00000000000E+00  0.71054273576E-14 -0.88650666317E+03  0.92743308886E+03  0.27246664103E+03 0.  0.
         25    2    3    3    0    0 -0.23801116266E+02 -0.47893450818E+02 -0.41580600244E+03  0.43746890810E+03  0.12499655244E+03 0.  0.
         25    2    3    3    0    0  0.23801116266E+02  0.47893450818E+02 -0.47070066073E+03  0.48996418076E+03  0.12508201571E+03 0.  0.
          5    1    4    4  502    0 -0.14209518065E+02 -0.48417183072E+01 -0.38037027126E+03  0.38069539779E+03  0.47000000000E+01 0.  1.
         -5    1    4    4    0  502 -0.95915982014E+01 -0.43051732511E+02 -0.35435731174E+02  0.56773510303E+02  0.47000000000E+01 0.  1.
          5    1    5    5  503    0  0.57742568379E+02  0.19638431780E+02 -0.10455715033E+03  0.12113694684E+03  0.47000000000E+01 0.  1.
         -5    1    5    5    0  503 -0.33941452113E+02  0.28255019039E+02 -0.36614351040E+03  0.36882723392E+03  0.47000000000E+01 0.  1.
<mgrwt>
<rscale>  0 0.27246664E+03</rscale>
<asrwt>0</asrwt>
<pdfrwt beam="1">  1        1 0.13953382E+00 0.27246664E+03</pdfrwt>
<pdfrwt beam="2">  1       -1 0.31481867E-02 0.27246664E+03</pdfrwt>
<totfact> 0.66125808E+03</totfact>
</mgrwt>
</event>
<event>
 9    1  0.7816570E-001  0.2790205E+03  0.7818608E-02  0.1096225E+00
         -1   -1    0    0    0  501 -0.00000000000E+00  0.00000000000E+00  0.76057276099E+02  0.76057276099E+02  0.00000000000E+00 0. -1.
          1   -1    0    0  501    0  0.00000000000E+00 -0.00000000000E+00 -0.25590076176E+03  0.25590076176E+03  0.00000000000E+00 0. -1.
         35    2    1    2    0    0  0.53290705182E-14  0.00000000000E+00 -0.17984348566E+03  0.33195803786E+03  0.27902053610E+03 0.  0.
         25    2    3    3    0    0 -0.14001764592E+02 -0.22232868333E+02 -0.22499693028E+02  0.12952144023E+03  0.12481673545E+03 0.  0.
         25    2    3    3    0    0  0.14001764592E+02  0.22232868333E+02 -0.15734379263E+03  0.20243659762E+03  0.12463208709E+03 0.  0.
          5    1    4    4  502    0 -0.41967035004E+02  0.37510040779E+02 -0.28225317785E+02  0.63142646051E+02  0.47000000000E+01 0. -1.
         -5    1    4    4    0  502  0.27965270412E+02 -0.59742909112E+02  0.57256247565E+01  0.66378794184E+02  0.47000000000E+01 0. -1.
          5    1    5    5  503    0  0.17117038884E+02  0.56282946078E+02 -0.22358931354E+02  0.63109229521E+02  0.47000000000E+01 0. -1.
         -5    1    5    5    0  503 -0.31152742927E+01 -0.34050077746E+02 -0.13498486128E+03  0.13932736810E+03  0.47000000000E+01 0. -1.
<mgrwt>
<rscale>  0 0.27902054E+03</rscale>
<asrwt>0</asrwt>
<pdfrwt beam="1">  1        1 0.39369347E-01 0.27902054E+03</pdfrwt>
<pdfrwt beam="2">  1       -1 0.11701120E-01 0.27902054E+03</pdfrwt>
<totfact> 0.50798457E+03</totfact>
</mgrwt>
</event>
<event>
 9    1  0.7816570E-001  0.2750216E+03  0.7818608E-02  0.1098440E+00
         -2   -1    0    0    0  501 -0.00000000000E+00  0.00000000000E+00  0.11607055297E+02  0.11607055297E+02  0.00000000000E+00 0.  1.
          2   -1    0    0  501    0  0.00000000000E+00 -0.00000000000E+00 -0.16291145977E+04  0.16291145977E+04  0.00000000000E+00 0.  1.
         35    2    1    2    0    0  0.00000000000E+00  0.71054273576E-14 -0.16175075424E+04  0.16407216530E+04  0.27502162257E+03 0.  0.
         25    2    3    3    0    0 -0.13612349256E+02  0.71670317265E+01 -0.11359236579E+04  0.11428846980E+04  0.12500485552E+03 0.  0.
         25    2    3    3    0    0  0.13612349256E+02 -0.71670317265E+01 -0.48158388450E+03  0.49783695501E+03  0.12522752721E+03 0.  0.
          5    1    4    4  502    0 -0.19555684192E+00 -0.48566522134E+02 -0.84042203610E+03  0.84183729668E+03  0.47000000000E+01 0. -1.
         -5    1    4    4    0  502 -0.13416792414E+02  0.55733553860E+02 -0.29550162179E+03  0.30104740130E+03  0.47000000000E+01 0. -1.
          5    1    5    5  503    0  0.20163823406E+02 -0.44242860131E+02 -0.75115774203E+02  0.89601785591E+02  0.47000000000E+01 0.  1.
         -5    1    5    5    0  503 -0.65514741494E+01  0.37075828405E+02 -0.40646811029E+03  0.40823516942E+03  0.47000000000E+01 0.  1.
<mgrwt>
<rscale>  0 0.27502162E+03</rscale>
<asrwt>0</asrwt>
<pdfrwt beam="1">  1        2 0.25063278E+00 0.27502162E+03</pdfrwt>
<pdfrwt beam="2">  1       -2 0.17857025E-02 0.27502162E+03</pdfrwt>
<totfact> 0.10637835E+04</totfact>
</mgrwt>
</event>
<event>
 9    1  0.7816570E-001  0.2660268E+03  0.7818608E-02  0.1103575E+00
         -2   -1    0    0    0  501 -0.00000000000E+00  0.00000000000E+00  0.21028736673E+02  0.21028736673E+02  0.00000000000E+00 0.  1.
          2   -1    0    0  501    0  0.00000000000E+00 -0.00000000000E+00 -0.84135206878E+03  0.84135206878E+03  0.00000000000E+00 0.  1.
         35    2    1    2    0    0  0.00000000000E+00  0.00000000000E+00 -0.82032333210E+03  0.86238080545E+03  0.26602684905E+03 0.  0.
         25    2    3    3    0    0  0.38926614584E+02 -0.41867530530E+01 -0.36026329178E+03  0.38345805657E+03  0.12536997854E+03 0.  0.
         25    2    3    3    0    0 -0.38926614584E+02  0.41867530530E+01 -0.46006004032E+03  0.47892274888E+03  0.12719649551E+03 0.  0.
          5    1    4    4  502    0 -0.30740072729E+02  0.17772485948E+02 -0.35066965549E+02  0.50125795764E+02  0.47000000000E+01 0. -1.
         -5    1    4    4    0  502  0.69666687313E+02 -0.21959239001E+02 -0.32519632624E+03  0.33333226081E+03  0.47000000000E+01 0. -1.
          5    1    5    5  503    0 -0.38317976848E+01  0.63485939837E+02 -0.20640383373E+03  0.21603189535E+03  0.47000000000E+01 0.  1.
         -5    1    5    5    0  503 -0.35094816899E+02 -0.59299186784E+02 -0.25365620659E+03  0.26289085353E+03  0.47000000000E+01 0.  1.
<mgrwt>
<rscale>  0 0.26602685E+03</rscale>
<asrwt>0</asrwt>
<pdfrwt beam="1">  1        2 0.12943880E+00 0.26602685E+03</pdfrwt>
<pdfrwt beam="2">  1       -2 0.32351898E-02 0.26602685E+03</pdfrwt>
<totfact> 0.12508740E+04</totfact>
</mgrwt>
</event>
<event>
 9    1  0.7816570E-001  0.2754347E+03  0.7818608E-02  0.1098209E+00
          1   -1    0    0  501    0  0.00000000000E+00  0.00000000000E+00  0.48030533908E+03  0.48030533908E+03  0.00000000000E+00 0.  1.
         -1   -1    0    0    0  501 -0.00000000000E+00 -0.00000000000E+00 -0.39487521388E+02  0.39487521388E+02  0.00000000000E+00 0.  1.
         35    2    1    2    0    0 -0.71054273576E-14  0.35527136788E-14  0.44081781769E+03  0.51979286047E+03  0.27543469171E+03 0.  0.
         25    2    3    3    0    0 -0.13367342747E+02 -0.23569258589E+02  0.31495247335E+03  0.34002461564E+03  0.12524968249E+03 0.  0.
         25    2    3    3    0    0  0.13367342747E+02  0.23569258589E+02  0.12586534434E+03  0.17976824483E+03  0.12546051627E+03 0.  0.
          5    1    4    4  502    0 -0.57118881681E+02 -0.28256266125E+02  0.87734937354E+02  0.10853797700E+03  0.47000000000E+01 0.  1.
         -5    1    4    4    0  502  0.43751538935E+02  0.46870075354E+01  0.22721753600E+03  0.23148663863E+03  0.47000000000E+01 0.  1.
          5    1    5    5  503    0  0.47611491334E+02 -0.11252916187E+02  0.12083316593E+03  0.13044625797E+03  0.47000000000E+01 0.  1.
         -5    1    5    5    0  503 -0.34244148588E+02  0.34822174776E+02  0.50321784107E+01  0.49321986864E+02  0.47000000000E+01 0.  1.
<mgrwt>
<rscale>  0 0.27543469E+03</rscale>
<asrwt>0</asrwt>
<pdfrwt beam="1">  1        1 0.73893125E-01 0.27543469E+03</pdfrwt>
<pdfrwt beam="2">  1       -1 0.60750036E-02 0.27543469E+03</pdfrwt>
<totfact> 0.62171457E+03</totfact>
</mgrwt>
</event>
<event>
 9    1  0.7816570E-001  0.2743743E+03  0.7818608E-02  0.1098802E+00
          2   -1    0    0  501    0  0.00000000000E+00  0.00000000000E+00  0.25452721453E+04  0.25452721453E+04  0.00000000000E+00 0.  1.
         -2   -1    0    0    0  501 -0.00000000000E+00 -0.00000000000E+00 -0.73942258901E+01  0.73942258901E+01  0.00000000000E+00 0.  1.
         35    2    1    2    0    0  0.00000000000E+00  0.00000000000E+00  0.25378779194E+04  0.25526663712E+04  0.27437432237E+03 0.  0.
         25    2    3    3    0    0 -0.17437489635E+01  0.54977294661E+02  0.11528107414E+04  0.11609485149E+04  0.12571119755E+03 0.  0.
         25    2    3    3    0    0  0.17437489635E+01 -0.54977294661E+02  0.13850671780E+04  0.13917178563E+04  0.12426568435E+03 0.  0.
          5    1    4    4  502    0  0.23968523467E+02  0.45649094416E+02  0.11006250935E+04  0.11018421014E+04  0.47000000000E+01 0. -1.
         -5    1    4    4    0  502 -0.25712272431E+02  0.93282002450E+01  0.52185647929E+02  0.59106413553E+02  0.47000000000E+01 0. -1.
          5    1    5    5  503    0 -0.38669710667E+02 -0.10370198453E+02  0.10789987808E+04  0.10797515207E+04  0.47000000000E+01 0.  1.
         -5    1    5    5    0  503  0.40413459631E+02 -0.44607096208E+02  0.30606839725E+03  0.31196633559E+03  0.47000000000E+01 0.  1.
<mgrwt>
<rscale>  0 0.27437432E+03</rscale>
<asrwt>0</asrwt>
<pdfrwt beam="1">  1        2 0.39157963E+00 0.27437432E+03</pdfrwt>
<pdfrwt beam="2">  1       -2 0.11375752E-02 0.27437432E+03</pdfrwt>
<totfact> 0.66933328E+03</totfact>
</mgrwt>
</event>
<event>
 9    1  0.7816570E-001  0.2717912E+03  0.7818608E-02  0.1100259E+00
         -2   -1    0    0    0  501 -0.00000000000E+00  0.00000000000E+00  0.52468299010E+01  0.52468299010E+01  0.00000000000E+00 0. -1.
          2   -1    0    0  501    0  0.00000000000E+00 -0.00000000000E+00 -0.35197648464E+04  0.35197648464E+04  0.00000000000E+00 0. -1.
         35    2    1    2    0    0 -0.71054273576E-14  0.71054273576E-14 -0.35145180165E+04  0.35250116763E+04  0.27179115100E+03 0.  0.
         25    2    3    3    0    0 -0.26207933577E+02  0.30317654855E+02 -0.13047244947E+04  0.13113420119E+04  0.12532297895E+03 0.  0.
         25    2    3    3    0    0  0.26207933577E+02 -0.30317654855E+02 -0.22097935218E+04  0.22136696645E+04  0.12465936888E+03 0.  0.
          5    1    4    4  502    0 -0.46022968348E+02  0.66839790228E+02 -0.10562603521E+04  0.10593836381E+04  0.47000000000E+01 0.  1.
         -5    1    4    4    0  502  0.19815034771E+02 -0.36522135373E+02 -0.24846414256E+03  0.25195837377E+03  0.47000000000E+01 0.  1.
          5    1    5    5  503    0 -0.38830789153E+02 -0.19746217691E+02 -0.15407221363E+04  0.15413450407E+04  0.47000000000E+01 0.  1.
         -5    1    5    5    0  503  0.65038722731E+02 -0.10571437164E+02 -0.66907138553E+03  0.67232462373E+03  0.47000000000E+01 0.  1.
<mgrwt>
<rscale>  0 0.27179115E+03</rscale>
<asrwt>0</asrwt>
<pdfrwt beam="1">  1        2 0.54150192E+00 0.27179115E+03</pdfrwt>
<pdfrwt beam="2">  1       -2 0.80720515E-03 0.27179115E+03</pdfrwt>
<totfact> 0.28638827E+03</totfact>
</mgrwt>
</event>
<event>
 9    1  0.7816570E-001  0.3071742E+03  0.7818608E-02  0.1081708E+00
         -2   -1    0    0    0  501 -0.00000000000E+00  0.00000000000E+00  0.42828261748E+02  0.42828261748E+02  0.00000000000E+00 0.  1.
          2   -1    0    0  501    0  0.00000000000E+00 -0.00000000000E+00 -0.55078104379E+03  0.55078104379E+03  0.00000000000E+00 0.  1.
         35    2    1    2    0    0 -0.71054273576E-14  0.00000000000E+00 -0.50795278204E+03  0.59360930553E+03  0.30717418322E+03 0.  0.
         25    2    3    3    0    0 -0.44965098229E+02 -0.73660292551E+02 -0.29813855809E+03  0.33361514598E+03  0.12233056465E+03 0.  0.
         25    2    3    3    0    0  0.44965098229E+02  0.73660292551E+02 -0.20981422395E+03  0.25999415956E+03  0.12699313239E+03 0.  0.
          5    1    4    4  502    0 -0.25405685236E+02  0.15805439727E+02 -0.11055367712E+02  0.32242393250E+02  0.47000000000E+01 0. -1.
         -5    1    4    4    0  502 -0.19559412993E+02 -0.89465732278E+02 -0.28708319038E+03  0.30137275273E+03  0.47000000000E+01 0. -1.
          5    1    5    5  503    0  0.14590698603E+02  0.10656604261E+03 -0.15994362012E+03  0.19280368653E+03  0.47000000000E+01 0.  1.
         -5    1    5    5    0  503  0.30374399627E+02 -0.32905750055E+02 -0.49870603832E+02  0.67190473030E+02  0.47000000000E+01 0.  1.
<mgrwt>
<rscale>  0 0.30717418E+03</rscale>
<asrwt>0</asrwt>
<pdfrwt beam="1">  1        2 0.84735548E-01 0.30717418E+03</pdfrwt>
<pdfrwt beam="2">  1       -2 0.65889632E-02 0.30717418E+03</pdfrwt>
<totfact> 0.71354732E+03</totfact>
</mgrwt>
</event>
<event>
 9    1  0.7816570E-001  0.2764881E+03  0.7818608E-02  0.1097623E+00
          2   -1    0    0  501    0  0.00000000000E+00  0.00000000000E+00  0.88907096138E+03  0.88907096138E+03  0.00000000000E+00 0. -1.
         -2   -1    0    0    0  501 -0.00000000000E+00 -0.00000000000E+00 -0.21495941765E+02  0.21495941765E+02  0.00000000000E+00 0. -1.
         35    2    1    2    0    0  0.00000000000E+00  0.71054273576E-14  0.86757501962E+03  0.91056690315E+03  0.27648810181E+03 0.  0.
         25    2    3    3    0    0 -0.41453255967E+02  0.26838583532E+02  0.53443555536E+03  0.55139701414E+03  0.12640657567E+03 0.  0.
         25    2    3    3    0    0  0.41453255967E+02 -0.26838583532E+02  0.33313946426E+03  0.35916988901E+03  0.12482958194E+03 0.  0.
          5    1    4    4  502    0 -0.81223903484E+02 -0.41431926457E+01  0.26477573385E+03  0.27702485047E+03  0.47000000000E+01 0.  1.
         -5    1    4    4    0  502  0.39770647517E+02  0.30981776178E+02  0.26965982151E+03  0.27437216367E+03  0.47000000000E+01 0.  1.
          5    1    5    5  503    0  0.47606813128E+02 -0.59859077156E+02  0.11360984573E+03  0.13703577935E+03  0.47000000000E+01 0. -1.
         -5    1    5    5    0  503 -0.61535571609E+01  0.33020493624E+02  0.21952961853E+03  0.22213410966E+03  0.47000000000E+01 0. -1.
<mgrwt>
<rscale>  0 0.27648810E+03</rscale>
<asrwt>0</asrwt>
<pdfrwt beam="1">  1        2 0.13678012E+00 0.27648810E+03</pdfrwt>
<pdfrwt beam="2">  1       -2 0.33070687E-02 0.27648810E+03</pdfrwt>
<totfact> 0.11273788E+04</totfact>
</mgrwt>
</event>
<event>
 9    1  0.7816570E-001  0.2648648E+03  0.7818608E-02  0.1104255E+00
         -2   -1    0    0    0  501 -0.00000000000E+00  0.00000000000E+00  0.76472811452E+02  0.76472811452E+02  0.00000000000E+00 0. -1.
          2   -1    0    0  501    0  0.00000000000E+00 -0.00000000000E+00 -0.22934086612E+03  0.22934086612E+03  0.00000000000E+00 0. -1.
         35    2    1    2    0    0  0.00000000000E+00  0.00000000000E+00 -0.15286805467E+03  0.30581367757E+03  0.26486480184E+03 0.  0.
         25    2    3    3    0    0 -0.14975992885E+02  0.15056115461E+02 -0.11954255646E+03  0.17543188675E+03  0.12662921112E+03 0.  0.
         25    2    3    3    0    0  0.14975992885E+02 -0.15056115461E+02 -0.33325498211E+02  0.13038179082E+03  0.12424916729E+03 0.  0.
          5    1    4    4  502    0 -0.53244493492E+02 -0.22180530460E+02 -0.10500117499E+03  0.11989282200E+03  0.47000000000E+01 0.  1.
         -5    1    4    4    0  502  0.38268500607E+02  0.37236645920E+02 -0.14541381470E+02  0.55539064749E+02  0.47000000000E+01 0.  1.
          5    1    5    5  503    0 -0.43355610073E+02 -0.42961563025E+02 -0.16387237015E+02  0.63372204942E+02  0.47000000000E+01 0.  1.
         -5    1    5    5    0  503  0.58331602958E+02  0.27905447564E+02 -0.16938261196E+02  0.67009585879E+02  0.47000000000E+01 0.  1.
<mgrwt>
<rscale>  0 0.26486480E+03</rscale>
<asrwt>0</asrwt>
<pdfrwt beam="1">  1        2 0.35283209E-01 0.26486480E+03</pdfrwt>
<pdfrwt beam="2">  1       -2 0.11765048E-01 0.26486480E+03</pdfrwt>
<totfact> 0.74090361E+03</totfact>
</mgrwt>
</event>
<event>
 9    1  0.7816570E-001  0.2746310E+03  0.7818608E-02  0.1098658E+00
          4   -1    0    0  501    0  0.00000000000E+00  0.00000000000E+00  0.57558584281E+03  0.57558584281E+03  0.00000000000E+00 0.  1.
         -4   -1    0    0    0  501 -0.00000000000E+00 -0.00000000000E+00 -0.32758866410E+02  0.32758866410E+02  0.00000000000E+00 0.  1.
         35    2    1    2    0    0  0.00000000000E+00 -0.71054273576E-14  0.54282697640E+03  0.60834470922E+03  0.27463095042E+03 0.  0.
         25    2    3    3    0    0  0.44892361353E+02  0.27519655845E+02  0.21683641282E+03  0.25515026886E+03  0.12373752144E+03 0.  0.
         25    2    3    3    0    0 -0.44892361353E+02 -0.27519655845E+02  0.32599056358E+03  0.35319444035E+03  0.12531484185E+03 0.  0.
          5    1    4    4  502    0  0.66465620860E+02  0.50426940169E+02  0.83727073166E+02  0.11829145291E+03  0.47000000000E+01 0.  1.
         -5    1    4    4    0  502 -0.21573259507E+02 -0.22907284324E+02  0.13310933965E+03  0.13685881595E+03  0.47000000000E+01 0.  1.
          5    1    5    5  503    0 -0.35855314844E+02 -0.74680310284E+02  0.15866313311E+03  0.17904980356E+03  0.47000000000E+01 0.  1.
         -5    1    5    5    0  503 -0.90370465096E+01  0.47160654438E+02  0.16732743046E+03  0.17414463679E+03  0.47000000000E+01 0.  1.
<mgrwt>
<rscale>  0 0.27463095E+03</rscale>
<asrwt>0</asrwt>
<pdfrwt beam="1">  1        4 0.88551660E-01 0.27463095E+03</pdfrwt>
<pdfrwt beam="2">  1       -4 0.50398260E-02 0.27463095E+03</pdfrwt>
<totfact> 0.49891034E+02</totfact>
</mgrwt>
</event>
<event>
 9    1  0.7816570E-001  0.2745139E+03  0.7818608E-02  0.1098724E+00
         -2   -1    0    0    0  501 -0.00000000000E+00  0.00000000000E+00  0.20669465243E+02  0.20669465243E+02  0.00000000000E+00 0.  1.
          2   -1    0    0  501    0  0.00000000000E+00 -0.00000000000E+00 -0.91146364514E+03  0.91146364514E+03  0.00000000000E+00 0.  1.
         35    2    1    2    0    0 -0.14210854715E-13  0.14210854715E-13 -0.89079417990E+03  0.93213311039E+03  0.27451386947E+03 0.  0.
         25    2    3    3    0    0 -0.40893967985E+02  0.35027515164E+02 -0.38542890460E+03  0.40874527285E+03  0.12497205343E+03 0.  0.
         25    2    3    3    0    0  0.40893967985E+02 -0.35027515164E+02 -0.50536527530E+03  0.52338783754E+03  0.12506607680E+03 0.  0.
          5    1    4    4  502    0 -0.16526333465E+02  0.59789910048E+02 -0.80148548215E+02  0.10145852760E+03  0.47000000000E+01 0. -1.
         -5    1    4    4    0  502 -0.24367634521E+02 -0.24762394885E+02 -0.30528035638E+03  0.30728674525E+03  0.47000000000E+01 0. -1.
          5    1    5    5  503    0  0.40994527354E+02  0.41831551223E+02 -0.23887959406E+03  0.24599996018E+03  0.47000000000E+01 0.  1.
         -5    1    5    5    0  503 -0.10055936816E+00 -0.76859066387E+02 -0.26648568125E+03  0.27738787736E+03  0.47000000000E+01 0.  1.
<mgrwt>
<rscale>  0 0.27451387E+03</rscale>
<asrwt>0</asrwt>
<pdfrwt beam="1">  1        2 0.14022511E+00 0.27451387E+03</pdfrwt>
<pdfrwt beam="2">  1       -2 0.31799192E-02 0.27451387E+03</pdfrwt>
<totfact> 0.11558774E+04</totfact>
</mgrwt>
</event>
<event>
 9    1  0.7816570E-001  0.2756906E+03  0.7818608E-02  0.1098066E+00
          2   -1    0    0  501    0  0.00000000000E+00  0.00000000000E+00  0.91006336901E+03  0.91006336901E+03  0.00000000000E+00 0.  1.
         -2   -1    0    0    0  501 -0.00000000000E+00 -0.00000000000E+00 -0.20879129173E+02  0.20879129173E+02  0.00000000000E+00 0.  1.
         35    2    1    2    0    0 -0.71054273576E-14  0.88817841970E-15  0.88918423984E+03  0.93094249819E+03  0.27569062833E+03 0.  0.
         25    2    3    3    0    0 -0.47020942331E+02  0.17968674916E+01  0.54234324947E+03  0.55860451043E+03  0.12525414596E+03 0.  0.
         25    2    3    3    0    0  0.47020942331E+02 -0.17968674916E+01  0.34684099037E+03  0.37233798775E+03  0.12697522110E+03 0.  0.
          5    1    4    4  502    0 -0.29914937800E+02 -0.13820487285E+02  0.53160241392E+03  0.53264352606E+03  0.47000000000E+01 0.  1.
         -5    1    4    4    0  502 -0.17106004531E+02  0.15617354777E+02  0.10740835555E+02  0.25960984374E+02  0.47000000000E+01 0.  1.
          5    1    5    5  503    0 -0.30501423277E+02 -0.14391858060E+01  0.22983221929E+03  0.23189943317E+03  0.47000000000E+01 0. -1.
         -5    1    5    5    0  503  0.77522365608E+02 -0.35768168554E+00  0.11700877108E+03  0.14043855459E+03  0.47000000000E+01 0. -1.
<mgrwt>
<rscale>  0 0.27569063E+03</rscale>
<asrwt>0</asrwt>
<pdfrwt beam="1">  1        2 0.14000972E+00 0.27569063E+03</pdfrwt>
<pdfrwt beam="2">  1       -2 0.32121744E-02 0.27569063E+03</pdfrwt>
<totfact> 0.11411287E+04</totfact>
</mgrwt>
</event>
<event>
 9    1  0.7816570E-001  0.2775047E+03  0.7818608E-02  0.1097060E+00
         -4   -1    0    0    0  501 -0.00000000000E+00  0.00000000000E+00  0.82783035746E+02  0.82783035746E+02  0.00000000000E+00 0.  1.
          4   -1    0    0  501    0  0.00000000000E+00 -0.00000000000E+00 -0.23256238826E+03  0.23256238826E+03  0.00000000000E+00 0.  1.
         35    2    1    2    0    0  0.00000000000E+00  0.00000000000E+00 -0.14977935251E+03  0.31534542400E+03  0.27750474230E+03 0.  0.
         25    2    3    3    0    0 -0.40090003199E+02  0.40385818519E+02 -0.86019372025E+02  0.16219067545E+03  0.12517292098E+03 0.  0.
         25    2    3    3    0    0  0.40090003199E+02 -0.40385818519E+02 -0.63759980485E+02  0.15315474855E+03  0.12709374178E+03 0.  0.
          5    1    4    4  502    0 -0.73592052295E+02  0.41230701342E+02 -0.95045235719E+02  0.12716700723E+03  0.47000000000E+01 0. -1.
         -5    1    4    4    0  502  0.33502049095E+02 -0.84488282287E+00  0.90258636936E+01  0.35023668226E+02  0.47000000000E+01 0. -1.
          5    1    5    5  503    0  0.83104327270E+02 -0.70686618396E+01 -0.47863584339E+02  0.96277244959E+02  0.47000000000E+01 0.  1.
         -5    1    5    5    0  503 -0.43014324070E+02 -0.33317156679E+02 -0.15896396146E+02  0.56877503592E+02  0.47000000000E+01 0.  1.
<mgrwt>
<rscale>  0 0.27750474E+03</rscale>
<asrwt>0</asrwt>
<pdfrwt beam="1">  1        4 0.35778828E-01 0.27750474E+03</pdfrwt>
<pdfrwt beam="2">  1       -4 0.12735852E-01 0.27750474E+03</pdfrwt>
<totfact> 0.71291437E+02</totfact>
</mgrwt>
</event>
<event>
 9    1  0.7816570E-001  0.2792052E+03  0.7818608E-02  0.1096124E+00
          1   -1    0    0  501    0  0.00000000000E+00  0.00000000000E+00  0.83972460734E+03  0.83972460734E+03  0.00000000000E+00 0.  1.
         -1   -1    0    0    0  501 -0.00000000000E+00 -0.00000000000E+00 -0.23208664903E+02  0.23208664903E+02  0.00000000000E+00 0.  1.
         35    2    1    2    0    0  0.00000000000E+00  0.00000000000E+00  0.81651594243E+03  0.86293327224E+03  0.27920520785E+03 0.  0.
         25    2    3    3    0    0 -0.28708111769E+02  0.11698269834E+02  0.24278116633E+03  0.27472915454E+03  0.12478945641E+03 0.  0.
         25    2    3    3    0    0  0.28708111769E+02 -0.11698269834E+02  0.57373477610E+03  0.58820411770E+03  0.12590268294E+03 0.  0.
          5    1    4    4  502    0  0.41130261010E+02  0.25008838112E+02  0.51700886947E+02  0.70796977800E+02  0.47000000000E+01 0.  1.
         -5    1    4    4    0  502 -0.69838372779E+02 -0.13310568277E+02  0.19108027938E+03  0.20393217674E+03  0.47000000000E+01 0.  1.
          5    1    5    5  503    0  0.25192818797E+02  0.53352795877E+02  0.35589523799E+03  0.36078346604E+03  0.47000000000E+01 0.  1.
         -5    1    5    5    0  503  0.35152929712E+01 -0.65051065711E+02  0.21783953812E+03  0.22742065166E+03  0.47000000000E+01 0.  1.
<mgrwt>
<rscale>  0 0.27920521E+03</rscale>
<asrwt>0</asrwt>
<pdfrwt beam="1">  1        1 0.12918838E+00 0.27920521E+03</pdfrwt>
<pdfrwt beam="2">  1       -1 0.35705645E-02 0.27920521E+03</pdfrwt>
<totfact> 0.62137812E+03</totfact>
</mgrwt>
</event>
<event>
 9    1  0.7816570E-001  0.2769997E+03  0.7818608E-02  0.1097339E+00
         -1   -1    0    0    0  501 -0.00000000000E+00  0.00000000000E+00  0.46303576632E+02  0.46303576632E+02  0.00000000000E+00 0. -1.
          1   -1    0    0  501    0  0.00000000000E+00 -0.00000000000E+00 -0.41427040876E+03  0.41427040876E+03  0.00000000000E+00 0. -1.
         35    2    1    2    0    0  0.00000000000E+00 -0.35527136788E-14 -0.36796683212E+03  0.46057398539E+03  0.27699965067E+03 0.  0.
         25    2    3    3    0    0 -0.15216797343E+02 -0.29264811153E+02 -0.99630591163E+02  0.16303659246E+03  0.12476656480E+03 0.  0.
         25    2    3    3    0    0  0.15216797343E+02  0.29264811153E+02 -0.26833624096E+03  0.29753739293E+03  0.12424243191E+03 0.  0.
          5    1    4    4  502    0  0.16686070913E+02  0.37744670181E+02 -0.37599116552E+01  0.41705059948E+02  0.47000000000E+01 0.  1.
         -5    1    4    4    0  502 -0.31902868256E+02 -0.67009481334E+02 -0.95870679508E+02  0.12133153251E+03  0.47000000000E+01 0.  1.
          5    1    5    5  503    0  0.13359971120E+02  0.57556954754E+02 -0.50663248204E+02  0.77975294725E+02  0.47000000000E+01 0. -1.
         -5    1    5    5    0  503  0.18568262232E+01 -0.28292143600E+02 -0.21767299276E+03  0.21956209821E+03  0.47000000000E+01 0. -1.
<mgrwt>
<rscale>  0 0.27699965E+03</rscale>
<asrwt>0</asrwt>
<pdfrwt beam="1">  1        1 0.63733911E-01 0.27699965E+03</pdfrwt>
<pdfrwt beam="2">  1       -1 0.71236270E-02 0.27699965E+03</pdfrwt>
<totfact> 0.59239295E+03</totfact>
</mgrwt>
</event>
<event>
 9    1  0.7816570E-001  0.2746689E+03  0.7818608E-02  0.1098637E+00
          1   -1    0    0  501    0  0.00000000000E+00  0.00000000000E+00  0.51319245593E+03  0.51319245593E+03  0.00000000000E+00 0. -1.
         -1   -1    0    0    0  501 -0.00000000000E+00 -0.00000000000E+00 -0.36751796701E+02  0.36751796701E+02  0.00000000000E+00 0. -1.
         35    2    1    2    0    0  0.71054273576E-14  0.35527136788E-14  0.47644065923E+03  0.54994425263E+03  0.27466885378E+03 0.  0.
         25    2    3    3    0    0  0.48087160496E+02  0.27602395193E+02  0.22500465650E+03  0.26359233014E+03  0.12561669410E+03 0.  0.
         25    2    3    3    0    0 -0.48087160496E+02 -0.27602395193E+02  0.25143600273E+03  0.28635192249E+03  0.12531198195E+03 0.  0.
          5    1    4    4  502    0 -0.24207923158E+01  0.19142178890E+02  0.20870002411E+03  0.20964272778E+03  0.47000000000E+01 0.  1.
         -5    1    4    4    0  502  0.50507952812E+02  0.84602163034E+01  0.16304632385E+02  0.53949602356E+02  0.47000000000E+01 0.  1.
          5    1    5    5  503    0 -0.74035250993E+02 -0.16552646339E+02  0.72146817474E+02  0.10479724119E+03  0.47000000000E+01 0. -1.
         -5    1    5    5    0  503  0.25948090497E+02 -0.11049748854E+02  0.17928918526E+03  0.18155468130E+03  0.47000000000E+01 0. -1.
<mgrwt>
<rscale>  0 0.27466885E+03</rscale>
<asrwt>0</asrwt>
<pdfrwt beam="1">  1        1 0.78952680E-01 0.27466885E+03</pdfrwt>
<pdfrwt beam="2">  1       -1 0.56541229E-02 0.27466885E+03</pdfrwt>
<totfact> 0.63441842E+03</totfact>
</mgrwt>
</event>
<event>
 9    1  0.7816570E-001  0.2778335E+03  0.7818608E-02  0.1096878E+00
          1   -1    0    0  501    0  0.00000000000E+00  0.00000000000E+00  0.12505417564E+04  0.12505417564E+04  0.00000000000E+00 0.  1.
         -1   -1    0    0    0  501 -0.00000000000E+00 -0.00000000000E+00 -0.15431597893E+02  0.15431597893E+02  0.00000000000E+00 0.  1.
         35    2    1    2    0    0  0.00000000000E+00  0.71054273576E-14  0.12351101586E+04  0.12659733543E+04  0.27783345755E+03 0.  0.
         25    2    3    3    0    0  0.54434190041E+02 -0.96558927618E+01  0.50600192781E+03  0.52405306151E+03  0.12464887895E+03 0.  0.
         25    2    3    3    0    0 -0.54434190041E+02  0.96558927618E+01  0.72910823075E+03  0.74192029283E+03  0.12566062017E+03 0.  0.
          5    1    4    4  502    0  0.12906855864E+02 -0.64599281480E+02  0.21165328047E+03  0.22171796325E+03  0.47000000000E+01 0.  1.
         -5    1    4    4    0  502  0.41527334177E+02  0.54943388718E+02  0.29434864734E+03  0.30233509826E+03  0.47000000000E+01 0.  1.
          5    1    5    5  503    0  0.17072025225E+02  0.51389725210E+02  0.28678095396E+03  0.29188655923E+03  0.47000000000E+01 0.  1.
         -5    1    5    5    0  503 -0.71506215266E+02 -0.41733832449E+02  0.44232727678E+03  0.45003373360E+03  0.47000000000E+01 0.  1.
<mgrwt>
<rscale>  0 0.27783346E+03</rscale>
<asrwt>0</asrwt>
<pdfrwt beam="1">  1        1 0.19239096E+00 0.27783346E+03</pdfrwt>
<pdfrwt beam="2">  1       -1 0.23740930E-02 0.27783346E+03</pdfrwt>
<totfact> 0.56270401E+03</totfact>
</mgrwt>
</event>
<event>
 9    1  0.7816570E-001  0.2762745E+03  0.7818608E-02  0.1097741E+00
          1   -1    0    0  501    0  0.00000000000E+00  0.00000000000E+00  0.14652430118E+04  0.14652430118E+04  0.00000000000E+00 0.  1.
         -1   -1    0    0    0  501 -0.00000000000E+00 -0.00000000000E+00 -0.13023027273E+02  0.13023027273E+02  0.00000000000E+00 0.  1.
         35    2    1    2    0    0  0.00000000000E+00  0.35527136788E-14  0.14522199846E+04  0.14782660391E+04  0.27627449904E+03 0.  0.
         25    2    3    3    0    0  0.40204345997E+02 -0.29949931896E+02  0.83434011252E+03  0.84519418395E+03  0.12536505640E+03 0.  0.
         25    2    3    3    0    0 -0.40204345997E+02  0.29949931896E+02  0.61787987205E+03  0.63307185517E+03  0.12841748191E+03 0.  0.
          5    1    4    4  502    0 -0.34870168378E+02 -0.46162262419E+02  0.36699425726E+03  0.37155586118E+03  0.47000000000E+01 0. -1.
         -5    1    4    4    0  502  0.75074514376E+02  0.16212330522E+02  0.46734585526E+03  0.47363832277E+03  0.47000000000E+01 0. -1.
          5    1    5    5  503    0  0.39990999284E+01 -0.37722798557E+02  0.37732996421E+03  0.37926111614E+03  0.47000000000E+01 0. -1.
         -5    1    5    5    0  503 -0.44203445926E+02  0.67672730453E+02  0.24054990785E+03  0.25381073902E+03  0.47000000000E+01 0. -1.
<mgrwt>
<rscale>  0 0.27627450E+03</rscale>
<asrwt>0</asrwt>
<pdfrwt beam="1">  1        1 0.22542187E+00 0.27627450E+03</pdfrwt>
<pdfrwt beam="2">  1       -1 0.20035438E-02 0.27627450E+03</pdfrwt>
<totfact> 0.51622159E+03</totfact>
</mgrwt>
</event>
<event>
 9    1  0.7816570E-001  0.2763121E+03  0.7818608E-02  0.1097720E+00
          2   -1    0    0  501    0  0.00000000000E+00  0.00000000000E+00  0.10891457966E+04  0.10891457966E+04  0.00000000000E+00 0.  1.
         -2   -1    0    0    0  501 -0.00000000000E+00 -0.00000000000E+00 -0.17524833915E+02  0.17524833915E+02  0.00000000000E+00 0.  1.
         35    2    1    2    0    0  0.35527136788E-14  0.00000000000E+00  0.10716209627E+04  0.11066706305E+04  0.27631213650E+03 0.  0.
         25    2    3    3    0    0  0.30966650757E+02  0.50187297406E+02  0.56167548444E+03  0.57837515160E+03  0.12474280696E+03 0.  0.
         25    2    3    3    0    0 -0.30966650757E+02 -0.50187297406E+02  0.50994547824E+03  0.52829547891E+03  0.12479592934E+03 0.  0.
          5    1    4    4  502    0  0.47291763292E+02 -0.29693471652E+02  0.24668661975E+03  0.25297152309E+03  0.47000000000E+01 0. -1.
         -5    1    4    4    0  502 -0.16325112535E+02  0.79880769058E+02  0.31498886469E+03  0.32540362851E+03  0.47000000000E+01 0. -1.
          5    1    5    5  503    0 -0.45568137583E+02  0.14343270958E+02  0.37361168132E+03  0.37668284140E+03  0.47000000000E+01 0. -1.
         -5    1    5    5    0  503  0.14601486826E+02 -0.64530568364E+02  0.13633379692E+03  0.15161263751E+03  0.47000000000E+01 0. -1.
<mgrwt>
<rscale>  0 0.27631214E+03</rscale>
<asrwt>0</asrwt>
<pdfrwt beam="1">  1        2 0.16756084E+00 0.27631214E+03</pdfrwt>
<pdfrwt beam="2">  1       -2 0.26961291E-02 0.27631214E+03</pdfrwt>
<totfact> 0.11496591E+04</totfact>
</mgrwt>
</event>
<event>
 9    1  0.7816570E-001  0.2741284E+03  0.7818608E-02  0.1098940E+00
         -1   -1    0    0    0  501 -0.00000000000E+00  0.00000000000E+00  0.20757052140E+02  0.20757052140E+02  0.00000000000E+00 0. -1.
          1   -1    0    0  501    0  0.00000000000E+00 -0.00000000000E+00 -0.90507017542E+03  0.90507017542E+03  0.00000000000E+00 0. -1.
         35    2    1    2    0    0 -0.14210854715E-13  0.00000000000E+00 -0.88431312328E+03  0.92582722756E+03  0.27412835549E+03 0.  0.
         25    2    3    3    0    0 -0.49910087949E+02  0.99854465258E+01 -0.40176916863E+03  0.42456547752E+03  0.12746236234E+03 0.  0.
         25    2    3    3    0    0  0.49910087949E+02 -0.99854465258E+01 -0.48254395465E+03  0.50126175004E+03  0.12579327433E+03 0.  0.
          5    1    4    4  502    0 -0.71247520666E+02 -0.10099433670E+02 -0.11152918235E+03  0.13281210893E+03  0.47000000000E+01 0. -1.
         -5    1    4    4    0  502  0.21337432717E+02  0.20084880196E+02 -0.29023998628E+03  0.29175336859E+03  0.47000000000E+01 0. -1.
          5    1    5    5  503    0 -0.91439230921E+01  0.36094095845E+02 -0.51450381762E+02  0.63683803811E+02  0.47000000000E+01 0. -1.
         -5    1    5    5    0  503  0.59054011041E+02 -0.46079542370E+02 -0.43109357289E+03  0.43757794623E+03  0.47000000000E+01 0. -1.
<mgrwt>
<rscale>  0 0.27412836E+03</rscale>
<asrwt>0</asrwt>
<pdfrwt beam="1">  1        1 0.13924157E+00 0.27412836E+03</pdfrwt>
<pdfrwt beam="2">  1       -1 0.31933926E-02 0.27412836E+03</pdfrwt>
<totfact> 0.64978923E+03</totfact>
</mgrwt>
</event>
<event>
 9    1  0.7816570E-001  0.2578911E+03  0.7818608E-02  0.1108417E+00
          2   -1    0    0  501    0  0.00000000000E+00  0.00000000000E+00  0.92484494522E+03  0.92484494522E+03  0.00000000000E+00 0.  1.
         -2   -1    0    0    0  501 -0.00000000000E+00 -0.00000000000E+00 -0.17978102241E+02  0.17978102241E+02  0.00000000000E+00 0.  1.
         35    2    1    2    0    0  0.00000000000E+00  0.00000000000E+00  0.90686684298E+03  0.94282304746E+03  0.25789111642E+03 0.  0.
         25    2    3    3    0    0  0.27327890823E+02  0.22695939531E+02  0.42343831120E+03  0.44226111565E+03  0.12260901978E+03 0.  0.
         25    2    3    3    0    0 -0.27327890823E+02 -0.22695939531E+02  0.48342853177E+03  0.50056193181E+03  0.12488868226E+03 0.  0.
          5    1    4    4  502    0  0.12996948412E+02  0.35453576094E+02  0.30340749953E+02  0.48667523397E+02  0.47000000000E+01 0.  1.
         -5    1    4    4    0  502  0.14330942411E+02 -0.12757636563E+02  0.39309756125E+03  0.39359359225E+03  0.47000000000E+01 0.  1.
          5    1    5    5  503    0 -0.52397511150E+02  0.36639466171E+02  0.20763333183E+03  0.21730540753E+03  0.47000000000E+01 0.  1.
         -5    1    5    5    0  503  0.25069620327E+02 -0.59335405702E+02  0.27579519995E+03  0.28325652428E+03  0.47000000000E+01 0.  1.
<mgrwt>
<rscale>  0 0.25789112E+03</rscale>
<asrwt>0</asrwt>
<pdfrwt beam="1">  1        2 0.14228380E+00 0.25789112E+03</pdfrwt>
<pdfrwt beam="2">  1       -2 0.27658626E-02 0.25789112E+03</pdfrwt>
<totfact> 0.13914383E+04</totfact>
</mgrwt>
</event>
<event>
 8    1  0.7816570E-001  0.3642327E+03  0.7818608E-02  0.1056920E+00
         -2   -1    0    0    0  501 -0.00000000000E+00  0.00000000000E+00  0.23489679308E+02  0.23489679308E+02  0.00000000000E+00 0. -1.
          2   -1    0    0  501    0  0.00000000000E+00 -0.00000000000E+00 -0.14119548567E+04  0.14119548567E+04  0.00000000000E+00 0. -1.
         25    2    1    2    0    0  0.11990053350E+03  0.27649202835E+02 -0.88212598710E+03  0.89940991419E+03  0.12510523684E+03 0.  0.
         25    2    1    2    0    0 -0.11990053350E+03 -0.27649202835E+02 -0.50633919024E+03  0.53603462176E+03  0.12575024375E+03 0.  0.
          5    1    3    3  502    0  0.13598076623E+03  0.53058365729E+01 -0.57005582254E+03  0.58609269873E+03  0.47000000000E+01 0. -1.
         -5    1    3    3    0  502 -0.16080232738E+02  0.22343366262E+02 -0.31207016456E+03  0.31331721547E+03  0.47000000000E+01 0. -1.
          5    1    4    4  503    0 -0.14513937625E+03 -0.33169382196E+02 -0.44638384352E+03  0.47058078181E+03  0.47000000000E+01 0. -1.
         -5    1    4    4    0  503  0.25238842757E+02  0.55201793608E+01 -0.59955346725E+02  0.65453839955E+02  0.47000000000E+01 0. -1.
<mgrwt>
<rscale>  0 0.36423271E+03</rscale>
<asrwt>0</asrwt>
<pdfrwt beam="1">  1        2 0.21722382E+00 0.36423271E+03</pdfrwt>
<pdfrwt beam="2">  1       -2 0.36137968E-02 0.36423271E+03</pdfrwt>
<totfact> 0.48917485E+03</totfact>
</mgrwt>
</event>
<event>
 9    1  0.7816570E-001  0.2777954E+03  0.7818608E-02  0.1096899E+00
         -1   -1    0    0    0  501 -0.00000000000E+00  0.00000000000E+00  0.30346846992E+02  0.30346846992E+02  0.00000000000E+00 0. -1.
          1   -1    0    0  501    0  0.00000000000E+00 -0.00000000000E+00 -0.63573558416E+03  0.63573558416E+03  0.00000000000E+00 0. -1.
         35    2    1    2    0    0 -0.71054273576E-14 -0.14210854715E-13 -0.60538873717E+03  0.66608243115E+03  0.27779539593E+03 0.  0.
         25    2    3    3    0    0 -0.37631475265E+02  0.47681104513E+02 -0.30766443650E+03  0.33732419075E+03  0.12426016464E+03 0.  0.
         25    2    3    3    0    0  0.37631475265E+02 -0.47681104513E+02 -0.29772430067E+03  0.32875824041E+03  0.12550938518E+03 0.  0.
          5    1    4    4  502    0  0.29026877730E+02 -0.17684200047E+02 -0.34711836535E+02  0.48808730343E+02  0.47000000000E+01 0. -1.
         -5    1    4    4    0  502 -0.66658352994E+02  0.65365304560E+02 -0.27295259997E+03  0.28851546040E+03  0.47000000000E+01 0. -1.
          5    1    5    5  503    0 -0.33335508731E+02  0.19368785594E+02 -0.57285400303E+02  0.69210642864E+02  0.47000000000E+01 0. -1.
         -5    1    5    5    0  503  0.70966983995E+02 -0.67049890107E+02 -0.24043890037E+03  0.25954759754E+03  0.47000000000E+01 0. -1.
<mgrwt>
<rscale>  0 0.27779540E+03</rscale>
<asrwt>0</asrwt>
<pdfrwt beam="1">  1        1 0.97805464E-01 0.27779540E+03</pdfrwt>
<pdfrwt beam="2">  1       -1 0.46687462E-02 0.27779540E+03</pdfrwt>
<totfact> 0.63047338E+03</totfact>
</mgrwt>
</event>
<event>
 9    1  0.7816570E-001  0.2643246E+03  0.7818608E-02  0.1104572E+00
         -1   -1    0    0    0  501 -0.00000000000E+00  0.00000000000E+00  0.19453488366E+02  0.19453488366E+02  0.00000000000E+00 0.  1.
          1   -1    0    0  501    0  0.00000000000E+00 -0.00000000000E+00 -0.89787854366E+03  0.89787854366E+03  0.00000000000E+00 0.  1.
         35    2    1    2    0    0  0.35527136788E-14  0.35527136788E-14 -0.87842505530E+03  0.91733203203E+03  0.26432457171E+03 0.  0.
         25    2    3    3    0    0 -0.31829194906E+02 -0.20688280033E+02 -0.37817956002E+03  0.40015364406E+03  0.12514813885E+03 0.  0.
         25    2    3    3    0    0  0.31829194906E+02  0.20688280033E+02 -0.50024549528E+03  0.51717838797E+03  0.12564564003E+03 0.  0.
          5    1    4    4  502    0  0.21592168165E+02  0.32171605881E+01 -0.30731588207E+03  0.30812613200E+03  0.47000000000E+01 0. -1.
         -5    1    4    4    0  502 -0.53421363071E+02 -0.23905440621E+02 -0.70863677955E+02  0.92027512065E+02  0.47000000000E+01 0. -1.
          5    1    5    5  503    0  0.23276462312E+02 -0.31216078608E+02 -0.41533580301E+03  0.41718360050E+03  0.47000000000E+01 0.  1.
         -5    1    5    5    0  503  0.85527325940E+01  0.51904358641E+02 -0.84909692267E+02  0.99994787472E+02  0.47000000000E+01 0.  1.
<mgrwt>
<rscale>  0 0.26432457E+03</rscale>
<asrwt>0</asrwt>
<pdfrwt beam="1">  1        1 0.13813511E+00 0.26432457E+03</pdfrwt>
<pdfrwt beam="2">  1       -1 0.29928455E-02 0.26432457E+03</pdfrwt>
<totfact> 0.72376472E+03</totfact>
</mgrwt>
</event>
<event>
 9    1  0.7816570E-001  0.2877599E+03  0.7818608E-02  0.1091525E+00
          1   -1    0    0  501    0  0.00000000000E+00  0.00000000000E+00  0.30565796735E+04  0.30565796735E+04  0.00000000000E+00 0. -1.
         -1   -1    0    0    0  501 -0.00000000000E+00 -0.00000000000E+00 -0.67727457801E+01  0.67727457801E+01  0.00000000000E+00 0. -1.
         35    2    1    2    0    0  0.00000000000E+00 -0.17763568394E-14  0.30498069277E+04  0.30633524193E+04  0.28775987966E+03 0.  0.
         25    2    3    3    0    0  0.36684226687E+02 -0.13696510160E+02  0.89179755904E+03  0.90135922837E+03  0.12494897105E+03 0.  0.
         25    2    3    3    0    0 -0.36684226687E+02  0.13696510160E+02  0.21580093687E+04  0.21619931909E+04  0.12520701012E+03 0.  0.
          5    1    4    4  502    0  0.11869265829E+02 -0.21593357382E+02  0.85831914527E+03  0.85868562215E+03  0.47000000000E+01 0.  1.
         -5    1    4    4    0  502  0.24814960858E+02  0.78968472222E+01  0.33478413770E+02  0.42673606211E+02  0.47000000000E+01 0.  1.
          5    1    5    5  503    0 -0.28197950864E+02 -0.42157989364E+02  0.42267820756E+03  0.42573627711E+03  0.47000000000E+01 0.  1.
         -5    1    5    5    0  503 -0.84862758227E+01  0.55854499524E+02  0.17353311611E+04  0.17362569138E+04  0.47000000000E+01 0.  1.
<mgrwt>
<rscale>  0 0.28775988E+03</rscale>
<asrwt>0</asrwt>
<pdfrwt beam="1">  1        1 0.47024192E+00 0.28775988E+03</pdfrwt>
<pdfrwt beam="2">  1       -1 0.10419633E-02 0.28775988E+03</pdfrwt>
<totfact> 0.11687363E+03</totfact>
</mgrwt>
</event>
<event>
 9    1  0.7816570E-001  0.2681747E+03  0.7818608E-02  0.1102329E+00
         -4   -1    0    0    0  501 -0.00000000000E+00  0.00000000000E+00  0.58962274869E+03  0.58962274869E+03  0.00000000000E+00 0.  1.
          4   -1    0    0  501    0  0.00000000000E+00 -0.00000000000E+00 -0.30493083914E+02  0.30493083914E+02  0.00000000000E+00 0.  1.
         35    2    1    2    0    0  0.00000000000E+00  0.71054273576E-14  0.55912966478E+03  0.62011583261E+03  0.26817468899E+03 0.  0.
         25    2    3    3    0    0 -0.10219009860E+02 -0.47848749892E+02  0.24308630216E+03  0.27689000796E+03  0.12322010867E+03 0.  0.
         25    2    3    3    0    0  0.10219009860E+02  0.47848749892E+02  0.31604336262E+03  0.34322582465E+03  0.12460589320E+03 0.  0.
          5    1    4    4  502    0 -0.66497597815E+02 -0.25899536592E+02  0.14314531995E+03  0.16001684016E+03  0.47000000000E+01 0.  1.
         -5    1    4    4    0  502  0.56278587955E+02 -0.21949213300E+02  0.99940982208E+02  0.11687316780E+03  0.47000000000E+01 0.  1.
          5    1    5    5  503    0 -0.13546040322E+02 -0.57312311088E+01  0.26473781232E+03  0.26518774762E+03  0.47000000000E+01 0.  1.
         -5    1    5    5    0  503  0.23765050182E+02  0.53579981001E+02  0.51305550304E+02  0.78038077028E+02  0.47000000000E+01 0.  1.
<mgrwt>
<rscale>  0 0.26817469E+03</rscale>
<asrwt>0</asrwt>
<pdfrwt beam="1">  1        4 0.46912441E-02 0.26817469E+03</pdfrwt>
<pdfrwt beam="2">  1       -4 0.90711183E-01 0.26817469E+03</pdfrwt>
<totfact> 0.52861273E+02</totfact>
</mgrwt>
</event>
<event>
 9    1  0.7816570E-001  0.2741604E+03  0.7818608E-02  0.1098922E+00
          2   -1    0    0  501    0  0.00000000000E+00  0.00000000000E+00  0.52269666202E+03  0.52269666202E+03  0.00000000000E+00 0. -1.
         -2   -1    0    0    0  501 -0.00000000000E+00 -0.00000000000E+00 -0.35950080956E+02  0.35950080956E+02  0.00000000000E+00 0. -1.
         35    2    1    2    0    0  0.35527136788E-14  0.00000000000E+00  0.48674658106E+03  0.55864674297E+03  0.27416044438E+03 0.  0.
         25    2    3    3    0    0 -0.11817816631E+02 -0.52260312134E+02  0.20779959032E+03  0.24860382027E+03  0.12550852043E+03 0.  0.
         25    2    3    3    0    0  0.11817816631E+02  0.52260312134E+02  0.27894699074E+03  0.31004292271E+03  0.12427545720E+03 0.  0.
          5    1    4    4  502    0 -0.73251502149E+00 -0.58687429897E+02  0.22860905326E+02  0.63162188044E+02  0.47000000000E+01 0.  1.
         -5    1    4    4    0  502 -0.11085301609E+02  0.64271177627E+01  0.18493868499E+03  0.18544163222E+03  0.47000000000E+01 0.  1.
          5    1    5    5  503    0  0.80909739838E+01 -0.39312561359E+02  0.11856004319E+03  0.12525779489E+03  0.47000000000E+01 0. -1.
         -5    1    5    5    0  503  0.37268426469E+01  0.91572873493E+02  0.16038694755E+03  0.18478512781E+03  0.47000000000E+01 0. -1.
<mgrwt>
<rscale>  0 0.27416044E+03</rscale>
<asrwt>0</asrwt>
<pdfrwt beam="1">  1        2 0.80414866E-01 0.27416044E+03</pdfrwt>
<pdfrwt beam="2">  1       -2 0.55307821E-02 0.27416044E+03</pdfrwt>
<totfact> 0.98733837E+03</totfact>
</mgrwt>
</event>
<event>
 9    1  0.7816570E-001  0.2806816E+03  0.7818608E-02  0.1095317E+00
         -2   -1    0    0    0  501 -0.00000000000E+00  0.00000000000E+00  0.63281845921E+02  0.63281845921E+02  0.00000000000E+00 0. -1.
          2   -1    0    0  501    0  0.00000000000E+00 -0.00000000000E+00 -0.31123516748E+03  0.31123516748E+03  0.00000000000E+00 0. -1.
         35    2    1    2    0    0  0.35527136788E-14  0.14210854715E-13 -0.24795332155E+03  0.37451701340E+03  0.28068156985E+03 0.  0.
         25    2    3    3    0    0  0.59288595370E+01  0.54856296397E+02 -0.16603803229E+03  0.21485287718E+03  0.12469469130E+03 0.  0.
         25    2    3    3    0    0 -0.59288595370E+01 -0.54856296397E+02 -0.81915289267E+02  0.15966413622E+03  0.12545181206E+03 0.  0.
          5    1    4    4  502    0 -0.26489253756E+02  0.22617534365E+02 -0.16518677327E+03  0.16888455669E+03  0.47000000000E+01 0.  1.
         -5    1    4    4    0  502  0.32418113293E+02  0.32238762032E+02 -0.85125901818E+00  0.45968320491E+02  0.47000000000E+01 0.  1.
          5    1    5    5  503    0  0.29653836111E+02 -0.62540060713E+02  0.57524437458E+00  0.69376005190E+02  0.47000000000E+01 0.  1.
         -5    1    5    5    0  503 -0.35582695648E+02  0.76837643154E+01 -0.82490533642E+02  0.90288131026E+02  0.47000000000E+01 0.  1.
<mgrwt>
<rscale>  0 0.28068157E+03</rscale>
<asrwt>0</asrwt>
<pdfrwt beam="1">  1        2 0.47882332E-01 0.28068157E+03</pdfrwt>
<pdfrwt beam="2">  1       -2 0.97356689E-02 0.28068157E+03</pdfrwt>
<totfact> 0.72307944E+03</totfact>
</mgrwt>
</event>
<event>
 9    1  0.7816570E-001  0.2766730E+03  0.7818608E-02  0.1097520E+00
          2   -1    0    0  501    0  0.00000000000E+00  0.00000000000E+00  0.11061651415E+03  0.11061651415E+03  0.00000000000E+00 0. -1.
         -2   -1    0    0    0  501 -0.00000000000E+00 -0.00000000000E+00 -0.17300302995E+03  0.17300302995E+03  0.00000000000E+00 0. -1.
         35    2    1    2    0    0  0.14210854715E-13  0.00000000000E+00 -0.62386515808E+02  0.28361954410E+03  0.27667303526E+03 0.  0.
         25    2    3    3    0    0  0.62287063380E+02  0.29020921767E+01 -0.67114648338E+02  0.14392014229E+03  0.11099788705E+03 0.  0.
         25    2    3    3    0    0 -0.62287063380E+02 -0.29020921767E+01  0.47281325305E+01  0.13969940182E+03  0.12492184447E+03 0.  0.
          5    1    4    4  502    0  0.87200180932E+02 -0.13989537885E+02 -0.24932682217E+02  0.91887471221E+02  0.47000000000E+01 0.  1.
         -5    1    4    4    0  502 -0.24913117552E+02  0.16891630062E+02 -0.42181966122E+02  0.52032671065E+02  0.47000000000E+01 0.  1.
          5    1    5    5  503    0 -0.81792018743E+02  0.24359133043E+02 -0.30589603300E+02  0.90780590011E+02  0.47000000000E+01 0.  1.
         -5    1    5    5    0  503  0.19504955363E+02 -0.27261225220E+02  0.35317735830E+02  0.48918811805E+02  0.47000000000E+01 0.  1.
<mgrwt>
<rscale>  0 0.27667304E+03</rscale>
<asrwt>0</asrwt>
<pdfrwt beam="1">  1        2 0.17017925E-01 0.27667304E+03</pdfrwt>
<pdfrwt beam="2">  1       -2 0.26615851E-01 0.27667304E+03</pdfrwt>
<totfact> 0.42380411E+03</totfact>
</mgrwt>
</event>
<event>
 9    1  0.7816570E-001  0.2697663E+03  0.7818608E-02  0.1101413E+00
         -1   -1    0    0    0  501 -0.00000000000E+00  0.00000000000E+00  0.14377602628E+03  0.14377602628E+03  0.00000000000E+00 0.  1.
          1   -1    0    0  501    0  0.00000000000E+00 -0.00000000000E+00 -0.12654029673E+03  0.12654029673E+03  0.00000000000E+00 0.  1.
         35    2    1    2    0    0  0.00000000000E+00  0.71054273576E-14  0.17235729552E+02  0.27031632302E+03  0.26976627683E+03 0.  0.
         25    2    3    3    0    0  0.33119808424E+02  0.30103262514E+02  0.23346296592E+02  0.13688279938E+03  0.12723491296E+03 0.  0.
         25    2    3    3    0    0 -0.33119808424E+02 -0.30103262514E+02 -0.61105670402E+01  0.13343352364E+03  0.12555492056E+03 0.  0.
          5    1    4    4  502    0 -0.17569080235E+01  0.76203084757E+02  0.19158909593E+02  0.78734685299E+02  0.47000000000E+01 0. -1.
         -5    1    4    4    0  502  0.34876716447E+02 -0.46099822243E+02  0.41873869989E+01  0.58148114078E+02  0.47000000000E+01 0. -1.
          5    1    5    5  503    0 -0.49946584624E+02 -0.51825780358E+02 -0.45423150312E+02  0.85240397756E+02  0.47000000000E+01 0.  1.
         -5    1    5    5    0  503  0.16826776200E+02  0.21722517844E+02  0.39312583272E+02  0.48193125882E+02  0.47000000000E+01 0.  1.
<mgrwt>
<rscale>  0 0.26976628E+03</rscale>
<asrwt>0</asrwt>
<pdfrwt beam="1">  1        1 0.19467738E-01 0.26976628E+03</pdfrwt>
<pdfrwt beam="2">  1       -1 0.22119389E-01 0.26976628E+03</pdfrwt>
<totfact> 0.44841291E+03</totfact>
</mgrwt>
</event>
<event>
 9    1  0.7816570E-001  0.2788823E+03  0.7818608E-02  0.1096301E+00
         -1   -1    0    0    0  501 -0.00000000000E+00  0.00000000000E+00  0.20623010228E+02  0.20623010228E+02  0.00000000000E+00 0.  1.
          1   -1    0    0  501    0  0.00000000000E+00 -0.00000000000E+00 -0.94282244854E+03  0.94282244854E+03  0.00000000000E+00 0.  1.
         35    2    1    2    0    0  0.00000000000E+00 -0.35527136788E-14 -0.92219943831E+03  0.96344545877E+03  0.27888231926E+03 0.  0.
         25    2    3    3    0    0 -0.57950639820E+02 -0.65657316678E+01 -0.53005888609E+03  0.54774097524E+03  0.12512540809E+03 0.  0.
         25    2    3    3    0    0  0.57950639820E+02  0.65657316678E+01 -0.39214055222E+03  0.41570448353E+03  0.12503847183E+03 0.  0.
          5    1    4    4  502    0  0.15915976925E+02  0.20269774532E+02 -0.23790150128E+02  0.35387050233E+02  0.47000000000E+01 0.  1.
         -5    1    4    4    0  502 -0.73866616744E+02 -0.26835506200E+02 -0.50626873596E+03  0.51235392501E+03  0.47000000000E+01 0.  1.
          5    1    5    5  503    0 -0.38993832463E+01  0.45980491595E+02 -0.61702981619E+02  0.77192996688E+02  0.47000000000E+01 0.  1.
         -5    1    5    5    0  503  0.61850023066E+02 -0.39414759927E+02 -0.33043757061E+03  0.33851148684E+03  0.47000000000E+01 0.  1.
<mgrwt>
<rscale>  0 0.27888232E+03</rscale>
<asrwt>0</asrwt>
<pdfrwt beam="1">  1        1 0.14504958E+00 0.27888232E+03</pdfrwt>
<pdfrwt beam="2">  1       -1 0.31727714E-02 0.27888232E+03</pdfrwt>
<totfact> 0.61347693E+03</totfact>
</mgrwt>
</event>
<event>
 9    1  0.7816570E-001  0.2757005E+03  0.7818608E-02  0.1098061E+00
         -2   -1    0    0    0  501 -0.00000000000E+00  0.00000000000E+00  0.49306698601E+02  0.49306698601E+02  0.00000000000E+00 0.  1.
          2   -1    0    0  501    0  0.00000000000E+00 -0.00000000000E+00 -0.38539785695E+03  0.38539785695E+03  0.00000000000E+00 0.  1.
         35    2    1    2    0    0  0.71054273576E-14 -0.35527136788E-14 -0.33609115834E+03  0.43470455555E+03  0.27570053300E+03 0.  0.
         25    2    3    3    0    0  0.56159247579E+02 -0.13627555874E+02 -0.17828101444E+03  0.22523549256E+03  0.12492932254E+03 0.  0.
         25    2    3    3    0    0 -0.56159247579E+02  0.13627555874E+02 -0.15781014391E+03  0.20946906299E+03  0.12503469703E+03 0.  0.
          5    1    4    4  502    0  0.13678248673E+02  0.54269054832E+02 -0.58755197314E+02  0.81280305182E+02  0.47000000000E+01 0. -1.
         -5    1    4    4    0  502  0.42480998905E+02 -0.67896610706E+02 -0.11952581712E+03  0.14395518737E+03  0.47000000000E+01 0. -1.
          5    1    5    5  503    0  0.39585384204E+01  0.28016261469E+02 -0.14284244787E+03  0.14569363695E+03  0.47000000000E+01 0.  1.
         -5    1    5    5    0  503 -0.60117785999E+02 -0.14388705595E+02 -0.14967696035E+02  0.63775426041E+02  0.47000000000E+01 0.  1.
<mgrwt>
<rscale>  0 0.27570053E+03</rscale>
<asrwt>0</asrwt>
<pdfrwt beam="1">  1        2 0.59291980E-01 0.27570053E+03</pdfrwt>
<pdfrwt beam="2">  1       -2 0.75856457E-02 0.27570053E+03</pdfrwt>
<totfact> 0.84909327E+03</totfact>
</mgrwt>
</event>
<event>
 9    1  0.7816570E-001  0.2786115E+03  0.7818608E-02  0.1096450E+00
         -2   -1    0    0    0  501 -0.00000000000E+00  0.00000000000E+00  0.12557472890E+03  0.12557472890E+03  0.00000000000E+00 0.  1.
          2   -1    0    0  501    0  0.00000000000E+00 -0.00000000000E+00 -0.15453820090E+03  0.15453820090E+03  0.00000000000E+00 0.  1.
         35    2    1    2    0    0  0.00000000000E+00 -0.71054273576E-14 -0.28963471997E+02  0.28011292981E+03  0.27861150503E+03 0.  0.
         25    2    3    3    0    0  0.11085166455E+02 -0.25796471797E+02  0.39570944820E+02  0.13430207745E+03  0.12523118406E+03 0.  0.
         25    2    3    3    0    0 -0.11085166455E+02  0.25796471797E+02 -0.68534416818E+02  0.14581085235E+03  0.12560055534E+03 0.  0.
          5    1    4    4  502    0  0.68033599408E+02 -0.12113833527E+02  0.26120167255E+02  0.74024784691E+02  0.47000000000E+01 0.  1.
         -5    1    4    4    0  502 -0.56948432953E+02 -0.13682638270E+02  0.13450777565E+02  0.60277292764E+02  0.47000000000E+01 0.  1.
          5    1    5    5  503    0 -0.62284934271E+01 -0.12146244532E+02 -0.96892471980E+02  0.97962066704E+02  0.47000000000E+01 0. -1.
         -5    1    5    5    0  503 -0.48566730276E+01  0.37942716329E+02  0.28358055162E+02  0.47848785647E+02  0.47000000000E+01 0. -1.
<mgrwt>
<rscale>  0 0.27861151E+03</rscale>
<asrwt>0</asrwt>
<pdfrwt beam="1">  1        2 0.23775108E-01 0.27861151E+03</pdfrwt>
<pdfrwt beam="2">  1       -2 0.19319189E-01 0.27861151E+03</pdfrwt>
<totfact> 0.50493462E+03</totfact>
</mgrwt>
</event>
<event>
 9    1  0.7816570E-001  0.2725296E+03  0.7818608E-02  0.1099841E+00
         -1   -1    0    0    0  501 -0.00000000000E+00  0.00000000000E+00  0.14910113451E+03  0.14910113451E+03  0.00000000000E+00 0.  1.
          1   -1    0    0  501    0  0.00000000000E+00 -0.00000000000E+00 -0.12453353605E+03  0.12453353605E+03  0.00000000000E+00 0.  1.
         35    2    1    2    0    0  0.71054273576E-14  0.00000000000E+00  0.24567598464E+02  0.27363467056E+03  0.27252956911E+03 0.  0.
         25    2    3    3    0    0 -0.41137414353E+02  0.31978684077E+02  0.24549923616E+02  0.13739174563E+03  0.12473519922E+03 0.  0.
         25    2    3    3    0    0  0.41137414353E+02 -0.31978684077E+02  0.17674847279E-01  0.13624292493E+03  0.12588570684E+03 0.  0.
          5    1    4    4  502    0  0.36575614382E+02  0.52265417665E+01 -0.21559883132E+02  0.43034995839E+02  0.47000000000E+01 0.  1.
         -5    1    4    4    0  502 -0.77713028734E+02  0.26752142310E+02  0.46109806748E+02  0.94356749794E+02  0.47000000000E+01 0.  1.
          5    1    5    5  503    0 -0.47937141962E+01 -0.63747835160E+01 -0.57458278943E+02  0.58199324565E+02  0.47000000000E+01 0.  1.
         -5    1    5    5    0  503  0.45931128549E+02 -0.25603900561E+02  0.57475953790E+02  0.78043600364E+02  0.47000000000E+01 0.  1.
<mgrwt>
<rscale>  0 0.27252957E+03</rscale>
<asrwt>0</asrwt>
<pdfrwt beam="1">  1        1 0.19159006E-01 0.27252957E+03</pdfrwt>
<pdfrwt beam="2">  1       -1 0.22938636E-01 0.27252957E+03</pdfrwt>
<totfact> 0.43132774E+03</totfact>
</mgrwt>
</event>
<event>
 9    1  0.7816570E-001  0.2734286E+03  0.7818608E-02  0.1099333E+00
          2   -1    0    0  501    0  0.00000000000E+00  0.00000000000E+00  0.25820375058E+03  0.25820375058E+03  0.00000000000E+00 0. -1.
         -2   -1    0    0    0  501 -0.00000000000E+00 -0.00000000000E+00 -0.72387786544E+02  0.72387786544E+02  0.00000000000E+00 0. -1.
         35    2    1    2    0    0 -0.14210854715E-13  0.00000000000E+00  0.18581596404E+03  0.33059153713E+03  0.27342858652E+03 0.  0.
         25    2    3    3    0    0 -0.39021576706E+02  0.40597025760E+01  0.14030462017E+03  0.19173145344E+03  0.12464509281E+03 0.  0.
         25    2    3    3    0    0  0.39021576706E+02 -0.40597025760E+01  0.45511343863E+02  0.13886008369E+03  0.12518656393E+03 0.  0.
          5    1    4    4  502    0 -0.15176602323E+02 -0.48073735329E+01  0.15896738676E+03  0.15983166192E+03  0.47000000000E+01 0. -1.
         -5    1    4    4    0  502 -0.23844974383E+02  0.88670761089E+01 -0.18662766587E+02  0.31899791516E+02  0.47000000000E+01 0. -1.
          5    1    5    5  503    0 -0.39197986371E+02 -0.12298108532E+02 -0.99193652148E+01  0.42523045696E+02  0.47000000000E+01 0. -1.
         -5    1    5    5    0  503  0.78219563077E+02  0.82384059561E+01  0.55430709078E+02  0.96337037994E+02  0.47000000000E+01 0. -1.
<mgrwt>
<rscale>  0 0.27342859E+03</rscale>
<asrwt>0</asrwt>
<pdfrwt beam="1">  1        2 0.39723653E-01 0.27342859E+03</pdfrwt>
<pdfrwt beam="2">  1       -2 0.11136583E-01 0.27342859E+03</pdfrwt>
<totfact> 0.71275292E+03</totfact>
</mgrwt>
</event>
<event>
 9    1  0.7816570E-001  0.2718272E+03  0.7818608E-02  0.1100238E+00
         -4   -1    0    0    0  501 -0.00000000000E+00  0.00000000000E+00  0.19665247311E+02  0.19665247311E+02  0.00000000000E+00 0.  1.
          4   -1    0    0  501    0  0.00000000000E+00 -0.00000000000E+00 -0.93934806396E+03  0.93934806396E+03  0.00000000000E+00 0.  1.
         35    2    1    2    0    0 -0.35527136788E-14  0.00000000000E+00 -0.91968281665E+03  0.95901331127E+03  0.27182723917E+03 0.  0.
         25    2    3    3    0    0 -0.20059538333E+02  0.48199542550E+02 -0.40460656719E+03  0.42633756607E+03  0.12382110098E+03 0.  0.
         25    2    3    3    0    0  0.20059538333E+02 -0.48199542550E+02 -0.51507624946E+03  0.53267574520E+03  0.12535679396E+03 0.  0.
          5    1    4    4  502    0 -0.50950458599E+02  0.46247130747E+02 -0.38083014812E+03  0.38702511295E+03  0.47000000000E+01 0.  1.
         -5    1    4    4    0  502  0.30890920265E+02  0.19524118026E+01 -0.23776419068E+02  0.39312453121E+02  0.47000000000E+01 0.  1.
          5    1    5    5  503    0  0.67276498280E+00  0.17057376519E+02 -0.54849000507E+01  0.18535933616E+02  0.47000000000E+01 0.  1.
         -5    1    5    5    0  503  0.19386773350E+02 -0.65256919069E+02 -0.50959134941E+03  0.51413981159E+03  0.47000000000E+01 0.  1.
<mgrwt>
<rscale>  0 0.27182724E+03</rscale>
<asrwt>0</asrwt>
<pdfrwt beam="1">  1        4 0.14451508E+00 0.27182724E+03</pdfrwt>
<pdfrwt beam="2">  1       -4 0.30254227E-02 0.27182724E+03</pdfrwt>
<totfact> 0.34634493E+02</totfact>
</mgrwt>
</event>
<event>
 9    1  0.7816570E-001  0.2701082E+03  0.7818608E-02  0.1101218E+00
         -2   -1    0    0    0  501 -0.00000000000E+00  0.00000000000E+00  0.62486815291E+01  0.62486815291E+01  0.00000000000E+00 0.  1.
          2   -1    0    0  501    0  0.00000000000E+00 -0.00000000000E+00 -0.29189537859E+04  0.29189537859E+04  0.00000000000E+00 0.  1.
         35    2    1    2    0    0  0.35527136788E-14  0.00000000000E+00 -0.29127051044E+04  0.29252024674E+04  0.27010821984E+03 0.  0.
         25    2    3    3    0    0  0.25178427792E+02  0.44431783564E+02 -0.14181396553E+04  0.14245760769E+04  0.12525486107E+03 0.  0.
         25    2    3    3    0    0 -0.25178427792E+02 -0.44431783564E+02 -0.14945654491E+04  0.15006263906E+04  0.12468177849E+03 0.  0.
          5    1    4    4  502    0 -0.50291797556E+02  0.10690006790E+02 -0.62347925650E+03  0.62561331062E+03  0.47000000000E+01 0. -1.
         -5    1    4    4    0  502  0.75470225349E+02  0.33741776774E+02 -0.79466039882E+03  0.79896276626E+03  0.47000000000E+01 0. -1.
          5    1    5    5  503    0  0.28780411955E+02  0.29294467605E+02 -0.35603339238E+03  0.35842481001E+03  0.47000000000E+01 0. -1.
         -5    1    5    5    0  503 -0.53958839747E+02 -0.73726251170E+02 -0.11385320567E+04  0.11422015806E+04  0.47000000000E+01 0. -1.
<mgrwt>
<rscale>  0 0.27010822E+03</rscale>
<asrwt>0</asrwt>
<pdfrwt beam="1">  1        2 0.44906907E+00 0.27010822E+03</pdfrwt>
<pdfrwt beam="2">  1       -2 0.96133721E-03 0.27010822E+03</pdfrwt>
<totfact> 0.52520092E+03</totfact>
</mgrwt>
</event>
<event>
 9    1  0.7816570E-001  0.2848905E+03  0.7818608E-02  0.1093047E+00
         -4   -1    0    0    0  501 -0.00000000000E+00  0.00000000000E+00  0.55522898471E+02  0.55522898471E+02  0.00000000000E+00 0.  1.
          4   -1    0    0  501    0  0.00000000000E+00 -0.00000000000E+00 -0.36544646156E+03  0.36544646156E+03  0.00000000000E+00 0.  1.
         35    2    1    2    0    0  0.00000000000E+00  0.00000000000E+00 -0.30992356308E+03  0.42096936003E+03  0.28489048269E+03 0.  0.
         25    2    3    3    0    0 -0.21924657090E+02 -0.63422694248E+02 -0.12963824090E+03  0.19220874384E+03  0.12503998948E+03 0.  0.
         25    2    3    3    0    0  0.21924657090E+02  0.63422694248E+02 -0.18028532218E+03  0.22876061619E+03  0.12379617680E+03 0.  0.
          5    1    4    4  502    0  0.30226796185E+02 -0.87094637738E+00 -0.10134698479E+03  0.10586651540E+03  0.47000000000E+01 0.  1.
         -5    1    4    4    0  502 -0.52151453276E+02 -0.62551747871E+02 -0.28291256108E+02  0.86342228444E+02  0.47000000000E+01 0.  1.
          5    1    5    5  503    0  0.15155855155E+02  0.38799028798E+02  0.45005206543E+01  0.42159331913E+02  0.47000000000E+01 0. -1.
         -5    1    5    5    0  503  0.67688019348E+01  0.24623665450E+02 -0.18478584284E+03  0.18660128427E+03  0.47000000000E+01 0. -1.
<mgrwt>
<rscale>  0 0.28489048E+03</rscale>
<asrwt>0</asrwt>
<pdfrwt beam="1">  1        4 0.56222535E-01 0.28489048E+03</pdfrwt>
<pdfrwt beam="2">  1       -4 0.85419840E-02 0.28489048E+03</pdfrwt>
<totfact> 0.56667662E+02</totfact>
</mgrwt>
</event>
<event>
 9    1  0.7816570E-001  0.2785616E+03  0.7818608E-02  0.1096477E+00
         -2   -1    0    0    0  501 -0.00000000000E+00  0.00000000000E+00  0.11108164108E+03  0.11108164108E+03  0.00000000000E+00 0. -1.
          2   -1    0    0  501    0  0.00000000000E+00 -0.00000000000E+00 -0.17463862297E+03  0.17463862297E+03  0.00000000000E+00 0. -1.
         35    2    1    2    0    0  0.00000000000E+00 -0.35527136788E-14 -0.63556981892E+02  0.28572026404E+03  0.27856162574E+03 0.  0.
         25    2    3    3    0    0 -0.52324190754E+02  0.22215396807E+02 -0.68887519052E+01  0.13736394494E+03  0.12486013645E+03 0.  0.
         25    2    3    3    0    0  0.52324190754E+02 -0.22215396807E+02 -0.56668229987E+02  0.14835631910E+03  0.12476764137E+03 0.  0.
          5    1    4    4  502    0 -0.69843836106E+02  0.48437844139E+02  0.28461724133E+02  0.89758263840E+02  0.47000000000E+01 0. -1.
         -5    1    4    4    0  502  0.17519645352E+02 -0.26222447332E+02 -0.35350476038E+02  0.47605681105E+02  0.47000000000E+01 0. -1.
          5    1    5    5  503    0  0.89494978226E+02 -0.26742930594E+02 -0.58943532824E+02  0.11054847591E+03  0.47000000000E+01 0. -1.
         -5    1    5    5    0  503 -0.37170787472E+02  0.45275337863E+01  0.22753028369E+01  0.37807843188E+02  0.47000000000E+01 0. -1.
<mgrwt>
<rscale>  0 0.27856163E+03</rscale>
<asrwt>0</asrwt>
<pdfrwt beam="1">  1        2 0.26867481E-01 0.27856163E+03</pdfrwt>
<pdfrwt beam="2">  1       -2 0.17089483E-01 0.27856163E+03</pdfrwt>
<totfact> 0.54191092E+03</totfact>
</mgrwt>
</event>
<event>
 9    1  0.7816570E-001  0.2739824E+03  0.7818608E-02  0.1099022E+00
          2   -1    0    0  501    0  0.00000000000E+00  0.00000000000E+00  0.57787085229E+03  0.57787085229E+03  0.00000000000E+00 0. -1.
         -2   -1    0    0    0  501 -0.00000000000E+00 -0.00000000000E+00 -0.32475412534E+02  0.32475412534E+02  0.00000000000E+00 0. -1.
         35    2    1    2    0    0  0.00000000000E+00  0.35527136788E-14  0.54539543975E+03  0.61034626482E+03  0.27398243973E+03 0.  0.
         25    2    3    3    0    0  0.51503659206E+02 -0.19962710752E+02  0.24048879693E+03  0.27617344879E+03  0.12403941163E+03 0.  0.
         25    2    3    3    0    0 -0.51503659206E+02  0.19962710752E+02  0.30490664282E+03  0.33417281603E+03  0.12510904604E+03 0.  0.
          5    1    4    4  502    0  0.45155783652E+02 -0.41143787429E+02  0.37298502972E+02  0.71729522271E+02  0.47000000000E+01 0. -1.
         -5    1    4    4    0  502  0.63478755542E+01  0.21181076678E+02  0.20319029396E+03  0.20444392652E+03  0.47000000000E+01 0. -1.
          5    1    5    5  503    0 -0.50711415804E+02 -0.26866946661E+02  0.26866402654E+03  0.27476522646E+03  0.47000000000E+01 0. -1.
         -5    1    5    5    0  503 -0.79224340186E+00  0.46829657413E+02  0.36242616283E+02  0.59407589566E+02  0.47000000000E+01 0. -1.
<mgrwt>
<rscale>  0 0.27398244E+03</rscale>
<asrwt>0</asrwt>
<pdfrwt beam="1">  1        2 0.88903201E-01 0.27398244E+03</pdfrwt>
<pdfrwt beam="2">  1       -2 0.49962177E-02 0.27398244E+03</pdfrwt>
<totfact> 0.10281998E+04</totfact>
</mgrwt>
</event>
<event>
 9    1  0.7816570E-001  0.2763625E+03  0.7818608E-02  0.1097692E+00
          1   -1    0    0  501    0  0.00000000000E+00  0.00000000000E+00  0.30322209641E+03  0.30322209641E+03  0.00000000000E+00 0.  1.
         -1   -1    0    0    0  501 -0.00000000000E+00 -0.00000000000E+00 -0.62970515950E+02  0.62970515950E+02  0.00000000000E+00 0.  1.
         35    2    1    2    0    0  0.00000000000E+00 -0.71054273576E-14  0.24025158046E+03  0.36619261236E+03  0.27636245663E+03 0.  0.
         25    2    3    3    0    0  0.49403723636E+02 -0.31254432805E+02  0.14489238873E+03  0.19944403277E+03  0.12396189098E+03 0.  0.
         25    2    3    3    0    0 -0.49403723636E+02  0.31254432805E+02  0.95359191734E+02  0.16674857959E+03  0.12366950258E+03 0.  0.
          5    1    4    4  502    0  0.61835177182E+02  0.29249427982E+02  0.10618738620E+03  0.12640003625E+03  0.47000000000E+01 0. -1.
         -5    1    4    4    0  502 -0.12431453546E+02 -0.60503860787E+02  0.38705002525E+02  0.73043996522E+02  0.47000000000E+01 0. -1.
          5    1    5    5  503    0  0.32669295223E+02  0.31927028602E+02  0.63978988237E+02  0.78752897988E+02  0.47000000000E+01 0. -1.
         -5    1    5    5    0  503 -0.82073018859E+02 -0.67259579708E+00  0.31380203497E+02  0.87995681606E+02  0.47000000000E+01 0. -1.
<mgrwt>
<rscale>  0 0.27636246E+03</rscale>
<asrwt>0</asrwt>
<pdfrwt beam="1">  1        1 0.46649552E-01 0.27636246E+03</pdfrwt>
<pdfrwt beam="2">  1       -1 0.96877719E-02 0.27636246E+03</pdfrwt>
<totfact> 0.55003610E+03</totfact>
</mgrwt>
</event>
<event>
 9    1  0.7816570E-001  0.2773117E+03  0.7818608E-02  0.1097166E+00
          2   -1    0    0  501    0  0.00000000000E+00  0.00000000000E+00  0.17695092311E+03  0.17695092311E+03  0.00000000000E+00 0.  1.
         -2   -1    0    0    0  501 -0.00000000000E+00 -0.00000000000E+00 -0.10864847889E+03  0.10864847889E+03  0.00000000000E+00 0.  1.
         35    2    1    2    0    0 -0.35527136788E-14  0.00000000000E+00  0.68302444225E+02  0.28559940200E+03  0.27731172809E+03 0.  0.
         25    2    3    3    0    0  0.18397720243E+01  0.41707129351E+02  0.79157757428E+02  0.15365252066E+03  0.12490106943E+03 0.  0.
         25    2    3    3    0    0 -0.18397720243E+01 -0.41707129351E+02 -0.10855313203E+02  0.13194688134E+03  0.12469672117E+03 0.  0.
          5    1    4    4  502    0 -0.12140710571E+02 -0.35085924545E+02  0.63794244579E+02  0.73960899100E+02  0.47000000000E+01 0.  1.
         -5    1    4    4    0  502  0.13980482596E+02  0.76793053896E+02  0.15363512849E+02  0.79691621563E+02  0.47000000000E+01 0.  1.
          5    1    5    5  503    0  0.59260586335E+02 -0.18592716862E+02 -0.20871347153E+02  0.65690253045E+02  0.47000000000E+01 0.  1.
         -5    1    5    5    0  503 -0.61100358360E+02 -0.23114412489E+02  0.10016033950E+02  0.66256628291E+02  0.47000000000E+01 0.  1.
<mgrwt>
<rscale>  0 0.27731173E+03</rscale>
<asrwt>0</asrwt>
<pdfrwt beam="1">  1        2 0.27223219E-01 0.27731173E+03</pdfrwt>
<pdfrwt beam="2">  1       -2 0.16715151E-01 0.27731173E+03</pdfrwt>
<totfact> 0.55415700E+03</totfact>
</mgrwt>
</event>
<event>
 9    1  0.7816570E-001  0.2749848E+03  0.7818608E-02  0.1098460E+00
          2   -1    0    0  501    0  0.00000000000E+00  0.00000000000E+00  0.24628466403E+03  0.24628466403E+03  0.00000000000E+00 0. -1.
         -2   -1    0    0    0  501 -0.00000000000E+00 -0.00000000000E+00 -0.76757371851E+02  0.76757371851E+02  0.00000000000E+00 0. -1.
         35    2    1    2    0    0  0.71054273576E-14  0.71054273576E-14  0.16952729218E+03  0.32304203588E+03  0.27498482532E+03 0.  0.
         25    2    3    3    0    0 -0.34448996938E+02  0.25231204036E+02  0.14313816617E+03  0.18953315840E+03  0.11666591820E+03 0.  0.
         25    2    3    3    0    0  0.34448996938E+02 -0.25231204036E+02  0.26389126006E+02  0.13350887748E+03  0.12371292313E+03 0.  0.
          5    1    4    4  502    0 -0.65432339744E+01 -0.26259136142E+02 -0.69684908571E+01  0.28337360615E+02  0.47000000000E+01 0.  1.
         -5    1    4    4    0  502 -0.27905762964E+02  0.51490340178E+02  0.15010665703E+03  0.16119579778E+03  0.47000000000E+01 0.  1.
          5    1    5    5  503    0  0.23785756535E+02  0.47798813178E+02 -0.35742847046E+01  0.53715493727E+02  0.47000000000E+01 0. -1.
         -5    1    5    5    0  503  0.10663240403E+02 -0.73030017213E+02  0.29963410711E+02  0.79793383758E+02  0.47000000000E+01 0. -1.
<mgrwt>
<rscale>  0 0.27498483E+03</rscale>
<asrwt>0</asrwt>
<pdfrwt beam="1">  1        2 0.37889948E-01 0.27498483E+03</pdfrwt>
<pdfrwt beam="2">  1       -2 0.11808827E-01 0.27498483E+03</pdfrwt>
<totfact> 0.68276633E+03</totfact>
</mgrwt>
</event>
<event>
 9    1  0.7816570E-001  0.2746365E+03  0.7818608E-02  0.1098655E+00
          1   -1    0    0  501    0  0.00000000000E+00  0.00000000000E+00  0.21326221755E+03  0.21326221755E+03  0.00000000000E+00 0. -1.
         -1   -1    0    0    0  501 -0.00000000000E+00 -0.00000000000E+00 -0.88418384086E+02  0.88418384086E+02  0.00000000000E+00 0. -1.
         35    2    1    2    0    0  0.71054273576E-14  0.00000000000E+00  0.12484383346E+03  0.30168060164E+03  0.27463649184E+03 0.  0.
         25    2    3    3    0    0 -0.32378187118E+02  0.85556587997E+00  0.11386563781E+03  0.17182331342E+03  0.12453428670E+03 0.  0.
         25    2    3    3    0    0  0.32378187118E+02 -0.85556587997E+00  0.10978195651E+02  0.12985728822E+03  0.12527296408E+03 0.  0.
          5    1    4    4  502    0  0.34600601710E+02  0.18672579916E+02  0.90076304839E+02  0.98395617651E+02  0.47000000000E+01 0. -1.
         -5    1    4    4    0  502 -0.66978788828E+02 -0.17817014036E+02  0.23789332974E+02  0.73427695765E+02  0.47000000000E+01 0. -1.
          5    1    5    5  503    0  0.24159746921E+02  0.61343361212E+02  0.10596158135E+02  0.66940794014E+02  0.47000000000E+01 0.  1.
         -5    1    5    5    0  503  0.82184401968E+01 -0.62198927092E+02  0.38203751607E+00  0.62916494207E+02  0.47000000000E+01 0.  1.
<mgrwt>
<rscale>  0 0.27463649E+03</rscale>
<asrwt>0</asrwt>
<pdfrwt beam="1">  1        1 0.32809572E-01 0.27463649E+03</pdfrwt>
<pdfrwt beam="2">  1       -1 0.13602828E-01 0.27463649E+03</pdfrwt>
<totfact> 0.50417690E+03</totfact>
</mgrwt>
</event>
<event>
 9    1  0.7816570E-001  0.2730550E+03  0.7818608E-02  0.1099544E+00
         -1   -1    0    0    0  501 -0.00000000000E+00  0.00000000000E+00  0.12352297483E+02  0.12352297483E+02  0.00000000000E+00 0.  1.
          1   -1    0    0  501    0  0.00000000000E+00 -0.00000000000E+00 -0.15090116136E+04  0.15090116136E+04  0.00000000000E+00 0.  1.
         35    2    1    2    0    0  0.00000000000E+00  0.00000000000E+00 -0.14966593162E+04  0.15213639111E+04  0.27305501539E+03 0.  0.
         25    2    3    3    0    0 -0.41205321492E+02  0.29104673281E+02 -0.83976149660E+03  0.85052351588E+03  0.12508364953E+03 0.  0.
         25    2    3    3    0    0  0.41205321492E+02 -0.29104673281E+02 -0.65689781957E+03  0.67084039525E+03  0.12636110959E+03 0.  0.
          5    1    4    4  502    0 -0.17809821785E+02  0.33112637342E+02 -0.63934159321E+02  0.74318929162E+02  0.47000000000E+01 0.  1.
         -5    1    4    4    0  502 -0.23395499707E+02 -0.40079640617E+01 -0.77582733727E+03  0.77620458672E+03  0.47000000000E+01 0.  1.
          5    1    5    5  503    0  0.11993681374E+02  0.39270293204E+02 -0.89612734893E+02  0.98684023916E+02  0.47000000000E+01 0. -1.
         -5    1    5    5    0  503  0.29211640118E+02 -0.68374966485E+02 -0.56728508468E+03  0.57215637133E+03  0.47000000000E+01 0. -1.
<mgrwt>
<rscale>  0 0.27305502E+03</rscale>
<asrwt>0</asrwt>
<pdfrwt beam="1">  1        1 0.23215555E+00 0.27305502E+03</pdfrwt>
<pdfrwt beam="2">  1       -1 0.19003542E-02 0.27305502E+03</pdfrwt>
<totfact> 0.52154853E+03</totfact>
</mgrwt>
</event>
<event>
 9    1  0.7816570E-001  0.2750468E+03  0.7818608E-02  0.1098425E+00
          3   -1    0    0  501    0  0.00000000000E+00  0.00000000000E+00  0.47261872941E+03  0.47261872941E+03  0.00000000000E+00 0.  1.
         -3   -1    0    0    0  501 -0.00000000000E+00 -0.00000000000E+00 -0.40016799334E+02  0.40016799334E+02  0.00000000000E+00 0.  1.
         35    2    1    2    0    0  0.00000000000E+00  0.71054273576E-14  0.43260193008E+03  0.51263552875E+03  0.27504682406E+03 0.  0.
         25    2    3    3    0    0  0.44531090895E+02  0.92957056622E+01  0.15441853017E+03  0.20399041067E+03  0.12528997161E+03 0.  0.
         25    2    3    3    0    0 -0.44531090895E+02 -0.92957056622E+01  0.27818339992E+03  0.30864511808E+03  0.12572341359E+03 0.  0.
          5    1    4    4  502    0 -0.33790088379E+02 -0.29379444847E+02  0.63305293958E+02  0.77682508297E+02  0.47000000000E+01 0. -1.
         -5    1    4    4    0  502  0.78321179274E+02  0.38675150509E+02  0.91113236207E+02  0.12630790237E+03  0.47000000000E+01 0. -1.
          5    1    5    5  503    0 -0.29876569570E+02 -0.67151547781E+02  0.14534214218E+03  0.16293669959E+03  0.47000000000E+01 0. -1.
         -5    1    5    5    0  503 -0.14654521325E+02  0.57855842119E+02  0.13284125774E+03  0.14570841849E+03  0.47000000000E+01 0. -1.
<mgrwt>
<rscale>  0 0.27504682E+03</rscale>
<asrwt>0</asrwt>
<pdfrwt beam="1">  1        3 0.72710570E-01 0.27504682E+03</pdfrwt>
<pdfrwt beam="2">  1       -3 0.61564310E-02 0.27504682E+03</pdfrwt>
<totfact> 0.76188045E+02</totfact>
</mgrwt>
</event>
<event>
 9    1  0.7816570E-001  0.2748599E+03  0.7818608E-02  0.1098530E+00
          3   -1    0    0  501    0  0.00000000000E+00  0.00000000000E+00  0.33318627722E+03  0.33318627722E+03  0.00000000000E+00 0.  1.
         -3   -1    0    0    0  501 -0.00000000000E+00 -0.00000000000E+00 -0.56685986881E+02  0.56685986881E+02  0.00000000000E+00 0.  1.
         35    2    1    2    0    0 -0.71054273576E-14  0.00000000000E+00  0.27650029034E+03  0.38987226410E+03  0.27485991297E+03 0.  0.
         25    2    3    3    0    0  0.36274140845E+02  0.42221110268E+02  0.10779899998E+03  0.17248683566E+03  0.12260770217E+03 0.  0.
         25    2    3    3    0    0 -0.36274140845E+02 -0.42221110268E+02  0.16870129035E+03  0.21738542844E+03  0.12529111575E+03 0.  0.
          5    1    4    4  502    0 -0.28935389256E+02 -0.26578324277E+02  0.35760618337E+02  0.53334565683E+02  0.47000000000E+01 0. -1.
         -5    1    4    4    0  502  0.65209530101E+02  0.68799434545E+02  0.72038381647E+02  0.11915226997E+03  0.47000000000E+01 0. -1.
          5    1    5    5  503    0 -0.21693628030E+01 -0.84601876972E+01 -0.20159061252E+02  0.22466834699E+02  0.47000000000E+01 0. -1.
         -5    1    5    5    0  503 -0.34104778042E+02 -0.33760922571E+02  0.18886035160E+03  0.19491859374E+03  0.47000000000E+01 0. -1.
<mgrwt>
<rscale>  0 0.27485991E+03</rscale>
<asrwt>0</asrwt>
<pdfrwt beam="1">  1        3 0.51259426E-01 0.27485991E+03</pdfrwt>
<pdfrwt beam="2">  1       -3 0.87209212E-02 0.27485991E+03</pdfrwt>
<totfact> 0.89459102E+02</totfact>
</mgrwt>
</event>
<event>
 9    1  0.7816570E-001  0.2737966E+03  0.7818608E-02  0.1099126E+00
          2   -1    0    0  501    0  0.00000000000E+00  0.00000000000E+00  0.11026296773E+04  0.11026296773E+04  0.00000000000E+00 0. -1.
         -2   -1    0    0    0  501 -0.00000000000E+00 -0.00000000000E+00 -0.16996767986E+02  0.16996767986E+02  0.00000000000E+00 0. -1.
         35    2    1    2    0    0  0.00000000000E+00  0.17763568394E-14  0.10856329093E+04  0.11196264453E+04  0.27379657266E+03 0.  0.
         25    2    3    3    0    0  0.25698946341E+02 -0.71447063623E+01  0.34776961539E+03  0.37068407896E+03  0.12550497333E+03 0.  0.
         25    2    3    3    0    0 -0.25698946341E+02  0.71447063623E+01  0.73786329396E+03  0.74894236636E+03  0.12554260189E+03 0.  0.
          5    1    4    4  502    0 -0.16610156407E+02 -0.15767234214E+02  0.31601891205E+03  0.31688254251E+03  0.47000000000E+01 0. -1.
         -5    1    4    4    0  502  0.42309102748E+02  0.86225278519E+01  0.31750703335E+02  0.53801536448E+02  0.47000000000E+01 0. -1.
          5    1    5    5  503    0  0.25581801602E+02  0.20407957497E+02  0.60399567676E+03  0.60489981059E+03  0.47000000000E+01 0. -1.
         -5    1    5    5    0  503 -0.51280747942E+02 -0.13263251135E+02  0.13386761720E+03  0.14404255577E+03  0.47000000000E+01 0. -1.
<mgrwt>
<rscale>  0 0.27379657E+03</rscale>
<asrwt>0</asrwt>
<pdfrwt beam="1">  1        2 0.16963528E+00 0.27379657E+03</pdfrwt>
<pdfrwt beam="2">  1       -2 0.26148882E-02 0.27379657E+03</pdfrwt>
<totfact> 0.11809102E+04</totfact>
</mgrwt>
</event>
<event>
 9    1  0.7816570E-001  0.2746877E+03  0.7818608E-02  0.1098626E+00
         -2   -1    0    0    0  501 -0.00000000000E+00  0.00000000000E+00  0.43923607049E+02  0.43923607049E+02  0.00000000000E+00 0.  1.
          2   -1    0    0  501    0  0.00000000000E+00 -0.00000000000E+00 -0.42945779132E+03  0.42945779132E+03  0.00000000000E+00 0.  1.
         35    2    1    2    0    0 -0.71054273576E-14  0.00000000000E+00 -0.38553418427E+03  0.47338139837E+03  0.27468771556E+03 0.  0.
         25    2    3    3    0    0 -0.42934334063E+02  0.36935340869E+02 -0.20876552774E+03  0.24965879714E+03  0.12465509605E+03 0.  0.
         25    2    3    3    0    0  0.42934334063E+02 -0.36935340869E+02 -0.17676865653E+03  0.22372260122E+03  0.12488822171E+03 0.  0.
          5    1    4    4  502    0 -0.18544907011E+02 -0.12201623211E+02 -0.19020924356E+03  0.19155792733E+03  0.47000000000E+01 0.  1.
         -5    1    4    4    0  502 -0.24389427053E+02  0.49136964080E+02 -0.18556284177E+02  0.58100869816E+02  0.47000000000E+01 0.  1.
          5    1    5    5  503    0  0.67156710603E+02 -0.67901738980E+02 -0.10697273965E+03  0.14347796683E+03  0.47000000000E+01 0. -1.
         -5    1    5    5    0  503 -0.24222376540E+02  0.30966398110E+02 -0.69795916876E+02  0.80244634398E+02  0.47000000000E+01 0. -1.
<mgrwt>
<rscale>  0 0.27468772E+03</rscale>
<asrwt>0</asrwt>
<pdfrwt beam="1">  1        2 0.66070427E-01 0.27468772E+03</pdfrwt>
<pdfrwt beam="2">  1       -2 0.67574783E-02 0.27468772E+03</pdfrwt>
<totfact> 0.90275443E+03</totfact>
</mgrwt>
</event>
<event>
 9    1  0.7816570E-001  0.2742182E+03  0.7818608E-02  0.1098889E+00
          2   -1    0    0  501    0  0.00000000000E+00  0.00000000000E+00  0.11278927208E+02  0.11278927208E+02  0.00000000000E+00 0.  1.
         -2   -1    0    0    0  501 -0.00000000000E+00 -0.00000000000E+00 -0.16667284319E+04  0.16667284319E+04  0.00000000000E+00 0.  1.
         35    2    1    2    0    0  0.35527136788E-14  0.00000000000E+00 -0.16554495047E+04  0.16780073591E+04  0.27421822448E+03 0.  0.
         25    2    3    3    0    0  0.26642837593E+02 -0.80432701951E+01 -0.11185212598E+04  0.11258990026E+04  0.12563526732E+03 0.  0.
         25    2    3    3    0    0 -0.26642837593E+02  0.80432701951E+01 -0.53692824490E+03  0.55210835654E+03  0.12552753561E+03 0.  0.
          5    1    4    4  502    0  0.38143319285E+01 -0.34647649284E+02 -0.10296127787E+04  0.10302133628E+04  0.47000000000E+01 0. -1.
         -5    1    4    4    0  502  0.22828505664E+02  0.26604379089E+02 -0.88908481088E+02  0.95685639816E+02  0.47000000000E+01 0. -1.
          5    1    5    5  503    0  0.32431921711E+00 -0.57272225861E+02 -0.22220537755E+03  0.22951586623E+03  0.47000000000E+01 0. -1.
         -5    1    5    5    0  503 -0.26967156810E+02  0.65315496056E+02 -0.31472286735E+03  0.32259249031E+03  0.47000000000E+01 0. -1.
<mgrwt>
<rscale>  0 0.27421822E+03</rscale>
<asrwt>0</asrwt>
<pdfrwt beam="1">  1        2 0.17352195E-02 0.27421822E+03</pdfrwt>
<pdfrwt beam="2">  1       -2 0.25641977E+00 0.27421822E+03</pdfrwt>
<totfact> 0.43865986E+02</totfact>
</mgrwt>
</event>
<event>
 9    1  0.7816570E-001  0.2743185E+03  0.7818608E-02  0.1098833E+00
          2   -1    0    0  501    0  0.00000000000E+00  0.00000000000E+00  0.12611898292E+03  0.12611898292E+03  0.00000000000E+00 0. -1.
         -2   -1    0    0    0  501 -0.00000000000E+00 -0.00000000000E+00 -0.14916599791E+03  0.14916599791E+03  0.00000000000E+00 0. -1.
         35    2    1    2    0    0  0.00000000000E+00  0.71054273576E-14 -0.23047014982E+02  0.27528498083E+03  0.27431852976E+03 0.  0.
         25    2    3    3    0    0 -0.11644907003E+02 -0.22794439610E+02 -0.62320951998E+02  0.14222254163E+03  0.12525238503E+03 0.  0.
         25    2    3    3    0    0  0.11644907003E+02  0.22794439610E+02  0.39273937016E+02  0.13306243920E+03  0.12453104135E+03 0.  0.
          5    1    4    4  502    0  0.19802006777E+01  0.51044206839E+02 -0.35363253977E+02  0.62306355843E+02  0.47000000000E+01 0.  1.
         -5    1    4    4    0  502 -0.13625107681E+02 -0.73838646450E+02 -0.26957698022E+02  0.79916185792E+02  0.47000000000E+01 0.  1.
          5    1    5    5  503    0 -0.46298661541E+01  0.59631997283E+02 -0.18227409585E+02  0.62703582201E+02  0.47000000000E+01 0. -1.
         -5    1    5    5    0  503  0.16274773157E+02 -0.36837557673E+02  0.57501346602E+02  0.70358856995E+02  0.47000000000E+01 0. -1.
<mgrwt>
<rscale>  0 0.27431853E+03</rscale>
<asrwt>0</asrwt>
<pdfrwt beam="1">  1        2 0.19402920E-01 0.27431853E+03</pdfrwt>
<pdfrwt beam="2">  1       -2 0.22948615E-01 0.27431853E+03</pdfrwt>
<totfact> 0.47257325E+03</totfact>
</mgrwt>
</event>
<event>
 9    1  0.7816570E-001  0.2766276E+03  0.7818608E-02  0.1097545E+00
         -2   -1    0    0    0  501 -0.00000000000E+00  0.00000000000E+00  0.70319423946E+02  0.70319423946E+02  0.00000000000E+00 0.  1.
          2   -1    0    0  501    0  0.00000000000E+00 -0.00000000000E+00 -0.27205439908E+03  0.27205439908E+03  0.00000000000E+00 0.  1.
         35    2    1    2    0    0  0.00000000000E+00  0.00000000000E+00 -0.20173497514E+03  0.34237382303E+03  0.27662760980E+03 0.  0.
         25    2    3    3    0    0  0.15137860608E+01  0.51624231774E+02 -0.10879820654E+03  0.17854913672E+03  0.13181574876E+03 0.  0.
         25    2    3    3    0    0 -0.15137860608E+01 -0.51624231774E+02 -0.92936768595E+02  0.16382468631E+03  0.12463519581E+03 0.  0.
          5    1    4    4  502    0 -0.44019808728E+02  0.50359485676E+02 -0.11420941939E+03  0.13243754315E+03  0.47000000000E+01 0.  1.
         -5    1    4    4    0  502  0.45533594788E+02  0.12647460980E+01  0.54112128484E+01  0.46111593570E+02  0.47000000000E+01 0.  1.
          5    1    5    5  503    0 -0.22766135629E+02 -0.18811654651E+02  0.25320698181E+02  0.39184219255E+02  0.47000000000E+01 0. -1.
         -5    1    5    5    0  503  0.21252349568E+02 -0.32812577123E+02 -0.11825746678E+03  0.12464046706E+03  0.47000000000E+01 0. -1.
<mgrwt>
<rscale>  0 0.27662761E+03</rscale>
<asrwt>0</asrwt>
<pdfrwt beam="1">  1        2 0.41854524E-01 0.27662761E+03</pdfrwt>
<pdfrwt beam="2">  1       -2 0.10818373E-01 0.27662761E+03</pdfrwt>
<totfact> 0.70608543E+03</totfact>
</mgrwt>
</event>
<event>
 9    1  0.7816570E-001  0.2782025E+03  0.7818608E-02  0.1096675E+00
          2   -1    0    0  501    0  0.00000000000E+00  0.00000000000E+00  0.75913092978E+03  0.75913092978E+03  0.00000000000E+00 0.  1.
         -2   -1    0    0    0  501 -0.00000000000E+00 -0.00000000000E+00 -0.25488563629E+02  0.25488563629E+02  0.00000000000E+00 0.  1.
         35    2    1    2    0    0  0.00000000000E+00  0.00000000000E+00  0.73364236615E+03  0.78461949341E+03  0.27820249464E+03 0.  0.
         25    2    3    3    0    0  0.52115747795E+02  0.34473703546E+01  0.28563672153E+03  0.31648803851E+03  0.12589045359E+03 0.  0.
         25    2    3    3    0    0 -0.52115747795E+02 -0.34473703546E+01  0.44800564463E+03  0.46813145490E+03  0.12533980181E+03 0.  0.
          5    1    4    4  502    0  0.39189105505E+02  0.56800991217E+02  0.91607731704E+02  0.11478765222E+03  0.47000000000E+01 0.  1.
         -5    1    4    4    0  502  0.12926642290E+02 -0.53353620863E+02  0.19402898982E+03  0.20170038630E+03  0.47000000000E+01 0. -1.
          5    1    5    5  503    0  0.30316850728E+00 -0.41146942540E+02  0.33770969102E+03  0.34023975105E+03  0.47000000000E+01 0. -1.
         -5    1    5    5    0  503 -0.52418916302E+02  0.37699572185E+02  0.11029595361E+03  0.12789170384E+03  0.47000000000E+01 0. -1.
<mgrwt>
<rscale>  0 0.27820249E+03</rscale>
<asrwt>0</asrwt>
<pdfrwt beam="1">  1        2 0.11678936E+00 0.27820249E+03</pdfrwt>
<pdfrwt beam="2">  1       -2 0.39213181E-02 0.27820249E+03</pdfrwt>
<totfact> 0.10707351E+04</totfact>
</mgrwt>
</event>
<event>
 9    1  0.7816570E-001  0.2773282E+03  0.7818608E-02  0.1097157E+00
         -2   -1    0    0    0  501 -0.00000000000E+00  0.00000000000E+00  0.27249038790E+02  0.27249038790E+02  0.00000000000E+00 0.  1.
          2   -1    0    0  501    0  0.00000000000E+00 -0.00000000000E+00 -0.70562959803E+03  0.70562959803E+03  0.00000000000E+00 0.  1.
         35    2    1    2    0    0  0.00000000000E+00 -0.35527136788E-14 -0.67838055924E+03  0.73287863682E+03  0.27732816870E+03 0.  0.
         25    2    3    3    0    0 -0.59398266951E+02 -0.66307593553E+01 -0.36436818140E+03  0.38961901282E+03  0.12436511750E+03 0.  0.
         25    2    3    3    0    0  0.59398266951E+02  0.66307593553E+01 -0.31401237785E+03  0.34325962400E+03  0.12510505563E+03 0.  0.
          5    1    4    4  502    0 -0.84766021478E+02 -0.27699820872E+02 -0.16620962248E+03  0.18868038339E+03  0.47000000000E+01 0.  1.
         -5    1    4    4    0  502  0.25367754527E+02  0.21069061517E+02 -0.19815855892E+03  0.20093862943E+03  0.47000000000E+01 0.  1.
          5    1    5    5  503    0  0.34822067362E+01 -0.54169442695E+02 -0.10129350453E+03  0.11501703503E+03  0.47000000000E+01 0.  1.
         -5    1    5    5    0  503  0.55916060215E+02  0.60800202050E+02 -0.21271887331E+03  0.22824258897E+03  0.47000000000E+01 0.  1.
<mgrwt>
<rscale>  0 0.27732817E+03</rscale>
<asrwt>0</asrwt>
<pdfrwt beam="1">  1        2 0.10855838E+00 0.27732817E+03</pdfrwt>
<pdfrwt beam="2">  1       -2 0.41921606E-02 0.27732817E+03</pdfrwt>
<totfact> 0.10594491E+04</totfact>
</mgrwt>
</event>
<event>
 9    1  0.7816570E-001  0.2721916E+03  0.7818608E-02  0.1100032E+00
         -2   -1    0    0    0  501 -0.00000000000E+00  0.00000000000E+00  0.37222469146E+02  0.37222469146E+02  0.00000000000E+00 0. -1.
          2   -1    0    0  501    0  0.00000000000E+00 -0.00000000000E+00 -0.49760434600E+03  0.49760434600E+03  0.00000000000E+00 0. -1.
         35    2    1    2    0    0  0.00000000000E+00  0.00000000000E+00 -0.46038187686E+03  0.53482681515E+03  0.27219156795E+03 0.  0.
         25    2    3    3    0    0  0.20490262181E+02 -0.13020958708E+02 -0.12965118321E+03  0.18173388069E+03  0.12501351076E+03 0.  0.
         25    2    3    3    0    0 -0.20490262181E+02  0.13020958708E+02 -0.33073069364E+03  0.35309293445E+03  0.12125358730E+03 0.  0.
          5    1    4    4  502    0  0.54403341254E+02 -0.14171509209E+02 -0.13568884982E+03  0.14694934222E+03  0.47000000000E+01 0. -1.
         -5    1    4    4    0  502 -0.33913079073E+02  0.11505505010E+01  0.60376666095E+01  0.34784538473E+02  0.47000000000E+01 0. -1.
          5    1    5    5  503    0  0.33808949909E+01 -0.18682838800E+02  0.39603745704E+00  0.19563378088E+02  0.47000000000E+01 0.  1.
         -5    1    5    5    0  503 -0.23871157172E+02  0.31703797507E+02 -0.33112673110E+03  0.33352955636E+03  0.47000000000E+01 0.  1.
<mgrwt>
<rscale>  0 0.27219157E+03</rscale>
<asrwt>0</asrwt>
<pdfrwt beam="1">  1        2 0.76554513E-01 0.27219157E+03</pdfrwt>
<pdfrwt beam="2">  1       -2 0.57265338E-02 0.27219157E+03</pdfrwt>
<totfact> 0.98909280E+03</totfact>
</mgrwt>
</event>
<event>
 9    1  0.7816570E-001  0.2767103E+03  0.7818608E-02  0.1097499E+00
          2   -1    0    0  501    0  0.00000000000E+00  0.00000000000E+00  0.71452114364E+03  0.71452114364E+03  0.00000000000E+00 0. -1.
         -2   -1    0    0    0  501 -0.00000000000E+00 -0.00000000000E+00 -0.26790180074E+02  0.26790180074E+02  0.00000000000E+00 0. -1.
         35    2    1    2    0    0  0.14210854715E-13  0.00000000000E+00  0.68773096356E+03  0.74131132371E+03  0.27671031860E+03 0.  0.
         25    2    3    3    0    0  0.45848947427E+02 -0.39944768131E+02  0.38890823407E+03  0.41181945033E+03  0.12102865222E+03 0.  0.
         25    2    3    3    0    0 -0.45848947427E+02  0.39944768131E+02  0.29882272949E+03  0.32949187338E+03  0.12478846294E+03 0.  0.
          5    1    4    4  502    0  0.64036185921E+02 -0.46322081627E+02  0.13041750534E+03  0.15256862080E+03  0.47000000000E+01 0. -1.
         -5    1    4    4    0  502 -0.18187238494E+02  0.63773134962E+01  0.25849072873E+03  0.25925082953E+03  0.47000000000E+01 0. -1.
          5    1    5    5  503    0 -0.58645607666E+02  0.78347876673E+02  0.20567165916E+03  0.22781707237E+03  0.47000000000E+01 0. -1.
         -5    1    5    5    0  503  0.12796660239E+02 -0.38403108542E+02  0.93151070325E+02  0.10167480102E+03  0.47000000000E+01 0. -1.
<mgrwt>
<rscale>  0 0.27671032E+03</rscale>
<asrwt>0</asrwt>
<pdfrwt beam="1">  1        2 0.10992632E+00 0.27671032E+03</pdfrwt>
<pdfrwt beam="2">  1       -2 0.41215667E-02 0.27671032E+03</pdfrwt>
<totfact> 0.10703536E+04</totfact>
</mgrwt>
</event>
<event>
 9    1  0.7816570E-001  0.2746429E+03  0.7818608E-02  0.1098651E+00
          1   -1    0    0  501    0  0.00000000000E+00  0.00000000000E+00  0.70512089143E+03  0.70512089143E+03  0.00000000000E+00 0.  1.
         -1   -1    0    0    0  501 -0.00000000000E+00 -0.00000000000E+00 -0.26743188784E+02  0.26743188784E+02  0.00000000000E+00 0.  1.
         35    2    1    2    0    0  0.00000000000E+00  0.35527136788E-14  0.67837770265E+03  0.73186408021E+03  0.27464290353E+03 0.  0.
         25    2    3    3    0    0  0.32248525269E+02 -0.27332051494E+02  0.44237687013E+03  0.46169507253E+03  0.12521196571E+03 0.  0.
         25    2    3    3    0    0 -0.32248525269E+02  0.27332051494E+02  0.23600083252E+03  0.27016900768E+03  0.12453068434E+03 0.  0.
          5    1    4    4  502    0  0.22341897807E+02  0.24500367926E+02  0.27177587809E+02  0.43129336944E+02  0.47000000000E+01 0.  1.
         -5    1    4    4    0  502  0.99066274613E+01 -0.51832419420E+02  0.41519928232E+03  0.41856573559E+03  0.47000000000E+01 0.  1.
          5    1    5    5  503    0 -0.82526267316E+01  0.44810463578E+02  0.16603065710E+02  0.48722020535E+02  0.47000000000E+01 0.  1.
         -5    1    5    5    0  503 -0.23995898537E+02 -0.17478412084E+02  0.21939776681E+03  0.22144698714E+03  0.47000000000E+01 0.  1.
<mgrwt>
<rscale>  0 0.27464290E+03</rscale>
<asrwt>0</asrwt>
<pdfrwt beam="1">  1        1 0.10848012E+00 0.27464290E+03</pdfrwt>
<pdfrwt beam="2">  1       -1 0.41143373E-02 0.27464290E+03</pdfrwt>
<totfact> 0.65576031E+03</totfact>
</mgrwt>
</event>
<event>
 9    1  0.7816570E-001  0.2763527E+03  0.7818608E-02  0.1097698E+00
         -1   -1    0    0    0  501 -0.00000000000E+00  0.00000000000E+00  0.85359764792E+02  0.85359764792E+02  0.00000000000E+00 0. -1.
          1   -1    0    0  501    0  0.00000000000E+00 -0.00000000000E+00 -0.22367340226E+03  0.22367340226E+03  0.00000000000E+00 0. -1.
         35    2    1    2    0    0  0.71054273576E-14 -0.71054273576E-14 -0.13831363747E+03  0.30903316705E+03  0.27635273841E+03 0.  0.
         25    2    3    3    0    0 -0.43026721210E+02 -0.35550679531E+02 -0.82760642813E+02  0.16059128643E+03  0.12579780494E+03 0.  0.
         25    2    3    3    0    0  0.43026721210E+02  0.35550679531E+02 -0.55552994654E+02  0.14844188062E+03  0.12583205932E+03 0.  0.
          5    1    4    4  502    0  0.41399816202E+02 -0.19325970417E+02 -0.51466715494E+02  0.68980799632E+02  0.47000000000E+01 0.  1.
         -5    1    4    4    0  502 -0.84426537412E+02 -0.16224709114E+02 -0.31293927319E+02  0.91610486803E+02  0.47000000000E+01 0.  1.
          5    1    5    5  503    0 -0.25579592857E+02  0.48931075519E+02 -0.55439653052E+02  0.78385016762E+02  0.47000000000E+01 0.  1.
         -5    1    5    5    0  503  0.68606314067E+02 -0.13380395989E+02 -0.11334160170E+00  0.70056863854E+02  0.47000000000E+01 0.  1.
<mgrwt>
<rscale>  0 0.27635274E+03</rscale>
<asrwt>0</asrwt>
<pdfrwt beam="1">  1        1 0.34411292E-01 0.27635274E+03</pdfrwt>
<pdfrwt beam="2">  1       -1 0.13132272E-01 0.27635274E+03</pdfrwt>
<totfact> 0.50198955E+03</totfact>
</mgrwt>
</event>
<event>
 9    1  0.7816570E-001  0.2744497E+03  0.7818608E-02  0.1098760E+00
         -2   -1    0    0    0  501 -0.00000000000E+00  0.00000000000E+00  0.11503832660E+03  0.11503832660E+03  0.00000000000E+00 0.  1.
          2   -1    0    0  501    0  0.00000000000E+00 -0.00000000000E+00 -0.16369033849E+03  0.16369033849E+03  0.00000000000E+00 0.  1.
         35    2    1    2    0    0 -0.35527136788E-14  0.71054273576E-14 -0.48652011893E+02  0.27872866509E+03  0.27444972305E+03 0.  0.
         25    2    3    3    0    0 -0.26892687332E+01  0.38166996115E+02  0.20019649432E+02  0.13170955544E+03  0.12442937302E+03 0.  0.
         25    2    3    3    0    0  0.26892687332E+01 -0.38166996115E+02 -0.68671661325E+02  0.14701910966E+03  0.12423715135E+03 0.  0.
          5    1    4    4  502    0 -0.49132954208E+02  0.47927971053E+02 -0.17546122136E+02  0.71000661972E+02  0.47000000000E+01 0. -1.
         -5    1    4    4    0  502  0.46443685475E+02 -0.97609749382E+01  0.37565771568E+02  0.60708893465E+02  0.47000000000E+01 0. -1.
          5    1    5    5  503    0  0.31891343747E+02 -0.33525599174E+01  0.26230403782E+02  0.41694382674E+02  0.47000000000E+01 0.  1.
         -5    1    5    5    0  503 -0.29202075013E+02 -0.34814436198E+02 -0.94902065107E+02  0.10532472698E+03  0.47000000000E+01 0.  1.
<mgrwt>
<rscale>  0 0.27444972E+03</rscale>
<asrwt>0</asrwt>
<pdfrwt beam="1">  1        2 0.25183129E-01 0.27444972E+03</pdfrwt>
<pdfrwt beam="2">  1       -2 0.17698204E-01 0.27444972E+03</pdfrwt>
<totfact> 0.54885867E+03</totfact>
</mgrwt>
</event>
<event>
 9    1  0.7816570E-001  0.2724888E+03  0.7818608E-02  0.1099864E+00
         -2   -1    0    0    0  501 -0.00000000000E+00  0.00000000000E+00  0.21238762813E+02  0.21238762813E+02  0.00000000000E+00 0.  1.
          2   -1    0    0  501    0  0.00000000000E+00 -0.00000000000E+00 -0.87399333297E+03  0.87399333297E+03  0.00000000000E+00 0.  1.
         35    2    1    2    0    0  0.00000000000E+00 -0.71054273576E-14 -0.85275457016E+03  0.89523209579E+03  0.27248880417E+03 0.  0.
         25    2    3    3    0    0  0.44814968450E+02  0.15895694369E+02 -0.51491676742E+03  0.53198775203E+03  0.12494253259E+03 0.  0.
         25    2    3    3    0    0 -0.44814968450E+02 -0.15895694369E+02 -0.33783780274E+03  0.36324434375E+03  0.12470372011E+03 0.  0.
          5    1    4    4  502    0  0.36694659403E+01 -0.52938265814E+02 -0.21441624082E+03  0.22093514726E+03  0.47000000000E+01 0.  1.
         -5    1    4    4    0  502  0.41145502509E+02  0.68833960182E+02 -0.30050052660E+03  0.31105260477E+03  0.47000000000E+01 0.  1.
          5    1    5    5  503    0  0.23962202329E+01  0.14463976048E+02  0.47068824504E+01  0.16099478778E+02  0.47000000000E+01 0.  1.
         -5    1    5    5    0  503 -0.47211188682E+02 -0.30359670416E+02 -0.34254468519E+03  0.34714486497E+03  0.47000000000E+01 0.  1.
<mgrwt>
<rscale>  0 0.27248880E+03</rscale>
<asrwt>0</asrwt>
<pdfrwt beam="1">  1        2 0.13446049E+00 0.27248880E+03</pdfrwt>
<pdfrwt beam="2">  1       -2 0.32675025E-02 0.27248880E+03</pdfrwt>
<totfact> 0.11735716E+04</totfact>
</mgrwt>
</event>
<event>
 9    1  0.7816570E-001  0.2763078E+03  0.7818608E-02  0.1097723E+00
         -1   -1    0    0    0  501 -0.00000000000E+00  0.00000000000E+00  0.27977379964E+02  0.27977379964E+02  0.00000000000E+00 0. -1.
          1   -1    0    0  501    0  0.00000000000E+00 -0.00000000000E+00 -0.68221160603E+03  0.68221160603E+03  0.00000000000E+00 0. -1.
         35    2    1    2    0    0  0.00000000000E+00  0.53290705182E-14 -0.65423422606E+03  0.71018898599E+03  0.27630775102E+03 0.  0.
         25    2    3    3    0    0 -0.21993627793E+02 -0.39965313430E+01 -0.46802646831E+03  0.48467444506E+03  0.12393889919E+03 0.  0.
         25    2    3    3    0    0  0.21993627793E+02  0.39965313430E+01 -0.18620775776E+03  0.22551454093E+03  0.12523492802E+03 0.  0.
          5    1    4    4  502    0 -0.51744014608E+02  0.43235209082E+02 -0.20894359630E+03  0.21960474218E+03  0.47000000000E+01 0. -1.
         -5    1    4    4    0  502  0.29750386815E+02 -0.47231740425E+02 -0.25908287200E+03  0.26506970288E+03  0.47000000000E+01 0. -1.
          5    1    5    5  503    0  0.27295365756E+02 -0.68417315389E+01 -0.20261473507E+03  0.20461345789E+03  0.47000000000E+01 0. -1.
         -5    1    5    5    0  503 -0.53017379625E+01  0.10838262882E+02  0.16406977314E+02  0.20901083041E+02  0.47000000000E+01 0. -1.
<mgrwt>
<rscale>  0 0.27630775E+03</rscale>
<asrwt>0</asrwt>
<pdfrwt beam="1">  1        1 0.10495562E+00 0.27630775E+03</pdfrwt>
<pdfrwt beam="2">  1       -1 0.43042128E-02 0.27630775E+03</pdfrwt>
<totfact> 0.64342816E+03</totfact>
</mgrwt>
</event>
<event>
 9    1  0.7816570E-001  0.2774125E+03  0.7818608E-02  0.1097111E+00
          2   -1    0    0  501    0  0.00000000000E+00  0.00000000000E+00  0.99641645751E+03  0.99641645751E+03  0.00000000000E+00 0. -1.
         -2   -1    0    0    0  501 -0.00000000000E+00 -0.00000000000E+00 -0.19308619670E+02  0.19308619670E+02  0.00000000000E+00 0. -1.
         35    2    1    2    0    0 -0.17763568394E-14  0.35527136788E-14  0.97710783784E+03  0.10157250772E+04  0.27741251890E+03 0.  0.
         25    2    3    3    0    0 -0.98536851684E+01  0.10961426144E+02  0.70147957875E+03  0.71277471022E+03  0.12552665111E+03 0.  0.
         25    2    3    3    0    0  0.98536851684E+01 -0.10961426144E+02  0.27562825908E+03  0.30295036696E+03  0.12486288344E+03 0.  0.
          5    1    4    4  502    0 -0.66113167795E+02  0.84316327401E+01  0.45635796930E+03  0.46122308000E+03  0.47000000000E+01 0.  1.
         -5    1    4    4    0  502  0.56259482626E+02  0.25297934043E+01  0.24512160946E+03  0.25155163021E+03  0.47000000000E+01 0.  1.
          5    1    5    5  503    0 -0.90262256405E+01  0.55128817464E+02  0.14053809902E+03  0.15130666390E+03  0.47000000000E+01 0.  1.
         -5    1    5    5    0  503  0.18879910809E+02 -0.66090243608E+02  0.13509016007E+03  0.15164370306E+03  0.47000000000E+01 0.  1.
<mgrwt>
<rscale>  0 0.27741252E+03</rscale>
<asrwt>0</asrwt>
<pdfrwt beam="1">  1        2 0.15329480E+00 0.27741252E+03</pdfrwt>
<pdfrwt beam="2">  1       -2 0.29705576E-02 0.27741252E+03</pdfrwt>
<totfact> 0.11319880E+04</totfact>
</mgrwt>
</event>
<event>
 9    1  0.7816570E-001  0.2738341E+03  0.7818608E-02  0.1099105E+00
         -2   -1    0    0    0  501 -0.00000000000E+00  0.00000000000E+00  0.47149215941E+03  0.47149215941E+03  0.00000000000E+00 0. -1.
          2   -1    0    0  501    0  0.00000000000E+00 -0.00000000000E+00 -0.39759482997E+02  0.39759482997E+02  0.00000000000E+00 0. -1.
         35    2    1    2    0    0  0.00000000000E+00  0.00000000000E+00  0.43173267642E+03  0.51125164241E+03  0.27383414320E+03 0.  0.
         25    2    3    3    0    0  0.42132383677E+02 -0.22005725205E+02  0.15685359102E+03  0.20553182415E+03  0.12401972434E+03 0.  0.
         25    2    3    3    0    0 -0.42132383677E+02  0.22005725205E+02  0.27487908540E+03  0.30571981826E+03  0.12508679385E+03 0.  0.
          5    1    4    4  502    0  0.16222796590E+02 -0.62479611879E+02  0.14026246734E+03  0.15447501666E+03  0.47000000000E+01 0.  1.
         -5    1    4    4    0  502  0.25909587087E+02  0.40473886674E+02  0.16591123687E+02  0.51056807487E+02  0.47000000000E+01 0.  1.
          5    1    5    5  503    0 -0.39847443608E+01  0.69682053721E+02  0.17624777471E+03  0.18962287544E+03  0.47000000000E+01 0.  1.
         -5    1    5    5    0  503 -0.38147639317E+02 -0.47676328516E+02  0.98631310686E+02  0.11609694283E+03  0.47000000000E+01 0.  1.
<mgrwt>
<rscale>  0 0.27383414E+03</rscale>
<asrwt>0</asrwt>
<pdfrwt beam="1">  1        2 0.61168439E-02 0.27383414E+03</pdfrwt>
<pdfrwt beam="2">  1       -2 0.72537251E-01 0.27383414E+03</pdfrwt>
<totfact> 0.21220816E+03</totfact>
</mgrwt>
</event>
<event>
 9    1  0.7816570E-001  0.2708339E+03  0.7818608E-02  0.1100803E+00
         -1   -1    0    0    0  501 -0.00000000000E+00  0.00000000000E+00  0.14739690069E+03  0.14739690069E+03  0.00000000000E+00 0.  1.
          1   -1    0    0  501    0  0.00000000000E+00 -0.00000000000E+00 -0.12441071963E+03  0.12441071963E+03  0.00000000000E+00 0.  1.
         35    2    1    2    0    0  0.00000000000E+00  0.71054273576E-14  0.22986181068E+02  0.27180762032E+03  0.27083393056E+03 0.  0.
         25    2    3    3    0    0  0.42746257841E+02  0.30187919758E+02  0.83636425584E+01  0.13578379666E+03  0.12501494255E+03 0.  0.
         25    2    3    3    0    0 -0.42746257841E+02 -0.30187919758E+02  0.14622538509E+02  0.13602382365E+03  0.12470007582E+03 0.  0.
          5    1    4    4  502    0 -0.14355220192E+02 -0.39131788074E+02 -0.11890262079E+02  0.43598595355E+02  0.47000000000E+01 0. -1.
         -5    1    4    4    0  502  0.57101478033E+02  0.69319707832E+02  0.20253904637E+02  0.92185201310E+02  0.47000000000E+01 0. -1.
          5    1    5    5  503    0  0.70094438767E+01  0.37542308949E+02  0.32034738243E+02  0.50068670034E+02  0.47000000000E+01 0.  1.
         -5    1    5    5    0  503 -0.49755701718E+02 -0.67730228708E+02 -0.17412199734E+02  0.85955153620E+02  0.47000000000E+01 0.  1.
<mgrwt>
<rscale>  0 0.27083393E+03</rscale>
<asrwt>0</asrwt>
<pdfrwt beam="1">  1        1 0.19140111E-01 0.27083393E+03</pdfrwt>
<pdfrwt beam="2">  1       -1 0.22676446E-01 0.27083393E+03</pdfrwt>
<totfact> 0.44004446E+03</totfact>
</mgrwt>
</event>
<event>
 9    1  0.7816570E-001  0.2831910E+03  0.7818608E-02  0.1093959E+00
          2   -1    0    0  501    0  0.00000000000E+00  0.00000000000E+00  0.83472126818E+03  0.83472126818E+03  0.00000000000E+00 0.  1.
         -2   -1    0    0    0  501 -0.00000000000E+00 -0.00000000000E+00 -0.24019133676E+02  0.24019133676E+02  0.00000000000E+00 0.  1.
         35    2    1    2    0    0  0.71054273576E-14  0.00000000000E+00  0.81070213451E+03  0.85874040186E+03  0.28319097248E+03 0.  0.
         25    2    3    3    0    0 -0.83678911620E+01 -0.70484533271E+02  0.41286465194E+03  0.43550556045E+03  0.11903689062E+03 0.  0.
         25    2    3    3    0    0  0.83678911620E+01  0.70484533271E+02  0.39783748257E+03  0.42323484141E+03  0.12575761375E+03 0.  0.
          5    1    4    4  502    0  0.40414271613E+02 -0.68858068064E+02  0.17180656715E+03  0.18951077384E+03  0.47000000000E+01 0.  1.
         -5    1    4    4    0  502 -0.48782162775E+02 -0.16264652066E+01  0.24105808479E+03  0.24599478660E+03  0.47000000000E+01 0.  1.
          5    1    5    5  503    0 -0.56771925835E+02  0.43408231287E+02  0.16432555097E+03  0.17925485435E+03  0.47000000000E+01 0. -1.
         -5    1    5    5    0  503  0.65139816997E+02  0.27076301984E+02  0.23351193160E+03  0.24397998706E+03  0.47000000000E+01 0. -1.
<mgrwt>
<rscale>  0 0.28319097E+03</rscale>
<asrwt>0</asrwt>
<pdfrwt beam="1">  1        2 0.12841863E+00 0.28319097E+03</pdfrwt>
<pdfrwt beam="2">  1       -2 0.36952520E-02 0.28319097E+03</pdfrwt>
<totfact> 0.10380980E+04</totfact>
</mgrwt>
</event>
<event>
 9    1  0.7816570E-001  0.2756688E+03  0.7818608E-02  0.1098078E+00
         -1   -1    0    0    0  501 -0.00000000000E+00  0.00000000000E+00  0.78946191307E+03  0.78946191307E+03  0.00000000000E+00 0.  1.
          1   -1    0    0  501    0  0.00000000000E+00 -0.00000000000E+00 -0.24064905063E+02  0.24064905063E+02  0.00000000000E+00 0.  1.
         35    2    1    2    0    0  0.00000000000E+00  0.71054273576E-14  0.76539700801E+03  0.81352681814E+03  0.27566883022E+03 0.  0.
         25    2    3    3    0    0 -0.28780039957E+02 -0.51471074030E+02  0.40521540554E+03  0.42786272078E+03  0.12405410428E+03 0.  0.
         25    2    3    3    0    0  0.28780039957E+02  0.51471074030E+02  0.36018160247E+03  0.38566409735E+03  0.12461318978E+03 0.  0.
          5    1    4    4  502    0 -0.40086028716E+02 -0.82259910813E+02  0.20000711636E+03  0.21999663456E+03  0.47000000000E+01 0.  1.
         -5    1    4    4    0  502  0.11305988759E+02  0.30788836783E+02  0.20520828918E+03  0.20786608622E+03  0.47000000000E+01 0.  1.
          5    1    5    5  503    0 -0.15910263957E+02  0.80556613272E+02  0.24972963460E+03  0.26292486539E+03  0.47000000000E+01 0. -1.
         -5    1    5    5    0  503  0.44690303914E+02 -0.29085539242E+02  0.11045196787E+03  0.12273923196E+03  0.47000000000E+01 0. -1.
<mgrwt>
<rscale>  0 0.27566883E+03</rscale>
<asrwt>0</asrwt>
<pdfrwt beam="1">  1        1 0.37022937E-02 0.27566883E+03</pdfrwt>
<pdfrwt beam="2">  1       -1 0.12145566E+00 0.27566883E+03</pdfrwt>
<totfact> 0.16275833E+03</totfact>
</mgrwt>
</event>
<event>
 9    1  0.7816570E-001  0.2752875E+03  0.7818608E-02  0.1098291E+00
          2   -1    0    0  501    0  0.00000000000E+00  0.00000000000E+00  0.59026314732E+02  0.59026314732E+02  0.00000000000E+00 0.  1.
         -2   -1    0    0    0  501 -0.00000000000E+00 -0.00000000000E+00 -0.32097222147E+03  0.32097222147E+03  0.00000000000E+00 0.  1.
         35    2    1    2    0    0  0.00000000000E+00  0.00000000000E+00 -0.26194590674E+03  0.37999853620E+03  0.27528753960E+03 0.  0.
         25    2    3    3    0    0  0.36337190397E+02 -0.57878360345E+01 -0.18525691282E+03  0.22866791173E+03  0.12889918408E+03 0.  0.
         25    2    3    3    0    0 -0.36337190397E+02  0.57878360345E+01 -0.76688993920E+02  0.15133062447E+03  0.12516335591E+03 0.  0.
          5    1    4    4  502    0  0.59331051443E+02 -0.42126173010E+02 -0.16601607824E+03  0.18132351296E+03  0.47000000000E+01 0.  1.
         -5    1    4    4    0  502 -0.22993861045E+02  0.36338336976E+02 -0.19240834577E+02  0.47344398773E+02  0.47000000000E+01 0.  1.
          5    1    5    5  503    0  0.10718366356E+02 -0.18803508552E+02  0.26892852947E+02  0.34839214268E+02  0.47000000000E+01 0.  1.
         -5    1    5    5    0  503 -0.47055556754E+02  0.24591344586E+02 -0.10358184687E+03  0.11649141020E+03  0.47000000000E+01 0.  1.
<mgrwt>
<rscale>  0 0.27528754E+03</rscale>
<asrwt>0</asrwt>
<pdfrwt beam="1">  1        2 0.90809715E-02 0.27528754E+03</pdfrwt>
<pdfrwt beam="2">  1       -2 0.49380342E-01 0.27528754E+03</pdfrwt>
<totfact> 0.28395500E+03</totfact>
</mgrwt>
</event>
<event>
 9    1  0.7816570E-001  0.2671500E+03  0.7818608E-02  0.1102922E+00
         -2   -1    0    0    0  501 -0.00000000000E+00  0.00000000000E+00  0.28013637483E+02  0.28013637483E+02  0.00000000000E+00 0. -1.
          2   -1    0    0  501    0  0.00000000000E+00 -0.00000000000E+00 -0.63691390522E+03  0.63691390522E+03  0.00000000000E+00 0. -1.
         35    2    1    2    0    0  0.00000000000E+00  0.00000000000E+00 -0.60890026773E+03  0.66492754270E+03  0.26714995975E+03 0.  0.
         25    2    3    3    0    0  0.88395001491E+01  0.35843526468E+02 -0.37441856418E+03  0.39668251511E+03  0.12571738716E+03 0.  0.
         25    2    3    3    0    0 -0.88395001491E+01 -0.35843526468E+02 -0.23448170355E+03  0.26824502759E+03  0.12494330864E+03 0.  0.
          5    1    4    4  502    0  0.79115621645E+01  0.28418839327E+01  0.81783468370E+01  0.12635049551E+02  0.47000000000E+01 0. -1.
         -5    1    4    4    0  502  0.92793798466E+00  0.33001642536E+02 -0.38259691102E+03  0.38404746555E+03  0.47000000000E+01 0. -1.
          5    1    5    5  503    0 -0.11963759738E+02  0.46246389810E+02 -0.86534404206E+02  0.98955309250E+02  0.47000000000E+01 0. -1.
         -5    1    5    5    0  503  0.31242595886E+01 -0.82089916278E+02 -0.14794729935E+03  0.16928971834E+03  0.47000000000E+01 0. -1.
<mgrwt>
<rscale>  0 0.26714996E+03</rscale>
<asrwt>0</asrwt>
<pdfrwt beam="1">  1        2 0.97986752E-01 0.26714996E+03</pdfrwt>
<pdfrwt beam="2">  1       -2 0.43097905E-02 0.26714996E+03</pdfrwt>
<totfact> 0.11471464E+04</totfact>
</mgrwt>
</event>
<event>
 9    1  0.7816570E-001  0.2716172E+03  0.7818608E-02  0.1100358E+00
          1   -1    0    0  501    0  0.00000000000E+00  0.00000000000E+00  0.30974232500E+02  0.30974232500E+02  0.00000000000E+00 0. -1.
         -1   -1    0    0    0  501 -0.00000000000E+00 -0.00000000000E+00 -0.59546194870E+03  0.59546194870E+03  0.00000000000E+00 0. -1.
         35    2    1    2    0    0 -0.71054273576E-14  0.00000000000E+00 -0.56448771620E+03  0.62643618120E+03  0.27161720744E+03 0.  0.
         25    2    3    3    0    0  0.43054701322E+02  0.31589891123E+02 -0.27158890612E+03  0.30377057437E+03  0.12515749836E+03 0.  0.
         25    2    3    3    0    0 -0.43054701322E+02 -0.31589891123E+02 -0.29289881007E+03  0.32266560683E+03  0.12438549900E+03 0.  0.
          5    1    4    4  502    0 -0.10446994858E+01  0.41381664062E+02 -0.16726741673E+02  0.44893289082E+02  0.47000000000E+01 0.  1.
         -5    1    4    4    0  502  0.44099400808E+02 -0.97917729389E+01 -0.25486216445E+03  0.25887728528E+03  0.47000000000E+01 0.  1.
          5    1    5    5  503    0  0.28535359233E+02  0.20360245587E+02 -0.34106222114E+02  0.49133804186E+02  0.47000000000E+01 0.  1.
         -5    1    5    5    0  503 -0.71590060554E+02 -0.51950136710E+02 -0.25879258796E+03  0.27353180264E+03  0.47000000000E+01 0.  1.
<mgrwt>
<rscale>  0 0.27161721E+03</rscale>
<asrwt>0</asrwt>
<pdfrwt beam="1">  1        1 0.47652670E-02 0.27161721E+03</pdfrwt>
<pdfrwt beam="2">  1       -1 0.91609522E-01 0.27161721E+03</pdfrwt>
<totfact> 0.21724308E+03</totfact>
</mgrwt>
</event>
<event>
 9    1  0.7816570E-001  0.2661002E+03  0.7818608E-02  0.1103533E+00
          2   -1    0    0  501    0  0.00000000000E+00  0.00000000000E+00  0.16925838121E+04  0.16925838121E+04  0.00000000000E+00 0. -1.
         -2   -1    0    0    0  501 -0.00000000000E+00 -0.00000000000E+00 -0.10458761026E+02  0.10458761026E+02  0.00000000000E+00 0. -1.
         35    2    1    2    0    0  0.00000000000E+00  0.53290705182E-14  0.16821250511E+04  0.17030425731E+04  0.26610020374E+03 0.  0.
         25    2    3    3    0    0 -0.13005022106E+02 -0.92852876949E+01  0.11218458422E+04  0.11288264556E+04  0.12432106041E+03 0.  0.
         25    2    3    3    0    0  0.13005022106E+02  0.92852876949E+01  0.56027920888E+03  0.57421611752E+03  0.12472373691E+03 0.  0.
          5    1    4    4  502    0  0.29998605734E+02 -0.54568196154E+02  0.52304342065E+03  0.52675811742E+03  0.47000000000E+01 0.  1.
         -5    1    4    4    0  502 -0.43003627840E+02  0.45282908460E+02  0.59880242156E+03  0.60206833821E+03  0.47000000000E+01 0.  1.
          5    1    5    5  503    0 -0.46138740052E+02  0.14227408719E+02  0.40533441820E+03  0.40822699944E+03  0.47000000000E+01 0.  1.
         -5    1    5    5    0  503  0.59143762158E+02 -0.49421210239E+01  0.15494479068E+03  0.16598911808E+03  0.47000000000E+01 0.  1.
<mgrwt>
<rscale>  0 0.26610020E+03</rscale>
<asrwt>0</asrwt>
<pdfrwt beam="1">  1        2 0.26039729E+00 0.26610020E+03</pdfrwt>
<pdfrwt beam="2">  1       -2 0.16090415E-02 0.26610020E+03</pdfrwt>
<totfact> 0.11465892E+04</totfact>
</mgrwt>
</event>
<event>
 9    1  0.7816570E-001  0.2753902E+03  0.7818608E-02  0.1098234E+00
         -2   -1    0    0    0  501 -0.00000000000E+00  0.00000000000E+00  0.52151837096E+02  0.52151837096E+02  0.00000000000E+00 0.  1.
          2   -1    0    0  501    0  0.00000000000E+00 -0.00000000000E+00 -0.36355266463E+03  0.36355266463E+03  0.00000000000E+00 0.  1.
         35    2    1    2    0    0  0.00000000000E+00  0.00000000000E+00 -0.31140082753E+03  0.41570450173E+03  0.27539019112E+03 0.  0.
         25    2    3    3    0    0  0.25851380971E+02  0.50478231387E+02 -0.11964004329E+03  0.18196494978E+03  0.12482450580E+03 0.  0.
         25    2    3    3    0    0 -0.25851380971E+02 -0.50478231387E+02 -0.19176078425E+03  0.23373955195E+03  0.12101914736E+03 0.  0.
          5    1    4    4  502    0  0.17819554842E+02  0.56257144905E+02  0.25800337190E+01  0.59254953055E+02  0.47000000000E+01 0. -1.
         -5    1    4    4    0  502  0.80318261291E+01 -0.57789135180E+01 -0.12222007701E+03  0.12270999672E+03  0.47000000000E+01 0. -1.
          5    1    5    5  503    0  0.11407923013E+02 -0.32462910618E+02  0.27328322557E+01  0.34835895933E+02  0.47000000000E+01 0. -1.
         -5    1    5    5    0  503 -0.37259303984E+02 -0.18015320768E+02 -0.19449361650E+03  0.19890365601E+03  0.47000000000E+01 0. -1.
<mgrwt>
<rscale>  0 0.27539019E+03</rscale>
<asrwt>0</asrwt>
<pdfrwt beam="1">  1        2 0.55931179E-01 0.27539019E+03</pdfrwt>
<pdfrwt beam="2">  1       -2 0.80233596E-02 0.27539019E+03</pdfrwt>
<totfact> 0.82864062E+03</totfact>
</mgrwt>
</event>
<event>
 9    1  0.7816570E-001  0.2807667E+03  0.7818608E-02  0.1095271E+00
         -2   -1    0    0    0  501 -0.00000000000E+00  0.00000000000E+00  0.22946314592E+03  0.22946314592E+03  0.00000000000E+00 0. -1.
          2   -1    0    0  501    0  0.00000000000E+00 -0.00000000000E+00 -0.85885182228E+02  0.85885182228E+02  0.00000000000E+00 0. -1.
         35    2    1    2    0    0  0.35527136788E-14  0.00000000000E+00  0.14357796369E+03  0.31534832814E+03  0.28076669390E+03 0.  0.
         25    2    3    3    0    0 -0.15507433780E+02  0.55093095415E+02  0.42492466734E+02  0.14397191215E+03  0.12508625862E+03 0.  0.
         25    2    3    3    0    0  0.15507433780E+02 -0.55093095415E+02  0.10108549695E+03  0.17137641599E+03  0.12599947856E+03 0.  0.
          5    1    4    4  502    0  0.20600299453E+02  0.79882872279E+02  0.53664691706E+02  0.98527330000E+02  0.47000000000E+01 0.  1.
         -5    1    4    4    0  502 -0.36107733234E+02 -0.24789776863E+02 -0.11172224972E+02  0.45444582152E+02  0.47000000000E+01 0.  1.
          5    1    5    5  503    0 -0.13830906016E+02  0.25696707769E+02 -0.96727718434E+01  0.31100920670E+02  0.47000000000E+01 0. -1.
         -5    1    5    5    0  503  0.29338339796E+02 -0.80789803184E+02  0.11075826880E+03  0.14027549532E+03  0.47000000000E+01 0. -1.
<mgrwt>
<rscale>  0 0.28076669E+03</rscale>
<asrwt>0</asrwt>
<pdfrwt beam="1">  1        2 0.13213105E-01 0.28076669E+03</pdfrwt>
<pdfrwt beam="2">  1       -2 0.35302022E-01 0.28076669E+03</pdfrwt>
<totfact> 0.34198870E+03</totfact>
</mgrwt>
</event>
<event>
 9    1  0.7816570E-001  0.2751030E+03  0.7818608E-02  0.1098394E+00
          1   -1    0    0  501    0  0.00000000000E+00  0.00000000000E+00  0.36891481906E+02  0.36891481906E+02  0.00000000000E+00 0. -1.
         -1   -1    0    0    0  501 -0.00000000000E+00 -0.00000000000E+00 -0.51286693469E+03  0.51286693469E+03  0.00000000000E+00 0. -1.
         35    2    1    2    0    0  0.00000000000E+00  0.71054273576E-14 -0.47597545279E+03  0.54975841660E+03  0.27510304427E+03 0.  0.
         25    2    3    3    0    0 -0.42465631987E+02 -0.35756503241E+02 -0.27024705074E+03  0.30284621665E+03  0.12490198189E+03 0.  0.
         25    2    3    3    0    0  0.42465631987E+02  0.35756503241E+02 -0.20572840205E+03  0.24691219995E+03  0.12473813230E+03 0.  0.
          5    1    4    4  502    0  0.13078247484E+02 -0.62302767822E+01  0.82320902358E+01  0.17312256227E+02  0.47000000000E+01 0.  1.
         -5    1    4    4    0  502 -0.55543879471E+02 -0.29526226458E+02 -0.27847914098E+03  0.28553396042E+03  0.47000000000E+01 0.  1.
          5    1    5    5  503    0 -0.17679101763E+02  0.56852297828E+02 -0.47647544427E+02  0.76401000631E+02  0.47000000000E+01 0.  1.
         -5    1    5    5    0  503  0.60144733750E+02 -0.21095794587E+02 -0.15808085762E+03  0.17051119932E+03  0.47000000000E+01 0.  1.
<mgrwt>
<rscale>  0 0.27510304E+03</rscale>
<asrwt>0</asrwt>
<pdfrwt beam="1">  1        1 0.56756127E-02 0.27510304E+03</pdfrwt>
<pdfrwt beam="2">  1       -1 0.78902604E-01 0.27510304E+03</pdfrwt>
<totfact> 0.23385902E+03</totfact>
</mgrwt>
</event>
<event>
 9    1  0.7816570E-001  0.2720675E+03  0.7818608E-02  0.1100102E+00
         -2   -1    0    0    0  501 -0.00000000000E+00  0.00000000000E+00  0.29836716837E+02  0.29836716837E+02  0.00000000000E+00 0. -1.
          2   -1    0    0  501    0  0.00000000000E+00 -0.00000000000E+00 -0.62021499941E+03  0.62021499941E+03  0.00000000000E+00 0. -1.
         35    2    1    2    0    0  0.71054273576E-14  0.00000000000E+00 -0.59037828257E+03  0.65005171624E+03  0.27206748659E+03 0.  0.
         25    2    3    3    0    0 -0.39710609121E+02 -0.33365684558E+02 -0.28946863173E+03  0.31985789211E+03  0.12580453491E+03 0.  0.
         25    2    3    3    0    0  0.39710609121E+02  0.33365684558E+02 -0.30090965084E+03  0.33019382414E+03  0.12566281132E+03 0.  0.
          5    1    4    4  502    0 -0.36499632805E+02 -0.80468014247E+02 -0.18122397505E+03  0.20167187123E+03  0.47000000000E+01 0. -1.
         -5    1    4    4    0  502 -0.32109763154E+01  0.47102329690E+02 -0.10824465668E+03  0.11818602088E+03  0.47000000000E+01 0. -1.
          5    1    5    5  503    0  0.48211057663E+01 -0.70737281634E+01 -0.26607697065E+03  0.26625612669E+03  0.47000000000E+01 0. -1.
         -5    1    5    5    0  503  0.34889503355E+02  0.40439412721E+02 -0.34832680191E+02  0.63937697447E+02  0.47000000000E+01 0. -1.
<mgrwt>
<rscale>  0 0.27206749E+03</rscale>
<asrwt>0</asrwt>
<pdfrwt beam="1">  1        2 0.95417694E-01 0.27206749E+03</pdfrwt>
<pdfrwt beam="2">  1       -2 0.45902641E-02 0.27206749E+03</pdfrwt>
<totfact> 0.10767573E+04</totfact>
</mgrwt>
</event>
<event>
 9    1  0.7816570E-001  0.2718513E+03  0.7818608E-02  0.1100225E+00
          2   -1    0    0  501    0  0.00000000000E+00  0.00000000000E+00  0.20579117184E+04  0.20579117184E+04  0.00000000000E+00 0.  1.
         -2   -1    0    0    0  501 -0.00000000000E+00 -0.00000000000E+00 -0.89779305736E+01  0.89779305736E+01  0.00000000000E+00 0.  1.
         35    2    1    2    0    0 -0.35527136788E-14  0.71054273576E-14  0.20489337878E+04  0.20668896490E+04  0.27185134566E+03 0.  0.
         25    2    3    3    0    0  0.60994455736E+01 -0.52082412104E+02  0.85793080056E+03  0.86833478130E+03  0.12332985440E+03 0.  0.
         25    2    3    3    0    0 -0.60994455736E+01  0.52082412104E+02  0.11910029873E+04  0.11985548677E+04  0.12367649029E+03 0.  0.
          5    1    4    4  502    0  0.27188800479E+02 -0.70171011967E+02  0.80361403099E+03  0.80714360717E+03  0.47000000000E+01 0.  1.
         -5    1    4    4    0  502 -0.21089354905E+02  0.18088599863E+02  0.54316769571E+02  0.61191174134E+02  0.47000000000E+01 0.  1.
          5    1    5    5  503    0 -0.42699509116E+02  0.50920130655E+02  0.10693511828E+04  0.10714243557E+04  0.47000000000E+01 0. -1.
         -5    1    5    5    0  503  0.36600063543E+02  0.11622814496E+01  0.12165180448E+03  0.12713051200E+03  0.47000000000E+01 0. -1.
<mgrwt>
<rscale>  0 0.27185135E+03</rscale>
<asrwt>0</asrwt>
<pdfrwt beam="1">  1        2 0.31660143E+00 0.27185135E+03</pdfrwt>
<pdfrwt beam="2">  1       -2 0.13812217E-02 0.27185135E+03</pdfrwt>
<totfact> 0.92174710E+03</totfact>
</mgrwt>
</event>
<event>
 9    1  0.7816570E-001  0.2768890E+03  0.7818608E-02  0.1097400E+00
         -2   -1    0    0    0  501 -0.00000000000E+00  0.00000000000E+00  0.19493259271E+02  0.19493259271E+02  0.00000000000E+00 0. -1.
          2   -1    0    0  501    0  0.00000000000E+00 -0.00000000000E+00 -0.98325713693E+03  0.98325713693E+03  0.00000000000E+00 0. -1.
         35    2    1    2    0    0  0.00000000000E+00  0.35527136788E-14 -0.96376387766E+03  0.10027503962E+04  0.27688904854E+03 0.  0.
         25    2    3    3    0    0  0.53576164571E+02 -0.15429510584E+02 -0.40531199238E+03  0.42779563647E+03  0.12499128052E+03 0.  0.
         25    2    3    3    0    0 -0.53576164571E+02  0.15429510584E+02 -0.55845188527E+03  0.57495475973E+03  0.12488391555E+03 0.  0.
          5    1    4    4  502    0  0.34594529978E+02  0.20435974589E+02 -0.37437128996E+03  0.37655061188E+03  0.47000000000E+01 0. -1.
         -5    1    4    4    0  502  0.18981634594E+02 -0.35865485174E+02 -0.30940702425E+02  0.51245024589E+02  0.47000000000E+01 0. -1.
          5    1    5    5  503    0 -0.86513202809E+02  0.39091088949E+02 -0.41921669695E+03  0.42985739088E+03  0.47000000000E+01 0. -1.
         -5    1    5    5    0  503  0.32937038238E+02 -0.23661578365E+02 -0.13923518832E+03  0.14509736885E+03  0.47000000000E+01 0. -1.
<mgrwt>
<rscale>  0 0.27688905E+03</rscale>
<asrwt>0</asrwt>
<pdfrwt beam="1">  1        2 0.15127029E+00 0.27688905E+03</pdfrwt>
<pdfrwt beam="2">  1       -2 0.29989637E-02 0.27688905E+03</pdfrwt>
<totfact> 0.11370176E+04</totfact>
</mgrwt>
</event>
<event>
 9    1  0.7816570E-001  0.2669506E+03  0.7818608E-02  0.1103038E+00
          2   -1    0    0  501    0  0.00000000000E+00  0.00000000000E+00  0.37996927959E+03  0.37996927959E+03  0.00000000000E+00 0.  1.
         -2   -1    0    0    0  501 -0.00000000000E+00 -0.00000000000E+00 -0.46887110825E+02  0.46887110825E+02  0.00000000000E+00 0.  1.
         35    2    1    2    0    0  0.00000000000E+00  0.00000000000E+00  0.33308216877E+03  0.42685639042E+03  0.26695064504E+03 0.  0.
         25    2    3    3    0    0  0.16741389450E+02  0.36724676244E+02  0.12562782318E+03  0.18138036606E+03  0.12444882993E+03 0.  0.
         25    2    3    3    0    0 -0.16741389450E+02 -0.36724676244E+02  0.20745434559E+03  0.24547602435E+03  0.12486871931E+03 0.  0.
          5    1    4    4  502    0  0.54851578342E+02  0.55382646485E+02  0.11205873082E+03  0.13658397538E+03  0.47000000000E+01 0. -1.
         -5    1    4    4    0  502 -0.38110188891E+02 -0.18657970241E+02  0.13569092361E+02  0.44796390684E+02  0.47000000000E+01 0. -1.
          5    1    5    5  503    0 -0.17851615178E+02  0.32931080786E+02  0.14783398558E+02  0.40543496632E+02  0.47000000000E+01 0.  1.
         -5    1    5    5    0  503  0.11102257272E+01 -0.69655757031E+02  0.19267094703E+03  0.20493252772E+03  0.47000000000E+01 0.  1.
<mgrwt>
<rscale>  0 0.26695065E+03</rscale>
<asrwt>0</asrwt>
<pdfrwt beam="1">  1        2 0.58456810E-01 0.26695065E+03</pdfrwt>
<pdfrwt beam="2">  1       -2 0.72134019E-02 0.26695065E+03</pdfrwt>
<totfact> 0.93115100E+03</totfact>
</mgrwt>
</event>
<event>
 9    1  0.7816570E-001  0.2722703E+03  0.7818608E-02  0.1099987E+00
          2   -1    0    0  501    0  0.00000000000E+00  0.00000000000E+00  0.37420842264E+03  0.37420842264E+03  0.00000000000E+00 0. -1.
         -2   -1    0    0    0  501 -0.00000000000E+00 -0.00000000000E+00 -0.49525275015E+02  0.49525275015E+02  0.00000000000E+00 0. -1.
         35    2    1    2    0    0 -0.35527136788E-14  0.00000000000E+00  0.32468314762E+03  0.42373369765E+03  0.27227027046E+03 0.  0.
         25    2    3    3    0    0 -0.19727788544E+02 -0.20441519475E+02  0.90494973226E+02  0.15648365722E+03  0.12446185536E+03 0.  0.
         25    2    3    3    0    0  0.19727788544E+02  0.20441519475E+02  0.23418817439E+03  0.26725004043E+03  0.12558440079E+03 0.  0.
          5    1    4    4  502    0 -0.44556974886E+02  0.13365414380E+02  0.10245080211E+03  0.11261534161E+03  0.47000000000E+01 0. -1.
         -5    1    4    4    0  502  0.24829186342E+02 -0.33806933854E+02 -0.11955828881E+02  0.43868315619E+02  0.47000000000E+01 0. -1.
          5    1    5    5  503    0  0.10490815093E+02 -0.39563926579E+02  0.18335667385E+03  0.18792850059E+03  0.47000000000E+01 0.  1.
         -5    1    5    5    0  503  0.92369734512E+01  0.60005446054E+02  0.50831500543E+02  0.79321539838E+02  0.47000000000E+01 0.  1.
<mgrwt>
<rscale>  0 0.27227027E+03</rscale>
<asrwt>0</asrwt>
<pdfrwt beam="1">  1        2 0.57570525E-01 0.27227027E+03</pdfrwt>
<pdfrwt beam="2">  1       -2 0.76192733E-02 0.27227027E+03</pdfrwt>
<totfact> 0.87016901E+03</totfact>
</mgrwt>
</event>
<event>
 9    1  0.7816570E-001  0.2686909E+03  0.7818608E-02  0.1102031E+00
          2   -1    0    0  501    0  0.00000000000E+00  0.00000000000E+00  0.73427847408E+02  0.73427847408E+02  0.00000000000E+00 0.  1.
         -2   -1    0    0    0  501 -0.00000000000E+00 -0.00000000000E+00 -0.24580181075E+03  0.24580181075E+03  0.00000000000E+00 0.  1.
         35    2    1    2    0    0  0.35527136788E-14 -0.35527136788E-14 -0.17237396334E+03  0.31922965816E+03  0.26869088449E+03 0.  0.
         25    2    3    3    0    0 -0.21454582344E+02  0.45096048802E+01 -0.33501917254E+02  0.13122493694E+03  0.12496787577E+03 0.  0.
         25    2    3    3    0    0  0.21454582344E+02 -0.45096048802E+01 -0.13887204609E+03  0.18800472122E+03  0.12481864595E+03 0.  0.
          5    1    4    4  502    0 -0.46236762468E+02 -0.43808807647E+01  0.34569783553E+02  0.58087780597E+02  0.47000000000E+01 0.  1.
         -5    1    4    4    0  502  0.24782180123E+02  0.88904856450E+01 -0.68071700807E+02  0.73137156339E+02  0.47000000000E+01 0.  1.
          5    1    5    5  503    0  0.46061279476E+02  0.44218024450E+02 -0.10679430577E+03  0.12451501475E+03  0.47000000000E+01 0. -1.
         -5    1    5    5    0  503 -0.24606697132E+02 -0.48727629330E+02 -0.32077740314E+02  0.63489706469E+02  0.47000000000E+01 0. -1.
<mgrwt>
<rscale>  0 0.26869088E+03</rscale>
<asrwt>0</asrwt>
<pdfrwt beam="1">  1        2 0.11296592E-01 0.26869088E+03</pdfrwt>
<pdfrwt beam="2">  1       -2 0.37815664E-01 0.26869088E+03</pdfrwt>
<totfact> 0.36305157E+03</totfact>
</mgrwt>
</event>
<event>
 9    1  0.7816570E-001  0.2764297E+03  0.7818608E-02  0.1097655E+00
         -2   -1    0    0    0  501 -0.00000000000E+00  0.00000000000E+00  0.31843420456E+02  0.31843420456E+02  0.00000000000E+00 0.  1.
          2   -1    0    0  501    0  0.00000000000E+00 -0.00000000000E+00 -0.59991491890E+03  0.59991491890E+03  0.00000000000E+00 0.  1.
         35    2    1    2    0    0  0.71054273576E-14 -0.53290705182E-14 -0.56807149844E+03  0.63175833935E+03  0.27642968726E+03 0.  0.
         25    2    3    3    0    0  0.52556237673E+02  0.42369394765E+01 -0.22952971450E+03  0.26675510180E+03  0.12527683236E+03 0.  0.
         25    2    3    3    0    0 -0.52556237673E+02 -0.42369394765E+01 -0.33854178394E+03  0.36500323755E+03  0.12584400729E+03 0.  0.
          5    1    4    4  502    0  0.45372892032E+02  0.35622314235E+02 -0.22683873308E+03  0.23410585090E+03  0.47000000000E+01 0. -1.
         -5    1    4    4    0  502  0.71833456408E+01 -0.31385374759E+02 -0.26909814201E+01  0.32649250900E+02  0.47000000000E+01 0. -1.
          5    1    5    5  503    0  0.73384706320E+01  0.69780399826E+01  0.76012352950E+01  0.13506108663E+02  0.47000000000E+01 0. -1.
         -5    1    5    5    0  503 -0.59894708305E+02 -0.11214979459E+02 -0.34614301924E+03  0.35149712889E+03  0.47000000000E+01 0. -1.
<mgrwt>
<rscale>  0 0.27642969E+03</rscale>
<asrwt>0</asrwt>
<pdfrwt beam="1">  1        2 0.92294604E-01 0.27642969E+03</pdfrwt>
<pdfrwt beam="2">  1       -2 0.48989877E-02 0.27642969E+03</pdfrwt>
<totfact> 0.10148177E+04</totfact>
</mgrwt>
</event>
<event>
 9    1  0.7816570E-001  0.2748937E+03  0.7818608E-02  0.1098511E+00
         -2   -1    0    0    0  501 -0.00000000000E+00  0.00000000000E+00  0.27295034708E+02  0.27295034708E+02  0.00000000000E+00 0.  1.
          2   -1    0    0  501    0  0.00000000000E+00 -0.00000000000E+00 -0.69212704474E+03  0.69212704474E+03  0.00000000000E+00 0.  1.
         35    2    1    2    0    0  0.00000000000E+00 -0.35527136788E-14 -0.66483201003E+03  0.71942207944E+03  0.27489366460E+03 0.  0.
         25    2    3    3    0    0 -0.36502375905E+02 -0.28368798105E+02 -0.24322837477E+03  0.27729181324E+03  0.12487391739E+03 0.  0.
         25    2    3    3    0    0  0.36502375905E+02  0.28368798105E+02 -0.42160363525E+03  0.44213026620E+03  0.12486927116E+03 0.  0.
          5    1    4    4  502    0 -0.37717492410E+02  0.23490265474E+02 -0.21607238957E+02  0.49632293731E+02  0.47000000000E+01 0.  1.
         -5    1    4    4    0  502  0.12151165046E+01 -0.51859063579E+02 -0.22162113582E+03  0.22765951951E+03  0.47000000000E+01 0.  1.
          5    1    5    5  503    0  0.73524826089E+02 -0.97025423423E+01 -0.30492014799E+03  0.31384458898E+03  0.47000000000E+01 0. -1.
         -5    1    5    5    0  503 -0.37022450184E+02  0.38071340448E+02 -0.11668348727E+03  0.12828567723E+03  0.47000000000E+01 0. -1.
<mgrwt>
<rscale>  0 0.27489366E+03</rscale>
<asrwt>0</asrwt>
<pdfrwt beam="1">  1        2 0.10648108E+00 0.27489366E+03</pdfrwt>
<pdfrwt beam="2">  1       -2 0.41992361E-02 0.27489366E+03</pdfrwt>
<totfact> 0.10814741E+04</totfact>
</mgrwt>
</event>
<event>
 9    1  0.7816570E-001  0.2743495E+03  0.7818608E-02  0.1098816E+00
          2   -1    0    0  501    0  0.00000000000E+00  0.00000000000E+00  0.15231822286E+03  0.15231822286E+03  0.00000000000E+00 0.  1.
         -2   -1    0    0    0  501 -0.00000000000E+00 -0.00000000000E+00 -0.12353684474E+03  0.12353684474E+03  0.00000000000E+00 0.  1.
         35    2    1    2    0    0  0.00000000000E+00  0.71054273576E-14  0.28781378127E+02  0.27585506760E+03  0.27434950446E+03 0.  0.
         25    2    3    3    0    0 -0.54803713610E+02  0.26159972224E+01  0.33418776578E+02  0.14068632779E+03  0.12516204590E+03 0.  0.
         25    2    3    3    0    0  0.54803713610E+02 -0.26159972224E+01 -0.46373984511E+01  0.13516873981E+03  0.12344550332E+03 0.  0.
          5    1    4    4  502    0  0.33108252223E+01 -0.43654808525E+02  0.47677238467E+02  0.64899252222E+02  0.47000000000E+01 0. -1.
         -5    1    4    4    0  502 -0.58114538832E+02  0.46270805748E+02 -0.14258461890E+02  0.75787075572E+02  0.47000000000E+01 0. -1.
          5    1    5    5  503    0 -0.28718679546E+00 -0.50996844024E+02  0.23689447977E+02  0.56427302984E+02  0.47000000000E+01 0. -1.
         -5    1    5    5    0  503  0.55090900406E+02  0.48380846801E+02 -0.28326846428E+02  0.78741436825E+02  0.47000000000E+01 0. -1.
<mgrwt>
<rscale>  0 0.27434950E+03</rscale>
<asrwt>0</asrwt>
<pdfrwt beam="1">  1        2 0.23433573E-01 0.27434950E+03</pdfrwt>
<pdfrwt beam="2">  1       -2 0.19005668E-01 0.27434950E+03</pdfrwt>
<totfact> 0.52741989E+03</totfact>
</mgrwt>
</event>
<event>
 9    1  0.7816570E-001  0.2714556E+03  0.7818608E-02  0.1100449E+00
          1   -1    0    0  501    0  0.00000000000E+00  0.00000000000E+00  0.63103280007E+02  0.63103280007E+02  0.00000000000E+00 0. -1.
         -1   -1    0    0    0  501 -0.00000000000E+00 -0.00000000000E+00 -0.29193461771E+03  0.29193461771E+03  0.00000000000E+00 0. -1.
         35    2    1    2    0    0 -0.71054273576E-14  0.17763568394E-14 -0.22883133770E+03  0.35503789771E+03  0.27145557224E+03 0.  0.
         25    2    3    3    0    0  0.15690724926E+02 -0.74071997293E+01 -0.48940951126E+02  0.13531454989E+03  0.12495497293E+03 0.  0.
         25    2    3    3    0    0 -0.15690724926E+02  0.74071997293E+01 -0.17989038657E+03  0.21972334782E+03  0.12496692738E+03 0.  0.
          5    1    4    4  502    0 -0.24372798598E+02  0.60104625101E+01  0.33757205315E+02  0.42329633613E+02  0.47000000000E+01 0.  1.
         -5    1    4    4    0  502  0.40063523524E+02 -0.13417662239E+02 -0.82698156442E+02  0.92984916282E+02  0.47000000000E+01 0.  1.
          5    1    5    5  503    0 -0.84745306208E+01 -0.47464755194E+02 -0.14788723577E+03  0.15561955262E+03  0.47000000000E+01 0.  1.
         -5    1    5    5    0  503 -0.72161943047E+01  0.54871954923E+02 -0.32003150808E+02  0.64103795199E+02  0.47000000000E+01 0.  1.
<mgrwt>
<rscale>  0 0.27145557E+03</rscale>
<asrwt>0</asrwt>
<pdfrwt beam="1">  1        1 0.97081970E-02 0.27145557E+03</pdfrwt>
<pdfrwt beam="2">  1       -1 0.44913018E-01 0.27145557E+03</pdfrwt>
<totfact> 0.33282637E+03</totfact>
</mgrwt>
</event>
<event>
 9    1  0.7816570E-001  0.2760169E+03  0.7818608E-02  0.1097885E+00
         -2   -1    0    0    0  501 -0.00000000000E+00  0.00000000000E+00  0.25583146533E+02  0.25583146533E+02  0.00000000000E+00 0.  1.
          2   -1    0    0  501    0  0.00000000000E+00 -0.00000000000E+00 -0.74448755830E+03  0.74448755830E+03  0.00000000000E+00 0.  1.
         35    2    1    2    0    0  0.00000000000E+00  0.71054273576E-14 -0.71890441177E+03  0.77007070483E+03  0.27601691467E+03 0.  0.
         25    2    3    3    0    0  0.44428081027E+02  0.36033922661E+02 -0.32445821219E+03  0.35229309469E+03  0.12475974970E+03 0.  0.
         25    2    3    3    0    0 -0.44428081027E+02 -0.36033922661E+02 -0.39444619958E+03  0.41777761014E+03  0.12521193717E+03 0.  0.
          5    1    4    4  502    0  0.65312435398E+02  0.21176403051E+02 -0.76225591072E+02  0.10269656761E+03  0.47000000000E+01 0.  1.
         -5    1    4    4    0  502 -0.20884354371E+02  0.14857519610E+02 -0.24823262112E+03  0.24959652709E+03  0.47000000000E+01 0.  1.
          5    1    5    5  503    0 -0.32750027579E+02  0.37560191562E+02 -0.25228460297E+03  0.25720214461E+03  0.47000000000E+01 0. -1.
         -5    1    5    5    0  503 -0.11678053448E+02 -0.73594114223E+02 -0.14216159661E+03  0.16057546553E+03  0.47000000000E+01 0. -1.
<mgrwt>
<rscale>  0 0.27601691E+03</rscale>
<asrwt>0</asrwt>
<pdfrwt beam="1">  1        2 0.11453654E+00 0.27601691E+03</pdfrwt>
<pdfrwt beam="2">  1       -2 0.39358691E-02 0.27601691E+03</pdfrwt>
<totfact> 0.10905939E+04</totfact>
</mgrwt>
</event>
<event>
 9    1  0.7816570E-001  0.2778292E+03  0.7818608E-02  0.1096881E+00
          4   -1    0    0  501    0  0.00000000000E+00  0.00000000000E+00  0.11456320122E+03  0.11456320122E+03  0.00000000000E+00 0.  1.
         -4   -1    0    0    0  501 -0.00000000000E+00 -0.00000000000E+00 -0.16844211943E+03  0.16844211943E+03  0.00000000000E+00 0.  1.
         35    2    1    2    0    0  0.00000000000E+00  0.35527136788E-14 -0.53878918206E+02  0.28300532065E+03  0.27782921676E+03 0.  0.
         25    2    3    3    0    0 -0.52928747997E+02  0.22194972544E+02 -0.13616745714E+02  0.13992972745E+03  0.12688909997E+03 0.  0.
         25    2    3    3    0    0  0.52928747997E+02 -0.22194972544E+02 -0.40262172492E+02  0.14307559319E+03  0.12472174495E+03 0.  0.
          5    1    4    4  502    0 -0.18614742838E+01  0.52505817126E+02 -0.47854032157E+02  0.71220954166E+02  0.47000000000E+01 0. -1.
         -5    1    4    4    0  502 -0.51067273713E+02 -0.30310844582E+02  0.34237286443E+02  0.68708773288E+02  0.47000000000E+01 0. -1.
          5    1    5    5  503    0 -0.56745203348E+01  0.17509061546E+02  0.34891230802E+02  0.39727262732E+02  0.47000000000E+01 0. -1.
         -5    1    5    5    0  503  0.58603268332E+02 -0.39704034091E+02 -0.75153403294E+02  0.10334833046E+03  0.47000000000E+01 0. -1.
<mgrwt>
<rscale>  0 0.27782922E+03</rscale>
<asrwt>0</asrwt>
<pdfrwt beam="1">  1        4 0.17625108E-01 0.27782922E+03</pdfrwt>
<pdfrwt beam="2">  1       -4 0.25914172E-01 0.27782922E+03</pdfrwt>
<totfact> 0.74528853E+02</totfact>
</mgrwt>
</event>
<event>
 9    1  0.7816570E-001  0.2873976E+03  0.7818608E-02  0.1091716E+00
         -2   -1    0    0    0  501 -0.00000000000E+00  0.00000000000E+00  0.51263217812E+02  0.51263217812E+02  0.00000000000E+00 0. -1.
          2   -1    0    0  501    0  0.00000000000E+00 -0.00000000000E+00 -0.40281006140E+03  0.40281006140E+03  0.00000000000E+00 0. -1.
         35    2    1    2    0    0 -0.14210854715E-13 -0.71054273576E-14 -0.35154684359E+03  0.45407327921E+03  0.28739756376E+03 0.  0.
         25    2    3    3    0    0 -0.56535029174E+02  0.46493184976E+02 -0.20554146405E+03  0.25088105407E+03  0.12383934785E+03 0.  0.
         25    2    3    3    0    0  0.56535029174E+02 -0.46493184976E+02 -0.14600537953E+03  0.20319222514E+03  0.12087879769E+03 0.  0.
          5    1    4    4  502    0 -0.19515915431E+02  0.34165362799E+02  0.19756548241E+01  0.39675385093E+02  0.47000000000E+01 0.  1.
         -5    1    4    4    0  502 -0.37019113743E+02  0.12327822177E+02 -0.20751711888E+03  0.21120566898E+03  0.47000000000E+01 0.  1.
          5    1    5    5  503    0  0.89967308126E+02 -0.87020434422E+01 -0.97726365325E+02  0.13320050515E+03  0.47000000000E+01 0. -1.
         -5    1    5    5    0  503 -0.33432278952E+02 -0.37791141534E+02 -0.48279014209E+02  0.69991719992E+02  0.47000000000E+01 0. -1.
<mgrwt>
<rscale>  0 0.28739756E+03</rscale>
<asrwt>0</asrwt>
<pdfrwt beam="1">  1        2 0.61970777E-01 0.28739756E+03</pdfrwt>
<pdfrwt beam="2">  1       -2 0.78866491E-02 0.28739756E+03</pdfrwt>
<totfact> 0.76276820E+03</totfact>
</mgrwt>
</event>
<event>
 9    1  0.7816570E-001  0.2748322E+03  0.7818608E-02  0.1098545E+00
         -2   -1    0    0    0  501 -0.00000000000E+00  0.00000000000E+00  0.43234046393E+02  0.43234046393E+02  0.00000000000E+00 0.  1.
          2   -1    0    0  501    0  0.00000000000E+00 -0.00000000000E+00 -0.43676644982E+03  0.43676644982E+03  0.00000000000E+00 0.  1.
         35    2    1    2    0    0 -0.71054273576E-14  0.00000000000E+00 -0.39353240343E+03  0.48000049622E+03  0.27483217392E+03 0.  0.
         25    2    3    3    0    0 -0.92703567010E+01 -0.47855293401E+02 -0.13987375404E+03  0.19337724083E+03  0.12431420507E+03 0.  0.
         25    2    3    3    0    0  0.92703567010E+01  0.47855293401E+02 -0.25365864939E+03  0.28662325539E+03  0.12423409957E+03 0.  0.
          5    1    4    4  502    0 -0.66041941018E+02 -0.23035456226E+02 -0.87449228097E+02  0.11207866751E+03  0.47000000000E+01 0.  1.
         -5    1    4    4    0  502  0.56771584317E+02 -0.24819837174E+02 -0.52424525943E+02  0.81298573318E+02  0.47000000000E+01 0.  1.
          5    1    5    5  503    0 -0.34913534098E+01  0.16744096294E+02 -0.25200577953E+03  0.25262928814E+03  0.47000000000E+01 0.  1.
         -5    1    5    5    0  503  0.12761710111E+02  0.31111197106E+02 -0.16528698618E+01  0.33993967246E+02  0.47000000000E+01 0.  1.
<mgrwt>
<rscale>  0 0.27483217E+03</rscale>
<asrwt>0</asrwt>
<pdfrwt beam="1">  1        2 0.67194835E-01 0.27483217E+03</pdfrwt>
<pdfrwt beam="2">  1       -2 0.66513921E-02 0.27483217E+03</pdfrwt>
<totfact> 0.90815639E+03</totfact>
</mgrwt>
</event>
<event>
 9    1  0.7816570E-001  0.2762914E+03  0.7818608E-02  0.1097732E+00
         -1   -1    0    0    0  501 -0.00000000000E+00  0.00000000000E+00  0.64951869647E+01  0.64951869647E+01  0.00000000000E+00 0.  1.
          1   -1    0    0  501    0  0.00000000000E+00 -0.00000000000E+00 -0.29382111826E+04  0.29382111826E+04  0.00000000000E+00 0.  1.
         35    2    1    2    0    0  0.17763568394E-14 -0.35527136788E-14 -0.29317159957E+04  0.29447063696E+04  0.27629137499E+03 0.  0.
         25    2    3    3    0    0 -0.16564287866E+00 -0.21159251108E+02 -0.88620345944E+03  0.89518441128E+03  0.12470291626E+03 0.  0.
         25    2    3    3    0    0  0.16564287866E+00  0.21159251108E+02 -0.20455125362E+04  0.20495219583E+04  0.12637634442E+03 0.  0.
          5    1    4    4  502    0  0.57392968281E+02 -0.60021674903E+01 -0.60196195857E+03  0.60473983529E+03  0.47000000000E+01 0. -1.
         -5    1    4    4    0  502 -0.57558611160E+02 -0.15157083618E+02 -0.28424150088E+03  0.29044457599E+03  0.47000000000E+01 0. -1.
          5    1    5    5  503    0 -0.83796014672E+01 -0.22672850537E+02 -0.17848552038E+04  0.17850250599E+04  0.47000000000E+01 0. -1.
         -5    1    5    5    0  503  0.85452443459E+01  0.43832101645E+02 -0.26065733242E+03  0.26449689843E+03  0.47000000000E+01 0. -1.
<mgrwt>
<rscale>  0 0.27629137E+03</rscale>
<asrwt>0</asrwt>
<pdfrwt beam="1">  1        1 0.45203207E+00 0.27629137E+03</pdfrwt>
<pdfrwt beam="2">  1       -1 0.99926047E-03 0.27629137E+03</pdfrwt>
<totfact> 0.15048745E+03</totfact>
</mgrwt>
</event>
<event>
 9    1  0.7816570E-001  0.2756181E+03  0.7818608E-02  0.1098107E+00
          1   -1    0    0  501    0  0.00000000000E+00  0.00000000000E+00  0.17906206533E+02  0.17906206533E+02  0.00000000000E+00 0. -1.
         -1   -1    0    0    0  501 -0.00000000000E+00 -0.00000000000E+00 -0.10606009062E+04  0.10606009062E+04  0.00000000000E+00 0. -1.
         35    2    1    2    0    0  0.71054273576E-14  0.35527136788E-14 -0.10426946997E+04  0.10785071127E+04  0.27561813348E+03 0.  0.
         25    2    3    3    0    0 -0.45838290420E+02  0.29572224371E+02 -0.59539874300E+03  0.61074144781E+03  0.12461856836E+03 0.  0.
         25    2    3    3    0    0  0.45838290420E+02 -0.29572224371E+02 -0.44729595666E+03  0.46776566492E+03  0.12552043304E+03 0.  0.
          5    1    4    4  502    0 -0.21189468991E+02 -0.70000234088E+01 -0.12209468981E+02  0.25868031557E+02  0.47000000000E+01 0.  1.
         -5    1    4    4    0  502 -0.24648821429E+02  0.36572247780E+02 -0.58318927402E+03  0.58487341625E+03  0.47000000000E+01 0.  1.
          5    1    5    5  503    0 -0.36174588782E+02 -0.34664164836E+02 -0.22912969585E+03  0.23459052137E+03  0.47000000000E+01 0. -1.
         -5    1    5    5    0  503  0.82012879201E+02  0.50919404643E+01 -0.21816626081E+03  0.23317514355E+03  0.47000000000E+01 0. -1.
<mgrwt>
<rscale>  0 0.27561813E+03</rscale>
<asrwt>0</asrwt>
<pdfrwt beam="1">  1        1 0.27548014E-02 0.27561813E+03</pdfrwt>
<pdfrwt beam="2">  1       -1 0.16316935E+00 0.27561813E+03</pdfrwt>
<totfact> 0.11591082E+03</totfact>
</mgrwt>
</event>
<event>
 9    1  0.7816570E-001  0.2730395E+03  0.7818608E-02  0.1099553E+00
         -2   -1    0    0    0  501 -0.00000000000E+00  0.00000000000E+00  0.13904735233E+03  0.13904735233E+03  0.00000000000E+00 0.  1.
          2   -1    0    0  501    0  0.00000000000E+00 -0.00000000000E+00 -0.13403811450E+03  0.13403811450E+03  0.00000000000E+00 0.  1.
         35    2    1    2    0    0 -0.71054273576E-14  0.00000000000E+00  0.50092378310E+01  0.27308546683E+03  0.27303952045E+03 0.  0.
         25    2    3    3    0    0 -0.49612581435E+02  0.12572237013E+02 -0.95237682821E+01  0.13591769233E+03  0.12555256886E+03 0.  0.
         25    2    3    3    0    0  0.49612581435E+02 -0.12572237013E+02  0.14533006113E+02  0.13716777449E+03  0.12642911339E+03 0.  0.
          5    1    4    4  502    0 -0.90357350806E+02  0.48918898911E+01  0.73456306680E+01  0.90908908922E+02  0.47000000000E+01 0. -1.
         -5    1    4    4    0  502  0.40744769372E+02  0.76803471222E+01 -0.16869398950E+02  0.45008783409E+02  0.47000000000E+01 0. -1.
          5    1    5    5  503    0  0.49732700192E+02 -0.21761292910E+02 -0.48710837094E+02  0.73087146530E+02  0.47000000000E+01 0.  1.
         -5    1    5    5    0  503 -0.12011875748E+00  0.91890558972E+01  0.63243843207E+02  0.64080627965E+02  0.47000000000E+01 0.  1.
<mgrwt>
<rscale>  0 0.27303952E+03</rscale>
<asrwt>0</asrwt>
<pdfrwt beam="1">  1        2 0.20621248E-01 0.27303952E+03</pdfrwt>
<pdfrwt beam="2">  1       -2 0.21391901E-01 0.27303952E+03</pdfrwt>
<totfact> 0.49776299E+03</totfact>
</mgrwt>
</event>
<event>
 9    1  0.7816570E-001  0.2800721E+03  0.7818608E-02  0.1095650E+00
         -1   -1    0    0    0  501 -0.00000000000E+00  0.00000000000E+00  0.29236807901E+02  0.29236807901E+02  0.00000000000E+00 0.  1.
          1   -1    0    0  501    0  0.00000000000E+00 -0.00000000000E+00 -0.67073289846E+03  0.67073289846E+03  0.00000000000E+00 0.  1.
         35    2    1    2    0    0  0.14210854715E-13  0.00000000000E+00 -0.64149609056E+03  0.69996970636E+03  0.28007205434E+03 0.  0.
         25    2    3    3    0    0  0.50782611319E+02 -0.27366043436E+02 -0.25498680518E+03  0.28972900876E+03  0.12488736428E+03 0.  0.
         25    2    3    3    0    0 -0.50782611319E+02  0.27366043436E+02 -0.38650928538E+03  0.41024069760E+03  0.12482078487E+03 0.  0.
          5    1    4    4  502    0  0.83942797272E+02  0.12889318165E+02 -0.16420433658E+03  0.18492615253E+03  0.47000000000E+01 0.  1.
         -5    1    4    4    0  502 -0.33160185953E+02 -0.40255361602E+02 -0.90782468596E+02  0.10480285623E+03  0.47000000000E+01 0.  1.
          5    1    5    5  503    0 -0.51540254025E+02 -0.39328741421E+02 -0.24888285585E+03  0.25723124542E+03  0.47000000000E+01 0. -1.
         -5    1    5    5    0  503  0.75764270627E+00  0.66694784857E+02 -0.13762642953E+03  0.15300945217E+03  0.47000000000E+01 0. -1.
<mgrwt>
<rscale>  0 0.28007205E+03</rscale>
<asrwt>0</asrwt>
<pdfrwt beam="1">  1        1 0.10318967E+00 0.28007205E+03</pdfrwt>
<pdfrwt beam="2">  1       -1 0.44979707E-02 0.28007205E+03</pdfrwt>
<totfact> 0.61766847E+03</totfact>
</mgrwt>
</event>
<event>
 9    1  0.7816570E-001  0.2814048E+03  0.7818608E-02  0.1094924E+00
          2   -1    0    0  501    0  0.00000000000E+00  0.00000000000E+00  0.56300706518E+03  0.56300706518E+03  0.00000000000E+00 0. -1.
         -2   -1    0    0    0  501 -0.00000000000E+00 -0.00000000000E+00 -0.35163256168E+02  0.35163256168E+02  0.00000000000E+00 0. -1.
         35    2    1    2    0    0  0.00000000000E+00  0.00000000000E+00  0.52784380902E+03  0.59817032135E+03  0.28140477364E+03 0.  0.
         25    2    3    3    0    0  0.19347833285E+02 -0.60668977841E+02  0.24984289865E+03  0.28671154775E+03  0.12540723297E+03 0.  0.
         25    2    3    3    0    0 -0.19347833285E+02  0.60668977841E+02  0.27800091037E+03  0.31145877361E+03  0.12516787913E+03 0.  0.
          5    1    4    4  502    0 -0.34999383498E+02  0.20066443818E+02  0.10046171765E+03  0.10836173553E+03  0.47000000000E+01 0.  1.
         -5    1    4    4    0  502  0.54347216783E+02 -0.80735421660E+02  0.14938118100E+03  0.17834981222E+03  0.47000000000E+01 0.  1.
          5    1    5    5  503    0 -0.10080717118E+02  0.90270547465E+02  0.25963689996E+03  0.27510689271E+03  0.47000000000E+01 0.  1.
         -5    1    5    5    0  503 -0.92671161667E+01 -0.29601569624E+02  0.18364010409E+02  0.36351880894E+02  0.47000000000E+01 0.  1.
<mgrwt>
<rscale>  0 0.28140477E+03</rscale>
<asrwt>0</asrwt>
<pdfrwt beam="1">  1        2 0.86616465E-01 0.28140477E+03</pdfrwt>
<pdfrwt beam="2">  1       -2 0.54097321E-02 0.28140477E+03</pdfrwt>
<totfact> 0.93952777E+03</totfact>
</mgrwt>
</event>
<event>
 9    1  0.7816570E-001  0.2696031E+03  0.7818608E-02  0.1101507E+00
          1   -1    0    0  501    0  0.00000000000E+00  0.00000000000E+00  0.68918913660E+03  0.68918913660E+03  0.00000000000E+00 0. -1.
         -1   -1    0    0    0  501 -0.00000000000E+00 -0.00000000000E+00 -0.26366440123E+02  0.26366440123E+02  0.00000000000E+00 0. -1.
         35    2    1    2    0    0  0.71054273576E-14 -0.35527136788E-14  0.66282269648E+03  0.71555557672E+03  0.26960314615E+03 0.  0.
         25    2    3    3    0    0 -0.45875676021E+02 -0.23952641466E+02  0.31636515498E+03  0.34401589456E+03  0.12482675090E+03 0.  0.
         25    2    3    3    0    0  0.45875676021E+02  0.23952641466E+02  0.34645754150E+03  0.37153968216E+03  0.12381680289E+03 0.  0.
          5    1    4    4  502    0 -0.70773243596E+02 -0.27516798307E+02  0.30775493154E+03  0.31701926454E+03  0.47000000000E+01 0. -1.
         -5    1    4    4    0  502  0.24897567574E+02  0.35641568407E+01  0.86102234401E+01  0.26996630027E+02  0.47000000000E+01 0. -1.
          5    1    5    5  503    0  0.23871411740E+02  0.28991532458E+02  0.17366399800E+02  0.41641747019E+02  0.47000000000E+01 0.  1.
         -5    1    5    5    0  503  0.22004264281E+02 -0.50388909923E+01  0.32909114170E+03  0.32989793514E+03  0.47000000000E+01 0.  1.
<mgrwt>
<rscale>  0 0.26960315E+03</rscale>
<asrwt>0</asrwt>
<pdfrwt beam="1">  1        1 0.10602908E+00 0.26960315E+03</pdfrwt>
<pdfrwt beam="2">  1       -1 0.40563759E-02 0.26960315E+03</pdfrwt>
<totfact> 0.69206365E+03</totfact>
</mgrwt>
</event>
<event>
 9    1  0.7816570E-001  0.2766457E+03  0.7818608E-02  0.1097535E+00
          2   -1    0    0  501    0  0.00000000000E+00  0.00000000000E+00  0.14893248895E+04  0.14893248895E+04  0.00000000000E+00 0. -1.
         -2   -1    0    0    0  501 -0.00000000000E+00 -0.00000000000E+00 -0.12846899558E+02  0.12846899558E+02  0.00000000000E+00 0. -1.
         35    2    1    2    0    0  0.35527136788E-14  0.71054273576E-14  0.14764779899E+04  0.15021717891E+04  0.27664567421E+03 0.  0.
         25    2    3    3    0    0  0.28026195544E+02  0.45934684415E+02  0.87962068096E+03  0.89007747388E+03  0.12493960245E+03 0.  0.
         25    2    3    3    0    0 -0.28026195544E+02 -0.45934684415E+02  0.59685730899E+03  0.61209431519E+03  0.12460072440E+03 0.  0.
          5    1    4    4  502    0  0.41642664095E+02 -0.25754210031E+02  0.17847357419E+03  0.18512778692E+03  0.47000000000E+01 0.  1.
         -5    1    4    4    0  502 -0.13616468551E+02  0.71688894446E+02  0.70114710677E+03  0.70494968696E+03  0.47000000000E+01 0.  1.
          5    1    5    5  503    0 -0.32417230730E+02 -0.40544729149E+02  0.60063428540E+03  0.60289168738E+03  0.47000000000E+01 0. -1.
         -5    1    5    5    0  503  0.43910351861E+01 -0.53899552660E+01 -0.37769764125E+01  0.92026278093E+01  0.47000000000E+01 0. -1.
<mgrwt>
<rscale>  0 0.27664567E+03</rscale>
<asrwt>0</asrwt>
<pdfrwt beam="1">  1        2 0.22912677E+00 0.27664567E+03</pdfrwt>
<pdfrwt beam="2">  1       -2 0.19764473E-02 0.27664567E+03</pdfrwt>
<totfact> 0.10877404E+04</totfact>
</mgrwt>
</event>
<event>
 9    1  0.7816570E-001  0.2751418E+03  0.7818608E-02  0.1098372E+00
         -1   -1    0    0    0  501 -0.00000000000E+00  0.00000000000E+00  0.84156983569E+01  0.84156983569E+01  0.00000000000E+00 0.  1.
          1   -1    0    0  501    0  0.00000000000E+00 -0.00000000000E+00 -0.22488627017E+04  0.22488627017E+04  0.00000000000E+00 0.  1.
         35    2    1    2    0    0  0.00000000000E+00 -0.71054273576E-14 -0.22404470034E+04  0.22572784001E+04  0.27514178268E+03 0.  0.
         25    2    3    3    0    0  0.46125826622E+02 -0.11981808024E+02 -0.91600098844E+03  0.92604881985E+03  0.12742625440E+03 0.  0.
         25    2    3    3    0    0 -0.46125826622E+02  0.11981808024E+02 -0.13244460149E+04  0.13312295802E+04  0.12547427318E+03 0.  0.
          5    1    4    4  502    0 -0.25177136660E+02  0.22451292427E+02 -0.89687520521E+02  0.95936906763E+02  0.47000000000E+01 0. -1.
         -5    1    4    4    0  502  0.71302963282E+02 -0.34433100451E+02 -0.82631346792E+03  0.83011191309E+03  0.47000000000E+01 0. -1.
          5    1    5    5  503    0 -0.47573219590E+02 -0.50756821031E+02 -0.79653337710E+03  0.79957924994E+03  0.47000000000E+01 0.  1.
         -5    1    5    5    0  503  0.14473929684E+01  0.62738629056E+02 -0.52791263780E+03  0.53165033027E+03  0.47000000000E+01 0.  1.
<mgrwt>
<rscale>  0 0.27514178E+03</rscale>
<asrwt>0</asrwt>
<pdfrwt beam="1">  1        1 0.34597927E+00 0.27514178E+03</pdfrwt>
<pdfrwt beam="2">  1       -1 0.12947214E-02 0.27514178E+03</pdfrwt>
<totfact> 0.30027593E+03</totfact>
</mgrwt>
</event>
<event>
 9    1  0.7816570E-001  0.2743020E+03  0.7818608E-02  0.1098842E+00
         -2   -1    0    0    0  501 -0.00000000000E+00  0.00000000000E+00  0.11095190192E+03  0.11095190192E+03  0.00000000000E+00 0. -1.
          2   -1    0    0  501    0  0.00000000000E+00 -0.00000000000E+00 -0.16953655872E+03  0.16953655872E+03  0.00000000000E+00 0. -1.
         35    2    1    2    0    0 -0.71054273576E-14  0.35527136788E-14 -0.58584656797E+02  0.28048846064E+03  0.27430204983E+03 0.  0.
         25    2    3    3    0    0 -0.41412587037E+02 -0.12223895064E+02 -0.69784884265E+02  0.14718309810E+03  0.12218227498E+03 0.  0.
         25    2    3    3    0    0  0.41412587037E+02  0.12223895064E+02  0.11200227468E+02  0.13330536253E+03  0.12562025557E+03 0.  0.
          5    1    4    4  502    0 -0.25835412660E+02  0.15139374549E+02  0.29876752904E+02  0.42560305134E+02  0.47000000000E+01 0. -1.
         -5    1    4    4    0  502 -0.15577174377E+02 -0.27363269613E+02 -0.99661637170E+02  0.10462279297E+03  0.47000000000E+01 0. -1.
          5    1    5    5  503    0  0.71321116636E+02  0.47895089835E+02  0.79387145576E+01  0.86404597663E+02  0.47000000000E+01 0.  1.
         -5    1    5    5    0  503 -0.29908529599E+02 -0.35671194771E+02  0.32615129108E+01  0.46900764872E+02  0.47000000000E+01 0.  1.
<mgrwt>
<rscale>  0 0.27430205E+03</rscale>
<asrwt>0</asrwt>
<pdfrwt beam="1">  1        2 0.26082547E-01 0.27430205E+03</pdfrwt>
<pdfrwt beam="2">  1       -2 0.17069523E-01 0.27430205E+03</pdfrwt>
<totfact> 0.56085679E+03</totfact>
</mgrwt>
</event>
<event>
 9    1  0.7816570E-001  0.2662120E+03  0.7818608E-02  0.1103467E+00
         -2   -1    0    0    0  501 -0.00000000000E+00  0.00000000000E+00  0.28953434677E+03  0.28953434677E+03  0.00000000000E+00 0.  1.
          2   -1    0    0  501    0  0.00000000000E+00 -0.00000000000E+00 -0.61192069157E+02  0.61192069157E+02  0.00000000000E+00 0.  1.
         35    2    1    2    0    0  0.00000000000E+00  0.00000000000E+00  0.22834227761E+03  0.35072641593E+03  0.26621198899E+03 0.  0.
         25    2    3    3    0    0 -0.36710069717E+02 -0.16990883912E+02  0.13938351963E+03  0.19197232864E+03  0.12565544185E+03 0.  0.
         25    2    3    3    0    0  0.36710069717E+02  0.16990883912E+02  0.88958757984E+02  0.15875408728E+03  0.12511147131E+03 0.  0.
          5    1    4    4  502    0  0.36627253383E+02  0.82552834057E+01  0.95523416019E+02  0.10274491911E+03  0.47000000000E+01 0. -1.
         -5    1    4    4    0  502 -0.73337323100E+02 -0.25246167317E+02  0.43860103609E+02  0.89227409534E+02  0.47000000000E+01 0. -1.
          5    1    5    5  503    0  0.69256438475E+02 -0.25913061443E+02  0.68648007691E+02  0.10100782140E+03  0.47000000000E+01 0.  1.
         -5    1    5    5    0  503 -0.32546368757E+02  0.42903945355E+02  0.20310750293E+02  0.57746265886E+02  0.47000000000E+01 0.  1.
<mgrwt>
<rscale>  0 0.26621199E+03</rscale>
<asrwt>0</asrwt>
<pdfrwt beam="1">  1        2 0.94141646E-02 0.26621199E+03</pdfrwt>
<pdfrwt beam="2">  1       -2 0.44543745E-01 0.26621199E+03</pdfrwt>
<totfact> 0.33216371E+03</totfact>
</mgrwt>
</event>
<event>
 9    1  0.7816570E-001  0.2783886E+03  0.7818608E-02  0.1096572E+00
         -1   -1    0    0    0  501 -0.00000000000E+00  0.00000000000E+00  0.29581903759E+02  0.29581903759E+02  0.00000000000E+00 0. -1.
          1   -1    0    0  501    0  0.00000000000E+00 -0.00000000000E+00 -0.65496315321E+03  0.65496315321E+03  0.00000000000E+00 0. -1.
         35    2    1    2    0    0  0.71054273576E-14  0.00000000000E+00 -0.62538124945E+03  0.68454505697E+03  0.27838862738E+03 0.  0.
         25    2    3    3    0    0 -0.10702840906E+02 -0.20264072629E+02 -0.45247171074E+03  0.47034598838E+03  0.12637055165E+03 0.  0.
         25    2    3    3    0    0  0.10702840906E+02  0.20264072629E+02 -0.17290953871E+03  0.21419906858E+03  0.12433160887E+03 0.  0.
          5    1    4    4  502    0 -0.63129496307E+02 -0.34685025851E+02 -0.29430807764E+03  0.30303088767E+03  0.47000000000E+01 0.  1.
         -5    1    4    4    0  502  0.52426655401E+02  0.14420953222E+02 -0.15816363310E+03  0.16731510071E+03  0.47000000000E+01 0.  1.
          5    1    5    5  503    0 -0.54529461708E+02 -0.58687744249E+01 -0.89031061811E+02  0.10467341914E+03  0.47000000000E+01 0. -1.
         -5    1    5    5    0  503  0.65232302614E+02  0.26132847054E+02 -0.83878476897E+02  0.10952564944E+03  0.47000000000E+01 0. -1.
<mgrwt>
<rscale>  0 0.27838863E+03</rscale>
<asrwt>0</asrwt>
<pdfrwt beam="1">  1        1 0.10076355E+00 0.27838863E+03</pdfrwt>
<pdfrwt beam="2">  1       -1 0.45510625E-02 0.27838863E+03</pdfrwt>
<totfact> 0.62789033E+03</totfact>
</mgrwt>
</event>
<event>
 9    1  0.7816570E-001  0.2771917E+03  0.7818608E-02  0.1097233E+00
          2   -1    0    0  501    0  0.00000000000E+00  0.00000000000E+00  0.27184969498E+02  0.27184969498E+02  0.00000000000E+00 0. -1.
         -2   -1    0    0    0  501 -0.00000000000E+00 -0.00000000000E+00 -0.70659681580E+03  0.70659681580E+03  0.00000000000E+00 0. -1.
         35    2    1    2    0    0 -0.14210854715E-13 -0.71054273576E-14 -0.67941184630E+03  0.73378178529E+03  0.27719172343E+03 0.  0.
         25    2    3    3    0    0  0.43155025157E+02 -0.28450841648E+02 -0.42701803684E+03  0.44796639425E+03  0.12513065174E+03 0.  0.
         25    2    3    3    0    0 -0.43155025157E+02  0.28450841648E+02 -0.25239380946E+03  0.28581539104E+03  0.12375781235E+03 0.  0.
          5    1    4    4  502    0  0.77372840692E+02  0.12397474751E+02 -0.20298827713E+03  0.21763865583E+03  0.47000000000E+01 0. -1.
         -5    1    4    4    0  502 -0.34217815535E+02 -0.40848316398E+02 -0.22402975971E+03  0.23032773842E+03  0.47000000000E+01 0. -1.
          5    1    5    5  503    0 -0.24854061982E+02 -0.28686493220E+02 -0.20681840259E+03  0.21032494131E+03  0.47000000000E+01 0. -1.
         -5    1    5    5    0  503 -0.18300963175E+02  0.57137334868E+02 -0.45575406871E+02  0.75490449730E+02  0.47000000000E+01 0. -1.
<mgrwt>
<rscale>  0 0.27719172E+03</rscale>
<asrwt>0</asrwt>
<pdfrwt beam="1">  1        2 0.41823025E-02 0.27719172E+03</pdfrwt>
<pdfrwt beam="2">  1       -2 0.10870722E+00 0.27719172E+03</pdfrwt>
<totfact> 0.14055012E+03</totfact>
</mgrwt>
</event>
<event>
 9    1  0.7816570E-001  0.2764999E+03  0.7818608E-02  0.1097616E+00
         -2   -1    0    0    0  501 -0.00000000000E+00  0.00000000000E+00  0.47387355817E+02  0.47387355817E+02  0.00000000000E+00 0. -1.
          2   -1    0    0  501    0  0.00000000000E+00 -0.00000000000E+00 -0.40333645278E+03  0.40333645278E+03  0.00000000000E+00 0. -1.
         35    2    1    2    0    0  0.35527136788E-14  0.71054273576E-14 -0.35594909697E+03  0.45072380860E+03  0.27649989513E+03 0.  0.
         25    2    3    3    0    0 -0.13158767885E+02 -0.41292846199E+02 -0.24508234456E+03  0.27851193491E+03  0.12500115980E+03 0.  0.
         25    2    3    3    0    0  0.13158767885E+02  0.41292846199E+02 -0.11086675241E+03  0.17221187369E+03  0.12444774137E+03 0.  0.
          5    1    4    4  502    0  0.22492223565E+02 -0.42292651388E+02 -0.22659468425E+02  0.53198778103E+02  0.47000000000E+01 0. -1.
         -5    1    4    4    0  502 -0.35650991450E+02  0.99980518991E+00 -0.22242287613E+03  0.22531315680E+03  0.47000000000E+01 0. -1.
          5    1    5    5  503    0 -0.30956434184E+01  0.14738546166E+02 -0.13286705351E+03  0.13380041726E+03  0.47000000000E+01 0.  1.
         -5    1    5    5    0  503  0.16254411304E+02  0.26554300032E+02  0.22000301097E+02  0.38411456434E+02  0.47000000000E+01 0.  1.
<mgrwt>
<rscale>  0 0.27649990E+03</rscale>
<asrwt>0</asrwt>
<pdfrwt beam="1">  1        2 0.62051764E-01 0.27649990E+03</pdfrwt>
<pdfrwt beam="2">  1       -2 0.72903622E-02 0.27649990E+03</pdfrwt>
<totfact> 0.85972455E+03</totfact>
</mgrwt>
</event>
<event>
 9    1  0.7816570E-001  0.2731584E+03  0.7818608E-02  0.1099485E+00
          2   -1    0    0  501    0  0.00000000000E+00  0.00000000000E+00  0.20268246162E+02  0.20268246162E+02  0.00000000000E+00 0. -1.
         -2   -1    0    0    0  501 -0.00000000000E+00 -0.00000000000E+00 -0.92034975054E+03  0.92034975054E+03  0.00000000000E+00 0. -1.
         35    2    1    2    0    0  0.71054273576E-14 -0.35527136788E-14 -0.90008150437E+03  0.94061799670E+03  0.27315838116E+03 0.  0.
         25    2    3    3    0    0  0.41689327405E+02  0.15044456577E+02 -0.50520784927E+03  0.52246224061E+03  0.12556865135E+03 0.  0.
         25    2    3    3    0    0 -0.41689327405E+02 -0.15044456577E+02 -0.39487365510E+03  0.41815575609E+03  0.13024859755E+03 0.  0.
          5    1    4    4  502    0  0.75219921745E+02  0.40557040356E+02 -0.26309720630E+03  0.27666792389E+03  0.47000000000E+01 0.  1.
         -5    1    4    4    0  502 -0.33530594340E+02 -0.25512583779E+02 -0.24211064297E+03  0.24579431671E+03  0.47000000000E+01 0.  1.
          5    1    5    5  503    0 -0.40196853288E+02 -0.64718318830E+02 -0.31377228199E+03  0.32292318398E+03  0.47000000000E+01 0.  1.
         -5    1    5    5    0  503 -0.14924741173E+01  0.49673862253E+02 -0.81101373112E+02  0.95232572110E+02  0.47000000000E+01 0.  1.
<mgrwt>
<rscale>  0 0.27315838E+03</rscale>
<asrwt>0</asrwt>
<pdfrwt beam="1">  1        2 0.31181923E-02 0.27315838E+03</pdfrwt>
<pdfrwt beam="2">  1       -2 0.14159224E+00 0.27315838E+03</pdfrwt>
<totfact> 0.10929032E+03</totfact>
</mgrwt>
</event>
<event>
 9    1  0.7816570E-001  0.2732321E+03  0.7818608E-02  0.1099444E+00
          2   -1    0    0  501    0  0.00000000000E+00  0.00000000000E+00  0.31295167391E+03  0.31295167391E+03  0.00000000000E+00 0.  1.
         -2   -1    0    0    0  501 -0.00000000000E+00 -0.00000000000E+00 -0.59638424798E+02  0.59638424798E+02  0.00000000000E+00 0.  1.
         35    2    1    2    0    0 -0.35527136788E-14 -0.35527136788E-14  0.25331324911E+03  0.37259009871E+03  0.27323209819E+03 0.  0.
         25    2    3    3    0    0 -0.23264302678E+02 -0.11366175939E+02  0.60187421112E+02  0.14110761398E+03  0.12497365854E+03 0.  0.
         25    2    3    3    0    0  0.23264302678E+02  0.11366175939E+02  0.19312582800E+03  0.23148248473E+03  0.12496454521E+03 0.  0.
          5    1    4    4  502    0 -0.59441780392E+02  0.21230891738E+01 -0.10350908106E+02  0.60556288381E+02  0.47000000000E+01 0.  1.
         -5    1    4    4    0  502  0.36177477714E+02 -0.13489265113E+02  0.70538329217E+02  0.80551325599E+02  0.47000000000E+01 0.  1.
          5    1    5    5  503    0 -0.58269508412E+01 -0.54319102886E+02  0.70889260659E+02  0.89620843397E+02  0.47000000000E+01 0.  1.
         -5    1    5    5    0  503  0.29091253519E+02  0.65685278826E+02  0.12223656734E+03  0.14186164133E+03  0.47000000000E+01 0.  1.
<mgrwt>
<rscale>  0 0.27323210E+03</rscale>
<asrwt>0</asrwt>
<pdfrwt beam="1">  1        2 0.48146411E-01 0.27323210E+03</pdfrwt>
<pdfrwt beam="2">  1       -2 0.91751424E-02 0.27323210E+03</pdfrwt>
<totfact> 0.78872720E+03</totfact>
</mgrwt>
</event>
<event>
 9    1  0.7816570E-001  0.2769009E+03  0.7818608E-02  0.1097394E+00
          2   -1    0    0  501    0  0.00000000000E+00  0.00000000000E+00  0.13462805022E+03  0.13462805022E+03  0.00000000000E+00 0.  1.
         -2   -1    0    0    0  501 -0.00000000000E+00 -0.00000000000E+00 -0.14238141822E+03  0.14238141822E+03  0.00000000000E+00 0.  1.
         35    2    1    2    0    0 -0.53290705182E-14  0.00000000000E+00 -0.77533679923E+01  0.27700946844E+03  0.27690094057E+03 0.  0.
         25    2    3    3    0    0 -0.15821165153E+02  0.32954845063E+01 -0.61553216960E+02  0.14062714052E+03  0.12540344752E+03 0.  0.
         25    2    3    3    0    0  0.15821165153E+02 -0.32954845063E+01  0.53799848968E+02  0.13638232792E+03  0.12427608834E+03 0.  0.
          5    1    4    4  502    0 -0.70862258538E+02 -0.10674850288E+01 -0.34288680423E+02  0.78869530330E+02  0.47000000000E+01 0.  1.
         -5    1    4    4    0  502  0.55041093385E+02  0.43629695350E+01 -0.27264536537E+02  0.61757610194E+02  0.47000000000E+01 0.  1.
          5    1    5    5  503    0 -0.11063732987E+02 -0.51732078563E+02 -0.74868622389E+01  0.53635410376E+02  0.47000000000E+01 0. -1.
         -5    1    5    5    0  503  0.26884898139E+02  0.48436594057E+02  0.61286711207E+02  0.82746917540E+02  0.47000000000E+01 0. -1.
<mgrwt>
<rscale>  0 0.27690094E+03</rscale>
<asrwt>0</asrwt>
<pdfrwt beam="1">  1        2 0.20712008E-01 0.27690094E+03</pdfrwt>
<pdfrwt beam="2">  1       -2 0.21904834E-01 0.27690094E+03</pdfrwt>
<totfact> 0.47562831E+03</totfact>
</mgrwt>
</event>
<event>
 9    1  0.7816570E-001  0.2701810E+03  0.7818608E-02  0.1101176E+00
         -2   -1    0    0    0  501 -0.00000000000E+00  0.00000000000E+00  0.16416570938E+02  0.16416570938E+02  0.00000000000E+00 0.  1.
          2   -1    0    0  501    0  0.00000000000E+00 -0.00000000000E+00 -0.11116480263E+04  0.11116480263E+04  0.00000000000E+00 0.  1.
         35    2    1    2    0    0  0.71054273576E-14 -0.71054273576E-14 -0.10952314553E+04  0.11280645972E+04  0.27018104065E+03 0.  0.
         25    2    3    3    0    0 -0.33039856217E+02  0.16430299345E+02 -0.63702517640E+03  0.65181148950E+03  0.13302464297E+03 0.  0.
         25    2    3    3    0    0  0.33039856217E+02 -0.16430299345E+02 -0.45820627895E+03  0.47625310772E+03  0.12450880177E+03 0.  0.
          5    1    4    4  502    0 -0.56548014195E+02  0.61380148904E+02 -0.32092330277E+03  0.33163090455E+03  0.47000000000E+01 0. -1.
         -5    1    4    4    0  502  0.23508157978E+02 -0.44949849559E+02 -0.31610187363E+03  0.32018058495E+03  0.47000000000E+01 0. -1.
          5    1    5    5  503    0 -0.17352883991E+02 -0.40081356345E+02 -0.36465206082E+03  0.36728851488E+03  0.47000000000E+01 0.  1.
         -5    1    5    5    0  503  0.50392740208E+02  0.23651057000E+02 -0.93554218130E+02  0.10896459284E+03  0.47000000000E+01 0.  1.
<mgrwt>
<rscale>  0 0.27018104E+03</rscale>
<asrwt>0</asrwt>
<pdfrwt beam="1">  1        2 0.17102280E+00 0.27018104E+03</pdfrwt>
<pdfrwt beam="2">  1       -2 0.25256259E-02 0.27018104E+03</pdfrwt>
<totfact> 0.12277055E+04</totfact>
</mgrwt>
</event>
<event>
 9    1  0.7816570E-001  0.2758672E+03  0.7818608E-02  0.1097968E+00
          1   -1    0    0  501    0  0.00000000000E+00  0.00000000000E+00  0.18445456758E+02  0.18445456758E+02  0.00000000000E+00 0. -1.
         -1   -1    0    0    0  501 -0.00000000000E+00 -0.00000000000E+00 -0.10314562357E+04  0.10314562357E+04  0.00000000000E+00 0. -1.
         35    2    1    2    0    0  0.00000000000E+00 -0.35527136788E-14 -0.10130107790E+04  0.10499016925E+04  0.27586722454E+03 0.  0.
         25    2    3    3    0    0  0.26801051334E+02 -0.21462042310E+00 -0.69864744059E+03  0.71021738726E+03  0.12482847636E+03 0.  0.
         25    2    3    3    0    0 -0.26801051334E+02  0.21462042310E+00 -0.31436333839E+03  0.33968430524E+03  0.12586809081E+03 0.  0.
          5    1    4    4  502    0  0.43670062791E+02  0.97791145758E+01 -0.84458734074E+02  0.95697822480E+02  0.47000000000E+01 0. -1.
         -5    1    4    4    0  502 -0.16869011457E+02 -0.99937349989E+01 -0.61418870652E+03  0.61451956478E+03  0.47000000000E+01 0. -1.
          5    1    5    5  503    0 -0.36936968728E+02 -0.41207041080E+02 -0.27785471636E+03  0.28335083077E+03  0.47000000000E+01 0. -1.
         -5    1    5    5    0  503  0.10135917395E+02  0.41421661503E+02 -0.36508622033E+02  0.56333474470E+02  0.47000000000E+01 0. -1.
<mgrwt>
<rscale>  0 0.27586722E+03</rscale>
<asrwt>0</asrwt>
<pdfrwt beam="1">  1        1 0.28377622E-02 0.27586722E+03</pdfrwt>
<pdfrwt beam="2">  1       -1 0.15868560E+00 0.27586722E+03</pdfrwt>
<totfact> 0.11992677E+03</totfact>
</mgrwt>
</event>
<event>
 9    1  0.7816570E-001  0.2706824E+03  0.7818608E-02  0.1100890E+00
         -1   -1    0    0    0  501 -0.00000000000E+00  0.00000000000E+00  0.83144804735E+02  0.83144804735E+02  0.00000000000E+00 0. -1.
          1   -1    0    0  501    0  0.00000000000E+00 -0.00000000000E+00 -0.22030521376E+03  0.22030521376E+03  0.00000000000E+00 0. -1.
         35    2    1    2    0    0  0.35527136788E-14  0.00000000000E+00 -0.13716040902E+03  0.30345001849E+03  0.27068235244E+03 0.  0.
         25    2    3    3    0    0 -0.14163639847E+02  0.20718135458E+02 -0.11961663847E+03  0.17495707349E+03  0.12518780905E+03 0.  0.
         25    2    3    3    0    0  0.14163639847E+02 -0.20718135458E+02 -0.17543770556E+02  0.12849294501E+03  0.12479103814E+03 0.  0.
          5    1    4    4  502    0 -0.40584245593E+02  0.63237553267E+02 -0.55790918069E+02  0.93705846523E+02  0.47000000000E+01 0.  1.
         -5    1    4    4    0  502  0.26420605746E+02 -0.42519417809E+02 -0.63825720398E+02  0.81251226963E+02  0.47000000000E+01 0.  1.
          5    1    5    5  503    0  0.58145500586E+02 -0.21367682122E+02  0.25141434947E+02  0.67019839069E+02  0.47000000000E+01 0.  1.
         -5    1    5    5    0  503 -0.43981860738E+02  0.64954666384E+00 -0.42685205503E+02  0.61473105939E+02  0.47000000000E+01 0.  1.
<mgrwt>
<rscale>  0 0.27068235E+03</rscale>
<asrwt>0</asrwt>
<pdfrwt beam="1">  1        1 0.33893109E-01 0.27068235E+03</pdfrwt>
<pdfrwt beam="2">  1       -1 0.12791509E-01 0.27068235E+03</pdfrwt>
<totfact> 0.53285646E+03</totfact>
</mgrwt>
</event>
<event>
 9    1  0.7816570E-001  0.2771769E+03  0.7818608E-02  0.1097241E+00
          2   -1    0    0  501    0  0.00000000000E+00  0.00000000000E+00  0.60173907187E+03  0.60173907187E+03  0.00000000000E+00 0. -1.
         -2   -1    0    0    0  501 -0.00000000000E+00 -0.00000000000E+00 -0.31918760600E+02  0.31918760600E+02  0.00000000000E+00 0. -1.
         35    2    1    2    0    0 -0.71054273576E-14  0.00000000000E+00  0.56982031127E+03  0.63365783247E+03  0.27717694983E+03 0.  0.
         25    2    3    3    0    0 -0.47065785940E+02  0.60247430905E+01  0.36631095383E+03  0.39025227397E+03  0.12594298990E+03 0.  0.
         25    2    3    3    0    0  0.47065785940E+02 -0.60247430905E+01  0.20350935743E+03  0.24340555850E+03  0.12481474917E+03 0.  0.
          5    1    4    4  502    0 -0.55284862000E+02 -0.56513633515E+01  0.54166584939E+02  0.77746143300E+02  0.47000000000E+01 0. -1.
         -5    1    4    4    0  502  0.82190760599E+01  0.11676106442E+02  0.31214436890E+03  0.31250613067E+03  0.47000000000E+01 0. -1.
          5    1    5    5  503    0  0.86005169176E+02 -0.25305434689E+02  0.13368649895E+03  0.16103236989E+03  0.47000000000E+01 0.  1.
         -5    1    5    5    0  503 -0.38939383236E+02  0.19280691598E+02  0.69822858479E+02  0.82373188609E+02  0.47000000000E+01 0.  1.
<mgrwt>
<rscale>  0 0.27717695E+03</rscale>
<asrwt>0</asrwt>
<pdfrwt beam="1">  1        2 0.92575234E-01 0.27717695E+03</pdfrwt>
<pdfrwt beam="2">  1       -2 0.49105790E-02 0.27717695E+03</pdfrwt>
<totfact> 0.10077224E+04</totfact>
</mgrwt>
</event>
<event>
 9    1  0.7816570E-001  0.2765909E+03  0.7818608E-02  0.1097566E+00
          1   -1    0    0  501    0  0.00000000000E+00  0.00000000000E+00  0.24303628687E+04  0.24303628687E+04  0.00000000000E+00 0. -1.
         -1   -1    0    0    0  501 -0.00000000000E+00 -0.00000000000E+00 -0.78694565200E+01  0.78694565200E+01  0.00000000000E+00 0. -1.
         35    2    1    2    0    0 -0.71054273576E-14  0.71054273576E-14  0.24224934122E+04  0.24382323252E+04  0.27659092482E+03 0.  0.
         25    2    3    3    0    0  0.30168817887E+02 -0.17691178439E+02  0.85629737217E+03  0.86657707220E+03  0.12840364915E+03 0.  0.
         25    2    3    3    0    0 -0.30168817887E+02  0.17691178439E+02  0.15661960400E+04  0.15716552530E+04  0.12612320653E+03 0.  0.
          5    1    4    4  502    0  0.54015883534E+01 -0.58697930494E+02  0.71223592941E+03  0.71468645806E+03  0.47000000000E+01 0.  1.
         -5    1    4    4    0  502  0.24767229533E+02  0.41006752055E+02  0.14406144276E+03  0.15189061414E+03  0.47000000000E+01 0.  1.
          5    1    5    5  503    0  0.45795688684E+02  0.10748234328E+02  0.86853958265E+03  0.86982519294E+03  0.47000000000E+01 0.  1.
         -5    1    5    5    0  503 -0.75964506571E+02  0.69429441114E+01  0.69765645739E+03  0.70183006010E+03  0.47000000000E+01 0.  1.
<mgrwt>
<rscale>  0 0.27659092E+03</rscale>
<asrwt>0</asrwt>
<pdfrwt beam="1">  1        1 0.37390138E+00 0.27659092E+03</pdfrwt>
<pdfrwt beam="2">  1       -1 0.12106876E-02 0.27659092E+03</pdfrwt>
<totfact> 0.25140975E+03</totfact>
</mgrwt>
</event>
<event>
 9    1  0.7816570E-001  0.2733810E+03  0.7818608E-02  0.1099360E+00
         -1   -1    0    0    0  501 -0.00000000000E+00  0.00000000000E+00  0.96931536607E+01  0.96931536607E+01  0.00000000000E+00 0. -1.
          1   -1    0    0  501    0  0.00000000000E+00 -0.00000000000E+00 -0.19275756484E+04  0.19275756484E+04  0.00000000000E+00 0. -1.
         35    2    1    2    0    0  0.71054273576E-14  0.00000000000E+00 -0.19178824948E+04  0.19372688021E+04  0.27338095729E+03 0.  0.
         25    2    3    3    0    0  0.27872854839E+02  0.34849732915E+02 -0.11323794953E+04  0.11398567693E+04  0.12246931579E+03 0.  0.
         25    2    3    3    0    0 -0.27872854839E+02 -0.34849732915E+02 -0.78550299945E+03  0.79741203273E+03  0.12984447575E+03 0.  0.
          5    1    4    4  502    0  0.54082102200E+02  0.46308166817E+02 -0.10518729795E+04  0.10542903656E+04  0.47000000000E+01 0.  1.
         -5    1    4    4    0  502 -0.26209247361E+02 -0.11458433901E+02 -0.80506515818E+02  0.85566403710E+02  0.47000000000E+01 0.  1.
          5    1    5    5  503    0 -0.66807084429E+02  0.17851354468E+02 -0.33033156151E+03  0.33752464787E+03  0.47000000000E+01 0. -1.
         -5    1    5    5    0  503  0.38934229590E+02 -0.52701087384E+02 -0.45517143793E+03  0.45988738486E+03  0.47000000000E+01 0. -1.
<mgrwt>
<rscale>  0 0.27338096E+03</rscale>
<asrwt>0</asrwt>
<pdfrwt beam="1">  1        1 0.29654989E+00 0.27338096E+03</pdfrwt>
<pdfrwt beam="2">  1       -1 0.14912555E-02 0.27338096E+03</pdfrwt>
<totfact> 0.39576155E+03</totfact>
</mgrwt>
</event>
<event>
 9    1  0.7816570E-001  0.2746991E+03  0.7818608E-02  0.1098620E+00
         -1   -1    0    0    0  501 -0.00000000000E+00  0.00000000000E+00  0.11945115650E+04  0.11945115650E+04  0.00000000000E+00 0.  1.
          1   -1    0    0  501    0  0.00000000000E+00 -0.00000000000E+00 -0.15792976129E+02  0.15792976129E+02  0.00000000000E+00 0.  1.
         35    2    1    2    0    0  0.71054273576E-14 -0.35527136788E-14  0.11787185889E+04  0.12103045411E+04  0.27469905448E+03 0.  0.
         25    2    3    3    0    0 -0.48421358482E+02  0.23770132999E+02  0.68865038968E+03  0.70175481344E+03  0.12373686513E+03 0.  0.
         25    2    3    3    0    0  0.48421358482E+02 -0.23770132999E+02  0.49006819919E+03  0.50854972770E+03  0.12468495699E+03 0.  0.
          5    1    4    4  502    0 -0.50656659057E+02  0.86893317509E+00  0.96097537752E+02  0.10873674132E+03  0.47000000000E+01 0. -1.
         -5    1    4    4    0  502  0.22353005751E+01  0.22901199824E+02  0.59255285193E+03  0.59301807211E+03  0.47000000000E+01 0. -1.
          5    1    5    5  503    0  0.40224913277E+02  0.50970654754E+00  0.37387894072E+02  0.55120305442E+02  0.47000000000E+01 0. -1.
         -5    1    5    5    0  503  0.81964452055E+01 -0.24279839547E+02  0.45268030512E+03  0.45342942225E+03  0.47000000000E+01 0. -1.
<mgrwt>
<rscale>  0 0.27469905E+03</rscale>
<asrwt>0</asrwt>
<pdfrwt beam="1">  1        1 0.24296896E-02 0.27469905E+03</pdfrwt>
<pdfrwt beam="2">  1       -1 0.18377094E+00 0.27469905E+03</pdfrwt>
<totfact> 0.98842504E+02</totfact>
</mgrwt>
</event>
<event>
 9    1  0.7816570E-001  0.2765897E+03  0.7818608E-02  0.1097566E+00
         -2   -1    0    0    0  501 -0.00000000000E+00  0.00000000000E+00  0.16312032441E+02  0.16312032441E+02  0.00000000000E+00 0. -1.
          2   -1    0    0  501    0  0.00000000000E+00 -0.00000000000E+00 -0.11724756884E+04  0.11724756884E+04  0.00000000000E+00 0. -1.
         35    2    1    2    0    0 -0.71054273576E-14 -0.71054273576E-14 -0.11561636559E+04  0.11887877208E+04  0.27658967056E+03 0.  0.
         25    2    3    3    0    0 -0.46324242901E+02  0.22973990215E+02 -0.70092943990E+03  0.71385365945E+03  0.12494489857E+03 0.  0.
         25    2    3    3    0    0  0.46324242901E+02 -0.22973990215E+02 -0.45523421601E+03  0.47493406135E+03  0.12510168461E+03 0.  0.
          5    1    4    4  502    0 -0.26060287659E+02 -0.37522196963E+02 -0.10634752960E+03  0.11584015241E+03  0.47000000000E+01 0.  1.
         -5    1    4    4    0  502 -0.20263955242E+02  0.60496187177E+02 -0.59458191030E+03  0.59801350704E+03  0.47000000000E+01 0.  1.
          5    1    5    5  503    0  0.71144844811E+02 -0.57983975961E+02 -0.32395285283E+03  0.33673620427E+03  0.47000000000E+01 0. -1.
         -5    1    5    5    0  503 -0.24820601910E+02  0.35009985746E+02 -0.13128136318E+03  0.13819785708E+03  0.47000000000E+01 0. -1.
<mgrwt>
<rscale>  0 0.27658967E+03</rscale>
<asrwt>0</asrwt>
<pdfrwt beam="1">  1        2 0.18038088E+00 0.27658967E+03</pdfrwt>
<pdfrwt beam="2">  1       -2 0.25095434E-02 0.27658967E+03</pdfrwt>
<totfact> 0.11436729E+04</totfact>
</mgrwt>
</event>
<event>
 9    1  0.7816570E-001  0.2722660E+03  0.7818608E-02  0.1099990E+00
         -2   -1    0    0    0  501 -0.00000000000E+00  0.00000000000E+00  0.20436860484E+02  0.20436860484E+02  0.00000000000E+00 0.  1.
          2   -1    0    0  501    0  0.00000000000E+00 -0.00000000000E+00 -0.90680252328E+03  0.90680252328E+03  0.00000000000E+00 0.  1.
         35    2    1    2    0    0  0.71054273576E-14  0.00000000000E+00 -0.88636566280E+03  0.92723938377E+03  0.27226602179E+03 0.  0.
         25    2    3    3    0    0 -0.38280691106E+02  0.32579231496E+02 -0.52321030023E+03  0.54034162230E+03  0.12527263425E+03 0.  0.
         25    2    3    3    0    0  0.38280691106E+02 -0.32579231496E+02 -0.36315536258E+03  0.38689776147E+03  0.12361732413E+03 0.  0.
          5    1    4    4  502    0  0.18149929339E+02 -0.54429884730E+01 -0.87745839696E+01  0.21403957166E+02  0.47000000000E+01 0.  1.
         -5    1    4    4    0  502 -0.56430620445E+02  0.38022219968E+02 -0.51443571626E+03  0.51893766513E+03  0.47000000000E+01 0.  1.
          5    1    5    5  503    0  0.74515034050E+01 -0.41462227505E+02 -0.34891909916E+03  0.35148437942E+03  0.47000000000E+01 0. -1.
         -5    1    5    5    0  503  0.30829187701E+02  0.88829960096E+01 -0.14236263411E+02  0.35413382052E+02  0.47000000000E+01 0. -1.
<mgrwt>
<rscale>  0 0.27226602E+03</rscale>
<asrwt>0</asrwt>
<pdfrwt beam="1">  1        2 0.13950805E+00 0.27226602E+03</pdfrwt>
<pdfrwt beam="2">  1       -2 0.31441330E-02 0.27226602E+03</pdfrwt>
<totfact> 0.11833498E+04</totfact>
</mgrwt>
</event>
<event>
 9    1  0.7816570E-001  0.2768132E+03  0.7818608E-02  0.1097442E+00
          1   -1    0    0  501    0  0.00000000000E+00  0.00000000000E+00  0.24099804624E+03  0.24099804624E+03  0.00000000000E+00 0. -1.
         -1   -1    0    0    0  501 -0.00000000000E+00 -0.00000000000E+00 -0.79487719005E+02  0.79487719005E+02  0.00000000000E+00 0. -1.
         35    2    1    2    0    0  0.14210854715E-13  0.71054273576E-14  0.16151032723E+03  0.32048576524E+03  0.27681318596E+03 0.  0.
         25    2    3    3    0    0 -0.32597553318E+02 -0.32432742518E+02  0.12182306265E+03  0.18126122725E+03  0.12609635458E+03 0.  0.
         25    2    3    3    0    0  0.32597553318E+02  0.32432742518E+02  0.39687264578E+02  0.13922453799E+03  0.12527533572E+03 0.  0.
          5    1    4    4  502    0 -0.28446950913E+02 -0.71162049591E+02  0.31885587736E+02  0.83138721565E+02  0.47000000000E+01 0.  1.
         -5    1    4    4    0  502 -0.41506024049E+01  0.38729307073E+02  0.89937474919E+02  0.98122505682E+02  0.47000000000E+01 0.  1.
          5    1    5    5  503    0  0.48837494374E+02  0.13894283630E+02  0.78142300695E+02  0.93308419406E+02  0.47000000000E+01 0. -1.
         -5    1    5    5    0  503 -0.16239941056E+02  0.18538458889E+02 -0.38455036117E+02  0.45916118589E+02  0.47000000000E+01 0. -1.
<mgrwt>
<rscale>  0 0.27681319E+03</rscale>
<asrwt>0</asrwt>
<pdfrwt beam="1">  1        1 0.37076622E-01 0.27681319E+03</pdfrwt>
<pdfrwt beam="2">  1       -1 0.12228880E-01 0.27681319E+03</pdfrwt>
<totfact> 0.51113900E+03</totfact>
</mgrwt>
</event>
<event>
 9    1  0.7816570E-001  0.2736689E+03  0.7818608E-02  0.1099198E+00
          1   -1    0    0  501    0  0.00000000000E+00  0.00000000000E+00  0.12584170663E+03  0.12584170663E+03  0.00000000000E+00 0.  1.
         -1   -1    0    0    0  501 -0.00000000000E+00 -0.00000000000E+00 -0.14878741065E+03  0.14878741065E+03  0.00000000000E+00 0.  1.
         35    2    1    2    0    0 -0.35527136788E-14  0.00000000000E+00 -0.22945704018E+02  0.27462911728E+03  0.27366886328E+03 0.  0.
         25    2    3    3    0    0  0.10418817294E+02 -0.39677365757E+02 -0.50243965893E+02  0.14109118816E+03  0.12529733501E+03 0.  0.
         25    2    3    3    0    0 -0.10418817294E+02  0.39677365757E+02  0.27298261875E+02  0.13353792912E+03  0.12411421476E+03 0.  0.
          5    1    4    4  502    0 -0.29548906535E+02 -0.33764048396E+02 -0.79209931478E+02  0.91156196094E+02  0.47000000000E+01 0. -1.
         -5    1    4    4    0  502  0.39967723828E+02 -0.59133173609E+01  0.28965965585E+02  0.49934992065E+02  0.47000000000E+01 0. -1.
          5    1    5    5  503    0 -0.50335579263E+02  0.43206675963E+01  0.53675573940E+02  0.73861329165E+02  0.47000000000E+01 0. -1.
         -5    1    5    5    0  503  0.39916761970E+02  0.35356698161E+02 -0.26377312065E+02  0.59676599960E+02  0.47000000000E+01 0. -1.
<mgrwt>
<rscale>  0 0.27366886E+03</rscale>
<asrwt>0</asrwt>
<pdfrwt beam="1">  1        1 0.19360263E-01 0.27366886E+03</pdfrwt>
<pdfrwt beam="2">  1       -1 0.22890371E-01 0.27366886E+03</pdfrwt>
<totfact> 0.42708092E+03</totfact>
</mgrwt>
</event>
<event>
 9    1  0.7816570E-001  0.2761071E+03  0.7818608E-02  0.1097834E+00
         -2   -1    0    0    0  501 -0.00000000000E+00  0.00000000000E+00  0.73299598315E+02  0.73299598315E+02  0.00000000000E+00 0. -1.
          2   -1    0    0  501    0  0.00000000000E+00 -0.00000000000E+00 -0.26001205720E+03  0.26001205720E+03  0.00000000000E+00 0. -1.
         35    2    1    2    0    0  0.71054273576E-14  0.71054273576E-14 -0.18671245889E+03  0.33331165552E+03  0.27610707597E+03 0.  0.
         25    2    3    3    0    0  0.34556853631E+02 -0.19402578747E+02 -0.42814057474E+02  0.13824790671E+03  0.12533476772E+03 0.  0.
         25    2    3    3    0    0 -0.34556853631E+02  0.19402578747E+02 -0.14389840141E+03  0.19506374880E+03  0.12558853440E+03 0.  0.
          5    1    4    4  502    0 -0.68025066241E+01 -0.52037016528E+02 -0.62557203442E+02  0.81790090402E+02  0.47000000000E+01 0. -1.
         -5    1    4    4    0  502  0.41359360255E+02  0.32634437781E+02  0.19743145969E+02  0.56457816312E+02  0.47000000000E+01 0. -1.
          5    1    5    5  503    0 -0.65546627865E+02  0.20981602975E+02 -0.14812125742E+03  0.16339701646E+03  0.47000000000E+01 0. -1.
         -5    1    5    5    0  503  0.30989774234E+02 -0.15790242274E+01  0.42228560059E+01  0.31666732345E+02  0.47000000000E+01 0. -1.
<mgrwt>
<rscale>  0 0.27610708E+03</rscale>
<asrwt>0</asrwt>
<pdfrwt beam="1">  1        2 0.40001855E-01 0.27610708E+03</pdfrwt>
<pdfrwt beam="2">  1       -2 0.11276861E-01 0.27610708E+03</pdfrwt>
<totfact> 0.69359919E+03</totfact>
</mgrwt>
</event>
<event>
 9    1  0.7816570E-001  0.2783782E+03  0.7818608E-02  0.1096578E+00
          1   -1    0    0  501    0  0.00000000000E+00  0.00000000000E+00  0.39884667310E+02  0.39884667310E+02  0.00000000000E+00 0. -1.
         -1   -1    0    0    0  501 -0.00000000000E+00 -0.00000000000E+00 -0.48574069610E+03  0.48574069610E+03  0.00000000000E+00 0. -1.
         35    2    1    2    0    0  0.35527136788E-14  0.00000000000E+00 -0.44585602879E+03  0.52562536341E+03  0.27837820362E+03 0.  0.
         25    2    3    3    0    0 -0.58203447247E+01 -0.21490636677E+02 -0.32159430714E+03  0.34593655093E+03  0.12551284799E+03 0.  0.
         25    2    3    3    0    0  0.58203447247E+01  0.21490636677E+02 -0.12426172165E+03  0.17968881247E+03  0.12787247547E+03 0.  0.
          5    1    4    4  502    0  0.49310048628E+01 -0.48785327820E+02 -0.31024738545E+03  0.31413349582E+03  0.47000000000E+01 0. -1.
         -5    1    4    4    0  502 -0.10751349587E+02  0.27294691143E+02 -0.11346921685E+02  0.31803055109E+02  0.47000000000E+01 0. -1.
          5    1    5    5  503    0 -0.25066503840E+02  0.51450368500E+02 -0.11041568261E+02  0.58476288043E+02  0.47000000000E+01 0. -1.
         -5    1    5    5    0  503  0.30886848565E+02 -0.29959731823E+02 -0.11322015339E+03  0.12121252443E+03  0.47000000000E+01 0. -1.
<mgrwt>
<rscale>  0 0.27837820E+03</rscale>
<asrwt>0</asrwt>
<pdfrwt beam="1">  1        1 0.61361028E-02 0.27837820E+03</pdfrwt>
<pdfrwt beam="2">  1       -1 0.74729336E-01 0.27837820E+03</pdfrwt>
<totfact> 0.23483337E+03</totfact>
</mgrwt>
</event>
<event>
 9    1  0.7816570E-001  0.2749997E+03  0.7818608E-02  0.1098452E+00
         -2   -1    0    0    0  501 -0.00000000000E+00  0.00000000000E+00  0.85753831331E+02  0.85753831331E+02  0.00000000000E+00 0. -1.
          2   -1    0    0  501    0  0.00000000000E+00 -0.00000000000E+00 -0.22047073554E+03  0.22047073554E+03  0.00000000000E+00 0. -1.
         35    2    1    2    0    0 -0.71054273576E-14 -0.71054273576E-14 -0.13471690421E+03  0.30622456687E+03  0.27499971105E+03 0.  0.
         25    2    3    3    0    0 -0.16839335454E+02 -0.18370776516E+02 -0.12254416049E+03  0.17706822141E+03  0.12535962314E+03 0.  0.
         25    2    3    3    0    0  0.16839335454E+02  0.18370776516E+02 -0.12172743716E+02  0.12915634546E+03  0.12614332022E+03 0.  0.
          5    1    4    4  502    0  0.34368206354E+02 -0.35176155835E+02 -0.11135807598E+03  0.12182465528E+03  0.47000000000E+01 0. -1.
         -5    1    4    4    0  502 -0.51207541808E+02  0.16805379319E+02 -0.11186084513E+02  0.55243566131E+02  0.47000000000E+01 0. -1.
          5    1    5    5  503    0  0.54400837735E+02 -0.19177612524E+02 -0.38683101605E+02  0.69611093356E+02  0.47000000000E+01 0. -1.
         -5    1    5    5    0  503 -0.37561502281E+02  0.37548389040E+02  0.26510357889E+02  0.59545252107E+02  0.47000000000E+01 0. -1.
<mgrwt>
<rscale>  0 0.27499971E+03</rscale>
<asrwt>0</asrwt>
<pdfrwt beam="1">  1        2 0.33918575E-01 0.27499971E+03</pdfrwt>
<pdfrwt beam="2">  1       -2 0.13192897E-01 0.27499971E+03</pdfrwt>
<totfact> 0.64328512E+03</totfact>
</mgrwt>
</event>
<event>
 9    1  0.7816570E-001  0.2993952E+03  0.7818608E-02  0.1085543E+00
         -2   -1    0    0    0  501 -0.00000000000E+00  0.00000000000E+00  0.27179892151E+02  0.27179892151E+02  0.00000000000E+00 0. -1.
          2   -1    0    0  501    0  0.00000000000E+00 -0.00000000000E+00 -0.82448369403E+03  0.82448369403E+03  0.00000000000E+00 0. -1.
         35    2    1    2    0    0  0.00000000000E+00 -0.35527136788E-14 -0.79730380188E+03  0.85166358618E+03  0.29939524301E+03 0.  0.
         25    2    3    3    0    0 -0.65219680362E+02 -0.77717588179E+01 -0.26917289717E+03  0.30394515458E+03  0.12495839899E+03 0.  0.
         25    2    3    3    0    0  0.65219680362E+02  0.77717588179E+01 -0.52813090471E+03  0.54771843160E+03  0.12945740948E+03 0.  0.
          5    1    4    4  502    0 -0.39489591881E+02 -0.52446737771E+02 -0.62070404814E+02  0.90470510795E+02  0.47000000000E+01 0.  1.
         -5    1    4    4    0  502 -0.25730088480E+02  0.44674978953E+02 -0.20710249236E+03  0.21347464379E+03  0.47000000000E+01 0.  1.
          5    1    5    5  503    0  0.37731355790E+02 -0.12509915352E+02 -0.50410382141E+03  0.50569052389E+03  0.47000000000E+01 0.  1.
         -5    1    5    5    0  503  0.27488324572E+02  0.20281674170E+02 -0.24027083296E+02  0.42027907712E+02  0.47000000000E+01 0.  1.
<mgrwt>
<rscale>  0 0.29939524E+03</rscale>
<asrwt>0</asrwt>
<pdfrwt beam="1">  1        2 0.12684366E+00 0.29939524E+03</pdfrwt>
<pdfrwt beam="2">  1       -2 0.41815214E-02 0.29939524E+03</pdfrwt>
<totfact> 0.87710134E+03</totfact>
</mgrwt>
</event>
<event>
 9    1  0.7816570E-001  0.2756368E+03  0.7818608E-02  0.1098096E+00
         -2   -1    0    0    0  501 -0.00000000000E+00  0.00000000000E+00  0.31475968595E+02  0.31475968595E+02  0.00000000000E+00 0. -1.
          2   -1    0    0  501    0  0.00000000000E+00 -0.00000000000E+00 -0.60344175647E+03  0.60344175647E+03  0.00000000000E+00 0. -1.
         35    2    1    2    0    0  0.00000000000E+00  0.00000000000E+00 -0.57196578787E+03  0.63491772506E+03  0.27563681739E+03 0.  0.
         25    2    3    3    0    0 -0.16737560011E+02  0.27500133815E+02 -0.39554478669E+03  0.41649615741E+03  0.12640002998E+03 0.  0.
         25    2    3    3    0    0  0.16737560011E+02 -0.27500133815E+02 -0.17642100118E+03  0.21842156766E+03  0.12468844488E+03 0.  0.
          5    1    4    4  502    0 -0.61406342483E+02 -0.19555658683E+02 -0.21968314406E+03  0.22898894398E+03  0.47000000000E+01 0.  1.
         -5    1    4    4    0  502  0.44668782472E+02  0.47055792498E+02 -0.17586164263E+03  0.18750721342E+03  0.47000000000E+01 0.  1.
          5    1    5    5  503    0  0.32157558783E+02  0.43420589746E+02 -0.93785663290E+02  0.10833880579E+03  0.47000000000E+01 0. -1.
         -5    1    5    5    0  503 -0.15419998773E+02 -0.70920723561E+02 -0.82635337889E+02  0.11008276187E+03  0.47000000000E+01 0. -1.
<mgrwt>
<rscale>  0 0.27563682E+03</rscale>
<asrwt>0</asrwt>
<pdfrwt beam="1">  1        2 0.92837183E-01 0.27563682E+03</pdfrwt>
<pdfrwt beam="2">  1       -2 0.48424572E-02 0.27563682E+03</pdfrwt>
<totfact> 0.10257294E+04</totfact>
</mgrwt>
</event>
<event>
 9    1  0.7816570E-001  0.2778186E+03  0.7818608E-02  0.1096886E+00
          2   -1    0    0  501    0  0.00000000000E+00  0.00000000000E+00  0.15623268469E+04  0.15623268469E+04  0.00000000000E+00 0. -1.
         -2   -1    0    0    0  501 -0.00000000000E+00 -0.00000000000E+00 -0.12350677497E+02  0.12350677497E+02  0.00000000000E+00 0. -1.
         35    2    1    2    0    0  0.00000000000E+00 -0.35527136788E-14  0.15499761694E+04  0.15746775244E+04  0.27781861012E+03 0.  0.
         25    2    3    3    0    0  0.36750598613E+02  0.27712909484E+02  0.99788187716E+03  0.10067116630E+04  0.12482595776E+03 0.  0.
         25    2    3    3    0    0 -0.36750598613E+02 -0.27712909484E+02  0.55209429228E+03  0.56796586147E+03  0.12513392976E+03 0.  0.
          5    1    4    4  502    0 -0.18504742469E+02 -0.49477569991E+01  0.25670165915E+02  0.32372105450E+02  0.47000000000E+01 0. -1.
         -5    1    4    4    0  502  0.55255341082E+02  0.32660666483E+02  0.97221171125E+03  0.97433955751E+03  0.47000000000E+01 0. -1.
          5    1    5    5  503    0  0.18658576202E+02 -0.24865298113E+02  0.31863702414E+02  0.44763948080E+02  0.47000000000E+01 0.  1.
         -5    1    5    5    0  503 -0.55409174815E+02 -0.28476113710E+01  0.52023058986E+03  0.52320191339E+03  0.47000000000E+01 0.  1.
<mgrwt>
<rscale>  0 0.27781861E+03</rscale>
<asrwt>0</asrwt>
<pdfrwt beam="1">  1        2 0.24035782E+00 0.27781861E+03</pdfrwt>
<pdfrwt beam="2">  1       -2 0.19001055E-02 0.27781861E+03</pdfrwt>
<totfact> 0.10537573E+04</totfact>
</mgrwt>
</event>
<event>
 9    1  0.7816570E-001  0.2715180E+03  0.7818608E-02  0.1100414E+00
         -2   -1    0    0    0  501 -0.00000000000E+00  0.00000000000E+00  0.73724924278E+01  0.73724924278E+01  0.00000000000E+00 0.  1.
          2   -1    0    0  501    0  0.00000000000E+00 -0.00000000000E+00 -0.24999013906E+04  0.24999013906E+04  0.00000000000E+00 0.  1.
         35    2    1    2    0    0 -0.71054273576E-14 -0.17763568394E-14 -0.24925288982E+04  0.25072738830E+04  0.27151798520E+03 0.  0.
         25    2    3    3    0    0 -0.41029682201E+02  0.65252983078E+01 -0.91943567810E+03  0.92885607259E+03  0.12524225756E+03 0.  0.
         25    2    3    3    0    0  0.41029682201E+02 -0.65252983078E+01 -0.15730932201E+04  0.15784178104E+04  0.12269674381E+03 0.  0.
          5    1    4    4  502    0 -0.75466017711E+02  0.46971363031E+01 -0.82025670705E+03  0.82374773953E+03  0.47000000000E+01 0. -1.
         -5    1    4    4    0  502  0.34436335510E+02  0.18281620047E+01 -0.99178971056E+02  0.10510833306E+03  0.47000000000E+01 0. -1.
          5    1    5    5  503    0  0.55965629175E+02  0.95712205761E+01 -0.15159559300E+04  0.15170261144E+04  0.47000000000E+01 0. -1.
         -5    1    5    5    0  503 -0.14935946974E+02 -0.16096518884E+02 -0.57137290048E+02  0.61391696069E+02  0.47000000000E+01 0. -1.
<mgrwt>
<rscale>  0 0.27151799E+03</rscale>
<asrwt>0</asrwt>
<pdfrwt beam="1">  1        2 0.38460065E+00 0.27151799E+03</pdfrwt>
<pdfrwt beam="2">  1       -2 0.11342283E-02 0.27151799E+03</pdfrwt>
<totfact> 0.71195788E+03</totfact>
</mgrwt>
</event>
<event>
 9    1  0.7816570E-001  0.2770073E+03  0.7818608E-02  0.1097335E+00
         -1   -1    0    0    0  501 -0.00000000000E+00  0.00000000000E+00  0.77931182854E+02  0.77931182854E+02  0.00000000000E+00 0. -1.
          1   -1    0    0  501    0  0.00000000000E+00 -0.00000000000E+00 -0.24615633483E+03  0.24615633483E+03  0.00000000000E+00 0. -1.
         35    2    1    2    0    0  0.00000000000E+00  0.00000000000E+00 -0.16822515198E+03  0.32408751768E+03  0.27700725146E+03 0.  0.
         25    2    3    3    0    0 -0.35950709157E+01 -0.35618263016E+02 -0.32663573628E+02  0.13628894640E+03  0.12738203434E+03 0.  0.
         25    2    3    3    0    0  0.35950709157E+01  0.35618263016E+02 -0.13556157835E+03  0.18779857129E+03  0.12493909179E+03 0.  0.
          5    1    4    4  502    0 -0.57629770176E+02 -0.18407162017E+02 -0.47982511154E+02  0.77359067992E+02  0.47000000000E+01 0. -1.
         -5    1    4    4    0  502  0.54034699260E+02 -0.17211100999E+02  0.15318937527E+02  0.58929878404E+02  0.47000000000E+01 0. -1.
          5    1    5    5  503    0 -0.22303041032E+02  0.76556076645E+02 -0.97317583911E+02  0.12590099542E+03  0.47000000000E+01 0.  1.
         -5    1    5    5    0  503  0.25898111947E+02 -0.40937813630E+02 -0.38243994439E+02  0.61897575864E+02  0.47000000000E+01 0.  1.
<mgrwt>
<rscale>  0 0.27700725E+03</rscale>
<asrwt>0</asrwt>
<pdfrwt beam="1">  1        1 0.37870205E-01 0.27700725E+03</pdfrwt>
<pdfrwt beam="2">  1       -1 0.11989413E-01 0.27700725E+03</pdfrwt>
<totfact> 0.51336186E+03</totfact>
</mgrwt>
</event>
<event>
 9    1  0.7816570E-001  0.2636276E+03  0.7818608E-02  0.1104983E+00
         -2   -1    0    0    0  501 -0.00000000000E+00  0.00000000000E+00  0.16331168474E+02  0.16331168474E+02  0.00000000000E+00 0. -1.
          2   -1    0    0  501    0  0.00000000000E+00 -0.00000000000E+00 -0.10639093331E+04  0.10639093331E+04  0.00000000000E+00 0. -1.
         35    2    1    2    0    0  0.00000000000E+00  0.35527136788E-14 -0.10475781647E+04  0.10802405016E+04  0.26362763558E+03 0.  0.
         25    2    3    3    0    0 -0.40557049910E+02 -0.84430200959E+01 -0.57303772030E+03  0.58759316966E+03  0.12319636867E+03 0.  0.
         25    2    3    3    0    0  0.40557049910E+02  0.84430200959E+01 -0.47454044435E+03  0.49264733195E+03  0.12568453151E+03 0.  0.
          5    1    4    4  502    0 -0.56715562594E+02  0.23441907828E+02 -0.51897196703E+03  0.52260900361E+03  0.47000000000E+01 0. -1.
         -5    1    4    4    0  502  0.16158512684E+02 -0.31884927924E+02 -0.54065753269E+02  0.64984166051E+02  0.47000000000E+01 0. -1.
          5    1    5    5  503    0  0.67223238088E+02  0.21332278978E+02 -0.44490952810E+03  0.45048929849E+03  0.47000000000E+01 0.  1.
         -5    1    5    5    0  503 -0.26666188178E+02 -0.12889258882E+02 -0.29630916255E+02  0.42158033452E+02  0.47000000000E+01 0.  1.
<mgrwt>
<rscale>  0 0.26362764E+03</rscale>
<asrwt>0</asrwt>
<pdfrwt beam="1">  1        2 0.16367835E+00 0.26362764E+03</pdfrwt>
<pdfrwt beam="2">  1       -2 0.25124875E-02 0.26362764E+03</pdfrwt>
<totfact> 0.13189858E+04</totfact>
</mgrwt>
</event>
<event>
 9    1  0.7816570E-001  0.2738036E+03  0.7818608E-02  0.1099122E+00
         -1   -1    0    0    0  501 -0.00000000000E+00  0.00000000000E+00  0.94239113326E+01  0.94239113326E+01  0.00000000000E+00 0.  1.
          1   -1    0    0  501    0  0.00000000000E+00 -0.00000000000E+00 -0.19887819873E+04  0.19887819873E+04  0.00000000000E+00 0.  1.
         35    2    1    2    0    0 -0.71054273576E-14 -0.71054273576E-14 -0.19793580760E+04  0.19982058986E+04  0.27380361654E+03 0.  0.
         25    2    3    3    0    0  0.50435683288E+02  0.20762784867E+01 -0.80793940780E+03  0.81915986312E+03  0.12533445491E+03 0.  0.
         25    2    3    3    0    0 -0.50435683288E+02 -0.20762784867E+01 -0.11714186682E+04  0.11790460355E+04  0.12401527586E+03 0.  0.
          5    1    4    4  502    0 -0.40980233691E+02 -0.67845163025E+01 -0.20186984412E+03  0.20615269384E+03  0.47000000000E+01 0. -1.
         -5    1    4    4    0  502  0.91415916979E+02  0.88607947892E+01 -0.60606956368E+03  0.61300716928E+03  0.47000000000E+01 0. -1.
          5    1    5    5  503    0 -0.18186379065E+02  0.42418447843E+02 -0.17321394516E+03  0.17931879405E+03  0.47000000000E+01 0.  1.
         -5    1    5    5    0  503 -0.32249304223E+02 -0.44494726329E+02 -0.99820472299E+03  0.99972724145E+03  0.47000000000E+01 0.  1.
<mgrwt>
<rscale>  0 0.27380362E+03</rscale>
<asrwt>0</asrwt>
<pdfrwt beam="1">  1        1 0.30596645E+00 0.27380362E+03</pdfrwt>
<pdfrwt beam="2">  1       -1 0.14498326E-02 0.27380362E+03</pdfrwt>
<totfact> 0.37627636E+03</totfact>
</mgrwt>
</event>
<event>
 9    1  0.7816570E-001  0.2670549E+03  0.7818608E-02  0.1102977E+00
         -2   -1    0    0    0  501 -0.00000000000E+00  0.00000000000E+00  0.14480295945E+02  0.14480295945E+02  0.00000000000E+00 0.  1.
          2   -1    0    0  501    0  0.00000000000E+00 -0.00000000000E+00 -0.12312994425E+04  0.12312994425E+04  0.00000000000E+00 0.  1.
         35    2    1    2    0    0  0.00000000000E+00  0.35527136788E-14 -0.12168191466E+04  0.12457797385E+04  0.26705490315E+03 0.  0.
         25    2    3    3    0    0  0.38715682267E+02  0.15267028054E+02 -0.59963864352E+03  0.61413423530E+03  0.12594590092E+03 0.  0.
         25    2    3    3    0    0 -0.38715682267E+02 -0.15267028054E+02 -0.61718050306E+03  0.63164550317E+03  0.12779781738E+03 0.  0.
          5    1    4    4  502    0 -0.16504246422E+02  0.41920774809E+02 -0.45110544655E+03  0.45337396862E+03  0.47000000000E+01 0.  1.
         -5    1    4    4    0  502  0.55219928689E+02 -0.26653746755E+02 -0.14853319697E+03  0.16076026668E+03  0.47000000000E+01 0.  1.
          5    1    5    5  503    0 -0.11793577059E+02  0.45714825477E+02 -0.43528439374E+03  0.43786245233E+03  0.47000000000E+01 0.  1.
         -5    1    5    5    0  503 -0.26922105208E+02 -0.60981853531E+02 -0.18189610932E+03  0.19378305084E+03  0.47000000000E+01 0.  1.
<mgrwt>
<rscale>  0 0.26705490E+03</rscale>
<asrwt>0</asrwt>
<pdfrwt beam="1">  1        2 0.18943069E+00 0.26705490E+03</pdfrwt>
<pdfrwt beam="2">  1       -2 0.22277378E-02 0.26705490E+03</pdfrwt>
<totfact> 0.12614983E+04</totfact>
</mgrwt>
</event>
<event>
 9    1  0.7816570E-001  0.2751982E+03  0.7818608E-02  0.1098341E+00
         -2   -1    0    0    0  501 -0.00000000000E+00  0.00000000000E+00  0.12883674425E+02  0.12883674425E+02  0.00000000000E+00 0.  1.
          2   -1    0    0  501    0  0.00000000000E+00 -0.00000000000E+00 -0.14695741366E+04  0.14695741366E+04  0.00000000000E+00 0.  1.
         35    2    1    2    0    0  0.14210854715E-13  0.00000000000E+00 -0.14566904622E+04  0.14824578110E+04  0.27519821743E+03 0.  0.
         25    2    3    3    0    0 -0.55450141713E+02  0.13227639686E+02 -0.77798668731E+03  0.79004898264E+03  0.12515758334E+03 0.  0.
         25    2    3    3    0    0  0.55450141713E+02 -0.13227639686E+02 -0.67870377485E+03  0.69240882837E+03  0.12466548417E+03 0.  0.
          5    1    4    4  502    0  0.11922162393E+02  0.29786711214E+02 -0.56642945037E+03  0.56735685276E+03  0.47000000000E+01 0. -1.
         -5    1    4    4    0  502 -0.67372304105E+02 -0.16559071527E+02 -0.21155723694E+03  0.22269212988E+03  0.47000000000E+01 0. -1.
          5    1    5    5  503    0  0.91673146436E+02 -0.27705372716E+02 -0.52990357573E+03  0.53850853570E+03  0.47000000000E+01 0. -1.
         -5    1    5    5    0  503 -0.36223004724E+02  0.14477733030E+02 -0.14880019912E+03  0.15390029267E+03  0.47000000000E+01 0. -1.
<mgrwt>
<rscale>  0 0.27519822E+03</rscale>
<asrwt>0</asrwt>
<pdfrwt beam="1">  1        2 0.22608824E+00 0.27519822E+03</pdfrwt>
<pdfrwt beam="2">  1       -2 0.19821046E-02 0.27519822E+03</pdfrwt>
<totfact> 0.11098200E+04</totfact>
</mgrwt>
</event>
<event>
 9    1  0.7816570E-001  0.2762680E+03  0.7818608E-02  0.1097745E+00
          1   -1    0    0  501    0  0.00000000000E+00  0.00000000000E+00  0.13077060756E+03  0.13077060756E+03  0.00000000000E+00 0. -1.
         -1   -1    0    0    0  501 -0.00000000000E+00 -0.00000000000E+00 -0.14591204629E+03  0.14591204629E+03  0.00000000000E+00 0. -1.
         35    2    1    2    0    0 -0.14210854715E-13 -0.35527136788E-14 -0.15141438732E+02  0.27668265384E+03  0.27626803610E+03 0.  0.
         25    2    3    3    0    0 -0.42209850451E+02  0.22042226998E+02  0.25696413052E+02  0.13615092127E+03  0.12493692998E+03 0.  0.
         25    2    3    3    0    0  0.42209850451E+02 -0.22042226998E+02 -0.40837851784E+02  0.14053173257E+03  0.12575335572E+03 0.  0.
          5    1    4    4  502    0 -0.25346024559E+02  0.66461286683E+02 -0.15660141152E+02  0.72985297214E+02  0.47000000000E+01 0. -1.
         -5    1    4    4    0  502 -0.16863825892E+02 -0.44419059685E+02  0.41356554204E+02  0.63165624058E+02  0.47000000000E+01 0. -1.
          5    1    5    5  503    0 -0.26379424789E+01 -0.28680802370E+02  0.38933843620E+02  0.48656770795E+02  0.47000000000E+01 0. -1.
         -5    1    5    5    0  503  0.44847792930E+02  0.66385753725E+01 -0.79771695404E+02  0.91874961776E+02  0.47000000000E+01 0. -1.
<mgrwt>
<rscale>  0 0.27626804E+03</rscale>
<asrwt>0</asrwt>
<pdfrwt beam="1">  1        1 0.20118555E-01 0.27626804E+03</pdfrwt>
<pdfrwt beam="2">  1       -1 0.22448007E-01 0.27626804E+03</pdfrwt>
<totfact> 0.41982336E+03</totfact>
</mgrwt>
</event>
<event>
 9    1  0.7816570E-001  0.2708963E+03  0.7818608E-02  0.1100768E+00
          1   -1    0    0  501    0  0.00000000000E+00  0.00000000000E+00  0.16606729876E+03  0.16606729876E+03  0.00000000000E+00 0.  1.
         -1   -1    0    0    0  501 -0.00000000000E+00 -0.00000000000E+00 -0.11047446921E+03  0.11047446921E+03  0.00000000000E+00 0.  1.
         35    2    1    2    0    0 -0.71054273576E-14  0.14210854715E-13  0.55592829552E+02  0.27654176798E+03  0.27089626564E+03 0.  0.
         25    2    3    3    0    0 -0.32355854099E+02 -0.35353277417E+02  0.52400465157E+02  0.14391157978E+03  0.12517179605E+03 0.  0.
         25    2    3    3    0    0  0.32355854099E+02  0.35353277417E+02  0.31923643950E+01  0.13263018820E+03  0.12362774815E+03 0.  0.
          5    1    4    4  502    0 -0.55245913672E+02 -0.44309510368E+02  0.79804602072E+02  0.10680031928E+03  0.47000000000E+01 0. -1.
         -5    1    4    4    0  502  0.22890059572E+02  0.89562329504E+01 -0.27404136915E+02  0.37111260501E+02  0.47000000000E+01 0. -1.
          5    1    5    5  503    0 -0.24054254355E+02  0.60330171714E+02  0.20700394570E+02  0.68329591737E+02  0.47000000000E+01 0.  1.
         -5    1    5    5    0  503  0.56410108454E+02 -0.24976894297E+02 -0.17508030175E+02  0.64300596460E+02  0.47000000000E+01 0.  1.
<mgrwt>
<rscale>  0 0.27089627E+03</rscale>
<asrwt>0</asrwt>
<pdfrwt beam="1">  1        1 0.25548815E-01 0.27089627E+03</pdfrwt>
<pdfrwt beam="2">  1       -1 0.16996072E-01 0.27089627E+03</pdfrwt>
<totfact> 0.48535502E+03</totfact>
</mgrwt>
</event>
<event>
 9    1  0.7816570E-001  0.2744340E+03  0.7818608E-02  0.1098768E+00
         -1   -1    0    0    0  501 -0.00000000000E+00  0.00000000000E+00  0.10803169079E+02  0.10803169079E+02  0.00000000000E+00 0.  1.
          1   -1    0    0  501    0  0.00000000000E+00 -0.00000000000E+00 -0.17428691190E+04  0.17428691190E+04  0.00000000000E+00 0.  1.
         35    2    1    2    0    0 -0.14210854715E-13  0.71054273576E-14 -0.17320659499E+04  0.17536722880E+04  0.27443403415E+03 0.  0.
         25    2    3    3    0    0  0.56354092256E+02 -0.69050921140E+01 -0.80550857886E+03  0.81711958636E+03  0.12496753096E+03 0.  0.
         25    2    3    3    0    0 -0.56354092256E+02  0.69050921140E+01 -0.92655737103E+03  0.93655270168E+03  0.12409245427E+03 0.  0.
          5    1    4    4  502    0  0.14524139628E+02  0.37723971607E+02 -0.87564711999E+02  0.96559398575E+02  0.47000000000E+01 0.  1.
         -5    1    4    4    0  502  0.41829952628E+02 -0.44629063721E+02 -0.71794386686E+03  0.72056018779E+03  0.47000000000E+01 0.  1.
          5    1    5    5  503    0  0.15227118672E+02  0.48039090347E+02 -0.25953533946E+03  0.26442447272E+03  0.47000000000E+01 0.  1.
         -5    1    5    5    0  503 -0.71581210929E+02 -0.41133998233E+02 -0.66702203156E+03  0.67212822896E+03  0.47000000000E+01 0.  1.
<mgrwt>
<rscale>  0 0.27443403E+03</rscale>
<asrwt>0</asrwt>
<pdfrwt beam="1">  1        1 0.26813379E+00 0.27443403E+03</pdfrwt>
<pdfrwt beam="2">  1       -1 0.16620255E-02 0.27443403E+03</pdfrwt>
<totfact> 0.44551138E+03</totfact>
</mgrwt>
</event>
<event>
 9    1  0.7816570E-001  0.2747706E+03  0.7818608E-02  0.1098580E+00
         -2   -1    0    0    0  501 -0.00000000000E+00  0.00000000000E+00  0.71193478703E+01  0.71193478703E+01  0.00000000000E+00 0. -1.
          2   -1    0    0  501    0  0.00000000000E+00 -0.00000000000E+00 -0.26511858682E+04  0.26511858682E+04  0.00000000000E+00 0. -1.
         35    2    1    2    0    0  0.00000000000E+00  0.00000000000E+00 -0.26440665203E+04  0.26583052160E+04  0.27477055493E+03 0.  0.
         25    2    3    3    0    0 -0.41196420159E+02  0.22287038541E+02 -0.13346299868E+04  0.13420249583E+04  0.13266472742E+03 0.  0.
         25    2    3    3    0    0  0.41196420159E+02 -0.22287038541E+02 -0.13094365335E+04  0.13162802577E+04  0.12560184928E+03 0.  0.
          5    1    4    4  502    0 -0.81621770286E+02  0.40175345970E+02 -0.71089238728E+03  0.71670513330E+03  0.47000000000E+01 0.  1.
         -5    1    4    4    0  502  0.40425350127E+02 -0.17888307429E+02 -0.62373759957E+03  0.62531982504E+03  0.47000000000E+01 0.  1.
          5    1    5    5  503    0 -0.23116523972E+02  0.36116888924E+02 -0.59587286205E+03  0.59743230669E+03  0.47000000000E+01 0.  1.
         -5    1    5    5    0  503  0.64312944131E+02 -0.58403927465E+02 -0.71356367141E+03  0.71884795102E+03  0.47000000000E+01 0.  1.
<mgrwt>
<rscale>  0 0.27477055E+03</rscale>
<asrwt>0</asrwt>
<pdfrwt beam="1">  1        2 0.40787535E+00 0.27477055E+03</pdfrwt>
<pdfrwt beam="2">  1       -2 0.10952827E-02 0.27477055E+03</pdfrwt>
<totfact> 0.61770717E+03</totfact>
</mgrwt>
</event>
<event>
 9    1  0.7816570E-001  0.2745514E+03  0.7818608E-02  0.1098703E+00
          2   -1    0    0  501    0  0.00000000000E+00  0.00000000000E+00  0.63351525442E+03  0.63351525442E+03  0.00000000000E+00 0.  1.
         -2   -1    0    0    0  501 -0.00000000000E+00 -0.00000000000E+00 -0.29746108585E+02  0.29746108585E+02  0.00000000000E+00 0.  1.
         35    2    1    2    0    0  0.71054273576E-14 -0.71054273576E-14  0.60376914584E+03  0.66326136301E+03  0.27455136895E+03 0.  0.
         25    2    3    3    0    0  0.39294334025E+02  0.36575727580E+02  0.30008615339E+03  0.33146412498E+03  0.13013430813E+03 0.  0.
         25    2    3    3    0    0 -0.39294334025E+02 -0.36575727580E+02  0.30368299244E+03  0.33179723803E+03  0.12241004342E+03 0.  0.
          5    1    4    4  502    0  0.60607840410E+02  0.25066748633E+02  0.56684910493E+02  0.86815443809E+02  0.47000000000E+01 0.  1.
         -5    1    4    4    0  502 -0.21313506384E+02  0.11508978947E+02  0.24340124290E+03  0.24464868117E+03  0.47000000000E+01 0.  1.
          5    1    5    5  503    0 -0.22949233179E+02  0.28985507048E+02  0.24700424415E+02  0.44710489694E+02  0.47000000000E+01 0.  1.
         -5    1    5    5    0  503 -0.16345100846E+02 -0.65561234628E+02  0.27898256803E+03  0.28708674834E+03  0.47000000000E+01 0.  1.
<mgrwt>
<rscale>  0 0.27455137E+03</rscale>
<asrwt>0</asrwt>
<pdfrwt beam="1">  1        2 0.97463875E-01 0.27455137E+03</pdfrwt>
<pdfrwt beam="2">  1       -2 0.45763249E-02 0.27455137E+03</pdfrwt>
<totfact> 0.10554639E+04</totfact>
</mgrwt>
</event>
<event>
 9    1  0.7816570E-001  0.2765767E+03  0.7818608E-02  0.1097573E+00
         -2   -1    0    0    0  501 -0.00000000000E+00  0.00000000000E+00  0.46133882671E+02  0.46133882671E+02  0.00000000000E+00 0. -1.
          2   -1    0    0  501    0  0.00000000000E+00 -0.00000000000E+00 -0.41452549522E+03  0.41452549522E+03  0.00000000000E+00 0. -1.
         35    2    1    2    0    0  0.00000000000E+00 -0.71054273576E-14 -0.36839161255E+03  0.46065937789E+03  0.27657672035E+03 0.  0.
         25    2    3    3    0    0 -0.23063851390E+02  0.25410994363E+02 -0.26712743812E+03  0.29671500267E+03  0.12451933481E+03 0.  0.
         25    2    3    3    0    0  0.23063851390E+02 -0.25410994363E+02 -0.10126417443E+03  0.16394437522E+03  0.12428059087E+03 0.  0.
          5    1    4    4  502    0  0.14326871782E+02 -0.23852287829E+01  0.82720647753E+01  0.17362765536E+02  0.47000000000E+01 0. -1.
         -5    1    4    4    0  502 -0.37390723172E+02  0.27796223146E+02 -0.27539950289E+03  0.27935223714E+03  0.47000000000E+01 0. -1.
          5    1    5    5  503    0  0.47632317965E+01 -0.11326872746E+02  0.28852772130E+02  0.31710548448E+02  0.47000000000E+01 0.  1.
         -5    1    5    5    0  503  0.18300619593E+02 -0.14084121618E+02 -0.13011694656E+03  0.13223382677E+03  0.47000000000E+01 0.  1.
<mgrwt>
<rscale>  0 0.27657672E+03</rscale>
<asrwt>0</asrwt>
<pdfrwt beam="1">  1        2 0.63773157E-01 0.27657672E+03</pdfrwt>
<pdfrwt beam="2">  1       -2 0.70975200E-02 0.27657672E+03</pdfrwt>
<totfact> 0.86992267E+03</totfact>
</mgrwt>
</event>
<event>
 9    1  0.7816570E-001  0.2785859E+03  0.7818608E-02  0.1096464E+00
          2   -1    0    0  501    0  0.00000000000E+00  0.00000000000E+00  0.31374051340E+04  0.31374051340E+04  0.00000000000E+00 0.  1.
         -2   -1    0    0    0  501 -0.00000000000E+00 -0.00000000000E+00 -0.61842594804E+01  0.61842594804E+01  0.00000000000E+00 0.  1.
         35    2    1    2    0    0  0.00000000000E+00 -0.71054273576E-14  0.31312208745E+04  0.31435893934E+04  0.27858591094E+03 0.  0.
         25    2    3    3    0    0  0.77628156968E+01  0.51017799318E+02  0.20090320049E+04  0.20133017326E+04  0.12046241155E+03 0.  0.
         25    2    3    3    0    0 -0.77628156968E+01 -0.51017799318E+02  0.11221888696E+04  0.11302876609E+04  0.12481690630E+03 0.  0.
          5    1    4    4  502    0  0.79302404673E+01  0.53622726433E+01  0.17625887864E+04  0.17626210491E+04  0.47000000000E+01 0.  1.
         -5    1    4    4    0  502 -0.16742477042E+00  0.45655526675E+02  0.24644321847E+03  0.25068068349E+03  0.47000000000E+01 0.  1.
          5    1    5    5  503    0  0.11747639441E+02  0.25474594438E+02  0.71068211726E+03  0.71125109757E+03  0.47000000000E+01 0. -1.
         -5    1    5    5    0  503 -0.19510455138E+02 -0.76492393757E+02  0.41150675232E+03  0.41903656329E+03  0.47000000000E+01 0. -1.
<mgrwt>
<rscale>  0 0.27858591E+03</rscale>
<asrwt>0</asrwt>
<pdfrwt beam="1">  1        2 0.48267644E+00 0.27858591E+03</pdfrwt>
<pdfrwt beam="2">  1       -2 0.95142704E-03 0.27858591E+03</pdfrwt>
<totfact> 0.39474834E+03</totfact>
</mgrwt>
</event>
<event>
 9    1  0.7816570E-001  0.2742962E+03  0.7818608E-02  0.1098846E+00
         -2   -1    0    0    0  501 -0.00000000000E+00  0.00000000000E+00  0.91619085173E+01  0.91619085173E+01  0.00000000000E+00 0.  1.
          2   -1    0    0  501    0  0.00000000000E+00 -0.00000000000E+00 -0.20530219585E+04  0.20530219585E+04  0.00000000000E+00 0.  1.
         35    2    1    2    0    0  0.51070259133E-14  0.00000000000E+00 -0.20438600500E+04  0.20621838670E+04  0.27429618567E+03 0.  0.
         25    2    3    3    0    0  0.17450585543E+01 -0.23771644283E+02 -0.62170526631E+03  0.63436398665E+03  0.12382282949E+03 0.  0.
         25    2    3    3    0    0 -0.17450585543E+01  0.23771644283E+02 -0.14221547837E+04  0.14278198804E+04  0.12480883678E+03 0.  0.
          5    1    4    4  502    0  0.12425004931E+01  0.15379947508E+02 -0.56535497755E+03  0.56558503095E+03  0.47000000000E+01 0.  1.
         -5    1    4    4    0  502  0.50255806126E+00 -0.39151591792E+02 -0.56350288759E+02  0.68778955703E+02  0.47000000000E+01 0.  1.
          5    1    5    5  503    0 -0.55466788131E+02  0.10856607799E+02 -0.10527220919E+04  0.10542487009E+04  0.47000000000E+01 0. -1.
         -5    1    5    5    0  503  0.53721729576E+02  0.12915036484E+02 -0.36943269181E+03  0.37357117953E+03  0.47000000000E+01 0. -1.
<mgrwt>
<rscale>  0 0.27429619E+03</rscale>
<asrwt>0</asrwt>
<pdfrwt beam="1">  1        2 0.31584959E+00 0.27429619E+03</pdfrwt>
<pdfrwt beam="2">  1       -2 0.14095241E-02 0.27429619E+03</pdfrwt>
<totfact> 0.90023066E+03</totfact>
</mgrwt>
</event>
<event>
 9    1  0.7816570E-001  0.2840114E+03  0.7818608E-02  0.1093518E+00
         -2   -1    0    0    0  501 -0.00000000000E+00  0.00000000000E+00  0.38603988433E+02  0.38603988433E+02  0.00000000000E+00 0. -1.
          2   -1    0    0  501    0  0.00000000000E+00 -0.00000000000E+00 -0.52237152678E+03  0.52237152678E+03  0.00000000000E+00 0. -1.
         35    2    1    2    0    0 -0.71054273576E-14 -0.35527136788E-14 -0.48376753835E+03  0.56097551521E+03  0.28401143905E+03 0.  0.
         25    2    3    3    0    0  0.56724361873E+02 -0.31287110933E+02 -0.29172751376E+03  0.32358635014E+03  0.12412351581E+03 0.  0.
         25    2    3    3    0    0 -0.56724361873E+02  0.31287110933E+02 -0.19204002459E+03  0.23738916507E+03  0.12360302629E+03 0.  0.
          5    1    4    4  502    0  0.29880609322E+01 -0.35138908692E+02 -0.25670209269E+03  0.25915579446E+03  0.47000000000E+01 0. -1.
         -5    1    4    4    0  502  0.53736300940E+02  0.38517977583E+01 -0.35025421072E+02  0.64430555686E+02  0.47000000000E+01 0. -1.
          5    1    5    5  503    0 -0.51861232556E+01  0.33387772161E+01 -0.17634378154E+03  0.17651419941E+03  0.47000000000E+01 0. -1.
         -5    1    5    5    0  503 -0.51538238617E+02  0.27948333717E+02 -0.15696243049E+02  0.60874965652E+02  0.47000000000E+01 0. -1.
<mgrwt>
<rscale>  0 0.28401144E+03</rscale>
<asrwt>0</asrwt>
<pdfrwt beam="1">  1        2 0.80364847E-01 0.28401144E+03</pdfrwt>
<pdfrwt beam="2">  1       -2 0.59390754E-02 0.28401144E+03</pdfrwt>
<totfact> 0.88711850E+03</totfact>
</mgrwt>
</event>
<event>
 9    1  0.7816570E-001  0.2720018E+03  0.7818608E-02  0.1100139E+00
          2   -1    0    0  501    0  0.00000000000E+00  0.00000000000E+00  0.12338313163E+03  0.12338313163E+03  0.00000000000E+00 0. -1.
         -2   -1    0    0    0  501 -0.00000000000E+00 -0.00000000000E+00 -0.14990903742E+03  0.14990903742E+03  0.00000000000E+00 0. -1.
         35    2    1    2    0    0  0.71054273576E-14  0.00000000000E+00 -0.26525905791E+02  0.27329216905E+03  0.27200181247E+03 0.  0.
         25    2    3    3    0    0  0.21354271711E+02 -0.16417290344E+02 -0.60953822126E+02  0.14150239802E+03  0.12482799314E+03 0.  0.
         25    2    3    3    0    0 -0.21354271711E+02  0.16417290344E+02  0.34427916335E+02  0.13178977103E+03  0.12432911961E+03 0.  0.
          5    1    4    4  502    0 -0.51419178492E+02  0.44838535057E+01 -0.23789425541E+02  0.57026867586E+02  0.47000000000E+01 0. -1.
         -5    1    4    4    0  502  0.72773450203E+02 -0.20901143849E+02 -0.37164396585E+02  0.84475530435E+02  0.47000000000E+01 0. -1.
          5    1    5    5  503    0  0.24772239560E+02  0.35465997334E+02 -0.27987002209E+02  0.51738410416E+02  0.47000000000E+01 0. -1.
         -5    1    5    5    0  503 -0.46126511271E+02 -0.19048706990E+02  0.62414918543E+02  0.80051360618E+02  0.47000000000E+01 0. -1.
<mgrwt>
<rscale>  0 0.27200181E+03</rscale>
<asrwt>0</asrwt>
<pdfrwt beam="1">  1        2 0.18982020E-01 0.27200181E+03</pdfrwt>
<pdfrwt beam="2">  1       -2 0.23062929E-01 0.27200181E+03</pdfrwt>
<totfact> 0.48032688E+03</totfact>
</mgrwt>
</event>
<event>
 9    1  0.7816570E-001  0.2743369E+03  0.7818608E-02  0.1098823E+00
         -2   -1    0    0    0  501 -0.00000000000E+00  0.00000000000E+00  0.62031589749E+02  0.62031589749E+02  0.00000000000E+00 0.  1.
          2   -1    0    0  501    0  0.00000000000E+00 -0.00000000000E+00 -0.30331618426E+03  0.30331618426E+03  0.00000000000E+00 0.  1.
         35    2    1    2    0    0  0.35527136788E-14  0.35527136788E-14 -0.24128459451E+03  0.36534777401E+03  0.27433691043E+03 0.  0.
         25    2    3    3    0    0  0.11851224964E+02  0.80257033881E+01 -0.19191341357E+03  0.22994809216E+03  0.12585906138E+03 0.  0.
         25    2    3    3    0    0 -0.11851224964E+02 -0.80257033881E+01 -0.49371180942E+02  0.13539968185E+03  0.12526251191E+03 0.  0.
          5    1    4    4  502    0  0.71948127237E+01  0.33692228019E+02 -0.19939729772E+03  0.20240628424E+03  0.47000000000E+01 0. -1.
         -5    1    4    4    0  502  0.46564122402E+01 -0.25666524631E+02  0.74838841541E+01  0.27541807922E+02  0.47000000000E+01 0. -1.
          5    1    5    5  503    0 -0.53931293369E+02  0.34494975665E+02 -0.13854762837E+02  0.65669872879E+02  0.47000000000E+01 0.  1.
         -5    1    5    5    0  503  0.42080068405E+02 -0.42520679053E+02 -0.35516418105E+02  0.69729808971E+02  0.47000000000E+01 0.  1.
<mgrwt>
<rscale>  0 0.27433691E+03</rscale>
<asrwt>0</asrwt>
<pdfrwt beam="1">  1        2 0.46664030E-01 0.27433691E+03</pdfrwt>
<pdfrwt beam="2">  1       -2 0.95433212E-02 0.27433691E+03</pdfrwt>
<totfact> 0.76663646E+03</totfact>
</mgrwt>
</event>
<event>
 9    1  0.7816570E-001  0.2758067E+03  0.7818608E-02  0.1098001E+00
          2   -1    0    0  501    0  0.00000000000E+00  0.00000000000E+00  0.30422038102E+04  0.30422038102E+04  0.00000000000E+00 0.  1.
         -2   -1    0    0    0  501 -0.00000000000E+00 -0.00000000000E+00 -0.62511721256E+01  0.62511721256E+01  0.00000000000E+00 0.  1.
         35    2    1    2    0    0  0.00000000000E+00  0.00000000000E+00  0.30359526380E+04  0.30484549823E+04  0.27580674146E+03 0.  0.
         25    2    3    3    0    0 -0.26352356361E+01 -0.32496790611E+02  0.10479859001E+04  0.10558873771E+04  0.12474261610E+03 0.  0.
         25    2    3    3    0    0  0.26352356361E+01  0.32496790611E+02  0.19879667379E+04  0.19925676052E+04  0.13134277506E+03 0.  0.
          5    1    4    4  502    0 -0.12266147710E+02 -0.15874605903E+02  0.10264169019E+04  0.10266236935E+04  0.47000000000E+01 0. -1.
         -5    1    4    4    0  502  0.96309120739E+01 -0.16622184707E+02  0.21568998231E+02  0.29263683577E+02  0.47000000000E+01 0. -1.
          5    1    5    5  503    0 -0.72570610589E+01 -0.37878526119E+02  0.23786363691E+03  0.24101586554E+03  0.47000000000E+01 0.  1.
         -5    1    5    5    0  503  0.98922966951E+01  0.70375316730E+02  0.17501031010E+04  0.17515517397E+04  0.47000000000E+01 0.  1.
<mgrwt>
<rscale>  0 0.27580674E+03</rscale>
<asrwt>0</asrwt>
<pdfrwt beam="1">  1        2 0.46803017E+00 0.27580674E+03</pdfrwt>
<pdfrwt beam="2">  1       -2 0.96172122E-03 0.27580674E+03</pdfrwt>
<totfact> 0.44371389E+03</totfact>
</mgrwt>
</event>
<event>
 9    1  0.7816570E-001  0.2798664E+03  0.7818608E-02  0.1095762E+00
         -4   -1    0    0    0  501 -0.00000000000E+00  0.00000000000E+00  0.10671061315E+03  0.10671061315E+03  0.00000000000E+00 0.  1.
          4   -1    0    0  501    0  0.00000000000E+00 -0.00000000000E+00 -0.18349909348E+03  0.18349909348E+03  0.00000000000E+00 0.  1.
         35    2    1    2    0    0  0.71054273576E-14  0.00000000000E+00 -0.76788480334E+02  0.29020970663E+03  0.27986640226E+03 0.  0.
         25    2    3    3    0    0  0.43898316414E+02  0.41341053929E+01  0.84073143427E+01  0.13301918425E+03  0.12521688158E+03 0.  0.
         25    2    3    3    0    0 -0.43898316414E+02 -0.41341053929E+01 -0.85195794676E+02  0.15719052239E+03  0.12452463164E+03 0.  0.
          5    1    4    4  502    0  0.28574741911E+02 -0.80579505770E+01 -0.57076992438E+02  0.64508290231E+02  0.47000000000E+01 0.  1.
         -5    1    4    4    0  502  0.15323574503E+02  0.12192055970E+02  0.65484306781E+02  0.68510894016E+02  0.47000000000E+01 0.  1.
          5    1    5    5  503    0  0.11531422323E+02  0.18965195593E+02 -0.93656450968E+02  0.96365310941E+02  0.47000000000E+01 0. -1.
         -5    1    5    5    0  503 -0.55429738737E+02 -0.23099300986E+02  0.84606562920E+01  0.60825211445E+02  0.47000000000E+01 0. -1.
<mgrwt>
<rscale>  0 0.27986640E+03</rscale>
<asrwt>0</asrwt>
<pdfrwt beam="1">  1        4 0.28230630E-01 0.27986640E+03</pdfrwt>
<pdfrwt beam="2">  1       -4 0.16417018E-01 0.27986640E+03</pdfrwt>
<totfact> 0.72077814E+02</totfact>
</mgrwt>
</event>
<event>
 9    1  0.7816570E-001  0.2735365E+03  0.7818608E-02  0.1099272E+00
         -2   -1    0    0    0  501 -0.00000000000E+00  0.00000000000E+00  0.24606164246E+02  0.24606164246E+02  0.00000000000E+00 0. -1.
          2   -1    0    0  501    0  0.00000000000E+00 -0.00000000000E+00 -0.76019815828E+03  0.76019815828E+03  0.00000000000E+00 0. -1.
         35    2    1    2    0    0  0.00000000000E+00  0.00000000000E+00 -0.73559199403E+03  0.78480432253E+03  0.27353654778E+03 0.  0.
         25    2    3    3    0    0 -0.48748946727E+01 -0.71304805913E+01 -0.20712234675E+03  0.24173108680E+03  0.12433681455E+03 0.  0.
         25    2    3    3    0    0  0.48748946727E+01  0.71304805913E+01 -0.52846964728E+03  0.54307323573E+03  0.12479488334E+03 0.  0.
          5    1    4    4  502    0  0.51083280236E+02 -0.31830368555E+02 -0.76773126206E+02  0.97667173551E+02  0.47000000000E+01 0. -1.
         -5    1    4    4    0  502 -0.55958174909E+02  0.24699887964E+02 -0.13034922054E+03  0.14406391325E+03  0.47000000000E+01 0. -1.
          5    1    5    5  503    0 -0.64546708952E+01 -0.10266805480E+02 -0.52000160666E+03  0.52016423464E+03  0.47000000000E+01 0.  1.
         -5    1    5    5    0  503  0.11329565568E+02  0.17397286071E+02 -0.84680406227E+01  0.22909001082E+02  0.47000000000E+01 0.  1.
<mgrwt>
<rscale>  0 0.27353655E+03</rscale>
<asrwt>0</asrwt>
<pdfrwt beam="1">  1        2 0.11695355E+00 0.27353655E+03</pdfrwt>
<pdfrwt beam="2">  1       -2 0.37855641E-02 0.27353655E+03</pdfrwt>
<totfact> 0.11262712E+04</totfact>
</mgrwt>
</event>
<event>
 9    1  0.7816570E-001  0.2761977E+03  0.7818608E-02  0.1097784E+00
          1   -1    0    0  501    0  0.00000000000E+00  0.00000000000E+00  0.20463231254E+04  0.20463231254E+04  0.00000000000E+00 0. -1.
         -1   -1    0    0    0  501 -0.00000000000E+00 -0.00000000000E+00 -0.93197854908E+01  0.93197854908E+01  0.00000000000E+00 0. -1.
         35    2    1    2    0    0  0.53290705182E-14 -0.44408920985E-15  0.20370033399E+04  0.20556429109E+04  0.27619770147E+03 0.  0.
         25    2    3    3    0    0  0.14656841786E+02  0.31459509574E+01  0.59044842826E+03  0.60362699248E+03  0.12454509066E+03 0.  0.
         25    2    3    3    0    0 -0.14656841786E+02 -0.31459509574E+01  0.14465549117E+04  0.14520159184E+04  0.12491755225E+03 0.  0.
          5    1    4    4  502    0  0.21095415621E+02  0.60485757959E+02  0.37865535490E+03  0.38406446239E+03  0.47000000000E+01 0. -1.
         -5    1    4    4    0  502 -0.64385738350E+01 -0.57339807001E+02  0.21179307336E+03  0.21956253010E+03  0.47000000000E+01 0. -1.
          5    1    5    5  503    0  0.55204892086E+02 -0.30422684063E+01  0.58967422289E+03  0.59227916952E+03  0.47000000000E+01 0. -1.
         -5    1    5    5    0  503 -0.69861733872E+02 -0.10368255105E+00  0.85688068879E+03  0.85973674891E+03  0.47000000000E+01 0. -1.
<mgrwt>
<rscale>  0 0.27619770E+03</rscale>
<asrwt>0</asrwt>
<pdfrwt beam="1">  1        1 0.31481858E+00 0.27619770E+03</pdfrwt>
<pdfrwt beam="2">  1       -1 0.14338148E-02 0.27619770E+03</pdfrwt>
<totfact> 0.35086157E+03</totfact>
</mgrwt>
</event>
<event>
 9    1  0.7816570E-001  0.2724630E+03  0.7818608E-02  0.1099878E+00
         -2   -1    0    0    0  501 -0.00000000000E+00  0.00000000000E+00  0.29252843972E+02  0.29252843972E+02  0.00000000000E+00 0. -1.
          2   -1    0    0  501    0  0.00000000000E+00 -0.00000000000E+00 -0.63443470843E+03  0.63443470843E+03  0.00000000000E+00 0. -1.
         35    2    1    2    0    0 -0.71054273576E-14  0.00000000000E+00 -0.60518186446E+03  0.66368755240E+03  0.27246298491E+03 0.  0.
         25    2    3    3    0    0  0.98943319965E+01  0.10727373554E+02 -0.18327328590E+03  0.22340001507E+03  0.12690742713E+03 0.  0.
         25    2    3    3    0    0 -0.98943319965E+01 -0.10727373554E+02 -0.42190857856E+03  0.44028753733E+03  0.12503316568E+03 0.  0.
          5    1    4    4  502    0 -0.55278057157E+02 -0.14968122718E+02 -0.86174365881E+02  0.10357518832E+03  0.47000000000E+01 0.  1.
         -5    1    4    4    0  502  0.65172389153E+02  0.25695496272E+02 -0.97098920020E+02  0.11982482675E+03  0.47000000000E+01 0.  1.
          5    1    5    5  503    0 -0.65714371000E+02  0.69341186922E+01 -0.19721936531E+03  0.20804814013E+03  0.47000000000E+01 0.  1.
         -5    1    5    5    0  503  0.55820039004E+02 -0.17661492246E+02 -0.22468921325E+03  0.23223939720E+03  0.47000000000E+01 0.  1.
<mgrwt>
<rscale>  0 0.27246298E+03</rscale>
<asrwt>0</asrwt>
<pdfrwt beam="1">  1        2 0.97605328E-01 0.27246298E+03</pdfrwt>
<pdfrwt beam="2">  1       -2 0.45004381E-02 0.27246298E+03</pdfrwt>
<totfact> 0.10803394E+04</totfact>
</mgrwt>
</event>
<event>
 9    1  0.7816570E-001  0.2762281E+03  0.7818608E-02  0.1097767E+00
         -2   -1    0    0    0  501 -0.00000000000E+00  0.00000000000E+00  0.11623571845E+02  0.11623571845E+02  0.00000000000E+00 0. -1.
          2   -1    0    0  501    0  0.00000000000E+00 -0.00000000000E+00 -0.16411035773E+04  0.16411035773E+04  0.00000000000E+00 0. -1.
         35    2    1    2    0    0 -0.14210854715E-13  0.00000000000E+00 -0.16294800054E+04  0.16527271491E+04  0.27622806038E+03 0.  0.
         25    2    3    3    0    0 -0.54354269461E+02  0.21357117143E+02 -0.75639889346E+03  0.76894648879E+03  0.12541492548E+03 0.  0.
         25    2    3    3    0    0  0.54354269461E+02 -0.21357117143E+02 -0.87308111197E+03  0.88378066033E+03  0.12404480817E+03 0.  0.
          5    1    4    4  502    0  0.12835228931E+02  0.25830466915E+02 -0.56918950025E+03  0.56993923651E+03  0.47000000000E+01 0.  1.
         -5    1    4    4    0  502 -0.67189498392E+02 -0.44733497722E+01 -0.18720939321E+03  0.19900725228E+03  0.47000000000E+01 0.  1.
          5    1    5    5  503    0  0.43164506664E+02 -0.72165070887E+02 -0.49620778917E+03  0.50330431364E+03  0.47000000000E+01 0.  1.
         -5    1    5    5    0  503  0.11189762797E+02  0.50807953744E+02 -0.37687332280E+03  0.38047634670E+03  0.47000000000E+01 0.  1.
<mgrwt>
<rscale>  0 0.27622806E+03</rscale>
<asrwt>0</asrwt>
<pdfrwt beam="1">  1        2 0.25247736E+00 0.27622806E+03</pdfrwt>
<pdfrwt beam="2">  1       -2 0.17882426E-02 0.27622806E+03</pdfrwt>
<totfact> 0.10462680E+04</totfact>
</mgrwt>
</event>
<event>
 9    1  0.7816570E-001  0.2748443E+03  0.7818608E-02  0.1098539E+00
          1   -1    0    0  501    0  0.00000000000E+00  0.00000000000E+00  0.18805524076E+03  0.18805524076E+03  0.00000000000E+00 0.  1.
         -1   -1    0    0    0  501 -0.00000000000E+00 -0.00000000000E+00 -0.10042183180E+03  0.10042183180E+03  0.00000000000E+00 0.  1.
         35    2    1    2    0    0  0.00000000000E+00  0.00000000000E+00  0.87633408961E+02  0.28847707257E+03  0.27484433236E+03 0.  0.
         25    2    3    3    0    0 -0.96847907851E+01  0.38216604347E+02  0.86073517323E+02  0.15679002841E+03  0.12498063292E+03 0.  0.
         25    2    3    3    0    0  0.96847907851E+01 -0.38216604347E+02  0.15598916377E+01  0.13168704416E+03  0.12563733647E+03 0.  0.
          5    1    4    4  502    0  0.17694870131E+02  0.51941103342E+02  0.10634716342E+03  0.11976141204E+03  0.47000000000E+01 0.  1.
         -5    1    4    4    0  502 -0.27379660917E+02 -0.13724498995E+02 -0.20273646096E+02  0.37028616374E+02  0.47000000000E+01 0.  1.
          5    1    5    5  503    0  0.66177590893E+02 -0.63548123718E+01  0.48450442571E+00  0.66649695582E+02  0.47000000000E+01 0.  1.
         -5    1    5    5    0  503 -0.56492800108E+02 -0.31861791975E+02  0.10753872120E+01  0.65037348574E+02  0.47000000000E+01 0.  1.
<mgrwt>
<rscale>  0 0.27484433E+03</rscale>
<asrwt>0</asrwt>
<pdfrwt beam="1">  1        1 0.28931576E-01 0.27484433E+03</pdfrwt>
<pdfrwt beam="2">  1       -1 0.15449513E-01 0.27484433E+03</pdfrwt>
<totfact> 0.48301638E+03</totfact>
</mgrwt>
</event>
<event>
 9    1  0.7816570E-001  0.2698631E+03  0.7818608E-02  0.1101358E+00
          1   -1    0    0  501    0  0.00000000000E+00  0.00000000000E+00  0.11355159245E+04  0.11355159245E+04  0.00000000000E+00 0.  1.
         -1   -1    0    0    0  501 -0.00000000000E+00 -0.00000000000E+00 -0.16033704088E+02  0.16033704088E+02  0.00000000000E+00 0.  1.
         35    2    1    2    0    0  0.35527136788E-14  0.00000000000E+00  0.11194822204E+04  0.11515496286E+04  0.26986312324E+03 0.  0.
         25    2    3    3    0    0 -0.30758642444E+02  0.30664973667E+02  0.71830204225E+03  0.73037591203E+03  0.12491883075E+03 0.  0.
         25    2    3    3    0    0  0.30758642444E+02 -0.30664973667E+02  0.40118017816E+03  0.42117371655E+03  0.12064547018E+03 0.  0.
          5    1    4    4  502    0  0.14951145970E+02  0.50455553408E+02  0.13558863462E+03  0.14551861556E+03  0.47000000000E+01 0. -1.
         -5    1    4    4    0  502 -0.45709788414E+02 -0.19790579741E+02  0.58271340763E+03  0.58485729647E+03  0.47000000000E+01 0. -1.
          5    1    5    5  503    0 -0.13820430530E+02 -0.39576762986E+01 -0.14338413851E+01  0.15192544317E+02  0.47000000000E+01 0.  1.
         -5    1    5    5    0  503  0.44579072974E+02 -0.26707297369E+02  0.40261401954E+03  0.40598117224E+03  0.47000000000E+01 0.  1.
<mgrwt>
<rscale>  0 0.26986312E+03</rscale>
<asrwt>0</asrwt>
<pdfrwt beam="1">  1        1 0.17469469E+00 0.26986312E+03</pdfrwt>
<pdfrwt beam="2">  1       -1 0.24667246E-02 0.26986312E+03</pdfrwt>
<totfact> 0.64021546E+03</totfact>
</mgrwt>
</event>
<event>
 9    1  0.7816570E-001  0.2742436E+03  0.7818608E-02  0.1098875E+00
         -3   -1    0    0    0  501 -0.00000000000E+00  0.00000000000E+00  0.25267006160E+02  0.25267006160E+02  0.00000000000E+00 0.  1.
          3   -1    0    0  501    0  0.00000000000E+00 -0.00000000000E+00 -0.74414788723E+03  0.74414788723E+03  0.00000000000E+00 0.  1.
         35    2    1    2    0    0 -0.71054273576E-14  0.35527136788E-14 -0.71888088107E+03  0.76941489339E+03  0.27424360887E+03 0.  0.
         25    2    3    3    0    0 -0.53940638576E+02  0.16646512556E+02 -0.36589022527E+03  0.39070682256E+03  0.12485778061E+03 0.  0.
         25    2    3    3    0    0  0.53940638576E+02 -0.16646512556E+02 -0.35299065580E+03  0.37870807083E+03  0.12502280175E+03 0.  0.
          5    1    4    4  502    0 -0.34032630990E+02  0.64373529922E+02 -0.28796536256E+03  0.29706617337E+03  0.47000000000E+01 0.  1.
         -5    1    4    4    0  502 -0.19908007586E+02 -0.47727017367E+02 -0.77924862704E+02  0.93640649187E+02  0.47000000000E+01 0.  1.
          5    1    5    5  503    0  0.76929037310E+02 -0.96349113209E+01 -0.11097434453E+03  0.13545590958E+03  0.47000000000E+01 0.  1.
         -5    1    5    5    0  503 -0.22988398734E+02 -0.70116012351E+01 -0.24201631127E+03  0.24325216125E+03  0.47000000000E+01 0.  1.
<mgrwt>
<rscale>  0 0.27424361E+03</rscale>
<asrwt>0</asrwt>
<pdfrwt beam="1">  1        3 0.11448428E+00 0.27424361E+03</pdfrwt>
<pdfrwt beam="2">  1       -3 0.38872320E-02 0.27424361E+03</pdfrwt>
<totfact> 0.57059931E+02</totfact>
</mgrwt>
</event>
<event>
 9    1  0.7816570E-001  0.2603539E+03  0.7818608E-02  0.1106931E+00
          2   -1    0    0  501    0  0.00000000000E+00  0.00000000000E+00  0.13904381639E+03  0.13904381639E+03  0.00000000000E+00 0.  1.
         -2   -1    0    0    0  501 -0.00000000000E+00 -0.00000000000E+00 -0.12187552953E+03  0.12187552953E+03  0.00000000000E+00 0.  1.
         35    2    1    2    0    0  0.00000000000E+00  0.00000000000E+00  0.17168286859E+02  0.26091934591E+03  0.26035390336E+03 0.  0.
         25    2    3    3    0    0  0.15052642993E+02 -0.21317848014E+02  0.18316252109E+01  0.13153681270E+03  0.12890905919E+03 0.  0.
         25    2    3    3    0    0 -0.15052642993E+02  0.21317848014E+02  0.15336661649E+02  0.12938253321E+03  0.12579186780E+03 0.  0.
          5    1    4    4  502    0 -0.55867526131E+02  0.11354933173E+01 -0.68572900414E+01  0.56494090380E+02  0.47000000000E+01 0. -1.
         -5    1    4    4    0  502  0.70920169125E+02 -0.22453341331E+02  0.86889152523E+01  0.75042722325E+02  0.47000000000E+01 0. -1.
          5    1    5    5  503    0 -0.41641529407E+02  0.64783069479E+02  0.62004351228E+01  0.77404124297E+02  0.47000000000E+01 0. -1.
         -5    1    5    5    0  503  0.26588886414E+02 -0.43465221465E+02  0.91362265258E+01  0.51978408910E+02  0.47000000000E+01 0. -1.
<mgrwt>
<rscale>  0 0.26035390E+03</rscale>
<asrwt>0</asrwt>
<pdfrwt beam="1">  1        2 0.21391356E-01 0.26035390E+03</pdfrwt>
<pdfrwt beam="2">  1       -2 0.18750081E-01 0.26035390E+03</pdfrwt>
<totfact> 0.59708037E+03</totfact>
</mgrwt>
</event>
<event>
 9    1  0.7816570E-001  0.2805102E+03  0.7818608E-02  0.1095411E+00
         -1   -1    0    0    0  501 -0.00000000000E+00  0.00000000000E+00  0.58296853703E+01  0.58296853703E+01  0.00000000000E+00 0. -1.
          1   -1    0    0  501    0  0.00000000000E+00 -0.00000000000E+00 -0.33743673266E+04  0.33743673266E+04  0.00000000000E+00 0. -1.
         35    2    1    2    0    0  0.00000000000E+00  0.00000000000E+00 -0.33685376412E+04  0.33801970120E+04  0.28051024821E+03 0.  0.
         25    2    3    3    0    0  0.21837414350E+02  0.17488001555E+02 -0.98909663035E+03  0.99727593458E+03  0.12435611222E+03 0.  0.
         25    2    3    3    0    0 -0.21837414350E+02 -0.17488001555E+02 -0.23794410109E+04  0.23829210774E+04  0.12566078935E+03 0.  0.
          5    1    4    4  502    0  0.21743314845E+02 -0.40786058320E+02 -0.17432347047E+03  0.18040797281E+03  0.47000000000E+01 0.  1.
         -5    1    4    4    0  502  0.94099505062E-01  0.58274059876E+02 -0.81477315988E+03  0.81686796177E+03  0.47000000000E+01 0.  1.
          5    1    5    5  503    0  0.16255266610E+02 -0.34802057847E+02 -0.24274025519E+03  0.24580548898E+03  0.47000000000E+01 0.  1.
         -5    1    5    5    0  503 -0.38092680960E+02  0.17314056291E+02 -0.21367007557E+04  0.21371155884E+04  0.47000000000E+01 0.  1.
<mgrwt>
<rscale>  0 0.28051025E+03</rscale>
<asrwt>0</asrwt>
<pdfrwt beam="1">  1        1 0.51913274E+00 0.28051025E+03</pdfrwt>
<pdfrwt beam="2">  1       -1 0.89687588E-03 0.28051025E+03</pdfrwt>
<totfact> 0.85680776E+02</totfact>
</mgrwt>
</event>
<event>
 9    1  0.7816570E-001  0.2815627E+03  0.7818608E-02  0.1094838E+00
          1   -1    0    0  501    0  0.00000000000E+00  0.00000000000E+00  0.17652606989E+04  0.17652606989E+04  0.00000000000E+00 0. -1.
         -1   -1    0    0    0  501 -0.00000000000E+00 -0.00000000000E+00 -0.11227458218E+02  0.11227458218E+02  0.00000000000E+00 0. -1.
         35    2    1    2    0    0 -0.17763568394E-14  0.14210854715E-13  0.17540332407E+04  0.17764881571E+04  0.28156271586E+03 0.  0.
         25    2    3    3    0    0  0.30306273104E+01 -0.61008638437E+02  0.10001304730E+04  0.10099311621E+04  0.12636752162E+03 0.  0.
         25    2    3    3    0    0 -0.30306273104E+01  0.61008638437E+02  0.75390276766E+03  0.76655699499E+03  0.12453515489E+03 0.  0.
          5    1    4    4  502    0 -0.19566448097E+02 -0.24109763853E+02  0.51616626398E+02  0.60419307550E+02  0.47000000000E+01 0. -1.
         -5    1    4    4    0  502  0.22597075407E+02 -0.36898874584E+02  0.94851384659E+03  0.94951185455E+03  0.47000000000E+01 0. -1.
          5    1    5    5  503    0  0.19972129935E+01  0.42972645791E+02  0.74324899274E+03  0.74450775171E+03  0.47000000000E+01 0. -1.
         -5    1    5    5    0  503 -0.50278403039E+01  0.18035992646E+02  0.10653774922E+02  0.22049243273E+02  0.47000000000E+01 0. -1.
<mgrwt>
<rscale>  0 0.28156272E+03</rscale>
<asrwt>0</asrwt>
<pdfrwt beam="1">  1        1 0.27157835E+00 0.28156272E+03</pdfrwt>
<pdfrwt beam="2">  1       -1 0.17273027E-02 0.28156272E+03</pdfrwt>
<totfact> 0.40727576E+03</totfact>
</mgrwt>
</event>
<event>
 9    1  0.7816570E-001  0.2822311E+03  0.7818608E-02  0.1094477E+00
          2   -1    0    0  501    0  0.00000000000E+00  0.00000000000E+00  0.21425759182E+04  0.21425759182E+04  0.00000000000E+00 0.  1.
         -2   -1    0    0    0  501 -0.00000000000E+00 -0.00000000000E+00 -0.92942305267E+01  0.92942305267E+01  0.00000000000E+00 0.  1.
         35    2    1    2    0    0 -0.71054273576E-14  0.00000000000E+00  0.21332816877E+04  0.21518701487E+04  0.28223107203E+03 0.  0.
         25    2    3    3    0    0 -0.27106478506E+02  0.59805822395E+02  0.10850164987E+04  0.10941596226E+04  0.12495190975E+03 0.  0.
         25    2    3    3    0    0  0.27106478506E+02 -0.59805822395E+02  0.10482651890E+04  0.10577105261E+04  0.12482048331E+03 0.  0.
          5    1    4    4  502    0 -0.67497759976E+02  0.59702190857E+02  0.91086419451E+03  0.91532287748E+03  0.47000000000E+01 0. -1.
         -5    1    4    4    0  502  0.40391281469E+02  0.10363153814E+00  0.17415230420E+03  0.17883674515E+03  0.47000000000E+01 0. -1.
          5    1    5    5  503    0 -0.16936195903E+02 -0.13529293806E+02  0.29373525964E+02  0.36807207856E+02  0.47000000000E+01 0. -1.
         -5    1    5    5    0  503  0.44042674409E+02 -0.46276528589E+02  0.10188916630E+04  0.10209033182E+04  0.47000000000E+01 0. -1.
<mgrwt>
<rscale>  0 0.28223107E+03</rscale>
<asrwt>0</asrwt>
<pdfrwt beam="1">  1        2 0.32962667E+00 0.28223107E+03</pdfrwt>
<pdfrwt beam="2">  1       -2 0.14298833E-02 0.28223107E+03</pdfrwt>
<totfact> 0.79063103E+03</totfact>
</mgrwt>
</event>
<event>
 9    1  0.7816570E-001  0.3045094E+03  0.7818608E-02  0.1083008E+00
         -1   -1    0    0    0  501 -0.00000000000E+00  0.00000000000E+00  0.13548682886E+03  0.13548682886E+03  0.00000000000E+00 0.  1.
          1   -1    0    0  501    0  0.00000000000E+00 -0.00000000000E+00 -0.17109772079E+03  0.17109772079E+03  0.00000000000E+00 0.  1.
         35    2    1    2    0    0  0.00000000000E+00  0.71054273576E-14 -0.35610891930E+02  0.30658454966E+03  0.30450936023E+03 0.  0.
         25    2    3    3    0    0 -0.65066666352E+02 -0.55515429461E+02 -0.34914446950E+02  0.15540029753E+03  0.12495839263E+03 0.  0.
         25    2    3    3    0    0  0.65066666352E+02  0.55515429461E+02 -0.69644497976E+00  0.15118425213E+03  0.12466177874E+03 0.  0.
          5    1    4    4  502    0  0.12804822285E+02 -0.44693721450E+02  0.28106244641E+02  0.54530204462E+02  0.47000000000E+01 0. -1.
         -5    1    4    4    0  502 -0.77871488638E+02 -0.10821708011E+02 -0.63020691591E+02  0.10087009307E+03  0.47000000000E+01 0. -1.
          5    1    5    5  503    0  0.49373829718E+02  0.56046058178E+02 -0.56019898925E+02  0.93483981376E+02  0.47000000000E+01 0. -1.
         -5    1    5    5    0  503  0.15692836634E+02 -0.53062871722E+00  0.55323453946E+02  0.57700270753E+02  0.47000000000E+01 0. -1.
<mgrwt>
<rscale>  0 0.30450936E+03</rscale>
<asrwt>0</asrwt>
<pdfrwt beam="1">  1        1 0.26322726E-01 0.30450936E+03</pdfrwt>
<pdfrwt beam="2">  1       -1 0.20844127E-01 0.30450936E+03</pdfrwt>
<totfact> 0.33687258E+03</totfact>
</mgrwt>
</event>
<event>
 9    1  0.7816570E-001  0.2754823E+03  0.7818608E-02  0.1098182E+00
          2   -1    0    0  501    0  0.00000000000E+00  0.00000000000E+00  0.11657490568E+03  0.11657490568E+03  0.00000000000E+00 0.  1.
         -2   -1    0    0    0  501 -0.00000000000E+00 -0.00000000000E+00 -0.16275051108E+03  0.16275051108E+03  0.00000000000E+00 0.  1.
         35    2    1    2    0    0  0.00000000000E+00  0.00000000000E+00 -0.46175605402E+02  0.27932541675E+03  0.27548230780E+03 0.  0.
         25    2    3    3    0    0  0.17506446052E+02 -0.24881106502E+01  0.30531919316E+02  0.13164199205E+03  0.12682566628E+03 0.  0.
         25    2    3    3    0    0 -0.17506446052E+02  0.24881106502E+01 -0.76707524719E+02  0.14768342470E+03  0.12495472474E+03 0.  0.
          5    1    4    4  502    0  0.21031518192E+02 -0.51626249545E+02  0.53207944027E+02  0.77206021185E+02  0.47000000000E+01 0. -1.
         -5    1    4    4    0  502 -0.35250721400E+01  0.49138138895E+02 -0.22676024711E+02  0.54435970868E+02  0.47000000000E+01 0. -1.
          5    1    5    5  503    0  0.72155251208E+01  0.37039752468E+02 -0.94132711300E+02  0.10152371350E+03  0.47000000000E+01 0. -1.
         -5    1    5    5    0  503 -0.24721971173E+02 -0.34551641818E+02  0.17425186582E+02  0.46159711204E+02  0.47000000000E+01 0. -1.
<mgrwt>
<rscale>  0 0.27548231E+03</rscale>
<asrwt>0</asrwt>
<pdfrwt beam="1">  1        2 0.17934601E-01 0.27548231E+03</pdfrwt>
<pdfrwt beam="2">  1       -2 0.25038540E-01 0.27548231E+03</pdfrwt>
<totfact> 0.44423891E+03</totfact>
</mgrwt>
</event>
<event>
 9    1  0.7816570E-001  0.2758406E+03  0.7818608E-02  0.1097983E+00
         -1   -1    0    0    0  501 -0.00000000000E+00  0.00000000000E+00  0.17957917161E+03  0.17957917161E+03  0.00000000000E+00 0.  1.
          1   -1    0    0  501    0  0.00000000000E+00 -0.00000000000E+00 -0.10592545551E+03  0.10592545551E+03  0.00000000000E+00 0.  1.
         35    2    1    2    0    0  0.17763568394E-14  0.71054273576E-14  0.73653716100E+02  0.28550462712E+03  0.27584057391E+03 0.  0.
         25    2    3    3    0    0 -0.15493241354E+02 -0.41772885350E+02  0.69037753947E+02  0.14977899212E+03  0.12522987077E+03 0.  0.
         25    2    3    3    0    0  0.15493241354E+02  0.41772885350E+02  0.46159621526E+01  0.13572563500E+03  0.12812152985E+03 0.  0.
          5    1    4    4  502    0  0.35890908819E+02  0.46502690576E+00  0.74545262566E+02  0.82870137908E+02  0.47000000000E+01 0. -1.
         -5    1    4    4    0  502 -0.51384150172E+02 -0.42237912256E+02 -0.55075086183E+01  0.66908854211E+02  0.47000000000E+01 0. -1.
          5    1    5    5  503    0 -0.12270015305E+02 -0.18063506643E+00  0.59611698036E+02  0.61042857464E+02  0.47000000000E+01 0.  1.
         -5    1    5    5    0  503  0.27763256659E+02  0.41953520417E+02 -0.54995735883E+02  0.74682777539E+02  0.47000000000E+01 0.  1.
<mgrwt>
<rscale>  0 0.27584057E+03</rscale>
<asrwt>0</asrwt>
<pdfrwt beam="1">  1        1 0.16296224E-01 0.27584057E+03</pdfrwt>
<pdfrwt beam="2">  1       -1 0.27627565E-01 0.27584057E+03</pdfrwt>
<totfact> 0.39063398E+03</totfact>
</mgrwt>
</event>
<event>
 9    1  0.7816570E-001  0.2752315E+03  0.7818608E-02  0.1098322E+00
          2   -1    0    0  501    0  0.00000000000E+00  0.00000000000E+00  0.31924951008E+02  0.31924951008E+02  0.00000000000E+00 0.  1.
         -2   -1    0    0    0  501 -0.00000000000E+00 -0.00000000000E+00 -0.59320652308E+03  0.59320652308E+03  0.00000000000E+00 0.  1.
         35    2    1    2    0    0  0.71054273576E-14  0.71054273576E-14 -0.56128157207E+03  0.62513147409E+03  0.27523146032E+03 0.  0.
         25    2    3    3    0    0 -0.13134281091E+02  0.20503316071E+02 -0.39513294292E+03  0.41531372672E+03  0.12554900923E+03 0.  0.
         25    2    3    3    0    0  0.13134281091E+02 -0.20503316071E+02 -0.16614862916E+03  0.20981774736E+03  0.12579834986E+03 0.  0.
          5    1    4    4  502    0  0.11608312115E+02 -0.49738753006E+02 -0.12632530010E+03  0.13634099862E+03  0.47000000000E+01 0.  1.
         -5    1    4    4    0  502 -0.24742593206E+02  0.70242069078E+02 -0.26880764282E+03  0.27897272810E+03  0.47000000000E+01 0.  1.
          5    1    5    5  503    0 -0.50305666206E+02  0.18161882920E+02 -0.69294327834E+02  0.87660184312E+02  0.47000000000E+01 0.  1.
         -5    1    5    5    0  503  0.63439947297E+02 -0.38665198992E+02 -0.96854301323E+02  0.12215756305E+03  0.47000000000E+01 0.  1.
<mgrwt>
<rscale>  0 0.27523146E+03</rscale>
<asrwt>0</asrwt>
<pdfrwt beam="1">  1        2 0.49115311E-02 0.27523146E+03</pdfrwt>
<pdfrwt beam="2">  1       -2 0.91262539E-01 0.27523146E+03</pdfrwt>
<totfact> 0.17028868E+03</totfact>
</mgrwt>
</event>
<event>
 9    1  0.7816570E-001  0.2706300E+03  0.7818608E-02  0.1100920E+00
          2   -1    0    0  501    0  0.00000000000E+00  0.00000000000E+00  0.63368626823E+03  0.63368626823E+03  0.00000000000E+00 0. -1.
         -2   -1    0    0    0  501 -0.00000000000E+00 -0.00000000000E+00 -0.28894657155E+02  0.28894657155E+02  0.00000000000E+00 0. -1.
         35    2    1    2    0    0 -0.71054273576E-14 -0.71054273576E-14  0.60479161107E+03  0.66258092538E+03  0.27062998699E+03 0.  0.
         25    2    3    3    0    0 -0.27044496322E+02  0.18039735571E+02  0.21958306292E+03  0.25589876943E+03  0.12732094028E+03 0.  0.
         25    2    3    3    0    0  0.27044496322E+02 -0.18039735571E+02  0.38520854815E+03  0.40668215595E+03  0.12628504884E+03 0.  0.
          5    1    4    4  502    0  0.31267903691E+01 -0.25062304268E+02 -0.41425075080E+01  0.26022034541E+02  0.47000000000E+01 0. -1.
         -5    1    4    4    0  502 -0.30171286692E+02  0.43102039839E+02  0.22372557043E+03  0.22987673489E+03  0.47000000000E+01 0. -1.
          5    1    5    5  503    0 -0.11168334378E+02  0.46004998843E+02  0.85981573540E+02  0.98265520910E+02  0.47000000000E+01 0. -1.
         -5    1    5    5    0  503  0.38212830700E+02 -0.64044734413E+02  0.29922697461E+03  0.30841663504E+03  0.47000000000E+01 0. -1.
<mgrwt>
<rscale>  0 0.27062999E+03</rscale>
<asrwt>0</asrwt>
<pdfrwt beam="1">  1        2 0.97490184E-01 0.27062999E+03</pdfrwt>
<pdfrwt beam="2">  1       -2 0.44453324E-02 0.27062999E+03</pdfrwt>
<totfact> 0.11018893E+04</totfact>
</mgrwt>
</event>
<event>
 9    1  0.7816570E-001  0.2687541E+03  0.7818608E-02  0.1101995E+00
          2   -1    0    0  501    0  0.00000000000E+00  0.00000000000E+00  0.13518791660E+04  0.13518791660E+04  0.00000000000E+00 0. -1.
         -2   -1    0    0    0  501 -0.00000000000E+00 -0.00000000000E+00 -0.13357102500E+02  0.13357102500E+02  0.00000000000E+00 0. -1.
         35    2    1    2    0    0 -0.71054273576E-14  0.71054273576E-14  0.13385220635E+04  0.13652362685E+04  0.26875407784E+03 0.  0.
         25    2    3    3    0    0 -0.42866979279E+02  0.23279315459E+02  0.70823868007E+03  0.72083430536E+03  0.12498225233E+03 0.  0.
         25    2    3    3    0    0  0.42866979279E+02 -0.23279315459E+02  0.63028338345E+03  0.64440196316E+03  0.12496896506E+03 0.  0.
          5    1    4    4  502    0 -0.86702847311E+02  0.95439997818E+01  0.49559705638E+03  0.50323652883E+03  0.47000000000E+01 0. -1.
         -5    1    4    4    0  502  0.43835868032E+02  0.13735315677E+02  0.21264162370E+03  0.21759777653E+03  0.47000000000E+01 0. -1.
          5    1    5    5  503    0 -0.23130363256E+02 -0.45931960605E+02  0.41112622338E+03  0.41435687548E+03  0.47000000000E+01 0. -1.
         -5    1    5    5    0  503  0.65997342535E+02  0.22652645146E+02  0.21915716007E+03  0.23004508767E+03  0.47000000000E+01 0. -1.
<mgrwt>
<rscale>  0 0.26875408E+03</rscale>
<asrwt>0</asrwt>
<pdfrwt beam="1">  1        2 0.20798130E+00 0.26875408E+03</pdfrwt>
<pdfrwt beam="2">  1       -2 0.20549399E-02 0.26875408E+03</pdfrwt>
<totfact> 0.12182692E+04</totfact>
</mgrwt>
</event>
<event>
 9    1  0.7816570E-001  0.2750612E+03  0.7818608E-02  0.1098417E+00
          1   -1    0    0  501    0  0.00000000000E+00  0.00000000000E+00  0.32078516647E+03  0.32078516647E+03  0.00000000000E+00 0.  1.
         -1   -1    0    0    0  501 -0.00000000000E+00 -0.00000000000E+00 -0.58963665451E+02  0.58963665451E+02  0.00000000000E+00 0.  1.
         35    2    1    2    0    0  0.00000000000E+00  0.71054273576E-14  0.26182150102E+03  0.37974883192E+03  0.27506122400E+03 0.  0.
         25    2    3    3    0    0 -0.48255178798E+02  0.23243240802E+01  0.18394434316E+03  0.22870621320E+03  0.12703167248E+03 0.  0.
         25    2    3    3    0    0  0.48255178798E+02 -0.23243240802E+01  0.77877157856E+02  0.15104261872E+03  0.12006271774E+03 0.  0.
          5    1    4    4  502    0 -0.91341308293E+01 -0.43403940463E+02  0.11585398974E+02  0.46083032269E+02  0.47000000000E+01 0.  1.
         -5    1    4    4    0  502 -0.39121047969E+02  0.45728264543E+02  0.17235894419E+03  0.18262318093E+03  0.47000000000E+01 0.  1.
          5    1    5    5  503    0 -0.11345530708E+02 -0.40035050936E+02 -0.49341292901E+01  0.42165886713E+02  0.47000000000E+01 0.  1.
         -5    1    5    5    0  503  0.59600709505E+02  0.37710726855E+02  0.82811287146E+02  0.10887673201E+03  0.47000000000E+01 0.  1.
<mgrwt>
<rscale>  0 0.27506122E+03</rscale>
<asrwt>0</asrwt>
<pdfrwt beam="1">  1        1 0.49351563E-01 0.27506122E+03</pdfrwt>
<pdfrwt beam="2">  1       -1 0.90713333E-02 0.27506122E+03</pdfrwt>
<totfact> 0.56688465E+03</totfact>
</mgrwt>
</event>
<event>
 9    1  0.7816570E-001  0.2759362E+03  0.7818608E-02  0.1097929E+00
          2   -1    0    0  501    0  0.00000000000E+00  0.00000000000E+00  0.19318055702E+03  0.19318055702E+03  0.00000000000E+00 0.  1.
         -2   -1    0    0    0  501 -0.00000000000E+00 -0.00000000000E+00 -0.98535766346E+02  0.98535766346E+02  0.00000000000E+00 0.  1.
         35    2    1    2    0    0  0.71054273576E-14  0.00000000000E+00  0.94644790675E+02  0.29171632337E+03  0.27593618269E+03 0.  0.
         25    2    3    3    0    0  0.52594424294E+02  0.17990659908E+02  0.24771223614E+02  0.13873649332E+03  0.12467703777E+03 0.  0.
         25    2    3    3    0    0 -0.52594424294E+02 -0.17990659908E+02  0.69873567061E+02  0.15297983005E+03  0.12422027096E+03 0.  0.
          5    1    4    4  502    0  0.82961273169E+02  0.41976848056E+02  0.10431746693E+01  0.93101057094E+02  0.47000000000E+01 0. -1.
         -5    1    4    4    0  502 -0.30366848875E+02 -0.23986188149E+02  0.23728048945E+02  0.45635436222E+02  0.47000000000E+01 0. -1.
          5    1    5    5  503    0 -0.19712399025E+02 -0.41020832018E+02 -0.23352746265E+02  0.51368551594E+02  0.47000000000E+01 0. -1.
         -5    1    5    5    0  503 -0.32882025270E+02  0.23030172110E+02  0.93226313326E+02  0.10161127846E+03  0.47000000000E+01 0. -1.
<mgrwt>
<rscale>  0 0.27593618E+03</rscale>
<asrwt>0</asrwt>
<pdfrwt beam="1">  1        2 0.29720086E-01 0.27593618E+03</pdfrwt>
<pdfrwt beam="2">  1       -2 0.15159349E-01 0.27593618E+03</pdfrwt>
<totfact> 0.59169808E+03</totfact>
</mgrwt>
</event>
<event>
 9    1  0.7816570E-001  0.2778546E+03  0.7818608E-02  0.1096867E+00
          2   -1    0    0  501    0  0.00000000000E+00  0.00000000000E+00  0.24278117589E+04  0.24278117589E+04  0.00000000000E+00 0.  1.
         -2   -1    0    0    0  501 -0.00000000000E+00 -0.00000000000E+00 -0.79498724198E+01  0.79498724198E+01  0.00000000000E+00 0.  1.
         35    2    1    2    0    0  0.71054273576E-14  0.71054273576E-14  0.24198618864E+04  0.24357616313E+04  0.27785459321E+03 0.  0.
         25    2    3    3    0    0 -0.33285368254E+02 -0.48382308522E+02  0.13381098229E+04  0.13451555723E+04  0.12432558868E+03 0.  0.
         25    2    3    3    0    0  0.33285368254E+02  0.48382308522E+02  0.10817520635E+04  0.10906060590E+04  0.12563950579E+03 0.  0.
          5    1    4    4  502    0 -0.26339308850E+02 -0.89913210468E+02  0.83077537840E+03  0.83605500056E+03  0.47000000000E+01 0.  1.
         -5    1    4    4    0  502 -0.69460594041E+01  0.41530901947E+02  0.50733444451E+03  0.50910057173E+03  0.47000000000E+01 0.  1.
          5    1    5    5  503    0  0.44716809798E+02 -0.55968210793E+01  0.13836072887E+03  0.14559086090E+03  0.47000000000E+01 0.  1.
         -5    1    5    5    0  503 -0.11431441544E+02  0.53979129601E+02  0.94339133465E+03  0.94501519807E+03  0.47000000000E+01 0.  1.
<mgrwt>
<rscale>  0 0.27785459E+03</rscale>
<asrwt>0</asrwt>
<pdfrwt beam="1">  1        2 0.37350891E+00 0.27785459E+03</pdfrwt>
<pdfrwt beam="2">  1       -2 0.12230592E-02 0.27785459E+03</pdfrwt>
<totfact> 0.69832943E+03</totfact>
</mgrwt>
</event>
<event>
 9    1  0.7816570E-001  0.2709419E+03  0.7818608E-02  0.1100742E+00
         -1   -1    0    0    0  501 -0.00000000000E+00  0.00000000000E+00  0.26582756798E+02  0.26582756798E+02  0.00000000000E+00 0. -1.
          1   -1    0    0  501    0  0.00000000000E+00 -0.00000000000E+00 -0.69038677991E+03  0.69038677991E+03  0.00000000000E+00 0. -1.
         35    2    1    2    0    0  0.00000000000E+00  0.35527136788E-14 -0.66380402311E+03  0.71696953671E+03  0.27094194114E+03 0.  0.
         25    2    3    3    0    0  0.41181966850E+02 -0.29770819698E+02 -0.31787263832E+03  0.34538673175E+03  0.12516678543E+03 0.  0.
         25    2    3    3    0    0 -0.41181966850E+02  0.29770819698E+02 -0.34593138480E+03  0.37158280497E+03  0.12578951411E+03 0.  0.
          5    1    4    4  502    0 -0.35221873054E+02  0.11038840500E+02 -0.16932376546E+03  0.17336396364E+03  0.47000000000E+01 0. -1.
         -5    1    4    4    0  502  0.76403839905E+02 -0.40809660198E+02 -0.14854887286E+03  0.17202276810E+03  0.47000000000E+01 0. -1.
          5    1    5    5  503    0 -0.56286877990E+02 -0.14369646478E+02 -0.67278173822E+02  0.89012033156E+02  0.47000000000E+01 0.  1.
         -5    1    5    5    0  503  0.15104911139E+02  0.44140466176E+02 -0.27865321098E+03  0.28257077181E+03  0.47000000000E+01 0.  1.
<mgrwt>
<rscale>  0 0.27094194E+03</rscale>
<asrwt>0</asrwt>
<pdfrwt beam="1">  1        1 0.10621334E+00 0.27094194E+03</pdfrwt>
<pdfrwt beam="2">  1       -1 0.40896553E-02 0.27094194E+03</pdfrwt>
<totfact> 0.68208092E+03</totfact>
</mgrwt>
</event>
<event>
 9    1  0.7816570E-001  0.2728907E+03  0.7818608E-02  0.1099636E+00
          2   -1    0    0  501    0  0.00000000000E+00  0.00000000000E+00  0.21355249080E+03  0.21355249080E+03  0.00000000000E+00 0. -1.
         -2   -1    0    0    0  501 -0.00000000000E+00 -0.00000000000E+00 -0.87179202697E+02  0.87179202697E+02  0.00000000000E+00 0. -1.
         35    2    1    2    0    0  0.71054273576E-14  0.53290705182E-14  0.12637328811E+03  0.30073169350E+03  0.27289071719E+03 0.  0.
         25    2    3    3    0    0  0.54197133277E+02  0.77863970124E+01  0.65767087590E+02  0.15114256137E+03  0.12458253013E+03 0.  0.
         25    2    3    3    0    0 -0.54197133277E+02 -0.77863970124E+01  0.60606200516E+02  0.14958913213E+03  0.12532294154E+03 0.  0.
          5    1    4    4  502    0  0.15365604545E+02  0.16033015067E+02  0.97497676999E+02  0.10010517667E+03  0.47000000000E+01 0. -1.
         -5    1    4    4    0  502  0.38831528732E+02 -0.82466180542E+01 -0.31730589409E+02  0.51037384702E+02  0.47000000000E+01 0. -1.
          5    1    5    5  503    0 -0.71421114018E+01 -0.38420127723E+02  0.80685441416E+02  0.89773862710E+02  0.47000000000E+01 0.  1.
         -5    1    5    5    0  503 -0.47055021875E+02  0.30633730711E+02 -0.20079240899E+02  0.59815269422E+02  0.47000000000E+01 0.  1.
<mgrwt>
<rscale>  0 0.27289072E+03</rscale>
<asrwt>0</asrwt>
<pdfrwt beam="1">  1        2 0.32854229E-01 0.27289072E+03</pdfrwt>
<pdfrwt beam="2">  1       -2 0.13412185E-01 0.27289072E+03</pdfrwt>
<totfact> 0.64815094E+03</totfact>
</mgrwt>
</event>
<event>
 9    1  0.7816570E-001  0.2780331E+03  0.7818608E-02  0.1096768E+00
         -1   -1    0    0    0  501 -0.00000000000E+00  0.00000000000E+00  0.29789861068E+02  0.29789861068E+02  0.00000000000E+00 0. -1.
          1   -1    0    0  501    0  0.00000000000E+00 -0.00000000000E+00 -0.64873099744E+03  0.64873099744E+03  0.00000000000E+00 0. -1.
         35    2    1    2    0    0  0.00000000000E+00 -0.71054273576E-14 -0.61894113637E+03  0.67852085851E+03  0.27803313676E+03 0.  0.
         25    2    3    3    0    0 -0.42226963949E+02  0.24652762037E+02 -0.40188714465E+03  0.42354166737E+03  0.12443227799E+03 0.  0.
         25    2    3    3    0    0  0.42226963949E+02 -0.24652762037E+02 -0.21705399173E+03  0.25497919114E+03  0.12454347606E+03 0.  0.
          5    1    4    4  502    0 -0.62058178899E+02 -0.14882927006E+02 -0.34720969026E+03  0.35305718814E+03  0.47000000000E+01 0. -1.
         -5    1    4    4    0  502  0.19831214950E+02  0.39535689043E+02 -0.54677454383E+02  0.70484479230E+02  0.47000000000E+01 0. -1.
          5    1    5    5  503    0  0.40092675005E+01 -0.42019698770E+02 -0.99632743020E+01  0.43624375588E+02  0.47000000000E+01 0. -1.
         -5    1    5    5    0  503  0.38217696448E+02  0.17366936733E+02 -0.20709071742E+03  0.21135481555E+03  0.47000000000E+01 0. -1.
<mgrwt>
<rscale>  0 0.27803314E+03</rscale>
<asrwt>0</asrwt>
<pdfrwt beam="1">  1        1 0.99804765E-01 0.27803314E+03</pdfrwt>
<pdfrwt beam="2">  1       -1 0.45830557E-02 0.27803314E+03</pdfrwt>
<totfact> 0.62985606E+03</totfact>
</mgrwt>
</event>
<event>
 9    1  0.7816570E-001  0.2761925E+03  0.7818608E-02  0.1097787E+00
          1   -1    0    0  501    0  0.00000000000E+00  0.00000000000E+00  0.29844823546E+03  0.29844823546E+03  0.00000000000E+00 0. -1.
         -1   -1    0    0    0  501 -0.00000000000E+00 -0.00000000000E+00 -0.63899119554E+02  0.63899119554E+02  0.00000000000E+00 0. -1.
         35    2    1    2    0    0  0.00000000000E+00  0.71054273576E-14  0.23454911590E+03  0.36234735501E+03  0.27619253776E+03 0.  0.
         25    2    3    3    0    0  0.34288644038E+02  0.21469959729E+02  0.17261278775E+03  0.21715681016E+03  0.12540030074E+03 0.  0.
         25    2    3    3    0    0 -0.34288644038E+02 -0.21469959729E+02  0.61936328160E+02  0.14519054485E+03  0.12493004157E+03 0.  0.
          5    1    4    4  502    0 -0.29378850555E+02  0.48858122669E+02  0.48819124837E+02  0.75203922508E+02  0.47000000000E+01 0. -1.
         -5    1    4    4    0  502  0.63667494593E+02 -0.27388162940E+02  0.12379366291E+03  0.14195288765E+03  0.47000000000E+01 0. -1.
          5    1    5    5  503    0  0.22392479883E+02 -0.51707806619E+02  0.57468773585E+02  0.80621773473E+02  0.47000000000E+01 0.  1.
         -5    1    5    5    0  503 -0.56681123921E+02  0.30237846890E+02  0.44675545749E+01  0.64568771379E+02  0.47000000000E+01 0.  1.
<mgrwt>
<rscale>  0 0.27619254E+03</rscale>
<asrwt>0</asrwt>
<pdfrwt beam="1">  1        1 0.45915113E-01 0.27619254E+03</pdfrwt>
<pdfrwt beam="2">  1       -1 0.98306339E-02 0.27619254E+03</pdfrwt>
<totfact> 0.54857875E+03</totfact>
</mgrwt>
</event>
<event>
 9    1  0.7816570E-001  0.2737337E+03  0.7818608E-02  0.1099162E+00
         -3   -1    0    0    0  501 -0.00000000000E+00  0.00000000000E+00  0.55799376451E+03  0.55799376451E+03  0.00000000000E+00 0. -1.
          3   -1    0    0  501    0  0.00000000000E+00 -0.00000000000E+00 -0.33571234440E+02  0.33571234440E+02  0.00000000000E+00 0. -1.
         35    2    1    2    0    0 -0.35527136788E-14  0.00000000000E+00  0.52442253007E+03  0.59156499895E+03  0.27373373548E+03 0.  0.
         25    2    3    3    0    0 -0.11223228759E+01 -0.51017110890E+02  0.20553547906E+03  0.24599902056E+03  0.12516660797E+03 0.  0.
         25    2    3    3    0    0  0.11223228759E+01  0.51017110890E+02  0.31888705101E+03  0.34556597839E+03  0.12297515566E+03 0.  0.
          5    1    4    4  502    0 -0.37638079159E+02  0.80553275300E+01  0.15553428811E+03  0.16029509688E+03  0.47000000000E+01 0.  1.
         -5    1    4    4    0  502  0.36515756283E+02 -0.59072438420E+02  0.50001190947E+02  0.85703923679E+02  0.47000000000E+01 0.  1.
          5    1    5    5  503    0 -0.23002981071E+02 -0.34072363887E+02  0.69100760524E+02  0.80542338084E+02  0.47000000000E+01 0.  1.
         -5    1    5    5    0  503  0.24125303947E+02  0.85089474777E+02  0.24978629049E+03  0.26502364031E+03  0.47000000000E+01 0.  1.
<mgrwt>
<rscale>  0 0.27373374E+03</rscale>
<asrwt>0</asrwt>
<pdfrwt beam="1">  1        3 0.51648057E-02 0.27373374E+03</pdfrwt>
<pdfrwt beam="2">  1       -3 0.85845187E-01 0.27373374E+03</pdfrwt>
<totfact> 0.70123486E+02</totfact>
</mgrwt>
</event>
<event>
 9    1  0.7816570E-001  0.2716671E+03  0.7818608E-02  0.1100329E+00
          2   -1    0    0  501    0  0.00000000000E+00  0.00000000000E+00  0.14348231585E+03  0.14348231585E+03  0.00000000000E+00 0.  1.
         -2   -1    0    0    0  501 -0.00000000000E+00 -0.00000000000E+00 -0.12859255171E+03  0.12859255171E+03  0.00000000000E+00 0.  1.
         35    2    1    2    0    0  0.00000000000E+00  0.35527136788E-14  0.14889764147E+02  0.27207486756E+03  0.27166712808E+03 0.  0.
         25    2    3    3    0    0 -0.47334642392E+02  0.23009534170E+02  0.25035688385E+01  0.13558136353E+03  0.12492410195E+03 0.  0.
         25    2    3    3    0    0  0.47334642392E+02 -0.23009534170E+02  0.12386195308E+02  0.13649350403E+03  0.12532777734E+03 0.  0.
          5    1    4    4  502    0 -0.61488813804E+02  0.17471382893E+02  0.52665498604E+02  0.82957026143E+02  0.47000000000E+01 0. -1.
         -5    1    4    4    0  502  0.14154171412E+02  0.55381512769E+01 -0.50161929765E+02  0.52624337390E+02  0.47000000000E+01 0. -1.
          5    1    5    5  503    0  0.40339064370E+02 -0.65445944456E+02 -0.23235127163E+02  0.80451059000E+02  0.47000000000E+01 0. -1.
         -5    1    5    5    0  503  0.69955780223E+01  0.42436410286E+02  0.35621322471E+02  0.56042445025E+02  0.47000000000E+01 0. -1.
<mgrwt>
<rscale>  0 0.27166713E+03</rscale>
<asrwt>0</asrwt>
<pdfrwt beam="1">  1        2 0.22074202E-01 0.27166713E+03</pdfrwt>
<pdfrwt beam="2">  1       -2 0.19783470E-01 0.27166713E+03</pdfrwt>
<totfact> 0.52676625E+03</totfact>
</mgrwt>
</event>
<event>
 9    1  0.7816570E-001  0.2710038E+03  0.7818608E-02  0.1100706E+00
          2   -1    0    0  501    0  0.00000000000E+00  0.00000000000E+00  0.66843613579E+03  0.66843613579E+03  0.00000000000E+00 0.  1.
         -2   -1    0    0    0  501 -0.00000000000E+00 -0.00000000000E+00 -0.27468243184E+02  0.27468243184E+02  0.00000000000E+00 0.  1.
         35    2    1    2    0    0 -0.71054273576E-14 -0.71054273576E-14  0.64096789260E+03  0.69590437897E+03  0.27100381053E+03 0.  0.
         25    2    3    3    0    0 -0.26518719583E+02  0.26432303208E+02  0.45321558880E+03  0.47182828227E+03  0.12576028341E+03 0.  0.
         25    2    3    3    0    0  0.26518719583E+02 -0.26432303208E+02  0.18775230381E+03  0.22407609669E+03  0.11643564911E+03 0.  0.
          5    1    4    4  502    0  0.12228896676E+02  0.64668109248E+02  0.33713613492E+03  0.34353220189E+03  0.47000000000E+01 0.  1.
         -5    1    4    4    0  502 -0.38747616259E+02 -0.38235806041E+02  0.11607945388E+03  0.12829608039E+03  0.47000000000E+01 0.  1.
          5    1    5    5  503    0  0.38216018123E+02 -0.12130334438E+02  0.19824575359E+03  0.20231430467E+03  0.47000000000E+01 0. -1.
         -5    1    5    5    0  503 -0.11697298540E+02 -0.14301968770E+02 -0.10493449788E+02  0.21761792028E+02  0.47000000000E+01 0. -1.
<mgrwt>
<rscale>  0 0.27100381E+03</rscale>
<asrwt>0</asrwt>
<pdfrwt beam="1">  1        2 0.10283632E+00 0.27100381E+03</pdfrwt>
<pdfrwt beam="2">  1       -2 0.42258841E-02 0.27100381E+03</pdfrwt>
<totfact> 0.11164292E+04</totfact>
</mgrwt>
</event>
<event>
 9    1  0.7816570E-001  0.2752434E+03  0.7818608E-02  0.1098316E+00
          2   -1    0    0  501    0  0.00000000000E+00  0.00000000000E+00  0.16474560095E+04  0.16474560095E+04  0.00000000000E+00 0.  1.
         -2   -1    0    0    0  501 -0.00000000000E+00 -0.00000000000E+00 -0.11496350400E+02  0.11496350400E+02  0.00000000000E+00 0.  1.
         35    2    1    2    0    0 -0.71054273576E-14  0.35527136788E-14  0.16359596591E+04  0.16589523599E+04  0.27524339450E+03 0.  0.
         25    2    3    3    0    0  0.46181392916E+02 -0.29692482051E+02  0.85047179358E+03  0.86156505026E+03  0.12640292565E+03 0.  0.
         25    2    3    3    0    0 -0.46181392916E+02  0.29692482051E+02  0.78548786553E+03  0.79738730965E+03  0.12578143803E+03 0.  0.
          5    1    4    4  502    0 -0.35604790452E+02 -0.68588128542E+01  0.10351293083E+03  0.10978051406E+03  0.47000000000E+01 0.  1.
         -5    1    4    4    0  502  0.81786183368E+02 -0.22833669196E+02  0.74695886275E+03  0.75178453621E+03  0.47000000000E+01 0.  1.
          5    1    5    5  503    0 -0.34931940658E+02 -0.21445776015E+02  0.80641574190E+02  0.90583195323E+02  0.47000000000E+01 0.  1.
         -5    1    5    5    0  503 -0.11249452258E+02  0.51138258066E+02  0.70484629134E+03  0.70680411433E+03  0.47000000000E+01 0.  1.
<mgrwt>
<rscale>  0 0.27524339E+03</rscale>
<asrwt>0</asrwt>
<pdfrwt beam="1">  1        2 0.25345458E+00 0.27524339E+03</pdfrwt>
<pdfrwt beam="2">  1       -2 0.17686706E-02 0.27524339E+03</pdfrwt>
<totfact> 0.10550531E+04</totfact>
</mgrwt>
</event>
<event>
 9    1  0.7816570E-001  0.2702726E+03  0.7818608E-02  0.1101124E+00
         -2   -1    0    0    0  501 -0.00000000000E+00  0.00000000000E+00  0.95555621080E+02  0.95555621080E+02  0.00000000000E+00 0.  1.
          2   -1    0    0  501    0  0.00000000000E+00 -0.00000000000E+00 -0.19111195623E+03  0.19111195623E+03  0.00000000000E+00 0.  1.
         35    2    1    2    0    0 -0.71054273576E-14  0.00000000000E+00 -0.95556335151E+02  0.28666757731E+03  0.27027261551E+03 0.  0.
         25    2    3    3    0    0 -0.75048553543E+01  0.27496804676E+02 -0.31857127504E+01  0.12843253771E+03  0.12518934002E+03 0.  0.
         25    2    3    3    0    0  0.75048553543E+01 -0.27496804676E+02 -0.92370622400E+02  0.15823503960E+03  0.12527409450E+03 0.  0.
          5    1    4    4  502    0  0.25549086874E+02  0.69688072953E+02 -0.55360338491E+01  0.74578287878E+02  0.47000000000E+01 0. -1.
         -5    1    4    4    0  502 -0.33053942229E+02 -0.42191268277E+02  0.23503210988E+01  0.53854249832E+02  0.47000000000E+01 0. -1.
          5    1    5    5  503    0  0.62276089832E+02 -0.34635228593E+02 -0.39402121799E+02  0.81563028553E+02  0.47000000000E+01 0.  1.
         -5    1    5    5    0  503 -0.54771234478E+02  0.71384239177E+01 -0.52968500601E+02  0.76672011048E+02  0.47000000000E+01 0.  1.
<mgrwt>
<rscale>  0 0.27027262E+03</rscale>
<asrwt>0</asrwt>
<pdfrwt beam="1">  1        2 0.29401839E-01 0.27027262E+03</pdfrwt>
<pdfrwt beam="2">  1       -2 0.14700865E-01 0.27027262E+03</pdfrwt>
<totfact> 0.62939885E+03</totfact>
</mgrwt>
</event>
<event>
 9    1  0.7816570E-001  0.2748973E+03  0.7818608E-02  0.1098509E+00
          1   -1    0    0  501    0  0.00000000000E+00  0.00000000000E+00  0.84440598522E+01  0.84440598522E+01  0.00000000000E+00 0.  1.
         -1   -1    0    0    0  501 -0.00000000000E+00 -0.00000000000E+00 -0.22373285457E+04  0.22373285457E+04  0.00000000000E+00 0.  1.
         35    2    1    2    0    0 -0.71054273576E-14  0.00000000000E+00 -0.22288844858E+04  0.22457726055E+04  0.27489733465E+03 0.  0.
         25    2    3    3    0    0 -0.19417458122E+02 -0.28871610254E+02 -0.14808210790E+04  0.14865839499E+04  0.12605619510E+03 0.  0.
         25    2    3    3    0    0  0.19417458122E+02  0.28871610254E+02 -0.74806340680E+03  0.75918865567E+03  0.12473149864E+03 0.  0.
          5    1    4    4  502    0  0.31256421379E+02  0.36266841056E+02 -0.54710954288E+03  0.54922052907E+03  0.47000000000E+01 0. -1.
         -5    1    4    4    0  502 -0.50673879501E+02 -0.65138451310E+02 -0.93371153615E+03  0.93736342080E+03  0.47000000000E+01 0. -1.
          5    1    5    5  503    0 -0.16703613240E+02  0.43133156802E+02 -0.10377437719E+03  0.11371319744E+03  0.47000000000E+01 0. -1.
         -5    1    5    5    0  503  0.36121071362E+02 -0.14261546548E+02 -0.64428902960E+03  0.64547545823E+03  0.47000000000E+01 0. -1.
<mgrwt>
<rscale>  0 0.27489733E+03</rscale>
<asrwt>0</asrwt>
<pdfrwt beam="1">  1        1 0.12990859E-02 0.27489733E+03</pdfrwt>
<pdfrwt beam="2">  1       -1 0.34420445E+00 0.27489733E+03</pdfrwt>
<totfact> 0.22686458E+02</totfact>
</mgrwt>
</event>
<event>
 9    1  0.7816570E-001  0.2761823E+03  0.7818608E-02  0.1097793E+00
          2   -1    0    0  501    0  0.00000000000E+00  0.00000000000E+00  0.57778361842E+03  0.57778361842E+03  0.00000000000E+00 0.  1.
         -2   -1    0    0    0  501 -0.00000000000E+00 -0.00000000000E+00 -0.33003985111E+02  0.33003985111E+02  0.00000000000E+00 0.  1.
         35    2    1    2    0    0  0.00000000000E+00  0.71054273576E-14  0.54477963331E+03  0.61078760353E+03  0.27618227271E+03 0.  0.
         25    2    3    3    0    0 -0.46991724989E+02  0.35869615311E+02  0.26413962768E+03  0.29794404628E+03  0.12452333229E+03 0.  0.
         25    2    3    3    0    0  0.46991724989E+02 -0.35869615311E+02  0.28064000563E+03  0.31284355725E+03  0.12496970446E+03 0.  0.
          5    1    4    4  502    0  0.32652951088E+02  0.45917918442E+02  0.92694564352E+02  0.10857735818E+03  0.47000000000E+01 0. -1.
         -5    1    4    4    0  502 -0.79644676078E+02 -0.10048303131E+02  0.17144506333E+03  0.18936668810E+03  0.47000000000E+01 0. -1.
          5    1    5    5  503    0  0.47057067993E+01  0.44579499728E+02  0.12045011733E+03  0.12860713914E+03  0.47000000000E+01 0. -1.
         -5    1    5    5    0  503  0.42286018190E+02 -0.80449115038E+02  0.16018988830E+03  0.18423641811E+03  0.47000000000E+01 0. -1.
<mgrwt>
<rscale>  0 0.27618227E+03</rscale>
<asrwt>0</asrwt>
<pdfrwt beam="1">  1        2 0.88889780E-01 0.27618227E+03</pdfrwt>
<pdfrwt beam="2">  1       -2 0.50775366E-02 0.27618227E+03</pdfrwt>
<totfact> 0.10037504E+04</totfact>
</mgrwt>
</event>
<event>
 9    1  0.7816570E-001  0.2731673E+03  0.7818608E-02  0.1099480E+00
         -1   -1    0    0    0  501 -0.00000000000E+00  0.00000000000E+00  0.74606085906E+02  0.74606085906E+02  0.00000000000E+00 0.  1.
          1   -1    0    0  501    0  0.00000000000E+00 -0.00000000000E+00 -0.25004791963E+03  0.25004791963E+03  0.00000000000E+00 0.  1.
         35    2    1    2    0    0 -0.35527136788E-14  0.00000000000E+00 -0.17544183372E+03  0.32465400553E+03  0.27316732288E+03 0.  0.
         25    2    3    3    0    0 -0.11332700857E+02  0.55618267746E+02 -0.82907140107E+02  0.16024834863E+03  0.12483636306E+03 0.  0.
         25    2    3    3    0    0  0.11332700857E+02 -0.55618267746E+02 -0.92534693615E+02  0.16440565690E+03  0.12346954557E+03 0.  0.
          5    1    4    4  502    0 -0.56996706332E+02  0.59501614530E+02 -0.24963808452E+02  0.86222667534E+02  0.47000000000E+01 0.  1.
         -5    1    4    4    0  502  0.45664005475E+02 -0.38833467836E+01 -0.57943331655E+02  0.74025681095E+02  0.47000000000E+01 0.  1.
          5    1    5    5  503    0  0.36639226293E+02 -0.63591971633E+02 -0.60159775805E+01  0.73787897014E+02  0.47000000000E+01 0.  1.
         -5    1    5    5    0  503 -0.25306525436E+02  0.79737038867E+01 -0.86518716035E+02  0.90617759891E+02  0.47000000000E+01 0.  1.
<mgrwt>
<rscale>  0 0.27316732E+03</rscale>
<asrwt>0</asrwt>
<pdfrwt beam="1">  1        1 0.38468910E-01 0.27316732E+03</pdfrwt>
<pdfrwt beam="2">  1       -1 0.11477860E-01 0.27316732E+03</pdfrwt>
<totfact> 0.53853451E+03</totfact>
</mgrwt>
</event>
<event>
 9    1  0.7816570E-001  0.2756616E+03  0.7818608E-02  0.1098082E+00
          1   -1    0    0  501    0  0.00000000000E+00  0.00000000000E+00  0.61597819392E+03  0.61597819392E+03  0.00000000000E+00 0. -1.
         -1   -1    0    0    0  501 -0.00000000000E+00 -0.00000000000E+00 -0.30840915555E+02  0.30840915555E+02  0.00000000000E+00 0. -1.
         35    2    1    2    0    0  0.14210854715E-13  0.71054273576E-14  0.58513727837E+03  0.64681910948E+03  0.27566161476E+03 0.  0.
         25    2    3    3    0    0 -0.29554218593E+02 -0.49951068317E+02  0.28412151352E+03  0.31556035020E+03  0.12443769169E+03 0.  0.
         25    2    3    3    0    0  0.29554218593E+02  0.49951068317E+02  0.30101576485E+03  0.33125875928E+03  0.12551220597E+03 0.  0.
          5    1    4    4  502    0 -0.18495203908E+02  0.36227661927E+02  0.43738459801E+02  0.59913762377E+02  0.47000000000E+01 0.  1.
         -5    1    4    4    0  502 -0.11059014685E+02 -0.86178730244E+02  0.24038305371E+03  0.25564658782E+03  0.47000000000E+01 0.  1.
          5    1    5    5  503    0 -0.41204444158E+02  0.52873232829E+02  0.15299685411E+03  0.16710329840E+03  0.47000000000E+01 0. -1.
         -5    1    5    5    0  503  0.70758662751E+02 -0.29221645120E+01  0.14801891074E+03  0.16415546088E+03  0.47000000000E+01 0. -1.
<mgrwt>
<rscale>  0 0.27566161E+03</rscale>
<asrwt>0</asrwt>
<pdfrwt beam="1">  1        1 0.94765867E-01 0.27566161E+03</pdfrwt>
<pdfrwt beam="2">  1       -1 0.47447567E-02 0.27566161E+03</pdfrwt>
<totfact> 0.64323142E+03</totfact>
</mgrwt>
</event>
<event>
 9    1  0.7816570E-001  0.2710929E+03  0.7818608E-02  0.1100656E+00
         -2   -1    0    0    0  501 -0.00000000000E+00  0.00000000000E+00  0.67906385141E+01  0.67906385141E+01  0.00000000000E+00 0. -1.
          2   -1    0    0  501    0  0.00000000000E+00 -0.00000000000E+00 -0.27056123329E+04  0.27056123329E+04  0.00000000000E+00 0. -1.
         35    2    1    2    0    0  0.00000000000E+00  0.00000000000E+00 -0.26988216944E+04  0.27124029714E+04  0.27109286462E+03 0.  0.
         25    2    3    3    0    0  0.48913587243E+02  0.18962486400E+02 -0.13172545956E+04  0.13242502804E+04  0.12540741876E+03 0.  0.
         25    2    3    3    0    0 -0.48913587243E+02 -0.18962486400E+02 -0.13815670988E+04  0.13881526910E+04  0.12445131632E+03 0.  0.
          5    1    4    4  502    0 -0.19649009114E+02  0.31569420251E+02 -0.92920517947E+03  0.92996078811E+03  0.47000000000E+01 0. -1.
         -5    1    4    4    0  502  0.68562596356E+02 -0.12606933851E+02 -0.38804941613E+03  0.39428949232E+03  0.47000000000E+01 0. -1.
          5    1    5    5  503    0 -0.40987401569E+02  0.45707641518E+02 -0.43525104644E+03  0.43958471199E+03  0.47000000000E+01 0. -1.
         -5    1    5    5    0  503 -0.79261856738E+01 -0.64670127917E+02 -0.94631605232E+03  0.94856797898E+03  0.47000000000E+01 0. -1.
<mgrwt>
<rscale>  0 0.27109286E+03</rscale>
<asrwt>0</asrwt>
<pdfrwt beam="1">  1        2 0.41624867E+00 0.27109286E+03</pdfrwt>
<pdfrwt beam="2">  1       -2 0.10447121E-02 0.27109286E+03</pdfrwt>
<totfact> 0.61679361E+03</totfact>
</mgrwt>
</event>
<event>
 9    1  0.7816570E-001  0.2716900E+03  0.7818608E-02  0.1100316E+00
          1   -1    0    0  501    0  0.00000000000E+00  0.00000000000E+00  0.19316601187E+04  0.19316601187E+04  0.00000000000E+00 0. -1.
         -1   -1    0    0    0  501 -0.00000000000E+00 -0.00000000000E+00 -0.95533679335E+01  0.95533679335E+01  0.00000000000E+00 0. -1.
         35    2    1    2    0    0  0.35527136788E-14  0.14210854715E-13  0.19221067507E+04  0.19412134866E+04  0.27168996916E+03 0.  0.
         25    2    3    3    0    0 -0.18080843501E+02 -0.45184698050E+02  0.94472461825E+03  0.95468563716E+03  0.12865258507E+03 0.  0.
         25    2    3    3    0    0  0.18080843501E+02  0.45184698050E+02  0.97738213250E+03  0.98652784945E+03  0.12487109742E+03 0.  0.
          5    1    4    4  502    0 -0.39680701513E+01  0.35443129069E+02  0.10547477832E+03  0.11144047667E+03  0.47000000000E+01 0.  1.
         -5    1    4    4    0  502 -0.14112773350E+02 -0.80627827119E+02  0.83924983993E+03  0.84324516050E+03  0.47000000000E+01 0.  1.
          5    1    5    5  503    0  0.31742244139E+02 -0.37735721926E+02  0.32998408529E+03  0.33368119713E+03  0.47000000000E+01 0.  1.
         -5    1    5    5    0  503 -0.13661400638E+02  0.82920419976E+02  0.64739804720E+03  0.65284665231E+03  0.47000000000E+01 0.  1.
<mgrwt>
<rscale>  0 0.27168997E+03</rscale>
<asrwt>0</asrwt>
<pdfrwt beam="1">  1        1 0.29717817E+00 0.27168997E+03</pdfrwt>
<pdfrwt beam="2">  1       -1 0.14697505E-02 0.27168997E+03</pdfrwt>
<totfact> 0.40175913E+03</totfact>
</mgrwt>
</event>
<event>
 9    1  0.7816570E-001  0.2791276E+03  0.7818608E-02  0.1096166E+00
         -2   -1    0    0    0  501 -0.00000000000E+00  0.00000000000E+00  0.76629733891E+02  0.76629733891E+02  0.00000000000E+00 0. -1.
          2   -1    0    0  501    0  0.00000000000E+00 -0.00000000000E+00 -0.25418409952E+03  0.25418409952E+03  0.00000000000E+00 0. -1.
         35    2    1    2    0    0  0.00000000000E+00  0.00000000000E+00 -0.17755436563E+03  0.33081383342E+03  0.27912764038E+03 0.  0.
         25    2    3    3    0    0  0.25095276922E+02  0.39597682629E+02 -0.37908424842E+02  0.13817354478E+03  0.12432670835E+03 0.  0.
         25    2    3    3    0    0 -0.25095276922E+02 -0.39597682629E+02 -0.13964594079E+03  0.19264028864E+03  0.12414323435E+03 0.  0.
          5    1    4    4  502    0 -0.15154670165E+02  0.59477161283E+02 -0.61695025505E+02  0.87152526723E+02  0.47000000000E+01 0.  1.
         -5    1    4    4    0  502  0.40249947086E+02 -0.19879478654E+02  0.23786600663E+02  0.51021018053E+02  0.47000000000E+01 0.  1.
          5    1    5    5  503    0 -0.97991778460E+01 -0.22784438377E+02 -0.15987235030E+03  0.16185305962E+03  0.47000000000E+01 0. -1.
         -5    1    5    5    0  503 -0.15296099076E+02 -0.16813244252E+02  0.20226409507E+02  0.30787229020E+02  0.47000000000E+01 0. -1.
<mgrwt>
<rscale>  0 0.27912764E+03</rscale>
<asrwt>0</asrwt>
<pdfrwt beam="1">  1        2 0.39105246E-01 0.27912764E+03</pdfrwt>
<pdfrwt beam="2">  1       -2 0.11789190E-01 0.27912764E+03</pdfrwt>
<totfact> 0.66199570E+03</totfact>
</mgrwt>
</event>
<event>
 9    1  0.7816570E-001  0.2776811E+03  0.7818608E-02  0.1096962E+00
          2   -1    0    0  501    0  0.00000000000E+00  0.00000000000E+00  0.29998845646E+03  0.29998845646E+03  0.00000000000E+00 0.  1.
         -2   -1    0    0    0  501 -0.00000000000E+00 -0.00000000000E+00 -0.64258155644E+02  0.64258155644E+02  0.00000000000E+00 0.  1.
         35    2    1    2    0    0  0.00000000000E+00 -0.35527136788E-14  0.23573030082E+03  0.36424661211E+03  0.27768114755E+03 0.  0.
         25    2    3    3    0    0  0.48755713093E+02  0.26785994738E+02  0.13268514116E+03  0.19099147880E+03  0.12560967007E+03 0.  0.
         25    2    3    3    0    0 -0.48755713093E+02 -0.26785994738E+02  0.10304515966E+03  0.17325513331E+03  0.12768879048E+03 0.  0.
          5    1    4    4  502    0  0.60898084876E+02 -0.21897590073E+02  0.20565467489E+02  0.68066949731E+02  0.47000000000E+01 0.  1.
         -5    1    4    4    0  502 -0.12142371784E+02  0.48683584811E+02  0.11211967367E+03  0.12292452907E+03  0.47000000000E+01 0.  1.
          5    1    5    5  503    0 -0.28143163743E+02 -0.59969261699E+02  0.38282494373E+01  0.66521391356E+02  0.47000000000E+01 0. -1.
         -5    1    5    5    0  503 -0.20612549349E+02  0.33183266961E+02  0.99216910225E+02  0.10673374195E+03  0.47000000000E+01 0. -1.
<mgrwt>
<rscale>  0 0.27768115E+03</rscale>
<asrwt>0</asrwt>
<pdfrwt beam="1">  1        2 0.46152069E-01 0.27768115E+03</pdfrwt>
<pdfrwt beam="2">  1       -2 0.98858703E-02 0.27768115E+03</pdfrwt>
<totfact> 0.73393144E+03</totfact>
</mgrwt>
</event>
<event>
 9    1  0.7816570E-001  0.2717397E+03  0.7818608E-02  0.1100288E+00
         -1   -1    0    0    0  501 -0.00000000000E+00  0.00000000000E+00  0.60360193467E+02  0.60360193467E+02  0.00000000000E+00 0. -1.
          1   -1    0    0  501    0  0.00000000000E+00 -0.00000000000E+00 -0.30584087094E+03  0.30584087094E+03  0.00000000000E+00 0. -1.
         35    2    1    2    0    0  0.00000000000E+00  0.00000000000E+00 -0.24548067747E+03  0.36620106440E+03  0.27173968529E+03 0.  0.
         25    2    3    3    0    0 -0.22888849964E+02  0.17182347507E+02 -0.18421936888E+03  0.22517210254E+03  0.12627971878E+03 0.  0.
         25    2    3    3    0    0  0.22888849964E+02 -0.17182347507E+02 -0.61261308586E+02  0.14102896186E+03  0.12376222216E+03 0.  0.
          5    1    4    4  502    0  0.32379255950E+02  0.32013634272E+02 -0.15324125608E+03  0.15993205295E+03  0.47000000000E+01 0. -1.
         -5    1    4    4    0  502 -0.55268105914E+02 -0.14831286765E+02 -0.30978112801E+02  0.65240049595E+02  0.47000000000E+01 0. -1.
          5    1    5    5  503    0  0.10425032850E+01 -0.17164409634E+02 -0.97138999062E+02  0.98761221691E+02  0.47000000000E+01 0.  1.
         -5    1    5    5    0  503  0.21846346679E+02 -0.17937872554E-01  0.35877690476E+02  0.42267740167E+02  0.47000000000E+01 0.  1.
<mgrwt>
<rscale>  0 0.27173969E+03</rscale>
<asrwt>0</asrwt>
<pdfrwt beam="1">  1        1 0.47052441E-01 0.27173969E+03</pdfrwt>
<pdfrwt beam="2">  1       -1 0.92861838E-02 0.27173969E+03</pdfrwt>
<totfact> 0.58047339E+03</totfact>
</mgrwt>
</event>
<event>
 9    1  0.7816570E-001  0.2736456E+03  0.7818608E-02  0.1099211E+00
          1   -1    0    0  501    0  0.00000000000E+00  0.00000000000E+00  0.45226556587E+03  0.45226556587E+03  0.00000000000E+00 0. -1.
         -1   -1    0    0    0  501 -0.00000000000E+00 -0.00000000000E+00 -0.41392673346E+02  0.41392673346E+02  0.00000000000E+00 0. -1.
         35    2    1    2    0    0  0.71054273576E-14 -0.35527136788E-14  0.41087289252E+03  0.49365823922E+03  0.27364561633E+03 0.  0.
         25    2    3    3    0    0 -0.26503275021E+02 -0.30983802240E+02  0.13813301931E+03  0.19104915684E+03  0.12552541463E+03 0.  0.
         25    2    3    3    0    0  0.26503275021E+02  0.30983802240E+02  0.27273987321E+03  0.30260908237E+03  0.12459052415E+03 0.  0.
          5    1    4    4  502    0 -0.29668710530E+02 -0.19674890475E+02  0.16097891518E+03  0.16493524436E+03  0.47000000000E+01 0.  1.
         -5    1    4    4    0  502  0.31654355099E+01 -0.11308911766E+02 -0.22845895865E+02  0.26113912483E+02  0.47000000000E+01 0.  1.
          5    1    5    5  503    0  0.52573428198E+02 -0.82259037692E+01  0.23796057468E+03  0.24388307844E+03  0.47000000000E+01 0. -1.
         -5    1    5    5    0  503 -0.26070153178E+02  0.39209706010E+02  0.34779298528E+02  0.58726003935E+02  0.47000000000E+01 0. -1.
<mgrwt>
<rscale>  0 0.27364562E+03</rscale>
<asrwt>0</asrwt>
<pdfrwt beam="1">  1        1 0.69579314E-01 0.27364562E+03</pdfrwt>
<pdfrwt beam="2">  1       -1 0.63681039E-02 0.27364562E+03</pdfrwt>
<totfact> 0.62639354E+03</totfact>
</mgrwt>
</event>
<event>
 9    1  0.7816570E-001  0.2721399E+03  0.7818608E-02  0.1100061E+00
          4   -1    0    0  501    0  0.00000000000E+00  0.00000000000E+00  0.29374966434E+02  0.29374966434E+02  0.00000000000E+00 0.  1.
         -4   -1    0    0    0  501 -0.00000000000E+00 -0.00000000000E+00 -0.63029952561E+03  0.63029952561E+03  0.00000000000E+00 0.  1.
         35    2    1    2    0    0  0.00000000000E+00  0.00000000000E+00 -0.60092455918E+03  0.65967449205E+03  0.27213987145E+03 0.  0.
         25    2    3    3    0    0 -0.10902190859E+02 -0.59812105430E+02 -0.29191524590E+03  0.32129988955E+03  0.11967774442E+03 0.  0.
         25    2    3    3    0    0  0.10902190859E+02  0.59812105430E+02 -0.30900931327E+03  0.33837460250E+03  0.12375083921E+03 0.  0.
          5    1    4    4  502    0 -0.61508609775E+02 -0.45850457470E+02 -0.13000117042E+03  0.15102307055E+03  0.47000000000E+01 0. -1.
         -5    1    4    4    0  502  0.50606418916E+02 -0.13961647959E+02 -0.16191407548E+03  0.17027681900E+03  0.47000000000E+01 0. -1.
          5    1    5    5  503    0 -0.27462609615E+02 -0.28014937928E+02 -0.63613455540E+02  0.74885201473E+02  0.47000000000E+01 0.  1.
         -5    1    5    5    0  503  0.38364800474E+02  0.87827043357E+02 -0.24539585773E+03  0.26348940103E+03  0.47000000000E+01 0.  1.
<mgrwt>
<rscale>  0 0.27213987E+03</rscale>
<asrwt>0</asrwt>
<pdfrwt beam="1">  1        4 0.45192257E-02 0.27213987E+03</pdfrwt>
<pdfrwt beam="2">  1       -4 0.96969157E-01 0.27213987E+03</pdfrwt>
<totfact> 0.48233759E+02</totfact>
</mgrwt>
</event>
<event>
 9    1  0.7816570E-001  0.2751208E+03  0.7818608E-02  0.1098384E+00
         -2   -1    0    0    0  501 -0.00000000000E+00  0.00000000000E+00  0.29732120141E+02  0.29732120141E+02  0.00000000000E+00 0.  1.
          2   -1    0    0  501    0  0.00000000000E+00 -0.00000000000E+00 -0.63644508374E+03  0.63644508374E+03  0.00000000000E+00 0.  1.
         35    2    1    2    0    0  0.00000000000E+00 -0.71054273576E-14 -0.60671296360E+03  0.66617720388E+03  0.27512078579E+03 0.  0.
         25    2    3    3    0    0  0.35940836118E+02 -0.42187701428E+02 -0.29911010379E+03  0.32871010461E+03  0.12454691018E+03 0.  0.
         25    2    3    3    0    0 -0.35940836118E+02  0.42187701428E+02 -0.30760285982E+03  0.33746709927E+03  0.12725163210E+03 0.  0.
          5    1    4    4  502    0 -0.34453636205E+02 -0.40782352082E+01 -0.24759338710E+02  0.42881230201E+02  0.47000000000E+01 0. -1.
         -5    1    4    4    0  502  0.70394472323E+02 -0.38109466219E+02 -0.27435076508E+03  0.28582887441E+03  0.47000000000E+01 0. -1.
          5    1    5    5  503    0 -0.60887671538E+02  0.66378203713E+02 -0.27563160078E+03  0.29001421314E+03  0.47000000000E+01 0.  1.
         -5    1    5    5    0  503  0.24946835419E+02 -0.24190502285E+02 -0.31971259036E+02  0.47452886136E+02  0.47000000000E+01 0.  1.
<mgrwt>
<rscale>  0 0.27512079E+03</rscale>
<asrwt>0</asrwt>
<pdfrwt beam="1">  1        2 0.97914633E-01 0.27512079E+03</pdfrwt>
<pdfrwt beam="2">  1       -2 0.45741721E-02 0.27512079E+03</pdfrwt>
<totfact> 0.10505674E+04</totfact>
</mgrwt>
</event>
<event>
 9    1  0.7816570E-001  0.2761854E+03  0.7818608E-02  0.1097791E+00
          1   -1    0    0  501    0  0.00000000000E+00  0.00000000000E+00  0.36232337182E+02  0.36232337182E+02  0.00000000000E+00 0.  1.
         -1   -1    0    0    0  501 -0.00000000000E+00 -0.00000000000E+00 -0.52631421017E+03  0.52631421017E+03  0.00000000000E+00 0.  1.
         35    2    1    2    0    0 -0.71054273576E-14  0.35527136788E-14 -0.49008187299E+03  0.56254654735E+03  0.27618540096E+03 0.  0.
         25    2    3    3    0    0 -0.46865222773E+02 -0.51451754880E+01 -0.31079837116E+03  0.33841735153E+03  0.12533097926E+03 0.  0.
         25    2    3    3    0    0  0.46865222773E+02  0.51451754880E+01 -0.17928350182E+03  0.22412919582E+03  0.12597023639E+03 0.  0.
          5    1    4    4  502    0  0.13675738231E+02  0.37502920693E+01  0.57254176918E+01  0.15998778532E+02  0.47000000000E+01 0. -1.
         -5    1    4    4    0  502 -0.60540961004E+02 -0.88954675573E+01 -0.31652378886E+03  0.32241857300E+03  0.47000000000E+01 0. -1.
          5    1    5    5  503    0 -0.17255490453E+02 -0.34884668330E+02 -0.12817005677E+02  0.41243880392E+02  0.47000000000E+01 0. -1.
         -5    1    5    5    0  503  0.64120713225E+02  0.40029843818E+02 -0.16646649615E+03  0.18288531543E+03  0.47000000000E+01 0. -1.
<mgrwt>
<rscale>  0 0.27618540E+03</rscale>
<asrwt>0</asrwt>
<pdfrwt beam="1">  1        1 0.55742058E-02 0.27618540E+03</pdfrwt>
<pdfrwt beam="2">  1       -1 0.80971416E-01 0.27618540E+03</pdfrwt>
<totfact> 0.22724730E+03</totfact>
</mgrwt>
</event>
<event>
 9    1  0.7816570E-001  0.2738182E+03  0.7818608E-02  0.1099114E+00
          1   -1    0    0  501    0  0.00000000000E+00  0.00000000000E+00  0.18392382413E+04  0.18392382413E+04  0.00000000000E+00 0.  1.
         -1   -1    0    0    0  501 -0.00000000000E+00 -0.00000000000E+00 -0.10191230629E+02  0.10191230629E+02  0.00000000000E+00 0.  1.
         35    2    1    2    0    0  0.71054273576E-14  0.00000000000E+00  0.18290470107E+04  0.18494294719E+04  0.27381819588E+03 0.  0.
         25    2    3    3    0    0 -0.53255318371E+02  0.15650299163E+02  0.83613441089E+03  0.84720216065E+03  0.12469838464E+03 0.  0.
         25    2    3    3    0    0  0.53255318371E+02 -0.15650299163E+02  0.99291259980E+03  0.10022273113E+04  0.12451141263E+03 0.  0.
          5    1    4    4  502    0 -0.52913959920E+02  0.56255113776E+02  0.71877595573E+03  0.72292841244E+03  0.47000000000E+01 0. -1.
         -5    1    4    4    0  502 -0.34135845105E+00 -0.40604814613E+02  0.11735845516E+03  0.12427374821E+03  0.47000000000E+01 0. -1.
          5    1    5    5  503    0  0.80563473567E+01  0.52905220801E+02  0.35756307861E+03  0.36157615007E+03  0.47000000000E+01 0.  1.
         -5    1    5    5    0  503  0.45198971015E+02 -0.68555519964E+02  0.63534952119E+03  0.64065116122E+03  0.47000000000E+01 0.  1.
<mgrwt>
<rscale>  0 0.27381820E+03</rscale>
<asrwt>0</asrwt>
<pdfrwt beam="1">  1        1 0.28295946E+00 0.27381820E+03</pdfrwt>
<pdfrwt beam="2">  1       -1 0.15678831E-02 0.27381820E+03</pdfrwt>
<totfact> 0.41984893E+03</totfact>
</mgrwt>
</event>
<event>
 9    1  0.7816570E-001  0.2710000E+03  0.7818608E-02  0.1100709E+00
          2   -1    0    0  501    0  0.00000000000E+00  0.00000000000E+00  0.35084233366E+03  0.35084233366E+03  0.00000000000E+00 0. -1.
         -2   -1    0    0    0  501 -0.00000000000E+00 -0.00000000000E+00 -0.52331919368E+02  0.52331919368E+02  0.00000000000E+00 0. -1.
         35    2    1    2    0    0  0.00000000000E+00  0.00000000000E+00  0.29851041429E+03  0.40317425303E+03  0.27100002005E+03 0.  0.
         25    2    3    3    0    0  0.10806522847E+02  0.47820913626E+02  0.12198190238E+03  0.18152424638E+03  0.12517126986E+03 0.  0.
         25    2    3    3    0    0 -0.10806522847E+02 -0.47820913626E+02  0.17652851191E+03  0.22165000666E+03  0.12475090868E+03 0.  0.
          5    1    4    4  502    0 -0.30819232244E+02 -0.49563803790E+01 -0.10187272231E+02  0.33170186887E+02  0.47000000000E+01 0.  1.
         -5    1    4    4    0  502  0.41625755091E+02  0.52777294005E+02  0.13216917461E+03  0.14835405949E+03  0.47000000000E+01 0.  1.
          5    1    5    5  503    0  0.28500844302E+01 -0.55924414626E+02  0.13513461814E+02  0.57795906280E+02  0.47000000000E+01 0.  1.
         -5    1    5    5    0  503 -0.13656607277E+02  0.81035009993E+01  0.16301505010E+03  0.16385410038E+03  0.47000000000E+01 0.  1.
<mgrwt>
<rscale>  0 0.27100002E+03</rscale>
<asrwt>0</asrwt>
<pdfrwt beam="1">  1        2 0.53975742E-01 0.27100002E+03</pdfrwt>
<pdfrwt beam="2">  1       -2 0.80510647E-02 0.27100002E+03</pdfrwt>
<totfact> 0.85595297E+03</totfact>
</mgrwt>
</event>
<event>
 9    1  0.7816570E-001  0.2775281E+03  0.7818608E-02  0.1097047E+00
          3   -1    0    0  501    0  0.00000000000E+00  0.00000000000E+00  0.11819182133E+04  0.11819182133E+04  0.00000000000E+00 0.  1.
         -3   -1    0    0    0  501 -0.00000000000E+00 -0.00000000000E+00 -0.16291705859E+02  0.16291705859E+02  0.00000000000E+00 0.  1.
         35    2    1    2    0    0  0.00000000000E+00  0.71054273576E-14  0.11656265075E+04  0.11982099192E+04  0.27752811664E+03 0.  0.
         25    2    3    3    0    0  0.22402486230E+02  0.43331744069E+02  0.73781775913E+03  0.74983086703E+03  0.12446594723E+03 0.  0.
         25    2    3    3    0    0 -0.22402486230E+02 -0.43331744069E+02  0.42780874835E+03  0.44837905218E+03  0.12507572839E+03 0.  0.
          5    1    4    4  502    0 -0.25225904154E+02  0.38689672267E+02  0.63080989456E+03  0.63251596822E+03  0.47000000000E+01 0. -1.
         -5    1    4    4    0  502  0.47628390384E+02  0.46420718015E+01  0.10700786457E+03  0.11731489880E+03  0.47000000000E+01 0. -1.
          5    1    5    5  503    0 -0.14496510401E+02  0.20978825493E+02  0.13933701748E+02  0.29436337701E+02  0.47000000000E+01 0. -1.
         -5    1    5    5    0  503 -0.79059758289E+01 -0.64310569562E+02  0.41387504660E+03  0.41894271448E+03  0.47000000000E+01 0.  1.
<mgrwt>
<rscale>  0 0.27752812E+03</rscale>
<asrwt>0</asrwt>
<pdfrwt beam="1">  1        3 0.18183350E+00 0.27752812E+03</pdfrwt>
<pdfrwt beam="2">  1       -3 0.25064172E-02 0.27752812E+03</pdfrwt>
<totfact> 0.35543896E+02</totfact>
</mgrwt>
</event>
<event>
 9    1  0.7816570E-001  0.2719762E+03  0.7818608E-02  0.1100154E+00
         -4   -1    0    0    0  501 -0.00000000000E+00  0.00000000000E+00  0.17686888387E+03  0.17686888387E+03  0.00000000000E+00 0.  1.
          4   -1    0    0  501    0  0.00000000000E+00 -0.00000000000E+00 -0.10455633595E+03  0.10455633595E+03  0.00000000000E+00 0.  1.
         35    2    1    2    0    0  0.00000000000E+00 -0.35527136788E-14  0.72312547924E+02  0.28142521982E+03  0.27197619338E+03 0.  0.
         25    2    3    3    0    0 -0.48964817260E+02  0.20334195606E+02  0.39419806030E+02  0.14144638850E+03  0.12506848872E+03 0.  0.
         25    2    3    3    0    0  0.48964817260E+02 -0.20334195606E+02  0.32892741894E+02  0.13997883133E+03  0.12530406182E+03 0.  0.
          5    1    4    4  502    0 -0.53744450569E+02 -0.44897615200E+02  0.22790564177E+02  0.73795403875E+02  0.47000000000E+01 0.  1.
         -5    1    4    4    0  502  0.47796333091E+01  0.65231810805E+02  0.16629241852E+02  0.67650984620E+02  0.47000000000E+01 0.  1.
          5    1    5    5  503    0 -0.29311529654E+02 -0.42974272854E+02  0.68883793798E+00  0.52235221792E+02  0.47000000000E+01 0.  1.
         -5    1    5    5    0  503  0.78276346914E+02  0.22640077248E+02  0.32203903956E+02  0.87743609534E+02  0.47000000000E+01 0.  1.
<mgrwt>
<rscale>  0 0.27197619E+03</rscale>
<asrwt>0</asrwt>
<pdfrwt beam="1">  1        4 0.16085590E-01 0.27197619E+03</pdfrwt>
<pdfrwt beam="2">  1       -4 0.27210597E-01 0.27197619E+03</pdfrwt>
<totfact> 0.79792983E+02</totfact>
</mgrwt>
</event>
<event>
 9    1  0.7816570E-001  0.2749529E+03  0.7818608E-02  0.1098478E+00
          3   -1    0    0  501    0  0.00000000000E+00  0.00000000000E+00  0.34579094160E+03  0.34579094160E+03  0.00000000000E+00 0. -1.
         -3   -1    0    0    0  501 -0.00000000000E+00 -0.00000000000E+00 -0.54656642691E+02  0.54656642691E+02  0.00000000000E+00 0. -1.
         35    2    1    2    0    0  0.00000000000E+00 -0.71054273576E-14  0.29113429891E+03  0.40044758429E+03  0.27495288281E+03 0.  0.
         25    2    3    3    0    0  0.20692006858E+02  0.98722857814E+01  0.21932300163E+03  0.25458847003E+03  0.12722849073E+03 0.  0.
         25    2    3    3    0    0 -0.20692006858E+02 -0.98722857814E+01  0.71811297287E+02  0.14585911427E+03  0.12486952239E+03 0.  0.
          5    1    4    4  502    0 -0.19654155181E+01  0.64495343161E+02  0.78127277789E+02  0.10143704295E+03  0.47000000000E+01 0.  1.
         -5    1    4    4    0  502  0.22657422377E+02 -0.54623057379E+02  0.14119572384E+03  0.15315142708E+03  0.47000000000E+01 0.  1.
          5    1    5    5  503    0  0.15176662007E+02  0.52482830220E+02  0.32672525184E+02  0.63830732720E+02  0.47000000000E+01 0.  1.
         -5    1    5    5    0  503 -0.35868668865E+02 -0.62355116002E+02  0.39138772103E+02  0.82028381549E+02  0.47000000000E+01 0.  1.
<mgrwt>
<rscale>  0 0.27495288E+03</rscale>
<asrwt>0</asrwt>
<pdfrwt beam="1">  1        3 0.53198605E-01 0.27495288E+03</pdfrwt>
<pdfrwt beam="2">  1       -3 0.84087145E-02 0.27495288E+03</pdfrwt>
<totfact> 0.88110422E+02</totfact>
</mgrwt>
</event>
<event>
 9    1  0.7816570E-001  0.2738430E+03  0.7818608E-02  0.1099100E+00
         -2   -1    0    0    0  501 -0.00000000000E+00  0.00000000000E+00  0.58166365097E+01  0.58166365097E+01  0.00000000000E+00 0.  1.
          2   -1    0    0  501    0  0.00000000000E+00 -0.00000000000E+00 -0.32230813965E+04  0.32230813965E+04  0.00000000000E+00 0.  1.
         35    2    1    2    0    0  0.35527136788E-14  0.00000000000E+00 -0.32172647600E+04  0.32288980330E+04  0.27384296905E+03 0.  0.
         25    2    3    3    0    0  0.14326884883E+02 -0.37638740300E+02 -0.20799347550E+04  0.20840767931E+04  0.12500224089E+03 0.  0.
         25    2    3    3    0    0 -0.14326884883E+02  0.37638740300E+02 -0.11373300050E+04  0.11448212399E+04  0.12439532392E+03 0.  0.
          5    1    4    4  502    0  0.53431706437E+02  0.14578103082E+02 -0.56416118556E+03  0.56689276026E+03  0.47000000000E+01 0.  1.
         -5    1    4    4    0  502 -0.39104821554E+02 -0.52216843382E+02 -0.15157735695E+04  0.15171840329E+04  0.47000000000E+01 0.  1.
          5    1    5    5  503    0  0.29230513589E+02 -0.33666052505E+02 -0.30200362439E+03  0.30531312642E+03  0.47000000000E+01 0.  1.
         -5    1    5    5    0  503 -0.43557398472E+02  0.71304792805E+02 -0.83532638060E+03  0.83950811346E+03  0.47000000000E+01 0.  1.
<mgrwt>
<rscale>  0 0.27384297E+03</rscale>
<asrwt>0</asrwt>
<pdfrwt beam="1">  1        2 0.49585847E+00 0.27384297E+03</pdfrwt>
<pdfrwt beam="2">  1       -2 0.89486753E-03 0.27384297E+03</pdfrwt>
<totfact> 0.38235617E+03</totfact>
</mgrwt>
</event>
<event>
 9    1  0.7816570E-001  0.2728955E+03  0.7818608E-02  0.1099634E+00
          2   -1    0    0  501    0  0.00000000000E+00  0.00000000000E+00  0.15945074543E+04  0.15945074543E+04  0.00000000000E+00 0. -1.
         -2   -1    0    0    0  501 -0.00000000000E+00 -0.00000000000E+00 -0.11676325081E+02  0.11676325081E+02  0.00000000000E+00 0. -1.
         35    2    1    2    0    0  0.00000000000E+00  0.71054273576E-14  0.15828311292E+04  0.16061837794E+04  0.27289549195E+03 0.  0.
         25    2    3    3    0    0  0.17937130103E+02  0.47465189143E+01  0.48740654394E+03  0.50347176580E+03  0.12479747514E+03 0.  0.
         25    2    3    3    0    0 -0.17937130103E+02 -0.47465189143E+01  0.10954245853E+04  0.11027120136E+04  0.12519781465E+03 0.  0.
          5    1    4    4  502    0  0.21861821430E+02 -0.35582315659E+02  0.55362544822E+02  0.69506415481E+02  0.47000000000E+01 0.  1.
         -5    1    4    4    0  502 -0.39246913271E+01  0.40328834573E+02  0.43204399912E+03  0.43396535032E+03  0.47000000000E+01 0.  1.
          5    1    5    5  503    0  0.96617316855E+01  0.54730721761E+02  0.66008375198E+03  0.66243599736E+03  0.47000000000E+01 0. -1.
         -5    1    5    5    0  503 -0.27598861788E+02 -0.59477240676E+02  0.43534083330E+03  0.44027601623E+03  0.47000000000E+01 0. -1.
<mgrwt>
<rscale>  0 0.27289549E+03</rscale>
<asrwt>0</asrwt>
<pdfrwt beam="1">  1        2 0.24530867E+00 0.27289549E+03</pdfrwt>
<pdfrwt beam="2">  1       -2 0.17963590E-02 0.27289549E+03</pdfrwt>
<totfact> 0.10998116E+04</totfact>
</mgrwt>
</event>
<event>
 9    1  0.7816570E-001  0.3288777E+03  0.7818608E-02  0.1071635E+00
          1   -1    0    0  501    0  0.00000000000E+00  0.00000000000E+00  0.46393919697E+03  0.46393919697E+03  0.00000000000E+00 0.  1.
         -1   -1    0    0    0  501 -0.00000000000E+00 -0.00000000000E+00 -0.58283781324E+02  0.58283781324E+02  0.00000000000E+00 0.  1.
         35    2    1    2    0    0  0.00000000000E+00 -0.71054273576E-14  0.40565541564E+03  0.52222297829E+03  0.32887767150E+03 0.  0.
         25    2    3    3    0    0  0.65627239184E+02 -0.61354928650E+02  0.11042759910E+03  0.18924212169E+03  0.12468746603E+03 0.  0.
         25    2    3    3    0    0 -0.65627239184E+02  0.61354928650E+02  0.29522781654E+03  0.33298085660E+03  0.12508167497E+03 0.  0.
          5    1    4    4  502    0  0.66681314379E+01 -0.62531264487E+02 -0.10170471526E+01  0.63069385601E+02  0.47000000000E+01 0.  1.
         -5    1    4    4    0  502  0.58959107746E+02  0.11763358366E+01  0.11144464626E+03  0.12617273609E+03  0.47000000000E+01 0.  1.
          5    1    5    5  503    0 -0.67267375931E+02  0.82964165977E+02  0.13987892409E+03  0.17605725235E+03  0.47000000000E+01 0. -1.
         -5    1    5    5    0  503  0.16401367466E+01 -0.21609237327E+02  0.15534889245E+03  0.15692360425E+03  0.47000000000E+01 0. -1.
<mgrwt>
<rscale>  0 0.32887767E+03</rscale>
<asrwt>0</asrwt>
<pdfrwt beam="1">  1        1 0.71375259E-01 0.32887767E+03</pdfrwt>
<pdfrwt beam="2">  1       -1 0.89667359E-02 0.32887767E+03</pdfrwt>
<totfact> 0.36080253E+03</totfact>
</mgrwt>
</event>
<event>
 9    1  0.7816570E-001  0.2575918E+03  0.7818608E-02  0.1108599E+00
          2   -1    0    0  501    0  0.00000000000E+00  0.00000000000E+00  0.46059081440E+02  0.46059081440E+02  0.00000000000E+00 0.  1.
         -2   -1    0    0    0  501 -0.00000000000E+00 -0.00000000000E+00 -0.36015453271E+03  0.36015453271E+03  0.00000000000E+00 0.  1.
         35    2    1    2    0    0  0.00000000000E+00 -0.44408920985E-14 -0.31409545127E+03  0.40621361415E+03  0.25759182404E+03 0.  0.
         25    2    3    3    0    0  0.25894884562E+02 -0.53969763873E+01 -0.19415810517E+03  0.23081175389E+03  0.12197140455E+03 0.  0.
         25    2    3    3    0    0 -0.25894884562E+02  0.53969763873E+01 -0.11993734610E+03  0.17540186026E+03  0.12522449119E+03 0.  0.
          5    1    4    4  502    0  0.24224926105E+02 -0.58432620657E+02 -0.14524878986E+03  0.15849453984E+03  0.47000000000E+01 0. -1.
         -5    1    4    4    0  502  0.16699584565E+01  0.53035644270E+02 -0.48909315313E+02  0.72317214055E+02  0.47000000000E+01 0. -1.
          5    1    5    5  503    0 -0.74981339482E+02 -0.55342064722E+01 -0.55710032848E+02  0.93693790999E+02  0.47000000000E+01 0.  1.
         -5    1    5    5    0  503  0.49086454920E+02  0.10931182860E+02 -0.64227313252E+02  0.81708069264E+02  0.47000000000E+01 0.  1.
<mgrwt>
<rscale>  0 0.25759182E+03</rscale>
<asrwt>0</asrwt>
<pdfrwt beam="1">  1        2 0.70860126E-02 0.25759182E+03</pdfrwt>
<pdfrwt beam="2">  1       -2 0.55408389E-01 0.25759182E+03</pdfrwt>
<totfact> 0.30793143E+03</totfact>
</mgrwt>
</event>
<event>
 9    1  0.7816570E-001  0.2757681E+03  0.7818608E-02  0.1098023E+00
         -2   -1    0    0    0  501 -0.00000000000E+00  0.00000000000E+00  0.19289051425E+02  0.19289051425E+02  0.00000000000E+00 0.  1.
          2   -1    0    0  501    0  0.00000000000E+00 -0.00000000000E+00 -0.98563715097E+03  0.98563715097E+03  0.00000000000E+00 0.  1.
         35    2    1    2    0    0  0.00000000000E+00  0.71054273576E-14 -0.96634809954E+03  0.10049262024E+04  0.27576805973E+03 0.  0.
         25    2    3    3    0    0 -0.10853603831E+02  0.53882937473E+02 -0.40801425778E+03  0.43018495737E+03  0.12474891314E+03 0.  0.
         25    2    3    3    0    0  0.10853603831E+02 -0.53882937473E+02 -0.55833384176E+03  0.57474124502E+03  0.12477839639E+03 0.  0.
          5    1    4    4  502    0 -0.59738606615E+02  0.61898863749E+02 -0.27433736548E+03  0.28754695364E+03  0.47000000000E+01 0. -1.
         -5    1    4    4    0  502  0.48885002784E+02 -0.80159262761E+01 -0.13367689230E+03  0.14263800373E+03  0.47000000000E+01 0. -1.
          5    1    5    5  503    0  0.81090150383E+01  0.26368946575E+02 -0.32926818699E+02  0.43212762675E+02  0.47000000000E+01 0. -1.
         -5    1    5    5    0  503  0.27445887929E+01 -0.80251884049E+02 -0.52540702306E+03  0.53152848235E+03  0.47000000000E+01 0. -1.
<mgrwt>
<rscale>  0 0.27576806E+03</rscale>
<asrwt>0</asrwt>
<pdfrwt beam="1">  1        2 0.15163652E+00 0.27576806E+03</pdfrwt>
<pdfrwt beam="2">  1       -2 0.29675457E-02 0.27576806E+03</pdfrwt>
<totfact> 0.11509311E+04</totfact>
</mgrwt>
</event>
<event>
 9    1  0.7816570E-001  0.2726293E+03  0.7818608E-02  0.1099784E+00
          2   -1    0    0  501    0  0.00000000000E+00  0.00000000000E+00  0.75802293736E+01  0.75802293736E+01  0.00000000000E+00 0. -1.
         -2   -1    0    0    0  501 -0.00000000000E+00 -0.00000000000E+00 -0.24513353868E+04  0.24513353868E+04  0.00000000000E+00 0. -1.
         35    2    1    2    0    0  0.00000000000E+00  0.35527136788E-14 -0.24437551574E+04  0.24589156162E+04  0.27262930513E+03 0.  0.
         25    2    3    3    0    0  0.41802232668E+02 -0.11705325447E+02 -0.93756483229E+03  0.94694513470E+03  0.12566953522E+03 0.  0.
         25    2    3    3    0    0 -0.41802232668E+02  0.11705325447E+02 -0.15061903251E+04  0.15119704815E+04  0.12474373739E+03 0.  0.
          5    1    4    4  502    0  0.37863619947E+00  0.52275586712E+02 -0.50201890495E+03  0.50475533802E+03  0.47000000000E+01 0. -1.
         -5    1    4    4    0  502  0.41423596468E+02 -0.63980912159E+02 -0.43554592735E+03  0.44218979669E+03  0.47000000000E+01 0. -1.
          5    1    5    5  503    0 -0.83895740612E+02  0.91226212218E+01 -0.78605208556E+03  0.79058313207E+03  0.47000000000E+01 0. -1.
         -5    1    5    5    0  503  0.42093507944E+02  0.25827042256E+01 -0.72013823959E+03  0.72138734941E+03  0.47000000000E+01 0. -1.
<mgrwt>
<rscale>  0 0.27262931E+03</rscale>
<asrwt>0</asrwt>
<pdfrwt beam="1">  1        2 0.11661877E-02 0.27262931E+03</pdfrwt>
<pdfrwt beam="2">  1       -2 0.37712899E+00 0.27262931E+03</pdfrwt>
<totfact> 0.14623749E+02</totfact>
</mgrwt>
</event>
<event>
 9    1  0.7816570E-001  0.2743030E+03  0.7818608E-02  0.1098842E+00
          2   -1    0    0  501    0  0.00000000000E+00  0.00000000000E+00  0.55452487463E+03  0.55452487463E+03  0.00000000000E+00 0.  1.
         -2   -1    0    0    0  501 -0.00000000000E+00 -0.00000000000E+00 -0.33921903054E+02  0.33921903054E+02  0.00000000000E+00 0.  1.
         35    2    1    2    0    0 -0.53290705182E-14  0.00000000000E+00  0.52060297158E+03  0.58844677769E+03  0.27430303708E+03 0.  0.
         25    2    3    3    0    0  0.22868087263E+01  0.41352707909E+02  0.34532794470E+03  0.36928137601E+03  0.12410507373E+03 0.  0.
         25    2    3    3    0    0 -0.22868087263E+01 -0.41352707909E+02  0.17527502688E+03  0.21916540168E+03  0.12488739849E+03 0.  0.
          5    1    4    4  502    0 -0.30182330136E+02 -0.25569083389E+02  0.46172614101E+02  0.60981565827E+02  0.47000000000E+01 0.  1.
         -5    1    4    4    0  502  0.32469138862E+02  0.66921791298E+02  0.29915533060E+03  0.30829981018E+03  0.47000000000E+01 0.  1.
          5    1    5    5  503    0  0.10463117345E+02 -0.42354164045E+02  0.19236635581E+03  0.19730751857E+03  0.47000000000E+01 0. -1.
         -5    1    5    5    0  503 -0.12749926071E+02  0.10014561364E+01 -0.17091328936E+02  0.21857883109E+02  0.47000000000E+01 0. -1.
<mgrwt>
<rscale>  0 0.27430304E+03</rscale>
<asrwt>0</asrwt>
<pdfrwt beam="1">  1        2 0.85311512E-01 0.27430304E+03</pdfrwt>
<pdfrwt beam="2">  1       -2 0.52187547E-02 0.27430304E+03</pdfrwt>
<totfact> 0.10088502E+04</totfact>
</mgrwt>
</event>
<event>
 9    1  0.7816570E-001  0.3346592E+03  0.7818608E-02  0.1069094E+00
         -2   -1    0    0    0  501 -0.00000000000E+00  0.00000000000E+00  0.71721850223E+02  0.71721850223E+02  0.00000000000E+00 0. -1.
          2   -1    0    0  501    0  0.00000000000E+00 -0.00000000000E+00 -0.39038577308E+03  0.39038577308E+03  0.00000000000E+00 0. -1.
         35    2    1    2    0    0 -0.14210854715E-13 -0.71054273576E-14 -0.31866392286E+03  0.46210762331E+03  0.33465916958E+03 0.  0.
         25    2    3    3    0    0  0.10191941153E+03  0.44270425562E+02 -0.16001284424E+03  0.23258469851E+03  0.12705941379E+03 0.  0.
         25    2    3    3    0    0 -0.10191941153E+03 -0.44270425562E+02 -0.15865107862E+03  0.22952292480E+03  0.12313882911E+03 0.  0.
          5    1    4    4  502    0  0.94715884650E+02  0.84871508402E+02 -0.12245062897E+03  0.17660837545E+03  0.47000000000E+01 0. -1.
         -5    1    4    4    0  502  0.72035268797E+01 -0.40601082841E+02 -0.37562215269E+02  0.55976323060E+02  0.47000000000E+01 0. -1.
          5    1    5    5  503    0 -0.61700709663E+02 -0.78967632034E+02 -0.14160030654E+03  0.17353847209E+03  0.47000000000E+01 0.  1.
         -5    1    5    5    0  503 -0.40218701867E+02  0.34697206472E+02 -0.17050772079E+02  0.55984452711E+02  0.47000000000E+01 0.  1.
<mgrwt>
<rscale>  0 0.33465917E+03</rscale>
<asrwt>0</asrwt>
<pdfrwt beam="1">  1        2 0.60059349E-01 0.33465917E+03</pdfrwt>
<pdfrwt beam="2">  1       -2 0.11034131E-01 0.33465917E+03</pdfrwt>
<totfact> 0.46546259E+03</totfact>
</mgrwt>
</event>
<event>
 9    1  0.7816570E-001  0.2697416E+03  0.7818608E-02  0.1101428E+00
         -3   -1    0    0    0  501 -0.00000000000E+00  0.00000000000E+00  0.77856074950E+03  0.77856074950E+03  0.00000000000E+00 0.  1.
          3   -1    0    0  501    0  0.00000000000E+00 -0.00000000000E+00 -0.23363788914E+02  0.23363788914E+02  0.00000000000E+00 0.  1.
         35    2    1    2    0    0 -0.35527136788E-14 -0.71054273576E-14  0.75519696059E+03  0.80192453842E+03  0.26974157268E+03 0.  0.
         25    2    3    3    0    0 -0.28056474770E+02  0.36351129079E+02  0.43954196681E+03  0.45915336886E+03  0.12456365915E+03 0.  0.
         25    2    3    3    0    0  0.28056474770E+02 -0.36351129079E+02  0.31565499378E+03  0.34277116956E+03  0.12548079225E+03 0.  0.
          5    1    4    4  502    0  0.14290881562E+02 -0.12295970648E+02  0.53233206875E+01  0.20145667850E+02  0.47000000000E+01 0.  1.
         -5    1    4    4    0  502 -0.42347356332E+02  0.48647099728E+02  0.43421864613E+03  0.43900770101E+03  0.47000000000E+01 0.  1.
          5    1    5    5  503    0 -0.16029809617E+02  0.32281284846E+02  0.18599938160E+03  0.18951753508E+03  0.47000000000E+01 0.  1.
         -5    1    5    5    0  503  0.44086284387E+02 -0.68632413925E+02  0.12965561218E+03  0.15325363448E+03  0.47000000000E+01 0.  1.
<mgrwt>
<rscale>  0 0.26974157E+03</rscale>
<asrwt>0</asrwt>
<pdfrwt beam="1">  1        3 0.35944297E-02 0.26974157E+03</pdfrwt>
<pdfrwt beam="2">  1       -3 0.11977856E+00 0.26974157E+03</pdfrwt>
<totfact> 0.57744449E+02</totfact>
</mgrwt>
</event>
<event>
 9    1  0.7816570E-001  0.2762486E+03  0.7818608E-02  0.1097756E+00
          2   -1    0    0  501    0  0.00000000000E+00  0.00000000000E+00  0.34052245619E+03  0.34052245619E+03  0.00000000000E+00 0.  1.
         -2   -1    0    0    0  501 -0.00000000000E+00 -0.00000000000E+00 -0.56026601045E+02  0.56026601045E+02  0.00000000000E+00 0.  1.
         35    2    1    2    0    0  0.17763568394E-14 -0.71054273576E-14  0.28449585514E+03  0.39654905723E+03  0.27624855330E+03 0.  0.
         25    2    3    3    0    0 -0.48881512594E+01 -0.46219097795E+02  0.19636639668E+03  0.23723019874E+03  0.12473294042E+03 0.  0.
         25    2    3    3    0    0  0.48881512594E+01  0.46219097795E+02  0.88129458461E+02  0.15931885849E+03  0.12432054616E+03 0.  0.
          5    1    4    4  502    0  0.21088687069E+01 -0.52264958981E+02  0.13708317526E+02  0.54277815302E+02  0.47000000000E+01 0. -1.
         -5    1    4    4    0  502 -0.69970199663E+01  0.60458611856E+01  0.18265807916E+03  0.18295238344E+03  0.47000000000E+01 0. -1.
          5    1    5    5  503    0  0.58255568576E+02  0.31856371171E+02  0.16233001154E+02  0.68513794091E+02  0.47000000000E+01 0. -1.
         -5    1    5    5    0  503 -0.53367417317E+02  0.14362726624E+02  0.71896457306E+02  0.90805064398E+02  0.47000000000E+01 0. -1.
<mgrwt>
<rscale>  0 0.27624855E+03</rscale>
<asrwt>0</asrwt>
<pdfrwt beam="1">  1        2 0.52388069E-01 0.27624855E+03</pdfrwt>
<pdfrwt beam="2">  1       -2 0.86194773E-02 0.27624855E+03</pdfrwt>
<totfact> 0.79496215E+03</totfact>
</mgrwt>
</event>
<event>
 9    1  0.7816570E-001  0.2757602E+03  0.7818608E-02  0.1098027E+00
         -1   -1    0    0    0  501 -0.00000000000E+00  0.00000000000E+00  0.41570065704E+03  0.41570065704E+03  0.00000000000E+00 0.  1.
          1   -1    0    0  501    0  0.00000000000E+00 -0.00000000000E+00 -0.45732249177E+02  0.45732249177E+02  0.00000000000E+00 0.  1.
         35    2    1    2    0    0 -0.71054273576E-14  0.00000000000E+00  0.36996840786E+03  0.46143290622E+03  0.27576022941E+03 0.  0.
         25    2    3    3    0    0 -0.41129903435E+02  0.39476177297E+02  0.21321917471E+03  0.25356594799E+03  0.12483283215E+03 0.  0.
         25    2    3    3    0    0  0.41129903435E+02 -0.39476177297E+02  0.15674923315E+03  0.20786695823E+03  0.12404963805E+03 0.  0.
          5    1    4    4  502    0 -0.20443446669E+02 -0.16803797056E+02 -0.48876980382E+01  0.27318156953E+02  0.47000000000E+01 0. -1.
         -5    1    4    4    0  502 -0.20686456766E+02  0.56279974352E+02  0.21810687275E+03  0.22624779103E+03  0.47000000000E+01 0. -1.
          5    1    5    5  503    0 -0.44527328386E+02 -0.10852400197E+02  0.54402952036E+02  0.71289752093E+02  0.47000000000E+01 0. -1.
         -5    1    5    5    0  503  0.85657231820E+02 -0.28623777099E+02  0.10234628112E+03  0.13657720614E+03  0.47000000000E+01 0. -1.
<mgrwt>
<rscale>  0 0.27576023E+03</rscale>
<asrwt>0</asrwt>
<pdfrwt beam="1">  1        1 0.70357309E-02 0.27576023E+03</pdfrwt>
<pdfrwt beam="2">  1       -1 0.63953945E-01 0.27576023E+03</pdfrwt>
<totfact> 0.26541310E+03</totfact>
</mgrwt>
</event>
<event>
 9    1  0.7816570E-001  0.2709046E+03  0.7818608E-02  0.1100763E+00
          2   -1    0    0  501    0  0.00000000000E+00  0.00000000000E+00  0.45600359352E+03  0.45600359352E+03  0.00000000000E+00 0.  1.
         -2   -1    0    0    0  501 -0.00000000000E+00 -0.00000000000E+00 -0.40235057950E+02  0.40235057950E+02  0.00000000000E+00 0.  1.
         35    2    1    2    0    0  0.71054273576E-14  0.71054273576E-14  0.41576853557E+03  0.49623865147E+03  0.27090464013E+03 0.  0.
         25    2    3    3    0    0 -0.41314410949E+02  0.16752467708E+02  0.25035285893E+03  0.28387097150E+03  0.12616912758E+03 0.  0.
         25    2    3    3    0    0  0.41314410949E+02 -0.16752467708E+02  0.16541567664E+03  0.21236767998E+03  0.12549964022E+03 0.  0.
          5    1    4    4  502    0 -0.21133209254E+01 -0.52588809545E+02  0.11860467116E+03  0.12984300919E+03  0.47000000000E+01 0. -1.
         -5    1    4    4    0  502 -0.39201090024E+02  0.69341277253E+02  0.13174818777E+03  0.15402796230E+03  0.47000000000E+01 0. -1.
          5    1    5    5  503    0  0.53353412297E+02 -0.51279179234E+02  0.45694629057E+02  0.87098966420E+02  0.47000000000E+01 0. -1.
         -5    1    5    5    0  503 -0.12039001348E+02  0.34526711526E+02  0.11972104758E+03  0.12526871356E+03  0.47000000000E+01 0. -1.
<mgrwt>
<rscale>  0 0.27090464E+03</rscale>
<asrwt>0</asrwt>
<pdfrwt beam="1">  1        2 0.70154395E-01 0.27090464E+03</pdfrwt>
<pdfrwt beam="2">  1       -2 0.61900092E-02 0.27090464E+03</pdfrwt>
<totfact> 0.96697688E+03</totfact>
</mgrwt>
</event>
<event>
 9    1  0.7816570E-001  0.2759398E+03  0.7818608E-02  0.1097927E+00
          1   -1    0    0  501    0  0.00000000000E+00  0.00000000000E+00  0.76557891386E+03  0.76557891386E+03  0.00000000000E+00 0. -1.
         -1   -1    0    0    0  501 -0.00000000000E+00 -0.00000000000E+00 -0.24864451509E+02  0.24864451509E+02  0.00000000000E+00 0. -1.
         35    2    1    2    0    0  0.00000000000E+00  0.00000000000E+00  0.74071446235E+03  0.79044336537E+03  0.27593984692E+03 0.  0.
         25    2    3    3    0    0 -0.32897033736E+02 -0.40958614466E+02  0.30281407451E+03  0.33200565552E+03  0.12558490613E+03 0.  0.
         25    2    3    3    0    0  0.32897033736E+02  0.40958614466E+02  0.43790038785E+03  0.45843770986E+03  0.12509420936E+03 0.  0.
          5    1    4    4  502    0 -0.61280941834E+02  0.16908821488E+01  0.25311105842E+03  0.26047170827E+03  0.47000000000E+01 0. -1.
         -5    1    4    4    0  502  0.28383908098E+02 -0.42649496614E+02  0.49703016084E+02  0.71533947243E+02  0.47000000000E+01 0. -1.
          5    1    5    5  503    0 -0.26467055316E+02  0.52620547895E+02  0.32436940736E+03  0.32970749083E+03  0.47000000000E+01 0.  1.
         -5    1    5    5    0  503  0.59364089053E+02 -0.11661933429E+02  0.11353098048E+03  0.12873021902E+03  0.47000000000E+01 0.  1.
<mgrwt>
<rscale>  0 0.27593985E+03</rscale>
<asrwt>0</asrwt>
<pdfrwt beam="1">  1        1 0.11778135E+00 0.27593985E+03</pdfrwt>
<pdfrwt beam="2">  1       -1 0.38253008E-02 0.27593985E+03</pdfrwt>
<totfact> 0.64675053E+03</totfact>
</mgrwt>
</event>
<event>
 9    1  0.7816570E-001  0.2750149E+03  0.7818608E-02  0.1098443E+00
          1   -1    0    0  501    0  0.00000000000E+00  0.00000000000E+00  0.93924194365E+02  0.93924194365E+02  0.00000000000E+00 0.  1.
         -1   -1    0    0    0  501 -0.00000000000E+00 -0.00000000000E+00 -0.20131440441E+03  0.20131440441E+03  0.00000000000E+00 0.  1.
         35    2    1    2    0    0  0.14210854715E-13 -0.35527136788E-14 -0.10739021005E+03  0.29523859878E+03  0.27501485959E+03 0.  0.
         25    2    3    3    0    0 -0.51237232618E+02 -0.13637525626E+02 -0.34571630506E+02  0.14169029536E+03  0.12676634432E+03 0.  0.
         25    2    3    3    0    0  0.51237232618E+02  0.13637525626E+02 -0.72818579543E+02  0.15354830342E+03  0.12435151726E+03 0.  0.
          5    1    4    4  502    0  0.19734298309E+02  0.31491196928E+02  0.18858057078E+02  0.41938697291E+02  0.47000000000E+01 0.  1.
         -5    1    4    4    0  502 -0.70971530927E+02 -0.45128722554E+02 -0.53429687583E+02  0.99751598066E+02  0.47000000000E+01 0.  1.
          5    1    5    5  503    0  0.16288920409E+02 -0.43522693986E+02  0.91319470964E+01  0.47592397267E+02  0.47000000000E+01 0.  1.
         -5    1    5    5    0  503  0.34948312210E+02  0.57160219612E+02 -0.81950526639E+02  0.10595590615E+03  0.47000000000E+01 0.  1.
<mgrwt>
<rscale>  0 0.27501486E+03</rscale>
<asrwt>0</asrwt>
<pdfrwt beam="1">  1        1 0.14449876E-01 0.27501486E+03</pdfrwt>
<pdfrwt beam="2">  1       -1 0.30971447E-01 0.27501486E+03</pdfrwt>
<totfact> 0.37671915E+03</totfact>
</mgrwt>
</event>
<event>
 9    1  0.7816570E-001  0.2756488E+03  0.7818608E-02  0.1098089E+00
         -1   -1    0    0    0  501 -0.00000000000E+00  0.00000000000E+00  0.32870718134E+03  0.32870718134E+03  0.00000000000E+00 0. -1.
          1   -1    0    0  501    0  0.00000000000E+00 -0.00000000000E+00 -0.57788707454E+02  0.57788707454E+02  0.00000000000E+00 0. -1.
         35    2    1    2    0    0  0.00000000000E+00  0.17763568394E-14  0.27091847388E+03  0.38649588879E+03  0.27564878480E+03 0.  0.
         25    2    3    3    0    0  0.50867691915E+02  0.13802892147E+02  0.18199948872E+03  0.22717757712E+03  0.12533074538E+03 0.  0.
         25    2    3    3    0    0 -0.50867691915E+02 -0.13802892147E+02  0.88918985163E+02  0.15931831168E+03  0.12123405710E+03 0.  0.
          5    1    4    4  502    0 -0.50100810787E+01  0.26930814309E+02 -0.77722726534E+01  0.28859450687E+02  0.47000000000E+01 0. -1.
         -5    1    4    4    0  502  0.55877772993E+02 -0.13127922163E+02  0.18977176137E+03  0.19831812643E+03  0.47000000000E+01 0. -1.
          5    1    5    5  503    0 -0.36374722218E+02  0.52147330767E+02  0.51640166085E+02  0.82044264125E+02  0.47000000000E+01 0.  1.
         -5    1    5    5    0  503 -0.14492969697E+02 -0.65950222913E+02  0.37278819078E+02  0.77274047550E+02  0.47000000000E+01 0.  1.
<mgrwt>
<rscale>  0 0.27564878E+03</rscale>
<asrwt>0</asrwt>
<pdfrwt beam="1">  1        1 0.88905706E-02 0.27564878E+03</pdfrwt>
<pdfrwt beam="2">  1       -1 0.50570335E-01 0.27564878E+03</pdfrwt>
<totfact> 0.30169547E+03</totfact>
</mgrwt>
</event>
<event>
 9    1  0.7816570E-001  0.2732385E+03  0.7818608E-02  0.1099440E+00
         -2   -1    0    0    0  501 -0.00000000000E+00  0.00000000000E+00  0.10039255198E+03  0.10039255198E+03  0.00000000000E+00 0. -1.
          2   -1    0    0  501    0  0.00000000000E+00 -0.00000000000E+00 -0.18591839950E+03  0.18591839950E+03  0.00000000000E+00 0. -1.
         35    2    1    2    0    0 -0.71054273576E-14  0.00000000000E+00 -0.85525847520E+02  0.28631095147E+03  0.27323852280E+03 0.  0.
         25    2    3    3    0    0 -0.37662385783E+02 -0.24772343017E+02 -0.88589619025E+01  0.13281649786E+03  0.12461788241E+03 0.  0.
         25    2    3    3    0    0  0.37662385783E+02  0.24772343017E+02 -0.76666885618E+02  0.15349445361E+03  0.12510240468E+03 0.  0.
          5    1    4    4  502    0 -0.71762084595E+02  0.21153555805E+02 -0.17387200405E+01  0.74982550343E+02  0.47000000000E+01 0. -1.
         -5    1    4    4    0  502  0.34099698812E+02 -0.45925898821E+02 -0.71202418620E+01  0.57833947520E+02  0.47000000000E+01 0. -1.
          5    1    5    5  503    0  0.36788711145E+01  0.24011951246E+02  0.31476590755E+02  0.40037153506E+02  0.47000000000E+01 0. -1.
         -5    1    5    5    0  503  0.33983514669E+02  0.76039177014E+00 -0.10814347637E+03  0.11345730010E+03  0.47000000000E+01 0. -1.
<mgrwt>
<rscale>  0 0.27323852E+03</rscale>
<asrwt>0</asrwt>
<pdfrwt beam="1">  1        2 0.28602830E-01 0.27323852E+03</pdfrwt>
<pdfrwt beam="2">  1       -2 0.15445008E-01 0.27323852E+03</pdfrwt>
<totfact> 0.59817511E+03</totfact>
</mgrwt>
</event>
<event>
 9    1  0.7816570E-001  0.2677650E+03  0.7818608E-02  0.1102566E+00
         -3   -1    0    0    0  501 -0.00000000000E+00  0.00000000000E+00  0.10207601595E+03  0.10207601595E+03  0.00000000000E+00 0.  1.
          3   -1    0    0  501    0  0.00000000000E+00 -0.00000000000E+00 -0.17559979877E+03  0.17559979877E+03  0.00000000000E+00 0.  1.
         35    2    1    2    0    0 -0.10658141036E-13 -0.35527136788E-14 -0.73523782819E+02  0.27767581472E+03  0.26776503028E+03 0.  0.
         25    2    3    3    0    0 -0.25217997482E+02  0.30130976417E+01  0.72073019682E+01  0.12747286665E+03  0.12470910302E+03 0.  0.
         25    2    3    3    0    0  0.25217997482E+02 -0.30130976417E+01 -0.80731084787E+02  0.15020294807E+03  0.12409025507E+03 0.  0.
          5    1    4    4  502    0  0.40156662036E+02 -0.17517951654E+02  0.31994318003E+02  0.54453305873E+02  0.47000000000E+01 0. -1.
         -5    1    4    4    0  502 -0.65374659518E+02  0.20531049296E+02 -0.24787016035E+02  0.73019560778E+02  0.47000000000E+01 0. -1.
          5    1    5    5  503    0  0.54122700252E+02  0.37506293545E+02 -0.74946928117E+02  0.99875526393E+02  0.47000000000E+01 0.  1.
         -5    1    5    5    0  503 -0.28904702770E+02 -0.40519391187E+02 -0.57841566701E+01  0.50327421678E+02  0.47000000000E+01 0.  1.
<mgrwt>
<rscale>  0 0.26776503E+03</rscale>
<asrwt>0</asrwt>
<pdfrwt beam="1">  1        3 0.27015354E-01 0.26776503E+03</pdfrwt>
<pdfrwt beam="2">  1       -3 0.15704002E-01 0.26776503E+03</pdfrwt>
<totfact> 0.11338228E+03</totfact>
</mgrwt>
</event>
<event>
 9    1  0.7816570E-001  0.2731783E+03  0.7818608E-02  0.1099474E+00
          2   -1    0    0  501    0  0.00000000000E+00  0.00000000000E+00  0.86589494978E+03  0.86589494978E+03  0.00000000000E+00 0.  1.
         -2   -1    0    0    0  501 -0.00000000000E+00 -0.00000000000E+00 -0.21546032866E+02  0.21546032866E+02  0.00000000000E+00 0.  1.
         35    2    1    2    0    0  0.00000000000E+00 -0.71054273576E-14  0.84434891692E+03  0.88744098265E+03  0.27317833770E+03 0.  0.
         25    2    3    3    0    0  0.21011575757E+02 -0.48536670675E+02  0.47686016850E+03  0.49581048923E+03  0.12504049831E+03 0.  0.
         25    2    3    3    0    0 -0.21011575757E+02  0.48536670675E+02  0.36748874842E+03  0.39163049342E+03  0.12461608420E+03 0.  0.
          5    1    4    4  502    0  0.34840154138E+02  0.35467469247E+02  0.19842583654E+03  0.20461349008E+03  0.47000000000E+01 0.  1.
         -5    1    4    4    0  502 -0.13828578380E+02 -0.84004139923E+02  0.27843433196E+03  0.29119699915E+03  0.47000000000E+01 0.  1.
          5    1    5    5  503    0 -0.16292670917E+02  0.90503990130E+02  0.23082061711E+03  0.24850889449E+03  0.47000000000E+01 0.  1.
         -5    1    5    5    0  503 -0.47189048406E+01 -0.41967319455E+02  0.13666813130E+03  0.14312159893E+03  0.47000000000E+01 0.  1.
<mgrwt>
<rscale>  0 0.27317834E+03</rscale>
<asrwt>0</asrwt>
<pdfrwt beam="1">  1        2 0.13321458E+00 0.27317834E+03</pdfrwt>
<pdfrwt beam="2">  1       -2 0.33147750E-02 0.27317834E+03</pdfrwt>
<totfact> 0.11629566E+04</totfact>
</mgrwt>
</event>
<event>
 9    1  0.7816570E-001  0.2758220E+03  0.7818608E-02  0.1097993E+00
          1   -1    0    0  501    0  0.00000000000E+00  0.00000000000E+00  0.34662803985E+02  0.34662803985E+02  0.00000000000E+00 0. -1.
         -1   -1    0    0    0  501 -0.00000000000E+00 -0.00000000000E+00 -0.54869878000E+03  0.54869878000E+03  0.00000000000E+00 0. -1.
         35    2    1    2    0    0  0.71054273576E-14  0.00000000000E+00 -0.51403597602E+03  0.58336158399E+03  0.27582195894E+03 0.  0.
         25    2    3    3    0    0 -0.24344040641E+02 -0.46313229754E+02 -0.20647977932E+03  0.24764673427E+03  0.12632283310E+03 0.  0.
         25    2    3    3    0    0  0.24344040641E+02  0.46313229754E+02 -0.30755619670E+03  0.33571484972E+03  0.12400039770E+03 0.  0.
          5    1    4    4  502    0  0.44668238049E+02  0.35606836387E+01 -0.38516420766E+02  0.59275075934E+02  0.47000000000E+01 0.  1.
         -5    1    4    4    0  502 -0.69012278690E+02 -0.49873913393E+02 -0.16796335855E+03  0.18837165834E+03  0.47000000000E+01 0.  1.
          5    1    5    5  503    0  0.38380743595E+02 -0.27126725622E+02 -0.19403703067E+03  0.19970327987E+03  0.47000000000E+01 0. -1.
         -5    1    5    5    0  503 -0.14036702953E+02  0.73439955377E+02 -0.11351916603E+03  0.13601156984E+03  0.47000000000E+01 0. -1.
<mgrwt>
<rscale>  0 0.27582196E+03</rscale>
<asrwt>0</asrwt>
<pdfrwt beam="1">  1        1 0.53327392E-02 0.27582196E+03</pdfrwt>
<pdfrwt beam="2">  1       -1 0.84415195E-01 0.27582196E+03</pdfrwt>
<totfact> 0.22140487E+03</totfact>
</mgrwt>
</event>
<event>
 9    1  0.7816570E-001  0.2795780E+03  0.7818608E-02  0.1095920E+00
         -1   -1    0    0    0  501 -0.00000000000E+00  0.00000000000E+00  0.50944773886E+02  0.50944773886E+02  0.00000000000E+00 0. -1.
          1   -1    0    0  501    0  0.00000000000E+00 -0.00000000000E+00 -0.38357144764E+03  0.38357144764E+03  0.00000000000E+00 0. -1.
         35    2    1    2    0    0  0.71054273576E-14  0.71054273576E-14 -0.33262667376E+03  0.43451622153E+03  0.27957797245E+03 0.  0.
         25    2    3    3    0    0 -0.42091598064E+02 -0.45436131482E+02 -0.19153579744E+03  0.23612230312E+03  0.12341651292E+03 0.  0.
         25    2    3    3    0    0  0.42091598064E+02  0.45436131482E+02 -0.14109087632E+03  0.19839391841E+03  0.12496946350E+03 0.  0.
          5    1    4    4  502    0 -0.60360211184E-01 -0.35154202146E+02  0.41000030481E+01  0.35703243507E+02  0.47000000000E+01 0.  1.
         -5    1    4    4    0  502 -0.42031237853E+02 -0.10281929335E+02 -0.19563580049E+03  0.20041905962E+03  0.47000000000E+01 0.  1.
          5    1    5    5  503    0 -0.44262895371E+02  0.17953587848E+02 -0.58723623790E+02  0.75842529060E+02  0.47000000000E+01 0. -1.
         -5    1    5    5    0  503  0.86354493435E+02  0.27482543634E+02 -0.82367252531E+02  0.12255138935E+03  0.47000000000E+01 0. -1.
<mgrwt>
<rscale>  0 0.27957797E+03</rscale>
<asrwt>0</asrwt>
<pdfrwt beam="1">  1        1 0.59010993E-01 0.27957797E+03</pdfrwt>
<pdfrwt beam="2">  1       -1 0.78376574E-02 0.27957797E+03</pdfrwt>
<totfact> 0.56552223E+03</totfact>
</mgrwt>
</event>
<event>
 9    1  0.7816570E-001  0.2743990E+03  0.7818608E-02  0.1098788E+00
         -3   -1    0    0    0  501 -0.00000000000E+00  0.00000000000E+00  0.19432369709E+03  0.19432369709E+03  0.00000000000E+00 0. -1.
          3   -1    0    0  501    0  0.00000000000E+00 -0.00000000000E+00 -0.96867780375E+02  0.96867780375E+02  0.00000000000E+00 0. -1.
         35    2    1    2    0    0  0.00000000000E+00  0.35527136788E-14  0.97455916710E+02  0.29119147746E+03  0.27439901757E+03 0.  0.
         25    2    3    3    0    0  0.37615049157E+02 -0.29843306464E+02  0.79140346478E+02  0.15637324358E+03  0.12603127391E+03 0.  0.
         25    2    3    3    0    0 -0.37615049157E+02  0.29843306464E+02  0.18315570232E+02  0.13481823388E+03  0.12463940472E+03 0.  0.
          5    1    4    4  502    0  0.10593426823E+02 -0.36103407700E+02  0.10896491876E+03  0.11537382831E+03  0.47000000000E+01 0. -1.
         -5    1    4    4    0  502  0.27021622334E+02  0.62601012353E+01 -0.29824572277E+02  0.40999415271E+02  0.47000000000E+01 0. -1.
          5    1    5    5  503    0  0.44880875714E+02 -0.91514141268E+00  0.10222406760E+02  0.46278700161E+02  0.47000000000E+01 0. -1.
         -5    1    5    5    0  503 -0.82495924871E+02  0.30758447877E+02  0.80931634724E+01  0.88539533719E+02  0.47000000000E+01 0. -1.
<mgrwt>
<rscale>  0 0.27439902E+03</rscale>
<asrwt>0</asrwt>
<pdfrwt beam="1">  1        3 0.14902736E-01 0.27439902E+03</pdfrwt>
<pdfrwt beam="2">  1       -3 0.29895953E-01 0.27439902E+03</pdfrwt>
<totfact> 0.10313278E+03</totfact>
</mgrwt>
</event>
<event>
 9    1  0.7816570E-001  0.2759340E+03  0.7818608E-02  0.1097931E+00
         -2   -1    0    0    0  501 -0.00000000000E+00  0.00000000000E+00  0.39160860786E+02  0.39160860786E+02  0.00000000000E+00 0. -1.
          2   -1    0    0  501    0  0.00000000000E+00 -0.00000000000E+00 -0.48606940842E+03  0.48606940842E+03  0.00000000000E+00 0. -1.
         35    2    1    2    0    0  0.35527136788E-14  0.71054273576E-14 -0.44690854764E+03  0.52523026921E+03  0.27593402426E+03 0.  0.
         25    2    3    3    0    0  0.26842980155E+02 -0.47768499936E+02 -0.27559645873E+03  0.30661543850E+03  0.12270796179E+03 0.  0.
         25    2    3    3    0    0 -0.26842980155E+02  0.47768499936E+02 -0.17131208890E+03  0.21861483071E+03  0.12426679860E+03 0.  0.
          5    1    4    4  502    0  0.57550382355E+02 -0.12852947673E+02 -0.24182651566E+03  0.24895661961E+03  0.47000000000E+01 0.  1.
         -5    1    4    4    0  502 -0.30707402200E+02 -0.34915552263E+02 -0.33769943077E+02  0.57658818884E+02  0.47000000000E+01 0.  1.
          5    1    5    5  503    0  0.24593028837E+02 -0.17831788570E+02 -0.11214779541E+03  0.11628416816E+03  0.47000000000E+01 0.  1.
         -5    1    5    5    0  503 -0.51436008991E+02  0.65600288506E+02 -0.59164293497E+02  0.10233066255E+03  0.47000000000E+01 0.  1.
<mgrwt>
<rscale>  0 0.27593402E+03</rscale>
<asrwt>0</asrwt>
<pdfrwt beam="1">  1        2 0.74779913E-01 0.27593402E+03</pdfrwt>
<pdfrwt beam="2">  1       -2 0.60247475E-02 0.27593402E+03</pdfrwt>
<totfact> 0.93983211E+03</totfact>
</mgrwt>
</event>
<event>
 9    1  0.7816570E-001  0.2759323E+03  0.7818608E-02  0.1097932E+00
         -1   -1    0    0    0  501 -0.00000000000E+00  0.00000000000E+00  0.94631417903E+02  0.94631417903E+02  0.00000000000E+00 0. -1.
          1   -1    0    0  501    0  0.00000000000E+00 -0.00000000000E+00 -0.20114516445E+03  0.20114516445E+03  0.00000000000E+00 0. -1.
         35    2    1    2    0    0  0.00000000000E+00  0.00000000000E+00 -0.10651374655E+03  0.29577658235E+03  0.27593225340E+03 0.  0.
         25    2    3    3    0    0  0.20441469422E+02 -0.51894159714E+02 -0.43866488687E+02  0.14426572552E+03  0.12560841232E+03 0.  0.
         25    2    3    3    0    0 -0.20441469422E+02  0.51894159714E+02 -0.62647257859E+02  0.15151085683E+03  0.12617449559E+03 0.  0.
          5    1    4    4  502    0 -0.33325728606E+02  0.17683830714E+02 -0.41351331527E+02  0.56172454771E+02  0.47000000000E+01 0. -1.
         -5    1    4    4    0  502  0.53767198028E+02 -0.69577990428E+02 -0.25151571601E+01  0.88093270749E+02  0.47000000000E+01 0. -1.
          5    1    5    5  503    0 -0.58078071141E+02  0.59691049023E+02 -0.69890188119E+01  0.83707945053E+02  0.47000000000E+01 0.  1.
         -5    1    5    5    0  503  0.37636601720E+02 -0.77968893098E+01 -0.55658239047E+02  0.67802911779E+02  0.47000000000E+01 0.  1.
<mgrwt>
<rscale>  0 0.27593225E+03</rscale>
<asrwt>0</asrwt>
<pdfrwt beam="1">  1        1 0.30945410E-01 0.27593225E+03</pdfrwt>
<pdfrwt beam="2">  1       -1 0.14558680E-01 0.27593225E+03</pdfrwt>
<totfact> 0.48759914E+03</totfact>
</mgrwt>
</event>
<event>
 9    1  0.7816570E-001  0.2764133E+03  0.7818608E-02  0.1097664E+00
          1   -1    0    0  501    0  0.00000000000E+00  0.00000000000E+00  0.19807064614E+03  0.19807064614E+03  0.00000000000E+00 0.  1.
         -1   -1    0    0    0  501 -0.00000000000E+00 -0.00000000000E+00 -0.96435659088E+02  0.96435659088E+02  0.00000000000E+00 0.  1.
         35    2    1    2    0    0  0.00000000000E+00  0.00000000000E+00  0.10163498705E+03  0.29450630523E+03  0.27641326529E+03 0.  0.
         25    2    3    3    0    0  0.53539006045E+02  0.15449719988E+02  0.72408446358E+02  0.15512836527E+03  0.12536629369E+03 0.  0.
         25    2    3    3    0    0 -0.53539006045E+02 -0.15449719988E+02  0.29226540695E+02  0.13937793995E+03  0.12436599394E+03 0.  0.
          5    1    4    4  502    0  0.78319055369E+02  0.12570261253E+02  0.93084861667E+02  0.12238777461E+03  0.47000000000E+01 0. -1.
         -5    1    4    4    0  502 -0.24780049325E+02  0.28794587356E+01 -0.20676415309E+02  0.32740590666E+02  0.47000000000E+01 0. -1.
          5    1    5    5  503    0 -0.10947000985E+02 -0.57422546474E+02  0.48788523516E+02  0.76286274657E+02  0.47000000000E+01 0.  1.
         -5    1    5    5    0  503 -0.42592005059E+02  0.41972826486E+02 -0.19561982821E+02  0.63091665298E+02  0.47000000000E+01 0.  1.
<mgrwt>
<rscale>  0 0.27641327E+03</rscale>
<asrwt>0</asrwt>
<pdfrwt beam="1">  1        1 0.30472407E-01 0.27641327E+03</pdfrwt>
<pdfrwt beam="2">  1       -1 0.14836255E-01 0.27641327E+03</pdfrwt>
<totfact> 0.48253161E+03</totfact>
</mgrwt>
</event>
<event>
 9    1  0.7816570E-001  0.2729826E+03  0.7818608E-02  0.1099585E+00
          2   -1    0    0  501    0  0.00000000000E+00  0.00000000000E+00  0.50141767382E+03  0.50141767382E+03  0.00000000000E+00 0. -1.
         -2   -1    0    0    0  501 -0.00000000000E+00 -0.00000000000E+00 -0.37154391637E+02  0.37154391637E+02  0.00000000000E+00 0. -1.
         35    2    1    2    0    0  0.00000000000E+00 -0.71054273576E-14  0.46426328218E+03  0.53857206546E+03  0.27298255349E+03 0.  0.
         25    2    3    3    0    0  0.31370165900E+01  0.50155545020E+02  0.18597230554E+03  0.22947686056E+03  0.12469367080E+03 0.  0.
         25    2    3    3    0    0 -0.31370165900E+01 -0.50155545020E+02  0.27829097665E+03  0.30909520489E+03  0.12477402949E+03 0.  0.
          5    1    4    4  502    0  0.18072514935E+02  0.84094810456E+02  0.16618668542E+03  0.18718615694E+03  0.47000000000E+01 0.  1.
         -5    1    4    4    0  502 -0.14935498345E+02 -0.33939265436E+02  0.19785620119E+02  0.42290703620E+02  0.47000000000E+01 0.  1.
          5    1    5    5  503    0  0.22536062087E+02 -0.82646972565E+02  0.22901981380E+03  0.24456197841E+03  0.47000000000E+01 0.  1.
         -5    1    5    5    0  503 -0.25673078677E+02  0.32491427545E+02  0.49271162845E+02  0.64533226486E+02  0.47000000000E+01 0.  1.
<mgrwt>
<rscale>  0 0.27298255E+03</rscale>
<asrwt>0</asrwt>
<pdfrwt beam="1">  1        2 0.77141175E-01 0.27298255E+03</pdfrwt>
<pdfrwt beam="2">  1       -2 0.57160606E-02 0.27298255E+03</pdfrwt>
<totfact> 0.98354675E+03</totfact>
</mgrwt>
</event>
<event>
 9    1  0.7816570E-001  0.2965633E+03  0.7818608E-02  0.1086971E+00
          2   -1    0    0  501    0  0.00000000000E+00  0.00000000000E+00  0.15837838468E+04  0.15837838468E+04  0.00000000000E+00 0.  1.
         -2   -1    0    0    0  501 -0.00000000000E+00 -0.00000000000E+00 -0.13882860464E+02  0.13882860464E+02  0.00000000000E+00 0.  1.
         35    2    1    2    0    0  0.17763568394E-14  0.00000000000E+00  0.15699009864E+04  0.15976667073E+04  0.29656331635E+03 0.  0.
         25    2    3    3    0    0 -0.69704178701E+01  0.68187269558E+02  0.55641330488E+03  0.57433147991E+03  0.12475092187E+03 0.  0.
         25    2    3    3    0    0  0.69704178701E+01 -0.68187269558E+02  0.10134876815E+04  0.10233352274E+04  0.12393392044E+03 0.  0.
          5    1    4    4  502    0 -0.49393912902E+02  0.75941424075E+02  0.27452108600E+03  0.28912069311E+03  0.47000000000E+01 0.  1.
         -5    1    4    4    0  502  0.42423495031E+02 -0.77541545167E+01  0.28189221888E+03  0.28521078680E+03  0.47000000000E+01 0.  1.
          5    1    5    5  503    0 -0.63296971892E+01 -0.19654185654E+02  0.21912952364E+02  0.30473259779E+02  0.47000000000E+01 0. -1.
         -5    1    5    5    0  503  0.13300115059E+02 -0.48533083904E+02  0.99157472911E+03  0.99286196759E+03  0.47000000000E+01 0. -1.
<mgrwt>
<rscale>  0 0.29656332E+03</rscale>
<asrwt>0</asrwt>
<pdfrwt beam="1">  1        2 0.24365891E+00 0.29656332E+03</pdfrwt>
<pdfrwt beam="2">  1       -2 0.21358259E-02 0.29656332E+03</pdfrwt>
<totfact> 0.86485142E+03</totfact>
</mgrwt>
</event>
<event>
 9    1  0.7816570E-001  0.2766222E+03  0.7818608E-02  0.1097548E+00
         -2   -1    0    0    0  501 -0.00000000000E+00  0.00000000000E+00  0.25279807113E+02  0.25279807113E+02  0.00000000000E+00 0. -1.
          2   -1    0    0  501    0  0.00000000000E+00 -0.00000000000E+00 -0.75672894248E+03  0.75672894248E+03  0.00000000000E+00 0. -1.
         35    2    1    2    0    0  0.00000000000E+00 -0.35527136788E-14 -0.73144913536E+03  0.78200874959E+03  0.27662220954E+03 0.  0.
         25    2    3    3    0    0 -0.41884451803E+02  0.10624505351E+02 -0.47437750839E+03  0.49230511176E+03  0.12435077475E+03 0.  0.
         25    2    3    3    0    0  0.41884451803E+02 -0.10624505351E+02 -0.25707162697E+03  0.28970363783E+03  0.12639299412E+03 0.  0.
          5    1    4    4  502    0  0.33596809664E+02 -0.29343661774E+02 -0.13238095280E+03  0.13977339794E+03  0.47000000000E+01 0.  1.
         -5    1    4    4    0  502 -0.75481261467E+02  0.39968167125E+02 -0.34199655558E+03  0.35253171382E+03  0.47000000000E+01 0.  1.
          5    1    5    5  503    0  0.66299577525E+00 -0.30374241494E+02 -0.23079518141E+01  0.30829381299E+02  0.47000000000E+01 0.  1.
         -5    1    5    5    0  503  0.41221456027E+02  0.19749736143E+02 -0.25476367516E+03  0.25887425653E+03  0.47000000000E+01 0.  1.
<mgrwt>
<rscale>  0 0.27662221E+03</rscale>
<asrwt>0</asrwt>
<pdfrwt beam="1">  1        2 0.11641983E+00 0.27662221E+03</pdfrwt>
<pdfrwt beam="2">  1       -2 0.38892012E-02 0.27662221E+03</pdfrwt>
<totfact> 0.10881286E+04</totfact>
</mgrwt>
</event>
<event>
 9    1  0.7816570E-001  0.2688475E+03  0.7818608E-02  0.1101941E+00
          2   -1    0    0  501    0  0.00000000000E+00  0.00000000000E+00  0.15588248560E+04  0.15588248560E+04  0.00000000000E+00 0. -1.
         -2   -1    0    0    0  501 -0.00000000000E+00 -0.00000000000E+00 -0.11591898523E+02  0.11591898523E+02  0.00000000000E+00 0. -1.
         35    2    1    2    0    0  0.00000000000E+00 -0.71054273576E-14  0.15472329574E+04  0.15704167545E+04  0.26884746267E+03 0.  0.
         25    2    3    3    0    0  0.10160079214E+02 -0.15239738534E+02  0.10257578774E+04  0.10334612295E+04  0.12460904051E+03 0.  0.
         25    2    3    3    0    0 -0.10160079214E+02  0.15239738534E+02  0.52147508000E+03  0.53695552496E+03  0.12668662075E+03 0.  0.
          5    1    4    4  502    0 -0.16194917425E+02 -0.54092099815E+02  0.25311712944E+03  0.25938119020E+03  0.47000000000E+01 0.  1.
         -5    1    4    4    0  502  0.26354996640E+02  0.38852361281E+02  0.77264074801E+03  0.77408003934E+03  0.47000000000E+01 0.  1.
          5    1    5    5  503    0  0.49813676482E+02  0.85612184007E+01  0.11118323249E+03  0.12222314843E+03  0.47000000000E+01 0. -1.
         -5    1    5    5    0  503 -0.59973755697E+02  0.66785201331E+01  0.41029184752E+03  0.41473237653E+03  0.47000000000E+01 0. -1.
<mgrwt>
<rscale>  0 0.26884746E+03</rscale>
<asrwt>0</asrwt>
<pdfrwt beam="1">  1        2 0.23981904E+00 0.26884746E+03</pdfrwt>
<pdfrwt beam="2">  1       -2 0.17833702E-02 0.26884746E+03</pdfrwt>
<totfact> 0.11607686E+04</totfact>
</mgrwt>
</event>
<event>
 9    1  0.7816570E-001  0.2795022E+03  0.7818608E-02  0.1095961E+00
         -4   -1    0    0    0  501 -0.00000000000E+00  0.00000000000E+00  0.51908964228E+02  0.51908964228E+02  0.00000000000E+00 0.  1.
          4   -1    0    0  501    0  0.00000000000E+00 -0.00000000000E+00 -0.37624282814E+03  0.37624282814E+03  0.00000000000E+00 0.  1.
         35    2    1    2    0    0  0.14210854715E-13  0.35527136788E-14 -0.32433386391E+03  0.42815179237E+03  0.27950223975E+03 0.  0.
         25    2    3    3    0    0  0.43044559382E+02  0.29284021596E+02 -0.20318573115E+03  0.24573737933E+03  0.12803136429E+03 0.  0.
         25    2    3    3    0    0 -0.43044559382E+02 -0.29284021596E+02 -0.12114813276E+03  0.18241441304E+03  0.12604665803E+03 0.  0.
          5    1    4    4  502    0  0.74940763354E+02 -0.18957533066E+02 -0.91464535839E+02  0.11984722520E+03  0.47000000000E+01 0. -1.
         -5    1    4    4    0  502 -0.31896203971E+02  0.48241554662E+02 -0.11172119531E+03  0.12589015413E+03  0.47000000000E+01 0. -1.
          5    1    5    5  503    0  0.35807821957E+02  0.40154243483E+01 -0.30247958491E+01  0.36463175066E+02  0.47000000000E+01 0. -1.
         -5    1    5    5    0  503 -0.78852381339E+02 -0.33299445944E+02 -0.11812333691E+03  0.14595123797E+03  0.47000000000E+01 0. -1.
<mgrwt>
<rscale>  0 0.27950224E+03</rscale>
<asrwt>0</asrwt>
<pdfrwt beam="1">  1        4 0.57883514E-01 0.27950224E+03</pdfrwt>
<pdfrwt beam="2">  1       -4 0.79859942E-02 0.27950224E+03</pdfrwt>
<totfact> 0.59516775E+02</totfact>
</mgrwt>
</event>
<event>
 9    1  0.7816570E-001  0.2757791E+03  0.7818608E-02  0.1098017E+00
         -2   -1    0    0    0  501 -0.00000000000E+00  0.00000000000E+00  0.83821969795E+01  0.83821969795E+01  0.00000000000E+00 0.  1.
          2   -1    0    0  501    0  0.00000000000E+00 -0.00000000000E+00 -0.22683223047E+04  0.22683223047E+04  0.00000000000E+00 0.  1.
         35    2    1    2    0    0  0.00000000000E+00  0.00000000000E+00 -0.22599401077E+04  0.22767045017E+04  0.27577907369E+03 0.  0.
         25    2    3    3    0    0  0.18534077758E+02 -0.39051473613E+02 -0.14577644996E+04  0.14637028422E+04  0.12441922810E+03 0.  0.
         25    2    3    3    0    0 -0.18534077758E+02  0.39051473613E+02 -0.80217560812E+03  0.81300165948E+03  0.12496984610E+03 0.  0.
          5    1    4    4  502    0  0.40164965491E+02 -0.77460618181E+02 -0.96318376126E+03  0.96713929699E+03  0.47000000000E+01 0. -1.
         -5    1    4    4    0  502 -0.21630887733E+02  0.38409144568E+02 -0.49458073836E+03  0.49656354522E+03  0.47000000000E+01 0. -1.
          5    1    5    5  503    0 -0.41782242078E+02  0.44209531997E+02 -0.77138540358E+03  0.77379439733E+03  0.47000000000E+01 0. -1.
         -5    1    5    5    0  503  0.23248164321E+02 -0.51580583840E+01 -0.30790204533E+02  0.39207262156E+02  0.47000000000E+01 0. -1.
<mgrwt>
<rscale>  0 0.27577907E+03</rscale>
<asrwt>0</asrwt>
<pdfrwt beam="1">  1        2 0.34897271E+00 0.27577907E+03</pdfrwt>
<pdfrwt beam="2">  1       -2 0.12895686E-02 0.27577907E+03</pdfrwt>
<totfact> 0.78796132E+03</totfact>
</mgrwt>
</event>
<event>
 9    1  0.7816570E-001  0.2770638E+03  0.7818608E-02  0.1097304E+00
          2   -1    0    0  501    0  0.00000000000E+00  0.00000000000E+00  0.48316129396E+04  0.48316129396E+04  0.00000000000E+00 0.  1.
         -2   -1    0    0    0  501 -0.00000000000E+00 -0.00000000000E+00 -0.39719822834E+01  0.39719822834E+01  0.00000000000E+00 0.  1.
         35    2    1    2    0    0  0.00000000000E+00  0.71054273576E-14  0.48276409573E+04  0.48355849219E+04  0.27706375437E+03 0.  0.
         25    2    3    3    0    0  0.17118263945E+02 -0.44518844501E+02  0.30365389772E+04  0.30394775038E+04  0.12481816133E+03 0.  0.
         25    2    3    3    0    0 -0.17118263945E+02  0.44518844501E+02  0.17911019801E+04  0.17961074181E+04  0.12522216954E+03 0.  0.
          5    1    4    4  502    0  0.82495558954E+01  0.32937233352E+02  0.18760878379E+04  0.18764009652E+04  0.47000000000E+01 0.  1.
         -5    1    4    4    0  502  0.88687080498E+01 -0.77456077853E+02  0.11604511393E+04  0.11630765386E+04  0.47000000000E+01 0.  1.
          5    1    5    5  503    0 -0.57028803176E+02 -0.15055410407E+02  0.99971523370E+03  0.10014647214E+04  0.47000000000E+01 0. -1.
         -5    1    5    5    0  503  0.39910539231E+02  0.59574254908E+02  0.79138674644E+03  0.79464269671E+03  0.47000000000E+01 0. -1.
<mgrwt>
<rscale>  0 0.27706375E+03</rscale>
<asrwt>0</asrwt>
<pdfrwt beam="1">  1        2 0.74332037E+00 0.27706375E+03</pdfrwt>
<pdfrwt beam="2">  1       -2 0.61107806E-03 0.27706375E+03</pdfrwt>
<totfact> 0.34275500E+02</totfact>
</mgrwt>
</event>
<event>
 9    1  0.7816570E-001  0.2701506E+03  0.7818608E-02  0.1101193E+00
         -2   -1    0    0    0  501 -0.00000000000E+00  0.00000000000E+00  0.67590856911E+02  0.67590856911E+02  0.00000000000E+00 0.  1.
          2   -1    0    0  501    0  0.00000000000E+00 -0.00000000000E+00 -0.26993802457E+03  0.26993802457E+03  0.00000000000E+00 0.  1.
         35    2    1    2    0    0  0.17763568394E-14 -0.71054273576E-14 -0.20234716765E+03  0.33752888148E+03  0.27015064237E+03 0.  0.
         25    2    3    3    0    0  0.58997702059E+01 -0.38124104397E+02 -0.14088608281E+03  0.19315491763E+03  0.12637910923E+03 0.  0.
         25    2    3    3    0    0 -0.58997702059E+01  0.38124104397E+02 -0.61461084841E+02  0.14437396385E+03  0.12481234660E+03 0.  0.
          5    1    4    4  502    0  0.54926329689E+02  0.25387232779E+01 -0.10808024233E+03  0.12135392697E+03  0.47000000000E+01 0.  1.
         -5    1    4    4    0  502 -0.49026559483E+02 -0.40662827675E+02 -0.32805840479E+02  0.71800990654E+02  0.47000000000E+01 0.  1.
          5    1    5    5  503    0 -0.14889018967E+02 -0.44596971615E+02 -0.20391617121E+02  0.51463392930E+02  0.47000000000E+01 0. -1.
         -5    1    5    5    0  503  0.89892487614E+01  0.82721076012E+02 -0.41069467719E+02  0.92910570920E+02  0.47000000000E+01 0. -1.
<mgrwt>
<rscale>  0 0.27015064E+03</rscale>
<asrwt>0</asrwt>
<pdfrwt beam="1">  1        2 0.41528927E-01 0.27015064E+03</pdfrwt>
<pdfrwt beam="2">  1       -2 0.10398593E-01 0.27015064E+03</pdfrwt>
<totfact> 0.75781065E+03</totfact>
</mgrwt>
</event>
<event>
 9    1  0.7816570E-001  0.2675426E+03  0.7818608E-02  0.1102694E+00
          2   -1    0    0  501    0  0.00000000000E+00  0.00000000000E+00  0.17071666688E+03  0.17071666688E+03  0.00000000000E+00 0.  1.
         -2   -1    0    0    0  501 -0.00000000000E+00 -0.00000000000E+00 -0.10482136879E+03  0.10482136879E+03  0.00000000000E+00 0.  1.
         35    2    1    2    0    0  0.00000000000E+00  0.71054273576E-14  0.65895298086E+02  0.27553803566E+03  0.26754255510E+03 0.  0.
         25    2    3    3    0    0  0.19885578698E+02  0.37507560169E+02  0.11846112232E+02  0.13223690819E+03  0.12467564398E+03 0.  0.
         25    2    3    3    0    0 -0.19885578698E+02 -0.37507560169E+02  0.54049185855E+02  0.14330112747E+03  0.12574436502E+03 0.  0.
          5    1    4    4  502    0 -0.17318701296E+02  0.36042429113E+02 -0.47345798878E+02  0.62150694142E+02  0.47000000000E+01 0. -1.
         -5    1    4    4    0  502  0.37204279994E+02  0.14651310553E+01  0.59191911109E+02  0.70086214049E+02  0.47000000000E+01 0. -1.
          5    1    5    5  503    0 -0.33775795238E+02  0.26451927845E+01  0.84272566250E+02  0.90949199069E+02  0.47000000000E+01 0. -1.
         -5    1    5    5    0  503  0.13890216539E+02 -0.40152752953E+02 -0.30223380396E+02  0.52351928405E+02  0.47000000000E+01 0. -1.
<mgrwt>
<rscale>  0 0.26754256E+03</rscale>
<asrwt>0</asrwt>
<pdfrwt beam="1">  1        2 0.26264103E-01 0.26754256E+03</pdfrwt>
<pdfrwt beam="2">  1       -2 0.16126364E-01 0.26754256E+03</pdfrwt>
<totfact> 0.61141354E+03</totfact>
</mgrwt>
</event>
<event>
 9    1  0.7816570E-001  0.2835624E+03  0.7818608E-02  0.1093759E+00
          4   -1    0    0  501    0  0.00000000000E+00  0.00000000000E+00  0.18615382122E+03  0.18615382122E+03  0.00000000000E+00 0. -1.
         -4   -1    0    0    0  501 -0.00000000000E+00 -0.00000000000E+00 -0.10798544343E+03  0.10798544343E+03  0.00000000000E+00 0. -1.
         35    2    1    2    0    0 -0.35527136788E-14  0.00000000000E+00  0.78168377786E+02  0.29413926464E+03  0.28356235949E+03 0.  0.
         25    2    3    3    0    0 -0.16645944610E+02  0.66557730298E+02  0.37800165249E+02  0.14663162907E+03  0.12395548885E+03 0.  0.
         25    2    3    3    0    0  0.16645944610E+02 -0.66557730298E+02  0.40368212536E+02  0.14750763558E+03  0.12418490663E+03 0.  0.
          5    1    4    4  502    0  0.17659633360E+02  0.22874023654E+02 -0.40833253067E+02  0.50244682948E+02  0.47000000000E+01 0. -1.
         -5    1    4    4    0  502 -0.34305577971E+02  0.43683706644E+02  0.78633418317E+02  0.96386946119E+02  0.47000000000E+01 0. -1.
          5    1    5    5  503    0  0.13097387432E+02 -0.91111994591E+02 -0.84405177503E+01  0.92554143375E+02  0.47000000000E+01 0. -1.
         -5    1    5    5    0  503  0.35485571780E+01  0.24554264293E+02  0.48808730287E+02  0.54953492203E+02  0.47000000000E+01 0. -1.
<mgrwt>
<rscale>  0 0.28356236E+03</rscale>
<asrwt>0</asrwt>
<pdfrwt beam="1">  1        4 0.28639049E-01 0.28356236E+03</pdfrwt>
<pdfrwt beam="2">  1       -4 0.16613145E-01 0.28356236E+03</pdfrwt>
<totfact> 0.68795965E+02</totfact>
</mgrwt>
</event>
<event>
 9    1  0.7816570E-001  0.2742386E+03  0.7818608E-02  0.1098878E+00
         -1   -1    0    0    0  501 -0.00000000000E+00  0.00000000000E+00  0.84881284307E+02  0.84881284307E+02  0.00000000000E+00 0. -1.
          1   -1    0    0  501    0  0.00000000000E+00 -0.00000000000E+00 -0.22150580713E+03  0.22150580713E+03  0.00000000000E+00 0. -1.
         35    2    1    2    0    0  0.71054273576E-14  0.17763568394E-14 -0.13662452283E+03  0.30638709144E+03  0.27423856323E+03 0.  0.
         25    2    3    3    0    0  0.44882329238E+02 -0.13910973173E+02 -0.36604602513E+02  0.13868927039E+03  0.12524726801E+03 0.  0.
         25    2    3    3    0    0 -0.44882329238E+02  0.13910973173E+02 -0.10001992031E+03  0.16769782105E+03  0.12613736985E+03 0.  0.
          5    1    4    4  502    0  0.51816155079E+02  0.11536710257E+02 -0.74917380232E+02  0.91938639709E+02  0.47000000000E+01 0.  1.
         -5    1    4    4    0  502 -0.69338258407E+01 -0.25447683429E+02  0.38312777719E+02  0.46750630683E+02  0.47000000000E+01 0.  1.
          5    1    5    5  503    0 -0.51325628179E+02 -0.21263144291E+01  0.13057101213E+02  0.53211081676E+02  0.47000000000E+01 0. -1.
         -5    1    5    5    0  503  0.64432989417E+01  0.16037287602E+02 -0.11307702153E+03  0.11448673937E+03  0.47000000000E+01 0. -1.
<mgrwt>
<rscale>  0 0.27423856E+03</rscale>
<asrwt>0</asrwt>
<pdfrwt beam="1">  1        1 0.34077816E-01 0.27423856E+03</pdfrwt>
<pdfrwt beam="2">  1       -1 0.13058659E-01 0.27423856E+03</pdfrwt>
<totfact> 0.51255517E+03</totfact>
</mgrwt>
</event>
<event>
 9    1  0.7816570E-001  0.2734153E+03  0.7818608E-02  0.1099341E+00
         -2   -1    0    0    0  501 -0.00000000000E+00  0.00000000000E+00  0.17569059242E+02  0.17569059242E+02  0.00000000000E+00 0. -1.
          2   -1    0    0  501    0  0.00000000000E+00 -0.00000000000E+00 -0.10637443338E+04  0.10637443338E+04  0.00000000000E+00 0. -1.
         35    2    1    2    0    0  0.00000000000E+00  0.14210854715E-13 -0.10461752745E+04  0.10813133930E+04  0.27341534133E+03 0.  0.
         25    2    3    3    0    0 -0.84739612735E+01 -0.41271982252E+02 -0.38721728504E+03  0.40923808675E+03  0.12555238458E+03 0.  0.
         25    2    3    3    0    0  0.84739612735E+01  0.41271982252E+02 -0.65895798950E+03  0.67207530628E+03  0.12523737796E+03 0.  0.
          5    1    4    4  502    0  0.73744354654E+01 -0.69879889043E+02 -0.35883622595E+03  0.36568170346E+03  0.47000000000E+01 0. -1.
         -5    1    4    4    0  502 -0.15848396739E+02  0.28607906790E+02 -0.28381059087E+02  0.43556383287E+02  0.47000000000E+01 0. -1.
          5    1    5    5  503    0 -0.57812777285E+01 -0.27945904450E+02 -0.41589819794E+02  0.50657673241E+02  0.47000000000E+01 0. -1.
         -5    1    5    5    0  503  0.14255239002E+02  0.69217886702E+02 -0.61736816971E+03  0.62141763304E+03  0.47000000000E+01 0. -1.
<mgrwt>
<rscale>  0 0.27341534E+03</rscale>
<asrwt>0</asrwt>
<pdfrwt beam="1">  1        2 0.16365301E+00 0.27341534E+03</pdfrwt>
<pdfrwt beam="2">  1       -2 0.27029316E-02 0.27341534E+03</pdfrwt>
<totfact> 0.11853952E+04</totfact>
</mgrwt>
</event>
<event>
 9    1  0.7816570E-001  0.2821816E+03  0.7818608E-02  0.1094503E+00
          2   -1    0    0  501    0  0.00000000000E+00  0.00000000000E+00  0.16827153361E+03  0.16827153361E+03  0.00000000000E+00 0.  1.
         -2   -1    0    0    0  501 -0.00000000000E+00 -0.00000000000E+00 -0.11830057844E+03  0.11830057844E+03  0.00000000000E+00 0.  1.
         35    2    1    2    0    0  0.00000000000E+00 -0.71054273576E-14  0.49970955166E+02  0.28657211205E+03  0.28218164193E+03 0.  0.
         25    2    3    3    0    0 -0.34226545938E+02 -0.33811578176E+02  0.71293748114E+02  0.15103148934E+03  0.12414923676E+03 0.  0.
         25    2    3    3    0    0  0.34226545938E+02  0.33811578176E+02 -0.21322792948E+02  0.13554062270E+03  0.12490764443E+03 0.  0.
          5    1    4    4  502    0 -0.33136710346E+02  0.51635513650E+01  0.97902234131E+02  0.10359363534E+03  0.47000000000E+01 0. -1.
         -5    1    4    4    0  502 -0.10898355920E+01 -0.38975129541E+02 -0.26608486017E+02  0.47437854004E+02  0.47000000000E+01 0. -1.
          5    1    5    5  503    0  0.62645999101E+02  0.49047307521E+02  0.20717598183E+02  0.82349671845E+02  0.47000000000E+01 0.  1.
         -5    1    5    5    0  503 -0.28419453163E+02 -0.15235729344E+02 -0.42040391132E+02  0.53190950858E+02  0.47000000000E+01 0.  1.
<mgrwt>
<rscale>  0 0.28218164E+03</rscale>
<asrwt>0</asrwt>
<pdfrwt beam="1">  1        2 0.25887928E-01 0.28218164E+03</pdfrwt>
<pdfrwt beam="2">  1       -2 0.18200089E-01 0.28218164E+03</pdfrwt>
<totfact> 0.50818036E+03</totfact>
</mgrwt>
</event>
<event>
 9    1  0.7816570E-001  0.2764316E+03  0.7818608E-02  0.1097654E+00
         -2   -1    0    0    0  501 -0.00000000000E+00  0.00000000000E+00  0.17947916627E+02  0.17947916627E+02  0.00000000000E+00 0.  1.
          2   -1    0    0  501    0  0.00000000000E+00 -0.00000000000E+00 -0.10643917319E+04  0.10643917319E+04  0.00000000000E+00 0.  1.
         35    2    1    2    0    0  0.00000000000E+00 -0.71054273576E-14 -0.10464438153E+04  0.10823396485E+04  0.27643164842E+03 0.  0.
         25    2    3    3    0    0 -0.43761575654E+02  0.41940302851E+02 -0.49773732386E+03  0.51655334865E+03  0.12414046048E+03 0.  0.
         25    2    3    3    0    0  0.43761575654E+02 -0.41940302851E+02 -0.54870649142E+03  0.56578629989E+03  0.12394054585E+03 0.  0.
          5    1    4    4  502    0 -0.85583307022E+02  0.14281835028E+02 -0.34254996788E+03  0.35339926959E+03  0.47000000000E+01 0.  1.
         -5    1    4    4    0  502  0.41821731368E+02  0.27658467823E+02 -0.15518735598E+03  0.16315407906E+03  0.47000000000E+01 0.  1.
          5    1    5    5  503    0  0.35699699979E+02  0.22680127666E+02 -0.64987919675E+02  0.77681249174E+02  0.47000000000E+01 0. -1.
         -5    1    5    5    0  503  0.80618756754E+01 -0.64620430517E+02 -0.48371857175E+03  0.48810505071E+03  0.47000000000E+01 0. -1.
<mgrwt>
<rscale>  0 0.27643165E+03</rscale>
<asrwt>0</asrwt>
<pdfrwt beam="1">  1        2 0.16375255E+00 0.27643165E+03</pdfrwt>
<pdfrwt beam="2">  1       -2 0.27612184E-02 0.27643165E+03</pdfrwt>
<totfact> 0.11478232E+04</totfact>
</mgrwt>
</event>
<event>
 9    1  0.7816570E-001  0.2787526E+03  0.7818608E-02  0.1096372E+00
          3   -1    0    0  501    0  0.00000000000E+00  0.00000000000E+00  0.11802098302E+03  0.11802098302E+03  0.00000000000E+00 0.  1.
         -3   -1    0    0    0  501 -0.00000000000E+00 -0.00000000000E+00 -0.16459571141E+03  0.16459571141E+03  0.00000000000E+00 0.  1.
         35    2    1    2    0    0  0.00000000000E+00  0.00000000000E+00 -0.46574728392E+02  0.28261669443E+03  0.27875256169E+03 0.  0.
         25    2    3    3    0    0 -0.25064625026E+02  0.53647550131E+02  0.34287581174E-01  0.13735629884E+03  0.12393730913E+03 0.  0.
         25    2    3    3    0    0  0.25064625026E+02 -0.53647550131E+02 -0.46609015974E+02  0.14526039559E+03  0.12418489076E+03 0.  0.
          5    1    4    4  502    0  0.32035263793E+02  0.68125813078E+02 -0.13760465145E+02  0.76673495648E+02  0.47000000000E+01 0. -1.
         -5    1    4    4    0  502 -0.57099888818E+02 -0.14478262948E+02  0.13794752727E+02  0.60682803197E+02  0.47000000000E+01 0. -1.
          5    1    5    5  503    0 -0.37916076365E+02 -0.43881934500E+02  0.11007416598E+02  0.59215760086E+02  0.47000000000E+01 0. -1.
         -5    1    5    5    0  503  0.62980701391E+02 -0.97656156307E+01 -0.57616432571E+02  0.86044635501E+02  0.47000000000E+01 0. -1.
<mgrwt>
<rscale>  0 0.27875256E+03</rscale>
<asrwt>0</asrwt>
<pdfrwt beam="1">  1        3 0.18157074E-01 0.27875256E+03</pdfrwt>
<pdfrwt beam="2">  1       -3 0.25322417E-01 0.27875256E+03</pdfrwt>
<totfact> 0.99502697E+02</totfact>
</mgrwt>
</event>
<event>
 9    1  0.7816570E-001  0.2678793E+03  0.7818608E-02  0.1102499E+00
         -2   -1    0    0    0  501 -0.00000000000E+00  0.00000000000E+00  0.93960238601E+02  0.93960238601E+02  0.00000000000E+00 0. -1.
          2   -1    0    0  501    0  0.00000000000E+00 -0.00000000000E+00 -0.19093004328E+03  0.19093004328E+03  0.00000000000E+00 0. -1.
         35    2    1    2    0    0 -0.35527136788E-14  0.71054273576E-14 -0.96969804684E+02  0.28489028188E+03  0.26787931927E+03 0.  0.
         25    2    3    3    0    0 -0.74841918989E+01  0.48917090477E+02 -0.54460344896E+02  0.14408398800E+03  0.12387643668E+03 0.  0.
         25    2    3    3    0    0  0.74841918989E+01 -0.48917090477E+02 -0.42509459787E+02  0.14080629388E+03  0.12478166274E+03 0.  0.
          5    1    4    4  502    0  0.25820408003E+02 -0.25702710985E+02 -0.50091774162E+02  0.62117619563E+02  0.47000000000E+01 0.  1.
         -5    1    4    4    0  502 -0.33304599902E+02  0.74619801463E+02 -0.43685707345E+01  0.81966368440E+02  0.47000000000E+01 0.  1.
          5    1    5    5  503    0  0.63547702045E+02 -0.36026564376E+02 -0.39097425411E+02  0.82987483693E+02  0.47000000000E+01 0.  1.
         -5    1    5    5    0  503 -0.56063510146E+02 -0.12890526102E+02 -0.34120343758E+01  0.57818810189E+02  0.47000000000E+01 0.  1.
<mgrwt>
<rscale>  0 0.26787932E+03</rscale>
<asrwt>0</asrwt>
<pdfrwt beam="1">  1        2 0.29373853E-01 0.26787932E+03</pdfrwt>
<pdfrwt beam="2">  1       -2 0.14455421E-01 0.26787932E+03</pdfrwt>
<totfact> 0.64754836E+03</totfact>
</mgrwt>
</event>
<event>
 9    1  0.7816570E-001  0.2766102E+03  0.7818608E-02  0.1097555E+00
         -2   -1    0    0    0  501 -0.00000000000E+00  0.00000000000E+00  0.75843537973E+02  0.75843537973E+02  0.00000000000E+00 0.  1.
          2   -1    0    0  501    0  0.00000000000E+00 -0.00000000000E+00 -0.25220740331E+03  0.25220740331E+03  0.00000000000E+00 0.  1.
         35    2    1    2    0    0 -0.35527136788E-14  0.00000000000E+00 -0.17636386534E+03  0.32805094128E+03  0.27661020784E+03 0.  0.
         25    2    3    3    0    0 -0.25015835846E+02 -0.77967884598E+01 -0.25350802895E+02  0.13029427876E+03  0.12508938370E+03 0.  0.
         25    2    3    3    0    0  0.25015835846E+02  0.77967884598E+01 -0.15101306244E+03  0.19775666253E+03  0.12496467738E+03 0.  0.
          5    1    4    4  502    0 -0.31521481891E+02 -0.48564816289E+02  0.26501522780E+02  0.63847990661E+02  0.47000000000E+01 0.  1.
         -5    1    4    4    0  502  0.65056460455E+01  0.40768027829E+02 -0.51852325675E+02  0.66446288094E+02  0.47000000000E+01 0.  1.
          5    1    5    5  503    0  0.28674437712E+02  0.59934844663E+02 -0.11875146283E+03  0.13615582583E+03  0.47000000000E+01 0. -1.
         -5    1    5    5    0  503 -0.36586018664E+01 -0.52138056203E+02 -0.32261599607E+02  0.61600836694E+02  0.47000000000E+01 0. -1.
<mgrwt>
<rscale>  0 0.27661021E+03</rscale>
<asrwt>0</asrwt>
<pdfrwt beam="1">  1        2 0.38801140E-01 0.27661021E+03</pdfrwt>
<pdfrwt beam="2">  1       -2 0.11668236E-01 0.27661021E+03</pdfrwt>
<totfact> 0.67856676E+03</totfact>
</mgrwt>
</event>
<event>
 9    1  0.7816570E-001  0.2689763E+03  0.7818608E-02  0.1101867E+00
          2   -1    0    0  501    0  0.00000000000E+00  0.00000000000E+00  0.20883483599E+04  0.20883483599E+04  0.00000000000E+00 0.  1.
         -2   -1    0    0    0  501 -0.00000000000E+00 -0.00000000000E+00 -0.86609403044E+01  0.86609403044E+01  0.00000000000E+00 0.  1.
         35    2    1    2    0    0  0.71054273576E-14  0.35527136788E-14  0.20796874196E+04  0.20970093002E+04  0.26897628505E+03 0.  0.
         25    2    3    3    0    0 -0.35165286119E+02  0.81659209132E+01  0.78529297072E+03  0.79594870553E+03  0.12468364911E+03 0.  0.
         25    2    3    3    0    0  0.35165286119E+02 -0.81659209132E+01  0.12943944489E+04  0.13010605947E+04  0.12648479012E+03 0.  0.
          5    1    4    4  502    0  0.38154952503E+02 -0.28339137111E+02  0.29232743039E+03  0.29620317968E+03  0.47000000000E+01 0. -1.
         -5    1    4    4    0  502 -0.73320238622E+02  0.36505058024E+02  0.49296554033E+03  0.49974552585E+03  0.47000000000E+01 0. -1.
          5    1    5    5  503    0 -0.20612129004E+02 -0.16852394551E+02  0.10435406844E+04  0.10438908531E+04  0.47000000000E+01 0.  1.
         -5    1    5    5    0  503  0.55777415123E+02  0.86864736382E+01  0.25085376447E+03  0.25716974163E+03  0.47000000000E+01 0.  1.
<mgrwt>
<rscale>  0 0.26897629E+03</rscale>
<asrwt>0</asrwt>
<pdfrwt beam="1">  1        2 0.32128396E+00 0.26897629E+03</pdfrwt>
<pdfrwt beam="2">  1       -2 0.13324540E-02 0.26897629E+03</pdfrwt>
<totfact> 0.93605164E+03</totfact>
</mgrwt>
</event>
<event>
 9    1  0.7816570E-001  0.2775027E+03  0.7818608E-02  0.1097061E+00
          2   -1    0    0  501    0  0.00000000000E+00  0.00000000000E+00  0.12991239289E+04  0.12991239289E+04  0.00000000000E+00 0.  1.
         -2   -1    0    0    0  501 -0.00000000000E+00 -0.00000000000E+00 -0.14819165249E+02  0.14819165249E+02  0.00000000000E+00 0.  1.
         35    2    1    2    0    0 -0.35527136788E-14 -0.14210854715E-13  0.12843047637E+04  0.13139430942E+04  0.27750266436E+03 0.  0.
         25    2    3    3    0    0 -0.15931159883E+02  0.53750008519E+02  0.55254304306E+03  0.56919581366E+03  0.12464828354E+03 0.  0.
         25    2    3    3    0    0  0.15931159883E+02 -0.53750008519E+02  0.73176172060E+03  0.74474728049E+03  0.12661133755E+03 0.  0.
          5    1    4    4  502    0  0.19194380577E+02 -0.35359244948E+02  0.18089530017E+03  0.18537502548E+03  0.47000000000E+01 0.  1.
         -5    1    4    4    0  502 -0.35125540460E+02  0.89109253467E+02  0.37164774289E+03  0.38382078818E+03  0.47000000000E+01 0.  1.
          5    1    5    5  503    0  0.12203412111E+02  0.37701034566E+02  0.12819588100E+03  0.13426304472E+03  0.47000000000E+01 0.  1.
         -5    1    5    5    0  503  0.37277477723E+01 -0.91451043085E+02  0.60356583960E+03  0.61048423577E+03  0.47000000000E+01 0.  1.
<mgrwt>
<rscale>  0 0.27750266E+03</rscale>
<asrwt>0</asrwt>
<pdfrwt beam="1">  1        2 0.19986513E+00 0.27750266E+03</pdfrwt>
<pdfrwt beam="2">  1       -2 0.22798726E-02 0.27750266E+03</pdfrwt>
<totfact> 0.11185447E+04</totfact>
</mgrwt>
</event>
<event>
 9    1  0.7816570E-001  0.2732635E+03  0.7818608E-02  0.1099426E+00
         -2   -1    0    0    0  501 -0.00000000000E+00  0.00000000000E+00  0.14228078967E+02  0.14228078967E+02  0.00000000000E+00 0.  1.
          2   -1    0    0  501    0  0.00000000000E+00 -0.00000000000E+00 -0.13120699936E+04  0.13120699936E+04  0.00000000000E+00 0.  1.
         35    2    1    2    0    0  0.35527136788E-14 -0.71054273576E-14 -0.12978419147E+04  0.13262980726E+04  0.27326350272E+03 0.  0.
         25    2    3    3    0    0  0.31260401556E+02 -0.42623094080E+02 -0.68547407129E+03  0.69885684848E+03  0.12542827192E+03 0.  0.
         25    2    3    3    0    0 -0.31260401556E+02  0.42623094080E+02 -0.61236784337E+03  0.62744122411E+03  0.12607209554E+03 0.  0.
          5    1    4    4  502    0  0.98082606599E+01 -0.82635068585E+02 -0.32553938309E+03  0.33603978408E+03  0.47000000000E+01 0.  1.
         -5    1    4    4    0  502  0.21452140897E+02  0.40011974505E+02 -0.35993468820E+03  0.36281706440E+03  0.47000000000E+01 0.  1.
          5    1    5    5  503    0 -0.83192404586E+01  0.60794892966E+02 -0.58112604635E+03  0.58437556461E+03  0.47000000000E+01 0. -1.
         -5    1    5    5    0  503 -0.22941161098E+02 -0.18171798886E+02 -0.31241797019E+02  0.43065659501E+02  0.47000000000E+01 0. -1.
<mgrwt>
<rscale>  0 0.27326350E+03</rscale>
<asrwt>0</asrwt>
<pdfrwt beam="1">  1        2 0.20185692E+00 0.27326350E+03</pdfrwt>
<pdfrwt beam="2">  1       -2 0.21889352E-02 0.27326350E+03</pdfrwt>
<totfact> 0.11679020E+04</totfact>
</mgrwt>
</event>
<event>
 9    1  0.7816570E-001  0.2747276E+03  0.7818608E-02  0.1098604E+00
         -3   -1    0    0    0  501 -0.00000000000E+00  0.00000000000E+00  0.45375138268E+03  0.45375138268E+03  0.00000000000E+00 0. -1.
          3   -1    0    0  501    0  0.00000000000E+00 -0.00000000000E+00 -0.41584033782E+02  0.41584033782E+02  0.00000000000E+00 0. -1.
         35    2    1    2    0    0  0.14210854715E-13 -0.17763568394E-14  0.41216734890E+03  0.49533541646E+03  0.27472759473E+03 0.  0.
         25    2    3    3    0    0  0.55061656995E+02 -0.24282791072E+01  0.23948965153E+03  0.27575960143E+03  0.12510148672E+03 0.  0.
         25    2    3    3    0    0 -0.55061656995E+02  0.24282791072E+01  0.17267769737E+03  0.21957581503E+03  0.12392848247E+03 0.  0.
          5    1    4    4  502    0  0.15101950967E+02  0.33457861569E+02  0.77234382708E+01  0.37805276385E+02  0.47000000000E+01 0.  1.
         -5    1    4    4    0  502  0.39959706029E+02 -0.35886140677E+02  0.23176621326E+03  0.23795432505E+03  0.47000000000E+01 0.  1.
          5    1    5    5  503    0 -0.84202072330E+02  0.53431320327E+01  0.61507834573E+02  0.10451718403E+03  0.47000000000E+01 0. -1.
         -5    1    5    5    0  503  0.29140415335E+02 -0.29148529255E+01  0.11116986279E+03  0.11505863100E+03  0.47000000000E+01 0. -1.
<mgrwt>
<rscale>  0 0.27472759E+03</rscale>
<asrwt>0</asrwt>
<pdfrwt beam="1">  1        3 0.63975440E-02 0.27472759E+03</pdfrwt>
<pdfrwt beam="2">  1       -3 0.69807902E-01 0.27472759E+03</pdfrwt>
<totfact> 0.78042360E+02</totfact>
</mgrwt>
</event>
<event>
 9    1  0.7816570E-001  0.2662887E+03  0.7818608E-02  0.1103423E+00
          2   -1    0    0  501    0  0.00000000000E+00  0.00000000000E+00  0.10385766363E+04  0.10385766363E+04  0.00000000000E+00 0. -1.
         -2   -1    0    0    0  501 -0.00000000000E+00 -0.00000000000E+00 -0.17068955257E+02  0.17068955257E+02  0.00000000000E+00 0. -1.
         35    2    1    2    0    0  0.17763568394E-14  0.35527136788E-14  0.10215076811E+04  0.10556455916E+04  0.26628870150E+03 0.  0.
         25    2    3    3    0    0  0.54658056018E+01  0.36566732624E+01  0.67308857462E+03  0.68465299603E+03  0.12513292691E+03 0.  0.
         25    2    3    3    0    0 -0.54658056018E+01 -0.36566732624E+01  0.34841910644E+03  0.37099259554E+03  0.12726502240E+03 0.  0.
          5    1    4    4  502    0  0.63013524172E+02  0.96592185774E+01  0.43023420891E+03  0.43495697402E+03  0.47000000000E+01 0.  1.
         -5    1    4    4    0  502 -0.57547718570E+02 -0.60025453150E+01  0.24285436570E+03  0.24969602200E+03  0.47000000000E+01 0.  1.
          5    1    5    5  503    0  0.89494403641E+01  0.37305439525E+02  0.31124803012E+03  0.31363866878E+03  0.47000000000E+01 0.  1.
         -5    1    5    5    0  503 -0.14415245966E+02 -0.40962112788E+02  0.37171076317E+02  0.57353926760E+02  0.47000000000E+01 0.  1.
<mgrwt>
<rscale>  0 0.26628870E+03</rscale>
<asrwt>0</asrwt>
<pdfrwt beam="1">  1        2 0.15978097E+00 0.26628870E+03</pdfrwt>
<pdfrwt beam="2">  1       -2 0.26259939E-02 0.26628870E+03</pdfrwt>
<totfact> 0.12797927E+04</totfact>
</mgrwt>
</event>
<event>
 9    1  0.7816570E-001  0.2748631E+03  0.7818608E-02  0.1098528E+00
         -2   -1    0    0    0  501 -0.00000000000E+00  0.00000000000E+00  0.32513637812E+02  0.32513637812E+02  0.00000000000E+00 0. -1.
          2   -1    0    0  501    0  0.00000000000E+00 -0.00000000000E+00 -0.58090790515E+03  0.58090790515E+03  0.00000000000E+00 0. -1.
         35    2    1    2    0    0 -0.71054273576E-14  0.35527136788E-14 -0.54839426733E+03  0.61342154296E+03  0.27486308759E+03 0.  0.
         25    2    3    3    0    0 -0.42292357409E+02  0.24802594630E+02 -0.20966801733E+03  0.24904782925E+03  0.12514124647E+03 0.  0.
         25    2    3    3    0    0  0.42292357409E+02 -0.24802594630E+02 -0.33872625000E+03  0.36437371370E+03  0.12501567344E+03 0.  0.
          5    1    4    4  502    0  0.41533257543E+02  0.25059272151E+02 -0.96821430159E+02  0.10839491658E+03  0.47000000000E+01 0. -1.
         -5    1    4    4    0  502 -0.83825614952E+02 -0.25667752114E+00 -0.11284658718E+03  0.14065291267E+03  0.47000000000E+01 0. -1.
          5    1    5    5  503    0 -0.10822906527E+02 -0.49707226845E+02 -0.56907279196E+02  0.76475304065E+02  0.47000000000E+01 0. -1.
         -5    1    5    5    0  503  0.53115263936E+02  0.24904632215E+02 -0.28181897080E+03  0.28789840964E+03  0.47000000000E+01 0. -1.
<mgrwt>
<rscale>  0 0.27486309E+03</rscale>
<asrwt>0</asrwt>
<pdfrwt beam="1">  1        2 0.89370445E-01 0.27486309E+03</pdfrwt>
<pdfrwt beam="2">  1       -2 0.50020982E-02 0.27486309E+03</pdfrwt>
<totfact> 0.10203109E+04</totfact>
</mgrwt>
</event>
<event>
 9    1  0.7816570E-001  0.2749414E+03  0.7818608E-02  0.1098484E+00
         -1   -1    0    0    0  501 -0.00000000000E+00  0.00000000000E+00  0.80926099783E+01  0.80926099783E+01  0.00000000000E+00 0.  1.
          1   -1    0    0  501    0  0.00000000000E+00 -0.00000000000E+00 -0.23352408421E+04  0.23352408421E+04  0.00000000000E+00 0.  1.
         35    2    1    2    0    0 -0.35527136788E-14 -0.35527136788E-14 -0.23271482321E+04  0.23433334521E+04  0.27494139987E+03 0.  0.
         25    2    3    3    0    0  0.91536747740E+01  0.29656466442E+02 -0.72653295938E+03  0.73754041047E+03  0.12309516744E+03 0.  0.
         25    2    3    3    0    0 -0.91536747740E+01 -0.29656466442E+02 -0.16006152727E+04  0.16057930416E+04  0.12505496944E+03 0.  0.
          5    1    4    4  502    0  0.49398630685E+02  0.31914479737E+02 -0.17830359037E+03  0.18781112606E+03  0.47000000000E+01 0.  1.
         -5    1    4    4    0  502 -0.40244955911E+02 -0.22580132955E+01 -0.54822936901E+03  0.54972928441E+03  0.47000000000E+01 0.  1.
          5    1    5    5  503    0  0.15194977559E+02  0.45809238510E+02 -0.70252558220E+03  0.70419717219E+03  0.47000000000E+01 0.  1.
         -5    1    5    5    0  503 -0.24348652333E+02 -0.75465704951E+02 -0.89808969051E+03  0.90159586939E+03  0.47000000000E+01 0.  1.
<mgrwt>
<rscale>  0 0.27494140E+03</rscale>
<asrwt>0</asrwt>
<pdfrwt beam="1">  1        1 0.35926761E+00 0.27494140E+03</pdfrwt>
<pdfrwt beam="2">  1       -1 0.12450177E-02 0.27494140E+03</pdfrwt>
<totfact> 0.27896061E+03</totfact>
</mgrwt>
</event>
<event>
 9    1  0.7816570E-001  0.2709062E+03  0.7818608E-02  0.1100762E+00
         -2   -1    0    0    0  501 -0.00000000000E+00  0.00000000000E+00  0.32945399198E+02  0.32945399198E+02  0.00000000000E+00 0. -1.
          2   -1    0    0  501    0  0.00000000000E+00 -0.00000000000E+00 -0.55690761747E+03  0.55690761747E+03  0.00000000000E+00 0. -1.
         35    2    1    2    0    0  0.71054273576E-14 -0.71054273576E-14 -0.52396221828E+03  0.58985301667E+03  0.27090621088E+03 0.  0.
         25    2    3    3    0    0  0.36821774847E+02  0.32325369871E+02 -0.29941680990E+03  0.32811947350E+03  0.12494474859E+03 0.  0.
         25    2    3    3    0    0 -0.36821774847E+02 -0.32325369871E+02 -0.22454540838E+03  0.26173354317E+03  0.12523192308E+03 0.  0.
          5    1    4    4  502    0  0.49858350588E+02  0.66521345820E+02 -0.26458830150E+03  0.27738061191E+03  0.47000000000E+01 0.  1.
         -5    1    4    4    0  502 -0.13036575741E+02 -0.34195975949E+02 -0.34828508397E+02  0.50738861588E+02  0.47000000000E+01 0.  1.
          5    1    5    5  503    0 -0.21441038597E+02 -0.53631968797E+02 -0.22760247981E+03  0.23486397133E+03  0.47000000000E+01 0.  1.
         -5    1    5    5    0  503 -0.15380736250E+02  0.21306598926E+02  0.30570714295E+01  0.26869571845E+02  0.47000000000E+01 0.  1.
<mgrwt>
<rscale>  0 0.27090621E+03</rscale>
<asrwt>0</asrwt>
<pdfrwt beam="1">  1        2 0.85678087E-01 0.27090621E+03</pdfrwt>
<pdfrwt beam="2">  1       -2 0.50685234E-02 0.27090621E+03</pdfrwt>
<totfact> 0.10490409E+04</totfact>
</mgrwt>
</event>
<event>
 9    1  0.7816570E-001  0.2750081E+03  0.7818608E-02  0.1098447E+00
          2   -1    0    0  501    0  0.00000000000E+00  0.00000000000E+00  0.13849245106E+04  0.13849245106E+04  0.00000000000E+00 0.  1.
         -2   -1    0    0    0  501 -0.00000000000E+00 -0.00000000000E+00 -0.13652267898E+02  0.13652267898E+02  0.00000000000E+00 0.  1.
         35    2    1    2    0    0 -0.14210854715E-13 -0.35527136788E-14  0.13712722427E+04  0.13985767785E+04  0.27500807579E+03 0.  0.
         25    2    3    3    0    0  0.51771821639E+02 -0.20875778524E+02  0.73067375113E+03  0.74339877165E+03  0.12506591644E+03 0.  0.
         25    2    3    3    0    0 -0.51771821639E+02  0.20875778524E+02  0.64059849160E+03  0.65517800687E+03  0.12560124843E+03 0.  0.
          5    1    4    4  502    0  0.64116538576E+02  0.28461936375E+02  0.24035197177E+03  0.25042398582E+03  0.47000000000E+01 0.  1.
         -5    1    4    4    0  502 -0.12344716936E+02 -0.49337714899E+02  0.49032177936E+03  0.49297478583E+03  0.47000000000E+01 0.  1.
          5    1    5    5  503    0 -0.20618487195E+02 -0.44843249295E+02  0.12532185942E+03  0.13477276235E+03  0.47000000000E+01 0.  1.
         -5    1    5    5    0  503 -0.31153334444E+02  0.65719027819E+02  0.51527663217E+03  0.52040524453E+03  0.47000000000E+01 0.  1.
<mgrwt>
<rscale>  0 0.27500808E+03</rscale>
<asrwt>0</asrwt>
<pdfrwt beam="1">  1        2 0.21306520E+00 0.27500808E+03</pdfrwt>
<pdfrwt beam="2">  1       -2 0.21003500E-02 0.27500808E+03</pdfrwt>
<totfact> 0.11323402E+04</totfact>
</mgrwt>
</event>
<event>
 9    1  0.7816570E-001  0.2753958E+03  0.7818608E-02  0.1098231E+00
          2   -1    0    0  501    0  0.00000000000E+00  0.00000000000E+00  0.13208588843E+04  0.13208588843E+04  0.00000000000E+00 0.  1.
         -2   -1    0    0    0  501 -0.00000000000E+00 -0.00000000000E+00 -0.14354840222E+02  0.14354840222E+02  0.00000000000E+00 0.  1.
         35    2    1    2    0    0 -0.14210854715E-13 -0.21316282073E-13  0.13065040441E+04  0.13352137245E+04  0.27539584775E+03 0.  0.
         25    2    3    3    0    0  0.20671172217E+02  0.50644870976E+02  0.55177474416E+03  0.56841908324E+03  0.12511069330E+03 0.  0.
         25    2    3    3    0    0 -0.20671172217E+02 -0.50644870976E+02  0.75472929992E+03  0.76679464129E+03  0.12395767597E+03 0.  0.
          5    1    4    4  502    0  0.42010026260E+02  0.77836697702E+02  0.26233121609E+03  0.27688111303E+03  0.47000000000E+01 0. -1.
         -5    1    4    4    0  502 -0.21338854043E+02 -0.27191826726E+02  0.28944352807E+03  0.29153797021E+03  0.47000000000E+01 0. -1.
          5    1    5    5  503    0  0.51953968269E+02 -0.14024246000E+02  0.30231049964E+03  0.30709871782E+03  0.47000000000E+01 0. -1.
         -5    1    5    5    0  503 -0.72625140486E+02 -0.36620624976E+02  0.45241880028E+03  0.45969592346E+03  0.47000000000E+01 0. -1.
<mgrwt>
<rscale>  0 0.27539585E+03</rscale>
<asrwt>0</asrwt>
<pdfrwt beam="1">  1        2 0.20320896E+00 0.27539585E+03</pdfrwt>
<pdfrwt beam="2">  1       -2 0.22084380E-02 0.27539585E+03</pdfrwt>
<totfact> 0.11401485E+04</totfact>
</mgrwt>
</event>
<event>
 9    1  0.7816570E-001  0.2787905E+03  0.7818608E-02  0.1096351E+00
          1   -1    0    0  501    0  0.00000000000E+00  0.00000000000E+00  0.51917600976E+03  0.51917600976E+03  0.00000000000E+00 0.  1.
         -1   -1    0    0    0  501 -0.00000000000E+00 -0.00000000000E+00 -0.37426684555E+02  0.37426684555E+02  0.00000000000E+00 0.  1.
         35    2    1    2    0    0 -0.71054273576E-14  0.71054273576E-14  0.48174932521E+03  0.55660269432E+03  0.27879050734E+03 0.  0.
         25    2    3    3    0    0  0.12514893024E+01 -0.38183548717E+02  0.14201018160E+03  0.19279340414E+03  0.12467098855E+03 0.  0.
         25    2    3    3    0    0 -0.12514893024E+01  0.38183548717E+02  0.33973914361E+03  0.36380929017E+03  0.12439840955E+03 0.  0.
          5    1    4    4  502    0 -0.47994436056E+02 -0.27141445585E+02  0.12914160516E+03  0.14049828520E+03  0.47000000000E+01 0.  1.
         -5    1    4    4    0  502  0.49245925358E+02 -0.11042103132E+02  0.12868576441E+02  0.52295118946E+02  0.47000000000E+01 0.  1.
          5    1    5    5  503    0 -0.50985700164E+02  0.82112603956E+01  0.25962310836E+03  0.26475123194E+03  0.47000000000E+01 0. -1.
         -5    1    5    5    0  503  0.49734210862E+02  0.29972288321E+02  0.80116035244E+02  0.99058058231E+02  0.47000000000E+01 0. -1.
<mgrwt>
<rscale>  0 0.27879051E+03</rscale>
<asrwt>0</asrwt>
<pdfrwt beam="1">  1        1 0.79873227E-01 0.27879051E+03</pdfrwt>
<pdfrwt beam="2">  1       -1 0.57579519E-02 0.27879051E+03</pdfrwt>
<totfact> 0.60804630E+03</totfact>
</mgrwt>
</event>
<event>
 9    1  0.7816570E-001  0.2769447E+03  0.7818608E-02  0.1097369E+00
          2   -1    0    0  501    0  0.00000000000E+00  0.00000000000E+00  0.60760123916E+03  0.60760123916E+03  0.00000000000E+00 0.  1.
         -2   -1    0    0    0  501 -0.00000000000E+00 -0.00000000000E+00 -0.31557850217E+02  0.31557850217E+02  0.00000000000E+00 0.  1.
         35    2    1    2    0    0  0.00000000000E+00 -0.35527136788E-14  0.57604338894E+03  0.63915908937E+03  0.27694467965E+03 0.  0.
         25    2    3    3    0    0  0.69902080255E+01  0.11735323389E+02  0.42726981502E+03  0.44545042464E+03  0.12521982735E+03 0.  0.
         25    2    3    3    0    0 -0.69902080255E+01 -0.11735323389E+02  0.14877357392E+03  0.19370866474E+03  0.12329999867E+03 0.  0.
          5    1    4    4  502    0  0.13485525063E+02 -0.18646675427E+01 -0.31486976926E+01  0.14742478368E+02  0.47000000000E+01 0. -1.
         -5    1    4    4    0  502 -0.64953170379E+01  0.13599990932E+02  0.43041851271E+03  0.43070794627E+03  0.47000000000E+01 0. -1.
          5    1    5    5  503    0 -0.24648502052E+02 -0.37088463696E+02  0.32831702095E+01  0.44899576828E+02  0.47000000000E+01 0. -1.
         -5    1    5    5    0  503  0.17658294026E+02  0.25353140307E+02  0.14549040371E+03  0.14880908791E+03  0.47000000000E+01 0. -1.
<mgrwt>
<rscale>  0 0.27694468E+03</rscale>
<asrwt>0</asrwt>
<pdfrwt beam="1">  1        2 0.93477105E-01 0.27694468E+03</pdfrwt>
<pdfrwt beam="2">  1       -2 0.48550543E-02 0.27694468E+03</pdfrwt>
<totfact> 0.10137331E+04</totfact>
</mgrwt>
</event>
<event>
 9    1  0.7816570E-001  0.2737850E+03  0.7818608E-02  0.1099133E+00
         -1   -1    0    0    0  501 -0.00000000000E+00  0.00000000000E+00  0.20817562324E+04  0.20817562324E+04  0.00000000000E+00 0. -1.
          1   -1    0    0  501    0  0.00000000000E+00 -0.00000000000E+00 -0.90017987683E+01  0.90017987683E+01  0.00000000000E+00 0. -1.
         35    2    1    2    0    0  0.00000000000E+00  0.00000000000E+00  0.20727544337E+04  0.20907580312E+04  0.27378495714E+03 0.  0.
         25    2    3    3    0    0 -0.73532836868E+01 -0.18698788003E+02  0.14551972751E+04  0.14606975640E+04  0.12503818854E+03 0.  0.
         25    2    3    3    0    0  0.73532836868E+01  0.18698788003E+02  0.61755715859E+03  0.63006046721E+03  0.12327056733E+03 0.  0.
          5    1    4    4  502    0  0.21004350625E+02 -0.26467251507E+02  0.10994920896E+03  0.11512000998E+03  0.47000000000E+01 0.  1.
         -5    1    4    4    0  502 -0.28357634312E+02  0.77684635039E+01  0.13452480661E+04  0.13455775540E+04  0.47000000000E+01 0.  1.
          5    1    5    5  503    0  0.48389935401E+02  0.42026490779E+02  0.20633232090E+03  0.21610860331E+03  0.47000000000E+01 0.  1.
         -5    1    5    5    0  503 -0.41036651714E+02 -0.23327702776E+02  0.41122483769E+03  0.41395186390E+03  0.47000000000E+01 0.  1.
<mgrwt>
<rscale>  0 0.27378496E+03</rscale>
<asrwt>0</asrwt>
<pdfrwt beam="1">  1        1 0.13848938E-02 0.27378496E+03</pdfrwt>
<pdfrwt beam="2">  1       -1 0.32026981E+00 0.27378496E+03</pdfrwt>
<totfact> 0.29377630E+02</totfact>
</mgrwt>
</event>
<event>
 9    1  0.7816570E-001  0.2753877E+03  0.7818608E-02  0.1098235E+00
          2   -1    0    0  501    0  0.00000000000E+00  0.00000000000E+00  0.21128542881E+04  0.21128542881E+04  0.00000000000E+00 0. -1.
         -2   -1    0    0    0  501 -0.00000000000E+00 -0.00000000000E+00 -0.89734509541E+01  0.89734509541E+01  0.00000000000E+00 0. -1.
         35    2    1    2    0    0 -0.35527136788E-14  0.00000000000E+00  0.21038808372E+04  0.21218277391E+04  0.27538768547E+03 0.  0.
         25    2    3    3    0    0 -0.67253624314E+01  0.97931181406E+01  0.63651365580E+03  0.64906725478E+03  0.12648134863E+03 0.  0.
         25    2    3    3    0    0  0.67253624314E+01 -0.97931181406E+01  0.14673671814E+04  0.14727604843E+04  0.12536292701E+03 0.  0.
          5    1    4    4  502    0 -0.61910066496E+02  0.28846547846E+02  0.33999302004E+03  0.34681742075E+03  0.47000000000E+01 0. -1.
         -5    1    4    4    0  502  0.55184704065E+02 -0.19053429705E+02  0.29652063576E+03  0.30224983404E+03  0.47000000000E+01 0. -1.
          5    1    5    5  503    0 -0.28851745116E+00  0.47301078816E+02  0.28115337014E+03  0.28514344257E+03  0.47000000000E+01 0. -1.
         -5    1    5    5    0  503  0.70138798825E+01 -0.57094196957E+02  0.11862138112E+04  0.11876170417E+04  0.47000000000E+01 0. -1.
<mgrwt>
<rscale>  0 0.27538769E+03</rscale>
<asrwt>0</asrwt>
<pdfrwt beam="1">  1        2 0.32505411E+00 0.27538769E+03</pdfrwt>
<pdfrwt beam="2">  1       -2 0.13805326E-02 0.27538769E+03</pdfrwt>
<totfact> 0.86289963E+03</totfact>
</mgrwt>
</event>
<event>
 9    1  0.7816570E-001  0.2743073E+03  0.7818608E-02  0.1098839E+00
          2   -1    0    0  501    0  0.00000000000E+00  0.00000000000E+00  0.18999837702E+04  0.18999837702E+04  0.00000000000E+00 0. -1.
         -2   -1    0    0    0  501 -0.00000000000E+00 -0.00000000000E+00 -0.99006760907E+01  0.99006760907E+01  0.00000000000E+00 0. -1.
         35    2    1    2    0    0 -0.35527136788E-14  0.71054273576E-14  0.18900830941E+04  0.19098844463E+04  0.27430730130E+03 0.  0.
         25    2    3    3    0    0 -0.26052813503E+02  0.47878709400E+02  0.10268707811E+04  0.10358640711E+04  0.12481847918E+03 0.  0.
         25    2    3    3    0    0  0.26052813503E+02 -0.47878709400E+02  0.86321231298E+03  0.87402037519E+03  0.12571793456E+03 0.  0.
          5    1    4    4  502    0 -0.89528181516E+01  0.68167802649E+02  0.27475143894E+03  0.28326214973E+03  0.47000000000E+01 0. -1.
         -5    1    4    4    0  502 -0.17099995351E+02 -0.20289093248E+02  0.75211934216E+03  0.75260192133E+03  0.47000000000E+01 0. -1.
          5    1    5    5  503    0  0.16703159048E+02  0.36652420872E+02  0.13834856399E+03  0.14416938176E+03  0.47000000000E+01 0.  1.
         -5    1    5    5    0  503  0.93496544548E+01 -0.84531130272E+02  0.72486374898E+03  0.72985099343E+03  0.47000000000E+01 0.  1.
<mgrwt>
<rscale>  0 0.27430730E+03</rscale>
<asrwt>0</asrwt>
<pdfrwt beam="1">  1        2 0.29230491E+00 0.27430730E+03</pdfrwt>
<pdfrwt beam="2">  1       -2 0.15231824E-02 0.27430730E+03</pdfrwt>
<totfact> 0.96734433E+03</totfact>
</mgrwt>
</event>
<event>
 9    1  0.7816570E-001  0.2747976E+03  0.7818608E-02  0.1098565E+00
          2   -1    0    0  501    0  0.00000000000E+00  0.00000000000E+00  0.10600812078E+04  0.10600812078E+04  0.00000000000E+00 0. -1.
         -2   -1    0    0    0  501 -0.00000000000E+00 -0.00000000000E+00 -0.17808469116E+02  0.17808469116E+02  0.00000000000E+00 0. -1.
         35    2    1    2    0    0  0.00000000000E+00 -0.14210854715E-13  0.10422727387E+04  0.10778896769E+04  0.27479755057E+03 0.  0.
         25    2    3    3    0    0  0.20860436949E+02 -0.51675154829E+02  0.43947240877E+03  0.45983140858E+03  0.12330225783E+03 0.  0.
         25    2    3    3    0    0 -0.20860436949E+02  0.51675154829E+02  0.60280032992E+03  0.61805826834E+03  0.12458854628E+03 0.  0.
          5    1    4    4  502    0  0.16097739159E+02 -0.92300035776E+02  0.31973091726E+03  0.33320921846E+03  0.47000000000E+01 0.  1.
         -5    1    4    4    0  502  0.47626977900E+01  0.40624880947E+02  0.11974149151E+03  0.12662219012E+03  0.47000000000E+01 0.  1.
          5    1    5    5  503    0 -0.13138760024E+02  0.89575437134E+02  0.32025053663E+03  0.33283461683E+03  0.47000000000E+01 0. -1.
         -5    1    5    5    0  503 -0.77216769250E+01 -0.37900282305E+02  0.28254979329E+03  0.28522365151E+03  0.47000000000E+01 0. -1.
<mgrwt>
<rscale>  0 0.27479755E+03</rscale>
<asrwt>0</asrwt>
<pdfrwt beam="1">  1        2 0.16308937E+00 0.27479755E+03</pdfrwt>
<pdfrwt beam="2">  1       -2 0.27397653E-02 0.27479755E+03</pdfrwt>
<totfact> 0.11678690E+04</totfact>
</mgrwt>
</event>
<event>
 9    1  0.7816570E-001  0.2739234E+03  0.7818608E-02  0.1099055E+00
          1   -1    0    0  501    0  0.00000000000E+00  0.00000000000E+00  0.26499595685E+02  0.26499595685E+02  0.00000000000E+00 0.  1.
         -1   -1    0    0    0  501 -0.00000000000E+00 -0.00000000000E+00 -0.70787919080E+03  0.70787919080E+03  0.00000000000E+00 0.  1.
         35    2    1    2    0    0 -0.71054273576E-14  0.71054273576E-14 -0.68137959512E+03  0.73437878649E+03  0.27392343711E+03 0.  0.
         25    2    3    3    0    0 -0.51416977668E+02 -0.19980872273E+02 -0.37500791398E+03  0.39909861752E+03  0.12492329691E+03 0.  0.
         25    2    3    3    0    0  0.51416977668E+02  0.19980872273E+02 -0.30637168114E+03  0.33528016897E+03  0.12452406935E+03 0.  0.
          5    1    4    4  502    0  0.39324610165E+02 -0.16088350013E+02 -0.84660281054E+02  0.94840461613E+02  0.47000000000E+01 0.  1.
         -5    1    4    4    0  502 -0.90741587834E+02 -0.38925222595E+01 -0.29034763292E+03  0.30425815591E+03  0.47000000000E+01 0.  1.
          5    1    5    5  503    0  0.15616542791E+02  0.65881059447E+02 -0.22573275133E+03  0.23571498770E+03  0.47000000000E+01 0.  1.
         -5    1    5    5    0  503  0.35800434877E+02 -0.45900187174E+02 -0.80638929808E+02  0.99565181267E+02  0.47000000000E+01 0.  1.
<mgrwt>
<rscale>  0 0.27392344E+03</rscale>
<asrwt>0</asrwt>
<pdfrwt beam="1">  1        1 0.40768606E-02 0.27392344E+03</pdfrwt>
<pdfrwt beam="2">  1       -1 0.10890450E+00 0.27392344E+03</pdfrwt>
<totfact> 0.18364586E+03</totfact>
</mgrwt>
</event>
<event>
 9    1  0.7816570E-001  0.2820218E+03  0.7818608E-02  0.1094590E+00
         -1   -1    0    0    0  501 -0.00000000000E+00  0.00000000000E+00  0.79734231572E+02  0.79734231572E+02  0.00000000000E+00 0.  1.
          1   -1    0    0  501    0  0.00000000000E+00 -0.00000000000E+00 -0.24937935619E+03  0.24937935619E+03  0.00000000000E+00 0.  1.
         35    2    1    2    0    0  0.00000000000E+00  0.71054273576E-14 -0.16964512462E+03  0.32911358776E+03  0.28202178168E+03 0.  0.
         25    2    3    3    0    0  0.16765457610E+02 -0.52905656024E+02 -0.45545781806E+02  0.14409838074E+03  0.12493932961E+03 0.  0.
         25    2    3    3    0    0 -0.16765457610E+02  0.52905656024E+02 -0.12409934281E+03  0.18501520702E+03  0.12549856945E+03 0.  0.
          5    1    4    4  502    0 -0.40597604257E+02 -0.13382952998E+02 -0.58985792908E+02  0.72997826456E+02  0.47000000000E+01 0.  1.
         -5    1    4    4    0  502  0.57363061867E+02 -0.39522703026E+02  0.13440011102E+02  0.71100554285E+02  0.47000000000E+01 0.  1.
          5    1    5    5  503    0  0.29608305492E+02  0.58085644716E+02 -0.16168890536E+02  0.67335851501E+02  0.47000000000E+01 0. -1.
         -5    1    5    5    0  503 -0.46373763102E+02 -0.51799886919E+01 -0.10793045228E+03  0.11767935552E+03  0.47000000000E+01 0. -1.
<mgrwt>
<rscale>  0 0.28202178E+03</rscale>
<asrwt>0</asrwt>
<pdfrwt beam="1">  1        1 0.38366055E-01 0.28202178E+03</pdfrwt>
<pdfrwt beam="2">  1       -1 0.12266805E-01 0.28202178E+03</pdfrwt>
<totfact> 0.48756613E+03</totfact>
</mgrwt>
</event>
<event>
 9    1  0.7816570E-001  0.2755342E+03  0.7818608E-02  0.1098153E+00
          2   -1    0    0  501    0  0.00000000000E+00  0.00000000000E+00  0.98757709430E+03  0.98757709430E+03  0.00000000000E+00 0.  1.
         -2   -1    0    0    0  501 -0.00000000000E+00 -0.00000000000E+00 -0.19218521984E+02  0.19218521984E+02  0.00000000000E+00 0.  1.
         35    2    1    2    0    0  0.71054273576E-14  0.00000000000E+00  0.96835857232E+03  0.10067956163E+04  0.27553418733E+03 0.  0.
         25    2    3    3    0    0 -0.21249867421E+02 -0.30924017471E+02  0.64803299585E+03  0.66100832692E+03  0.12480942600E+03 0.  0.
         25    2    3    3    0    0  0.21249867421E+02  0.30924017471E+02  0.32032557647E+03  0.34578728937E+03  0.12470975435E+03 0.  0.
          5    1    4    4  502    0  0.17595732359E+02  0.38820773561E+02  0.13132907240E+03  0.13815237064E+03  0.47000000000E+01 0.  1.
         -5    1    4    4    0  502 -0.38845599780E+02 -0.69744791032E+02  0.51670392346E+03  0.52285595628E+03  0.47000000000E+01 0.  1.
          5    1    5    5  503    0  0.28445008930E+02  0.74040871328E+02  0.14843595134E+03  0.16836416130E+03  0.47000000000E+01 0.  1.
         -5    1    5    5    0  503 -0.71951415096E+01 -0.43116853858E+02  0.17188962512E+03  0.17742312807E+03  0.47000000000E+01 0.  1.
<mgrwt>
<rscale>  0 0.27553419E+03</rscale>
<asrwt>0</asrwt>
<pdfrwt beam="1">  1        2 0.15193490E+00 0.27553419E+03</pdfrwt>
<pdfrwt beam="2">  1       -2 0.29566965E-02 0.27553419E+03</pdfrwt>
<totfact> 0.11540072E+04</totfact>
</mgrwt>
</event>
<event>
 9    1  0.7816570E-001  0.2787711E+03  0.7818608E-02  0.1096362E+00
          2   -1    0    0  501    0  0.00000000000E+00  0.00000000000E+00  0.16560377483E+04  0.16560377483E+04  0.00000000000E+00 0.  1.
         -2   -1    0    0    0  501 -0.00000000000E+00 -0.00000000000E+00 -0.11731813323E+02  0.11731813323E+02  0.00000000000E+00 0.  1.
         35    2    1    2    0    0  0.00000000000E+00  0.00000000000E+00  0.16443059350E+04  0.16677695616E+04  0.27877105817E+03 0.  0.
         25    2    3    3    0    0 -0.24421442260E+01  0.43724146582E+02  0.10848066616E+04  0.10927605340E+04  0.12410611000E+03 0.  0.
         25    2    3    3    0    0  0.24421442260E+01 -0.43724146582E+02  0.55949927338E+03  0.57500902763E+03  0.12521253884E+03 0.  0.
          5    1    4    4  502    0 -0.15726327505E+02  0.23591898400E+02  0.50069523596E+02  0.57731639853E+02  0.47000000000E+01 0.  1.
         -5    1    4    4    0  502  0.13284183279E+02  0.20132248182E+02  0.10347371380E+04  0.10350288941E+04  0.47000000000E+01 0.  1.
          5    1    5    5  503    0 -0.35987764663E+02 -0.12274141922E+02  0.47746949332E+03  0.47900415532E+03  0.47000000000E+01 0.  1.
         -5    1    5    5    0  503  0.38429908889E+02 -0.31450004660E+02  0.82029780059E+02  0.96004872308E+02  0.47000000000E+01 0.  1.
<mgrwt>
<rscale>  0 0.27877106E+03</rscale>
<asrwt>0</asrwt>
<pdfrwt beam="1">  1        2 0.25477485E+00 0.27877106E+03</pdfrwt>
<pdfrwt beam="2">  1       -2 0.18048957E-02 0.27877106E+03</pdfrwt>
<totfact> 0.10137019E+04</totfact>
</mgrwt>
</event>
<event>
 9    1  0.7816570E-001  0.2718018E+03  0.7818608E-02  0.1100253E+00
          1   -1    0    0  501    0  0.00000000000E+00  0.00000000000E+00  0.32890311987E+03  0.32890311987E+03  0.00000000000E+00 0. -1.
         -1   -1    0    0    0  501 -0.00000000000E+00 -0.00000000000E+00 -0.56153478616E+02  0.56153478616E+02  0.00000000000E+00 0. -1.
         35    2    1    2    0    0  0.00000000000E+00  0.71054273576E-14  0.27274964125E+03  0.38505659849E+03  0.27180179770E+03 0.  0.
         25    2    3    3    0    0 -0.44238408909E+02 -0.25566843467E+02  0.12273334960E+03  0.18295781294E+03  0.12569560812E+03 0.  0.
         25    2    3    3    0    0  0.44238408909E+02  0.25566843467E+02  0.15001629165E+03  0.20209878555E+03  0.12541264312E+03 0.  0.
          5    1    4    4  502    0 -0.33419964039E+02  0.42805009446E+02  0.18147555260E+02  0.57450731866E+02  0.47000000000E+01 0.  1.
         -5    1    4    4    0  502 -0.10818444870E+02 -0.68371852913E+02  0.10458579434E+03  0.12550708107E+03  0.47000000000E+01 0.  1.
          5    1    5    5  503    0  0.17629151698E+02  0.58480205396E+02  0.18700804357E+02  0.64051006989E+02  0.47000000000E+01 0.  1.
         -5    1    5    5    0  503  0.26609257210E+02 -0.32913361929E+02  0.13131548729E+03  0.13804777856E+03  0.47000000000E+01 0.  1.
<mgrwt>
<rscale>  0 0.27180180E+03</rscale>
<asrwt>0</asrwt>
<pdfrwt beam="1">  1        1 0.50600479E-01 0.27180180E+03</pdfrwt>
<pdfrwt beam="2">  1       -1 0.86389969E-02 0.27180180E+03</pdfrwt>
<totfact> 0.59180973E+03</totfact>
</mgrwt>
</event>
<event>
 9    1  0.7816570E-001  0.3039494E+03  0.7818608E-02  0.1083283E+00
         -1   -1    0    0    0  501 -0.00000000000E+00  0.00000000000E+00  0.69905317206E+02  0.69905317206E+02  0.00000000000E+00 0.  1.
          1   -1    0    0  501    0  0.00000000000E+00 -0.00000000000E+00 -0.33039417938E+03  0.33039417938E+03  0.00000000000E+00 0.  1.
         35    2    1    2    0    0  0.00000000000E+00  0.00000000000E+00 -0.26048886218E+03  0.40029949659E+03  0.30394940311E+03 0.  0.
         25    2    3    3    0    0  0.34798229266E+02  0.65392733544E+02 -0.19427637764E+03  0.24299999538E+03  0.12577185887E+03 0.  0.
         25    2    3    3    0    0 -0.34798229266E+02 -0.65392733544E+02 -0.66212484538E+02  0.15729950121E+03  0.12195045556E+03 0.  0.
          5    1    4    4  502    0  0.76540460979E+02  0.41160329550E+02 -0.16446903948E+03  0.18607732222E+03  0.47000000000E+01 0.  1.
         -5    1    4    4    0  502 -0.41742231712E+02  0.24232403994E+02 -0.29807338156E+02  0.56922673159E+02  0.47000000000E+01 0.  1.
          5    1    5    5  503    0 -0.24742044118E+01  0.23513195188E+02 -0.57300764647E+02  0.62164778328E+02  0.47000000000E+01 0.  1.
         -5    1    5    5    0  503 -0.32324024855E+02 -0.88905928732E+02 -0.89117198908E+01  0.95134722882E+02  0.47000000000E+01 0.  1.
<mgrwt>
<rscale>  0 0.30394940E+03</rscale>
<asrwt>0</asrwt>
<pdfrwt beam="1">  1        1 0.50829875E-01 0.30394940E+03</pdfrwt>
<pdfrwt beam="2">  1       -1 0.10754664E-01 0.30394940E+03</pdfrwt>
<totfact> 0.42087338E+03</totfact>
</mgrwt>
</event>
<event>
 9    1  0.7816570E-001  0.2735774E+03  0.7818608E-02  0.1099249E+00
          3   -1    0    0  501    0  0.00000000000E+00  0.00000000000E+00  0.69770996982E+02  0.69770996982E+02  0.00000000000E+00 0.  1.
         -3   -1    0    0    0  501 -0.00000000000E+00 -0.00000000000E+00 -0.26817940219E+03  0.26817940219E+03  0.00000000000E+00 0.  1.
         35    2    1    2    0    0  0.00000000000E+00  0.14210854715E-13 -0.19840840521E+03  0.33795039917E+03  0.27357736939E+03 0.  0.
         25    2    3    3    0    0  0.59196026810E+01 -0.51650793546E+02 -0.11413150134E+03  0.17835755549E+03  0.12681708021E+03 0.  0.
         25    2    3    3    0    0 -0.59196026810E+01  0.51650793546E+02 -0.84276903867E+02  0.15959284368E+03  0.12515763285E+03 0.  0.
          5    1    4    4  502    0  0.58185558985E+02 -0.43329821497E+02 -0.99533860391E+02  0.12325628613E+03  0.47000000000E+01 0.  1.
         -5    1    4    4    0  502 -0.52265956304E+02 -0.83209720491E+01 -0.14597640950E+02  0.55101269364E+02  0.47000000000E+01 0.  1.
          5    1    5    5  503    0 -0.46469764942E+02  0.47811224180E+02 -0.95974250714E+02  0.11695511537E+03  0.47000000000E+01 0. -1.
         -5    1    5    5    0  503  0.40550162261E+02  0.38395693659E+01  0.11697346847E+02  0.42637728312E+02  0.47000000000E+01 0. -1.
<mgrwt>
<rscale>  0 0.27357737E+03</rscale>
<asrwt>0</asrwt>
<pdfrwt beam="1">  1        3 0.10733999E-01 0.27357737E+03</pdfrwt>
<pdfrwt beam="2">  1       -3 0.41258370E-01 0.27357737E+03</pdfrwt>
<totfact> 0.97388888E+02</totfact>
</mgrwt>
</event>
<event>
 9    1  0.7816570E-001  0.2763294E+03  0.7818608E-02  0.1097711E+00
          1   -1    0    0  501    0  0.00000000000E+00  0.00000000000E+00  0.60138905253E+03  0.60138905253E+03  0.00000000000E+00 0.  1.
         -1   -1    0    0    0  501 -0.00000000000E+00 -0.00000000000E+00 -0.31742310345E+02  0.31742310345E+02  0.00000000000E+00 0.  1.
         35    2    1    2    0    0  0.00000000000E+00 -0.35527136788E-14  0.56964674218E+03  0.63313136287E+03  0.27632935380E+03 0.  0.
         25    2    3    3    0    0 -0.37148210157E+02 -0.26254891629E+02  0.37311059199E+03  0.39597769802E+03  0.12456931652E+03 0.  0.
         25    2    3    3    0    0  0.37148210157E+02  0.26254891629E+02  0.19653615019E+03  0.23715366486E+03  0.12468397479E+03 0.  0.
          5    1    4    4  502    0  0.28992567632E+02 -0.44436391046E+02  0.89493980316E+02  0.10414616815E+03  0.47000000000E+01 0. -1.
         -5    1    4    4    0  502 -0.66140777789E+02  0.18181499417E+02  0.28361661167E+03  0.29183152987E+03  0.47000000000E+01 0. -1.
          5    1    5    5  503    0  0.49305755538E+02 -0.40507004177E+02  0.10759330761E+03  0.12518100798E+03  0.47000000000E+01 0. -1.
         -5    1    5    5    0  503 -0.12157545380E+02  0.66761895806E+02  0.88942842578E+02  0.11197265687E+03  0.47000000000E+01 0. -1.
<mgrwt>
<rscale>  0 0.27632935E+03</rscale>
<asrwt>0</asrwt>
<pdfrwt beam="1">  1        1 0.92521384E-01 0.27632935E+03</pdfrwt>
<pdfrwt beam="2">  1       -1 0.48834328E-02 0.27632935E+03</pdfrwt>
<totfact> 0.63708066E+03</totfact>
</mgrwt>
</event>
<event>
 9    1  0.7816570E-001  0.2738634E+03  0.7818608E-02  0.1099089E+00
          1   -1    0    0  501    0  0.00000000000E+00  0.00000000000E+00  0.10451830968E+04  0.10451830968E+04  0.00000000000E+00 0.  1.
         -1   -1    0    0    0  501 -0.00000000000E+00 -0.00000000000E+00 -0.17939724583E+02  0.17939724583E+02  0.00000000000E+00 0.  1.
         35    2    1    2    0    0  0.00000000000E+00  0.14210854715E-13  0.10272433722E+04  0.10631228214E+04  0.27386344695E+03 0.  0.
         25    2    3    3    0    0 -0.19028965607E+01 -0.57981156866E+02  0.50025315184E+03  0.51882306555E+03  0.12473460570E+03 0.  0.
         25    2    3    3    0    0  0.19028965607E+01  0.57981156866E+02  0.52699022035E+03  0.54429975580E+03  0.12319941661E+03 0.  0.
          5    1    4    4  502    0 -0.38843151735E+02 -0.83583502374E+02  0.34436881681E+03  0.35652063657E+03  0.47000000000E+01 0.  1.
         -5    1    4    4    0  502  0.36940255175E+02  0.25602345508E+02  0.15588433502E+03  0.16230242898E+03  0.47000000000E+01 0.  1.
          5    1    5    5  503    0  0.46721144511E+02  0.11453148936E+02  0.38751461238E+03  0.39051722725E+03  0.47000000000E+01 0.  1.
         -5    1    5    5    0  503 -0.44818247950E+02  0.46528007930E+02  0.13947560797E+03  0.15378252855E+03  0.47000000000E+01 0.  1.
<mgrwt>
<rscale>  0 0.27386345E+03</rscale>
<asrwt>0</asrwt>
<pdfrwt beam="1">  1        1 0.16079735E+00 0.27386345E+03</pdfrwt>
<pdfrwt beam="2">  1       -1 0.27599585E-02 0.27386345E+03</pdfrwt>
<totfact> 0.63104258E+03</totfact>
</mgrwt>
</event>
<event>
 9    1  0.7816570E-001  0.2686367E+03  0.7818608E-02  0.1102062E+00
         -1   -1    0    0    0  501 -0.00000000000E+00  0.00000000000E+00  0.35024326859E+02  0.35024326859E+02  0.00000000000E+00 0. -1.
          1   -1    0    0  501    0  0.00000000000E+00 -0.00000000000E+00 -0.51511090668E+03  0.51511090668E+03  0.00000000000E+00 0. -1.
         35    2    1    2    0    0  0.00000000000E+00  0.00000000000E+00 -0.48008657982E+03  0.55013523354E+03  0.26863665248E+03 0.  0.
         25    2    3    3    0    0 -0.29459237618E+02 -0.38488058924E+02 -0.25491782831E+03  0.28812424519E+03  0.12523299929E+03 0.  0.
         25    2    3    3    0    0  0.29459237618E+02  0.38488058924E+02 -0.22516875151E+03  0.26201098835E+03  0.12489841473E+03 0.  0.
          5    1    4    4  502    0 -0.66141662033E+02 -0.21164865535E+02 -0.22996027972E+03  0.24026337890E+03  0.47000000000E+01 0. -1.
         -5    1    4    4    0  502  0.36682424415E+02 -0.17323193389E+02 -0.24957548590E+02  0.47860866287E+02  0.47000000000E+01 0. -1.
          5    1    5    5  503    0  0.29419412171E+02  0.33423649880E+02 -0.89227805205E+01  0.45654662369E+02  0.47000000000E+01 0. -1.
         -5    1    5    5    0  503  0.39825447172E-01  0.50644090436E+01 -0.21624597099E+03  0.21635632599E+03  0.47000000000E+01 0. -1.
<mgrwt>
<rscale>  0 0.26863665E+03</rscale>
<asrwt>0</asrwt>
<pdfrwt beam="1">  1        1 0.79247831E-01 0.26863665E+03</pdfrwt>
<pdfrwt beam="2">  1       -1 0.53883580E-02 0.26863665E+03</pdfrwt>
<totfact> 0.67816492E+03</totfact>
</mgrwt>
</event>
<event>
 9    1  0.7816570E-001  0.2751449E+03  0.7818608E-02  0.1098371E+00
          2   -1    0    0  501    0  0.00000000000E+00  0.00000000000E+00  0.32031798336E+02  0.32031798336E+02  0.00000000000E+00 0.  1.
         -2   -1    0    0    0  501 -0.00000000000E+00 -0.00000000000E+00 -0.59085583327E+03  0.59085583327E+03  0.00000000000E+00 0.  1.
         35    2    1    2    0    0  0.00000000000E+00  0.35527136788E-14 -0.55882403493E+03  0.62288763161E+03  0.27514487018E+03 0.  0.
         25    2    3    3    0    0  0.45386817451E+02  0.29503646670E+02 -0.32932169938E+03  0.35615228212E+03  0.12434322664E+03 0.  0.
         25    2    3    3    0    0 -0.45386817451E+02 -0.29503646670E+02 -0.22950233555E+03  0.26673534949E+03  0.12468358463E+03 0.  0.
          5    1    4    4  502    0  0.98681466437E+01  0.41360930961E+02 -0.25103662064E+02  0.49602326328E+02  0.47000000000E+01 0.  1.
         -5    1    4    4    0  502  0.35518670807E+02 -0.11857284291E+02 -0.30421803731E+03  0.30654995579E+03  0.47000000000E+01 0.  1.
          5    1    5    5  503    0 -0.76717970770E+02 -0.50292036016E+01 -0.76415995373E+02  0.10850084920E+03  0.47000000000E+01 0. -1.
         -5    1    5    5    0  503  0.31331153319E+02 -0.24474443068E+02 -0.15308634018E+03  0.15823450029E+03  0.47000000000E+01 0. -1.
<mgrwt>
<rscale>  0 0.27514487E+03</rscale>
<asrwt>0</asrwt>
<pdfrwt beam="1">  1        2 0.49279689E-02 0.27514487E+03</pdfrwt>
<pdfrwt beam="2">  1       -2 0.90900900E-01 0.27514487E+03</pdfrwt>
<totfact> 0.17107056E+03</totfact>
</mgrwt>
</event>
<event>
 9    1  0.7816570E-001  0.2621618E+03  0.7818608E-02  0.1105851E+00
          2   -1    0    0  501    0  0.00000000000E+00  0.00000000000E+00  0.61546931362E+03  0.61546931362E+03  0.00000000000E+00 0.  1.
         -2   -1    0    0    0  501 -0.00000000000E+00 -0.00000000000E+00 -0.27917237645E+02  0.27917237645E+02  0.00000000000E+00 0.  1.
         35    2    1    2    0    0  0.00000000000E+00  0.35527136788E-14  0.58755207597E+03  0.64338655126E+03  0.26216180570E+03 0.  0.
         25    2    3    3    0    0  0.12311756403E+02  0.13002042165E+02  0.28645241792E+03  0.31308163220E+03  0.12507792869E+03 0.  0.
         25    2    3    3    0    0 -0.12311756403E+02 -0.13002042165E+02  0.30109965806E+03  0.33030491906E+03  0.13460944628E+03 0.  0.
          5    1    4    4  502    0  0.38094536282E+02  0.56383401715E+02  0.21440426671E+03  0.22499235824E+03  0.47000000000E+01 0. -1.
         -5    1    4    4    0  502 -0.25782779879E+02 -0.43381359550E+02  0.72048151210E+02  0.88089273964E+02  0.47000000000E+01 0. -1.
          5    1    5    5  503    0 -0.43060656715E+02  0.21541636580E+02  0.33852935883E+02  0.59045520839E+02  0.47000000000E+01 0.  1.
         -5    1    5    5    0  503  0.30748900311E+02 -0.34543678745E+02  0.26724672217E+03  0.27125939822E+03  0.47000000000E+01 0.  1.
<mgrwt>
<rscale>  0 0.26216181E+03</rscale>
<asrwt>0</asrwt>
<pdfrwt beam="1">  1        2 0.94687576E-01 0.26216181E+03</pdfrwt>
<pdfrwt beam="2">  1       -2 0.42949601E-02 0.26216181E+03</pdfrwt>
<totfact> 0.11994727E+04</totfact>
</mgrwt>
</event>
<event>
 9    1  0.7816570E-001  0.2718130E+03  0.7818608E-02  0.1100246E+00
          2   -1    0    0  501    0  0.00000000000E+00  0.00000000000E+00  0.29152805978E+02  0.29152805978E+02  0.00000000000E+00 0. -1.
         -2   -1    0    0    0  501 -0.00000000000E+00 -0.00000000000E+00 -0.63357824106E+03  0.63357824106E+03  0.00000000000E+00 0. -1.
         35    2    1    2    0    0  0.00000000000E+00  0.00000000000E+00 -0.60442543508E+03  0.66273104704E+03  0.27181304997E+03 0.  0.
         25    2    3    3    0    0  0.38294818678E+02 -0.35127817164E+02 -0.32659548101E+03  0.35366382676E+03  0.12535165523E+03 0.  0.
         25    2    3    3    0    0 -0.38294818678E+02  0.35127817164E+02 -0.27782995408E+03  0.30906722028E+03  0.12503042267E+03 0.  0.
          5    1    4    4  502    0  0.36766439275E+02 -0.49543914151E+02 -0.33183057398E+03  0.33754998195E+03  0.47000000000E+01 0.  1.
         -5    1    4    4    0  502  0.15283794034E+01  0.14416096987E+02  0.52350929788E+01  0.16113844806E+02  0.47000000000E+01 0.  1.
          5    1    5    5  503    0 -0.40954424120E+01  0.65718036495E+02 -0.24148177329E+03  0.25034210553E+03  0.47000000000E+01 0.  1.
         -5    1    5    5    0  503 -0.34199376266E+02 -0.30590219331E+02 -0.36348180784E+02  0.58725114747E+02  0.47000000000E+01 0.  1.
<mgrwt>
<rscale>  0 0.27181305E+03</rscale>
<asrwt>0</asrwt>
<pdfrwt beam="1">  1        2 0.44850470E-02 0.27181305E+03</pdfrwt>
<pdfrwt beam="2">  1       -2 0.97473578E-01 0.27181305E+03</pdfrwt>
<totfact> 0.16518952E+03</totfact>
</mgrwt>
</event>
<event>
 9    1  0.7816570E-001  0.2730772E+03  0.7818608E-02  0.1099531E+00
         -2   -1    0    0    0  501 -0.00000000000E+00  0.00000000000E+00  0.11261788244E+03  0.11261788244E+03  0.00000000000E+00 0.  1.
          2   -1    0    0  501    0  0.00000000000E+00 -0.00000000000E+00 -0.16554021890E+03  0.16554021890E+03  0.00000000000E+00 0.  1.
         35    2    1    2    0    0  0.35527136788E-14  0.35527136788E-14 -0.52922336457E+02  0.27815810133E+03  0.27307719722E+03 0.  0.
         25    2    3    3    0    0  0.31819623747E+02 -0.89528365000E+00 -0.72093802860E+02  0.14815517315E+03  0.12545576484E+03 0.  0.
         25    2    3    3    0    0 -0.31819623747E+02  0.89528365000E+00  0.19171466402E+02  0.13000292819E+03  0.12457899592E+03 0.  0.
          5    1    4    4  502    0 -0.25105830216E+02 -0.47790595433E+02 -0.20107051005E+02  0.57798159338E+02  0.47000000000E+01 0. -1.
         -5    1    4    4    0  502  0.56925453963E+02  0.46895311783E+02 -0.51986751854E+02  0.90357013809E+02  0.47000000000E+01 0. -1.
          5    1    5    5  503    0  0.85891666890E+01 -0.23391673668E+02  0.61466360400E+02  0.66491711079E+02  0.47000000000E+01 0. -1.
         -5    1    5    5    0  503 -0.40408790436E+02  0.24286957318E+02 -0.42294893998E+02  0.63511217108E+02  0.47000000000E+01 0. -1.
<mgrwt>
<rscale>  0 0.27307720E+03</rscale>
<asrwt>0</asrwt>
<pdfrwt beam="1">  1        2 0.25467726E-01 0.27307720E+03</pdfrwt>
<pdfrwt beam="2">  1       -2 0.17325828E-01 0.27307720E+03</pdfrwt>
<totfact> 0.56164684E+03</totfact>
</mgrwt>
</event>
<event>
 9    1  0.7816570E-001  0.2775103E+03  0.7818608E-02  0.1097057E+00
         -3   -1    0    0    0  501 -0.00000000000E+00  0.00000000000E+00  0.31968788650E+03  0.31968788650E+03  0.00000000000E+00 0.  1.
          3   -1    0    0  501    0  0.00000000000E+00 -0.00000000000E+00 -0.60224343106E+02  0.60224343106E+02  0.00000000000E+00 0.  1.
         35    2    1    2    0    0 -0.71054273576E-14 -0.35527136788E-14  0.25946354340E+03  0.37991222961E+03  0.27751030946E+03 0.  0.
         25    2    3    3    0    0 -0.56739871510E+02 -0.13815224355E+01  0.10058814289E+03  0.17012298819E+03  0.12491010767E+03 0.  0.
         25    2    3    3    0    0  0.56739871510E+02  0.13815224355E+01  0.15887540051E+03  0.20978924142E+03  0.12469487281E+03 0.  0.
          5    1    4    4  502    0  0.31120674879E+02  0.30271092249E+02  0.33548952513E+02  0.55067755044E+02  0.47000000000E+01 0. -1.
         -5    1    4    4    0  502 -0.87860546389E+02 -0.31652614685E+02  0.67039190372E+02  0.11505523314E+03  0.47000000000E+01 0. -1.
          5    1    5    5  503    0  0.42180664066E+02  0.36174572551E+02  0.16231320111E+03  0.17162596941E+03  0.47000000000E+01 0. -1.
         -5    1    5    5    0  503  0.14559207444E+02 -0.34793050115E+02 -0.34378005994E+01  0.38163272012E+02  0.47000000000E+01 0. -1.
<mgrwt>
<rscale>  0 0.27751031E+03</rscale>
<asrwt>0</asrwt>
<pdfrwt beam="1">  1        3 0.92652838E-02 0.27751031E+03</pdfrwt>
<pdfrwt beam="2">  1       -3 0.49182751E-01 0.27751031E+03</pdfrwt>
<totfact> 0.88005102E+02</totfact>
</mgrwt>
</event>
<event>
 9    1  0.7816570E-001  0.2708213E+03  0.7818608E-02  0.1100810E+00
          1   -1    0    0  501    0  0.00000000000E+00  0.00000000000E+00  0.72871880636E+03  0.72871880636E+03  0.00000000000E+00 0. -1.
         -1   -1    0    0    0  501 -0.00000000000E+00 -0.00000000000E+00 -0.25162030494E+02  0.25162030494E+02  0.00000000000E+00 0. -1.
         35    2    1    2    0    0  0.00000000000E+00  0.00000000000E+00  0.70355677587E+03  0.75388083685E+03  0.27082130512E+03 0.  0.
         25    2    3    3    0    0  0.12584325173E+02 -0.36749247615E+02  0.27766500026E+03  0.30728242449E+03  0.12576073946E+03 0.  0.
         25    2    3    3    0    0 -0.12584325173E+02  0.36749247615E+02  0.42589177561E+03  0.44659841237E+03  0.12867581341E+03 0.  0.
          5    1    4    4  502    0 -0.10150674903E+02 -0.31994041797E+02  0.57991280750E+01  0.34385677221E+02  0.47000000000E+01 0. -1.
         -5    1    4    4    0  502  0.22735000076E+02 -0.47552058177E+01  0.27186587218E+03  0.27289674727E+03  0.47000000000E+01 0. -1.
          5    1    5    5  503    0 -0.15008402323E+01  0.79378871129E+02  0.18056476875E+03  0.19730429143E+03  0.47000000000E+01 0.  1.
         -5    1    5    5    0  503 -0.11083484941E+02 -0.42629623514E+02  0.24532700686E+03  0.24929412094E+03  0.47000000000E+01 0.  1.
<mgrwt>
<rscale>  0 0.27082131E+03</rscale>
<asrwt>0</asrwt>
<pdfrwt beam="1">  1        1 0.11211057E+00 0.27082131E+03</pdfrwt>
<pdfrwt beam="2">  1       -1 0.38710822E-02 0.27082131E+03</pdfrwt>
<totfact> 0.68373284E+03</totfact>
</mgrwt>
</event>
<event>
 9    1  0.7816570E-001  0.2738402E+03  0.7818608E-02  0.1099102E+00
          3   -1    0    0  501    0  0.00000000000E+00  0.00000000000E+00  0.49979632278E+03  0.49979632278E+03  0.00000000000E+00 0. -1.
         -3   -1    0    0    0  501 -0.00000000000E+00 -0.00000000000E+00 -0.37509519051E+02  0.37509519051E+02  0.00000000000E+00 0. -1.
         35    2    1    2    0    0  0.00000000000E+00  0.35527136788E-14  0.46228680373E+03  0.53730584183E+03  0.27384024314E+03 0.  0.
         25    2    3    3    0    0  0.77518192538E+00 -0.14002675217E+02  0.34201576041E+03  0.36398930487E+03  0.12376088990E+03 0.  0.
         25    2    3    3    0    0 -0.77518192538E+00  0.14002675217E+02  0.12027104332E+03  0.17331653696E+03  0.12400331569E+03 0.  0.
          5    1    4    4  502    0 -0.24725589976E+02 -0.40834296550E+02  0.48866943053E+02  0.68475270702E+02  0.47000000000E+01 0. -1.
         -5    1    4    4    0  502  0.25500771902E+02  0.26831621334E+02  0.29314881736E+03  0.29551403417E+03  0.47000000000E+01 0. -1.
          5    1    5    5  503    0 -0.11103042756E+02 -0.23802438934E+02 -0.16225150890E+02  0.31227859022E+02  0.47000000000E+01 0. -1.
         -5    1    5    5    0  503  0.10327860830E+02  0.37805114151E+02  0.13649619421E+03  0.14208867794E+03  0.47000000000E+01 0. -1.
<mgrwt>
<rscale>  0 0.27384024E+03</rscale>
<asrwt>0</asrwt>
<pdfrwt beam="1">  1        3 0.76891737E-01 0.27384024E+03</pdfrwt>
<pdfrwt beam="2">  1       -3 0.57706956E-02 0.27384024E+03</pdfrwt>
<totfact> 0.74893199E+02</totfact>
</mgrwt>
</event>
<event>
 9    1  0.7816570E-001  0.2742646E+03  0.7818608E-02  0.1098863E+00
          2   -1    0    0  501    0  0.00000000000E+00  0.00000000000E+00  0.14665450374E+03  0.14665450374E+03  0.00000000000E+00 0. -1.
         -2   -1    0    0    0  501 -0.00000000000E+00 -0.00000000000E+00 -0.12822840166E+03  0.12822840166E+03  0.00000000000E+00 0. -1.
         35    2    1    2    0    0  0.35527136788E-14  0.71054273576E-14  0.18426102083E+02  0.27488290540E+03  0.27426463578E+03 0.  0.
         25    2    3    3    0    0 -0.31951104533E+02  0.31328937769E+01  0.55820166557E+02  0.14011580419E+03  0.12444219335E+03 0.  0.
         25    2    3    3    0    0  0.31951104533E+02 -0.31328937769E+01 -0.37394064474E+02  0.13476710120E+03  0.12543192339E+03 0.  0.
          5    1    4    4  502    0 -0.42743467182E+02 -0.48956545416E+02  0.33451443128E+01  0.65245898847E+02  0.47000000000E+01 0.  1.
         -5    1    4    4    0  502  0.10792362650E+02  0.52089439193E+02  0.52475022244E+02  0.74869905347E+02  0.47000000000E+01 0.  1.
          5    1    5    5  503    0  0.28624687266E+01  0.37801250386E+02 -0.66385866119E+02  0.76591784666E+02  0.47000000000E+01 0. -1.
         -5    1    5    5    0  503  0.29088635806E+02 -0.40934144163E+02  0.28991801645E+02  0.58175316536E+02  0.47000000000E+01 0. -1.
<mgrwt>
<rscale>  0 0.27426464E+03</rscale>
<asrwt>0</asrwt>
<pdfrwt beam="1">  1        2 0.22562231E-01 0.27426464E+03</pdfrwt>
<pdfrwt beam="2">  1       -2 0.19727447E-01 0.27426464E+03</pdfrwt>
<totfact> 0.51656937E+03</totfact>
</mgrwt>
</event>
<event>
 9    1  0.7816570E-001  0.2765205E+03  0.7818608E-02  0.1097605E+00
          2   -1    0    0  501    0  0.00000000000E+00  0.00000000000E+00  0.95947859794E+03  0.95947859794E+03  0.00000000000E+00 0.  1.
         -2   -1    0    0    0  501 -0.00000000000E+00 -0.00000000000E+00 -0.19923212579E+02  0.19923212579E+02  0.00000000000E+00 0.  1.
         35    2    1    2    0    0  0.00000000000E+00  0.00000000000E+00  0.93955538537E+03  0.97940181052E+03  0.27652049524E+03 0.  0.
         25    2    3    3    0    0  0.41675578269E+02 -0.42225732581E+02  0.51532252594E+03  0.53346696777E+03  0.12453848257E+03 0.  0.
         25    2    3    3    0    0 -0.41675578269E+02  0.42225732581E+02  0.42423285943E+03  0.44593484276E+03  0.12395361492E+03 0.  0.
          5    1    4    4  502    0 -0.41328617334E+02 -0.33160833388E+02  0.23440069490E+03  0.24036112675E+03  0.47000000000E+01 0.  1.
         -5    1    4    4    0  502  0.83004195603E+02 -0.90648991925E+01  0.28092183104E+03  0.29310584102E+03  0.47000000000E+01 0.  1.
          5    1    5    5  503    0  0.31312933467E+02  0.54311258159E+01  0.26447740359E+03  0.26642144047E+03  0.47000000000E+01 0. -1.
         -5    1    5    5    0  503 -0.72988511736E+02  0.36794606765E+02  0.15975545583E+03  0.17951340229E+03  0.47000000000E+01 0. -1.
<mgrwt>
<rscale>  0 0.27652050E+03</rscale>
<asrwt>0</asrwt>
<pdfrwt beam="1">  1        2 0.14761206E+00 0.27652050E+03</pdfrwt>
<pdfrwt beam="2">  1       -2 0.30651104E-02 0.27652050E+03</pdfrwt>
<totfact> 0.11387141E+04</totfact>
</mgrwt>
</event>
<event>
 9    1  0.7816570E-001  0.2671224E+03  0.7818608E-02  0.1102938E+00
          1   -1    0    0  501    0  0.00000000000E+00  0.00000000000E+00  0.96280771953E+03  0.96280771953E+03  0.00000000000E+00 0. -1.
         -1   -1    0    0    0  501 -0.00000000000E+00 -0.00000000000E+00 -0.18527676532E+02  0.18527676532E+02  0.00000000000E+00 0. -1.
         35    2    1    2    0    0  0.35527136788E-14 -0.35527136788E-14  0.94428004300E+03  0.98133539607E+03  0.26712236889E+03 0.  0.
         25    2    3    3    0    0 -0.20434212189E+02 -0.15290690391E+02  0.32821196332E+03  0.35197260025E+03  0.12454017914E+03 0.  0.
         25    2    3    3    0    0  0.20434212189E+02  0.15290690391E+02  0.61606807968E+03  0.62936279582E+03  0.12612013206E+03 0.  0.
          5    1    4    4  502    0 -0.36661112657E+02 -0.42130953974E+02  0.31075999000E+03  0.31577351986E+03  0.47000000000E+01 0.  1.
         -5    1    4    4    0  502  0.16226900468E+02  0.26840263583E+02  0.17451973319E+02  0.36199080385E+02  0.47000000000E+01 0.  1.
          5    1    5    5  503    0 -0.59247979102E+01 -0.13106751323E+02  0.34728287931E+01  0.15525485510E+02  0.47000000000E+01 0. -1.
         -5    1    5    5    0  503  0.26359010099E+02  0.28397441713E+02  0.61259525089E+03  0.61383731031E+03  0.47000000000E+01 0. -1.
<mgrwt>
<rscale>  0 0.26712237E+03</rscale>
<asrwt>0</asrwt>
<pdfrwt beam="1">  1        1 0.14812423E+00 0.26712237E+03</pdfrwt>
<pdfrwt beam="2">  1       -1 0.28504125E-02 0.26712237E+03</pdfrwt>
<totfact> 0.69302165E+03</totfact>
</mgrwt>
</event>
<event>
 9    1  0.7816570E-001  0.2737823E+03  0.7818608E-02  0.1099134E+00
          1   -1    0    0  501    0  0.00000000000E+00  0.00000000000E+00  0.80758667570E+03  0.80758667570E+03  0.00000000000E+00 0.  1.
         -1   -1    0    0    0  501 -0.00000000000E+00 -0.00000000000E+00 -0.23203933089E+02  0.23203933089E+02  0.00000000000E+00 0.  1.
         35    2    1    2    0    0 -0.35527136788E-14  0.14210854715E-13  0.78438274261E+03  0.83079060879E+03  0.27378230174E+03 0.  0.
         25    2    3    3    0    0  0.84950873610E+01 -0.53898939678E+02  0.36423758929E+03  0.38889693086E+03  0.12487809725E+03 0.  0.
         25    2    3    3    0    0 -0.84950873610E+01  0.53898939678E+02  0.42014515332E+03  0.44189367792E+03  0.12558188774E+03 0.  0.
          5    1    4    4  502    0  0.54338139172E+02 -0.16827637574E+01  0.24326413095E+03  0.24930903006E+03  0.47000000000E+01 0.  1.
         -5    1    4    4    0  502 -0.45843051811E+02 -0.52216175920E+02  0.12097345834E+03  0.13958790080E+03  0.47000000000E+01 0.  1.
          5    1    5    5  503    0  0.25855476693E+02  0.18319180926E+02  0.36972852298E+03  0.37111368712E+03  0.47000000000E+01 0.  1.
         -5    1    5    5    0  503 -0.34350564054E+02  0.35579758752E+02  0.50416630338E+02  0.70779990805E+02  0.47000000000E+01 0.  1.
<mgrwt>
<rscale>  0 0.27378230E+03</rscale>
<asrwt>0</asrwt>
<pdfrwt beam="1">  1        1 0.12424408E+00 0.27378230E+03</pdfrwt>
<pdfrwt beam="2">  1       -1 0.35698365E-02 0.27378230E+03</pdfrwt>
<totfact> 0.66027347E+03</totfact>
</mgrwt>
</event>
<event>
 9    1  0.7816570E-001  0.2774317E+03  0.7818608E-02  0.1097100E+00
          2   -1    0    0  501    0  0.00000000000E+00  0.00000000000E+00  0.24463429302E+04  0.24463429302E+04  0.00000000000E+00 0. -1.
         -2   -1    0    0    0  501 -0.00000000000E+00 -0.00000000000E+00 -0.78656563900E+01  0.78656563900E+01  0.00000000000E+00 0. -1.
         35    2    1    2    0    0 -0.17763568394E-14 -0.71054273576E-14  0.24384772738E+04  0.24542085865E+04  0.27743174224E+03 0.  0.
         25    2    3    3    0    0 -0.46306241235E+00  0.57714493016E+02  0.12833626981E+04  0.12909869963E+04  0.12765748072E+03 0.  0.
         25    2    3    3    0    0  0.46306241235E+00 -0.57714493016E+02  0.11551145756E+04  0.11632215903E+04  0.12435275699E+03 0.  0.
          5    1    4    4  502    0 -0.11469993923E+02  0.72339124982E+02  0.12535025253E+04  0.12556493064E+04  0.47000000000E+01 0. -1.
         -5    1    4    4    0  502  0.11006931511E+02 -0.14624631966E+02  0.29860172871E+02  0.35337689870E+02  0.47000000000E+01 0. -1.
          5    1    5    5  503    0  0.28165233097E+02 -0.68837715702E+02  0.36506259073E+03  0.37259186332E+03  0.47000000000E+01 0.  1.
         -5    1    5    5    0  503 -0.27702170685E+02  0.11123222686E+02  0.79005198488E+03  0.79062972697E+03  0.47000000000E+01 0.  1.
<mgrwt>
<rscale>  0 0.27743174E+03</rscale>
<asrwt>0</asrwt>
<pdfrwt beam="1">  1        2 0.37635985E+00 0.27743174E+03</pdfrwt>
<pdfrwt beam="2">  1       -2 0.12101029E-02 0.27743174E+03</pdfrwt>
<totfact> 0.69297947E+03</totfact>
</mgrwt>
</event>
<event>
 9    1  0.7816570E-001  0.2769642E+03  0.7818608E-02  0.1097359E+00
          2   -1    0    0  501    0  0.00000000000E+00  0.00000000000E+00  0.29441764657E+04  0.29441764657E+04  0.00000000000E+00 0.  1.
         -2   -1    0    0    0  501 -0.00000000000E+00 -0.00000000000E+00 -0.65136354601E+01  0.65136354601E+01  0.00000000000E+00 0.  1.
         35    2    1    2    0    0 -0.71054273576E-14  0.10658141036E-13  0.29376628303E+04  0.29506901012E+04  0.27696420150E+03 0.  0.
         25    2    3    3    0    0  0.37764754761E+02  0.17659421697E+02  0.10156068014E+04  0.10241018195E+04  0.12485723687E+03 0.  0.
         25    2    3    3    0    0 -0.37764754761E+02 -0.17659421697E+02  0.19220560288E+04  0.19265882817E+04  0.12531958142E+03 0.  0.
          5    1    4    4  502    0  0.65584089695E+02  0.13834147141E+02  0.28018567175E+03  0.28812975741E+03  0.47000000000E+01 0.  1.
         -5    1    4    4    0  502 -0.27819334934E+02  0.38252745562E+01  0.73542112969E+03  0.73597206205E+03  0.47000000000E+01 0.  1.
          5    1    5    5  503    0 -0.20612445480E+02 -0.68123379223E+02  0.77197821759E+03  0.77526648718E+03  0.47000000000E+01 0.  1.
         -5    1    5    5    0  503 -0.17152309281E+02  0.50463957527E+02  0.11500778112E+04  0.11513217946E+04  0.47000000000E+01 0.  1.
<mgrwt>
<rscale>  0 0.27696420E+03</rscale>
<asrwt>0</asrwt>
<pdfrwt beam="1">  1        2 0.45294916E+00 0.27696420E+03</pdfrwt>
<pdfrwt beam="2">  1       -2 0.10021001E-02 0.27696420E+03</pdfrwt>
<totfact> 0.47771892E+03</totfact>
</mgrwt>
</event>
<event>
 9    1  0.7816570E-001  0.2730235E+03  0.7818608E-02  0.1099562E+00
         -1   -1    0    0    0  501 -0.00000000000E+00  0.00000000000E+00  0.32330500254E+02  0.32330500254E+02  0.00000000000E+00 0.  1.
          1   -1    0    0  501    0  0.00000000000E+00 -0.00000000000E+00 -0.57640495447E+03  0.57640495447E+03  0.00000000000E+00 0.  1.
         35    2    1    2    0    0  0.00000000000E+00  0.00000000000E+00 -0.54407445421E+03  0.60873545472E+03  0.27302351933E+03 0.  0.
         25    2    3    3    0    0 -0.39144140148E+02 -0.24925559996E+01 -0.34964477745E+03  0.37334203494E+03  0.12487725219E+03 0.  0.
         25    2    3    3    0    0  0.39144140148E+02  0.24925559996E+01 -0.19442967676E+03  0.23539341978E+03  0.12676232219E+03 0.  0.
          5    1    4    4  502    0 -0.18386760285E+02 -0.44666586549E+02 -0.48845925228E+02  0.68856309218E+02  0.47000000000E+01 0.  1.
         -5    1    4    4    0  502 -0.20757379863E+02  0.42174030550E+02 -0.30079885222E+03  0.30448572572E+03  0.47000000000E+01 0.  1.
          5    1    5    5  503    0 -0.22312725488E+02 -0.42308515257E+02 -0.37563829254E+02  0.60999995493E+02  0.47000000000E+01 0.  1.
         -5    1    5    5    0  503  0.61456865635E+02  0.44801071256E+02 -0.15686584751E+03  0.17439342429E+03  0.47000000000E+01 0.  1.
<mgrwt>
<rscale>  0 0.27302352E+03</rscale>
<asrwt>0</asrwt>
<pdfrwt beam="1">  1        1 0.88677687E-01 0.27302352E+03</pdfrwt>
<pdfrwt beam="2">  1       -1 0.49739230E-02 0.27302352E+03</pdfrwt>
<totfact> 0.65699211E+03</totfact>
</mgrwt>
</event>
<event>
 9    1  0.7816570E-001  0.2966793E+03  0.7818608E-02  0.1086912E+00
         -4   -1    0    0    0  501 -0.00000000000E+00  0.00000000000E+00  0.46270068123E+02  0.46270068123E+02  0.00000000000E+00 0.  1.
          4   -1    0    0  501    0  0.00000000000E+00 -0.00000000000E+00 -0.47556976099E+03  0.47556976099E+03  0.00000000000E+00 0.  1.
         35    2    1    2    0    0 -0.35527136788E-14  0.00000000000E+00 -0.42929969287E+03  0.52183982912E+03  0.29667925602E+03 0.  0.
         25    2    3    3    0    0  0.19296894468E+02  0.72804775857E+02 -0.16800557214E+03  0.22270779275E+03  0.12529957364E+03 0.  0.
         25    2    3    3    0    0 -0.19296894468E+02 -0.72804775857E+02 -0.26129412073E+03  0.29913203637E+03  0.12462925873E+03 0.  0.
          5    1    4    4  502    0  0.49524327527E+02 -0.11727149085E+02 -0.34160801423E+02  0.61475486143E+02  0.47000000000E+01 0.  1.
         -5    1    4    4    0  502 -0.30227433059E+02  0.84531924942E+02 -0.13384477072E+03  0.16123230660E+03  0.47000000000E+01 0.  1.
          5    1    5    5  503    0 -0.47002408963E+02 -0.87937638214E+02 -0.12938276659E+03  0.16341433521E+03  0.47000000000E+01 0.  1.
         -5    1    5    5    0  503  0.27705514495E+02  0.15132862357E+02 -0.13191135414E+03  0.13571770116E+03  0.47000000000E+01 0.  1.
<mgrwt>
<rscale>  0 0.29667926E+03</rscale>
<asrwt>0</asrwt>
<pdfrwt beam="1">  1        4 0.73164577E-01 0.29667926E+03</pdfrwt>
<pdfrwt beam="2">  1       -4 0.71184722E-02 0.29667926E+03</pdfrwt>
<totfact> 0.43839179E+02</totfact>
</mgrwt>
</event>
<event>
 9    1  0.7816570E-001  0.2741897E+03  0.7818608E-02  0.1098905E+00
          2   -1    0    0  501    0  0.00000000000E+00  0.00000000000E+00  0.72781330764E+01  0.72781330764E+01  0.00000000000E+00 0.  1.
         -2   -1    0    0    0  501 -0.00000000000E+00 -0.00000000000E+00 -0.25823933542E+04  0.25823933542E+04  0.00000000000E+00 0.  1.
         35    2    1    2    0    0 -0.71054273576E-14  0.00000000000E+00 -0.25751152211E+04  0.25896714872E+04  0.27418973348E+03 0.  0.
         25    2    3    3    0    0 -0.40625082189E+02  0.37335992723E+02 -0.11811456955E+04  0.11890721080E+04  0.12547091454E+03 0.  0.
         25    2    3    3    0    0  0.40625082189E+02 -0.37335992723E+02 -0.13939695256E+04  0.14005993793E+04  0.12443154413E+03 0.  0.
          5    1    4    4  502    0  0.33037563526E+02  0.19606365133E+02 -0.14270302090E+03  0.14785848752E+03  0.47000000000E+01 0. -1.
         -5    1    4    4    0  502 -0.73662645715E+02  0.17729627590E+02 -0.10384426746E+04  0.10412136205E+04  0.47000000000E+01 0. -1.
          5    1    5    5  503    0  0.58830723302E+01 -0.48050529357E+02 -0.12790491533E+04  0.12799735507E+04  0.47000000000E+01 0.  1.
         -5    1    5    5    0  503  0.34742009859E+02  0.10714536634E+02 -0.11492037234E+03  0.12062582859E+03  0.47000000000E+01 0.  1.
<mgrwt>
<rscale>  0 0.27418973E+03</rscale>
<asrwt>0</asrwt>
<pdfrwt beam="1">  1        2 0.11197100E-02 0.27418973E+03</pdfrwt>
<pdfrwt beam="2">  1       -2 0.39729228E+00 0.27418973E+03</pdfrwt>
<totfact> 0.11558030E+02</totfact>
</mgrwt>
</event>
<event>
 9    1  0.7816570E-001  0.2781387E+03  0.7818608E-02  0.1096710E+00
          2   -1    0    0  501    0  0.00000000000E+00  0.00000000000E+00  0.11252767095E+04  0.11252767095E+04  0.00000000000E+00 0. -1.
         -2   -1    0    0    0  501 -0.00000000000E+00 -0.00000000000E+00 -0.17187130621E+02  0.17187130621E+02  0.00000000000E+00 0. -1.
         35    2    1    2    0    0  0.71054273576E-14  0.35527136788E-14  0.11080895789E+04  0.11424638401E+04  0.27813865456E+03 0.  0.
         25    2    3    3    0    0  0.33364369242E+02 -0.88499438191E+01  0.33756551815E+03  0.36159987280E+03  0.12494993526E+03 0.  0.
         25    2    3    3    0    0 -0.33364369242E+02  0.88499438191E+01  0.77052406071E+03  0.78086396730E+03  0.12185936428E+03 0.  0.
          5    1    4    4  502    0 -0.60604068207E+01  0.52617667842E+02  0.10346304385E+03  0.11632729234E+03  0.47000000000E+01 0.  1.
         -5    1    4    4    0  502  0.39424776062E+02 -0.61467611661E+02  0.23410247430E+03  0.24527258046E+03  0.47000000000E+01 0.  1.
          5    1    5    5  503    0  0.39202432200E+02  0.28310544260E+02  0.22615680444E+03  0.23131646678E+03  0.47000000000E+01 0.  1.
         -5    1    5    5    0  503 -0.72566801441E+02 -0.19460600441E+02  0.54436725626E+03  0.54954750052E+03  0.47000000000E+01 0.  1.
<mgrwt>
<rscale>  0 0.27813865E+03</rscale>
<asrwt>0</asrwt>
<pdfrwt beam="1">  1        2 0.17311944E+00 0.27813865E+03</pdfrwt>
<pdfrwt beam="2">  1       -2 0.26441748E-02 0.27813865E+03</pdfrwt>
<totfact> 0.11272219E+04</totfact>
</mgrwt>
</event>
<event>
 9    1  0.7816570E-001  0.2738297E+03  0.7818608E-02  0.1099108E+00
         -2   -1    0    0    0  501 -0.00000000000E+00  0.00000000000E+00  0.49927982028E+02  0.49927982028E+02  0.00000000000E+00 0. -1.
          2   -1    0    0  501    0  0.00000000000E+00 -0.00000000000E+00 -0.37545429227E+03  0.37545429227E+03  0.00000000000E+00 0. -1.
         35    2    1    2    0    0  0.00000000000E+00  0.71054273576E-14 -0.32552631024E+03  0.42538227430E+03  0.27382969274E+03 0.  0.
         25    2    3    3    0    0 -0.46217544776E+02  0.34410714593E+02 -0.16094834647E+03  0.21159507304E+03  0.12469140299E+03 0.  0.
         25    2    3    3    0    0  0.46217544776E+02 -0.34410714593E+02 -0.16457796377E+03  0.21378720126E+03  0.12368873247E+03 0.  0.
          5    1    4    4  502    0 -0.67474024103E+01 -0.40323873724E+02 -0.97432668146E+02  0.10576746689E+03  0.47000000000E+01 0.  1.
         -5    1    4    4    0  502 -0.39470142366E+02  0.74734588317E+02 -0.63515678327E+02  0.10582760615E+03  0.47000000000E+01 0.  1.
          5    1    5    5  503    0 -0.20997819580E+01 -0.47384063120E+02 -0.67318829477E+01  0.48135919749E+02  0.47000000000E+01 0.  1.
         -5    1    5    5    0  503  0.48317326734E+02  0.12973348528E+02 -0.15784608082E+03  0.16565128151E+03  0.47000000000E+01 0.  1.
<mgrwt>
<rscale>  0 0.27382969E+03</rscale>
<asrwt>0</asrwt>
<pdfrwt beam="1">  1        2 0.57762197E-01 0.27382969E+03</pdfrwt>
<pdfrwt beam="2">  1       -2 0.76812282E-02 0.27382969E+03</pdfrwt>
<totfact> 0.85637249E+03</totfact>
</mgrwt>
</event>
<event>
 9    1  0.7816570E-001  0.2759256E+03  0.7818608E-02  0.1097935E+00
         -2   -1    0    0    0  501 -0.00000000000E+00  0.00000000000E+00  0.92484327685E+02  0.92484327685E+02  0.00000000000E+00 0.  1.
          2   -1    0    0  501    0  0.00000000000E+00 -0.00000000000E+00 -0.20580502962E+03  0.20580502962E+03  0.00000000000E+00 0.  1.
         35    2    1    2    0    0  0.00000000000E+00  0.00000000000E+00 -0.11332070193E+03  0.29828935730E+03  0.27592564070E+03 0.  0.
         25    2    3    3    0    0  0.27055292219E+02 -0.40219399290E+02 -0.87390341037E+02  0.16197039019E+03  0.12746664927E+03 0.  0.
         25    2    3    3    0    0 -0.27055292219E+02  0.40219399290E+02 -0.25930360897E+02  0.13631896711E+03  0.12474328945E+03 0.  0.
          5    1    4    4  502    0 -0.32915880295E+02 -0.10182936944E+02 -0.88115985577E+02  0.94729426762E+02  0.47000000000E+01 0. -1.
         -5    1    4    4    0  502  0.59971172514E+02 -0.30036462346E+02  0.72564454031E+00  0.67240963430E+02  0.47000000000E+01 0. -1.
          5    1    5    5  503    0 -0.27843074081E+02  0.82783532944E+02 -0.31842675105E+02  0.93082737706E+02  0.47000000000E+01 0.  1.
         -5    1    5    5    0  503  0.78778186183E+00 -0.42564133654E+02  0.59123142083E+01  0.43236229406E+02  0.47000000000E+01 0.  1.
<mgrwt>
<rscale>  0 0.27592564E+03</rscale>
<asrwt>0</asrwt>
<pdfrwt beam="1">  1        2 0.31662312E-01 0.27592564E+03</pdfrwt>
<pdfrwt beam="2">  1       -2 0.14228358E-01 0.27592564E+03</pdfrwt>
<totfact> 0.61284723E+03</totfact>
</mgrwt>
</event>
<event>
 9    1  0.7816570E-001  0.2799732E+03  0.7818608E-02  0.1095704E+00
          2   -1    0    0  501    0  0.00000000000E+00  0.00000000000E+00  0.27215806996E+04  0.27215806996E+04  0.00000000000E+00 0. -1.
         -2   -1    0    0    0  501 -0.00000000000E+00 -0.00000000000E+00 -0.72003185451E+01  0.72003185451E+01  0.00000000000E+00 0. -1.
         35    2    1    2    0    0 -0.14210854715E-13  0.00000000000E+00  0.27143803811E+04  0.27287810182E+04  0.27997319860E+03 0.  0.
         25    2    3    3    0    0  0.61144127376E+02 -0.24503994548E+01  0.12580452375E+04  0.12657643259E+04  0.12544680248E+03 0.  0.
         25    2    3    3    0    0 -0.61144127376E+02  0.24503994548E+01  0.14563351436E+04  0.14630166923E+04  0.12554354935E+03 0.  0.
          5    1    4    4  502    0  0.16974102958E+02 -0.86062579366E+01  0.11286223456E+04  0.11287925748E+04  0.47000000000E+01 0.  1.
         -5    1    4    4    0  502  0.44170024418E+02  0.61558584818E+01  0.12942289186E+03  0.13697175106E+03  0.47000000000E+01 0.  1.
          5    1    5    5  503    0 -0.69943635719E+02 -0.39490308780E+02  0.57196978771E+03  0.57760118136E+03  0.47000000000E+01 0.  1.
         -5    1    5    5    0  503  0.87995083428E+01  0.41940708235E+02  0.88436535588E+03  0.88541551095E+03  0.47000000000E+01 0.  1.
<mgrwt>
<rscale>  0 0.27997320E+03</rscale>
<asrwt>0</asrwt>
<pdfrwt beam="1">  1        2 0.41870390E+00 0.27997320E+03</pdfrwt>
<pdfrwt beam="2">  1       -2 0.11077435E-02 0.27997320E+03</pdfrwt>
<totfact> 0.55456953E+03</totfact>
</mgrwt>
</event>
<event>
 9    1  0.7816570E-001  0.2739940E+03  0.7818608E-02  0.1099015E+00
         -2   -1    0    0    0  501 -0.00000000000E+00  0.00000000000E+00  0.22353527050E+02  0.22353527050E+02  0.00000000000E+00 0. -1.
          2   -1    0    0  501    0  0.00000000000E+00 -0.00000000000E+00 -0.83960693897E+03  0.83960693897E+03  0.00000000000E+00 0. -1.
         35    2    1    2    0    0  0.71054273576E-14  0.88817841970E-15 -0.81725341192E+03  0.86196046602E+03  0.27399398841E+03 0.  0.
         25    2    3    3    0    0 -0.56733374949E+02 -0.97814757120E+00 -0.43319543836E+03  0.45442320311E+03  0.12499010800E+03 0.  0.
         25    2    3    3    0    0  0.56733374949E+02  0.97814757120E+00 -0.38405797356E+03  0.40753726291E+03  0.12396153034E+03 0.  0.
          5    1    4    4  502    0 -0.18617496563E+02 -0.55926839852E+02 -0.11578369143E+03  0.13000913735E+03  0.47000000000E+01 0. -1.
         -5    1    4    4    0  502 -0.38115878386E+02  0.54948692280E+02 -0.31741174694E+03  0.32441406576E+03  0.47000000000E+01 0. -1.
          5    1    5    5  503    0  0.90813499296E+02  0.39413085124E+01 -0.33758470580E+03  0.34964002796E+03  0.47000000000E+01 0.  1.
         -5    1    5    5    0  503 -0.34080124347E+02 -0.29631609412E+01 -0.46473267760E+02  0.57897234947E+02  0.47000000000E+01 0.  1.
<mgrwt>
<rscale>  0 0.27399399E+03</rscale>
<asrwt>0</asrwt>
<pdfrwt beam="1">  1        2 0.12917028E+00 0.27399399E+03</pdfrwt>
<pdfrwt beam="2">  1       -2 0.34390047E-02 0.27399399E+03</pdfrwt>
<totfact> 0.11461102E+04</totfact>
</mgrwt>
</event>
<event>
 9    1  0.7816570E-001  0.2761152E+03  0.7818608E-02  0.1097830E+00
         -2   -1    0    0    0  501 -0.00000000000E+00  0.00000000000E+00  0.48541572257E+03  0.48541572257E+03  0.00000000000E+00 0.  1.
          2   -1    0    0  501    0  0.00000000000E+00 -0.00000000000E+00 -0.39265099929E+02  0.39265099929E+02  0.00000000000E+00 0.  1.
         35    2    1    2    0    0  0.71054273576E-14  0.00000000000E+00  0.44615062264E+03  0.52468082250E+03  0.27611517056E+03 0.  0.
         25    2    3    3    0    0  0.59526985634E+02  0.51550937808E+01  0.22078965375E+03  0.26047033515E+03  0.12460612858E+03 0.  0.
         25    2    3    3    0    0 -0.59526985634E+02 -0.51550937808E+01  0.22536096890E+03  0.26421048735E+03  0.12429633267E+03 0.  0.
          5    1    4    4  502    0  0.66807646486E+02 -0.49179443379E+02  0.13712990682E+03  0.16033895542E+03  0.47000000000E+01 0.  1.
         -5    1    4    4    0  502 -0.72806608520E+01  0.54334537159E+02  0.83659746931E+02  0.10013137973E+03  0.47000000000E+01 0.  1.
          5    1    5    5  503    0 -0.59604704981E+02  0.52546992245E+02  0.14052779325E+03  0.16150559719E+03  0.47000000000E+01 0.  1.
         -5    1    5    5    0  503  0.77719347533E-01 -0.57702086026E+02  0.84833175648E+02  0.10270489016E+03  0.47000000000E+01 0.  1.
<mgrwt>
<rscale>  0 0.27611517E+03</rscale>
<asrwt>0</asrwt>
<pdfrwt beam="1">  1        2 0.60407850E-02 0.27611517E+03</pdfrwt>
<pdfrwt beam="2">  1       -2 0.74679338E-01 0.27611517E+03</pdfrwt>
<totfact> 0.20256851E+03</totfact>
</mgrwt>
</event>
<event>
 9    1  0.7816570E-001  0.2803293E+03  0.7818608E-02  0.1095509E+00
          2   -1    0    0  501    0  0.00000000000E+00  0.00000000000E+00  0.28137564992E+04  0.28137564992E+04  0.00000000000E+00 0. -1.
         -2   -1    0    0    0  501 -0.00000000000E+00 -0.00000000000E+00 -0.69821707708E+01  0.69821707708E+01  0.00000000000E+00 0. -1.
         35    2    1    2    0    0  0.00000000000E+00  0.35527136788E-14  0.28067743284E+04  0.28207386700E+04  0.28032929483E+03 0.  0.
         25    2    3    3    0    0 -0.22142667319E+02 -0.13534520709E+02  0.19732337314E+04  0.19773728010E+04  0.12521323569E+03 0.  0.
         25    2    3    3    0    0  0.22142667319E+02  0.13534520709E+02  0.83354059703E+03  0.84336586898E+03  0.12570831754E+03 0.  0.
          5    1    4    4  502    0 -0.55979127992E+02 -0.49179795078E+02  0.14116183501E+04  0.14135914443E+04  0.47000000000E+01 0.  1.
         -5    1    4    4    0  502  0.33836460674E+02  0.35645274369E+02  0.56161538129E+03  0.56378135669E+03  0.47000000000E+01 0.  1.
          5    1    5    5  503    0  0.68379558332E+02  0.31661619393E+02  0.58643754819E+03  0.59127769285E+03  0.47000000000E+01 0. -1.
         -5    1    5    5    0  503 -0.46236891013E+02 -0.18127098685E+02  0.24710304884E+03  0.25208817613E+03  0.47000000000E+01 0. -1.
<mgrwt>
<rscale>  0 0.28032929E+03</rscale>
<asrwt>0</asrwt>
<pdfrwt beam="1">  1        2 0.43288471E+00 0.28032929E+03</pdfrwt>
<pdfrwt beam="2">  1       -2 0.10741824E-02 0.28032929E+03</pdfrwt>
<totfact> 0.51390843E+03</totfact>
</mgrwt>
</event>
<event>
 9    1  0.7816570E-001  0.2514539E+03  0.7818608E-02  0.1112389E+00
         -3   -1    0    0    0  501 -0.00000000000E+00  0.00000000000E+00  0.24730089287E+02  0.24730089287E+02  0.00000000000E+00 0. -1.
          3   -1    0    0  501    0  0.00000000000E+00 -0.00000000000E+00 -0.63919174067E+03  0.63919174067E+03  0.00000000000E+00 0. -1.
         35    2    1    2    0    0 -0.71054273576E-14 -0.17763568394E-14 -0.61446165138E+03  0.66392182996E+03  0.25145392276E+03 0.  0.
         25    2    3    3    0    0  0.11710419470E+02 -0.85188506281E+01 -0.30434559080E+03  0.32936005251E+03  0.12506838452E+03 0.  0.
         25    2    3    3    0    0 -0.11710419470E+02  0.85188506281E+01 -0.31011606058E+03  0.33456177745E+03  0.12469926688E+03 0.  0.
          5    1    4    4  502    0  0.65824265335E+02  0.11447350638E+02 -0.18431170870E+03  0.19610398187E+03  0.47000000000E+01 0. -1.
         -5    1    4    4    0  502 -0.54113845865E+02 -0.19966201266E+02 -0.12003388211E+03  0.13325607063E+03  0.47000000000E+01 0. -1.
          5    1    5    5  503    0  0.33641063535E+02  0.36746968457E+02 -0.24570813190E+03  0.25075214242E+03  0.47000000000E+01 0. -1.
         -5    1    5    5    0  503 -0.45351483005E+02 -0.28228117829E+02 -0.64407928676E+02  0.83809635027E+02  0.47000000000E+01 0. -1.
<mgrwt>
<rscale>  0 0.25145392E+03</rscale>
<asrwt>0</asrwt>
<pdfrwt beam="1">  1        3 0.98337199E-01 0.25145392E+03</pdfrwt>
<pdfrwt beam="2">  1       -3 0.38046288E-02 0.25145392E+03</pdfrwt>
<totfact> 0.83280855E+02</totfact>
</mgrwt>
</event>
<event>
 9    1  0.7816570E-001  0.2760240E+03  0.7818608E-02  0.1097881E+00
          2   -1    0    0  501    0  0.00000000000E+00  0.00000000000E+00  0.15579203150E+04  0.15579203150E+04  0.00000000000E+00 0.  1.
         -2   -1    0    0    0  501 -0.00000000000E+00 -0.00000000000E+00 -0.12226118601E+02  0.12226118601E+02  0.00000000000E+00 0.  1.
         35    2    1    2    0    0  0.00000000000E+00  0.35527136788E-14  0.15456941964E+04  0.15701464336E+04  0.27602404635E+03 0.  0.
         25    2    3    3    0    0  0.35547801559E+02 -0.55262104121E+01  0.47850189632E+03  0.49581968769E+03  0.12481551473E+03 0.  0.
         25    2    3    3    0    0 -0.35547801559E+02  0.55262104121E+01  0.10671923001E+04  0.10743267459E+04  0.11825551337E+03 0.  0.
          5    1    4    4  502    0  0.44696674166E+02 -0.28424965923E+02  0.46357327620E+03  0.46661337719E+03  0.47000000000E+01 0. -1.
         -5    1    4    4    0  502 -0.91488726078E+01  0.22898755510E+02  0.14928620123E+02  0.29206310494E+02  0.47000000000E+01 0. -1.
          5    1    5    5  503    0 -0.22329885959E+02  0.52173068876E+02  0.84214795816E+03  0.84407104343E+03  0.47000000000E+01 0.  1.
         -5    1    5    5    0  503 -0.13217915599E+02 -0.46646858463E+02  0.22504434190E+03  0.23025570247E+03  0.47000000000E+01 0.  1.
<mgrwt>
<rscale>  0 0.27602405E+03</rscale>
<asrwt>0</asrwt>
<pdfrwt beam="1">  1        2 0.23967989E+00 0.27602405E+03</pdfrwt>
<pdfrwt beam="2">  1       -2 0.18809426E-02 0.27602405E+03</pdfrwt>
<totfact> 0.10752286E+04</totfact>
</mgrwt>
</event>
<event>
 9    1  0.7816570E-001  0.2727778E+03  0.7818608E-02  0.1099700E+00
         -1   -1    0    0    0  501 -0.00000000000E+00  0.00000000000E+00  0.36148051125E+02  0.36148051125E+02  0.00000000000E+00 0. -1.
          1   -1    0    0  501    0  0.00000000000E+00 -0.00000000000E+00 -0.51460388326E+03  0.51460388326E+03  0.00000000000E+00 0. -1.
         35    2    1    2    0    0 -0.71054273576E-14 -0.71054273576E-14 -0.47845583214E+03  0.55075193439E+03  0.27277776655E+03 0.  0.
         25    2    3    3    0    0  0.20233361178E+01  0.48330401924E+02 -0.18593746512E+03  0.22896259839E+03  0.12454400382E+03 0.  0.
         25    2    3    3    0    0 -0.20233361178E+01 -0.48330401924E+02 -0.29251836701E+03  0.32178933599E+03  0.12506582299E+03 0.  0.
          5    1    4    4  502    0  0.38748074366E+02  0.51963158321E+02 -0.17989326476E+03  0.19127273667E+03  0.47000000000E+01 0.  1.
         -5    1    4    4    0  502 -0.36724738248E+02 -0.36327563966E+01 -0.60442003657E+01  0.37689861720E+02  0.47000000000E+01 0.  1.
          5    1    5    5  503    0  0.56363744660E+02 -0.15610136500E+01 -0.95622917775E+02  0.11110868949E+03  0.47000000000E+01 0. -1.
         -5    1    5    5    0  503 -0.58387080778E+02 -0.46769388274E+02 -0.19689544924E+03  0.21068064650E+03  0.47000000000E+01 0. -1.
<mgrwt>
<rscale>  0 0.27277777E+03</rscale>
<asrwt>0</asrwt>
<pdfrwt beam="1">  1        1 0.79169827E-01 0.27277777E+03</pdfrwt>
<pdfrwt beam="2">  1       -1 0.55612387E-02 0.27277777E+03</pdfrwt>
<totfact> 0.64790366E+03</totfact>
</mgrwt>
</event>
<event>
 9    1  0.7816570E-001  0.2889264E+03  0.7818608E-02  0.1090911E+00
         -2   -1    0    0    0  501 -0.00000000000E+00  0.00000000000E+00  0.97377577559E+01  0.97377577559E+01  0.00000000000E+00 0.  1.
          2   -1    0    0  501    0  0.00000000000E+00 -0.00000000000E+00 -0.21431648356E+04  0.21431648356E+04  0.00000000000E+00 0.  1.
         35    2    1    2    0    0 -0.35527136788E-14  0.14210854715E-13 -0.21334270779E+04  0.21529025934E+04  0.28892642662E+03 0.  0.
         25    2    3    3    0    0 -0.19996880858E+02  0.42167682133E+02 -0.14834753669E+04  0.14893113501E+04  0.12317120171E+03 0.  0.
         25    2    3    3    0    0  0.19996880858E+02 -0.42167682133E+02 -0.64995171101E+03  0.66359124323E+03  0.12545167514E+03 0.  0.
          5    1    4    4  502    0  0.28132152173E+01 -0.43031008427E+02 -0.49864947726E+03  0.50053268928E+03  0.47000000000E+01 0.  1.
         -5    1    4    4    0  502 -0.22810096075E+02  0.85198690560E+02 -0.98482588960E+03  0.98877866086E+03  0.47000000000E+01 0.  1.
          5    1    5    5  503    0 -0.48867100463E+02  0.35780034335E+01 -0.29734896040E+03  0.30139557041E+03  0.47000000000E+01 0.  1.
         -5    1    5    5    0  503  0.68863981320E+02 -0.45745685567E+02 -0.35260275061E+03  0.36219567282E+03  0.47000000000E+01 0.  1.
<mgrwt>
<rscale>  0 0.28892643E+03</rscale>
<asrwt>0</asrwt>
<pdfrwt beam="1">  1        2 0.32971714E+00 0.28892643E+03</pdfrwt>
<pdfrwt beam="2">  1       -2 0.14981190E-02 0.28892643E+03</pdfrwt>
<totfact> 0.73801325E+03</totfact>
</mgrwt>
</event>
<event>
 9    1  0.7816570E-001  0.2742548E+03  0.7818608E-02  0.1098869E+00
          2   -1    0    0  501    0  0.00000000000E+00  0.00000000000E+00  0.17026936450E+04  0.17026936450E+04  0.00000000000E+00 0.  1.
         -2   -1    0    0    0  501 -0.00000000000E+00 -0.00000000000E+00 -0.11043630482E+02  0.11043630482E+02  0.00000000000E+00 0.  1.
         35    2    1    2    0    0  0.00000000000E+00 -0.17763568394E-14  0.16916500145E+04  0.17137372755E+04  0.27425476798E+03 0.  0.
         25    2    3    3    0    0  0.55724451414E+02  0.87620019113E+01  0.84785090314E+03  0.85889974655E+03  0.12520237015E+03 0.  0.
         25    2    3    3    0    0 -0.55724451414E+02 -0.87620019113E+01  0.84379911134E+03  0.85483752891E+03  0.12477288712E+03 0.  0.
          5    1    4    4  502    0  0.30375236192E+02  0.65553897337E+02  0.53649513119E+03  0.54135855421E+03  0.47000000000E+01 0.  1.
         -5    1    4    4    0  502  0.25349215222E+02 -0.56791895425E+02  0.31135577196E+03  0.31754119233E+03  0.47000000000E+01 0.  1.
          5    1    5    5  503    0 -0.92653183788E+02 -0.24073362690E+02  0.54908757636E+03  0.55738980595E+03  0.47000000000E+01 0.  1.
         -5    1    5    5    0  503  0.36928732374E+02  0.15311360779E+02  0.29471153498E+03  0.29744772296E+03  0.47000000000E+01 0.  1.
<mgrwt>
<rscale>  0 0.27425477E+03</rscale>
<asrwt>0</asrwt>
<pdfrwt beam="1">  1        2 0.26195266E+00 0.27425477E+03</pdfrwt>
<pdfrwt beam="2">  1       -2 0.16990214E-02 0.27425477E+03</pdfrwt>
<totfact> 0.10464332E+04</totfact>
</mgrwt>
</event>
<event>
 9    1  0.7816570E-001  0.2646497E+03  0.7818608E-02  0.1104381E+00
          2   -1    0    0  501    0  0.00000000000E+00  0.00000000000E+00  0.27482288292E+04  0.27482288292E+04  0.00000000000E+00 0.  1.
         -2   -1    0    0    0  501 -0.00000000000E+00 -0.00000000000E+00 -0.63713271227E+01  0.63713271227E+01  0.00000000000E+00 0.  1.
         35    2    1    2    0    0 -0.71054273576E-14  0.00000000000E+00  0.27418575020E+04  0.27546001563E+04  0.26464969207E+03 0.  0.
         25    2    3    3    0    0  0.31061409110E+02  0.18123472076E+02  0.11935175138E+04  0.12007944938E+04  0.12700428843E+03 0.  0.
         25    2    3    3    0    0 -0.31061409110E+02 -0.18123472076E+02  0.15483399883E+04  0.15538056625E+04  0.12514809679E+03 0.  0.
          5    1    4    4  502    0  0.42034773986E+02  0.85756881084E+01  0.11787513933E+04  0.11795411828E+04  0.47000000000E+01 0. -1.
         -5    1    4    4    0  502 -0.10973364876E+02  0.95477839672E+01  0.14766120443E+02  0.21253310997E+02  0.47000000000E+01 0. -1.
          5    1    5    5  503    0  0.33044725924E+02  0.29793831979E+02  0.36098689623E+03  0.36374889084E+03  0.47000000000E+01 0.  1.
         -5    1    5    5    0  503 -0.64106135035E+02 -0.47917304055E+02  0.11873530920E+04  0.11900567716E+04  0.47000000000E+01 0.  1.
<mgrwt>
<rscale>  0 0.26464969E+03</rscale>
<asrwt>0</asrwt>
<pdfrwt beam="1">  1        2 0.42280349E+00 0.26464969E+03</pdfrwt>
<pdfrwt beam="2">  1       -2 0.98020637E-03 0.26464969E+03</pdfrwt>
<totfact> 0.64026139E+03</totfact>
</mgrwt>
</event>
<event>
 9    1  0.7816570E-001  0.2732573E+03  0.7818608E-02  0.1099430E+00
          2   -1    0    0  501    0  0.00000000000E+00  0.00000000000E+00  0.19855128400E+03  0.19855128400E+03  0.00000000000E+00 0. -1.
         -2   -1    0    0    0  501 -0.00000000000E+00 -0.00000000000E+00 -0.94017979090E+02  0.94017979090E+02  0.00000000000E+00 0. -1.
         35    2    1    2    0    0  0.00000000000E+00  0.14210854715E-13  0.10453330491E+03  0.29256926309E+03  0.27325731805E+03 0.  0.
         25    2    3    3    0    0  0.19856667289E+02  0.35043560223E+02  0.85110547493E+02  0.15906231231E+03  0.12819779855E+03 0.  0.
         25    2    3    3    0    0 -0.19856667289E+02 -0.35043560223E+02  0.19422757414E+02  0.13350695078E+03  0.12579556452E+03 0.  0.
          5    1    4    4  502    0 -0.45684607131E+02  0.22997747719E+02  0.75871633513E+02  0.91621910594E+02  0.47000000000E+01 0. -1.
         -5    1    4    4    0  502  0.65541274421E+02  0.12045812504E+02  0.92389139797E+01  0.67440401712E+02  0.47000000000E+01 0. -1.
          5    1    5    5  503    0 -0.53914552641E+02 -0.65332108073E+02  0.31866260386E+01  0.84895865137E+02  0.47000000000E+01 0. -1.
         -5    1    5    5    0  503  0.34057885352E+02  0.30288547850E+02  0.16236131375E+02  0.48611085644E+02  0.47000000000E+01 0. -1.
<mgrwt>
<rscale>  0 0.27325732E+03</rscale>
<asrwt>0</asrwt>
<pdfrwt beam="1">  1        2 0.30546351E-01 0.27325732E+03</pdfrwt>
<pdfrwt beam="2">  1       -2 0.14464304E-01 0.27325732E+03</pdfrwt>
<totfact> 0.62016492E+03</totfact>
</mgrwt>
</event>
<event>
 9    1  0.7816570E-001  0.2710776E+03  0.7818608E-02  0.1100664E+00
          1   -1    0    0  501    0  0.00000000000E+00  0.00000000000E+00  0.53992867309E+03  0.53992867309E+03  0.00000000000E+00 0.  1.
         -1   -1    0    0    0  501 -0.00000000000E+00 -0.00000000000E+00 -0.34024429828E+02  0.34024429828E+02  0.00000000000E+00 0.  1.
         35    2    1    2    0    0  0.00000000000E+00 -0.71054273576E-14  0.50590424326E+03  0.57395310291E+03  0.27107759221E+03 0.  0.
         25    2    3    3    0    0  0.10646870098E+02 -0.46210518954E+02  0.29980143015E+03  0.32843680833E+03  0.12546342751E+03 0.  0.
         25    2    3    3    0    0 -0.10646870098E+02  0.46210518954E+02  0.20610281311E+03  0.24551629458E+03  0.12470410350E+03 0.  0.
          5    1    4    4  502    0 -0.46397896385E+02 -0.50987222173E+02  0.10793942502E+03  0.12816189405E+03  0.47000000000E+01 0.  1.
         -5    1    4    4    0  502  0.57044766483E+02  0.47767032182E+01  0.19186200513E+03  0.20027491428E+03  0.47000000000E+01 0.  1.
          5    1    5    5  503    0  0.42839929199E+02 -0.30874769882E+01  0.14206494774E+03  0.14849017282E+03  0.47000000000E+01 0.  1.
         -5    1    5    5    0  503 -0.53486799297E+02  0.49297995943E+02  0.64037865366E+02  0.97026121759E+02  0.47000000000E+01 0.  1.
<mgrwt>
<rscale>  0 0.27107759E+03</rscale>
<asrwt>0</asrwt>
<pdfrwt beam="1">  1        1 0.83065943E-01 0.27107759E+03</pdfrwt>
<pdfrwt beam="2">  1       -1 0.52345281E-02 0.27107759E+03</pdfrwt>
<totfact> 0.66510449E+03</totfact>
</mgrwt>
</event>
<event>
 9    1  0.7816570E-001  0.2756400E+03  0.7818608E-02  0.1098094E+00
         -1   -1    0    0    0  501 -0.00000000000E+00  0.00000000000E+00  0.79911555222E+02  0.79911555222E+02  0.00000000000E+00 0. -1.
          1   -1    0    0  501    0  0.00000000000E+00 -0.00000000000E+00 -0.23769221473E+03  0.23769221473E+03  0.00000000000E+00 0. -1.
         35    2    1    2    0    0  0.53290705182E-14  0.21316282073E-13 -0.15778065951E+03  0.31760376995E+03  0.27564001555E+03 0.  0.
         25    2    3    3    0    0  0.10567997519E+02  0.54770403495E+02 -0.79828746645E+02  0.15846265671E+03  0.12500522033E+03 0.  0.
         25    2    3    3    0    0 -0.10567997519E+02 -0.54770403495E+02 -0.77951912862E+02  0.15914111325E+03  0.12703508781E+03 0.  0.
          5    1    4    4  502    0 -0.23618370692E+01  0.82519993965E+02 -0.93316695085E+02  0.12468048468E+03  0.47000000000E+01 0.  1.
         -5    1    4    4    0  502  0.12929834588E+02 -0.27749590469E+02  0.13487948441E+02  0.33782172026E+02  0.47000000000E+01 0.  1.
          5    1    5    5  503    0  0.21792465832E+02 -0.81784397741E+02 -0.80161326883E+02  0.11666845164E+03  0.47000000000E+01 0. -1.
         -5    1    5    5    0  503 -0.32360463350E+02  0.27013994246E+02  0.22094140206E+01  0.42472661603E+02  0.47000000000E+01 0. -1.
<mgrwt>
<rscale>  0 0.27564002E+03</rscale>
<asrwt>0</asrwt>
<pdfrwt beam="1">  1        1 0.36568033E-01 0.27564002E+03</pdfrwt>
<pdfrwt beam="2">  1       -1 0.12294085E-01 0.27564002E+03</pdfrwt>
<totfact> 0.51570473E+03</totfact>
</mgrwt>
</event>
<event>
 9    1  0.7816570E-001  0.2745146E+03  0.7818608E-02  0.1098723E+00
          1   -1    0    0  501    0  0.00000000000E+00  0.00000000000E+00  0.70344681040E+03  0.70344681040E+03  0.00000000000E+00 0. -1.
         -1   -1    0    0    0  501 -0.00000000000E+00 -0.00000000000E+00 -0.26781798825E+02  0.26781798825E+02  0.00000000000E+00 0. -1.
         35    2    1    2    0    0  0.00000000000E+00  0.00000000000E+00  0.67666501157E+03  0.73022860923E+03  0.27451463320E+03 0.  0.
         25    2    3    3    0    0 -0.46440850654E+02  0.26310163783E+02  0.37979663895E+03  0.40359205754E+03  0.12566656128E+03 0.  0.
         25    2    3    3    0    0  0.46440850654E+02 -0.26310163783E+02  0.29686837263E+03  0.32663655169E+03  0.12534603665E+03 0.  0.
          5    1    4    4  502    0 -0.81664235785E+02  0.42567994781E+02  0.20995260573E+03  0.22931041895E+03  0.47000000000E+01 0. -1.
         -5    1    4    4    0  502  0.35223385131E+02 -0.16257830998E+02  0.16984403322E+03  0.17428163859E+03  0.47000000000E+01 0. -1.
          5    1    5    5  503    0  0.55293005379E+02 -0.37826773753E+02  0.62405814708E+02  0.91677461602E+02  0.47000000000E+01 0.  1.
         -5    1    5    5    0  503 -0.88521547251E+01  0.11516609970E+02  0.23446255792E+03  0.23495909009E+03  0.47000000000E+01 0.  1.
<mgrwt>
<rscale>  0 0.27451463E+03</rscale>
<asrwt>0</asrwt>
<pdfrwt beam="1">  1        1 0.10822257E+00 0.27451463E+03</pdfrwt>
<pdfrwt beam="2">  1       -1 0.41202773E-02 0.27451463E+03</pdfrwt>
<totfact> 0.65662436E+03</totfact>
</mgrwt>
</event>
<event>
 9    1  0.7816570E-001  0.2748940E+03  0.7818608E-02  0.1098511E+00
         -1   -1    0    0    0  501 -0.00000000000E+00  0.00000000000E+00  0.51128584391E+02  0.51128584391E+02  0.00000000000E+00 0. -1.
          1   -1    0    0  501    0  0.00000000000E+00 -0.00000000000E+00 -0.36949341953E+03  0.36949341953E+03  0.00000000000E+00 0. -1.
         35    2    1    2    0    0  0.00000000000E+00 -0.35527136788E-14 -0.31836483514E+03  0.42062200392E+03  0.27489398307E+03 0.  0.
         25    2    3    3    0    0  0.39876138822E+02  0.13922060062E+02 -0.10152286683E+03  0.16675900732E+03  0.12537042645E+03 0.  0.
         25    2    3    3    0    0 -0.39876138822E+02 -0.13922060062E+02 -0.21684196831E+03  0.25386299661E+03  0.12506818788E+03 0.  0.
          5    1    4    4  502    0 -0.14948115133E+02  0.72658578185E+01 -0.10941816761E+03  0.11077303028E+03  0.47000000000E+01 0.  1.
         -5    1    4    4    0  502  0.54824253955E+02  0.66562022430E+01  0.78953007785E+01  0.55985977034E+02  0.47000000000E+01 0.  1.
          5    1    5    5  503    0 -0.24252122620E+01 -0.66534567720E+02 -0.98887423026E+02  0.11930441228E+03  0.47000000000E+01 0.  1.
         -5    1    5    5    0  503 -0.37450926561E+02  0.52612507658E+02 -0.11795454529E+03  0.13455858433E+03  0.47000000000E+01 0.  1.
<mgrwt>
<rscale>  0 0.27489398E+03</rscale>
<asrwt>0</asrwt>
<pdfrwt beam="1">  1        1 0.56845140E-01 0.27489398E+03</pdfrwt>
<pdfrwt beam="2">  1       -1 0.78659363E-02 0.27489398E+03</pdfrwt>
<totfact> 0.58957713E+03</totfact>
</mgrwt>
</event>
<event>
 9    1  0.7816570E-001  0.2757206E+03  0.7818608E-02  0.1098049E+00
         -2   -1    0    0    0  501 -0.00000000000E+00  0.00000000000E+00  0.51593568494E+02  0.51593568494E+02  0.00000000000E+00 0. -1.
          2   -1    0    0  501    0  0.00000000000E+00 -0.00000000000E+00 -0.36836875503E+03  0.36836875503E+03  0.00000000000E+00 0. -1.
         35    2    1    2    0    0 -0.35527136788E-14 -0.71054273576E-14 -0.31677518654E+03  0.41996232353E+03  0.27572057300E+03 0.  0.
         25    2    3    3    0    0  0.26190897622E+02  0.35600524167E+02 -0.94740534914E+02  0.16152164738E+03  0.12312641138E+03 0.  0.
         25    2    3    3    0    0 -0.26190897622E+02 -0.35600524167E+02 -0.22203465162E+03  0.25844067614E+03  0.12465486803E+03 0.  0.
          5    1    4    4  502    0 -0.38122300158E+02  0.20808448825E+02  0.26716381359E+01  0.43766756359E+02  0.47000000000E+01 0. -1.
         -5    1    4    4    0  502  0.64313197781E+02  0.14792075342E+02 -0.97412173050E+02  0.11775489102E+03  0.47000000000E+01 0. -1.
          5    1    5    5  503    0  0.52661032425E+01  0.44672417940E+02 -0.64181068539E+02  0.78515325426E+02  0.47000000000E+01 0.  1.
         -5    1    5    5    0  503 -0.31457000865E+02 -0.80272942107E+02 -0.15785358309E+03  0.17992535072E+03  0.47000000000E+01 0.  1.
<mgrwt>
<rscale>  0 0.27572057E+03</rscale>
<asrwt>0</asrwt>
<pdfrwt beam="1">  1        2 0.56672114E-01 0.27572057E+03</pdfrwt>
<pdfrwt beam="2">  1       -2 0.79374724E-02 0.27572057E+03</pdfrwt>
<totfact> 0.83081357E+03</totfact>
</mgrwt>
</event>
<event>
 9    1  0.7816570E-001  0.2734885E+03  0.7818608E-02  0.1099300E+00
         -1   -1    0    0    0  501 -0.00000000000E+00  0.00000000000E+00  0.17394862620E+02  0.17394862620E+02  0.00000000000E+00 0.  1.
          1   -1    0    0  501    0  0.00000000000E+00 -0.00000000000E+00 -0.10749716322E+04  0.10749716322E+04  0.00000000000E+00 0.  1.
         35    2    1    2    0    0  0.00000000000E+00 -0.71054273576E-14 -0.10575767696E+04  0.10923664948E+04  0.27348845579E+03 0.  0.
         25    2    3    3    0    0 -0.25096894120E+02  0.16789092860E+02 -0.71914336127E+03  0.73052880539E+03  0.12487367097E+03 0.  0.
         25    2    3    3    0    0  0.25096894120E+02 -0.16789092860E+02 -0.33843340833E+03  0.36183768945E+03  0.12440905877E+03 0.  0.
          5    1    4    4  502    0 -0.49962336197E+02  0.85002882437E+01 -0.11454213135E+03  0.12534145281E+03  0.47000000000E+01 0. -1.
         -5    1    4    4    0  502  0.24865442077E+02  0.82888046167E+01 -0.60460122992E+03  0.60518735257E+03  0.47000000000E+01 0. -1.
          5    1    5    5  503    0  0.75121928177E+00  0.52822909631E+02 -0.16510032401E+03  0.17341000865E+03  0.47000000000E+01 0. -1.
         -5    1    5    5    0  503  0.24345674838E+02 -0.69612002491E+02 -0.17333308432E+03  0.18842768081E+03  0.47000000000E+01 0. -1.
<mgrwt>
<rscale>  0 0.27348846E+03</rscale>
<asrwt>0</asrwt>
<pdfrwt beam="1">  1        1 0.16538024E+00 0.27348846E+03</pdfrwt>
<pdfrwt beam="2">  1       -1 0.26761330E-02 0.27348846E+03</pdfrwt>
<totfact> 0.62803954E+03</totfact>
</mgrwt>
</event>
<event>
 9    1  0.7816570E-001  0.2704252E+03  0.7818608E-02  0.1101036E+00
         -3   -1    0    0    0  501 -0.00000000000E+00  0.00000000000E+00  0.78770853607E+01  0.78770853607E+01  0.00000000000E+00 0. -1.
          3   -1    0    0  501    0  0.00000000000E+00 -0.00000000000E+00 -0.23209666697E+04  0.23209666697E+04  0.00000000000E+00 0. -1.
         35    2    1    2    0    0  0.00000000000E+00  0.00000000000E+00 -0.23130895844E+04  0.23288437551E+04  0.27042523977E+03 0.  0.
         25    2    3    3    0    0 -0.44148256904E+02 -0.22550840328E+02 -0.10229417522E+04  0.10317422917E+04  0.12499887673E+03 0.  0.
         25    2    3    3    0    0  0.44148256904E+02  0.22550840328E+02 -0.12901478322E+04  0.12971014634E+04  0.12463213224E+03 0.  0.
          5    1    4    4  502    0 -0.16998412190E+02 -0.11400540961E+02 -0.97570849193E+03  0.97593445967E+03  0.47000000000E+01 0.  1.
         -5    1    4    4    0  502 -0.27149844714E+02 -0.11150299367E+02 -0.47233260244E+02  0.55807832042E+02  0.47000000000E+01 0.  1.
          5    1    5    5  503    0  0.50096679694E+02  0.50466250645E+02 -0.12063190216E+04  0.12084221910E+04  0.47000000000E+01 0.  1.
         -5    1    5    5    0  503 -0.59484227895E+01 -0.27915410317E+02 -0.83828810526E+02  0.88679272331E+02  0.47000000000E+01 0.  1.
<mgrwt>
<rscale>  0 0.27042524E+03</rscale>
<asrwt>0</asrwt>
<pdfrwt beam="1">  1        3 0.35707205E+00 0.27042524E+03</pdfrwt>
<pdfrwt beam="2">  1       -3 0.12118584E-02 0.27042524E+03</pdfrwt>
<totfact> 0.11590976E+02</totfact>
</mgrwt>
</event>
<event>
 9    1  0.7816570E-001  0.2742851E+03  0.7818608E-02  0.1098852E+00
          2   -1    0    0  501    0  0.00000000000E+00  0.00000000000E+00  0.14761987936E+04  0.14761987936E+04  0.00000000000E+00 0.  1.
         -2   -1    0    0    0  501 -0.00000000000E+00 -0.00000000000E+00 -0.12740887005E+02  0.12740887005E+02  0.00000000000E+00 0.  1.
         35    2    1    2    0    0  0.35527136788E-14 -0.14210854715E-13  0.14634579066E+04  0.14889396806E+04  0.27428512192E+03 0.  0.
         25    2    3    3    0    0 -0.27104366620E+02  0.45583931769E+02  0.62457401677E+03  0.63920765415E+03  0.12522452304E+03 0.  0.
         25    2    3    3    0    0  0.27104366620E+02 -0.45583931769E+02  0.83888388981E+03  0.84973202644E+03  0.12452226570E+03 0.  0.
          5    1    4    4  502    0  0.36872912807E+02  0.58899792271E+02  0.35687606593E+03  0.36360887457E+03  0.47000000000E+01 0. -1.
         -5    1    4    4    0  502 -0.63977279427E+02 -0.13315860502E+02  0.26769795084E+03  0.27559877959E+03  0.47000000000E+01 0. -1.
          5    1    5    5  503    0  0.51669898708E+02 -0.66257214167E+02  0.35813751308E+03  0.36789178454E+03  0.47000000000E+01 0.  1.
         -5    1    5    5    0  503 -0.24565532088E+02  0.20673282398E+02  0.48074637673E+03  0.48184024190E+03  0.47000000000E+01 0.  1.
<mgrwt>
<rscale>  0 0.27428512E+03</rscale>
<asrwt>0</asrwt>
<pdfrwt beam="1">  1        2 0.22710737E+00 0.27428512E+03</pdfrwt>
<pdfrwt beam="2">  1       -2 0.19601376E-02 0.27428512E+03</pdfrwt>
<totfact> 0.11188737E+04</totfact>
</mgrwt>
</event>
<event>
 9    1  0.7816570E-001  0.2717762E+03  0.7818608E-02  0.1100267E+00
         -2   -1    0    0    0  501 -0.00000000000E+00  0.00000000000E+00  0.12633572914E+03  0.12633572914E+03  0.00000000000E+00 0.  1.
          2   -1    0    0  501    0  0.00000000000E+00 -0.00000000000E+00 -0.14616278713E+03  0.14616278713E+03  0.00000000000E+00 0.  1.
         35    2    1    2    0    0  0.00000000000E+00 -0.71054273576E-14 -0.19827057985E+02  0.27249851627E+03  0.27177624830E+03 0.  0.
         25    2    3    3    0    0 -0.48848401581E+02  0.16959498394E+02  0.12393100942E+01  0.13567375493E+03  0.12542743306E+03 0.  0.
         25    2    3    3    0    0  0.48848401581E+02 -0.16959498394E+02 -0.21066368080E+02  0.13682476134E+03  0.12491370032E+03 0.  0.
          5    1    4    4  502    0 -0.85895570110E+02  0.36574650341E+02  0.11182069893E+00  0.93476502480E+02  0.47000000000E+01 0.  1.
         -5    1    4    4    0  502  0.37047168529E+02 -0.19615151947E+02  0.11274893952E+01  0.42197252449E+02  0.47000000000E+01 0.  1.
          5    1    5    5  503    0 -0.14237602252E+02 -0.34490737526E+02  0.34336185892E+02  0.50925278149E+02  0.47000000000E+01 0.  1.
         -5    1    5    5    0  503  0.63086003833E+02  0.17531239132E+02 -0.55402553972E+02  0.85899483187E+02  0.47000000000E+01 0.  1.
<mgrwt>
<rscale>  0 0.27177625E+03</rscale>
<asrwt>0</asrwt>
<pdfrwt beam="1">  1        2 0.22486583E-01 0.27177625E+03</pdfrwt>
<pdfrwt beam="2">  1       -2 0.19436266E-01 0.27177625E+03</pdfrwt>
<totfact> 0.53168082E+03</totfact>
</mgrwt>
</event>
<event>
 9    1  0.7816570E-001  0.2736718E+03  0.7818608E-02  0.1099196E+00
          2   -1    0    0  501    0  0.00000000000E+00  0.00000000000E+00  0.51973042696E+03  0.51973042696E+03  0.00000000000E+00 0.  1.
         -2   -1    0    0    0  501 -0.00000000000E+00 -0.00000000000E+00 -0.36026478000E+02  0.36026478000E+02  0.00000000000E+00 0.  1.
         35    2    1    2    0    0  0.00000000000E+00 -0.71054273576E-14  0.48370394896E+03  0.55575690496E+03  0.27367175078E+03 0.  0.
         25    2    3    3    0    0 -0.19178359009E+02  0.50026344785E+02  0.27488679116E+03  0.30632854143E+03  0.12411278222E+03 0.  0.
         25    2    3    3    0    0  0.19178359009E+02 -0.50026344785E+02  0.20881715780E+03  0.24942836354E+03  0.12545699868E+03 0.  0.
          5    1    4    4  502    0 -0.37852121656E+02 -0.23596116324E+02  0.42462450618E+02  0.61763334851E+02  0.47000000000E+01 0.  1.
         -5    1    4    4    0  502  0.18673762647E+02  0.73622461109E+02  0.23242434054E+03  0.24456520657E+03  0.47000000000E+01 0.  1.
          5    1    5    5  503    0  0.70362700383E+02 -0.99329448867E+01  0.11087116187E+03  0.13177282548E+03  0.47000000000E+01 0. -1.
         -5    1    5    5    0  503 -0.51184341374E+02 -0.40093399898E+02  0.97945995932E+02  0.11765553806E+03  0.47000000000E+01 0. -1.
<mgrwt>
<rscale>  0 0.27367175E+03</rscale>
<asrwt>0</asrwt>
<pdfrwt beam="1">  1        2 0.79958522E-01 0.27367175E+03</pdfrwt>
<pdfrwt beam="2">  1       -2 0.55425354E-02 0.27367175E+03</pdfrwt>
<totfact> 0.99040620E+03</totfact>
</mgrwt>
</event>
<event>
 9    1  0.7816570E-001  0.2755552E+03  0.7818608E-02  0.1098142E+00
          2   -1    0    0  501    0  0.00000000000E+00  0.00000000000E+00  0.41633356153E+04  0.41633356153E+04  0.00000000000E+00 0.  1.
         -2   -1    0    0    0  501 -0.00000000000E+00 -0.00000000000E+00 -0.45594852581E+01  0.45594852581E+01  0.00000000000E+00 0.  1.
         35    2    1    2    0    0  0.35527136788E-14  0.71054273576E-14  0.41587761300E+04  0.41678951005E+04  0.27555520218E+03 0.  0.
         25    2    3    3    0    0  0.12394448627E+02  0.27266206036E+02  0.28340508012E+04  0.28369762395E+04  0.12527238794E+03 0.  0.
         25    2    3    3    0    0 -0.12394448627E+02 -0.27266206036E+02  0.13247253288E+04  0.13309188610E+04  0.12470264463E+03 0.  0.
          5    1    4    4  502    0  0.27496093123E+02 -0.10145541967E+02  0.25356515437E+04  0.25358252716E+04  0.47000000000E+01 0.  1.
         -5    1    4    4    0  502 -0.15101644496E+02  0.37411748004E+02  0.29839925752E+03  0.30115096786E+03  0.47000000000E+01 0.  1.
          5    1    5    5  503    0 -0.26648630547E+02  0.16593194419E+02  0.91995974004E+02  0.97318204074E+02  0.47000000000E+01 0. -1.
         -5    1    5    5    0  503  0.14254181921E+02 -0.43859400456E+02  0.12327293548E+04  0.12336006570E+04  0.47000000000E+01 0. -1.
<mgrwt>
<rscale>  0 0.27555520E+03</rscale>
<asrwt>0</asrwt>
<pdfrwt beam="1">  1        2 0.64051013E+00 0.27555520E+03</pdfrwt>
<pdfrwt beam="2">  1       -2 0.70146260E-03 0.27555520E+03</pdfrwt>
<totfact> 0.11849751E+03</totfact>
</mgrwt>
</event>
<event>
 9    1  0.7816570E-001  0.2793846E+03  0.7818608E-02  0.1096026E+00
         -2   -1    0    0    0  501 -0.00000000000E+00  0.00000000000E+00  0.95300201390E+01  0.95300201390E+01  0.00000000000E+00 0.  1.
          2   -1    0    0  501    0  0.00000000000E+00 -0.00000000000E+00 -0.20476277886E+04  0.20476277886E+04  0.00000000000E+00 0.  1.
         35    2    1    2    0    0  0.00000000000E+00 -0.35527136788E-14 -0.20380977685E+04  0.20571578088E+04  0.27938456695E+03 0.  0.
         25    2    3    3    0    0  0.48418633518E+02  0.25459187311E+02 -0.80929227805E+03  0.82081484957E+03  0.12566022314E+03 0.  0.
         25    2    3    3    0    0 -0.48418633518E+02 -0.25459187311E+02 -0.12288054904E+04  0.12363429592E+04  0.12485369486E+03 0.  0.
          5    1    4    4  502    0  0.48397689867E+02  0.68776993430E+02 -0.37504812607E+03  0.38439016387E+03  0.47000000000E+01 0. -1.
         -5    1    4    4    0  502  0.20943651815E-01 -0.43317806119E+02 -0.43424415198E+03  0.43642468570E+03  0.47000000000E+01 0. -1.
          5    1    5    5  503    0 -0.48520698048E+02  0.14282240984E+02 -0.18721502857E+03  0.19398401343E+03  0.47000000000E+01 0.  1.
         -5    1    5    5    0  503  0.10206452917E+00 -0.39741428295E+02 -0.10415904619E+04  0.10423589458E+04  0.47000000000E+01 0.  1.
<mgrwt>
<rscale>  0 0.27938457E+03</rscale>
<asrwt>0</asrwt>
<pdfrwt beam="1">  1        2 0.31501947E+00 0.27938457E+03</pdfrwt>
<pdfrwt beam="2">  1       -2 0.14661578E-02 0.27938457E+03</pdfrwt>
<totfact> 0.85554974E+03</totfact>
</mgrwt>
</event>
<event>
 9    1  0.7816570E-001  0.2770054E+03  0.7818608E-02  0.1097336E+00
         -1   -1    0    0    0  501 -0.00000000000E+00  0.00000000000E+00  0.42240479343E+02  0.42240479343E+02  0.00000000000E+00 0.  1.
          1   -1    0    0  501    0  0.00000000000E+00 -0.00000000000E+00 -0.45413772478E+03  0.45413772478E+03  0.00000000000E+00 0.  1.
         35    2    1    2    0    0  0.35527136788E-14 -0.71054273576E-14 -0.41189724544E+03  0.49637820412E+03  0.27700538033E+03 0.  0.
         25    2    3    3    0    0 -0.17682199040E+02 -0.25996083319E+02 -0.29533522200E+03  0.32207945945E+03  0.12459465612E+03 0.  0.
         25    2    3    3    0    0  0.17682199040E+02  0.25996083319E+02 -0.11656202344E+03  0.17429874468E+03  0.12571750306E+03 0.  0.
          5    1    4    4  502    0 -0.14168391011E+02  0.89046472253E+01 -0.28455214793E+03  0.28508253355E+03  0.47000000000E+01 0. -1.
         -5    1    4    4    0  502 -0.35138080288E+01 -0.34900730545E+02 -0.10783074072E+02  0.36996925897E+02  0.47000000000E+01 0. -1.
          5    1    5    5  503    0  0.45170922325E+02  0.60692058336E+02 -0.39930916471E+02  0.85676754484E+02  0.47000000000E+01 0. -1.
         -5    1    5    5    0  503 -0.27488723286E+02 -0.34695975016E+02 -0.76631106969E+02  0.88621990191E+02  0.47000000000E+01 0. -1.
<mgrwt>
<rscale>  0 0.27700538E+03</rscale>
<asrwt>0</asrwt>
<pdfrwt beam="1">  1        1 0.69867346E-01 0.27700538E+03</pdfrwt>
<pdfrwt beam="2">  1       -1 0.64985349E-02 0.27700538E+03</pdfrwt>
<totfact> 0.60443558E+03</totfact>
</mgrwt>
</event>
<event>
 9    1  0.7816570E-001  0.2764684E+03  0.7818608E-02  0.1097634E+00
         -2   -1    0    0    0  501 -0.00000000000E+00  0.00000000000E+00  0.16947601456E+03  0.16947601456E+03  0.00000000000E+00 0. -1.
          2   -1    0    0  501    0  0.00000000000E+00 -0.00000000000E+00 -0.11275163691E+03  0.11275163691E+03  0.00000000000E+00 0. -1.
         35    2    1    2    0    0  0.00000000000E+00 -0.26645352591E-14  0.56724377656E+02  0.28222765147E+03  0.27646842900E+03 0.  0.
         25    2    3    3    0    0 -0.59605833808E+02  0.13947291810E+01  0.31833463017E+02  0.14191806916E+03  0.12479009693E+03 0.  0.
         25    2    3    3    0    0  0.59605833808E+02 -0.13947291810E+01  0.24890914639E+02  0.14030958231E+03  0.12454886817E+03 0.  0.
          5    1    4    4  502    0  0.23155401898E+02  0.67252067911E+01 -0.29700222844E+02  0.38543407743E+02  0.47000000000E+01 0. -1.
         -5    1    4    4    0  502 -0.82761235706E+02 -0.53304776102E+01  0.61533685861E+02  0.10337466142E+03  0.47000000000E+01 0. -1.
          5    1    5    5  503    0  0.75739130320E+02  0.45308285386E+02  0.13820332573E+02  0.89455844855E+02  0.47000000000E+01 0. -1.
         -5    1    5    5    0  503 -0.16133296513E+02 -0.46703014567E+02  0.11070582066E+02  0.50853737456E+02  0.47000000000E+01 0. -1.
<mgrwt>
<rscale>  0 0.27646843E+03</rscale>
<asrwt>0</asrwt>
<pdfrwt beam="1">  1        2 0.17346406E-01 0.27646843E+03</pdfrwt>
<pdfrwt beam="2">  1       -2 0.26073233E-01 0.27646843E+03</pdfrwt>
<totfact> 0.42991049E+03</totfact>
</mgrwt>
</event>
<event>
 9    1  0.7816570E-001  0.2773623E+03  0.7818608E-02  0.1097138E+00
         -2   -1    0    0    0  501 -0.00000000000E+00  0.00000000000E+00  0.59535381700E+02  0.59535381700E+02  0.00000000000E+00 0. -1.
          2   -1    0    0  501    0  0.00000000000E+00 -0.00000000000E+00 -0.32304260636E+03  0.32304260636E+03  0.00000000000E+00 0. -1.
         35    2    1    2    0    0  0.14210854715E-13  0.35527136788E-14 -0.26350722466E+03  0.38257798806E+03  0.27736232531E+03 0.  0.
         25    2    3    3    0    0 -0.29515586012E+02  0.48105662214E+01 -0.58971796829E+02  0.14160208044E+03  0.12521647255E+03 0.  0.
         25    2    3    3    0    0  0.29515586012E+02 -0.48105662214E+01 -0.20453542783E+03  0.24097590763E+03  0.12385610785E+03 0.  0.
          5    1    4    4  502    0 -0.68997496365E+02  0.35836396524E+02 -0.41296560610E+02  0.88161203137E+02  0.47000000000E+01 0. -1.
         -5    1    4    4    0  502  0.39481910353E+02 -0.31025830302E+02 -0.17675236219E+02  0.53440877299E+02  0.47000000000E+01 0. -1.
          5    1    5    5  503    0  0.64881277037E+02  0.23569770182E+02 -0.17074304786E+03  0.18422918490E+03  0.47000000000E+01 0. -1.
         -5    1    5    5    0  503 -0.35365691025E+02 -0.28380336404E+02 -0.33792379976E+02  0.56746722729E+02  0.47000000000E+01 0. -1.
<mgrwt>
<rscale>  0 0.27736233E+03</rscale>
<asrwt>0</asrwt>
<pdfrwt beam="1">  1        2 0.49698863E-01 0.27736233E+03</pdfrwt>
<pdfrwt beam="2">  1       -2 0.91592895E-02 0.27736233E+03</pdfrwt>
<totfact> 0.76476949E+03</totfact>
</mgrwt>
</event>
<event>
 9    1  0.7816570E-001  0.2809586E+03  0.7818608E-02  0.1095167E+00
          1   -1    0    0  501    0  0.00000000000E+00  0.00000000000E+00  0.91655290224E+03  0.91655290224E+03  0.00000000000E+00 0.  1.
         -1   -1    0    0    0  501 -0.00000000000E+00 -0.00000000000E+00 -0.21531146323E+02  0.21531146323E+02  0.00000000000E+00 0.  1.
         35    2    1    2    0    0  0.14210854715E-13 -0.35527136788E-14  0.89502175592E+03  0.93808404857E+03  0.28095860657E+03 0.  0.
         25    2    3    3    0    0 -0.56704588107E+02  0.24318804617E+02  0.50595818588E+03  0.52470539892E+03  0.12456024739E+03 0.  0.
         25    2    3    3    0    0  0.56704588107E+02 -0.24318804617E+02  0.38906357004E+03  0.41337864964E+03  0.12531812270E+03 0.  0.
          5    1    4    4  502    0 -0.30939482324E+02  0.35672183981E+02  0.54166714023E+02  0.72013048710E+02  0.47000000000E+01 0.  1.
         -5    1    4    4    0  502 -0.25765105783E+02 -0.11353379365E+02  0.45179147186E+03  0.45269235021E+03  0.47000000000E+01 0.  1.
          5    1    5    5  503    0  0.41911432380E+02 -0.52331835297E+02  0.88574613312E+02  0.11118786477E+03  0.47000000000E+01 0. -1.
         -5    1    5    5    0  503  0.14793155726E+02  0.28013030680E+02  0.30048895673E+03  0.30219078487E+03  0.47000000000E+01 0. -1.
<mgrwt>
<rscale>  0 0.28095861E+03</rscale>
<asrwt>0</asrwt>
<pdfrwt beam="1">  1        1 0.14100811E+00 0.28095861E+03</pdfrwt>
<pdfrwt beam="2">  1       -1 0.33124848E-02 0.28095861E+03</pdfrwt>
<totfact> 0.60327903E+03</totfact>
</mgrwt>
</event>
<event>
 9    1  0.7816570E-001  0.2763822E+03  0.7818608E-02  0.1097681E+00
         -1   -1    0    0    0  501 -0.00000000000E+00  0.00000000000E+00  0.10594169865E+03  0.10594169865E+03  0.00000000000E+00 0. -1.
          1   -1    0    0  501    0  0.00000000000E+00 -0.00000000000E+00 -0.18025738877E+03  0.18025738877E+03  0.00000000000E+00 0. -1.
         35    2    1    2    0    0  0.71054273576E-14  0.35527136788E-14 -0.74315690126E+02  0.28619908742E+03  0.27638215543E+03 0.  0.
         25    2    3    3    0    0 -0.27618561534E+02  0.31245253782E+01  0.17401060927E+02  0.12873072889E+03  0.12448395896E+03 0.  0.
         25    2    3    3    0    0  0.27618561534E+02 -0.31245253782E+01 -0.91716751053E+02  0.15746835853E+03  0.12494708446E+03 0.  0.
          5    1    4    4  502    0 -0.68800533213E+02 -0.20923360414E+02  0.31690585310E+02  0.78725368076E+02  0.47000000000E+01 0.  1.
         -5    1    4    4    0  502  0.41181971680E+02  0.24047885792E+02 -0.14289524383E+02  0.50005360809E+02  0.47000000000E+01 0.  1.
          5    1    5    5  503    0 -0.34187257686E+02 -0.42204882009E+02 -0.43592564626E+02  0.69802738801E+02  0.47000000000E+01 0.  1.
         -5    1    5    5    0  503  0.61805819220E+02  0.39080356631E+02 -0.48124186427E+02  0.87665619733E+02  0.47000000000E+01 0.  1.
<mgrwt>
<rscale>  0 0.27638216E+03</rscale>
<asrwt>0</asrwt>
<pdfrwt beam="1">  1        1 0.27731906E-01 0.27638216E+03</pdfrwt>
<pdfrwt beam="2">  1       -1 0.16298723E-01 0.27638216E+03</pdfrwt>
<totfact> 0.46802083E+03</totfact>
</mgrwt>
</event>
<event>
 9    1  0.7816570E-001  0.2890815E+03  0.7818608E-02  0.1090830E+00
          2   -1    0    0  501    0  0.00000000000E+00  0.00000000000E+00  0.56254040978E+03  0.56254040978E+03  0.00000000000E+00 0. -1.
         -2   -1    0    0    0  501 -0.00000000000E+00 -0.00000000000E+00 -0.37138705124E+02  0.37138705124E+02  0.00000000000E+00 0. -1.
         35    2    1    2    0    0  0.00000000000E+00  0.14210854715E-13  0.52540170465E+03  0.59967911490E+03  0.28908145841E+03 0.  0.
         25    2    3    3    0    0  0.34639876605E+02 -0.56662166500E+02  0.20121121208E+03  0.24590730631E+03  0.12479554987E+03 0.  0.
         25    2    3    3    0    0 -0.34639876605E+02  0.56662166500E+02  0.32419049257E+03  0.35377180859E+03  0.12507795535E+03 0.  0.
          5    1    4    4  502    0  0.43580511881E+02 -0.82714926074E+02  0.85200560259E+02  0.12657900884E+03  0.47000000000E+01 0. -1.
         -5    1    4    4    0  502 -0.89406352765E+01  0.26052759574E+02  0.11601065183E+03  0.11932829747E+03  0.47000000000E+01 0. -1.
          5    1    5    5  503    0 -0.57178343156E+02  0.84741266264E+02  0.26795824001E+03  0.28683471464E+03  0.47000000000E+01 0. -1.
         -5    1    5    5    0  503  0.22538466552E+02 -0.28079099764E+02  0.56232252562E+02  0.66937093948E+02  0.47000000000E+01 0. -1.
<mgrwt>
<rscale>  0 0.28908146E+03</rscale>
<asrwt>0</asrwt>
<pdfrwt beam="1">  1        2 0.86544672E-01 0.28908146E+03</pdfrwt>
<pdfrwt beam="2">  1       -2 0.57136474E-02 0.28908146E+03</pdfrwt>
<totfact> 0.86578737E+03</totfact>
</mgrwt>
</event>
<event>
 9    1  0.7816570E-001  0.2737281E+03  0.7818608E-02  0.1099165E+00
         -1   -1    0    0    0  501 -0.00000000000E+00  0.00000000000E+00  0.16677342217E+03  0.16677342217E+03  0.00000000000E+00 0. -1.
          1   -1    0    0  501    0  0.00000000000E+00 -0.00000000000E+00 -0.11231866080E+03  0.11231866080E+03  0.00000000000E+00 0. -1.
         35    2    1    2    0    0  0.00000000000E+00  0.00000000000E+00  0.54454761368E+02  0.27909208298E+03  0.27372809455E+03 0.  0.
         25    2    3    3    0    0  0.97423566898E+01  0.13534447565E+02  0.77131112894E+02  0.14801967908E+03  0.12522987677E+03 0.  0.
         25    2    3    3    0    0 -0.97423566898E+01 -0.13534447565E+02 -0.22676351526E+02  0.13107240389E+03  0.12801430920E+03 0.  0.
          5    1    4    4  502    0 -0.45994054595E+02 -0.17219192979E+02  0.67283534072E+02  0.83433312425E+02  0.47000000000E+01 0. -1.
         -5    1    4    4    0  502  0.55736411285E+02  0.30753640544E+02  0.98475788224E+01  0.64586366660E+02  0.47000000000E+01 0. -1.
          5    1    5    5  503    0 -0.36786551785E+02  0.59359594947E+01  0.43111315986E+02  0.57176582386E+02  0.47000000000E+01 0.  1.
         -5    1    5    5    0  503  0.27044195095E+02 -0.19470407060E+02 -0.65787667512E+02  0.73895821506E+02  0.47000000000E+01 0.  1.
<mgrwt>
<rscale>  0 0.27372809E+03</rscale>
<asrwt>0</asrwt>
<pdfrwt beam="1">  1        1 0.17279794E-01 0.27372809E+03</pdfrwt>
<pdfrwt beam="2">  1       -1 0.25657450E-01 0.27372809E+03</pdfrwt>
<totfact> 0.40958281E+03</totfact>
</mgrwt>
</event>
<event>
 9    1  0.7816570E-001  0.2754289E+03  0.7818608E-02  0.1098212E+00
         -3   -1    0    0    0  501 -0.00000000000E+00  0.00000000000E+00  0.20680479747E+03  0.20680479747E+03  0.00000000000E+00 0.  1.
          3   -1    0    0  501    0  0.00000000000E+00 -0.00000000000E+00 -0.91706125690E+02  0.91706125690E+02  0.00000000000E+00 0.  1.
         35    2    1    2    0    0  0.71054273576E-14 -0.71054273576E-14  0.11509867178E+03  0.29851092316E+03  0.27542887830E+03 0.  0.
         25    2    3    3    0    0  0.35104569941E+02 -0.45960764292E+02  0.66920515588E+02  0.15252775246E+03  0.12426438419E+03 0.  0.
         25    2    3    3    0    0 -0.35104569941E+02  0.45960764292E+02  0.48178156191E+02  0.14598317070E+03  0.12508088866E+03 0.  0.
          5    1    4    4  502    0  0.43558765373E+02  0.34578011045E+02  0.23990775501E+02  0.60750738249E+02  0.47000000000E+01 0.  1.
         -5    1    4    4    0  502 -0.84541954323E+01 -0.80538775337E+02  0.42929740088E+02  0.91777014209E+02  0.47000000000E+01 0.  1.
          5    1    5    5  503    0 -0.37881648628E+02  0.41844776934E+02  0.88506979263E+02  0.10507892290E+03  0.47000000000E+01 0.  1.
         -5    1    5    5    0  503  0.27770786865E+01  0.41159873579E+01 -0.40328823071E+02  0.40904247802E+02  0.47000000000E+01 0.  1.
<mgrwt>
<rscale>  0 0.27542888E+03</rscale>
<asrwt>0</asrwt>
<pdfrwt beam="1">  1        3 0.14108635E-01 0.27542888E+03</pdfrwt>
<pdfrwt beam="2">  1       -3 0.31816123E-01 0.27542888E+03</pdfrwt>
<totfact> 0.10088467E+03</totfact>
</mgrwt>
</event>
<event>
 9    1  0.7816570E-001  0.2791749E+03  0.7818608E-02  0.1096140E+00
          2   -1    0    0  501    0  0.00000000000E+00  0.00000000000E+00  0.60452535851E+02  0.60452535851E+02  0.00000000000E+00 0.  1.
         -2   -1    0    0    0  501 -0.00000000000E+00 -0.00000000000E+00 -0.32231330047E+03  0.32231330047E+03  0.00000000000E+00 0.  1.
         35    2    1    2    0    0  0.00000000000E+00  0.00000000000E+00 -0.26186076462E+03  0.38276583632E+03  0.27917490111E+03 0.  0.
         25    2    3    3    0    0  0.15979454458E+01  0.47049070620E+02 -0.87136435326E+02  0.16287103761E+03  0.12929829100E+03 0.  0.
         25    2    3    3    0    0 -0.15979454458E+01 -0.47049070620E+02 -0.17472432930E+03  0.21989479871E+03  0.12493583464E+03 0.  0.
          5    1    4    4  502    0 -0.48846419276E+02  0.41198057543E+02 -0.91480055448E+02  0.11168680838E+03  0.47000000000E+01 0.  1.
         -5    1    4    4    0  502  0.50444364722E+02  0.58510130770E+01  0.43436201214E+01  0.51184229231E+02  0.47000000000E+01 0.  1.
          5    1    5    5  503    0  0.45525012801E+02 -0.62237103481E+02 -0.71268142768E+02  0.10510576584E+03  0.47000000000E+01 0.  1.
         -5    1    5    5    0  503 -0.47122958246E+02  0.15188032861E+02 -0.10345618653E+03  0.11478903287E+03  0.47000000000E+01 0.  1.
<mgrwt>
<rscale>  0 0.27917490E+03</rscale>
<asrwt>0</asrwt>
<pdfrwt beam="1">  1        2 0.93003900E-02 0.27917490E+03</pdfrwt>
<pdfrwt beam="2">  1       -2 0.49586662E-01 0.27917490E+03</pdfrwt>
<totfact> 0.27341502E+03</totfact>
</mgrwt>
</event>
<event>
 9    1  0.7816570E-001  0.2764304E+03  0.7818608E-02  0.1097655E+00
          1   -1    0    0  501    0  0.00000000000E+00  0.00000000000E+00  0.37989772533E+03  0.37989772533E+03  0.00000000000E+00 0. -1.
         -1   -1    0    0    0  501 -0.00000000000E+00 -0.00000000000E+00 -0.50285736016E+02  0.50285736016E+02  0.00000000000E+00 0. -1.
         35    2    1    2    0    0 -0.71054273576E-14  0.00000000000E+00  0.32961198931E+03  0.43018346134E+03  0.27643036540E+03 0.  0.
         25    2    3    3    0    0  0.45194260729E+02  0.27449897496E+02  0.12027500084E+03  0.18107141147E+03  0.12459840348E+03 0.  0.
         25    2    3    3    0    0 -0.45194260729E+02 -0.27449897496E+02  0.20933698847E+03  0.24911204987E+03  0.12425305056E+03 0.  0.
          5    1    4    4  502    0 -0.38007874880E+02  0.12617732739E+02  0.74821176873E+02  0.84994730667E+02  0.47000000000E+01 0. -1.
         -5    1    4    4    0  502  0.83202135610E+02  0.14832164757E+02  0.45453823965E+02  0.96076680805E+02  0.47000000000E+01 0. -1.
          5    1    5    5  503    0 -0.58609836074E+02 -0.49137659414E+02  0.20961233434E+03  0.22317939682E+03  0.47000000000E+01 0.  1.
         -5    1    5    5    0  503  0.13415575345E+02  0.21687761917E+02 -0.27534586993E+00  0.25932653049E+02  0.47000000000E+01 0.  1.
<mgrwt>
<rscale>  0 0.27643037E+03</rscale>
<asrwt>0</asrwt>
<pdfrwt beam="1">  1        1 0.58445802E-01 0.27643037E+03</pdfrwt>
<pdfrwt beam="2">  1       -1 0.77362673E-02 0.27643037E+03</pdfrwt>
<totfact> 0.58379590E+03</totfact>
</mgrwt>
</event>
<event>
 9    1  0.7816570E-001  0.2750669E+03  0.7818608E-02  0.1098414E+00
          2   -1    0    0  501    0  0.00000000000E+00  0.00000000000E+00  0.13404184436E+04  0.13404184436E+04  0.00000000000E+00 0.  1.
         -2   -1    0    0    0  501 -0.00000000000E+00 -0.00000000000E+00 -0.14111598490E+02  0.14111598490E+02  0.00000000000E+00 0.  1.
         35    2    1    2    0    0  0.00000000000E+00 -0.71054273576E-14  0.13263068451E+04  0.13545300421E+04  0.27506687830E+03 0.  0.
         25    2    3    3    0    0 -0.17200597970E+02  0.52191768206E+02  0.62272573278E+03  0.63791670600E+03  0.12700607973E+03 0.  0.
         25    2    3    3    0    0  0.17200597970E+02 -0.52191768206E+02  0.70358111234E+03  0.71661333610E+03  0.12445260381E+03 0.  0.
          5    1    4    4  502    0  0.54605495529E+02  0.19014403505E+02  0.22374113783E+03  0.23113955620E+03  0.47000000000E+01 0.  1.
         -5    1    4    4    0  502 -0.71806093500E+02  0.33177364701E+02  0.39898459495E+03  0.40677714980E+03  0.47000000000E+01 0.  1.
          5    1    5    5  503    0 -0.13473448295E+02 -0.10002150575E+02  0.60265991602E+03  0.60291180217E+03  0.47000000000E+01 0. -1.
         -5    1    5    5    0  503  0.30674046265E+02 -0.42189617631E+02  0.10092119632E+03  0.11370153393E+03  0.47000000000E+01 0. -1.
<mgrwt>
<rscale>  0 0.27506688E+03</rscale>
<asrwt>0</asrwt>
<pdfrwt beam="1">  1        2 0.20621812E+00 0.27506688E+03</pdfrwt>
<pdfrwt beam="2">  1       -2 0.21710162E-02 0.27506688E+03</pdfrwt>
<totfact> 0.11405970E+04</totfact>
</mgrwt>
</event>
<event>
 9    1  0.7816570E-001  0.2727450E+03  0.7818608E-02  0.1099719E+00
         -2   -1    0    0    0  501 -0.00000000000E+00  0.00000000000E+00  0.28817196861E+02  0.28817196861E+02  0.00000000000E+00 0. -1.
          2   -1    0    0  501    0  0.00000000000E+00 -0.00000000000E+00 -0.64535957869E+03  0.64535957869E+03  0.00000000000E+00 0. -1.
         35    2    1    2    0    0 -0.35527136788E-14 -0.35527136788E-14 -0.61654238183E+03  0.67417677555E+03  0.27274496531E+03 0.  0.
         25    2    3    3    0    0  0.21941231074E+02  0.10056979196E+02 -0.18943259960E+03  0.22841035163E+03  0.12531567534E+03 0.  0.
         25    2    3    3    0    0 -0.21941231074E+02 -0.10056979196E+02 -0.42710978222E+03  0.44576642392E+03  0.12530913045E+03 0.  0.
          5    1    4    4  502    0  0.18453325748E+02 -0.49236543475E+02 -0.14433359819E+03  0.15368487242E+03  0.47000000000E+01 0. -1.
         -5    1    4    4    0  502  0.34879053265E+01  0.59293522671E+02 -0.45099001418E+02  0.74725479210E+02  0.47000000000E+01 0. -1.
          5    1    5    5  503    0  0.17296443838E+02  0.22328251418E+01 -0.38927341828E+03  0.38969223325E+03  0.47000000000E+01 0. -1.
         -5    1    5    5    0  503 -0.39237674912E+02 -0.12289804338E+02 -0.37836363949E+02  0.56074190677E+02  0.47000000000E+01 0. -1.
<mgrwt>
<rscale>  0 0.27274497E+03</rscale>
<asrwt>0</asrwt>
<pdfrwt beam="1">  1        2 0.99286082E-01 0.27274497E+03</pdfrwt>
<pdfrwt beam="2">  1       -2 0.44334152E-02 0.27274497E+03</pdfrwt>
<totfact> 0.10831003E+04</totfact>
</mgrwt>
</event>
<event>
 9    1  0.7816570E-001  0.2770293E+03  0.7818608E-02  0.1097323E+00
          1   -1    0    0  501    0  0.00000000000E+00  0.00000000000E+00  0.27359264545E+03  0.27359264545E+03  0.00000000000E+00 0. -1.
         -1   -1    0    0    0  501 -0.00000000000E+00 -0.00000000000E+00 -0.70127258388E+02  0.70127258388E+02  0.00000000000E+00 0. -1.
         35    2    1    2    0    0  0.00000000000E+00 -0.71054273576E-14  0.20346538706E+03  0.34371990384E+03  0.27702925579E+03 0.  0.
         25    2    3    3    0    0 -0.11680028206E+02 -0.29792991472E+02  0.16434096340E+03  0.20895657461E+03  0.12502340750E+03 0.  0.
         25    2    3    3    0    0  0.11680028206E+02  0.29792991472E+02  0.39124423668E+02  0.13476332923E+03  0.12492553373E+03 0.  0.
          5    1    4    4  502    0  0.73196502475E+01  0.11984530456E+02  0.16209171640E+03  0.16276676803E+03  0.47000000000E+01 0. -1.
         -5    1    4    4    0  502 -0.18999678454E+02 -0.41777521929E+02  0.22492469967E+01  0.46189806580E+02  0.47000000000E+01 0. -1.
          5    1    5    5  503    0 -0.27970410910E+00 -0.44561607180E+02  0.38849681552E+02  0.59306010029E+02  0.47000000000E+01 0.  1.
         -5    1    5    5    0  503  0.11959732315E+02  0.74354598652E+02  0.27474211653E+00  0.75457319201E+02  0.47000000000E+01 0.  1.
<mgrwt>
<rscale>  0 0.27702926E+03</rscale>
<asrwt>0</asrwt>
<pdfrwt beam="1">  1        1 0.42091176E-01 0.27702926E+03</pdfrwt>
<pdfrwt beam="2">  1       -1 0.10788809E-01 0.27702926E+03</pdfrwt>
<totfact> 0.52988817E+03</totfact>
</mgrwt>
</event>
<event>
 9    1  0.7816570E-001  0.2744762E+03  0.7818608E-02  0.1098745E+00
         -3   -1    0    0    0  501 -0.00000000000E+00  0.00000000000E+00  0.11020121959E+03  0.11020121959E+03  0.00000000000E+00 0.  1.
          3   -1    0    0  501    0  0.00000000000E+00 -0.00000000000E+00 -0.17090825942E+03  0.17090825942E+03  0.00000000000E+00 0.  1.
         35    2    1    2    0    0  0.00000000000E+00 -0.35527136788E-14 -0.60707039826E+02  0.28110947901E+03  0.27447621847E+03 0.  0.
         25    2    3    3    0    0  0.50737974476E+02 -0.16184801726E+02 -0.57275357590E+01  0.13573761062E+03  0.12472210875E+03 0.  0.
         25    2    3    3    0    0 -0.50737974476E+02  0.16184801726E+02 -0.54979504067E+02  0.14537186839E+03  0.12358780033E+03 0.  0.
          5    1    4    4  502    0  0.21057192803E+02 -0.64735481226E+01  0.59307019477E+02  0.63440718417E+02  0.47000000000E+01 0.  1.
         -5    1    4    4    0  502  0.29680781673E+02 -0.97112536033E+01 -0.65034555236E+02  0.72296892202E+02  0.47000000000E+01 0.  1.
          5    1    5    5  503    0 -0.47567730837E+02 -0.30203344513E+02  0.17450487131E+02  0.59173816320E+02  0.47000000000E+01 0. -1.
         -5    1    5    5    0  503 -0.31702436388E+01  0.46388146239E+02 -0.72429991197E+02  0.86198052072E+02  0.47000000000E+01 0. -1.
<mgrwt>
<rscale>  0 0.27447622E+03</rscale>
<asrwt>0</asrwt>
<pdfrwt beam="1">  1        3 0.26293578E-01 0.27447622E+03</pdfrwt>
<pdfrwt beam="2">  1       -3 0.16954034E-01 0.27447622E+03</pdfrwt>
<totfact> 0.10457533E+03</totfact>
</mgrwt>
</event>
<event>
 9    1  0.7816570E-001  0.2738915E+03  0.7818608E-02  0.1099073E+00
         -2   -1    0    0    0  501 -0.00000000000E+00  0.00000000000E+00  0.34723629861E+03  0.34723629861E+03  0.00000000000E+00 0.  1.
          2   -1    0    0  501    0  0.00000000000E+00 -0.00000000000E+00 -0.54009728149E+02  0.54009728149E+02  0.00000000000E+00 0.  1.
         35    2    1    2    0    0 -0.71054273576E-14  0.14210854715E-13  0.29322657046E+03  0.40124602676E+03  0.27389149743E+03 0.  0.
         25    2    3    3    0    0 -0.34078536692E+02  0.41497088867E+02  0.16387674715E+03  0.21340325946E+03  0.12570603743E+03 0.  0.
         25    2    3    3    0    0  0.34078536692E+02 -0.41497088867E+02  0.12934982331E+03  0.18784276730E+03  0.12518056314E+03 0.  0.
          5    1    4    4  502    0 -0.22441960034E+02  0.44505681771E+02  0.10602122987E+01  0.50076055458E+02  0.47000000000E+01 0. -1.
         -5    1    4    4    0  502 -0.11636576657E+02 -0.30085929045E+01  0.16281653485E+03  0.16332720400E+03  0.47000000000E+01 0. -1.
          5    1    5    5  503    0  0.27802623327E+02  0.42415357154E+02  0.37940455591E+02  0.63510759378E+02  0.47000000000E+01 0. -1.
         -5    1    5    5    0  503  0.62759133645E+01 -0.83912446021E+02  0.91409367721E+02  0.12433200792E+03  0.47000000000E+01 0. -1.
<mgrwt>
<rscale>  0 0.27389150E+03</rscale>
<asrwt>0</asrwt>
<pdfrwt beam="1">  1        2 0.83091892E-02 0.27389150E+03</pdfrwt>
<pdfrwt beam="2">  1       -2 0.53420968E-01 0.27389150E+03</pdfrwt>
<totfact> 0.27120552E+03</totfact>
</mgrwt>
</event>
<event>
 9    1  0.7816570E-001  0.2746800E+03  0.7818608E-02  0.1098631E+00
         -2   -1    0    0    0  501 -0.00000000000E+00  0.00000000000E+00  0.22662893328E+02  0.22662893328E+02  0.00000000000E+00 0.  1.
          2   -1    0    0  501    0  0.00000000000E+00 -0.00000000000E+00 -0.83229757263E+03  0.83229757263E+03  0.00000000000E+00 0.  1.
         35    2    1    2    0    0  0.00000000000E+00  0.00000000000E+00 -0.80963467930E+03  0.85496046596E+03  0.27467996727E+03 0.  0.
         25    2    3    3    0    0  0.16993296515E+02  0.53244431555E+02 -0.36693086218E+03  0.39168527958E+03  0.12512137709E+03 0.  0.
         25    2    3    3    0    0 -0.16993296515E+02 -0.53244431555E+02 -0.44270381712E+03  0.46327518637E+03  0.12455314929E+03 0.  0.
          5    1    4    4  502    0  0.61537145075E+02 -0.28224187308E+01 -0.21427105297E+03  0.22299991124E+03  0.47000000000E+01 0. -1.
         -5    1    4    4    0  502 -0.44543848561E+02  0.56066850286E+02 -0.15265980921E+03  0.16868536835E+03  0.47000000000E+01 0. -1.
          5    1    5    5  503    0 -0.66773206002E+02 -0.12259372791E+02 -0.28106580525E+03  0.28918684296E+03  0.47000000000E+01 0.  1.
         -5    1    5    5    0  503  0.49779909487E+02 -0.40985058764E+02 -0.16163801187E+03  0.17408834341E+03  0.47000000000E+01 0.  1.
<mgrwt>
<rscale>  0 0.27467997E+03</rscale>
<asrwt>0</asrwt>
<pdfrwt beam="1">  1        2 0.12804578E+00 0.27467997E+03</pdfrwt>
<pdfrwt beam="2">  1       -2 0.34865989E-02 0.27467997E+03</pdfrwt>
<totfact> 0.11356807E+04</totfact>
</mgrwt>
</event>
<event>
 9    1  0.7816570E-001  0.2884987E+03  0.7818608E-02  0.1091136E+00
         -2   -1    0    0    0  501 -0.00000000000E+00  0.00000000000E+00  0.64804507198E+02  0.64804507198E+02  0.00000000000E+00 0. -1.
          2   -1    0    0  501    0  0.00000000000E+00 -0.00000000000E+00 -0.32108684790E+03  0.32108684790E+03  0.00000000000E+00 0. -1.
         35    2    1    2    0    0  0.00000000000E+00  0.00000000000E+00 -0.25628234070E+03  0.38589135509E+03  0.28849869979E+03 0.  0.
         25    2    3    3    0    0  0.38106544878E+01 -0.71264864360E+02 -0.14447700471E+03  0.20427408493E+03  0.12554319935E+03 0.  0.
         25    2    3    3    0    0 -0.38106544878E+01  0.71264864360E+02 -0.11180533599E+03  0.18161727017E+03  0.12406126586E+03 0.  0.
          5    1    4    4  502    0 -0.15229675655E+02 -0.99781409516E+02 -0.13455230316E+03  0.16826967936E+03  0.47000000000E+01 0.  1.
         -5    1    4    4    0  502  0.19040330143E+02  0.28516545157E+02 -0.99247015466E+01  0.36004405570E+02  0.47000000000E+01 0.  1.
          5    1    5    5  503    0 -0.54161840036E+02  0.67964422533E+02 -0.93491977804E+02  0.12773217120E+03  0.47000000000E+01 0. -1.
         -5    1    5    5    0  503  0.50351185548E+02  0.33004418269E+01 -0.18313358190E+02  0.53885098966E+02  0.47000000000E+01 0. -1.
<mgrwt>
<rscale>  0 0.28849870E+03</rscale>
<asrwt>0</asrwt>
<pdfrwt beam="1">  1        2 0.49397976E-01 0.28849870E+03</pdfrwt>
<pdfrwt beam="2">  1       -2 0.99699243E-02 0.28849870E+03</pdfrwt>
<totfact> 0.67390999E+03</totfact>
</mgrwt>
</event>
<event>
 9    1  0.7816570E-001  0.2766345E+03  0.7818608E-02  0.1097541E+00
         -2   -1    0    0    0  501 -0.00000000000E+00  0.00000000000E+00  0.27333756310E+02  0.27333756310E+02  0.00000000000E+00 0. -1.
          2   -1    0    0  501    0  0.00000000000E+00 -0.00000000000E+00 -0.69992799070E+03  0.69992799070E+03  0.00000000000E+00 0. -1.
         35    2    1    2    0    0  0.00000000000E+00  0.00000000000E+00 -0.67259423439E+03  0.72726174701E+03  0.27663449628E+03 0.  0.
         25    2    3    3    0    0 -0.42749830471E+01  0.19954579275E+02 -0.19086694194E+03  0.22909421247E+03  0.12505002179E+03 0.  0.
         25    2    3    3    0    0  0.42749830471E+01 -0.19954579275E+02 -0.48172729246E+03  0.49816753454E+03  0.12527269238E+03 0.  0.
          5    1    4    4  502    0  0.56212596677E+02  0.16305354794E+02 -0.55893398361E+02  0.81067148713E+02  0.47000000000E+01 0. -1.
         -5    1    4    4    0  502 -0.60487579724E+02  0.36492244805E+01 -0.13497354357E+03  0.14802706376E+03  0.47000000000E+01 0. -1.
          5    1    5    5  503    0 -0.55199150040E+02 -0.23021028565E+02 -0.32398394087E+03  0.32949142305E+03  0.47000000000E+01 0. -1.
         -5    1    5    5    0  503  0.59474133087E+02  0.30664492900E+01 -0.15774335159E+03  0.16867611149E+03  0.47000000000E+01 0. -1.
<mgrwt>
<rscale>  0 0.27663450E+03</rscale>
<asrwt>0</asrwt>
<pdfrwt beam="1">  1        2 0.10768121E+00 0.27663450E+03</pdfrwt>
<pdfrwt beam="2">  1       -2 0.42051939E-02 0.27663450E+03</pdfrwt>
<totfact> 0.10648564E+04</totfact>
</mgrwt>
</event>
<event>
 9    1  0.7816570E-001  0.2741326E+03  0.7818608E-02  0.1098937E+00
          2   -1    0    0  501    0  0.00000000000E+00  0.00000000000E+00  0.27536565474E+03  0.27536565474E+03  0.00000000000E+00 0. -1.
         -2   -1    0    0    0  501 -0.00000000000E+00 -0.00000000000E+00 -0.68226266539E+02  0.68226266539E+02  0.00000000000E+00 0. -1.
         35    2    1    2    0    0 -0.14210854715E-13 -0.35527136788E-14  0.20713938820E+03  0.34359192128E+03  0.27413259971E+03 0.  0.
         25    2    3    3    0    0 -0.50467436965E+02 -0.20169917468E+02  0.83455499445E+02  0.15979996399E+03  0.12496967768E+03 0.  0.
         25    2    3    3    0    0  0.50467436965E+02  0.20169917468E+02  0.12368388875E+03  0.18379195729E+03  0.12461136169E+03 0.  0.
          5    1    4    4  502    0 -0.29470060753E+02 -0.11947200229E+02  0.11575090037E+03  0.12013151548E+03  0.47000000000E+01 0.  1.
         -5    1    4    4    0  502 -0.20997376211E+02 -0.82227172391E+01 -0.32295400926E+02  0.39668448515E+02  0.47000000000E+01 0.  1.
          5    1    5    5  503    0  0.77608393966E+02  0.29873837047E+02  0.34864820080E+02  0.90294820632E+02  0.47000000000E+01 0.  1.
         -5    1    5    5    0  503 -0.27140957001E+02 -0.97039195787E+01  0.88819068675E+02  0.93497136654E+02  0.47000000000E+01 0.  1.
<mgrwt>
<rscale>  0 0.27413260E+03</rscale>
<asrwt>0</asrwt>
<pdfrwt beam="1">  1        2 0.42363946E-01 0.27413260E+03</pdfrwt>
<pdfrwt beam="2">  1       -2 0.10496349E-01 0.27413260E+03</pdfrwt>
<totfact> 0.73117938E+03</totfact>
</mgrwt>
</event>
<event>
 9    1  0.7816570E-001  0.2731614E+03  0.7818608E-02  0.1099484E+00
         -1   -1    0    0    0  501 -0.00000000000E+00  0.00000000000E+00  0.19410190675E+03  0.19410190675E+03  0.00000000000E+00 0. -1.
          1   -1    0    0  501    0  0.00000000000E+00 -0.00000000000E+00 -0.96105644175E+02  0.96105644175E+02  0.00000000000E+00 0. -1.
         35    2    1    2    0    0  0.00000000000E+00 -0.71054273576E-14  0.97996262574E+02  0.29020755092E+03  0.27316140857E+03 0.  0.
         25    2    3    3    0    0 -0.19695578151E+02  0.52649973230E+02  0.56622807163E+02  0.14848292017E+03  0.12522419818E+03 0.  0.
         25    2    3    3    0    0  0.19695578151E+02 -0.52649973230E+02  0.41373455411E+02  0.14172463076E+03  0.12334574444E+03 0.  0.
          5    1    4    4  502    0 -0.12535327244E+02  0.65660789946E+02 -0.20284122108E+02  0.70014351209E+02  0.47000000000E+01 0.  1.
         -5    1    4    4    0  502 -0.71602509063E+01 -0.13010816716E+02  0.76906929271E+02  0.78468568960E+02  0.47000000000E+01 0.  1.
          5    1    5    5  503    0  0.23321375082E+02 -0.73707845959E+02 -0.17078169108E+02  0.79312590121E+02  0.47000000000E+01 0.  1.
         -5    1    5    5    0  503 -0.36257969317E+01  0.21057872729E+02  0.58451624518E+02  0.62412040634E+02  0.47000000000E+01 0.  1.
<mgrwt>
<rscale>  0 0.27316141E+03</rscale>
<asrwt>0</asrwt>
<pdfrwt beam="1">  1        1 0.14785484E-01 0.27316141E+03</pdfrwt>
<pdfrwt beam="2">  1       -1 0.29861832E-01 0.27316141E+03</pdfrwt>
<totfact> 0.38889184E+03</totfact>
</mgrwt>
</event>
<event>
 9    1  0.7816570E-001  0.2741968E+03  0.7818608E-02  0.1098901E+00
          2   -1    0    0  501    0  0.00000000000E+00  0.00000000000E+00  0.83057596474E+02  0.83057596474E+02  0.00000000000E+00 0.  1.
         -2   -1    0    0    0  501 -0.00000000000E+00 -0.00000000000E+00 -0.22630040674E+03  0.22630040674E+03  0.00000000000E+00 0.  1.
         35    2    1    2    0    0  0.00000000000E+00  0.71054273576E-14 -0.14324281026E+03  0.30935800321E+03  0.27419677507E+03 0.  0.
         25    2    3    3    0    0  0.17902993852E+02  0.52715438571E+02 -0.84459700770E+02  0.15970459673E+03  0.12358269503E+03 0.  0.
         25    2    3    3    0    0 -0.17902993852E+02 -0.52715438571E+02 -0.58783109492E+02  0.14965340648E+03  0.12586204137E+03 0.  0.
          5    1    4    4  502    0  0.35941741919E+01  0.83775037746E+02 -0.19613907405E+02  0.86243668760E+02  0.47000000000E+01 0.  1.
         -5    1    4    4    0  502  0.14308819660E+02 -0.31059599175E+02 -0.64845793366E+02  0.73460927970E+02  0.47000000000E+01 0.  1.
          5    1    5    5  503    0 -0.68137922285E+02 -0.42482574411E+02 -0.14466388404E+02  0.81724610586E+02  0.47000000000E+01 0. -1.
         -5    1    5    5    0  503  0.50234928433E+02 -0.10232864160E+02 -0.44316721088E+02  0.67928795894E+02  0.47000000000E+01 0. -1.
<mgrwt>
<rscale>  0 0.27419678E+03</rscale>
<asrwt>0</asrwt>
<pdfrwt beam="1">  1        2 0.12778092E-01 0.27419678E+03</pdfrwt>
<pdfrwt beam="2">  1       -2 0.34815446E-01 0.27419678E+03</pdfrwt>
<totfact> 0.36515025E+03</totfact>
</mgrwt>
</event>
<event>
 9    1  0.7816570E-001  0.2770939E+03  0.7818608E-02  0.1097287E+00
         -2   -1    0    0    0  501 -0.00000000000E+00  0.00000000000E+00  0.12599402834E+02  0.12599402834E+02  0.00000000000E+00 0. -1.
          2   -1    0    0  501    0  0.00000000000E+00 -0.00000000000E+00 -0.15235055347E+04  0.15235055347E+04  0.00000000000E+00 0. -1.
         35    2    1    2    0    0  0.00000000000E+00 -0.71054273576E-14 -0.15109061319E+04  0.15361049376E+04  0.27709391874E+03 0.  0.
         25    2    3    3    0    0  0.12032870079E+02 -0.53369871118E+02 -0.88851217196E+03  0.89889567641E+03  0.12476547697E+03 0.  0.
         25    2    3    3    0    0 -0.12032870079E+02  0.53369871118E+02 -0.62239395993E+03  0.63720926115E+03  0.12517295246E+03 0.  0.
          5    1    4    4  502    0 -0.47596331154E+02 -0.46705857596E+02 -0.30236439286E+03  0.30966621376E+03  0.47000000000E+01 0. -1.
         -5    1    4    4    0  502  0.59629201233E+02 -0.66640135222E+01 -0.58614777910E+03  0.58922946265E+03  0.47000000000E+01 0. -1.
          5    1    5    5  503    0  0.19837701449E+01 -0.20706730065E+02 -0.42984322109E+03  0.43037191908E+03  0.47000000000E+01 0.  1.
         -5    1    5    5    0  503 -0.14016640224E+02  0.74076601183E+02 -0.19255073885E+03  0.20683734207E+03  0.47000000000E+01 0.  1.
<mgrwt>
<rscale>  0 0.27709392E+03</rscale>
<asrwt>0</asrwt>
<pdfrwt beam="1">  1        2 0.23438538E+00 0.27709392E+03</pdfrwt>
<pdfrwt beam="2">  1       -2 0.19383704E-02 0.27709392E+03</pdfrwt>
<totfact> 0.10731918E+04</totfact>
</mgrwt>
</event>
<event>
 9    1  0.7816570E-001  0.2771707E+03  0.7818608E-02  0.1097244E+00
          2   -1    0    0  501    0  0.00000000000E+00  0.00000000000E+00  0.80112187559E+03  0.80112187559E+03  0.00000000000E+00 0.  1.
         -2   -1    0    0    0  501 -0.00000000000E+00 -0.00000000000E+00 -0.23973755195E+02  0.23973755195E+02  0.00000000000E+00 0.  1.
         35    2    1    2    0    0  0.71054273576E-14  0.88817841970E-15  0.77714812039E+03  0.82509563078E+03  0.27717070355E+03 0.  0.
         25    2    3    3    0    0 -0.41785026058E+02 -0.21687228749E+01  0.25501336641E+03  0.28695080339E+03  0.12473273330E+03 0.  0.
         25    2    3    3    0    0  0.41785026058E+02  0.21687228749E+01  0.52213475398E+03  0.53814482739E+03  0.12338744738E+03 0.  0.
          5    1    4    4  502    0  0.29119231663E+02 -0.21090948832E+02  0.17316296767E+03  0.17691879817E+03  0.47000000000E+01 0. -1.
         -5    1    4    4    0  502 -0.70904257721E+02  0.18922225957E+02  0.81850398745E+02  0.11003200522E+03  0.47000000000E+01 0. -1.
          5    1    5    5  503    0 -0.27524922944E+02 -0.45642572914E+01  0.36633700243E+03  0.36742801087E+03  0.47000000000E+01 0.  1.
         -5    1    5    5    0  503  0.69309949002E+02  0.67329801662E+01  0.15579775156E+03  0.17071681652E+03  0.47000000000E+01 0.  1.
<mgrwt>
<rscale>  0 0.27717070E+03</rscale>
<asrwt>0</asrwt>
<pdfrwt beam="1">  1        2 0.12324950E+00 0.27717070E+03</pdfrwt>
<pdfrwt beam="2">  1       -2 0.36882706E-02 0.27717070E+03</pdfrwt>
<totfact> 0.10967197E+04</totfact>
</mgrwt>
</event>
<event>
 9    1  0.7816570E-001  0.2745243E+03  0.7818608E-02  0.1098718E+00
          2   -1    0    0  501    0  0.00000000000E+00  0.00000000000E+00  0.51933231631E+03  0.51933231631E+03  0.00000000000E+00 0. -1.
         -2   -1    0    0    0  501 -0.00000000000E+00 -0.00000000000E+00 -0.36279069945E+02  0.36279069945E+02  0.00000000000E+00 0. -1.
         35    2    1    2    0    0  0.00000000000E+00 -0.71054273576E-14  0.48305324636E+03  0.55561138625E+03  0.27452426798E+03 0.  0.
         25    2    3    3    0    0  0.45897181899E+02 -0.28427926139E+02  0.20542412123E+03  0.24645330464E+03  0.12500185397E+03 0.  0.
         25    2    3    3    0    0 -0.45897181899E+02  0.28427926139E+02  0.27762912514E+03  0.30915808161E+03  0.12484426303E+03 0.  0.
          5    1    4    4  502    0 -0.15529569366E+02  0.39624183812E+02  0.83481723984E+02  0.93821808269E+02  0.47000000000E+01 0.  1.
         -5    1    4    4    0  502  0.61426751264E+02 -0.68052109951E+02  0.12194239724E+03  0.15263149637E+03  0.47000000000E+01 0.  1.
          5    1    5    5  503    0  0.36504338916E+01 -0.27550511002E+02  0.79729599442E+01  0.29291883079E+02  0.47000000000E+01 0.  1.
         -5    1    5    5    0  503 -0.49547615790E+02  0.55978437141E+02  0.26965616519E+03  0.27986619853E+03  0.47000000000E+01 0.  1.
<mgrwt>
<rscale>  0 0.27452427E+03</rscale>
<asrwt>0</asrwt>
<pdfrwt beam="1">  1        2 0.79897274E-01 0.27452427E+03</pdfrwt>
<pdfrwt beam="2">  1       -2 0.55813958E-02 0.27452427E+03</pdfrwt>
<totfact> 0.98085509E+03</totfact>
</mgrwt>
</event>
<event>
 9    1  0.7816570E-001  0.2731865E+03  0.7818608E-02  0.1099470E+00
          4   -1    0    0  501    0  0.00000000000E+00  0.00000000000E+00  0.61511743857E+02  0.61511743857E+02  0.00000000000E+00 0.  1.
         -4   -1    0    0    0  501 -0.00000000000E+00 -0.00000000000E+00 -0.30331957524E+03  0.30331957524E+03  0.00000000000E+00 0.  1.
         35    2    1    2    0    0  0.00000000000E+00 -0.17763568394E-14 -0.24180783138E+03  0.36483131909E+03  0.27318650054E+03 0.  0.
         25    2    3    3    0    0 -0.49051806554E+02  0.12021432105E+02 -0.12657493861E+03  0.18659697561E+03  0.12746223623E+03 0.  0.
         25    2    3    3    0    0  0.49051806554E+02 -0.12021432105E+02 -0.11523289277E+03  0.17823434349E+03  0.12624684973E+03 0.  0.
          5    1    4    4  502    0 -0.50706058891E+02 -0.15465949622E+02 -0.14410391301E+03  0.15361747215E+03  0.47000000000E+01 0.  1.
         -5    1    4    4    0  502  0.16542523372E+01  0.27487381727E+02  0.17528974394E+02  0.32979503458E+02  0.47000000000E+01 0.  1.
          5    1    5    5  503    0  0.32711714492E+02  0.44330882512E+02 -0.10474811530E+03  0.11844636368E+03  0.47000000000E+01 0.  1.
         -5    1    5    5    0  503  0.16340092062E+02 -0.56352314617E+02 -0.10484777469E+02  0.59787979811E+02  0.47000000000E+01 0.  1.
<mgrwt>
<rscale>  0 0.27318650E+03</rscale>
<asrwt>0</asrwt>
<pdfrwt beam="1">  1        4 0.94633452E-02 0.27318650E+03</pdfrwt>
<pdfrwt beam="2">  1       -4 0.46664550E-01 0.27318650E+03</pdfrwt>
<totfact> 0.69674469E+02</totfact>
</mgrwt>
</event>
<event>
 9    1  0.7816570E-001  0.2751882E+03  0.7818608E-02  0.1098346E+00
         -1   -1    0    0    0  501 -0.00000000000E+00  0.00000000000E+00  0.12072056313E+03  0.12072056313E+03  0.00000000000E+00 0. -1.
          1   -1    0    0  501    0  0.00000000000E+00 -0.00000000000E+00 -0.15682608661E+03  0.15682608661E+03  0.00000000000E+00 0. -1.
         35    2    1    2    0    0 -0.35527136788E-14  0.00000000000E+00 -0.36105523476E+02  0.27754664974E+03  0.27518817917E+03 0.  0.
         25    2    3    3    0    0  0.18109157670E+02 -0.51031332900E+02 -0.16519881030E+02  0.13813191594E+03  0.12599754443E+03 0.  0.
         25    2    3    3    0    0 -0.18109157670E+02  0.51031332900E+02 -0.19585642445E+02  0.13941473380E+03  0.12696744497E+03 0.  0.
          5    1    4    4  502    0  0.67081067894E+02 -0.25132847045E+02  0.16237239085E+02  0.73602089668E+02  0.47000000000E+01 0. -1.
         -5    1    4    4    0  502 -0.48971910224E+02 -0.25898485855E+02 -0.32757120115E+02  0.64529826273E+02  0.47000000000E+01 0. -1.
          5    1    5    5  503    0 -0.49981226540E+02 -0.24122192955E+02 -0.17476893599E+01  0.55723851423E+02  0.47000000000E+01 0.  1.
         -5    1    5    5    0  503  0.31872068870E+02  0.75153525855E+02 -0.17837953085E+02  0.83690882376E+02  0.47000000000E+01 0.  1.
<mgrwt>
<rscale>  0 0.27518818E+03</rscale>
<asrwt>0</asrwt>
<pdfrwt beam="1">  1        1 0.24127090E-01 0.27518818E+03</pdfrwt>
<pdfrwt beam="2">  1       -1 0.18572395E-01 0.27518818E+03</pdfrwt>
<totfact> 0.45289089E+03</totfact>
</mgrwt>
</event>
<event>
 9    1  0.7816570E-001  0.2727395E+03  0.7818608E-02  0.1099722E+00
          2   -1    0    0  501    0  0.00000000000E+00  0.00000000000E+00  0.12542903920E+03  0.12542903920E+03  0.00000000000E+00 0. -1.
         -2   -1    0    0    0  501 -0.00000000000E+00 -0.00000000000E+00 -0.14826475802E+03  0.14826475802E+03  0.00000000000E+00 0. -1.
         35    2    1    2    0    0 -0.71054273576E-14 -0.35527136788E-14 -0.22835718819E+02  0.27369379721E+03  0.27273948115E+03 0.  0.
         25    2    3    3    0    0  0.53963768396E+01 -0.24823826213E+02  0.36527978700E+02  0.13269578072E+03  0.12501413425E+03 0.  0.
         25    2    3    3    0    0 -0.53963768396E+01  0.24823826213E+02 -0.59363697519E+02  0.14099801650E+03  0.12534372279E+03 0.  0.
          5    1    4    4  502    0 -0.28692203246E+02  0.39470642472E+02  0.34127549396E+02  0.59732351134E+02  0.47000000000E+01 0.  1.
         -5    1    4    4    0  502  0.34088580086E+02 -0.64294468685E+02  0.24004293042E+01  0.72963429584E+02  0.47000000000E+01 0.  1.
          5    1    5    5  503    0  0.35842985254E+02  0.75027233128E+01  0.25556898934E+02  0.44902734127E+02  0.47000000000E+01 0. -1.
         -5    1    5    5    0  503 -0.41239362093E+02  0.17321102901E+02 -0.84920596453E+02  0.96095282368E+02  0.47000000000E+01 0. -1.
<mgrwt>
<rscale>  0 0.27273948E+03</rscale>
<asrwt>0</asrwt>
<pdfrwt beam="1">  1        2 0.19296775E-01 0.27273948E+03</pdfrwt>
<pdfrwt beam="2">  1       -2 0.22809963E-01 0.27273948E+03</pdfrwt>
<totfact> 0.48051285E+03</totfact>
</mgrwt>
</event>
<event>
 9    1  0.7816570E-001  0.2734413E+03  0.7818608E-02  0.1099326E+00
         -2   -1    0    0    0  501 -0.00000000000E+00  0.00000000000E+00  0.13817266547E+03  0.13817266547E+03  0.00000000000E+00 0. -1.
          2   -1    0    0  501    0  0.00000000000E+00 -0.00000000000E+00 -0.13528384858E+03  0.13528384858E+03  0.00000000000E+00 0. -1.
         35    2    1    2    0    0  0.71054273576E-14 -0.44408920985E-15  0.28888168882E+01  0.27345651406E+03  0.27344125478E+03 0.  0.
         25    2    3    3    0    0  0.50741362978E+02 -0.38351570848E+01 -0.10718112830E+02  0.13868908062E+03  0.12857055959E+03 0.  0.
         25    2    3    3    0    0 -0.50741362978E+02  0.38351570848E+01  0.13606929719E+02  0.13476743344E+03  0.12404724194E+03 0.  0.
          5    1    4    4  502    0  0.44006433625E+02  0.27903553854E+02  0.48281705721E+02  0.71192609346E+02  0.47000000000E+01 0.  1.
         -5    1    4    4    0  502  0.67349293525E+01 -0.31738710939E+02 -0.58999818552E+02  0.67496471275E+02  0.47000000000E+01 0.  1.
          5    1    5    5  503    0 -0.68457303576E+02  0.74753588783E+01 -0.38762581426E+02  0.79163824580E+02  0.47000000000E+01 0. -1.
         -5    1    5    5    0  503  0.17715940598E+02 -0.36402017935E+01  0.52369511144E+02  0.55603608857E+02  0.47000000000E+01 0. -1.
<mgrwt>
<rscale>  0 0.27344125E+03</rscale>
<asrwt>0</asrwt>
<pdfrwt beam="1">  1        2 0.20812900E-01 0.27344125E+03</pdfrwt>
<pdfrwt beam="2">  1       -2 0.21257333E-01 0.27344125E+03</pdfrwt>
<totfact> 0.49795654E+03</totfact>
</mgrwt>
</event>
<event>
 9    1  0.7816570E-001  0.3302248E+03  0.7818608E-02  0.1071037E+00
         -2   -1    0    0    0  501 -0.00000000000E+00  0.00000000000E+00  0.30835033013E+02  0.30835033013E+02  0.00000000000E+00 0.  1.
          2   -1    0    0  501    0  0.00000000000E+00 -0.00000000000E+00 -0.88412778280E+03  0.88412778280E+03  0.00000000000E+00 0.  1.
         35    2    1    2    0    0 -0.71054273576E-14 -0.71054273576E-14 -0.85329274979E+03  0.91496281582E+03  0.33022482869E+03 0.  0.
         25    2    3    3    0    0 -0.26203303717E+02  0.50683145920E+02 -0.17042113971E+03  0.21836441916E+03  0.12403330315E+03 0.  0.
         25    2    3    3    0    0  0.26203303717E+02 -0.50683145920E+02 -0.68287161008E+03  0.69659839665E+03  0.12522098849E+03 0.  0.
          5    1    4    4  502    0 -0.57901004387E+02  0.30832085984E+02 -0.28770803569E+02  0.71784350475E+02  0.47000000000E+01 0. -1.
         -5    1    4    4    0  502  0.31697700671E+02  0.19851059936E+02 -0.14165033614E+03  0.14658006869E+03  0.47000000000E+01 0. -1.
          5    1    5    5  503    0  0.92072958502E+01 -0.62844642716E+02 -0.66675938733E+03  0.66979429231E+03  0.47000000000E+01 0.  1.
         -5    1    5    5    0  503  0.16996007866E+02  0.12161496796E+02 -0.16112222750E+02  0.26804104344E+02  0.47000000000E+01 0.  1.
<mgrwt>
<rscale>  0 0.33022483E+03</rscale>
<asrwt>0</asrwt>
<pdfrwt beam="1">  1        2 0.13601964E+00 0.33022483E+03</pdfrwt>
<pdfrwt beam="2">  1       -2 0.47438518E-02 0.33022483E+03</pdfrwt>
<totfact> 0.66229067E+03</totfact>
</mgrwt>
</event>
<event>
 9    1  0.7816570E-001  0.2859679E+03  0.7818608E-02  0.1092473E+00
         -1   -1    0    0    0  501 -0.00000000000E+00  0.00000000000E+00  0.17954970751E+02  0.17954970751E+02  0.00000000000E+00 0.  1.
          1   -1    0    0  501    0  0.00000000000E+00 -0.00000000000E+00 -0.11386488912E+04  0.11386488912E+04  0.00000000000E+00 0.  1.
         35    2    1    2    0    0  0.71054273576E-14  0.00000000000E+00 -0.11206939205E+04  0.11566038620E+04  0.28596788307E+03 0.  0.
         25    2    3    3    0    0  0.20843260846E+02 -0.79059492161E+01 -0.29452639957E+03  0.32079643760E+03  0.12517031906E+03 0.  0.
         25    2    3    3    0    0 -0.20843260846E+02  0.79059492161E+01 -0.82616752089E+03  0.83580742436E+03  0.12459667932E+03 0.  0.
          5    1    4    4  502    0 -0.52795803485E+02 -0.44871932115E+01 -0.12886239197E+03  0.13940996318E+03  0.47000000000E+01 0. -1.
         -5    1    4    4    0  502  0.73639064331E+02 -0.34187560047E+01 -0.16566400760E+03  0.18138647442E+03  0.47000000000E+01 0. -1.
          5    1    5    5  503    0  0.33771300355E+02  0.35630623280E+02 -0.17706385080E+03  0.18380353452E+03  0.47000000000E+01 0. -1.
         -5    1    5    5    0  503 -0.54614561201E+02 -0.27724674064E+02 -0.64910367009E+03  0.65200388984E+03  0.47000000000E+01 0. -1.
<mgrwt>
<rscale>  0 0.28596788E+03</rscale>
<asrwt>0</asrwt>
<pdfrwt beam="1">  1        1 0.17517677E+00 0.28596788E+03</pdfrwt>
<pdfrwt beam="2">  1       -1 0.27623029E-02 0.28596788E+03</pdfrwt>
<totfact> 0.53978040E+03</totfact>
</mgrwt>
</event>
<event>
 9    1  0.7816570E-001  0.2733601E+03  0.7818608E-02  0.1099372E+00
         -1   -1    0    0    0  501 -0.00000000000E+00  0.00000000000E+00  0.60697308414E+02  0.60697308414E+02  0.00000000000E+00 0. -1.
          1   -1    0    0  501    0  0.00000000000E+00 -0.00000000000E+00 -0.30778031560E+03  0.30778031560E+03  0.00000000000E+00 0. -1.
         35    2    1    2    0    0 -0.88817841970E-15 -0.71054273576E-14 -0.24708300719E+03  0.36847762401E+03  0.27336010492E+03 0.  0.
         25    2    3    3    0    0  0.36441558140E+00  0.43261647458E+02 -0.75484094046E+02  0.15183216548E+03  0.12443253224E+03 0.  0.
         25    2    3    3    0    0 -0.36441558140E+00 -0.43261647458E+02 -0.17159891314E+03  0.21664545854E+03  0.12496945537E+03 0.  0.
          5    1    4    4  502    0  0.81835742427E+01  0.31873427419E+02 -0.10970477727E+03  0.11463033813E+03  0.47000000000E+01 0.  1.
         -5    1    4    4    0  502 -0.78191586613E+01  0.11388220039E+02  0.34220683225E+02  0.37201827350E+02  0.47000000000E+01 0.  1.
          5    1    5    5  503    0  0.63277213001E+01  0.41909279444E+02 -0.33674636518E+02  0.54336901872E+02  0.47000000000E+01 0.  1.
         -5    1    5    5    0  503 -0.66921368815E+01 -0.85170926902E+02 -0.13792427662E+03  0.16230855667E+03  0.47000000000E+01 0.  1.
<mgrwt>
<rscale>  0 0.27336010E+03</rscale>
<asrwt>0</asrwt>
<pdfrwt beam="1">  1        1 0.47350818E-01 0.27336010E+03</pdfrwt>
<pdfrwt beam="2">  1       -1 0.93380475E-02 0.27336010E+03</pdfrwt>
<totfact> 0.57107174E+03</totfact>
</mgrwt>
</event>
<event>
 9    1  0.7816570E-001  0.2779034E+03  0.7818608E-02  0.1096840E+00
         -2   -1    0    0    0  501 -0.00000000000E+00  0.00000000000E+00  0.29996953813E+02  0.29996953813E+02  0.00000000000E+00 0. -1.
          2   -1    0    0  501    0  0.00000000000E+00 -0.00000000000E+00 -0.64365130129E+03  0.64365130129E+03  0.00000000000E+00 0. -1.
         35    2    1    2    0    0  0.00000000000E+00  0.00000000000E+00 -0.61365434748E+03  0.67364825511E+03  0.27790342464E+03 0.  0.
         25    2    3    3    0    0  0.28040612586E+02  0.50991159264E+02 -0.25488729783E+03  0.28957923574E+03  0.12450793107E+03 0.  0.
         25    2    3    3    0    0 -0.28040612586E+02 -0.50991159264E+02 -0.35876704965E+03  0.38406901937E+03  0.12413235454E+03 0.  0.
          5    1    4    4  502    0 -0.49604734692E+02  0.19139512386E+02 -0.98008663308E+02  0.11160080072E+03  0.47000000000E+01 0. -1.
         -5    1    4    4    0  502  0.77645347278E+02  0.31851646878E+02 -0.15687863452E+03  0.17797843502E+03  0.47000000000E+01 0. -1.
          5    1    5    5  503    0  0.37210181759E+02  0.11071971567E+02 -0.57062523676E+02  0.69176641934E+02  0.47000000000E+01 0.  1.
         -5    1    5    5    0  503 -0.65250794345E+02 -0.62063130831E+02 -0.30170452598E+03  0.31489237744E+03  0.47000000000E+01 0.  1.
<mgrwt>
<rscale>  0 0.27790342E+03</rscale>
<asrwt>0</asrwt>
<pdfrwt beam="1">  1        2 0.99023285E-01 0.27790342E+03</pdfrwt>
<pdfrwt beam="2">  1       -2 0.46149156E-02 0.27790342E+03</pdfrwt>
<totfact> 0.10232388E+04</totfact>
</mgrwt>
</event>
<event>
 9    1  0.7816570E-001  0.2635385E+03  0.7818608E-02  0.1105036E+00
          2   -1    0    0  501    0  0.00000000000E+00  0.00000000000E+00  0.17399455482E+04  0.17399455482E+04  0.00000000000E+00 0. -1.
         -2   -1    0    0    0  501 -0.00000000000E+00 -0.00000000000E+00 -0.99791245221E+01  0.99791245221E+01  0.00000000000E+00 0. -1.
         35    2    1    2    0    0  0.71054273576E-14  0.00000000000E+00  0.17299664237E+04  0.17499246727E+04  0.26353848514E+03 0.  0.
         25    2    3    3    0    0 -0.11695161078E+02  0.41538194181E+02  0.94051373213E+03  0.94970281459E+03  0.12452773725E+03 0.  0.
         25    2    3    3    0    0  0.11695161078E+02 -0.41538194181E+02  0.78945269153E+03  0.80022185811E+03  0.12352032898E+03 0.  0.
          5    1    4    4  502    0  0.44199078257E+02  0.24347540656E+02  0.71120267728E+03  0.71300610055E+03  0.47000000000E+01 0. -1.
         -5    1    4    4    0  502 -0.55894239336E+02  0.17190653524E+02  0.22931105485E+03  0.23669671404E+03  0.47000000000E+01 0. -1.
          5    1    5    5  503    0  0.41099821154E+02 -0.33645084408E+02  0.74026841292E+03  0.74218636485E+03  0.47000000000E+01 0. -1.
         -5    1    5    5    0  503 -0.29404660075E+02 -0.78931097731E+01  0.49184278613E+02  0.58035493267E+02  0.47000000000E+01 0. -1.
<mgrwt>
<rscale>  0 0.26353849E+03</rscale>
<asrwt>0</asrwt>
<pdfrwt beam="1">  1        2 0.26768369E+00 0.26353849E+03</pdfrwt>
<pdfrwt beam="2">  1       -2 0.15352513E-02 0.26353849E+03</pdfrwt>
<totfact> 0.11594518E+04</totfact>
</mgrwt>
</event>
<event>
 9    1  0.7816570E-001  0.2735827E+03  0.7818608E-02  0.1099246E+00
          2   -1    0    0  501    0  0.00000000000E+00  0.00000000000E+00  0.11154480906E+04  0.11154480906E+04  0.00000000000E+00 0. -1.
         -2   -1    0    0    0  501 -0.00000000000E+00 -0.00000000000E+00 -0.16775206396E+02  0.16775206396E+02  0.00000000000E+00 0. -1.
         35    2    1    2    0    0  0.71054273576E-14  0.00000000000E+00  0.10986728842E+04  0.11322232970E+04  0.27358268910E+03 0.  0.
         25    2    3    3    0    0 -0.42441468665E+02 -0.31470615635E+02  0.61070242886E+03  0.62569502792E+03  0.12547961365E+03 0.  0.
         25    2    3    3    0    0  0.42441468665E+02  0.31470615635E+02  0.48797045539E+03  0.50652826912E+03  0.12515607924E+03 0.  0.
          5    1    4    4  502    0  0.32416214891E+02 -0.48869364045E+02  0.28602144335E+03  0.29200921524E+03  0.47000000000E+01 0. -1.
         -5    1    4    4    0  502 -0.74857683556E+02  0.17398748410E+02  0.32468098551E+03  0.33368581268E+03  0.47000000000E+01 0. -1.
          5    1    5    5  503    0  0.20023065125E+02  0.23015354186E+02  0.47978409700E+03  0.48077593472E+03  0.47000000000E+01 0. -1.
         -5    1    5    5    0  503  0.22418403539E+02  0.84552614495E+01  0.81863583856E+01  0.25752334400E+02  0.47000000000E+01 0. -1.
<mgrwt>
<rscale>  0 0.27358269E+03</rscale>
<asrwt>0</asrwt>
<pdfrwt beam="1">  1        2 0.17160734E+00 0.27358269E+03</pdfrwt>
<pdfrwt beam="2">  1       -2 0.25808019E-02 0.27358269E+03</pdfrwt>
<totfact> 0.11834369E+04</totfact>
</mgrwt>
</event>
<event>
 9    1  0.7816570E-001  0.2733476E+03  0.7818608E-02  0.1099379E+00
         -2   -1    0    0    0  501 -0.00000000000E+00  0.00000000000E+00  0.12914601367E+03  0.12914601367E+03  0.00000000000E+00 0.  1.
          2   -1    0    0  501    0  0.00000000000E+00 -0.00000000000E+00 -0.14464039422E+03  0.14464039422E+03  0.00000000000E+00 0.  1.
         35    2    1    2    0    0  0.00000000000E+00  0.71054273576E-14 -0.15494380556E+02  0.27378640789E+03  0.27334761992E+03 0.  0.
         25    2    3    3    0    0  0.40916109682E+02  0.35460006516E+02 -0.18408475792E+02  0.13748758615E+03  0.12502969355E+03 0.  0.
         25    2    3    3    0    0 -0.40916109682E+02 -0.35460006516E+02  0.29140952365E+01  0.13629882175E+03  0.12504933732E+03 0.  0.
          5    1    4    4  502    0 -0.16740261651E+02 -0.20808779711E+02 -0.44983158067E+02  0.52524434151E+02  0.47000000000E+01 0. -1.
         -5    1    4    4    0  502  0.57656371333E+02  0.56268786226E+02  0.26574682275E+02  0.84963151994E+02  0.47000000000E+01 0. -1.
          5    1    5    5  503    0 -0.41588128829E+02 -0.75195432447E+02 -0.22426378025E+02  0.88932322311E+02  0.47000000000E+01 0. -1.
         -5    1    5    5    0  503  0.67201914713E+00  0.39735425931E+02  0.25340473261E+02  0.47366499435E+02  0.47000000000E+01 0. -1.
<mgrwt>
<rscale>  0 0.27334762E+03</rscale>
<asrwt>0</asrwt>
<pdfrwt beam="1">  1        2 0.22252368E-01 0.27334762E+03</pdfrwt>
<pdfrwt beam="2">  1       -2 0.19868618E-01 0.27334762E+03</pdfrwt>
<totfact> 0.51829402E+03</totfact>
</mgrwt>
</event>
<event>
 9    1  0.7816570E-001  0.2751988E+03  0.7818608E-02  0.1098341E+00
         -1   -1    0    0    0  501 -0.00000000000E+00  0.00000000000E+00  0.32423713517E+02  0.32423713517E+02  0.00000000000E+00 0.  1.
          1   -1    0    0  501    0  0.00000000000E+00 -0.00000000000E+00 -0.58394287388E+03  0.58394287388E+03  0.00000000000E+00 0.  1.
         35    2    1    2    0    0  0.14210854715E-13  0.00000000000E+00 -0.55151916036E+03  0.61636658740E+03  0.27519881143E+03 0.  0.
         25    2    3    3    0    0 -0.43310622455E+02  0.37961355121E+02 -0.28000963741E+03  0.31210853231E+03  0.12525759218E+03 0.  0.
         25    2    3    3    0    0  0.43310622455E+02 -0.37961355121E+02 -0.27150952295E+03  0.30425805508E+03  0.12465419580E+03 0.  0.
          5    1    4    4  502    0  0.41457570996E+02 -0.48166507458E+01 -0.70965886817E+02  0.82463188206E+02  0.47000000000E+01 0. -1.
         -5    1    4    4    0  502 -0.84768193452E+02  0.42778005867E+02 -0.20904375060E+03  0.22964534411E+03  0.47000000000E+01 0. -1.
          5    1    5    5  503    0  0.82785404503E+02 -0.40805445041E+02 -0.22355411644E+03  0.24190295683E+03  0.47000000000E+01 0. -1.
         -5    1    5    5    0  503 -0.39474782047E+02  0.28440899202E+01 -0.47955406505E+02  0.62355098253E+02  0.47000000000E+01 0. -1.
<mgrwt>
<rscale>  0 0.27519881E+03</rscale>
<asrwt>0</asrwt>
<pdfrwt beam="1">  1        1 0.89837368E-01 0.27519881E+03</pdfrwt>
<pdfrwt beam="2">  1       -1 0.49882635E-02 0.27519881E+03</pdfrwt>
<totfact> 0.64272549E+03</totfact>
</mgrwt>
</event>
<event>
 9    1  0.7816570E-001  0.2691387E+03  0.7818608E-02  0.1101774E+00
         -1   -1    0    0    0  501 -0.00000000000E+00  0.00000000000E+00  0.11380542578E+04  0.11380542578E+04  0.00000000000E+00 0.  1.
          1   -1    0    0  501    0  0.00000000000E+00 -0.00000000000E+00 -0.15912172670E+02  0.15912172670E+02  0.00000000000E+00 0.  1.
         35    2    1    2    0    0 -0.35527136788E-14 -0.35527136788E-14  0.11221420852E+04  0.11539664305E+04  0.26913874384E+03 0.  0.
         25    2    3    3    0    0 -0.11514357598E+02  0.25184815868E+02  0.38578859935E+03  0.40647138774E+03  0.12497715902E+03 0.  0.
         25    2    3    3    0    0  0.11514357598E+02 -0.25184815868E+02  0.73635348582E+03  0.74749504278E+03  0.12556085184E+03 0.  0.
          5    1    4    4  502    0 -0.25696993655E+02 -0.12300927245E+02  0.13277571770E+02  0.31781003856E+02  0.47000000000E+01 0.  1.
         -5    1    4    4    0  502  0.14182636057E+02  0.37485743113E+02  0.37251102758E+03  0.37469038388E+03  0.47000000000E+01 0.  1.
          5    1    5    5  503    0  0.67944523373E+02 -0.65820164797E+01  0.35884176231E+03  0.36530710584E+03  0.47000000000E+01 0. -1.
         -5    1    5    5    0  503 -0.56430165775E+02 -0.18602799388E+02  0.37751172351E+03  0.38218793694E+03  0.47000000000E+01 0. -1.
<mgrwt>
<rscale>  0 0.26913874E+03</rscale>
<asrwt>0</asrwt>
<pdfrwt beam="1">  1        1 0.24480275E-02 0.26913874E+03</pdfrwt>
<pdfrwt beam="2">  1       -1 0.17508521E+00 0.26913874E+03</pdfrwt>
<totfact> 0.11242768E+03</totfact>
</mgrwt>
</event>
<event>
 9    1  0.7816570E-001  0.2688955E+03  0.7818608E-02  0.1101913E+00
          2   -1    0    0  501    0  0.00000000000E+00  0.00000000000E+00  0.16059278508E+04  0.16059278508E+04  0.00000000000E+00 0. -1.
         -2   -1    0    0    0  501 -0.00000000000E+00 -0.00000000000E+00 -0.11255922227E+02  0.11255922227E+02  0.00000000000E+00 0. -1.
         35    2    1    2    0    0  0.00000000000E+00  0.00000000000E+00  0.15946719286E+04  0.16171837730E+04  0.26889551124E+03 0.  0.
         25    2    3    3    0    0  0.18369366309E+02  0.45567643966E+02  0.78908309957E+03  0.80035708369E+03  0.12452100065E+03 0.  0.
         25    2    3    3    0    0 -0.18369366309E+02 -0.45567643966E+02  0.80558882900E+03  0.81682668932E+03  0.12577215586E+03 0.  0.
          5    1    4    4  502    0 -0.28668083626E+02 -0.12904585859E+02  0.64753013165E+02  0.72134804837E+02  0.47000000000E+01 0. -1.
         -5    1    4    4    0  502  0.47037449935E+02  0.58472229825E+02  0.72433008640E+03  0.72822227886E+03  0.47000000000E+01 0. -1.
          5    1    5    5  503    0 -0.31936358114E+02 -0.77743284740E+02  0.70960158186E+03  0.71457710869E+03  0.47000000000E+01 0.  1.
         -5    1    5    5    0  503  0.13566991805E+02  0.32175640774E+02  0.95987247139E+02  0.10224958063E+03  0.47000000000E+01 0.  1.
<mgrwt>
<rscale>  0 0.26889551E+03</rscale>
<asrwt>0</asrwt>
<pdfrwt beam="1">  1        2 0.24706564E+00 0.26889551E+03</pdfrwt>
<pdfrwt beam="2">  1       -2 0.17316816E-02 0.26889551E+03</pdfrwt>
<totfact> 0.11441864E+04</totfact>
</mgrwt>
</event>
<event>
 9    1  0.7816570E-001  0.2718565E+03  0.7818608E-02  0.1100222E+00
          1   -1    0    0  501    0  0.00000000000E+00  0.00000000000E+00  0.12989242244E+04  0.12989242244E+04  0.00000000000E+00 0. -1.
         -1   -1    0    0    0  501 -0.00000000000E+00 -0.00000000000E+00 -0.14224458700E+02  0.14224458700E+02  0.00000000000E+00 0. -1.
         35    2    1    2    0    0 -0.71054273576E-14  0.00000000000E+00  0.12846997657E+04  0.13131486831E+04  0.27185653557E+03 0.  0.
         25    2    3    3    0    0 -0.35624266989E+02  0.40359761626E+02  0.63630989898E+03  0.65063772961E+03  0.12466422460E+03 0.  0.
         25    2    3    3    0    0  0.35624266989E+02 -0.40359761626E+02  0.64838986671E+03  0.66251095347E+03  0.12495337319E+03 0.  0.
          5    1    4    4  502    0 -0.65619352205E+02  0.67335698500E+02  0.47950448974E+03  0.48865800040E+03  0.47000000000E+01 0.  1.
         -5    1    4    4    0  502  0.29995085216E+02 -0.26975936874E+02  0.15680540925E+03  0.16197972922E+03  0.47000000000E+01 0.  1.
          5    1    5    5  503    0  0.13589630678E+02 -0.81084836493E+02  0.30268867647E+03  0.31369085679E+03  0.47000000000E+01 0.  1.
         -5    1    5    5    0  503  0.22034636312E+02  0.40725074867E+02  0.34570119024E+03  0.34882009668E+03  0.47000000000E+01 0.  1.
<mgrwt>
<rscale>  0 0.27185654E+03</rscale>
<asrwt>0</asrwt>
<pdfrwt beam="1">  1        1 0.19983440E+00 0.27185654E+03</pdfrwt>
<pdfrwt beam="2">  1       -1 0.21883793E-02 0.27185654E+03</pdfrwt>
<totfact> 0.58715926E+03</totfact>
</mgrwt>
</event>
<event>
 9    1  0.7816570E-001  0.2762573E+03  0.7818608E-02  0.1097751E+00
         -1   -1    0    0    0  501 -0.00000000000E+00  0.00000000000E+00  0.41156371212E+02  0.41156371212E+02  0.00000000000E+00 0. -1.
          1   -1    0    0  501    0  0.00000000000E+00 -0.00000000000E+00 -0.46358618666E+03  0.46358618666E+03  0.00000000000E+00 0. -1.
         35    2    1    2    0    0 -0.71054273576E-14  0.00000000000E+00 -0.42242981544E+03  0.50474255787E+03  0.27625730895E+03 0.  0.
         25    2    3    3    0    0  0.89075778166E+01 -0.90081219738E+01 -0.10752270090E+03  0.16573983681E+03  0.12549131880E+03 0.  0.
         25    2    3    3    0    0 -0.89075778166E+01  0.90081219738E+01 -0.31490711454E+03  0.33900272106E+03  0.12488339717E+03 0.  0.
          5    1    4    4  502    0  0.63296159284E+02 -0.21723678133E+02 -0.76224876285E+02  0.10154134004E+03  0.47000000000E+01 0.  1.
         -5    1    4    4    0  502 -0.54388581468E+02  0.12715556159E+02 -0.31297824615E+02  0.64198496775E+02  0.47000000000E+01 0.  1.
          5    1    5    5  503    0  0.30086474892E+02 -0.20314344232E+02 -0.27017852602E+03  0.27264701443E+03  0.47000000000E+01 0.  1.
         -5    1    5    5    0  503 -0.38994052708E+02  0.29322466206E+02 -0.44728588523E+02  0.66355706629E+02  0.47000000000E+01 0.  1.
<mgrwt>
<rscale>  0 0.27625731E+03</rscale>
<asrwt>0</asrwt>
<pdfrwt beam="1">  1        1 0.71320953E-01 0.27625731E+03</pdfrwt>
<pdfrwt beam="2">  1       -1 0.63317493E-02 0.27625731E+03</pdfrwt>
<totfact> 0.61192497E+03</totfact>
</mgrwt>
</event>
<event>
 9    1  0.7816570E-001  0.2747080E+03  0.7818608E-02  0.1098615E+00
          2   -1    0    0  501    0  0.00000000000E+00  0.00000000000E+00  0.13139449939E+04  0.13139449939E+04  0.00000000000E+00 0.  1.
         -2   -1    0    0    0  501 -0.00000000000E+00 -0.00000000000E+00 -0.14358380686E+02  0.14358380686E+02  0.00000000000E+00 0.  1.
         35    2    1    2    0    0 -0.71054273576E-14  0.10658141036E-13  0.12995866133E+04  0.13283033746E+04  0.27470800806E+03 0.  0.
         25    2    3    3    0    0  0.44821587724E+02 -0.27969538150E+02  0.75529261034E+03  0.76748752887E+03  0.12561413114E+03 0.  0.
         25    2    3    3    0    0 -0.44821587724E+02  0.27969538150E+02  0.54429400291E+03  0.56081584575E+03  0.12436712369E+03 0.  0.
          5    1    4    4  502    0  0.60904631681E+02 -0.36686072165E+02  0.20795343837E+03  0.21982257523E+03  0.47000000000E+01 0. -1.
         -5    1    4    4    0  502 -0.16083043958E+02  0.87165340156E+01  0.54733917198E+03  0.54766495364E+03  0.47000000000E+01 0. -1.
          5    1    5    5  503    0 -0.12706326760E+02 -0.25643013823E+02  0.42564375030E+03  0.42663064478E+03  0.47000000000E+01 0.  1.
         -5    1    5    5    0  503 -0.32115260964E+02  0.53612551973E+02  0.11865025261E+03  0.13418520097E+03  0.47000000000E+01 0.  1.
<mgrwt>
<rscale>  0 0.27470801E+03</rscale>
<asrwt>0</asrwt>
<pdfrwt beam="1">  1        2 0.20214529E+00 0.27470801E+03</pdfrwt>
<pdfrwt beam="2">  1       -2 0.22089827E-02 0.27470801E+03</pdfrwt>
<totfact> 0.11497166E+04</totfact>
</mgrwt>
</event>
<event>
 9    1  0.7816570E-001  0.2766368E+03  0.7818608E-02  0.1097540E+00
          2   -1    0    0  501    0  0.00000000000E+00  0.00000000000E+00  0.10062939925E+04  0.10062939925E+04  0.00000000000E+00 0. -1.
         -2   -1    0    0    0  501 -0.00000000000E+00 -0.00000000000E+00 -0.19012321627E+02  0.19012321627E+02  0.00000000000E+00 0. -1.
         35    2    1    2    0    0  0.14210854715E-13  0.10658141036E-13  0.98728167090E+03  0.10253063142E+04  0.27663683802E+03 0.  0.
         25    2    3    3    0    0 -0.19741005922E+02 -0.27912655242E+02  0.30456055615E+03  0.33048319602E+03  0.12366562520E+03 0.  0.
         25    2    3    3    0    0  0.19741005922E+02  0.27912655242E+02  0.68272111476E+03  0.69482311813E+03  0.12450791669E+03 0.  0.
          5    1    4    4  502    0 -0.68432386080E+02 -0.18633273065E+02  0.12141922177E+03  0.14069437709E+03  0.47000000000E+01 0. -1.
         -5    1    4    4    0  502  0.48691380158E+02 -0.92793821769E+01  0.18314133438E+03  0.18978881894E+03  0.47000000000E+01 0. -1.
          5    1    5    5  503    0  0.56429180871E+01  0.37416345980E+02  0.67412085244E+03  0.67519837023E+03  0.47000000000E+01 0.  1.
         -5    1    5    5    0  503  0.14098087835E+02 -0.95036907385E+01  0.86002623195E+01  0.19624747902E+02  0.47000000000E+01 0.  1.
<mgrwt>
<rscale>  0 0.27663684E+03</rscale>
<asrwt>0</asrwt>
<pdfrwt beam="1">  1        2 0.15481442E+00 0.27663684E+03</pdfrwt>
<pdfrwt beam="2">  1       -2 0.29249733E-02 0.27663684E+03</pdfrwt>
<totfact> 0.11422143E+04</totfact>
</mgrwt>
</event>
<event>
 9    1  0.7816570E-001  0.2744578E+03  0.7818608E-02  0.1098755E+00
          1   -1    0    0  501    0  0.00000000000E+00  0.00000000000E+00  0.24308405195E+03  0.24308405195E+03  0.00000000000E+00 0.  1.
         -1   -1    0    0    0  501 -0.00000000000E+00 -0.00000000000E+00 -0.77470214263E+02  0.77470214263E+02  0.00000000000E+00 0.  1.
         35    2    1    2    0    0 -0.71054273576E-14 -0.14210854715E-13  0.16561383768E+03  0.32055426621E+03  0.27445781889E+03 0.  0.
         25    2    3    3    0    0  0.23453629532E+02 -0.45111658152E+02  0.11224348301E+03  0.17559048872E+03  0.12509310856E+03 0.  0.
         25    2    3    3    0    0 -0.23453629532E+02  0.45111658152E+02  0.53370354668E+02  0.14496377749E+03  0.12482374609E+03 0.  0.
          5    1    4    4  502    0  0.61644684270E+02  0.12240163000E+02  0.35453427532E+02  0.72311300726E+02  0.47000000000E+01 0.  1.
         -5    1    4    4    0  502 -0.38191054738E+02 -0.57351821152E+02  0.76790055482E+02  0.10327918799E+03  0.47000000000E+01 0.  1.
          5    1    5    5  503    0  0.41574351544E+02 -0.14884152912E+02  0.69822931587E+01  0.44953388437E+02  0.47000000000E+01 0.  1.
         -5    1    5    5    0  503 -0.65027981076E+02  0.59995811064E+02  0.46388061509E+02  0.10001038905E+03  0.47000000000E+01 0.  1.
<mgrwt>
<rscale>  0 0.27445782E+03</rscale>
<asrwt>0</asrwt>
<pdfrwt beam="1">  1        1 0.37397546E-01 0.27445782E+03</pdfrwt>
<pdfrwt beam="2">  1       -1 0.11918495E-01 0.27445782E+03</pdfrwt>
<totfact> 0.52622049E+03</totfact>
</mgrwt>
</event>
<event>
 8    1  0.7816570E-001  0.8078408E+03  0.7818608E-02  0.9548737E-01
         -2   -1    0    0    0  501 -0.00000000000E+00  0.00000000000E+00  0.11819367717E+03  0.11819367717E+03  0.00000000000E+00 0.  1.
          2   -1    0    0  501    0  0.00000000000E+00 -0.00000000000E+00 -0.13803757556E+04  0.13803757556E+04  0.00000000000E+00 0.  1.
         25    2    1    2    0    0 -0.30495911316E+03 -0.18514181728E+03 -0.36622103602E+03  0.52615048796E+03  0.12425351326E+03 0.  0.
         25    2    1    2    0    0  0.30495911316E+03  0.18514181728E+03 -0.89596104242E+03  0.97241894482E+03  0.12479928491E+03 0.  0.
          5    1    3    3  502    0 -0.14361899269E+03 -0.13291999082E+03 -0.12869180259E+03  0.23426013121E+03  0.47000000000E+01 0.  1.
         -5    1    3    3    0  502 -0.16134012047E+03 -0.52221826455E+02 -0.23752923342E+03  0.29189035675E+03  0.47000000000E+01 0.  1.
          5    1    4    4  503    0  0.18458359166E+03  0.16931637899E+03 -0.67916555184E+03  0.72389714416E+03  0.47000000000E+01 0.  1.
         -5    1    4    4    0  503  0.12037552150E+03  0.15825438284E+02 -0.21679549057E+03  0.24852180067E+03  0.47000000000E+01 0.  1.
<mgrwt>
<rscale>  0 0.80784079E+03</rscale>
<asrwt>0</asrwt>
<pdfrwt beam="1">  1        2 0.21236550E+00 0.80784079E+03</pdfrwt>
<pdfrwt beam="2">  1       -2 0.18183643E-01 0.80784079E+03</pdfrwt>
<totfact> 0.37703405E+02</totfact>
</mgrwt>
</event>
<event>
 9    1  0.7816570E-001  0.2774514E+03  0.7818608E-02  0.1097089E+00
         -2   -1    0    0    0  501 -0.00000000000E+00  0.00000000000E+00  0.10603388741E+03  0.10603388741E+03  0.00000000000E+00 0. -1.
          2   -1    0    0  501    0  0.00000000000E+00 -0.00000000000E+00 -0.18149688854E+03  0.18149688854E+03  0.00000000000E+00 0. -1.
         35    2    1    2    0    0  0.00000000000E+00 -0.14210854715E-13 -0.75463001127E+02  0.28753077594E+03  0.27745140579E+03 0.  0.
         25    2    3    3    0    0  0.64839195751E+01  0.51581312115E+02 -0.68480512328E+02  0.15171411914E+03  0.12499968162E+03 0.  0.
         25    2    3    3    0    0 -0.64839195751E+01 -0.51581312115E+02 -0.69824887990E+01  0.13581665680E+03  0.12527863402E+03 0.  0.
          5    1    4    4  502    0 -0.34537747753E+02 -0.28402764811E+02 -0.17360303308E+02  0.48197958460E+02  0.47000000000E+01 0.  1.
         -5    1    4    4    0  502  0.41021667328E+02  0.79984076926E+02 -0.51120209019E+02  0.10351616068E+03  0.47000000000E+01 0.  1.
          5    1    5    5  503    0  0.17356107250E+01 -0.83878332357E+02  0.26732741806E+02  0.88177754950E+02  0.47000000000E+01 0. -1.
         -5    1    5    5    0  503 -0.82195303001E+01  0.32297020242E+02 -0.33715230605E+02  0.47638901851E+02  0.47000000000E+01 0. -1.
<mgrwt>
<rscale>  0 0.27745141E+03</rscale>
<asrwt>0</asrwt>
<pdfrwt beam="1">  1        2 0.27922598E-01 0.27745141E+03</pdfrwt>
<pdfrwt beam="2">  1       -2 0.16312906E-01 0.27745141E+03</pdfrwt>
<totfact> 0.56121170E+03</totfact>
</mgrwt>
</event>
<event>
 9    1  0.7816570E-001  0.2749257E+03  0.7818608E-02  0.1098493E+00
          2   -1    0    0  501    0  0.00000000000E+00  0.00000000000E+00  0.76712240812E+03  0.76712240812E+03  0.00000000000E+00 0.  1.
         -2   -1    0    0    0  501 -0.00000000000E+00 -0.00000000000E+00 -0.24632361893E+02  0.24632361893E+02  0.00000000000E+00 0.  1.
         35    2    1    2    0    0 -0.71054273576E-14  0.71054273576E-14  0.74249004622E+03  0.79175477001E+03  0.27492571195E+03 0.  0.
         25    2    3    3    0    0  0.34257401404E+02 -0.44346670611E+02  0.36933794071E+03  0.39449995339E+03  0.12680497638E+03 0.  0.
         25    2    3    3    0    0 -0.34257401404E+02  0.44346670611E+02  0.37315210552E+03  0.39725481662E+03  0.12421231312E+03 0.  0.
          5    1    4    4  502    0 -0.31271399195E+02 -0.21743784896E+02  0.31665875798E+02  0.49754500091E+02  0.47000000000E+01 0. -1.
         -5    1    4    4    0  502  0.65528800600E+02 -0.22602885715E+02  0.33767206491E+03  0.34474545330E+03  0.47000000000E+01 0. -1.
          5    1    5    5  503    0 -0.38500337587E+02 -0.37588810131E+02  0.14153803009E+03  0.15149355961E+03  0.47000000000E+01 0. -1.
         -5    1    5    5    0  503  0.42429361829E+01  0.81935480742E+02  0.23161407542E+03  0.24576125701E+03  0.47000000000E+01 0. -1.
<mgrwt>
<rscale>  0 0.27492571E+03</rscale>
<asrwt>0</asrwt>
<pdfrwt beam="1">  1        2 0.11801881E+00 0.27492571E+03</pdfrwt>
<pdfrwt beam="2">  1       -2 0.37895947E-02 0.27492571E+03</pdfrwt>
<totfact> 0.11120009E+04</totfact>
</mgrwt>
</event>
<event>
 9    1  0.7816570E-001  0.2735363E+03  0.7818608E-02  0.1099273E+00
          2   -1    0    0  501    0  0.00000000000E+00  0.00000000000E+00  0.73092111869E+03  0.73092111869E+03  0.00000000000E+00 0. -1.
         -2   -1    0    0    0  501 -0.00000000000E+00 -0.00000000000E+00 -0.25591711302E+02  0.25591711302E+02  0.00000000000E+00 0. -1.
         35    2    1    2    0    0 -0.35527136788E-14  0.00000000000E+00  0.70532940739E+03  0.75651282999E+03  0.27353626636E+03 0.  0.
         25    2    3    3    0    0 -0.25438143993E+02 -0.46494581845E+02  0.31588928637E+03  0.34413834004E+03  0.12584240357E+03 0.  0.
         25    2    3    3    0    0  0.25438143993E+02  0.46494581845E+02  0.38944012102E+03  0.41237448995E+03  0.12482093890E+03 0.  0.
          5    1    4    4  502    0 -0.21546046842E+02 -0.17723083864E+02  0.31334207036E+03  0.31461672380E+03  0.47000000000E+01 0.  1.
         -5    1    4    4    0  502 -0.38920971504E+01 -0.28771497981E+02  0.25472160067E+01  0.29521616244E+02  0.47000000000E+01 0.  1.
          5    1    5    5  503    0  0.18373657292E+02  0.69107064648E+02  0.37958301066E+03  0.38628840217E+03  0.47000000000E+01 0. -1.
         -5    1    5    5    0  503  0.70644867002E+01 -0.22612482804E+02  0.98571103547E+01  0.26086087776E+02  0.47000000000E+01 0. -1.
<mgrwt>
<rscale>  0 0.27353627E+03</rscale>
<asrwt>0</asrwt>
<pdfrwt beam="1">  1        2 0.11244939E+00 0.27353627E+03</pdfrwt>
<pdfrwt beam="2">  1       -2 0.39371869E-02 0.27353627E+03</pdfrwt>
<totfact> 0.11147214E+04</totfact>
</mgrwt>
</event>
<event>
 9    1  0.7816570E-001  0.2763265E+03  0.7818608E-02  0.1097712E+00
         -2   -1    0    0    0  501 -0.00000000000E+00  0.00000000000E+00  0.20916593313E+02  0.20916593313E+02  0.00000000000E+00 0.  1.
          2   -1    0    0  501    0  0.00000000000E+00 -0.00000000000E+00 -0.91262883493E+03  0.91262883493E+03  0.00000000000E+00 0.  1.
         35    2    1    2    0    0  0.35527136788E-14  0.00000000000E+00 -0.89171224162E+03  0.93354542824E+03  0.27632651835E+03 0.  0.
         25    2    3    3    0    0 -0.14508179546E+02 -0.55182186552E+02 -0.43209781480E+03  0.45324191409E+03  0.12435493614E+03 0.  0.
         25    2    3    3    0    0  0.14508179546E+02  0.55182186552E+02 -0.45961442681E+03  0.48030351416E+03  0.12724183034E+03 0.  0.
          5    1    4    4  502    0  0.22174336700E+02 -0.84026184493E+02 -0.32236835394E+03  0.33390948850E+03  0.47000000000E+01 0. -1.
         -5    1    4    4    0  502 -0.36682516245E+02  0.28843997941E+02 -0.10972946086E+03  0.11933242558E+03  0.47000000000E+01 0. -1.
          5    1    5    5  503    0 -0.16158827333E+02 -0.28200899924E+02 -0.41987119885E+02  0.53304846811E+02  0.47000000000E+01 0. -1.
         -5    1    5    5    0  503  0.30667006879E+02  0.83383086476E+02 -0.41762730693E+03  0.42699866734E+03  0.47000000000E+01 0. -1.
<mgrwt>
<rscale>  0 0.27632652E+03</rscale>
<asrwt>0</asrwt>
<pdfrwt beam="1">  1        2 0.14040441E+00 0.27632652E+03</pdfrwt>
<pdfrwt beam="2">  1       -2 0.32179379E-02 0.27632652E+03</pdfrwt>
<totfact> 0.11338599E+04</totfact>
</mgrwt>
</event>
<event>
 9    1  0.7816570E-001  0.2751117E+03  0.7818608E-02  0.1098389E+00
          2   -1    0    0  501    0  0.00000000000E+00  0.00000000000E+00  0.12460947548E+03  0.12460947548E+03  0.00000000000E+00 0.  1.
         -2   -1    0    0    0  501 -0.00000000000E+00 -0.00000000000E+00 -0.15184733923E+03  0.15184733923E+03  0.00000000000E+00 0.  1.
         35    2    1    2    0    0  0.00000000000E+00  0.14210854715E-13 -0.27237863749E+02  0.27645681472E+03  0.27511173945E+03 0.  0.
         25    2    3    3    0    0 -0.29644155361E+02 -0.39217031234E+02  0.40519336796E+01  0.13543975789E+03  0.12613785460E+03 0.  0.
         25    2    3    3    0    0  0.29644155361E+02  0.39217031234E+02 -0.31289797429E+02  0.14101705683E+03  0.12841342378E+03 0.  0.
          5    1    4    4  502    0 -0.57762457550E+02  0.26279582972E+02  0.65094259641E+01  0.63965464195E+02  0.47000000000E+01 0. -1.
         -5    1    4    4    0  502  0.28118302189E+02 -0.65496614206E+02 -0.24574922846E+01  0.71474293692E+02  0.47000000000E+01 0. -1.
          5    1    5    5  503    0 -0.27014594206E+02  0.49820283761E+01 -0.61936192521E+02  0.67917529775E+02  0.47000000000E+01 0. -1.
         -5    1    5    5    0  503  0.56658749567E+02  0.34235002858E+02  0.30646395092E+02  0.73099527052E+02  0.47000000000E+01 0. -1.
<mgrwt>
<rscale>  0 0.27511174E+03</rscale>
<asrwt>0</asrwt>
<pdfrwt beam="1">  1        2 0.19170689E-01 0.27511174E+03</pdfrwt>
<pdfrwt beam="2">  1       -2 0.23361129E-01 0.27511174E+03</pdfrwt>
<totfact> 0.46454077E+03</totfact>
</mgrwt>
</event>
<event>
 9    1  0.7816570E-001  0.2720567E+03  0.7818608E-02  0.1100108E+00
         -1   -1    0    0    0  501 -0.00000000000E+00  0.00000000000E+00  0.49459913756E+02  0.49459913756E+02  0.00000000000E+00 0.  1.
          1   -1    0    0  501    0  0.00000000000E+00 -0.00000000000E+00 -0.37411523267E+03  0.37411523267E+03  0.00000000000E+00 0.  1.
         35    2    1    2    0    0 -0.71054273576E-14  0.17763568394E-14 -0.32465531891E+03  0.42357514642E+03  0.27205666426E+03 0.  0.
         25    2    3    3    0    0 -0.55341729716E+02  0.74520957992E+01 -0.15856312724E+03  0.20886525160E+03  0.12395235869E+03 0.  0.
         25    2    3    3    0    0  0.55341729716E+02 -0.74520957992E+01 -0.16609219167E+03  0.21470989483E+03  0.12407853167E+03 0.  0.
          5    1    4    4  502    0  0.29290911088E+02  0.59801754195E+01 -0.13991730800E+01  0.30294680320E+02  0.47000000000E+01 0.  1.
         -5    1    4    4    0  502 -0.84632640804E+02  0.14719203797E+01 -0.15716395416E+03  0.17857057128E+03  0.47000000000E+01 0.  1.
          5    1    5    5  503    0  0.59388828382E+02  0.31134996261E+02 -0.16202611114E+03  0.17541656598E+03  0.47000000000E+01 0.  1.
         -5    1    5    5    0  503 -0.40470986659E+01 -0.38587092060E+02 -0.40660805366E+01  0.39293328851E+02  0.47000000000E+01 0.  1.
<mgrwt>
<rscale>  0 0.27205666E+03</rscale>
<asrwt>0</asrwt>
<pdfrwt beam="1">  1        1 0.57556189E-01 0.27205666E+03</pdfrwt>
<pdfrwt beam="2">  1       -1 0.76092175E-02 0.27205666E+03</pdfrwt>
<totfact> 0.61022653E+03</totfact>
</mgrwt>
</event>
<event>
 9    1  0.7816570E-001  0.2659053E+03  0.7818608E-02  0.1103646E+00
          2   -1    0    0  501    0  0.00000000000E+00  0.00000000000E+00  0.41250986374E+03  0.41250986374E+03  0.00000000000E+00 0. -1.
         -2   -1    0    0    0  501 -0.00000000000E+00 -0.00000000000E+00 -0.42850870449E+02  0.42850870449E+02  0.00000000000E+00 0. -1.
         35    2    1    2    0    0  0.00000000000E+00  0.00000000000E+00  0.36965899329E+03  0.45536073419E+03  0.26590529690E+03 0.  0.
         25    2    3    3    0    0  0.18731612741E+02  0.57512759627E+01  0.11628104603E+03  0.17201454094E+03  0.12523485991E+03 0.  0.
         25    2    3    3    0    0 -0.18731612741E+02 -0.57512759627E+01  0.25337794725E+03  0.28334619325E+03  0.12530255616E+03 0.  0.
          5    1    4    4  502    0 -0.11716551125E+02  0.21620465601E+02  0.13171801625E+03  0.13407627646E+03  0.47000000000E+01 0. -1.
         -5    1    4    4    0  502  0.30448163866E+02 -0.15869189638E+02 -0.15436970218E+02  0.37938264485E+02  0.47000000000E+01 0. -1.
          5    1    5    5  503    0  0.38911122469E+02 -0.52895290754E+01  0.22853790633E+02  0.45677569068E+02  0.47000000000E+01 0.  1.
         -5    1    5    5    0  503 -0.57642735210E+02 -0.46174688730E+00  0.23052415662E+03  0.23766862418E+03  0.47000000000E+01 0.  1.
<mgrwt>
<rscale>  0 0.26590530E+03</rscale>
<asrwt>0</asrwt>
<pdfrwt beam="1">  1        2 0.63463053E-01 0.26590530E+03</pdfrwt>
<pdfrwt beam="2">  1       -2 0.65924419E-02 0.26590530E+03</pdfrwt>
<totfact> 0.97874942E+03</totfact>
</mgrwt>
</event>
<event>
 9    1  0.7816570E-001  0.2740521E+03  0.7818608E-02  0.1098983E+00
          1   -1    0    0  501    0  0.00000000000E+00  0.00000000000E+00  0.38011121343E+02  0.38011121343E+02  0.00000000000E+00 0. -1.
         -1   -1    0    0    0  501 -0.00000000000E+00 -0.00000000000E+00 -0.49396421328E+03  0.49396421328E+03  0.00000000000E+00 0. -1.
         35    2    1    2    0    0  0.00000000000E+00 -0.35527136788E-14 -0.45595309193E+03  0.53197533462E+03  0.27405206549E+03 0.  0.
         25    2    3    3    0    0 -0.25295230039E+02  0.23361684410E+02 -0.14075219457E+03  0.19133762640E+03  0.12495315138E+03 0.  0.
         25    2    3    3    0    0  0.25295230039E+02 -0.23361684410E+02 -0.31520089736E+03  0.34063770822E+03  0.12448624664E+03 0.  0.
          5    1    4    4  502    0  0.44769340599E+02 -0.55132279547E+01 -0.22046318450E+02  0.50426378983E+02  0.47000000000E+01 0. -1.
         -5    1    4    4    0  502 -0.70064570638E+02  0.28874912365E+02 -0.11870587612E+03  0.14091124742E+03  0.47000000000E+01 0. -1.
          5    1    5    5  503    0 -0.95597152916E+00 -0.29251194738E+02 -0.60125094135E+01  0.30245438410E+02  0.47000000000E+01 0. -1.
         -5    1    5    5    0  503  0.26251201568E+02  0.58895103280E+01 -0.30918838795E+03  0.31039226981E+03  0.47000000000E+01 0. -1.
<mgrwt>
<rscale>  0 0.27405207E+03</rscale>
<asrwt>0</asrwt>
<pdfrwt beam="1">  1        1 0.58478648E-02 0.27405207E+03</pdfrwt>
<pdfrwt beam="2">  1       -1 0.75994494E-01 0.27405207E+03</pdfrwt>
<totfact> 0.24238854E+03</totfact>
</mgrwt>
</event>
<event>
 9    1  0.7816570E-001  0.2745756E+03  0.7818608E-02  0.1098689E+00
          1   -1    0    0  501    0  0.00000000000E+00  0.00000000000E+00  0.11359480940E+04  0.11359480940E+04  0.00000000000E+00 0.  1.
         -1   -1    0    0    0  501 -0.00000000000E+00 -0.00000000000E+00 -0.16592258623E+02  0.16592258623E+02  0.00000000000E+00 0.  1.
         35    2    1    2    0    0  0.00000000000E+00  0.00000000000E+00  0.11193558354E+04  0.11525403526E+04  0.27457563299E+03 0.  0.
         25    2    3    3    0    0  0.38683638808E+02 -0.74527805137E+00  0.39913721012E+03  0.42063099001E+03  0.12697613124E+03 0.  0.
         25    2    3    3    0    0 -0.38683638808E+02  0.74527805137E+00  0.72021862526E+03  0.73190936262E+03  0.12441650840E+03 0.  0.
          5    1    4    4  502    0 -0.26839793480E+02 -0.38356335086E+02  0.23791460744E+03  0.24252223277E+03  0.47000000000E+01 0.  1.
         -5    1    4    4    0  502  0.65523432288E+02  0.37611057035E+02  0.16122260268E+03  0.17810875723E+03  0.47000000000E+01 0.  1.
          5    1    5    5  503    0 -0.54155804130E+02  0.45578952572E+02  0.56776150838E+03  0.57217612012E+03  0.47000000000E+01 0.  1.
         -5    1    5    5    0  503  0.15472165322E+02 -0.44833674521E+02  0.15245711688E+03  0.15973324250E+03  0.47000000000E+01 0.  1.
<mgrwt>
<rscale>  0 0.27457563E+03</rscale>
<asrwt>0</asrwt>
<pdfrwt beam="1">  1        1 0.17476118E+00 0.27457563E+03</pdfrwt>
<pdfrwt beam="2">  1       -1 0.25526561E-02 0.27457563E+03</pdfrwt>
<totfact> 0.60857328E+03</totfact>
</mgrwt>
</event>
<event>
 9    1  0.7816570E-001  0.2742380E+03  0.7818608E-02  0.1098878E+00
          1   -1    0    0  501    0  0.00000000000E+00  0.00000000000E+00  0.34433274897E+03  0.34433274897E+03  0.00000000000E+00 0.  1.
         -1   -1    0    0    0  501 -0.00000000000E+00 -0.00000000000E+00 -0.54603060936E+02  0.54603060936E+02  0.00000000000E+00 0.  1.
         35    2    1    2    0    0  0.00000000000E+00  0.14210854715E-13  0.28972968803E+03  0.39893580991E+03  0.27423801395E+03 0.  0.
         25    2    3    3    0    0  0.21299886149E+02 -0.53222848095E+02  0.13828650024E+03  0.19442787729E+03  0.12406726647E+03 0.  0.
         25    2    3    3    0    0 -0.21299886149E+02  0.53222848095E+02  0.15144318780E+03  0.20450793262E+03  0.12490836107E+03 0.  0.
          5    1    4    4  502    0  0.91085799223E+01  0.28246115605E+02  0.98202034551E+02  0.10269634300E+03  0.47000000000E+01 0.  1.
         -5    1    4    4    0  502  0.12191306227E+02 -0.81468963700E+02  0.40084465687E+02  0.91731534291E+02  0.47000000000E+01 0.  1.
          5    1    5    5  503    0  0.34773942775E+02  0.41615520730E+02  0.13372969371E+03  0.14438420842E+03  0.47000000000E+01 0. -1.
         -5    1    5    5    0  503 -0.56073828924E+02  0.11607327365E+02  0.17713494089E+02  0.60123724199E+02  0.47000000000E+01 0. -1.
<mgrwt>
<rscale>  0 0.27423801E+03</rscale>
<asrwt>0</asrwt>
<pdfrwt beam="1">  1        1 0.52974268E-01 0.27423801E+03</pdfrwt>
<pdfrwt beam="2">  1       -1 0.84004711E-02 0.27423801E+03</pdfrwt>
<totfact> 0.58312311E+03</totfact>
</mgrwt>
</event>
<event>
 9    1  0.7816570E-001  0.2757771E+03  0.7818608E-02  0.1098018E+00
         -4   -1    0    0    0  501 -0.00000000000E+00  0.00000000000E+00  0.15998965530E+03  0.15998965530E+03  0.00000000000E+00 0.  1.
          4   -1    0    0  501    0  0.00000000000E+00 -0.00000000000E+00 -0.11884050405E+03  0.11884050405E+03  0.00000000000E+00 0.  1.
         35    2    1    2    0    0  0.00000000000E+00 -0.35527136788E-14  0.41149151250E+02  0.27883015935E+03  0.27577709316E+03 0.  0.
         25    2    3    3    0    0  0.50609443783E+02  0.36743773533E+01  0.49756755672E+02  0.14352103983E+03  0.12469056616E+03 0.  0.
         25    2    3    3    0    0 -0.50609443783E+02 -0.36743773533E+01 -0.86076044222E+01  0.13530911951E+03  0.12513852373E+03 0.  0.
          5    1    4    4  502    0  0.58742686540E+01 -0.21387840029E+02  0.80444148884E+02  0.83578094157E+02  0.47000000000E+01 0.  1.
         -5    1    4    4    0  502  0.44735175129E+02  0.25062217382E+02 -0.30687393212E+02  0.59942945674E+02  0.47000000000E+01 0.  1.
          5    1    5    5  503    0  0.37832378235E+02  0.20365270274E+02 -0.43329174147E+01  0.43438430560E+02  0.47000000000E+01 0.  1.
         -5    1    5    5    0  503 -0.88441822018E+02 -0.24039647627E+02 -0.42746870075E+01  0.91870688954E+02  0.47000000000E+01 0.  1.
<mgrwt>
<rscale>  0 0.27577709E+03</rscale>
<asrwt>0</asrwt>
<pdfrwt beam="1">  1        4 0.18283154E-01 0.27577709E+03</pdfrwt>
<pdfrwt beam="2">  1       -4 0.24613793E-01 0.27577709E+03</pdfrwt>
<totfact> 0.76741195E+02</totfact>
</mgrwt>
</event>
<event>
 9    1  0.7816570E-001  0.3096244E+03  0.7818608E-02  0.1080526E+00
         -2   -1    0    0    0  501 -0.00000000000E+00  0.00000000000E+00  0.57078036309E+02  0.57078036309E+02  0.00000000000E+00 0.  1.
          2   -1    0    0  501    0  0.00000000000E+00 -0.00000000000E+00 -0.41989564515E+03  0.41989564515E+03  0.00000000000E+00 0.  1.
         35    2    1    2    0    0 -0.71054273576E-14 -0.35527136788E-14 -0.36281760884E+03  0.47697368146E+03  0.30962441041E+03 0.  0.
         25    2    3    3    0    0 -0.54578924159E+02  0.27409157582E+02 -0.28747619883E+03  0.31888026737E+03  0.12374142048E+03 0.  0.
         25    2    3    3    0    0  0.54578924159E+02 -0.27409157582E+02 -0.75341410015E+02  0.15809341409E+03  0.12484822239E+03 0.  0.
          5    1    4    4  502    0 -0.79131260765E+02 -0.19136697859E+02 -0.20830819046E+03  0.22370150167E+03  0.47000000000E+01 0. -1.
         -5    1    4    4    0  502  0.24552336605E+02  0.46545855441E+02 -0.79168008366E+02  0.95178765700E+02  0.47000000000E+01 0. -1.
          5    1    5    5  503    0  0.59001576021E+02 -0.72329919868E+02 -0.54060046325E+02  0.10796935625E+03  0.47000000000E+01 0. -1.
         -5    1    5    5    0  503 -0.44226518613E+01  0.44920762286E+02 -0.21281363690E+02  0.50124057840E+02  0.47000000000E+01 0. -1.
<mgrwt>
<rscale>  0 0.30962441E+03</rscale>
<asrwt>0</asrwt>
<pdfrwt beam="1">  1        2 0.64599329E-01 0.30962441E+03</pdfrwt>
<pdfrwt beam="2">  1       -2 0.87812364E-02 0.30962441E+03</pdfrwt>
<totfact> 0.61719370E+03</totfact>
</mgrwt>
</event>
<event>
 9    1  0.7816570E-001  0.2796870E+03  0.7818608E-02  0.1095860E+00
         -2   -1    0    0    0  501 -0.00000000000E+00  0.00000000000E+00  0.48179115941E+02  0.48179115941E+02  0.00000000000E+00 0.  1.
          2   -1    0    0  501    0  0.00000000000E+00 -0.00000000000E+00 -0.40590618195E+03  0.40590618195E+03  0.00000000000E+00 0.  1.
         35    2    1    2    0    0 -0.35527136788E-14  0.00000000000E+00 -0.35772706600E+03  0.45408529789E+03  0.27968697504E+03 0.  0.
         25    2    3    3    0    0 -0.13886334897E+02  0.61948894491E+02 -0.17259068543E+03  0.22219091856E+03  0.12470270152E+03 0.  0.
         25    2    3    3    0    0  0.13886334897E+02 -0.61948894491E+02 -0.18513638057E+03  0.23189437933E+03  0.12437454694E+03 0.  0.
          5    1    4    4  502    0  0.51836625258E+02  0.14121687429E+02 -0.97549587979E+02  0.11146510615E+03  0.47000000000E+01 0.  1.
         -5    1    4    4    0  502 -0.65722960155E+02  0.47827207062E+02 -0.75041097453E+02  0.11072581241E+03  0.47000000000E+01 0.  1.
          5    1    5    5  503    0 -0.18586233521E+01 -0.49796542619E+02 -0.20029182214E+03  0.20645109386E+03  0.47000000000E+01 0. -1.
         -5    1    5    5    0  503  0.15744958249E+02 -0.12152351873E+02  0.15155441571E+02  0.25443285470E+02  0.47000000000E+01 0. -1.
<mgrwt>
<rscale>  0 0.27968698E+03</rscale>
<asrwt>0</asrwt>
<pdfrwt beam="1">  1        2 0.62447102E-01 0.27968698E+03</pdfrwt>
<pdfrwt beam="2">  1       -2 0.74121721E-02 0.27968698E+03</pdfrwt>
<totfact> 0.83246065E+03</totfact>
</mgrwt>
</event>
<event>
 9    1  0.7816570E-001  0.2858261E+03  0.7818608E-02  0.1092549E+00
         -1   -1    0    0    0  501 -0.00000000000E+00  0.00000000000E+00  0.29047283900E+02  0.29047283900E+02  0.00000000000E+00 0. -1.
          1   -1    0    0  501    0  0.00000000000E+00 -0.00000000000E+00 -0.70313442831E+03  0.70313442831E+03  0.00000000000E+00 0. -1.
         35    2    1    2    0    0  0.00000000000E+00  0.00000000000E+00 -0.67408714441E+03  0.73218171221E+03  0.28582613847E+03 0.  0.
         25    2    3    3    0    0  0.28262601200E+02  0.25280492832E+02 -0.48543325514E+03  0.50287323053E+03  0.12569074284E+03 0.  0.
         25    2    3    3    0    0 -0.28262601200E+02 -0.25280492832E+02 -0.18865388926E+03  0.22930848168E+03  0.12471652614E+03 0.  0.
          5    1    4    4  502    0 -0.14602777207E+02  0.68520551650E+02 -0.25829362122E+03  0.26766768924E+03  0.47000000000E+01 0.  1.
         -5    1    4    4    0  502  0.42865378408E+02 -0.43240058818E+02 -0.22713963393E+03  0.23520554129E+03  0.47000000000E+01 0.  1.
          5    1    5    5  503    0 -0.65380872952E+02 -0.25708406775E+02 -0.17640439357E+03  0.18993730754E+03  0.47000000000E+01 0.  1.
         -5    1    5    5    0  503  0.37118271751E+02  0.42791394297E+00 -0.12249495696E+02  0.39371174137E+02  0.47000000000E+01 0.  1.
<mgrwt>
<rscale>  0 0.28582614E+03</rscale>
<asrwt>0</asrwt>
<pdfrwt beam="1">  1        1 0.10817452E+00 0.28582614E+03</pdfrwt>
<pdfrwt beam="2">  1       -1 0.44688134E-02 0.28582614E+03</pdfrwt>
<totfact> 0.58270661E+03</totfact>
</mgrwt>
</event>
<event>
 9    1  0.7816570E-001  0.2757641E+03  0.7818608E-02  0.1098025E+00
         -2   -1    0    0    0  501 -0.00000000000E+00  0.00000000000E+00  0.32579929446E+02  0.32579929446E+02  0.00000000000E+00 0. -1.
          2   -1    0    0  501    0  0.00000000000E+00 -0.00000000000E+00 -0.58353285752E+03  0.58353285752E+03  0.00000000000E+00 0. -1.
         35    2    1    2    0    0 -0.17763568394E-14  0.71054273576E-14 -0.55095292807E+03  0.61611278697E+03  0.27576409721E+03 0.  0.
         25    2    3    3    0    0  0.10878255662E+02  0.34524929420E+02 -0.37835956446E+03  0.40064602196E+03  0.12669241375E+03 0.  0.
         25    2    3    3    0    0 -0.10878255662E+02 -0.34524929420E+02 -0.17259336362E+03  0.21546676500E+03  0.12380286935E+03 0.  0.
          5    1    4    4  502    0 -0.28347778263E+02 -0.36622240255E+02 -0.94368573012E+02  0.10522500932E+03  0.47000000000E+01 0.  1.
         -5    1    4    4    0  502  0.39226033924E+02  0.71147169676E+02 -0.28399099144E+03  0.29542101264E+03  0.47000000000E+01 0.  1.
          5    1    5    5  503    0  0.44737672712E+01  0.19653100253E+02  0.10955064538E+02  0.23417138642E+02  0.47000000000E+01 0.  1.
         -5    1    5    5    0  503 -0.15352022933E+02 -0.54178029673E+02 -0.18354842816E+03  0.19204962636E+03  0.47000000000E+01 0.  1.
<mgrwt>
<rscale>  0 0.27576410E+03</rscale>
<asrwt>0</asrwt>
<pdfrwt beam="1">  1        2 0.89774289E-01 0.27576410E+03</pdfrwt>
<pdfrwt beam="2">  1       -2 0.50122966E-02 0.27576410E+03</pdfrwt>
<totfact> 0.10120084E+04</totfact>
</mgrwt>
</event>
<event>
 9    1  0.7816570E-001  0.2787846E+03  0.7818608E-02  0.1096355E+00
          3   -1    0    0  501    0  0.00000000000E+00  0.00000000000E+00  0.95256741491E+02  0.95256741491E+02  0.00000000000E+00 0.  1.
         -3   -1    0    0    0  501 -0.00000000000E+00 -0.00000000000E+00 -0.20397735005E+03  0.20397735005E+03  0.00000000000E+00 0.  1.
         35    2    1    2    0    0  0.71054273576E-14  0.00000000000E+00 -0.10872060855E+03  0.29923409154E+03  0.27878463159E+03 0.  0.
         25    2    3    3    0    0 -0.59163302278E+02  0.28469129867E+02 -0.53106087915E+02  0.15022036554E+03  0.12423813407E+03 0.  0.
         25    2    3    3    0    0  0.59163302278E+02 -0.28469129867E+02 -0.55614520639E+02  0.14901372600E+03  0.12166070828E+03 0.  0.
          5    1    4    4  502    0 -0.32852912412E+02  0.20879310372E+02  0.38223912428E+02  0.54757802520E+02  0.47000000000E+01 0.  1.
         -5    1    4    4    0  502 -0.26310389866E+02  0.75898194948E+01 -0.91330000343E+02  0.95462563015E+02  0.47000000000E+01 0.  1.
          5    1    5    5  503    0  0.76128673135E+02 -0.20395865517E+02 -0.83593932974E+02  0.11498522441E+03  0.47000000000E+01 0. -1.
         -5    1    5    5    0  503 -0.16965370857E+02 -0.80732643502E+01  0.27979412335E+02  0.34028501587E+02  0.47000000000E+01 0. -1.
<mgrwt>
<rscale>  0 0.27878463E+03</rscale>
<asrwt>0</asrwt>
<pdfrwt beam="1">  1        3 0.14654883E-01 0.27878463E+03</pdfrwt>
<pdfrwt beam="2">  1       -3 0.31381131E-01 0.27878463E+03</pdfrwt>
<totfact> 0.97105623E+02</totfact>
</mgrwt>
</event>
<event>
 9    1  0.7816570E-001  0.2771100E+03  0.7818608E-02  0.1097278E+00
          2   -1    0    0  501    0  0.00000000000E+00  0.00000000000E+00  0.12302729222E+04  0.12302729222E+04  0.00000000000E+00 0. -1.
         -2   -1    0    0    0  501 -0.00000000000E+00 -0.00000000000E+00 -0.15604256769E+02  0.15604256769E+02  0.00000000000E+00 0. -1.
         35    2    1    2    0    0  0.71054273576E-14  0.00000000000E+00  0.12146686654E+04  0.12458771790E+04  0.27711004727E+03 0.  0.
         25    2    3    3    0    0  0.49631466717E+02  0.59310537770E+01  0.44955476607E+03  0.46905713769E+03  0.12416380647E+03 0.  0.
         25    2    3    3    0    0 -0.49631466717E+02 -0.59310537770E+01  0.76511389936E+03  0.77682004127E+03  0.12470620531E+03 0.  0.
          5    1    4    4  502    0 -0.26750364108E+02  0.31426689871E+02  0.25630603492E+03  0.25964994194E+03  0.47000000000E+01 0.  1.
         -5    1    4    4    0  502  0.76381830825E+02 -0.25495636094E+02  0.19324873115E+03  0.20940719575E+03  0.47000000000E+01 0.  1.
          5    1    5    5  503    0  0.11250212247E+02 -0.53655021966E+02  0.25647445976E+03  0.26231024983E+03  0.47000000000E+01 0. -1.
         -5    1    5    5    0  503 -0.60881678964E+02  0.47723968189E+02  0.50863943960E+03  0.51450979144E+03  0.47000000000E+01 0. -1.
<mgrwt>
<rscale>  0 0.27711005E+03</rscale>
<asrwt>0</asrwt>
<pdfrwt beam="1">  1        2 0.18927268E+00 0.27711005E+03</pdfrwt>
<pdfrwt beam="2">  1       -2 0.24006559E-02 0.27711005E+03</pdfrwt>
<totfact> 0.11323495E+04</totfact>
</mgrwt>
</event>
<event>
 9    1  0.7816570E-001  0.2765756E+03  0.7818608E-02  0.1097574E+00
          2   -1    0    0  501    0  0.00000000000E+00  0.00000000000E+00  0.87587411867E+03  0.87587411867E+03  0.00000000000E+00 0. -1.
         -2   -1    0    0    0  501 -0.00000000000E+00 -0.00000000000E+00 -0.21833636639E+02  0.21833636639E+02  0.00000000000E+00 0. -1.
         35    2    1    2    0    0  0.00000000000E+00  0.00000000000E+00  0.85404048203E+03  0.89770775530E+03  0.27657561171E+03 0.  0.
         25    2    3    3    0    0 -0.18610544141E+02 -0.18892152042E+02  0.53483946001E+03  0.54976133975E+03  0.12442273483E+03 0.  0.
         25    2    3    3    0    0  0.18610544141E+02  0.18892152042E+02  0.31920102202E+03  0.34794641556E+03  0.13591964492E+03 0.  0.
          5    1    4    4  502    0 -0.70356898074E+02 -0.23830659163E+02  0.34003244217E+03  0.34808353186E+03  0.47000000000E+01 0.  1.
         -5    1    4    4    0  502  0.51746353933E+02  0.49385071218E+01  0.19480701784E+03  0.20167780789E+03  0.47000000000E+01 0.  1.
          5    1    5    5  503    0 -0.19938940673E+02  0.70115229905E+02  0.14723489237E+03  0.16435908965E+03  0.47000000000E+01 0. -1.
         -5    1    5    5    0  503  0.38549484813E+02 -0.51223077864E+02  0.17196612965E+03  0.18358732590E+03  0.47000000000E+01 0. -1.
<mgrwt>
<rscale>  0 0.27657561E+03</rscale>
<asrwt>0</asrwt>
<pdfrwt beam="1">  1        2 0.13474984E+00 0.27657561E+03</pdfrwt>
<pdfrwt beam="2">  1       -2 0.33590217E-02 0.27657561E+03</pdfrwt>
<totfact> 0.11235173E+04</totfact>
</mgrwt>
</event>
<event>
 9    1  0.7816570E-001  0.2758490E+03  0.7818608E-02  0.1097978E+00
         -2   -1    0    0    0  501 -0.00000000000E+00  0.00000000000E+00  0.40876229688E+03  0.40876229688E+03  0.00000000000E+00 0.  1.
          2   -1    0    0  501    0  0.00000000000E+00 -0.00000000000E+00 -0.46538461975E+02  0.46538461975E+02  0.00000000000E+00 0.  1.
         35    2    1    2    0    0 -0.71054273576E-14  0.71054273576E-14  0.36222383491E+03  0.45530075886E+03  0.27584900660E+03 0.  0.
         25    2    3    3    0    0  0.58710173922E+02 -0.38614597843E+02  0.16832912063E+03  0.21410334441E+03  0.11210520749E+03 0.  0.
         25    2    3    3    0    0 -0.58710173922E+02  0.38614597843E+02  0.19389471427E+03  0.24119741445E+03  0.12507222243E+03 0.  0.
          5    1    4    4  502    0  0.50872514393E+02  0.91955757167E+01  0.16203875177E+02  0.54380390806E+02  0.47000000000E+01 0. -1.
         -5    1    4    4    0  502  0.78376595287E+01 -0.47810173559E+02  0.15212524546E+03  0.15972295360E+03  0.47000000000E+01 0. -1.
          5    1    5    5  503    0 -0.58674517375E+02 -0.22000281976E+01  0.19528428526E+02  0.62056334358E+02  0.47000000000E+01 0. -1.
         -5    1    5    5    0  503 -0.35656547053E-01  0.40814626040E+02  0.17436628575E+03  0.17914108009E+03  0.47000000000E+01 0. -1.
<mgrwt>
<rscale>  0 0.27584901E+03</rscale>
<asrwt>0</asrwt>
<pdfrwt beam="1">  1        2 0.71597636E-02 0.27584901E+03</pdfrwt>
<pdfrwt beam="2">  1       -2 0.62886505E-01 0.27584901E+03</pdfrwt>
<totfact> 0.23451525E+03</totfact>
</mgrwt>
</event>
<event>
 9    1  0.7816570E-001  0.2740649E+03  0.7818608E-02  0.1098975E+00
          4   -1    0    0  501    0  0.00000000000E+00  0.00000000000E+00  0.66571221591E+03  0.66571221591E+03  0.00000000000E+00 0. -1.
         -4   -1    0    0    0  501 -0.00000000000E+00 -0.00000000000E+00 -0.28207216599E+02  0.28207216599E+02  0.00000000000E+00 0. -1.
         35    2    1    2    0    0  0.00000000000E+00 -0.71054273576E-14  0.63750499931E+03  0.69391943251E+03  0.27406487310E+03 0.  0.
         25    2    3    3    0    0 -0.45953958213E+02  0.19674858643E+02  0.25785425384E+03  0.29108789468E+03  0.12547700933E+03 0.  0.
         25    2    3    3    0    0  0.45953958213E+02 -0.19674858643E+02  0.37965074548E+03  0.40283153783E+03  0.12505875816E+03 0.  0.
          5    1    4    4  502    0 -0.30005400379E+02  0.56011418580E+02  0.23816508471E+03  0.24654066732E+03  0.47000000000E+01 0.  1.
         -5    1    4    4    0  502 -0.15948557833E+02 -0.36336559937E+02  0.19689169121E+02  0.44547227363E+02  0.47000000000E+01 0.  1.
          5    1    5    5  503    0  0.57660058920E+02 -0.54046820099E+02  0.14377715819E+03  0.16413318486E+03  0.47000000000E+01 0. -1.
         -5    1    5    5    0  503 -0.11706100707E+02  0.34371961456E+02  0.23587358729E+03  0.23869835297E+03  0.47000000000E+01 0. -1.
<mgrwt>
<rscale>  0 0.27406487E+03</rscale>
<asrwt>0</asrwt>
<pdfrwt beam="1">  1        4 0.10241725E+00 0.27406487E+03</pdfrwt>
<pdfrwt beam="2">  1       -4 0.43395723E-02 0.27406487E+03</pdfrwt>
<totfact> 0.45348060E+02</totfact>
</mgrwt>
</event>
<event>
 9    1  0.7816570E-001  0.2830626E+03  0.7818608E-02  0.1094028E+00
         -2   -1    0    0    0  501 -0.00000000000E+00  0.00000000000E+00  0.24556723620E+02  0.24556723620E+02  0.00000000000E+00 0. -1.
          2   -1    0    0  501    0  0.00000000000E+00 -0.00000000000E+00 -0.81570757841E+03  0.81570757841E+03  0.00000000000E+00 0. -1.
         35    2    1    2    0    0 -0.14210854715E-13  0.10658141036E-13 -0.79115085479E+03  0.84026430203E+03  0.28306257653E+03 0.  0.
         25    2    3    3    0    0  0.44298173292E+02 -0.30688403172E+02 -0.41026960450E+03  0.43585596389E+03  0.13691298928E+03 0.  0.
         25    2    3    3    0    0 -0.44298173292E+02  0.30688403172E+02 -0.38088125028E+03  0.40440833814E+03  0.12478569987E+03 0.  0.
          5    1    4    4  502    0  0.93509112785E+02 -0.21898048837E+02 -0.29004171140E+03  0.30556466267E+03  0.47000000000E+01 0. -1.
         -5    1    4    4    0  502 -0.49210939493E+02 -0.87903543347E+01 -0.12022789310E+03  0.13029130122E+03  0.47000000000E+01 0. -1.
          5    1    5    5  503    0 -0.50474740957E+02  0.37118642759E+02 -0.72805209699E+02  0.96167466819E+02  0.47000000000E+01 0.  1.
         -5    1    5    5    0  503  0.61765676654E+01 -0.64302395872E+01 -0.30807604058E+03  0.30824087132E+03  0.47000000000E+01 0.  1.
<mgrwt>
<rscale>  0 0.28306258E+03</rscale>
<asrwt>0</asrwt>
<pdfrwt beam="1">  1        2 0.12549346E+00 0.28306258E+03</pdfrwt>
<pdfrwt beam="2">  1       -2 0.37779579E-02 0.28306258E+03</pdfrwt>
<totfact> 0.10344620E+04</totfact>
</mgrwt>
</event>
<event>
 9    1  0.7816570E-001  0.2651808E+03  0.7818608E-02  0.1104070E+00
         -2   -1    0    0    0  501 -0.00000000000E+00  0.00000000000E+00  0.15960778630E+04  0.15960778630E+04  0.00000000000E+00 0.  1.
          2   -1    0    0  501    0  0.00000000000E+00 -0.00000000000E+00 -0.11014635958E+02  0.11014635958E+02  0.00000000000E+00 0.  1.
         35    2    1    2    0    0  0.00000000000E+00 -0.35527136788E-14  0.15850632270E+04  0.16070924989E+04  0.26518081847E+03 0.  0.
         25    2    3    3    0    0  0.38924721114E+02 -0.16415894000E+02  0.69532521339E+03  0.70768316527E+03  0.12471445202E+03 0.  0.
         25    2    3    3    0    0 -0.38924721114E+02  0.16415894000E+02  0.88973801364E+03  0.89940933367E+03  0.12457448012E+03 0.  0.
          5    1    4    4  502    0 -0.28094404463E+02  0.11560805094E+02  0.53170718149E+02  0.61417937486E+02  0.47000000000E+01 0.  1.
         -5    1    4    4    0  502  0.67019125577E+02 -0.27976699093E+02  0.64215449524E+03  0.64626522778E+03  0.47000000000E+01 0.  1.
          5    1    5    5  503    0 -0.56047793338E+02  0.20830116618E+02  0.18595110044E+03  0.19538462235E+03  0.47000000000E+01 0.  1.
         -5    1    5    5    0  503  0.17123072224E+02 -0.44142226184E+01  0.70378691320E+03  0.70402471132E+03  0.47000000000E+01 0.  1.
<mgrwt>
<rscale>  0 0.26518082E+03</rscale>
<asrwt>0</asrwt>
<pdfrwt beam="1">  1        2 0.16945606E-02 0.26518082E+03</pdfrwt>
<pdfrwt beam="2">  1       -2 0.24555026E+00 0.26518082E+03</pdfrwt>
<totfact> 0.52508440E+02</totfact>
</mgrwt>
</event>
<event>
 9    1  0.7816570E-001  0.2740483E+03  0.7818608E-02  0.1098985E+00
          1   -1    0    0  501    0  0.00000000000E+00  0.00000000000E+00  0.13238844103E+03  0.13238844103E+03  0.00000000000E+00 0. -1.
         -1   -1    0    0    0  501 -0.00000000000E+00 -0.00000000000E+00 -0.14182214383E+03  0.14182214383E+03  0.00000000000E+00 0. -1.
         35    2    1    2    0    0 -0.35527136788E-14  0.35527136788E-14 -0.94337028002E+01  0.27421058485E+03  0.27404826235E+03 0.  0.
         25    2    3    3    0    0 -0.30538841065E+02  0.54025397776E+01  0.42099102777E+02  0.13526535727E+03  0.12475004679E+03 0.  0.
         25    2    3    3    0    0  0.30538841065E+02 -0.54025397776E+01 -0.51532805577E+02  0.13894522758E+03  0.12525309564E+03 0.  0.
          5    1    4    4  502    0  0.27849536180E+02 -0.20559900269E+02 -0.24638842687E+02  0.42748903301E+02  0.47000000000E+01 0. -1.
         -5    1    4    4    0  502 -0.58388377245E+02  0.25962440046E+02  0.66737945464E+02  0.92516453971E+02  0.47000000000E+01 0. -1.
          5    1    5    5  503    0  0.52250852592E+02  0.44187419244E+02 -0.49466080278E+02  0.84567503889E+02  0.47000000000E+01 0.  1.
         -5    1    5    5    0  503 -0.21712011527E+02 -0.49589959022E+02 -0.20667252994E+01  0.54377723690E+02  0.47000000000E+01 0.  1.
<mgrwt>
<rscale>  0 0.27404826E+03</rscale>
<asrwt>0</asrwt>
<pdfrwt beam="1">  1        1 0.20367452E-01 0.27404826E+03</pdfrwt>
<pdfrwt beam="2">  1       -1 0.21818791E-01 0.27404826E+03</pdfrwt>
<totfact> 0.43286913E+03</totfact>
</mgrwt>
</event>
<event>
 9    1  0.7816570E-001  0.2753764E+03  0.7818608E-02  0.1098241E+00
         -2   -1    0    0    0  501 -0.00000000000E+00  0.00000000000E+00  0.96473211919E+01  0.96473211919E+01  0.00000000000E+00 0.  1.
          2   -1    0    0  501    0  0.00000000000E+00 -0.00000000000E+00 -0.19651089595E+04  0.19651089595E+04  0.00000000000E+00 0.  1.
         35    2    1    2    0    0  0.00000000000E+00 -0.13322676296E-14 -0.19554616383E+04  0.19747562807E+04  0.27537637741E+03 0.  0.
         25    2    3    3    0    0 -0.48442310270E+01  0.17710370568E+01 -0.56653981108E+03  0.58018939539E+03  0.12500309530E+03 0.  0.
         25    2    3    3    0    0  0.48442310270E+01 -0.17710370568E+01 -0.13889218272E+04  0.13945668853E+04  0.12524516874E+03 0.  0.
          5    1    4    4  502    0 -0.61706028224E+02 -0.38945473581E+00 -0.20397887534E+03  0.21316016790E+03  0.47000000000E+01 0.  1.
         -5    1    4    4    0  502  0.56861797197E+02  0.21604917927E+01 -0.36256093574E+03  0.36702922749E+03  0.47000000000E+01 0.  1.
          5    1    5    5  503    0 -0.45775588620E+02  0.18558817642E+02 -0.10566451818E+04  0.10578095124E+04  0.47000000000E+01 0. -1.
         -5    1    5    5    0  503  0.50619819647E+02 -0.20329854699E+02 -0.33227664540E+03  0.33675737292E+03  0.47000000000E+01 0. -1.
<mgrwt>
<rscale>  0 0.27537638E+03</rscale>
<asrwt>0</asrwt>
<pdfrwt beam="1">  1        2 0.30232444E+00 0.27537638E+03</pdfrwt>
<pdfrwt beam="2">  1       -2 0.14842033E-02 0.27537638E+03</pdfrwt>
<totfact> 0.92867502E+03</totfact>
</mgrwt>
</event>
<event>
 9    1  0.7816570E-001  0.2775091E+03  0.7818608E-02  0.1097057E+00
          1   -1    0    0  501    0  0.00000000000E+00  0.00000000000E+00  0.18182454959E+03  0.18182454959E+03  0.00000000000E+00 0. -1.
         -1   -1    0    0    0  501 -0.00000000000E+00 -0.00000000000E+00 -0.10588683370E+03  0.10588683370E+03  0.00000000000E+00 0. -1.
         35    2    1    2    0    0  0.00000000000E+00 -0.71054273576E-14  0.75937715898E+02  0.28771138329E+03  0.27750910504E+03 0.  0.
         25    2    3    3    0    0 -0.39175147719E+02 -0.30486370162E+02 -0.20047720951E+01  0.13369866002E+03  0.12412574920E+03 0.  0.
         25    2    3    3    0    0  0.39175147719E+02  0.30486370162E+02  0.77942487993E+02  0.15401272327E+03  0.12321029393E+03 0.  0.
          5    1    4    4  502    0 -0.11769687627E+02  0.32325192617E+02 -0.41779101674E+02  0.54323355578E+02  0.47000000000E+01 0. -1.
         -5    1    4    4    0  502 -0.27405460092E+02 -0.62811562779E+02  0.39774329579E+02  0.79375304441E+02  0.47000000000E+01 0. -1.
          5    1    5    5  503    0  0.26656191337E+02  0.40145989539E+02  0.10876396882E+03  0.11905437383E+03  0.47000000000E+01 0. -1.
         -5    1    5    5    0  503  0.12518956382E+02 -0.96596193766E+01 -0.30821480831E+02  0.34958349446E+02  0.47000000000E+01 0. -1.
<mgrwt>
<rscale>  0 0.27750911E+03</rscale>
<asrwt>0</asrwt>
<pdfrwt beam="1">  1        1 0.27973008E-01 0.27750911E+03</pdfrwt>
<pdfrwt beam="2">  1       -1 0.16290282E-01 0.27750911E+03</pdfrwt>
<totfact> 0.46336311E+03</totfact>
</mgrwt>
</event>
<event>
 9    1  0.7816570E-001  0.2746719E+03  0.7818608E-02  0.1098635E+00
          2   -1    0    0  501    0  0.00000000000E+00  0.00000000000E+00  0.41822010873E+03  0.41822010873E+03  0.00000000000E+00 0. -1.
         -2   -1    0    0    0  501 -0.00000000000E+00 -0.00000000000E+00 -0.45098636269E+02  0.45098636269E+02  0.00000000000E+00 0. -1.
         35    2    1    2    0    0 -0.71054273576E-14 -0.71054273576E-14  0.37312147246E+03  0.46331874500E+03  0.27467185195E+03 0.  0.
         25    2    3    3    0    0 -0.44556377523E+02  0.12862746620E+02  0.24363944618E+03  0.27770609263E+03  0.12493907763E+03 0.  0.
         25    2    3    3    0    0  0.44556377523E+02 -0.12862746620E+02  0.12948202628E+03  0.18561265237E+03  0.12464245088E+03 0.  0.
          5    1    4    4  502    0 -0.13703939869E+02 -0.52663622336E+02  0.65101596470E+02  0.84979779644E+02  0.47000000000E+01 0. -1.
         -5    1    4    4    0  502 -0.30852437654E+02  0.65526368956E+02  0.17853784971E+03  0.19272631298E+03  0.47000000000E+01 0. -1.
          5    1    5    5  503    0  0.69374490469E+02 -0.35461376423E+02  0.35579334308E+02  0.85780581576E+02  0.47000000000E+01 0.  1.
         -5    1    5    5    0  503 -0.24818112946E+02  0.22598629803E+02  0.93902691976E+02  0.99832070796E+02  0.47000000000E+01 0.  1.
<mgrwt>
<rscale>  0 0.27467185E+03</rscale>
<asrwt>0</asrwt>
<pdfrwt beam="1">  1        2 0.64341553E-01 0.27467185E+03</pdfrwt>
<pdfrwt beam="2">  1       -2 0.69382520E-02 0.27467185E+03</pdfrwt>
<totfact> 0.89212717E+03</totfact>
</mgrwt>
</event>
<event>
 9    1  0.7816570E-001  0.2785784E+03  0.7818608E-02  0.1096468E+00
         -1   -1    0    0    0  501 -0.00000000000E+00  0.00000000000E+00  0.27669661819E+02  0.27669661819E+02  0.00000000000E+00 0. -1.
          1   -1    0    0  501    0  0.00000000000E+00 -0.00000000000E+00 -0.70118262329E+03  0.70118262329E+03  0.00000000000E+00 0. -1.
         35    2    1    2    0    0  0.00000000000E+00  0.00000000000E+00 -0.67351296147E+03  0.72885228511E+03  0.27857843463E+03 0.  0.
         25    2    3    3    0    0  0.29973076091E+02  0.54194680916E+02 -0.35136534562E+03  0.37809287504E+03  0.12514458568E+03 0.  0.
         25    2    3    3    0    0 -0.29973076091E+02 -0.54194680916E+02 -0.32214761586E+03  0.35075941008E+03  0.12416774389E+03 0.  0.
          5    1    4    4  502    0  0.45728820022E+02  0.38868655309E+02 -0.57106262406E+02  0.82976578335E+02  0.47000000000E+01 0.  1.
         -5    1    4    4    0  502 -0.15755743931E+02  0.15326025608E+02 -0.29425908321E+03  0.29511629670E+03  0.47000000000E+01 0.  1.
          5    1    5    5  503    0 -0.27006575664E+02  0.27544930864E+02 -0.35504704751E+02  0.52637936935E+02  0.47000000000E+01 0.  1.
         -5    1    5    5    0  503 -0.29665004274E+01 -0.81739611780E+02 -0.28664291111E+03  0.29812147314E+03  0.47000000000E+01 0.  1.
<mgrwt>
<rscale>  0 0.27857843E+03</rscale>
<asrwt>0</asrwt>
<pdfrwt beam="1">  1        1 0.10787426E+00 0.27857843E+03</pdfrwt>
<pdfrwt beam="2">  1       -1 0.42568708E-02 0.27857843E+03</pdfrwt>
<totfact> 0.62869104E+03</totfact>
</mgrwt>
</event>
<event>
 9    1  0.7816570E-001  0.2754775E+03  0.7818608E-02  0.1098185E+00
          1   -1    0    0  501    0  0.00000000000E+00  0.00000000000E+00  0.73554927106E+02  0.73554927106E+02  0.00000000000E+00 0. -1.
         -1   -1    0    0    0  501 -0.00000000000E+00 -0.00000000000E+00 -0.25792922195E+03  0.25792922195E+03  0.00000000000E+00 0. -1.
         35    2    1    2    0    0 -0.35527136788E-14  0.00000000000E+00 -0.18437429485E+03  0.33148414906E+03  0.27547751356E+03 0.  0.
         25    2    3    3    0    0  0.11315064632E+02 -0.47827647181E+02 -0.12963539771E+03  0.18459108794E+03  0.12187296209E+03 0.  0.
         25    2    3    3    0    0 -0.11315064632E+02  0.47827647181E+02 -0.54738897140E+02  0.14689306111E+03  0.12714444550E+03 0.  0.
          5    1    4    4  502    0 -0.16596215818E+02 -0.41789443797E+01 -0.13134681498E+03  0.13254046084E+03  0.47000000000E+01 0. -1.
         -5    1    4    4    0  502  0.27911280450E+02 -0.43648702802E+02  0.17114172718E+01  0.52050627102E+02  0.47000000000E+01 0. -1.
          5    1    5    5  503    0 -0.47116614822E+01  0.23318980276E+02  0.41054958272E+02  0.47682011218E+02  0.47000000000E+01 0. -1.
         -5    1    5    5    0  503 -0.66034031501E+01  0.24508666906E+02 -0.95793855413E+02  0.99211049896E+02  0.47000000000E+01 0. -1.
<mgrwt>
<rscale>  0 0.27547751E+03</rscale>
<asrwt>0</asrwt>
<pdfrwt beam="1">  1        1 0.11316143E-01 0.27547751E+03</pdfrwt>
<pdfrwt beam="2">  1       -1 0.39681418E-01 0.27547751E+03</pdfrwt>
<totfact> 0.33850089E+03</totfact>
</mgrwt>
</event>
<event>
 9    1  0.7816570E-001  0.2810265E+03  0.7818608E-02  0.1095130E+00
         -1   -1    0    0    0  501 -0.00000000000E+00  0.00000000000E+00  0.80736575439E+02  0.80736575439E+02  0.00000000000E+00 0. -1.
          1   -1    0    0  501    0  0.00000000000E+00 -0.00000000000E+00 -0.24454801814E+03  0.24454801814E+03  0.00000000000E+00 0. -1.
         35    2    1    2    0    0  0.00000000000E+00 -0.71054273576E-14 -0.16381144271E+03  0.32528459358E+03  0.28102647217E+03 0.  0.
         25    2    3    3    0    0 -0.23289908295E+02 -0.54907812714E+02 -0.95483641007E+02  0.16759186311E+03  0.12414757008E+03 0.  0.
         25    2    3    3    0    0  0.23289908295E+02  0.54907812714E+02 -0.68327801698E+02  0.15769273047E+03  0.12900008152E+03 0.  0.
          5    1    4    4  502    0  0.38765872076E+02 -0.52247186967E+02 -0.17025252528E+02  0.67412985451E+02  0.47000000000E+01 0.  1.
         -5    1    4    4    0  502 -0.62055780371E+02 -0.26606257467E+01 -0.78458388479E+02  0.10017887766E+03  0.47000000000E+01 0.  1.
          5    1    5    5  503    0  0.67398558228E+02  0.24022315582E+02 -0.14729787228E+01  0.71720965996E+02  0.47000000000E+01 0. -1.
         -5    1    5    5    0  503 -0.44108649933E+02  0.30885497132E+02 -0.66854822975E+02  0.85971764476E+02  0.47000000000E+01 0. -1.
<mgrwt>
<rscale>  0 0.28102647E+03</rscale>
<asrwt>0</asrwt>
<pdfrwt beam="1">  1        1 0.37622771E-01 0.28102647E+03</pdfrwt>
<pdfrwt beam="2">  1       -1 0.12421012E-01 0.28102647E+03</pdfrwt>
<totfact> 0.48997048E+03</totfact>
</mgrwt>
</event>
<event>
 9    1  0.7816570E-001  0.2739951E+03  0.7818608E-02  0.1099015E+00
         -2   -1    0    0    0  501 -0.00000000000E+00  0.00000000000E+00  0.10179740154E+02  0.10179740154E+02  0.00000000000E+00 0. -1.
          2   -1    0    0  501    0  0.00000000000E+00 -0.00000000000E+00 -0.18436944087E+04  0.18436944087E+04  0.00000000000E+00 0. -1.
         35    2    1    2    0    0  0.00000000000E+00  0.00000000000E+00 -0.18335146686E+04  0.18538741489E+04  0.27399510947E+03 0.  0.
         25    2    3    3    0    0  0.41548687208E+02  0.18394254217E+02 -0.11363243946E+04  0.11441250749E+04  0.12539703075E+03 0.  0.
         25    2    3    3    0    0 -0.41548687208E+02 -0.18394254217E+02 -0.69719027401E+03  0.70974907399E+03  0.12491928537E+03 0.  0.
          5    1    4    4  502    0 -0.13418521522E+02 -0.90826908759E+01 -0.89158894391E+03  0.89174855587E+03  0.47000000000E+01 0. -1.
         -5    1    4    4    0  502  0.54967208729E+02  0.27476945092E+02 -0.24473545064E+03  0.25237651901E+03  0.47000000000E+01 0. -1.
          5    1    5    5  503    0  0.40530589600E+02 -0.10246244131E+02 -0.13170690183E+03  0.13826247576E+03  0.47000000000E+01 0.  1.
         -5    1    5    5    0  503 -0.82079276807E+02 -0.81480100855E+01 -0.56548337218E+03  0.57148659823E+03  0.47000000000E+01 0.  1.
<mgrwt>
<rscale>  0 0.27399511E+03</rscale>
<asrwt>0</asrwt>
<pdfrwt beam="1">  1        2 0.28364540E+00 0.27399511E+03</pdfrwt>
<pdfrwt beam="2">  1       -2 0.15661133E-02 0.27399511E+03</pdfrwt>
<totfact> 0.99413787E+03</totfact>
</mgrwt>
</event>
<event>
 9    1  0.7816570E-001  0.2726644E+03  0.7818608E-02  0.1099764E+00
         -2   -1    0    0    0  501 -0.00000000000E+00  0.00000000000E+00  0.61195457866E+03  0.61195457866E+03  0.00000000000E+00 0.  1.
          2   -1    0    0  501    0  0.00000000000E+00 -0.00000000000E+00 -0.30372311552E+02  0.30372311552E+02  0.00000000000E+00 0.  1.
         35    2    1    2    0    0  0.35527136788E-14 -0.14210854715E-13  0.58158226710E+03  0.64232689021E+03  0.27266444666E+03 0.  0.
         25    2    3    3    0    0  0.27293253747E+02 -0.46867744271E+02  0.28457159759E+03  0.31560896017E+03  0.12524581602E+03 0.  0.
         25    2    3    3    0    0 -0.27293253747E+02  0.46867744271E+02  0.29701066951E+03  0.32671793004E+03  0.12485095454E+03 0.  0.
          5    1    4    4  502    0  0.48145417037E+02 -0.50950423135E+02  0.67430527304E+02  0.97380145881E+02  0.47000000000E+01 0. -1.
         -5    1    4    4    0  502 -0.20852163289E+02  0.40826788636E+01  0.21714107029E+03  0.21822881429E+03  0.47000000000E+01 0. -1.
          5    1    5    5  503    0  0.34026049601E+02 -0.52322490773E+01  0.24440626061E+02  0.42480379990E+02  0.47000000000E+01 0.  1.
         -5    1    5    5    0  503 -0.61319303348E+02  0.52099993349E+02  0.27257004345E+03  0.28423755005E+03  0.47000000000E+01 0.  1.
<mgrwt>
<rscale>  0 0.27266445E+03</rscale>
<asrwt>0</asrwt>
<pdfrwt beam="1">  1        2 0.46726638E-02 0.27266445E+03</pdfrwt>
<pdfrwt beam="2">  1       -2 0.94146849E-01 0.27266445E+03</pdfrwt>
<totfact> 0.16942884E+03</totfact>
</mgrwt>
</event>
<event>
 9    1  0.7816570E-001  0.2746556E+03  0.7818608E-02  0.1098644E+00
         -2   -1    0    0    0  501 -0.00000000000E+00  0.00000000000E+00  0.66078708044E+01  0.66078708044E+01  0.00000000000E+00 0.  1.
          2   -1    0    0  501    0  0.00000000000E+00 -0.00000000000E+00 -0.28540090052E+04  0.28540090052E+04  0.00000000000E+00 0.  1.
         35    2    1    2    0    0 -0.35527136788E-14  0.00000000000E+00 -0.28474011344E+04  0.28606168761E+04  0.27465558637E+03 0.  0.
         25    2    3    3    0    0  0.30252743381E+02  0.25686388561E+02 -0.18048582916E+04  0.18096243753E+04  0.12510758476E+03 0.  0.
         25    2    3    3    0    0 -0.30252743381E+02 -0.25686388561E+02 -0.10425428429E+04  0.10509925008E+04  0.12694344608E+03 0.  0.
          5    1    4    4  502    0  0.41666772624E+01 -0.31270992740E+02 -0.14025351923E+03  0.14383454329E+03  0.47000000000E+01 0.  1.
         -5    1    4    4    0  502  0.26086066119E+02  0.56957381301E+02 -0.16646047724E+04  0.16657898320E+04  0.47000000000E+01 0.  1.
          5    1    5    5  503    0 -0.53779489747E+02  0.36011256646E+02 -0.60498802202E+03  0.60845841346E+03  0.47000000000E+01 0.  1.
         -5    1    5    5    0  503  0.23526746366E+02 -0.61697645207E+02 -0.43755482084E+03  0.44253408734E+03  0.47000000000E+01 0.  1.
<mgrwt>
<rscale>  0 0.27465559E+03</rscale>
<asrwt>0</asrwt>
<pdfrwt beam="1">  1        2 0.43907799E+00 0.27465559E+03</pdfrwt>
<pdfrwt beam="2">  1       -2 0.10165962E-02 0.27465559E+03</pdfrwt>
<totfact> 0.52802827E+03</totfact>
</mgrwt>
</event>
<event>
 9    1  0.7816570E-001  0.2729785E+03  0.7818608E-02  0.1099587E+00
         -2   -1    0    0    0  501 -0.00000000000E+00  0.00000000000E+00  0.15535474939E+02  0.15535474939E+02  0.00000000000E+00 0.  1.
          2   -1    0    0  501    0  0.00000000000E+00 -0.00000000000E+00 -0.11991471463E+04  0.11991471463E+04  0.00000000000E+00 0.  1.
         35    2    1    2    0    0  0.00000000000E+00 -0.71054273576E-14 -0.11836116714E+04  0.12146826213E+04  0.27297853717E+03 0.  0.
         25    2    3    3    0    0 -0.45667460355E+02 -0.27560053758E+02 -0.59062408133E+03  0.60592801936E+03  0.12436593462E+03 0.  0.
         25    2    3    3    0    0  0.45667460355E+02  0.27560053758E+02 -0.59298759007E+03  0.60875460192E+03  0.12689684742E+03 0.  0.
          5    1    4    4  502    0  0.10384169190E+02 -0.56593141991E+02 -0.41984532790E+03  0.42379571028E+03  0.47000000000E+01 0.  1.
         -5    1    4    4    0  502 -0.56051629545E+02  0.29033088234E+02 -0.17077875344E+03  0.18213230908E+03  0.47000000000E+01 0.  1.
          5    1    5    5  503    0  0.85903901733E+01 -0.35231976941E+01  0.29665900444E+01  0.10821200572E+02  0.47000000000E+01 0. -1.
         -5    1    5    5    0  503  0.37077070182E+02  0.31083251452E+02 -0.59595418011E+03  0.59793340135E+03  0.47000000000E+01 0. -1.
<mgrwt>
<rscale>  0 0.27297854E+03</rscale>
<asrwt>0</asrwt>
<pdfrwt beam="1">  1        2 0.18448421E+00 0.27297854E+03</pdfrwt>
<pdfrwt beam="2">  1       -2 0.23900727E-02 0.27297854E+03</pdfrwt>
<totfact> 0.11864594E+04</totfact>
</mgrwt>
</event>
<event>
 9    1  0.7816570E-001  0.3128381E+03  0.7818608E-02  0.1078993E+00
         -2   -1    0    0    0  501 -0.00000000000E+00  0.00000000000E+00  0.75878002334E+01  0.75878002334E+01  0.00000000000E+00 0. -1.
          2   -1    0    0  501    0  0.00000000000E+00 -0.00000000000E+00 -0.32245069518E+04  0.32245069518E+04  0.00000000000E+00 0. -1.
         35    2    1    2    0    0  0.00000000000E+00  0.44408920985E-15 -0.32169191516E+04  0.32320947521E+04  0.31283807059E+03 0.  0.
         25    2    3    3    0    0 -0.91170426934E+02 -0.37368143114E+01 -0.14315157392E+04  0.14399066274E+04  0.12556979534E+03 0.  0.
         25    2    3    3    0    0  0.91170426934E+02  0.37368143114E+01 -0.17854034124E+04  0.17921881247E+04  0.12628110978E+03 0.  0.
          5    1    4    4  502    0  0.31613690009E+02 -0.19870321222E+01 -0.26059845008E+03  0.26255859513E+03  0.47000000000E+01 0. -1.
         -5    1    4    4    0  502 -0.12278411694E+03 -0.17497821892E+01 -0.11709172891E+04  0.11773480322E+04  0.47000000000E+01 0. -1.
          5    1    5    5  503    0  0.50042567554E+02  0.15314878242E+02 -0.16328346505E+04  0.16336798615E+04  0.47000000000E+01 0. -1.
         -5    1    5    5    0  503  0.41127859380E+02 -0.11578063930E+02 -0.15256876199E+03  0.15850826324E+03  0.47000000000E+01 0. -1.
<mgrwt>
<rscale>  0 0.31283807E+03</rscale>
<asrwt>0</asrwt>
<pdfrwt beam="1">  1        2 0.49607797E+00 0.31283807E+03</pdfrwt>
<pdfrwt beam="2">  1       -2 0.11673539E-02 0.31283807E+03</pdfrwt>
<totfact> 0.25806073E+03</totfact>
</mgrwt>
</event>
<event>
 9    1  0.7816570E-001  0.2762423E+03  0.7818608E-02  0.1097759E+00
         -2   -1    0    0    0  501 -0.00000000000E+00  0.00000000000E+00  0.13239657896E+02  0.13239657896E+02  0.00000000000E+00 0.  1.
          2   -1    0    0  501    0  0.00000000000E+00 -0.00000000000E+00 -0.14409320219E+04  0.14409320219E+04  0.00000000000E+00 0.  1.
         35    2    1    2    0    0  0.35527136788E-14  0.71054273576E-14 -0.14276923640E+04  0.14541716798E+04  0.27624226339E+03 0.  0.
         25    2    3    3    0    0 -0.20274297543E+02 -0.54760583725E+02 -0.76268452248E+03  0.77504030692E+03  0.12486003304E+03 0.  0.
         25    2    3    3    0    0  0.20274297543E+02  0.54760583725E+02 -0.66500784151E+03  0.67913137286E+03  0.12479672938E+03 0.  0.
          5    1    4    4  502    0  0.20635575612E+02  0.20978859370E+02 -0.59040827325E+02  0.66135080045E+02  0.47000000000E+01 0.  1.
         -5    1    4    4    0  502 -0.40909873155E+02 -0.75739443095E+02 -0.70364369515E+03  0.70890522688E+03  0.47000000000E+01 0.  1.
          5    1    5    5  503    0  0.36065732261E+02  0.88376110296E+02 -0.54830149875E+03  0.55656778334E+03  0.47000000000E+01 0.  1.
         -5    1    5    5    0  503 -0.15791434718E+02 -0.33615526571E+02 -0.11670634276E+03  0.12256358953E+03  0.47000000000E+01 0.  1.
<mgrwt>
<rscale>  0 0.27624226E+03</rscale>
<asrwt>0</asrwt>
<pdfrwt beam="1">  1        2 0.22168175E+00 0.27624226E+03</pdfrwt>
<pdfrwt beam="2">  1       -2 0.20368714E-02 0.27624226E+03</pdfrwt>
<totfact> 0.11048255E+04</totfact>
</mgrwt>
</event>
<event>
 9    1  0.7816570E-001  0.2752405E+03  0.7818608E-02  0.1098317E+00
          3   -1    0    0  501    0  0.00000000000E+00  0.00000000000E+00  0.78092616448E+02  0.78092616448E+02  0.00000000000E+00 0.  1.
         -3   -1    0    0    0  501 -0.00000000000E+00 -0.00000000000E+00 -0.24252407883E+03  0.24252407883E+03  0.00000000000E+00 0.  1.
         35    2    1    2    0    0 -0.35527136788E-14 -0.71054273576E-14 -0.16443146239E+03  0.32061669528E+03  0.27524054838E+03 0.  0.
         25    2    3    3    0    0  0.23161963350E+02  0.51849445908E+02 -0.90468916074E+02  0.16482947975E+03  0.12553601488E+03 0.  0.
         25    2    3    3    0    0 -0.23161963350E+02 -0.51849445908E+02 -0.73962546312E+02  0.15578721553E+03  0.12479726231E+03 0.  0.
          5    1    4    4  502    0  0.46619714967E+02  0.83953879497E+02 -0.52000872118E+02  0.10930614076E+03  0.47000000000E+01 0.  1.
         -5    1    4    4    0  502 -0.23457751617E+02 -0.32104433590E+02 -0.38468043956E+02  0.55523338992E+02  0.47000000000E+01 0.  1.
          5    1    5    5  503    0 -0.23775199488E+02 -0.18044487029E+01  0.31010447083E+02  0.39398654471E+02  0.47000000000E+01 0. -1.
         -5    1    5    5    0  503  0.61323613850E+00 -0.50044997205E+02 -0.10497299340E+03  0.11638856106E+03  0.47000000000E+01 0. -1.
<mgrwt>
<rscale>  0 0.27524055E+03</rscale>
<asrwt>0</asrwt>
<pdfrwt beam="1">  1        3 0.12014249E-01 0.27524055E+03</pdfrwt>
<pdfrwt beam="2">  1       -3 0.37311397E-01 0.27524055E+03</pdfrwt>
<totfact> 0.97960081E+02</totfact>
</mgrwt>
</event>
<event>
 9    1  0.7816570E-001  0.2764394E+03  0.7818608E-02  0.1097650E+00
         -1   -1    0    0    0  501 -0.00000000000E+00  0.00000000000E+00  0.36409215972E+02  0.36409215972E+02  0.00000000000E+00 0.  1.
          1   -1    0    0  501    0  0.00000000000E+00 -0.00000000000E+00 -0.52472118425E+03  0.52472118425E+03  0.00000000000E+00 0.  1.
         35    2    1    2    0    0 -0.71054273576E-14  0.00000000000E+00 -0.48831196828E+03  0.56113040022E+03  0.27643941052E+03 0.  0.
         25    2    3    3    0    0 -0.19807736775E+02  0.51572812361E+02 -0.28609289180E+03  0.31717775284E+03  0.12530156720E+03 0.  0.
         25    2    3    3    0    0  0.19807736775E+02 -0.51572812361E+02 -0.20221907647E+03  0.24395264738E+03  0.12477274488E+03 0.  0.
          5    1    4    4  502    0  0.33891128617E+02  0.31837694653E+02 -0.31904514886E+02  0.56588297994E+02  0.47000000000E+01 0. -1.
         -5    1    4    4    0  502 -0.53698865393E+02  0.19735117709E+02 -0.25418837692E+03  0.26058945484E+03  0.47000000000E+01 0. -1.
          5    1    5    5  503    0  0.27846437641E+01 -0.42489547631E+02 -0.21572416872E+03  0.21993663376E+03  0.47000000000E+01 0. -1.
         -5    1    5    5    0  503  0.17023093011E+02 -0.90832647302E+01  0.13505092247E+02  0.24016013625E+02  0.47000000000E+01 0. -1.
<mgrwt>
<rscale>  0 0.27643941E+03</rscale>
<asrwt>0</asrwt>
<pdfrwt beam="1">  1        1 0.80726331E-01 0.27643941E+03</pdfrwt>
<pdfrwt beam="2">  1       -1 0.56014182E-02 0.27643941E+03</pdfrwt>
<totfact> 0.62468251E+03</totfact>
</mgrwt>
</event>
<event>
 9    1  0.7816570E-001  0.2760413E+03  0.7818608E-02  0.1097871E+00
         -1   -1    0    0    0  501 -0.00000000000E+00  0.00000000000E+00  0.17558210626E+03  0.17558210626E+03  0.00000000000E+00 0. -1.
          1   -1    0    0  501    0  0.00000000000E+00 -0.00000000000E+00 -0.10849457250E+03  0.10849457250E+03  0.00000000000E+00 0. -1.
         35    2    1    2    0    0  0.71054273576E-14  0.00000000000E+00  0.67087533758E+02  0.28407667876E+03  0.27604134152E+03 0.  0.
         25    2    3    3    0    0 -0.72035609858E+01  0.56494491036E+02  0.58659109966E+02  0.14973988109E+03  0.12544967915E+03 0.  0.
         25    2    3    3    0    0  0.72035609858E+01 -0.56494491036E+02  0.84284237925E+01  0.13433679767E+03  0.12137470112E+03 0.  0.
          5    1    4    4  502    0 -0.40271874514E+02  0.74093891186E+02  0.56367137858E+01  0.84649814709E+02  0.47000000000E+01 0.  1.
         -5    1    4    4    0  502  0.33068313528E+02 -0.17599400151E+02  0.53022396180E+02  0.65090066384E+02  0.47000000000E+01 0.  1.
          5    1    5    5  503    0 -0.34390531580E+02 -0.54894363455E+02  0.44767670178E+02  0.78881772893E+02  0.47000000000E+01 0. -1.
         -5    1    5    5    0  503  0.41594092566E+02 -0.16001275808E+01 -0.36339246386E+02  0.55455024773E+02  0.47000000000E+01 0. -1.
<mgrwt>
<rscale>  0 0.27604134E+03</rscale>
<asrwt>0</asrwt>
<pdfrwt beam="1">  1        1 0.16691473E-01 0.27604134E+03</pdfrwt>
<pdfrwt beam="2">  1       -1 0.27012632E-01 0.27604134E+03</pdfrwt>
<totfact> 0.39322134E+03</totfact>
</mgrwt>
</event>
<event>
 9    1  0.7816570E-001  0.2729220E+03  0.7818608E-02  0.1099619E+00
         -2   -1    0    0    0  501 -0.00000000000E+00  0.00000000000E+00  0.73259191962E+02  0.73259191962E+02  0.00000000000E+00 0.  1.
          2   -1    0    0  501    0  0.00000000000E+00 -0.00000000000E+00 -0.25418790394E+03  0.25418790394E+03  0.00000000000E+00 0.  1.
         35    2    1    2    0    0  0.00000000000E+00  0.00000000000E+00 -0.18092871198E+03  0.32744709591E+03  0.27292197016E+03 0.  0.
         25    2    3    3    0    0  0.23496868577E+02  0.32773210700E+02 -0.66767155732E+02  0.15436034167E+03  0.13320313744E+03 0.  0.
         25    2    3    3    0    0 -0.23496868577E+02 -0.32773210700E+02 -0.11416155625E+03  0.17308675423E+03  0.12369307739E+03 0.  0.
          5    1    4    4  502    0  0.55044164228E+01  0.84063712454E+02 -0.36087499067E+02  0.91768207679E+02  0.47000000000E+01 0. -1.
         -5    1    4    4    0  502  0.17992452154E+02 -0.51290501753E+02 -0.30679656665E+02  0.62592133992E+02  0.47000000000E+01 0. -1.
          5    1    5    5  503    0 -0.44719538764E+02  0.22769236414E+02 -0.99697306467E+02  0.11171355420E+03  0.47000000000E+01 0.  1.
         -5    1    5    5    0  503  0.21222670187E+02 -0.55542447114E+02 -0.14464249782E+02  0.61373200039E+02  0.47000000000E+01 0.  1.
<mgrwt>
<rscale>  0 0.27292197E+03</rscale>
<asrwt>0</asrwt>
<pdfrwt beam="1">  1        2 0.39105831E-01 0.27292197E+03</pdfrwt>
<pdfrwt beam="2">  1       -2 0.11270645E-01 0.27292197E+03</pdfrwt>
<totfact> 0.71107369E+03</totfact>
</mgrwt>
</event>
<event>
 9    1  0.7816570E-001  0.2711535E+03  0.7818608E-02  0.1100621E+00
          2   -1    0    0  501    0  0.00000000000E+00  0.00000000000E+00  0.48106947955E+02  0.48106947955E+02  0.00000000000E+00 0. -1.
         -2   -1    0    0    0  501 -0.00000000000E+00 -0.00000000000E+00 -0.38208721859E+03  0.38208721859E+03  0.00000000000E+00 0. -1.
         35    2    1    2    0    0 -0.71054273576E-14  0.71054273576E-14 -0.33398027063E+03  0.43019416654E+03  0.27115346163E+03 0.  0.
         25    2    3    3    0    0  0.28243499646E+02 -0.38629000661E+02 -0.13202150594E+03  0.18761765976E+03  0.12442191631E+03 0.  0.
         25    2    3    3    0    0 -0.28243499646E+02  0.38629000661E+02 -0.20195876469E+03  0.24257650678E+03  0.12556322728E+03 0.  0.
          5    1    4    4  502    0  0.50267613314E+02 -0.10714329182E+01 -0.13458892893E+03  0.14375065464E+03  0.47000000000E+01 0.  1.
         -5    1    4    4    0  502 -0.22024113669E+02 -0.37557567743E+02  0.25674229912E+01  0.43867005123E+02  0.47000000000E+01 0.  1.
          5    1    5    5  503    0 -0.72175754478E+02  0.27809262206E+02 -0.75518890418E+02  0.10820299168E+03  0.47000000000E+01 0.  1.
         -5    1    5    5    0  503  0.43932254832E+02  0.10819738455E+02 -0.12643987427E+03  0.13437351510E+03  0.47000000000E+01 0.  1.
<mgrwt>
<rscale>  0 0.27115346E+03</rscale>
<asrwt>0</asrwt>
<pdfrwt beam="1">  1        2 0.74010689E-02 0.27115346E+03</pdfrwt>
<pdfrwt beam="2">  1       -2 0.58782649E-01 0.27115346E+03</pdfrwt>
<totfact> 0.25843721E+03</totfact>
</mgrwt>
</event>
<event>
 9    1  0.7816570E-001  0.2779959E+03  0.7818608E-02  0.1096789E+00
          2   -1    0    0  501    0  0.00000000000E+00  0.00000000000E+00  0.27326193966E+04  0.27326193966E+04  0.00000000000E+00 0.  1.
         -2   -1    0    0    0  501 -0.00000000000E+00 -0.00000000000E+00 -0.70702951859E+01  0.70702951859E+01  0.00000000000E+00 0.  1.
         35    2    1    2    0    0  0.00000000000E+00  0.35527136788E-14  0.27255491014E+04  0.27396896918E+04  0.27799586878E+03 0.  0.
         25    2    3    3    0    0  0.22961077893E+02  0.31979402137E+02  0.88446844807E+03  0.89397029335E+03  0.12388929132E+03 0.  0.
         25    2    3    3    0    0 -0.22961077893E+02 -0.31979402137E+02  0.18410806533E+04  0.18457193984E+04  0.12470858985E+03 0.  0.
          5    1    4    4  502    0 -0.45194669580E+02  0.37320560551E+02  0.31998954298E+03  0.32534716844E+03  0.47000000000E+01 0.  1.
         -5    1    4    4    0  502  0.68155747473E+02 -0.53411584137E+01  0.56447890509E+03  0.56862312491E+03  0.47000000000E+01 0.  1.
          5    1    5    5  503    0  0.13771929101E+02  0.29835045223E+02  0.12233258391E+04  0.12237761211E+04  0.47000000000E+01 0. -1.
         -5    1    5    5    0  503 -0.36733006993E+02 -0.61814447360E+02  0.61775481420E+03  0.62194327729E+03  0.47000000000E+01 0. -1.
<mgrwt>
<rscale>  0 0.27799587E+03</rscale>
<asrwt>0</asrwt>
<pdfrwt beam="1">  1        2 0.42040214E+00 0.27799587E+03</pdfrwt>
<pdfrwt beam="2">  1       -2 0.10877399E-02 0.27799587E+03</pdfrwt>
<totfact> 0.56139682E+03</totfact>
</mgrwt>
</event>
<event>
 9    1  0.7816570E-001  0.2643371E+03  0.7818608E-02  0.1104565E+00
         -3   -1    0    0    0  501 -0.00000000000E+00  0.00000000000E+00  0.17806282121E+03  0.17806282121E+03  0.00000000000E+00 0.  1.
          3   -1    0    0  501    0  0.00000000000E+00 -0.00000000000E+00 -0.98103167979E+02  0.98103167979E+02  0.00000000000E+00 0.  1.
         35    2    1    2    0    0 -0.14210854715E-13  0.71054273576E-14  0.79959653231E+02  0.27616598919E+03  0.26433710947E+03 0.  0.
         25    2    3    3    0    0  0.37685713053E+02 -0.14447991963E+02  0.59399929403E+02  0.14378148473E+03  0.12456245942E+03 0.  0.
         25    2    3    3    0    0 -0.37685713053E+02  0.14447991963E+02  0.20559723829E+02  0.13238450446E+03  0.12439452294E+03 0.  0.
          5    1    4    4  502    0  0.37848198032E+02  0.25827795765E+02 -0.23341634212E+02  0.51637999729E+02  0.47000000000E+01 0.  1.
         -5    1    4    4    0  502 -0.16248497952E+00 -0.40275787728E+02  0.82741563615E+02  0.92143485000E+02  0.47000000000E+01 0.  1.
          5    1    5    5  503    0 -0.77637855696E+02  0.27488253548E+02 -0.55570843741E+01  0.82681387912E+02  0.47000000000E+01 0.  1.
         -5    1    5    5    0  503  0.39952142644E+02 -0.13040261585E+02  0.26116808203E+02  0.49703116549E+02  0.47000000000E+01 0.  1.
<mgrwt>
<rscale>  0 0.26433711E+03</rscale>
<asrwt>0</asrwt>
<pdfrwt beam="1">  1        3 0.15092795E-01 0.26433711E+03</pdfrwt>
<pdfrwt beam="2">  1       -3 0.27394280E-01 0.26433711E+03</pdfrwt>
<totfact> 0.11818686E+03</totfact>
</mgrwt>
</event>
<event>
 9    1  0.7816570E-001  0.2752810E+03  0.7818608E-02  0.1098295E+00
         -1   -1    0    0    0  501 -0.00000000000E+00  0.00000000000E+00  0.16966375886E+03  0.16966375886E+03  0.00000000000E+00 0.  1.
          1   -1    0    0  501    0  0.00000000000E+00 -0.00000000000E+00 -0.11166149413E+03  0.11166149413E+03  0.00000000000E+00 0.  1.
         35    2    1    2    0    0  0.00000000000E+00  0.71054273576E-14  0.58002264739E+02  0.28132525299E+03  0.27528101143E+03 0.  0.
         25    2    3    3    0    0 -0.25126678158E+02 -0.36011307711E+02 -0.15276603220E+02  0.13285965365E+03  0.12445942601E+03 0.  0.
         25    2    3    3    0    0  0.25126678158E+02  0.36011307711E+02  0.73278867959E+02  0.14846559934E+03  0.12142519286E+03 0.  0.
          5    1    4    4  502    0 -0.53927983683E+02 -0.30990990915E+02  0.37184625592E+02  0.72618560454E+02  0.47000000000E+01 0. -1.
         -5    1    4    4    0  502  0.28801305525E+02 -0.50203167961E+01 -0.52461228811E+02  0.60241093192E+02  0.47000000000E+01 0. -1.
          5    1    5    5  503    0 -0.10921200931E+02 -0.34507914264E+02 -0.52039506508E+01  0.36867870551E+02  0.47000000000E+01 0.  1.
         -5    1    5    5    0  503  0.36047879089E+02  0.70519221975E+02  0.78482818609E+02  0.11159772879E+03  0.47000000000E+01 0.  1.
<mgrwt>
<rscale>  0 0.27528101E+03</rscale>
<asrwt>0</asrwt>
<pdfrwt beam="1">  1        1 0.17178691E-01 0.27528101E+03</pdfrwt>
<pdfrwt beam="2">  1       -1 0.26102117E-01 0.27528101E+03</pdfrwt>
<totfact> 0.40111622E+03</totfact>
</mgrwt>
</event>
<event>
 9    1  0.7816570E-001  0.2770419E+03  0.7818608E-02  0.1097316E+00
          1   -1    0    0  501    0  0.00000000000E+00  0.00000000000E+00  0.37973975047E+03  0.37973975047E+03  0.00000000000E+00 0.  1.
         -1   -1    0    0    0  501 -0.00000000000E+00 -0.00000000000E+00 -0.50529482839E+02  0.50529482839E+02  0.00000000000E+00 0.  1.
         35    2    1    2    0    0  0.35527136788E-14 -0.71054273576E-14  0.32921026763E+03  0.43026923331E+03  0.27704189722E+03 0.  0.
         25    2    3    3    0    0 -0.15608654138E+02  0.56276370159E+02  0.14632452754E+03  0.20127372558E+03  0.12525807490E+03 0.  0.
         25    2    3    3    0    0  0.15608654138E+02 -0.56276370159E+02  0.18288574009E+03  0.22899550772E+03  0.12482423126E+03 0.  0.
          5    1    4    4  502    0 -0.39205732225E+02  0.10648935592E+02  0.14393858354E+03  0.14963587505E+03  0.47000000000E+01 0.  1.
         -5    1    4    4    0  502  0.23597078087E+02  0.45627434567E+02  0.23859440024E+01  0.51637850538E+02  0.47000000000E+01 0.  1.
          5    1    5    5  503    0 -0.16416135758E+02  0.12762566262E+02 -0.85226050618E+01  0.22958602044E+02  0.47000000000E+01 0. -1.
         -5    1    5    5    0  503  0.32024789896E+02 -0.69038936420E+02  0.19140834515E+03  0.20603690568E+03  0.47000000000E+01 0. -1.
<mgrwt>
<rscale>  0 0.27704190E+03</rscale>
<asrwt>0</asrwt>
<pdfrwt beam="1">  1        1 0.58421498E-01 0.27704190E+03</pdfrwt>
<pdfrwt beam="2">  1       -1 0.77737668E-02 0.27704190E+03</pdfrwt>
<totfact> 0.57985374E+03</totfact>
</mgrwt>
</event>
<event>
 9    1  0.7816570E-001  0.2835480E+03  0.7818608E-02  0.1093767E+00
         -3   -1    0    0    0  501 -0.00000000000E+00  0.00000000000E+00  0.16679953876E+03  0.16679953876E+03  0.00000000000E+00 0. -1.
          3   -1    0    0  501    0  0.00000000000E+00 -0.00000000000E+00 -0.12050316163E+03  0.12050316163E+03  0.00000000000E+00 0. -1.
         35    2    1    2    0    0  0.53290705182E-14  0.00000000000E+00  0.46296377137E+02  0.28730270039E+03  0.28354803317E+03 0.  0.
         25    2    3    3    0    0  0.11998886577E+02 -0.50828354724E+02 -0.19096720199E+02  0.13666631973E+03  0.12484191325E+03 0.  0.
         25    2    3    3    0    0 -0.11998886577E+02  0.50828354724E+02  0.65393097335E+02  0.15063638066E+03  0.12525001827E+03 0.  0.
          5    1    4    4  502    0 -0.95265832988E+01 -0.54827270020E+02  0.43111083818E+02  0.70550980682E+02  0.47000000000E+01 0. -1.
         -5    1    4    4    0  502  0.21525469876E+02  0.39989152957E+01 -0.62207804017E+02  0.66115339049E+02  0.47000000000E+01 0. -1.
          5    1    5    5  503    0  0.42900182479E+02  0.26507653729E+02 -0.12506610813E+02  0.52168828595E+02  0.47000000000E+01 0. -1.
         -5    1    5    5    0  503 -0.54899069056E+02  0.24320700995E+02  0.77899708149E+02  0.98467552066E+02  0.47000000000E+01 0. -1.
<mgrwt>
<rscale>  0 0.28354803E+03</rscale>
<asrwt>0</asrwt>
<pdfrwt beam="1">  1        3 0.18538948E-01 0.28354803E+03</pdfrwt>
<pdfrwt beam="2">  1       -3 0.25661468E-01 0.28354803E+03</pdfrwt>
<totfact> 0.93776131E+02</totfact>
</mgrwt>
</event>
<event>
 9    1  0.7816570E-001  0.2765167E+03  0.7818608E-02  0.1097607E+00
          1   -1    0    0  501    0  0.00000000000E+00  0.00000000000E+00  0.31060735936E+03  0.31060735936E+03  0.00000000000E+00 0. -1.
         -1   -1    0    0    0  501 -0.00000000000E+00 -0.00000000000E+00 -0.61541897928E+02  0.61541897928E+02  0.00000000000E+00 0. -1.
         35    2    1    2    0    0 -0.35527136788E-14  0.71054273576E-14  0.24906546143E+03  0.37214925728E+03  0.27651666427E+03 0.  0.
         25    2    3    3    0    0 -0.16636186207E+02 -0.52691359562E+02  0.10769854580E+03  0.17582334633E+03  0.12752148950E+03 0.  0.
         25    2    3    3    0    0  0.16636186207E+02  0.52691359562E+02  0.14136691563E+03  0.19632591095E+03  0.12452355766E+03 0.  0.
          5    1    4    4  502    0 -0.26144883278E+01  0.42332938991E+02  0.29545872498E+02  0.51903389624E+02  0.47000000000E+01 0. -1.
         -5    1    4    4    0  502 -0.14021697879E+02 -0.95024298553E+02  0.78152673299E+02  0.12391995671E+03  0.47000000000E+01 0. -1.
          5    1    5    5  503    0 -0.20265871623E+02 -0.22338588124E+02  0.96719184498E+02  0.10142193413E+03  0.47000000000E+01 0.  1.
         -5    1    5    5    0  503  0.36902057830E+02  0.75029947686E+02  0.44647731131E+02  0.94903976824E+02  0.47000000000E+01 0.  1.
<mgrwt>
<rscale>  0 0.27651666E+03</rscale>
<asrwt>0</asrwt>
<pdfrwt beam="1">  1        1 0.47785747E-01 0.27651666E+03</pdfrwt>
<pdfrwt beam="2">  1       -1 0.94679845E-02 0.27651666E+03</pdfrwt>
<totfact> 0.55285331E+03</totfact>
</mgrwt>
</event>
<event>
 9    1  0.7816570E-001  0.2691938E+03  0.7818608E-02  0.1101742E+00
          2   -1    0    0  501    0  0.00000000000E+00  0.00000000000E+00  0.36726588002E+03  0.36726588002E+03  0.00000000000E+00 0. -1.
         -2   -1    0    0    0  501 -0.00000000000E+00 -0.00000000000E+00 -0.49327532631E+02  0.49327532631E+02  0.00000000000E+00 0. -1.
         35    2    1    2    0    0  0.00000000000E+00  0.35527136788E-14  0.31793834739E+03  0.41659341266E+03  0.26919375685E+03 0.  0.
         25    2    3    3    0    0 -0.53719359097E+02 -0.51979417132E+01  0.16274504821E+03  0.21217412382E+03  0.12497647764E+03 0.  0.
         25    2    3    3    0    0  0.53719359097E+02  0.51979417132E+01  0.15519329919E+03  0.20441928884E+03  0.12161207751E+03 0.  0.
          5    1    4    4  502    0  0.35985077539E+02 -0.21926770847E+02  0.70957064608E+02  0.82660172411E+02  0.47000000000E+01 0. -1.
         -5    1    4    4    0  502 -0.89704436635E+02  0.16728829134E+02  0.91787983599E+02  0.12951395141E+03  0.47000000000E+01 0. -1.
          5    1    5    5  503    0  0.70629712379E+02  0.44438535696E+02  0.70100671308E+02  0.10908498450E+03  0.47000000000E+01 0. -1.
         -5    1    5    5    0  503 -0.16910353282E+02 -0.39240593982E+02  0.85092627878E+02  0.95334304337E+02  0.47000000000E+01 0. -1.
<mgrwt>
<rscale>  0 0.26919376E+03</rscale>
<asrwt>0</asrwt>
<pdfrwt beam="1">  1        2 0.56502441E-01 0.26919376E+03</pdfrwt>
<pdfrwt beam="2">  1       -2 0.75888514E-02 0.26919376E+03</pdfrwt>
<totfact> 0.89311633E+03</totfact>
</mgrwt>
</event>
<event>
 9    1  0.7816570E-001  0.2739891E+03  0.7818608E-02  0.1099018E+00
          2   -1    0    0  501    0  0.00000000000E+00  0.00000000000E+00  0.57983184974E+03  0.57983184974E+03  0.00000000000E+00 0.  1.
         -2   -1    0    0    0  501 -0.00000000000E+00 -0.00000000000E+00 -0.32367148665E+02  0.32367148665E+02  0.00000000000E+00 0.  1.
         35    2    1    2    0    0  0.14210854715E-13  0.71054273576E-14  0.54746470107E+03  0.61219899840E+03  0.27398907775E+03 0.  0.
         25    2    3    3    0    0 -0.41223475856E+02  0.10586629599E+02  0.31234143703E+03  0.34241027382E+03  0.13370179747E+03 0.  0.
         25    2    3    3    0    0  0.41223475856E+02 -0.10586629599E+02  0.23512326404E+03  0.26978872458E+03  0.12526593682E+03 0.  0.
          5    1    4    4  502    0 -0.24734616180E+02  0.54336815794E+02  0.27756329536E+03  0.28395028389E+03  0.47000000000E+01 0.  1.
         -5    1    4    4    0  502 -0.16488859676E+02 -0.43750186195E+02  0.34778141663E+02  0.58459989934E+02  0.47000000000E+01 0.  1.
          5    1    5    5  503    0 -0.58021421470E+01  0.23443279762E+02 -0.28729820609E+01  0.24770874943E+02  0.47000000000E+01 0.  1.
         -5    1    5    5    0  503  0.47025618003E+02 -0.34029909361E+02  0.23799624611E+03  0.24501784964E+03  0.47000000000E+01 0.  1.
<mgrwt>
<rscale>  0 0.27398908E+03</rscale>
<asrwt>0</asrwt>
<pdfrwt beam="1">  1        2 0.89204892E-01 0.27398908E+03</pdfrwt>
<pdfrwt beam="2">  1       -2 0.49795618E-02 0.27398908E+03</pdfrwt>
<totfact> 0.10294074E+04</totfact>
</mgrwt>
</event>
<event>
 9    1  0.7816570E-001  0.2752446E+03  0.7818608E-02  0.1098315E+00
         -2   -1    0    0    0  501 -0.00000000000E+00  0.00000000000E+00  0.45017084182E+02  0.45017084182E+02  0.00000000000E+00 0. -1.
          2   -1    0    0  501    0  0.00000000000E+00 -0.00000000000E+00 -0.42072677449E+03  0.42072677449E+03  0.00000000000E+00 0. -1.
         35    2    1    2    0    0  0.71054273576E-14  0.00000000000E+00 -0.37570969031E+03  0.46574385867E+03  0.27524456489E+03 0.  0.
         25    2    3    3    0    0 -0.16258522307E+02 -0.47657900845E+02 -0.23573693801E+03  0.27139324490E+03  0.12468670489E+03 0.  0.
         25    2    3    3    0    0  0.16258522307E+02  0.47657900845E+02 -0.13997275230E+03  0.19435061377E+03  0.12507667499E+03 0.  0.
          5    1    4    4  502    0 -0.57080309547E+02 -0.39710259028E+02 -0.21225260611E+03  0.22340171264E+03  0.47000000000E+01 0. -1.
         -5    1    4    4    0  502  0.40821787241E+02 -0.79476418167E+01 -0.23484331898E+02  0.47991532260E+02  0.47000000000E+01 0. -1.
          5    1    5    5  503    0 -0.45213034898E+02  0.46860547970E+02 -0.10450348844E+03  0.12322012245E+03  0.47000000000E+01 0.  1.
         -5    1    5    5    0  503  0.61471557205E+02  0.79735287522E+00 -0.35469263860E+02  0.71130491321E+02  0.47000000000E+01 0.  1.
<mgrwt>
<rscale>  0 0.27524456E+03</rscale>
<asrwt>0</asrwt>
<pdfrwt beam="1">  1        2 0.64727194E-01 0.27524456E+03</pdfrwt>
<pdfrwt beam="2">  1       -2 0.69257055E-02 0.27524456E+03</pdfrwt>
<totfact> 0.88888239E+03</totfact>
</mgrwt>
</event>
<event>
 9    1  0.7816570E-001  0.2875465E+03  0.7818608E-02  0.1091637E+00
         -1   -1    0    0    0  501 -0.00000000000E+00  0.00000000000E+00  0.12304342307E+02  0.12304342307E+02  0.00000000000E+00 0.  1.
          1   -1    0    0  501    0  0.00000000000E+00 -0.00000000000E+00 -0.16799556806E+04  0.16799556806E+04  0.00000000000E+00 0.  1.
         35    2    1    2    0    0 -0.14210854715E-13  0.71054273576E-14 -0.16676513383E+04  0.16922600229E+04  0.28754651627E+03 0.  0.
         25    2    3    3    0    0  0.64342541988E+02 -0.22024072468E+02 -0.91160417376E+03  0.92289340145E+03  0.12682680454E+03 0.  0.
         25    2    3    3    0    0 -0.64342541988E+02  0.22024072468E+02 -0.75604716452E+03  0.76936662144E+03  0.12527035057E+03 0.  0.
          5    1    4    4  502    0  0.64089820529E+02 -0.70324981841E+02 -0.58615424442E+03  0.59384509463E+03  0.47000000000E+01 0. -1.
         -5    1    4    4    0  502  0.25272145916E+00  0.48300909374E+02 -0.32544992934E+03  0.32904830682E+03  0.47000000000E+01 0. -1.
          5    1    5    5  503    0 -0.54310207638E+02 -0.45735165986E+02 -0.45935270454E+03  0.46483147616E+03  0.47000000000E+01 0. -1.
         -5    1    5    5    0  503 -0.10032334351E+02  0.67759238454E+02 -0.29669445998E+03  0.30453514528E+03  0.47000000000E+01 0. -1.
<mgrwt>
<rscale>  0 0.28754652E+03</rscale>
<asrwt>0</asrwt>
<pdfrwt beam="1">  1        1 0.25845448E+00 0.28754652E+03</pdfrwt>
<pdfrwt beam="2">  1       -1 0.18929775E-02 0.28754652E+03</pdfrwt>
<totfact> 0.40499696E+03</totfact>
</mgrwt>
</event>
<event>
 9    1  0.7816570E-001  0.2752939E+03  0.7818608E-02  0.1098287E+00
         -2   -1    0    0    0  501 -0.00000000000E+00  0.00000000000E+00  0.35067822160E+02  0.35067822160E+02  0.00000000000E+00 0.  1.
          2   -1    0    0  501    0  0.00000000000E+00 -0.00000000000E+00 -0.54028671106E+03  0.54028671106E+03  0.00000000000E+00 0.  1.
         35    2    1    2    0    0  0.00000000000E+00  0.14210854715E-13 -0.50521888890E+03  0.57535453322E+03  0.27529386698E+03 0.  0.
         25    2    3    3    0    0  0.27996741674E+02  0.49559633534E+02 -0.24668922246E+03  0.28245945330E+03  0.12525092998E+03 0.  0.
         25    2    3    3    0    0 -0.27996741674E+02 -0.49559633534E+02 -0.25852966644E+03  0.29289507992E+03  0.12533939760E+03 0.  0.
          5    1    4    4  502    0  0.63370333870E+02  0.60557685394E+01 -0.60477117342E+02  0.87932037787E+02  0.47000000000E+01 0. -1.
         -5    1    4    4    0  502 -0.35373592196E+02  0.43503864995E+02 -0.18621210512E+03  0.19452741551E+03  0.47000000000E+01 0. -1.
          5    1    5    5  503    0 -0.12341612623E+02 -0.84138648161E+02 -0.10777975572E+03  0.13736882201E+03  0.47000000000E+01 0. -1.
         -5    1    5    5    0  503 -0.15655129050E+02  0.34579014627E+02 -0.15074991071E+03  0.15552625791E+03  0.47000000000E+01 0. -1.
<mgrwt>
<rscale>  0 0.27529387E+03</rscale>
<asrwt>0</asrwt>
<pdfrwt beam="1">  1        2 0.83121031E-01 0.27529387E+03</pdfrwt>
<pdfrwt beam="2">  1       -2 0.53950497E-02 0.27529387E+03</pdfrwt>
<totfact> 0.98797203E+03</totfact>
</mgrwt>
</event>
<event>
 9    1  0.7816570E-001  0.2770423E+03  0.7818608E-02  0.1097315E+00
          2   -1    0    0  501    0  0.00000000000E+00  0.00000000000E+00  0.10956451349E+03  0.10956451349E+03  0.00000000000E+00 0.  1.
         -2   -1    0    0    0  501 -0.00000000000E+00 -0.00000000000E+00 -0.17513068800E+03  0.17513068800E+03  0.00000000000E+00 0.  1.
         35    2    1    2    0    0  0.71054273576E-14  0.71054273576E-14 -0.65566174511E+02  0.28469520149E+03  0.27704229733E+03 0.  0.
         25    2    3    3    0    0 -0.36663563075E+02 -0.39135573985E+02 -0.62998042581E+02  0.14940828500E+03  0.12441170463E+03 0.  0.
         25    2    3    3    0    0  0.36663563075E+02  0.39135573985E+02 -0.25681319303E+01  0.13528691649E+03  0.12417787429E+03 0.  0.
          5    1    4    4  502    0 -0.32494168726E+02 -0.74940553186E+02 -0.63025216446E+01  0.82059547233E+02  0.47000000000E+01 0.  1.
         -5    1    4    4    0  502 -0.41693943489E+01  0.35804979200E+02 -0.56695520936E+02  0.67348737768E+02  0.47000000000E+01 0.  1.
          5    1    5    5  503    0  0.58401685530E+02  0.65291483463E+02 -0.28523878154E+02  0.92246605956E+02  0.47000000000E+01 0. -1.
         -5    1    5    5    0  503 -0.21738122455E+02 -0.26155909477E+02  0.25955746223E+02  0.43040310529E+02  0.47000000000E+01 0. -1.
<mgrwt>
<rscale>  0 0.27704230E+03</rscale>
<asrwt>0</asrwt>
<pdfrwt beam="1">  1        2 0.16856079E-01 0.27704230E+03</pdfrwt>
<pdfrwt beam="2">  1       -2 0.26943183E-01 0.27704230E+03</pdfrwt>
<totfact> 0.41934236E+03</totfact>
</mgrwt>
</event>
<event>
 9    1  0.7816570E-001  0.2731711E+03  0.7818608E-02  0.1099478E+00
          2   -1    0    0  501    0  0.00000000000E+00  0.00000000000E+00  0.12059206156E+04  0.12059206156E+04  0.00000000000E+00 0.  1.
         -2   -1    0    0    0  501 -0.00000000000E+00 -0.00000000000E+00 -0.15470014100E+02  0.15470014100E+02  0.00000000000E+00 0.  1.
         35    2    1    2    0    0 -0.35527136788E-14 -0.71054273576E-14  0.11904506015E+04  0.12213906297E+04  0.27317107407E+03 0.  0.
         25    2    3    3    0    0  0.21792831210E+02 -0.42212074234E+02  0.72692371208E+03  0.73911419121E+03  0.12495966456E+03 0.  0.
         25    2    3    3    0    0 -0.21792831210E+02  0.42212074234E+02  0.46352688947E+03  0.48227643853E+03  0.12440498061E+03 0.  0.
          5    1    4    4  502    0  0.73112506430E+02 -0.28089674557E+02  0.37144545135E+03  0.37964230763E+03  0.47000000000E+01 0. -1.
         -5    1    4    4    0  502 -0.51319675220E+02 -0.14122399676E+02  0.35547826072E+03  0.35947188358E+03  0.47000000000E+01 0. -1.
          5    1    5    5  503    0 -0.20848421921E+02  0.28990468853E+02  0.46651117059E+03  0.46789941897E+03  0.47000000000E+01 0. -1.
         -5    1    5    5    0  503 -0.94440928993E+00  0.13221605380E+02 -0.29842811260E+01  0.14377019565E+02  0.47000000000E+01 0. -1.
<mgrwt>
<rscale>  0 0.27317107E+03</rscale>
<asrwt>0</asrwt>
<pdfrwt beam="1">  1        2 0.18552617E+00 0.27317107E+03</pdfrwt>
<pdfrwt beam="2">  1       -2 0.23800031E-02 0.27317107E+03</pdfrwt>
<totfact> 0.11833851E+04</totfact>
</mgrwt>
</event>
<event>
 9    1  0.7816570E-001  0.2770773E+03  0.7818608E-02  0.1097296E+00
         -1   -1    0    0    0  501 -0.00000000000E+00  0.00000000000E+00  0.49380995761E+03  0.49380995761E+03  0.00000000000E+00 0.  1.
          1   -1    0    0  501    0  0.00000000000E+00 -0.00000000000E+00 -0.38867090228E+02  0.38867090228E+02  0.00000000000E+00 0.  1.
         35    2    1    2    0    0  0.00000000000E+00 -0.35527136788E-14  0.45494286738E+03  0.53267704784E+03  0.27707729014E+03 0.  0.
         25    2    3    3    0    0 -0.54930629013E+02 -0.19854485711E+02  0.21032549403E+03  0.25148353895E+03  0.12488227384E+03 0.  0.
         25    2    3    3    0    0  0.54930629013E+02  0.19854485711E+02  0.24461737335E+03  0.28119350888E+03  0.12577978966E+03 0.  0.
          5    1    4    4  502    0 -0.25955169221E+02 -0.72596028134E+02  0.12577418520E+03  0.14759772956E+03  0.47000000000E+01 0.  1.
         -5    1    4    4    0  502 -0.28975459792E+02  0.52741542422E+02  0.84551308831E+02  0.10388580939E+03  0.47000000000E+01 0.  1.
          5    1    5    5  503    0  0.19756164977E+02  0.41998639660E+02  0.23321892248E+03  0.23783891101E+03  0.47000000000E+01 0. -1.
         -5    1    5    5    0  503  0.35174464036E+02 -0.22144153948E+02  0.11398450866E+02  0.43354597870E+02  0.47000000000E+01 0. -1.
<mgrwt>
<rscale>  0 0.27707729E+03</rscale>
<asrwt>0</asrwt>
<pdfrwt beam="1">  1        1 0.59795527E-02 0.27707729E+03</pdfrwt>
<pdfrwt beam="2">  1       -1 0.75970758E-01 0.27707729E+03</pdfrwt>
<totfact> 0.23527481E+03</totfact>
</mgrwt>
</event>
<event>
 9    1  0.7816570E-001  0.2757781E+03  0.7818608E-02  0.1098017E+00
         -2   -1    0    0    0  501 -0.00000000000E+00  0.00000000000E+00  0.21191041305E+02  0.21191041305E+02  0.00000000000E+00 0.  1.
          2   -1    0    0  501    0  0.00000000000E+00 -0.00000000000E+00 -0.89723727980E+03  0.89723727980E+03  0.00000000000E+00 0.  1.
         35    2    1    2    0    0  0.00000000000E+00  0.00000000000E+00 -0.87604623850E+03  0.91842832111E+03  0.27577811557E+03 0.  0.
         25    2    3    3    0    0 -0.39714800236E+02 -0.27231575478E+02 -0.38223249556E+03  0.40507965198E+03  0.12517595507E+03 0.  0.
         25    2    3    3    0    0  0.39714800236E+02  0.27231575478E+02 -0.49381374293E+03  0.51334866912E+03  0.13174224576E+03 0.  0.
          5    1    4    4  502    0 -0.68203344949E+02 -0.47759606417E+02 -0.33939482242E+03  0.34949050309E+03  0.47000000000E+01 0.  1.
         -5    1    4    4    0  502  0.28488544712E+02  0.20528030939E+02 -0.42837673145E+02  0.55589148892E+02  0.47000000000E+01 0.  1.
          5    1    5    5  503    0 -0.11834256418E+02  0.70959372513E+02 -0.27419517506E+03  0.28351431393E+03  0.47000000000E+01 0.  1.
         -5    1    5    5    0  503  0.51549056655E+02 -0.43727797035E+02 -0.21961856787E+03  0.22983435520E+03  0.47000000000E+01 0.  1.
<mgrwt>
<rscale>  0 0.27577812E+03</rscale>
<asrwt>0</asrwt>
<pdfrwt beam="1">  1        2 0.13803647E+00 0.27577812E+03</pdfrwt>
<pdfrwt beam="2">  1       -2 0.32601609E-02 0.27577812E+03</pdfrwt>
<totfact> 0.11376219E+04</totfact>
</mgrwt>
</event>
<event>
 9    1  0.7816570E-001  0.2736111E+03  0.7818608E-02  0.1099231E+00
          2   -1    0    0  501    0  0.00000000000E+00  0.00000000000E+00  0.88372134235E+03  0.88372134235E+03  0.00000000000E+00 0. -1.
         -2   -1    0    0    0  501 -0.00000000000E+00 -0.00000000000E+00 -0.21178343688E+02  0.21178343688E+02  0.00000000000E+00 0. -1.
         35    2    1    2    0    0  0.00000000000E+00  0.00000000000E+00  0.86254299866E+03  0.90489968604E+03  0.27361106931E+03 0.  0.
         25    2    3    3    0    0  0.22663818820E+02 -0.49479687945E+01  0.25623430053E+03  0.28568044582E+03  0.12417394767E+03 0.  0.
         25    2    3    3    0    0 -0.22663818820E+02  0.49479687945E+01  0.60630869813E+03  0.61921924021E+03  0.12362887583E+03 0.  0.
          5    1    4    4  502    0  0.28245792621E+02 -0.41196977203E+02  0.24018915612E+03  0.24537305567E+03  0.47000000000E+01 0. -1.
         -5    1    4    4    0  502 -0.55819738013E+01  0.36249008409E+02  0.16045144411E+02  0.40307390158E+02  0.47000000000E+01 0. -1.
          5    1    5    5  503    0 -0.29484490986E+02 -0.55390192457E+02  0.25354193977E+03  0.26123363843E+03  0.47000000000E+01 0. -1.
         -5    1    5    5    0  503  0.68206721659E+01  0.60338161252E+02  0.35276675837E+03  0.35798560178E+03  0.47000000000E+01 0. -1.
<mgrwt>
<rscale>  0 0.27361107E+03</rscale>
<asrwt>0</asrwt>
<pdfrwt beam="1">  1        2 0.13595710E+00 0.27361107E+03</pdfrwt>
<pdfrwt beam="2">  1       -2 0.32582074E-02 0.27361107E+03</pdfrwt>
<totfact> 0.11615897E+04</totfact>
</mgrwt>
</event>
<event>
 9    1  0.7816570E-001  0.2748297E+03  0.7818608E-02  0.1098547E+00
          1   -1    0    0  501    0  0.00000000000E+00  0.00000000000E+00  0.40155438401E+03  0.40155438401E+03  0.00000000000E+00 0. -1.
         -1   -1    0    0    0  501 -0.00000000000E+00 -0.00000000000E+00 -0.47024370765E+02  0.47024370765E+02  0.00000000000E+00 0. -1.
         35    2    1    2    0    0  0.00000000000E+00  0.00000000000E+00  0.35453001324E+03  0.44857875477E+03  0.27482970899E+03 0.  0.
         25    2    3    3    0    0  0.39087791105E+02 -0.36236506765E+02  0.15716222834E+03  0.20764854586E+03  0.12480790338E+03 0.  0.
         25    2    3    3    0    0 -0.39087791105E+02  0.36236506765E+02  0.19736778490E+03  0.24093020891E+03  0.12748483523E+03 0.  0.
          5    1    4    4  502    0  0.77746798879E+02  0.61223597255E+01  0.87900382895E+02  0.11760363658E+03  0.47000000000E+01 0.  1.
         -5    1    4    4    0  502 -0.38659007774E+02 -0.42358866491E+02  0.69261845448E+02  0.90044909280E+02  0.47000000000E+01 0.  1.
          5    1    5    5  503    0  0.13955662558E+02  0.37119981035E+02  0.37372436656E+01  0.40108733459E+02  0.47000000000E+01 0.  1.
         -5    1    5    5    0  503 -0.53043453663E+02 -0.88347426935E+00  0.19363054123E+03  0.20082147545E+03  0.47000000000E+01 0.  1.
<mgrwt>
<rscale>  0 0.27482971E+03</rscale>
<asrwt>0</asrwt>
<pdfrwt beam="1">  1        1 0.61777595E-01 0.27482971E+03</pdfrwt>
<pdfrwt beam="2">  1       -1 0.72345188E-02 0.27482971E+03</pdfrwt>
<totfact> 0.60216679E+03</totfact>
</mgrwt>
</event>
<event>
 9    1  0.7816570E-001  0.2748590E+03  0.7818608E-02  0.1098530E+00
         -1   -1    0    0    0  501 -0.00000000000E+00  0.00000000000E+00  0.18460494805E+02  0.18460494805E+02  0.00000000000E+00 0. -1.
          1   -1    0    0  501    0  0.00000000000E+00 -0.00000000000E+00 -0.10230964742E+04  0.10230964742E+04  0.00000000000E+00 0. -1.
         35    2    1    2    0    0  0.71054273576E-14  0.00000000000E+00 -0.10046359794E+04  0.10415569690E+04  0.27485899765E+03 0.  0.
         25    2    3    3    0    0  0.55543598454E+02 -0.12614657256E+02 -0.46874975107E+03  0.48839557268E+03  0.12473846790E+03 0.  0.
         25    2    3    3    0    0 -0.55543598454E+02  0.12614657256E+02 -0.53588622833E+03  0.55316139634E+03  0.12477683990E+03 0.  0.
          5    1    4    4  502    0  0.16415630238E+02 -0.48361874812E+02 -0.38998983473E+03  0.39334781688E+03  0.47000000000E+01 0.  1.
         -5    1    4    4    0  502  0.39127968217E+02  0.35747217556E+02 -0.78759916340E+02  0.95047755795E+02  0.47000000000E+01 0.  1.
          5    1    5    5  503    0 -0.53114659293E+02  0.54825961475E+02 -0.45866299965E+03  0.46499558098E+03  0.47000000000E+01 0. -1.
         -5    1    5    5    0  503 -0.24289391615E+01 -0.42211304219E+02 -0.77223228678E+02  0.88165815353E+02  0.47000000000E+01 0. -1.
<mgrwt>
<rscale>  0 0.27485900E+03</rscale>
<asrwt>0</asrwt>
<pdfrwt beam="1">  1        1 0.15739947E+00 0.27485900E+03</pdfrwt>
<pdfrwt beam="2">  1       -1 0.28400759E-02 0.27485900E+03</pdfrwt>
<totfact> 0.62819193E+03</totfact>
</mgrwt>
</event>
<event>
 9    1  0.7816570E-001  0.2694378E+03  0.7818608E-02  0.1101602E+00
          1   -1    0    0  501    0  0.00000000000E+00  0.00000000000E+00  0.17825968481E+03  0.17825968481E+03  0.00000000000E+00 0.  1.
         -1   -1    0    0    0  501 -0.00000000000E+00 -0.00000000000E+00 -0.10181312837E+03  0.10181312837E+03  0.00000000000E+00 0.  1.
         35    2    1    2    0    0  0.71054273576E-14  0.10658141036E-13  0.76446556449E+02  0.28007281318E+03  0.26943775661E+03 0.  0.
         25    2    3    3    0    0  0.31684726517E+02 -0.28899048953E+02  0.64712892014E+02  0.14738509832E+03  0.12528180989E+03 0.  0.
         25    2    3    3    0    0 -0.31684726517E+02  0.28899048953E+02  0.11733664435E+02  0.13268771486E+03  0.12501709431E+03 0.  0.
          5    1    4    4  502    0 -0.21485438105E+02 -0.18219178513E+02 -0.27921331893E+02  0.39940622065E+02  0.47000000000E+01 0. -1.
         -5    1    4    4    0  502  0.53170164622E+02 -0.10679870440E+02  0.92634223907E+02  0.10744447625E+03  0.47000000000E+01 0. -1.
          5    1    5    5  503    0 -0.32413023122E+02  0.76012522478E+02  0.18619358350E+02  0.84836773552E+02  0.47000000000E+01 0. -1.
         -5    1    5    5    0  503  0.72829660569E+00 -0.47113473524E+02 -0.68856939149E+01  0.47850941309E+02  0.47000000000E+01 0. -1.
<mgrwt>
<rscale>  0 0.26943776E+03</rscale>
<asrwt>0</asrwt>
<pdfrwt beam="1">  1        1 0.27424567E-01 0.26943776E+03</pdfrwt>
<pdfrwt beam="2">  1       -1 0.15663558E-01 0.26943776E+03</pdfrwt>
<totfact> 0.50530409E+03</totfact>
</mgrwt>
</event>
<event>
 9    1  0.7816570E-001  0.2650111E+03  0.7818608E-02  0.1104169E+00
          2   -1    0    0  501    0  0.00000000000E+00  0.00000000000E+00  0.13311993400E+04  0.13311993400E+04  0.00000000000E+00 0. -1.
         -2   -1    0    0    0  501 -0.00000000000E+00 -0.00000000000E+00 -0.13189402486E+02  0.13189402486E+02  0.00000000000E+00 0. -1.
         35    2    1    2    0    0  0.00000000000E+00 -0.71054273576E-14  0.13180099375E+04  0.13443887425E+04  0.26501112342E+03 0.  0.
         25    2    3    3    0    0  0.12512703315E+01  0.34789649952E+02  0.80050377268E+03  0.81085005164E+03  0.12433676348E+03 0.  0.
         25    2    3    3    0    0 -0.12512703315E+01 -0.34789649952E+02  0.51750616482E+03  0.53353869083E+03  0.12505606169E+03 0.  0.
          5    1    4    4  502    0 -0.16760755150E+02  0.41385611512E+02  0.95054591914E+02  0.10512448429E+03  0.47000000000E+01 0. -1.
         -5    1    4    4    0  502  0.18012025481E+02 -0.65959615601E+01  0.70544918077E+03  0.70572556735E+03  0.47000000000E+01 0. -1.
          5    1    5    5  503    0  0.15050645048E+02 -0.77086613286E+02  0.24727184285E+03  0.25948857803E+03  0.47000000000E+01 0. -1.
         -5    1    5    5    0  503 -0.16301915379E+02  0.42296963334E+02  0.27023432198E+03  0.27405011280E+03  0.47000000000E+01 0. -1.
<mgrwt>
<rscale>  0 0.26501112E+03</rscale>
<asrwt>0</asrwt>
<pdfrwt beam="1">  1        2 0.20479979E+00 0.26501112E+03</pdfrwt>
<pdfrwt beam="2">  1       -2 0.20291399E-02 0.26501112E+03</pdfrwt>
<totfact> 0.12734721E+04</totfact>
</mgrwt>
</event>
<event>
 9    1  0.7816570E-001  0.2745263E+03  0.7818608E-02  0.1098717E+00
          1   -1    0    0  501    0  0.00000000000E+00  0.00000000000E+00  0.27610846309E+03  0.27610846309E+03  0.00000000000E+00 0. -1.
         -1   -1    0    0    0  501 -0.00000000000E+00 -0.00000000000E+00 -0.68238277711E+02  0.68238277711E+02  0.00000000000E+00 0. -1.
         35    2    1    2    0    0  0.35527136788E-14 -0.71054273576E-14  0.20787018538E+03  0.34434674080E+03  0.27452625363E+03 0.  0.
         25    2    3    3    0    0 -0.31458806475E+02  0.41610946345E+02  0.12084890966E+03  0.18144130525E+03  0.12488138741E+03 0.  0.
         25    2    3    3    0    0  0.31458806475E+02 -0.41610946345E+02  0.87021275715E+02  0.16290543555E+03  0.12745332928E+03 0.  0.
          5    1    4    4  502    0 -0.25600456050E+02  0.79789453025E+02  0.11457950712E+03  0.14202919987E+03  0.47000000000E+01 0. -1.
         -5    1    4    4    0  502 -0.58583504254E+01 -0.38178506680E+02  0.62694025466E+01  0.39412105378E+02  0.47000000000E+01 0. -1.
          5    1    5    5  503    0 -0.36288541381E+02 -0.51265010663E+02  0.65843529725E+02  0.91117616082E+02  0.47000000000E+01 0. -1.
         -5    1    5    5    0  503  0.67747347856E+02  0.96540643172E+01  0.21177745990E+02  0.71787819472E+02  0.47000000000E+01 0. -1.
<mgrwt>
<rscale>  0 0.27452625E+03</rscale>
<asrwt>0</asrwt>
<pdfrwt beam="1">  1        1 0.42478225E-01 0.27452625E+03</pdfrwt>
<pdfrwt beam="2">  1       -1 0.10498197E-01 0.27452625E+03</pdfrwt>
<totfact> 0.54633636E+03</totfact>
</mgrwt>
</event>
<event>
 9    1  0.7816570E-001  0.2791562E+03  0.7818608E-02  0.1096151E+00
          1   -1    0    0  501    0  0.00000000000E+00  0.00000000000E+00  0.41880956298E+03  0.41880956298E+03  0.00000000000E+00 0.  1.
         -1   -1    0    0    0  501 -0.00000000000E+00 -0.00000000000E+00 -0.46517658851E+02  0.46517658851E+02  0.00000000000E+00 0.  1.
         35    2    1    2    0    0 -0.71054273576E-14  0.71054273576E-14  0.37229190413E+03  0.46532722184E+03  0.27915615970E+03 0.  0.
         25    2    3    3    0    0  0.35177553773E+02 -0.31914934942E+02  0.25057995852E+03  0.28447470600E+03  0.12601396503E+03 0.  0.
         25    2    3    3    0    0 -0.35177553773E+02  0.31914934942E+02  0.12171194561E+03  0.18085251583E+03  0.12505123517E+03 0.  0.
          5    1    4    4  502    0  0.75576479671E+02  0.95376566253E+01  0.15122452078E+03  0.16939219834E+03  0.47000000000E+01 0.  1.
         -5    1    4    4    0  502 -0.40398925898E+02 -0.41452591567E+02  0.99355437735E+02  0.11508250766E+03  0.47000000000E+01 0.  1.
          5    1    5    5  503    0  0.30841215254E+02 -0.55761460576E+01  0.95137886513E+02  0.10027752197E+03  0.47000000000E+01 0.  1.
         -5    1    5    5    0  503 -0.66018769027E+02  0.37491080999E+02  0.26574059101E+02  0.80574993859E+02  0.47000000000E+01 0.  1.
<mgrwt>
<rscale>  0 0.27915616E+03</rscale>
<asrwt>0</asrwt>
<pdfrwt beam="1">  1        1 0.64432238E-01 0.27915616E+03</pdfrwt>
<pdfrwt beam="2">  1       -1 0.71565632E-02 0.27915616E+03</pdfrwt>
<totfact> 0.58018360E+03</totfact>
</mgrwt>
</event>
<event>
 9    1  0.7816570E-001  0.2812215E+03  0.7818608E-02  0.1095024E+00
          1   -1    0    0  501    0  0.00000000000E+00  0.00000000000E+00  0.33387359161E+03  0.33387359161E+03  0.00000000000E+00 0.  1.
         -1   -1    0    0    0  501 -0.00000000000E+00 -0.00000000000E+00 -0.59218161688E+02  0.59218161688E+02  0.00000000000E+00 0.  1.
         35    2    1    2    0    0  0.71054273576E-14 -0.35527136788E-14  0.27465542993E+03  0.39309175330E+03  0.28122148091E+03 0.  0.
         25    2    3    3    0    0  0.53025920327E+02 -0.10394557373E+02  0.17024943168E+03  0.21771822096E+03  0.12448517863E+03 0.  0.
         25    2    3    3    0    0 -0.53025920327E+02  0.10394557373E+02  0.10440599824E+03  0.17537353234E+03  0.13013634515E+03 0.  0.
          5    1    4    4  502    0 -0.74070190408E+01 -0.55772618661E+02  0.97772686649E+02  0.11290277755E+03  0.47000000000E+01 0.  1.
         -5    1    4    4    0  502  0.60432939368E+02  0.45378061288E+02  0.72476745034E+02  0.10481544341E+03  0.47000000000E+01 0.  1.
          5    1    5    5  503    0 -0.29470396413E+02 -0.24357089666E+02  0.12324035904E+03  0.12912028570E+03  0.47000000000E+01 0.  1.
         -5    1    5    5    0  503 -0.23555523914E+02  0.34751647038E+02 -0.18834360798E+02  0.46253246647E+02  0.47000000000E+01 0.  1.
<mgrwt>
<rscale>  0 0.28122148E+03</rscale>
<asrwt>0</asrwt>
<pdfrwt beam="1">  1        1 0.51365167E-01 0.28122148E+03</pdfrwt>
<pdfrwt beam="2">  1       -1 0.91104866E-02 0.28122148E+03</pdfrwt>
<totfact> 0.53577967E+03</totfact>
</mgrwt>
</event>
<event>
 9    1  0.7816570E-001  0.2758290E+03  0.7818608E-02  0.1097989E+00
          2   -1    0    0  501    0  0.00000000000E+00  0.00000000000E+00  0.10527086402E+04  0.10527086402E+04  0.00000000000E+00 0.  1.
         -2   -1    0    0    0  501 -0.00000000000E+00 -0.00000000000E+00 -0.18068071029E+02  0.18068071029E+02  0.00000000000E+00 0.  1.
         35    2    1    2    0    0  0.35527136788E-14 -0.14210854715E-13  0.10346405692E+04  0.10707767112E+04  0.27582903752E+03 0.  0.
         25    2    3    3    0    0 -0.17039226405E+02  0.46072747004E+02  0.41077944141E+03  0.43267864720E+03  0.12672027858E+03 0.  0.
         25    2    3    3    0    0  0.17039226405E+02 -0.46072747004E+02  0.62386112776E+03  0.63809806403E+03  0.12471326849E+03 0.  0.
          5    1    4    4  502    0 -0.35426791181E+02 -0.29420074883E+02  0.24752204832E+03  0.25181313060E+03  0.47000000000E+01 0. -1.
         -5    1    4    4    0  502  0.18387564776E+02  0.75492821886E+02  0.16325739309E+03  0.18086551660E+03  0.47000000000E+01 0. -1.
          5    1    5    5  503    0  0.20869430319E+02 -0.77926247072E+02  0.24783857380E+03  0.26068003715E+03  0.47000000000E+01 0. -1.
         -5    1    5    5    0  503 -0.38302039147E+01  0.31853500069E+02  0.37602255396E+03  0.37741802688E+03  0.47000000000E+01 0. -1.
<mgrwt>
<rscale>  0 0.27582904E+03</rscale>
<asrwt>0</asrwt>
<pdfrwt beam="1">  1        2 0.16195513E+00 0.27582904E+03</pdfrwt>
<pdfrwt beam="2">  1       -2 0.27797041E-02 0.27582904E+03</pdfrwt>
<totfact> 0.11548363E+04</totfact>
</mgrwt>
</event>
<event>
 9    1  0.7816570E-001  0.2749996E+03  0.7818608E-02  0.1098452E+00
         -4   -1    0    0    0  501 -0.00000000000E+00  0.00000000000E+00  0.13514820923E+03  0.13514820923E+03  0.00000000000E+00 0.  1.
          4   -1    0    0  501    0  0.00000000000E+00 -0.00000000000E+00 -0.13989232536E+03  0.13989232536E+03  0.00000000000E+00 0.  1.
         35    2    1    2    0    0  0.00000000000E+00  0.00000000000E+00 -0.47441161303E+01  0.27504053459E+03  0.27499961642E+03 0.  0.
         25    2    3    3    0    0 -0.53102469943E+02  0.16107666061E+02 -0.20743887376E+02  0.13749158226E+03  0.12407375673E+03 0.  0.
         25    2    3    3    0    0  0.53102469943E+02 -0.16107666061E+02  0.15999771246E+02  0.13754895233E+03  0.12483746388E+03 0.  0.
          5    1    4    4  502    0 -0.72315456577E+02 -0.12758641151E+02  0.26928197927E+02  0.78355127641E+02  0.47000000000E+01 0.  1.
         -5    1    4    4    0  502  0.19212986635E+02  0.28866307211E+02 -0.47672085303E+02  0.59136454617E+02  0.47000000000E+01 0.  1.
          5    1    5    5  503    0  0.60875394192E+02 -0.57782522505E+02 -0.14243150019E+02  0.85261895637E+02  0.47000000000E+01 0. -1.
         -5    1    5    5    0  503 -0.77729242497E+01  0.41674856444E+02  0.30242921264E+02  0.52287056693E+02  0.47000000000E+01 0. -1.
<mgrwt>
<rscale>  0 0.27499962E+03</rscale>
<asrwt>0</asrwt>
<pdfrwt beam="1">  1        4 0.21521896E-01 0.27499962E+03</pdfrwt>
<pdfrwt beam="2">  1       -4 0.20792032E-01 0.27499962E+03</pdfrwt>
<totfact> 0.77858847E+02</totfact>
</mgrwt>
</event>
<event>
 9    1  0.7816570E-001  0.2778627E+03  0.7818608E-02  0.1096862E+00
          3   -1    0    0  501    0  0.00000000000E+00  0.00000000000E+00  0.83662839709E+02  0.83662839709E+02  0.00000000000E+00 0.  1.
         -3   -1    0    0    0  501 -0.00000000000E+00 -0.00000000000E+00 -0.23071076508E+03  0.23071076508E+03  0.00000000000E+00 0.  1.
         35    2    1    2    0    0 -0.35527136788E-14  0.14210854715E-13 -0.14704792537E+03  0.31437360479E+03  0.27786268377E+03 0.  0.
         25    2    3    3    0    0 -0.19173226942E+02  0.39367600459E+02 -0.24995670901E+02  0.13464382765E+03  0.12484693094E+03 0.  0.
         25    2    3    3    0    0  0.19173226942E+02 -0.39367600459E+02 -0.12205225447E+03  0.17972977713E+03  0.12445328188E+03 0.  0.
          5    1    4    4  502    0 -0.20550966736E+02 -0.43918689390E+02 -0.60605028189E+01  0.49091885337E+02  0.47000000000E+01 0. -1.
         -5    1    4    4    0  502  0.13777397934E+01  0.83286289849E+02 -0.18935168082E+02  0.85551942316E+02  0.47000000000E+01 0. -1.
          5    1    5    5  503    0  0.55667809015E+02 -0.63178888554E+02 -0.58935566313E+02  0.10288813292E+03  0.47000000000E+01 0.  1.
         -5    1    5    5    0  503 -0.36494582072E+02  0.23811288095E+02 -0.63116688155E+02  0.76841644211E+02  0.47000000000E+01 0.  1.
<mgrwt>
<rscale>  0 0.27786268E+03</rscale>
<asrwt>0</asrwt>
<pdfrwt beam="1">  1        3 0.12871206E-01 0.27786268E+03</pdfrwt>
<pdfrwt beam="2">  1       -3 0.35493963E-01 0.27786268E+03</pdfrwt>
<totfact> 0.96003211E+02</totfact>
</mgrwt>
</event>
<event>
 9    1  0.7816570E-001  0.2807608E+03  0.7818608E-02  0.1095274E+00
          1   -1    0    0  501    0  0.00000000000E+00  0.00000000000E+00  0.13532721611E+03  0.13532721611E+03  0.00000000000E+00 0.  1.
         -1   -1    0    0    0  501 -0.00000000000E+00 -0.00000000000E+00 -0.14562226106E+03  0.14562226106E+03  0.00000000000E+00 0.  1.
         35    2    1    2    0    0  0.00000000000E+00  0.71054273576E-14 -0.10295044956E+02  0.28094947717E+03  0.28076078924E+03 0.  0.
         25    2    3    3    0    0  0.18713318916E+02  0.50473364850E+02  0.35636346277E+02  0.13900199723E+03  0.12310100404E+03 0.  0.
         25    2    3    3    0    0 -0.18713318916E+02 -0.50473364850E+02 -0.45931391233E+02  0.14194747994E+03  0.12305139372E+03 0.  0.
          5    1    4    4  502    0 -0.49775355280E+02  0.41529618793E+02  0.14189186319E+02  0.66526071872E+02  0.47000000000E+01 0. -1.
         -5    1    4    4    0  502  0.68488674196E+02  0.89437460570E+01  0.21447159958E+02  0.72475925361E+02  0.47000000000E+01 0. -1.
          5    1    5    5  503    0  0.13023370882E+02  0.13156273816E+02 -0.65353973078E+02  0.68087645920E+02  0.47000000000E+01 0. -1.
         -5    1    5    5    0  503 -0.31736689798E+02 -0.63629638666E+02  0.19422581845E+02  0.73859834021E+02  0.47000000000E+01 0. -1.
<mgrwt>
<rscale>  0 0.28076079E+03</rscale>
<asrwt>0</asrwt>
<pdfrwt beam="1">  1        1 0.20819572E-01 0.28076079E+03</pdfrwt>
<pdfrwt beam="2">  1       -1 0.22403425E-01 0.28076079E+03</pdfrwt>
<totfact> 0.40322396E+03</totfact>
</mgrwt>
</event>
<event>
 9    1  0.7816570E-001  0.2679881E+03  0.7818608E-02  0.1102437E+00
          2   -1    0    0  501    0  0.00000000000E+00  0.00000000000E+00  0.76510146063E+03  0.76510146063E+03  0.00000000000E+00 0. -1.
         -2   -1    0    0    0  501 -0.00000000000E+00 -0.00000000000E+00 -0.23466699069E+02  0.23466699069E+02  0.00000000000E+00 0. -1.
         35    2    1    2    0    0  0.00000000000E+00 -0.17763568394E-14  0.74163476156E+03  0.78856815969E+03  0.26798810223E+03 0.  0.
         25    2    3    3    0    0 -0.45478743766E+02 -0.14685105155E+02  0.39515960450E+03  0.41723780606E+03  0.12510917364E+03 0.  0.
         25    2    3    3    0    0  0.45478743766E+02  0.14685105155E+02  0.34647515706E+03  0.37133035363E+03  0.12472861991E+03 0.  0.
          5    1    4    4  502    0 -0.30634197747E+02  0.54406490432E+02  0.20325680113E+03  0.21268271552E+03  0.47000000000E+01 0.  1.
         -5    1    4    4    0  502 -0.14844546019E+02 -0.69091595587E+02  0.19190280337E+03  0.20455509054E+03  0.47000000000E+01 0.  1.
          5    1    5    5  503    0  0.57566846854E+02  0.26954330936E+02  0.71536020743E+02  0.95812160380E+02  0.47000000000E+01 0. -1.
         -5    1    5    5    0  503 -0.12088103088E+02 -0.12269225781E+02  0.27493913631E+03  0.27551819325E+03  0.47000000000E+01 0. -1.
<mgrwt>
<rscale>  0 0.26798810E+03</rscale>
<asrwt>0</asrwt>
<pdfrwt beam="1">  1        2 0.11770790E+00 0.26798810E+03</pdfrwt>
<pdfrwt beam="2">  1       -2 0.36102620E-02 0.26798810E+03</pdfrwt>
<totfact> 0.11986523E+04</totfact>
</mgrwt>
</event>
<event>
 9    1  0.7816570E-001  0.2764167E+03  0.7818608E-02  0.1097662E+00
          1   -1    0    0  501    0  0.00000000000E+00  0.00000000000E+00  0.30396155176E+02  0.30396155176E+02  0.00000000000E+00 0.  1.
         -1   -1    0    0    0  501 -0.00000000000E+00 -0.00000000000E+00 -0.62841998499E+03  0.62841998499E+03  0.00000000000E+00 0.  1.
         35    2    1    2    0    0  0.17763568394E-14  0.00000000000E+00 -0.59802382981E+03  0.65881614016E+03  0.27641672438E+03 0.  0.
         25    2    3    3    0    0 -0.61551285377E+01 -0.55487572309E+01 -0.43687576994E+03  0.45443977415E+03  0.12484548714E+03 0.  0.
         25    2    3    3    0    0  0.61551285377E+01  0.55487572309E+01 -0.16114805987E+03  0.20437636601E+03  0.12542857517E+03 0.  0.
          5    1    4    4  502    0 -0.27834157500E+02  0.54332010181E+02 -0.21924535765E+03  0.22763419010E+03  0.47000000000E+01 0. -1.
         -5    1    4    4    0  502  0.21679028963E+02 -0.59880767412E+02 -0.21763041229E+03  0.22680558405E+03  0.47000000000E+01 0. -1.
          5    1    5    5  503    0  0.21511082141E+02  0.28931944681E+02  0.42121045218E+01  0.36600763686E+02  0.47000000000E+01 0. -1.
         -5    1    5    5    0  503 -0.15355953603E+02 -0.23383187450E+02 -0.16536016440E+03  0.16777560232E+03  0.47000000000E+01 0. -1.
<mgrwt>
<rscale>  0 0.27641672E+03</rscale>
<asrwt>0</asrwt>
<pdfrwt beam="1">  1        1 0.46763322E-02 0.27641672E+03</pdfrwt>
<pdfrwt beam="2">  1       -1 0.96679986E-01 0.27641672E+03</pdfrwt>
<totfact> 0.19835758E+03</totfact>
</mgrwt>
</event>
<event>
 9    1  0.7816570E-001  0.2745667E+03  0.7818608E-02  0.1098694E+00
         -1   -1    0    0    0  501 -0.00000000000E+00  0.00000000000E+00  0.22532321814E+03  0.22532321814E+03  0.00000000000E+00 0.  1.
          1   -1    0    0  501    0  0.00000000000E+00 -0.00000000000E+00 -0.83643024161E+02  0.83643024161E+02  0.00000000000E+00 0.  1.
         35    2    1    2    0    0  0.71054273576E-14  0.00000000000E+00  0.14168019398E+03  0.30896624230E+03  0.27456667954E+03 0.  0.
         25    2    3    3    0    0  0.46122388077E+02  0.16146623423E+02  0.10610141661E+03  0.17120231884E+03  0.12515884003E+03 0.  0.
         25    2    3    3    0    0 -0.46122388077E+02 -0.16146623423E+02  0.35578777368E+02  0.13776392346E+03  0.12379443073E+03 0.  0.
          5    1    4    4  502    0  0.65387605054E+02 -0.17870228231E+01  0.12312837274E+03  0.13950418817E+03  0.47000000000E+01 0. -1.
         -5    1    4    4    0  502 -0.19265216976E+02  0.17933646246E+02 -0.17026956124E+02  0.31698130665E+02  0.47000000000E+01 0. -1.
          5    1    5    5  503    0 -0.58521989199E+02  0.37819762335E+02  0.42515912447E+02  0.81760934768E+02  0.47000000000E+01 0.  1.
         -5    1    5    5    0  503  0.12399601122E+02 -0.53966385759E+02 -0.69371350795E+01  0.56002988696E+02  0.47000000000E+01 0.  1.
<mgrwt>
<rscale>  0 0.27456668E+03</rscale>
<asrwt>0</asrwt>
<pdfrwt beam="1">  1        1 0.12868158E-01 0.27456668E+03</pdfrwt>
<pdfrwt beam="2">  1       -1 0.34665110E-01 0.27456668E+03</pdfrwt>
<totfact> 0.36158379E+03</totfact>
</mgrwt>
</event>
<event>
 9    1  0.7816570E-001  0.2744543E+03  0.7818608E-02  0.1098757E+00
          2   -1    0    0  501    0  0.00000000000E+00  0.00000000000E+00  0.88862207896E+03  0.88862207896E+03  0.00000000000E+00 0. -1.
         -2   -1    0    0    0  501 -0.00000000000E+00 -0.00000000000E+00 -0.21191565220E+02  0.21191565220E+02  0.00000000000E+00 0. -1.
         35    2    1    2    0    0  0.71054273576E-14  0.00000000000E+00  0.86743051374E+03  0.90981364418E+03  0.27445431490E+03 0.  0.
         25    2    3    3    0    0  0.22572294712E+02 -0.48920284425E+02  0.46150046311E+03  0.48171229714E+03  0.12712732613E+03 0.  0.
         25    2    3    3    0    0 -0.22572294712E+02  0.48920284425E+02  0.40593005063E+03  0.42810134704E+03  0.12485533475E+03 0.  0.
          5    1    4    4  502    0  0.66009868197E+02 -0.41465374627E+01  0.15014780469E+03  0.16413698463E+03  0.47000000000E+01 0.  1.
         -5    1    4    4    0  502 -0.43437573485E+02 -0.44773746963E+02  0.31135265843E+03  0.31757531251E+03  0.47000000000E+01 0.  1.
          5    1    5    5  503    0 -0.14498213413E+02 -0.28694139693E+02  0.30313084696E+02  0.44435627020E+02  0.47000000000E+01 0.  1.
         -5    1    5    5    0  503 -0.80740812989E+01  0.77614424118E+02  0.37561696593E+03  0.38366572002E+03  0.47000000000E+01 0.  1.
<mgrwt>
<rscale>  0 0.27445431E+03</rscale>
<asrwt>0</asrwt>
<pdfrwt beam="1">  1        2 0.13671106E+00 0.27445431E+03</pdfrwt>
<pdfrwt beam="2">  1       -2 0.32602415E-02 0.27445431E+03</pdfrwt>
<totfact> 0.11521299E+04</totfact>
</mgrwt>
</event>
<event>
 9    1  0.7816570E-001  0.2829662E+03  0.7818608E-02  0.1094080E+00
         -2   -1    0    0    0  501 -0.00000000000E+00  0.00000000000E+00  0.99085952612E+01  0.99085952612E+01  0.00000000000E+00 0. -1.
          2   -1    0    0  501    0  0.00000000000E+00 -0.00000000000E+00 -0.20202122395E+04  0.20202122395E+04  0.00000000000E+00 0. -1.
         35    2    1    2    0    0  0.00000000000E+00 -0.71054273576E-14 -0.20103036443E+04  0.20301208348E+04  0.28296618472E+03 0.  0.
         25    2    3    3    0    0  0.20172340231E+01  0.11756859815E+02 -0.52803790934E+03  0.54254328482E+03  0.12404390034E+03 0.  0.
         25    2    3    3    0    0 -0.20172340231E+01 -0.11756859815E+02 -0.14822657349E+04  0.14875775500E+04  0.12503185700E+03 0.  0.
          5    1    4    4  502    0  0.64037789067E+00  0.45320666373E+02 -0.48776745267E+03  0.48989136630E+03  0.47000000000E+01 0. -1.
         -5    1    4    4    0  502  0.13768561324E+01 -0.33563806558E+02 -0.40270456666E+02  0.52651918518E+02  0.47000000000E+01 0. -1.
          5    1    5    5  503    0 -0.45588323916E+02 -0.48615182475E+02 -0.91199880132E+03  0.91444280020E+03  0.47000000000E+01 0.  1.
         -5    1    5    5    0  503  0.43571089893E+02  0.36858322661E+02 -0.57026693361E+03  0.57313474977E+03  0.47000000000E+01 0.  1.
<mgrwt>
<rscale>  0 0.28296618E+03</rscale>
<asrwt>0</asrwt>
<pdfrwt beam="1">  1        2 0.31080191E+00 0.28296618E+03</pdfrwt>
<pdfrwt beam="2">  1       -2 0.15243991E-02 0.28296618E+03</pdfrwt>
<totfact> 0.83555730E+03</totfact>
</mgrwt>
</event>
<event>
 9    1  0.7816570E-001  0.2780900E+03  0.7818608E-02  0.1096737E+00
          3   -1    0    0  501    0  0.00000000000E+00  0.00000000000E+00  0.90673973034E+03  0.90673973034E+03  0.00000000000E+00 0.  1.
         -3   -1    0    0    0  501 -0.00000000000E+00 -0.00000000000E+00 -0.21322011312E+02  0.21322011312E+02  0.00000000000E+00 0.  1.
         35    2    1    2    0    0  0.71054273576E-14 -0.71054273576E-14  0.88541771902E+03  0.92806174165E+03  0.27809001986E+03 0.  0.
         25    2    3    3    0    0  0.36475382869E+02  0.38663313217E+01  0.26893213355E+03  0.29794049028E+03  0.12287652834E+03 0.  0.
         25    2    3    3    0    0 -0.36475382869E+02 -0.38663313217E+01  0.61648558548E+03  0.63012125137E+03  0.12511159921E+03 0.  0.
          5    1    4    4  502    0  0.37221477210E+01 -0.48854953158E+02  0.19586493111E+03  0.20195500011E+03  0.47000000000E+01 0. -1.
         -5    1    4    4    0  502  0.32753235148E+02  0.52721284480E+02  0.73067202440E+02  0.95985490165E+02  0.47000000000E+01 0. -1.
          5    1    5    5  503    0  0.32100221476E+02 -0.31965290177E+02  0.12461838146E+03  0.13268019819E+03  0.47000000000E+01 0. -1.
         -5    1    5    5    0  503 -0.68575604346E+02  0.28098958855E+02  0.49186720402E+03  0.49744105318E+03  0.47000000000E+01 0. -1.
<mgrwt>
<rscale>  0 0.27809002E+03</rscale>
<asrwt>0</asrwt>
<pdfrwt beam="1">  1        3 0.13949839E+00 0.27809002E+03</pdfrwt>
<pdfrwt beam="2">  1       -3 0.32803101E-02 0.27809002E+03</pdfrwt>
<totfact> 0.46291520E+02</totfact>
</mgrwt>
</event>
<event>
 9    1  0.7816570E-001  0.2673754E+03  0.7818608E-02  0.1102791E+00
          1   -1    0    0  501    0  0.00000000000E+00  0.00000000000E+00  0.31162177252E+03  0.31162177252E+03  0.00000000000E+00 0. -1.
         -1   -1    0    0    0  501 -0.00000000000E+00 -0.00000000000E+00 -0.57352884104E+02  0.57352884104E+02  0.00000000000E+00 0. -1.
         35    2    1    2    0    0  0.71054273576E-14  0.71054273576E-14  0.25426888841E+03  0.36897465662E+03  0.26737544692E+03 0.  0.
         25    2    3    3    0    0  0.13693797111E+02  0.25059607788E+02  0.98679973094E+02  0.16314550659E+03  0.12674074013E+03 0.  0.
         25    2    3    3    0    0 -0.13693797111E+02 -0.25059607788E+02  0.15558891532E+03  0.20582915003E+03  0.13168987968E+03 0.  0.
          5    1    4    4  502    0 -0.53222679370E+02 -0.92564632714E+01  0.35491957309E+02  0.64808215106E+02  0.47000000000E+01 0. -1.
         -5    1    4    4    0  502  0.66916476480E+02  0.34316071059E+02  0.63188015785E+02  0.98337291484E+02  0.47000000000E+01 0. -1.
          5    1    5    5  503    0  0.24027720248E+02  0.44494695880E+02  0.35590056342E+02  0.62014928946E+02  0.47000000000E+01 0. -1.
         -5    1    5    5    0  503 -0.37721517358E+02 -0.69554303668E+02  0.11999885898E+03  0.14381422109E+03  0.47000000000E+01 0. -1.
<mgrwt>
<rscale>  0 0.26737545E+03</rscale>
<asrwt>0</asrwt>
<pdfrwt beam="1">  1        1 0.47941810E-01 0.26737545E+03</pdfrwt>
<pdfrwt beam="2">  1       -1 0.88235208E-02 0.26737545E+03</pdfrwt>
<totfact> 0.61293046E+03</totfact>
</mgrwt>
</event>
<event>
 9    1  0.7816570E-001  0.2880812E+03  0.7818608E-02  0.1091355E+00
         -1   -1    0    0    0  501 -0.00000000000E+00  0.00000000000E+00  0.78013549249E+03  0.78013549249E+03  0.00000000000E+00 0. -1.
          1   -1    0    0  501    0  0.00000000000E+00 -0.00000000000E+00 -0.26594987376E+02  0.26594987376E+02  0.00000000000E+00 0. -1.
         35    2    1    2    0    0 -0.71054273576E-14  0.35527136788E-14  0.75354050512E+03  0.80673047987E+03  0.28808119393E+03 0.  0.
         25    2    3    3    0    0 -0.42765108639E+02  0.10126945963E+02  0.23422164451E+03  0.27137668128E+03  0.12982339864E+03 0.  0.
         25    2    3    3    0    0  0.42765108639E+02 -0.10126945963E+02  0.51931886061E+03  0.53535379859E+03  0.12239363191E+03 0.  0.
          5    1    4    4  502    0 -0.14029030661E+01 -0.24628650514E+02  0.21082448892E+03  0.21231484567E+03  0.47000000000E+01 0. -1.
         -5    1    4    4    0  502 -0.41362205573E+02  0.34755596476E+02  0.23397155595E+02  0.59061835615E+02  0.47000000000E+01 0. -1.
          5    1    5    5  503    0 -0.40264968656E+02 -0.21690039340E+02  0.17356902799E+03  0.17955506950E+03  0.47000000000E+01 0.  1.
         -5    1    5    5    0  503  0.83030077295E+02  0.11563093377E+02  0.34574983262E+03  0.35579872909E+03  0.47000000000E+01 0.  1.
<mgrwt>
<rscale>  0 0.28808119E+03</rscale>
<asrwt>0</asrwt>
<pdfrwt beam="1">  1        1 0.40915371E-02 0.28808119E+03</pdfrwt>
<pdfrwt beam="2">  1       -1 0.12002083E+00 0.28808119E+03</pdfrwt>
<totfact> 0.14571766E+03</totfact>
</mgrwt>
</event>
<event>
 9    1  0.7816570E-001  0.2752673E+03  0.7818608E-02  0.1098302E+00
         -2   -1    0    0    0  501 -0.00000000000E+00  0.00000000000E+00  0.16104116039E+02  0.16104116039E+02  0.00000000000E+00 0. -1.
          2   -1    0    0  501    0  0.00000000000E+00 -0.00000000000E+00 -0.11762846609E+04  0.11762846609E+04  0.00000000000E+00 0. -1.
         35    2    1    2    0    0  0.00000000000E+00  0.14210854715E-13 -0.11601805449E+04  0.11923887769E+04  0.27526732225E+03 0.  0.
         25    2    3    3    0    0  0.74872622321E+01 -0.56660802094E+02 -0.54301264616E+03  0.56013894082E+03  0.12500557403E+03 0.  0.
         25    2    3    3    0    0 -0.74872622321E+01  0.56660802094E+02 -0.61716789871E+03  0.63224983613E+03  0.12480839115E+03 0.  0.
          5    1    4    4  502    0  0.87527750069E+01  0.13085591406E+01  0.34429481466E+01  0.10595625951E+02  0.47000000000E+01 0.  1.
         -5    1    4    4    0  502 -0.12655127749E+01 -0.57969361235E+02 -0.54645559431E+03  0.54954331486E+03  0.47000000000E+01 0.  1.
          5    1    5    5  503    0 -0.29256521506E+02 -0.11038829734E+02 -0.44212694065E+03  0.44325627064E+03  0.47000000000E+01 0.  1.
         -5    1    5    5    0  503  0.21769259274E+02  0.67699631828E+02 -0.17504095805E+03  0.18899356549E+03  0.47000000000E+01 0.  1.
<mgrwt>
<rscale>  0 0.27526732E+03</rscale>
<asrwt>0</asrwt>
<pdfrwt beam="1">  1        2 0.18096689E+00 0.27526732E+03</pdfrwt>
<pdfrwt beam="2">  1       -2 0.24775561E-02 0.27526732E+03</pdfrwt>
<totfact> 0.11595973E+04</totfact>
</mgrwt>
</event>
<event>
 9    1  0.7816570E-001  0.2763596E+03  0.7818608E-02  0.1097694E+00
          1   -1    0    0  501    0  0.00000000000E+00  0.00000000000E+00  0.12538861065E+04  0.12538861065E+04  0.00000000000E+00 0. -1.
         -1   -1    0    0    0  501 -0.00000000000E+00 -0.00000000000E+00 -0.15227579923E+02  0.15227579923E+02  0.00000000000E+00 0. -1.
         35    2    1    2    0    0  0.00000000000E+00 -0.10658141036E-13  0.12386585266E+04  0.12691136864E+04  0.27635955494E+03 0.  0.
         25    2    3    3    0    0 -0.36109095411E+02 -0.20793368474E+02  0.78846264865E+03  0.79937577082E+03  0.12486810532E+03 0.  0.
         25    2    3    3    0    0  0.36109095411E+02  0.20793368474E+02  0.45019587795E+03  0.46973791562E+03  0.12744077017E+03 0.  0.
          5    1    4    4  502    0  0.17681664438E+02 -0.53808158300E+02  0.53986842319E+03  0.54285169569E+03  0.47000000000E+01 0. -1.
         -5    1    4    4    0  502 -0.53790759849E+02  0.33014789826E+02  0.24859422545E+03  0.25652407513E+03  0.47000000000E+01 0. -1.
          5    1    5    5  503    0  0.41921359457E+02 -0.96809867431E+01  0.43054458890E+03  0.43271451896E+03  0.47000000000E+01 0.  1.
         -5    1    5    5    0  503 -0.58122640455E+01  0.30474355217E+02  0.19651289052E+02  0.37023396665E+02  0.47000000000E+01 0.  1.
<mgrwt>
<rscale>  0 0.27635955E+03</rscale>
<asrwt>0</asrwt>
<pdfrwt beam="1">  1        1 0.19290547E+00 0.27635955E+03</pdfrwt>
<pdfrwt beam="2">  1       -1 0.23427056E-02 0.27635955E+03</pdfrwt>
<totfact> 0.57071463E+03</totfact>
</mgrwt>
</event>
<event>
 9    1  0.7816570E-001  0.2761863E+03  0.7818608E-02  0.1097790E+00
          2   -1    0    0  501    0  0.00000000000E+00  0.00000000000E+00  0.12872204445E+04  0.12872204445E+04  0.00000000000E+00 0. -1.
         -2   -1    0    0    0  501 -0.00000000000E+00 -0.00000000000E+00 -0.14814645264E+02  0.14814645264E+02  0.00000000000E+00 0. -1.
         35    2    1    2    0    0  0.71054273576E-14  0.00000000000E+00  0.12724057993E+04  0.13020350898E+04  0.27618627238E+03 0.  0.
         25    2    3    3    0    0 -0.12682565212E+02 -0.92631715026E+01  0.38503880235E+03  0.40580004289E+03  0.12716973573E+03 0.  0.
         25    2    3    3    0    0  0.12682565212E+02  0.92631715026E+01  0.88736699692E+03  0.89623504691E+03  0.12478148213E+03 0.  0.
          5    1    4    4  502    0 -0.57024404064E+02 -0.19352778051E+02  0.97822801724E+02  0.11496827047E+03  0.47000000000E+01 0. -1.
         -5    1    4    4    0  502  0.44341838853E+02  0.10089606548E+02  0.28721600063E+03  0.29083177242E+03  0.47000000000E+01 0. -1.
          5    1    5    5  503    0 -0.49299580743E+02 -0.21035176640E+02  0.29726968436E+03  0.30209978907E+03  0.47000000000E+01 0.  1.
         -5    1    5    5    0  503  0.61982145954E+02  0.30298348142E+02  0.59009731255E+03  0.59413525783E+03  0.47000000000E+01 0.  1.
<mgrwt>
<rscale>  0 0.27618627E+03</rscale>
<asrwt>0</asrwt>
<pdfrwt beam="1">  1        2 0.19803383E+00 0.27618627E+03</pdfrwt>
<pdfrwt beam="2">  1       -2 0.22791772E-02 0.27618627E+03</pdfrwt>
<totfact> 0.11360609E+04</totfact>
</mgrwt>
</event>
<event>
 9    1  0.7816570E-001  0.2737985E+03  0.7818608E-02  0.1099125E+00
         -2   -1    0    0    0  501 -0.00000000000E+00  0.00000000000E+00  0.77043433197E+01  0.77043433197E+01  0.00000000000E+00 0.  1.
          2   -1    0    0  501    0  0.00000000000E+00 -0.00000000000E+00 -0.24325758869E+04  0.24325758869E+04  0.00000000000E+00 0.  1.
         35    2    1    2    0    0  0.00000000000E+00  0.00000000000E+00 -0.24248715436E+04  0.24402802303E+04  0.27379846445E+03 0.  0.
         25    2    3    3    0    0  0.40117837317E+02  0.32672235255E+02 -0.11172954505E+04  0.11255236415E+04  0.12560823207E+03 0.  0.
         25    2    3    3    0    0 -0.40117837317E+02 -0.32672235255E+02 -0.13075760931E+04  0.13147565887E+04  0.12709340127E+03 0.  0.
          5    1    4    4  502    0  0.84607062486E+02  0.31090389087E+02 -0.80282146021E+03  0.80787954194E+03  0.47000000000E+01 0. -1.
         -5    1    4    4    0  502 -0.44489225169E+02  0.15818461673E+01 -0.31447399033E+03  0.31764409956E+03  0.47000000000E+01 0. -1.
          5    1    5    5  503    0  0.26733139110E+02  0.23426153798E+02 -0.16539226996E+03  0.16923397522E+03  0.47000000000E+01 0.  1.
         -5    1    5    5    0  503 -0.66850976427E+02 -0.56098389053E+02 -0.11421838231E+04  0.11455226135E+04  0.47000000000E+01 0.  1.
<mgrwt>
<rscale>  0 0.27379846E+03</rscale>
<asrwt>0</asrwt>
<pdfrwt beam="1">  1        2 0.37424219E+00 0.27379846E+03</pdfrwt>
<pdfrwt beam="2">  1       -2 0.11852844E-02 0.27379846E+03</pdfrwt>
<totfact> 0.72668144E+03</totfact>
</mgrwt>
</event>
<event>
 9    1  0.7816570E-001  0.2743857E+03  0.7818608E-02  0.1098795E+00
          1   -1    0    0  501    0  0.00000000000E+00  0.00000000000E+00  0.57780666259E+03  0.57780666259E+03  0.00000000000E+00 0.  1.
         -1   -1    0    0    0  501 -0.00000000000E+00 -0.00000000000E+00 -0.32574692438E+02  0.32574692438E+02  0.00000000000E+00 0.  1.
         35    2    1    2    0    0  0.00000000000E+00  0.00000000000E+00  0.54523197015E+03  0.61038135503E+03  0.27438567253E+03 0.  0.
         25    2    3    3    0    0 -0.23982316130E+02 -0.46438445167E+02  0.23669763660E+03  0.27294317772E+03  0.12546125464E+03 0.  0.
         25    2    3    3    0    0  0.23982316130E+02  0.46438445167E+02  0.30853433355E+03  0.33743817730E+03  0.12625136771E+03 0.  0.
          5    1    4    4  502    0 -0.25064710595E+02 -0.11064987015E+02 -0.53229217625E+01  0.28303659674E+02  0.47000000000E+01 0.  1.
         -5    1    4    4    0  502  0.10823944644E+01 -0.35373458151E+02  0.24202055837E+03  0.24463951805E+03  0.47000000000E+01 0.  1.
          5    1    5    5  503    0  0.37375546535E+02  0.61724323081E+02  0.79543531065E+02  0.10749924127E+03  0.47000000000E+01 0.  1.
         -5    1    5    5    0  503 -0.13393230405E+02 -0.15285877915E+02  0.22899080248E+03  0.22993893604E+03  0.47000000000E+01 0.  1.
<mgrwt>
<rscale>  0 0.27438567E+03</rscale>
<asrwt>0</asrwt>
<pdfrwt beam="1">  1        1 0.88893325E-01 0.27438567E+03</pdfrwt>
<pdfrwt beam="2">  1       -1 0.50114916E-02 0.27438567E+03</pdfrwt>
<totfact> 0.64756027E+03</totfact>
</mgrwt>
</event>
<event>
 9    1  0.7816570E-001  0.2773391E+03  0.7818608E-02  0.1097151E+00
         -2   -1    0    0    0  501 -0.00000000000E+00  0.00000000000E+00  0.36544459488E+02  0.36544459488E+02  0.00000000000E+00 0. -1.
          2   -1    0    0  501    0  0.00000000000E+00 -0.00000000000E+00 -0.52618769605E+03  0.52618769605E+03  0.00000000000E+00 0. -1.
         35    2    1    2    0    0  0.71054273576E-14  0.00000000000E+00 -0.48964323656E+03  0.56273215554E+03  0.27733910609E+03 0.  0.
         25    2    3    3    0    0 -0.36999125764E+02  0.24553935157E+01 -0.15031606850E+03  0.19893056066E+03  0.12491390334E+03 0.  0.
         25    2    3    3    0    0  0.36999125764E+02 -0.24553935157E+01 -0.33932716806E+03  0.36380159488E+03  0.12583206741E+03 0.  0.
          5    1    4    4  502    0  0.20396772188E+02  0.32923689293E+02 -0.12164764805E+03  0.12775068653E+03  0.47000000000E+01 0.  1.
         -5    1    4    4    0  502 -0.57395897952E+02 -0.30468295778E+02 -0.28668420446E+02  0.71179874124E+02  0.47000000000E+01 0.  1.
          5    1    5    5  503    0  0.77812129917E+02  0.20712075885E+02 -0.25141416073E+03  0.26403577005E+03  0.47000000000E+01 0. -1.
         -5    1    5    5    0  503 -0.40813004153E+02 -0.23167469401E+02 -0.87913007328E+02  0.99765824830E+02  0.47000000000E+01 0. -1.
<mgrwt>
<rscale>  0 0.27733911E+03</rscale>
<asrwt>0</asrwt>
<pdfrwt beam="1">  1        2 0.80951955E-01 0.27733911E+03</pdfrwt>
<pdfrwt beam="2">  1       -2 0.56222244E-02 0.27733911E+03</pdfrwt>
<totfact> 0.95611895E+03</totfact>
</mgrwt>
</event>
<event>
 9    1  0.7816570E-001  0.2789949E+03  0.7818608E-02  0.1096239E+00
         -3   -1    0    0    0  501 -0.00000000000E+00  0.00000000000E+00  0.62028265948E+03  0.62028265948E+03  0.00000000000E+00 0. -1.
          3   -1    0    0  501    0  0.00000000000E+00 -0.00000000000E+00 -0.31372048379E+02  0.31372048379E+02  0.00000000000E+00 0. -1.
         35    2    1    2    0    0  0.71054273576E-14  0.14210854715E-13  0.58891061110E+03  0.65165470786E+03  0.27899489316E+03 0.  0.
         25    2    3    3    0    0  0.16357399231E+02  0.37294873361E+02  0.40478609788E+03  0.42511686398E+03  0.12334541303E+03 0.  0.
         25    2    3    3    0    0 -0.16357399231E+02 -0.37294873361E+02  0.18412451322E+03  0.22653784388E+03  0.12553519925E+03 0.  0.
          5    1    4    4  502    0 -0.48688862078E+02 -0.73697994911E+01  0.12667976759E+03  0.13599548798E+03  0.47000000000E+01 0.  1.
         -5    1    4    4    0  502  0.65046261309E+02  0.44664672852E+02  0.27810633030E+03  0.28912137600E+03  0.47000000000E+01 0.  1.
          5    1    5    5  503    0 -0.54103296184E+02  0.97831968531E+01  0.14323263317E+03  0.15349447809E+03  0.47000000000E+01 0. -1.
         -5    1    5    5    0  503  0.37745896953E+02 -0.47078070214E+02  0.40891880051E+02  0.73043365790E+02  0.47000000000E+01 0. -1.
<mgrwt>
<rscale>  0 0.27899489E+03</rscale>
<asrwt>0</asrwt>
<pdfrwt beam="1">  1        3 0.48264695E-02 0.27899489E+03</pdfrwt>
<pdfrwt beam="2">  1       -3 0.95428092E-01 0.27899489E+03</pdfrwt>
<totfact> 0.61707222E+02</totfact>
</mgrwt>
</event>
<event>
 9    1  0.7816570E-001  0.2732613E+03  0.7818608E-02  0.1099427E+00
         -1   -1    0    0    0  501 -0.00000000000E+00  0.00000000000E+00  0.16740476430E+04  0.16740476430E+04  0.00000000000E+00 0. -1.
          1   -1    0    0  501    0  0.00000000000E+00 -0.00000000000E+00 -0.11151374107E+02  0.11151374107E+02  0.00000000000E+00 0. -1.
         35    2    1    2    0    0  0.00000000000E+00  0.00000000000E+00  0.16628962689E+04  0.16851990171E+04  0.27326127819E+03 0.  0.
         25    2    3    3    0    0  0.33321509981E+02  0.20315259282E+02  0.73811941459E+03  0.74931395827E+03  0.12299636206E+03 0.  0.
         25    2    3    3    0    0 -0.33321509981E+02 -0.20315259282E+02  0.92477685432E+03  0.93588505885E+03  0.13836755511E+03 0.  0.
          5    1    4    4  502    0 -0.18423302425E+02  0.59851579106E+02  0.40737345586E+03  0.41218545842E+03  0.47000000000E+01 0.  1.
         -5    1    4    4    0  502  0.51744812406E+02 -0.39536319824E+02  0.33074595872E+03  0.33712849985E+03  0.47000000000E+01 0.  1.
          5    1    5    5  503    0  0.17725898187E+02 -0.69619714696E+02  0.42086986481E+03  0.42698319082E+03  0.47000000000E+01 0.  1.
         -5    1    5    5    0  503 -0.51047408168E+02  0.49304455414E+02  0.50390698951E+03  0.50890186803E+03  0.47000000000E+01 0.  1.
<mgrwt>
<rscale>  0 0.27326128E+03</rscale>
<asrwt>0</asrwt>
<pdfrwt beam="1">  1        1 0.17155973E-02 0.27326128E+03</pdfrwt>
<pdfrwt beam="2">  1       -1 0.25754559E+00 0.27326128E+03</pdfrwt>
<totfact> 0.53487994E+02</totfact>
</mgrwt>
</event>
<event>
 9    1  0.7816570E-001  0.2718675E+03  0.7818608E-02  0.1100216E+00
          3   -1    0    0  501    0  0.00000000000E+00  0.00000000000E+00  0.30545953583E+03  0.30545953583E+03  0.00000000000E+00 0. -1.
         -3   -1    0    0    0  501 -0.00000000000E+00 -0.00000000000E+00 -0.60492408070E+02  0.60492408070E+02  0.00000000000E+00 0. -1.
         35    2    1    2    0    0 -0.71054273576E-14  0.00000000000E+00  0.24496712776E+03  0.36595194390E+03  0.27186748897E+03 0.  0.
         25    2    3    3    0    0 -0.50494973257E+02  0.75824440406E+01  0.96620447513E+02  0.16509755364E+03  0.12375158811E+03 0.  0.
         25    2    3    3    0    0  0.50494973257E+02 -0.75824440406E+01  0.14834668024E+03  0.20085439026E+03  0.12541336757E+03 0.  0.
          5    1    4    4  502    0  0.76713815701E+00 -0.24925131935E+02  0.10092222245E+03  0.10406361366E+03  0.47000000000E+01 0.  1.
         -5    1    4    4    0  502 -0.51262111414E+02  0.32507575975E+02 -0.43017749374E+01  0.61033939984E+02  0.47000000000E+01 0.  1.
          5    1    5    5  503    0  0.63818833864E+02  0.21500918914E+02  0.15389315991E+03  0.16804858743E+03  0.47000000000E+01 0. -1.
         -5    1    5    5    0  503 -0.13323860607E+02 -0.29083362955E+02 -0.55464796693E+01  0.32805802824E+02  0.47000000000E+01 0. -1.
<mgrwt>
<rscale>  0 0.27186749E+03</rscale>
<asrwt>0</asrwt>
<pdfrwt beam="1">  1        3 0.46993774E-01 0.27186749E+03</pdfrwt>
<pdfrwt beam="2">  1       -3 0.93065245E-02 0.27186749E+03</pdfrwt>
<totfact> 0.95540553E+02</totfact>
</mgrwt>
</event>
<event>
 9    1  0.7816570E-001  0.2772620E+03  0.7818608E-02  0.1097194E+00
          2   -1    0    0  501    0  0.00000000000E+00  0.00000000000E+00  0.29445364035E+03  0.29445364035E+03  0.00000000000E+00 0. -1.
         -2   -1    0    0    0  501 -0.00000000000E+00 -0.00000000000E+00 -0.65268535967E+02  0.65268535967E+02  0.00000000000E+00 0. -1.
         35    2    1    2    0    0  0.00000000000E+00  0.00000000000E+00  0.22918510438E+03  0.35972217631E+03  0.27726202780E+03 0.  0.
         25    2    3    3    0    0 -0.25588540498E+02  0.55592378834E+02  0.12167684108E+03  0.18477438100E+03  0.12486405499E+03 0.  0.
         25    2    3    3    0    0  0.25588540498E+02 -0.55592378834E+02  0.10750826330E+03  0.17494779531E+03  0.12370698613E+03 0.  0.
          5    1    4    4  502    0 -0.60454013216E+02  0.67449311716E+02  0.11595120550E+03  0.14721028980E+03  0.47000000000E+01 0. -1.
         -5    1    4    4    0  502  0.34865472718E+02 -0.11856932882E+02  0.57256355798E+01  0.37564091204E+02  0.47000000000E+01 0. -1.
          5    1    5    5  503    0  0.32564775259E+02 -0.92913954819E+02  0.66723123391E+02  0.11902744550E+03  0.47000000000E+01 0.  1.
         -5    1    5    5    0  503 -0.69762347603E+01  0.37321575986E+02  0.40785139906E+02  0.55920349808E+02  0.47000000000E+01 0.  1.
<mgrwt>
<rscale>  0 0.27726203E+03</rscale>
<asrwt>0</asrwt>
<pdfrwt beam="1">  1        2 0.45300559E-01 0.27726203E+03</pdfrwt>
<pdfrwt beam="2">  1       -2 0.10041313E-01 0.27726203E+03</pdfrwt>
<totfact> 0.73040208E+03</totfact>
</mgrwt>
</event>
<event>
 9    1  0.7816570E-001  0.2732093E+03  0.7818608E-02  0.1099457E+00
          2   -1    0    0  501    0  0.00000000000E+00  0.00000000000E+00  0.19514906357E+03  0.19514906357E+03  0.00000000000E+00 0. -1.
         -2   -1    0    0    0  501 -0.00000000000E+00 -0.00000000000E+00 -0.95623483120E+02  0.95623483120E+02  0.00000000000E+00 0. -1.
         35    2    1    2    0    0  0.00000000000E+00  0.00000000000E+00  0.99525580451E+02  0.29077254669E+03  0.27320932038E+03 0.  0.
         25    2    3    3    0    0 -0.19725423274E+02 -0.42814159656E+02  0.25916995630E+02  0.13624868356E+03  0.12517934542E+03 0.  0.
         25    2    3    3    0    0  0.19725423274E+02  0.42814159656E+02  0.73608584821E+02  0.15452386313E+03  0.12742549167E+03 0.  0.
          5    1    4    4  502    0 -0.39453603879E+02  0.23224720406E+02 -0.23147055619E+02  0.51515538246E+02  0.47000000000E+01 0. -1.
         -5    1    4    4    0  502  0.19728180605E+02 -0.66038880062E+02  0.49064051249E+02  0.84733145314E+02  0.47000000000E+01 0. -1.
          5    1    5    5  503    0 -0.24928465135E+01  0.17552164254E+01  0.10035756258E+03  0.10051380719E+03  0.47000000000E+01 0. -1.
         -5    1    5    5    0  503  0.22218269788E+02  0.41058943230E+02 -0.26748977760E+02  0.54010055941E+02  0.47000000000E+01 0. -1.
<mgrwt>
<rscale>  0 0.27320932E+03</rscale>
<asrwt>0</asrwt>
<pdfrwt beam="1">  1        2 0.30022933E-01 0.27320932E+03</pdfrwt>
<pdfrwt beam="2">  1       -2 0.14711305E-01 0.27320932E+03</pdfrwt>
<totfact> 0.61464419E+03</totfact>
</mgrwt>
</event>
<event>
 9    1  0.7816570E-001  0.2741676E+03  0.7818608E-02  0.1098918E+00
         -3   -1    0    0    0  501 -0.00000000000E+00  0.00000000000E+00  0.11244284723E+03  0.11244284723E+03  0.00000000000E+00 0.  1.
          3   -1    0    0  501    0  0.00000000000E+00 -0.00000000000E+00 -0.16712467170E+03  0.16712467170E+03  0.00000000000E+00 0.  1.
         35    2    1    2    0    0  0.00000000000E+00  0.00000000000E+00 -0.54681824468E+02  0.27956751894E+03  0.27416764163E+03 0.  0.
         25    2    3    3    0    0  0.59706932949E+00  0.71584803441E+01 -0.83836343677E+02  0.15099116951E+03  0.12537224739E+03 0.  0.
         25    2    3    3    0    0 -0.59706932949E+00 -0.71584803441E+01  0.29154519210E+02  0.12857634943E+03  0.12502116345E+03 0.  0.
          5    1    4    4  502    0 -0.19900288608E+02 -0.35846569585E+02 -0.93456607618E+02  0.10216274049E+03  0.47000000000E+01 0. -1.
         -5    1    4    4    0  502  0.20497357938E+02  0.43005049929E+02  0.96202639402E+01  0.48828429015E+02  0.47000000000E+01 0. -1.
          5    1    5    5  503    0  0.11091708622E+02  0.51327047395E+02  0.41975650860E+02  0.67390927131E+02  0.47000000000E+01 0. -1.
         -5    1    5    5    0  503 -0.11688777952E+02 -0.58485527739E+02 -0.12821131651E+02  0.61185422298E+02  0.47000000000E+01 0. -1.
<mgrwt>
<rscale>  0 0.27416764E+03</rscale>
<asrwt>0</asrwt>
<pdfrwt beam="1">  1        3 0.25711488E-01 0.27416764E+03</pdfrwt>
<pdfrwt beam="2">  1       -3 0.17298900E-01 0.27416764E+03</pdfrwt>
<totfact> 0.10517195E+03</totfact>
</mgrwt>
</event>
<event>
 9    1  0.7816570E-001  0.2920146E+03  0.7818608E-02  0.1089302E+00
          1   -1    0    0  501    0  0.00000000000E+00  0.00000000000E+00  0.69771115962E+02  0.69771115962E+02  0.00000000000E+00 0.  1.
         -1   -1    0    0    0  501 -0.00000000000E+00 -0.00000000000E+00 -0.30554381327E+03  0.30554381327E+03  0.00000000000E+00 0.  1.
         35    2    1    2    0    0 -0.35527136788E-14  0.00000000000E+00 -0.23577269730E+03  0.37531492923E+03  0.29201460804E+03 0.  0.
         25    2    3    3    0    0  0.22750647280E+02 -0.33473736859E+02 -0.20225964008E+03  0.24041939809E+03  0.12350887401E+03 0.  0.
         25    2    3    3    0    0 -0.22750647280E+02  0.33473736859E+02 -0.33513057221E+02  0.13489553114E+03  0.12424007528E+03 0.  0.
          5    1    4    4  502    0 -0.34555836091E+02 -0.41876577651E+02 -0.15869939064E+03  0.16779553079E+03  0.47000000000E+01 0. -1.
         -5    1    4    4    0  502  0.57306483371E+02  0.84028407919E+01 -0.43560249442E+02  0.72623867297E+02  0.47000000000E+01 0. -1.
          5    1    5    5  503    0  0.16448410577E+02  0.70717980293E+02 -0.34697171669E+02  0.80607485193E+02  0.47000000000E+01 0. -1.
         -5    1    5    5    0  503 -0.39199057857E+02 -0.37244243434E+02  0.11841144474E+01  0.54288045948E+02  0.47000000000E+01 0. -1.
<mgrwt>
<rscale>  0 0.29201461E+03</rscale>
<asrwt>0</asrwt>
<pdfrwt beam="1">  1        1 0.10734018E-01 0.29201461E+03</pdfrwt>
<pdfrwt beam="2">  1       -1 0.47006741E-01 0.29201461E+03</pdfrwt>
<totfact> 0.26813448E+03</totfact>
</mgrwt>
</event>
<event>
 9    1  0.7816570E-001  0.2780388E+03  0.7818608E-02  0.1096765E+00
          2   -1    0    0  501    0  0.00000000000E+00  0.00000000000E+00  0.63840420261E+03  0.63840420261E+03  0.00000000000E+00 0.  1.
         -2   -1    0    0    0  501 -0.00000000000E+00 -0.00000000000E+00 -0.30272966225E+02  0.30272966225E+02  0.00000000000E+00 0.  1.
         35    2    1    2    0    0  0.00000000000E+00 -0.14210854715E-13  0.60813123639E+03  0.66867716884E+03  0.27803876610E+03 0.  0.
         25    2    3    3    0    0 -0.32004995760E+01 -0.52454883007E+02  0.23109952987E+03  0.26791992148E+03  0.12494932442E+03 0.  0.
         25    2    3    3    0    0  0.32004995760E+01  0.52454883007E+02  0.37703170652E+03  0.40075724735E+03  0.12526653839E+03 0.  0.
          5    1    4    4  502    0 -0.47120234335E+02 -0.72212213959E+02  0.13368975605E+03  0.15915389157E+03  0.47000000000E+01 0.  1.
         -5    1    4    4    0  502  0.43919734759E+02  0.19757330953E+02  0.97409773822E+02  0.10876602992E+03  0.47000000000E+01 0.  1.
          5    1    5    5  503    0 -0.94576543240E+01  0.12019933589E+02  0.34981349933E+03  0.35017924030E+03  0.47000000000E+01 0.  1.
         -5    1    5    5    0  503  0.12658153900E+02  0.40434949418E+02  0.27218207191E+02  0.50578007051E+02  0.47000000000E+01 0.  1.
<mgrwt>
<rscale>  0 0.27803877E+03</rscale>
<asrwt>0</asrwt>
<pdfrwt beam="1">  1        2 0.98216021E-01 0.27803877E+03</pdfrwt>
<pdfrwt beam="2">  1       -2 0.46573799E-02 0.27803877E+03</pdfrwt>
<totfact> 0.10189747E+04</totfact>
</mgrwt>
</event>
<event>
 9    1  0.7816570E-001  0.2768859E+03  0.7818608E-02  0.1097402E+00
          2   -1    0    0  501    0  0.00000000000E+00  0.00000000000E+00  0.22497612418E+02  0.22497612418E+02  0.00000000000E+00 0.  1.
         -2   -1    0    0    0  501 -0.00000000000E+00 -0.00000000000E+00 -0.85193253471E+03  0.85193253471E+03  0.00000000000E+00 0.  1.
         35    2    1    2    0    0 -0.14210854715E-13  0.00000000000E+00 -0.82943492229E+03  0.87443014713E+03  0.27688588243E+03 0.  0.
         25    2    3    3    0    0  0.45913362042E+02 -0.29750653328E+02 -0.49397534512E+03  0.51251249887E+03  0.12515702826E+03 0.  0.
         25    2    3    3    0    0 -0.45913362042E+02  0.29750653328E+02 -0.33545957718E+03  0.36191764826E+03  0.12433068011E+03 0.  0.
          5    1    4    4  502    0  0.48671211128E+02 -0.74082596736E+02 -0.27300247390E+03  0.28707065104E+03  0.47000000000E+01 0.  1.
         -5    1    4    4    0  502 -0.27578490867E+01  0.44331943408E+02 -0.22097287122E+03  0.22544184783E+03  0.47000000000E+01 0.  1.
          5    1    5    5  503    0 -0.58349714476E+02 -0.35165858985E+02 -0.14540411251E+03  0.16064175283E+03  0.47000000000E+01 0.  1.
         -5    1    5    5    0  503  0.12436352434E+02  0.64916512313E+02 -0.19005546467E+03  0.20127589543E+03  0.47000000000E+01 0.  1.
<mgrwt>
<rscale>  0 0.27688588E+03</rscale>
<asrwt>0</asrwt>
<pdfrwt beam="1">  1        2 0.34611708E-02 0.27688588E+03</pdfrwt>
<pdfrwt beam="2">  1       -2 0.13106656E+00 0.27688588E+03</pdfrwt>
<totfact> 0.11521409E+03</totfact>
</mgrwt>
</event>
<event>
 9    1  0.7816570E-001  0.2614781E+03  0.7818608E-02  0.1106258E+00
         -2   -1    0    0    0  501 -0.00000000000E+00  0.00000000000E+00  0.17256523677E+02  0.17256523677E+02  0.00000000000E+00 0.  1.
          2   -1    0    0  501    0  0.00000000000E+00 -0.00000000000E+00 -0.99050630252E+03  0.99050630252E+03  0.00000000000E+00 0.  1.
         35    2    1    2    0    0  0.35527136788E-14  0.71054273576E-14 -0.97324977884E+03  0.10077628262E+04  0.26147807145E+03 0.  0.
         25    2    3    3    0    0 -0.13167506126E+02  0.16946840525E+02 -0.42734322811E+03  0.44727187262E+03  0.13026632261E+03 0.  0.
         25    2    3    3    0    0  0.13167506126E+02 -0.16946840525E+02 -0.54590655073E+03  0.56049095357E+03  0.12520210975E+03 0.  0.
          5    1    4    4  502    0  0.70496053462E+01 -0.50691792503E+02 -0.10073748790E+03  0.11309061071E+03  0.47000000000E+01 0. -1.
         -5    1    4    4    0  502 -0.20217111473E+02  0.67638633028E+02 -0.32660574021E+03  0.33418126191E+03  0.47000000000E+01 0. -1.
          5    1    5    5  503    0 -0.29629418985E+02  0.38165688450E+02 -0.32969882750E+03  0.33325355077E+03  0.47000000000E+01 0. -1.
         -5    1    5    5    0  503  0.42796925111E+02 -0.55112528975E+02 -0.21620772323E+03  0.22723740280E+03  0.47000000000E+01 0. -1.
<mgrwt>
<rscale>  0 0.26147807E+03</rscale>
<asrwt>0</asrwt>
<pdfrwt beam="1">  1        2 0.15238560E+00 0.26147807E+03</pdfrwt>
<pdfrwt beam="2">  1       -2 0.26548495E-02 0.26147807E+03</pdfrwt>
<totfact> 0.13459920E+04</totfact>
</mgrwt>
</event>
<event>
 9    1  0.7816570E-001  0.2750236E+03  0.7818608E-02  0.1098438E+00
         -2   -1    0    0    0  501 -0.00000000000E+00  0.00000000000E+00  0.14609592104E+02  0.14609592104E+02  0.00000000000E+00 0.  1.
          2   -1    0    0  501    0  0.00000000000E+00 -0.00000000000E+00 -0.12943205828E+04  0.12943205828E+04  0.00000000000E+00 0.  1.
         35    2    1    2    0    0  0.00000000000E+00 -0.10658141036E-13 -0.12797109907E+04  0.13089301749E+04  0.27502360456E+03 0.  0.
         25    2    3    3    0    0  0.18694994376E+02 -0.15236536990E+02 -0.40504294110E+03  0.42479911939E+03  0.12574916630E+03 0.  0.
         25    2    3    3    0    0 -0.18694994376E+02  0.15236536990E+02 -0.87466804956E+03  0.88413105548E+03  0.12673543888E+03 0.  0.
          5    1    4    4  502    0  0.95474260713E+01  0.55419210158E+02 -0.19093432642E+03  0.19909909393E+03  0.47000000000E+01 0.  1.
         -5    1    4    4    0  502  0.91475683047E+01 -0.70655747148E+02 -0.21410861469E+03  0.22570002546E+03  0.47000000000E+01 0.  1.
          5    1    5    5  503    0  0.26964955405E+01  0.51459085452E+00  0.28993062833E+01  0.61669983681E+01  0.47000000000E+01 0.  1.
         -5    1    5    5    0  503 -0.21391489917E+02  0.14721946136E+02 -0.87756735584E+03  0.87796405711E+03  0.47000000000E+01 0.  1.
<mgrwt>
<rscale>  0 0.27502360E+03</rscale>
<asrwt>0</asrwt>
<pdfrwt beam="1">  1        2 0.19912633E+00 0.27502360E+03</pdfrwt>
<pdfrwt beam="2">  1       -2 0.22476286E-02 0.27502360E+03</pdfrwt>
<totfact> 0.11490758E+04</totfact>
</mgrwt>
</event>
<event>
 9    1  0.7816570E-001  0.2759851E+03  0.7818608E-02  0.1097902E+00
         -2   -1    0    0    0  501 -0.00000000000E+00  0.00000000000E+00  0.30025963272E+02  0.30025963272E+02  0.00000000000E+00 0.  1.
          2   -1    0    0  501    0  0.00000000000E+00 -0.00000000000E+00 -0.63418269668E+03  0.63418269668E+03  0.00000000000E+00 0.  1.
         35    2    1    2    0    0  0.00000000000E+00  0.00000000000E+00 -0.60415673341E+03  0.66420865995E+03  0.27598511814E+03 0.  0.
         25    2    3    3    0    0  0.23008879436E+02  0.29656547687E+02 -0.41447671312E+03  0.43478827248E+03  0.12586094238E+03 0.  0.
         25    2    3    3    0    0 -0.23008879436E+02 -0.29656547687E+02 -0.18968002029E+03  0.22942038747E+03  0.12347584678E+03 0.  0.
          5    1    4    4  502    0  0.61957663725E+02  0.39247362722E+02 -0.14772507092E+03  0.16499664891E+03  0.47000000000E+01 0. -1.
         -5    1    4    4    0  502 -0.38948784289E+02 -0.95908150352E+01 -0.26675164220E+03  0.26979162357E+03  0.47000000000E+01 0. -1.
          5    1    5    5  503    0 -0.36663623770E+02 -0.62169585458E+02 -0.17774241644E+03  0.19189511527E+03  0.47000000000E+01 0.  1.
         -5    1    5    5    0  503  0.13654744334E+02  0.32513037771E+02 -0.11937603851E+02  0.37525272199E+02  0.47000000000E+01 0.  1.
<mgrwt>
<rscale>  0 0.27598512E+03</rscale>
<asrwt>0</asrwt>
<pdfrwt beam="1">  1        2 0.97566560E-01 0.27598512E+03</pdfrwt>
<pdfrwt beam="2">  1       -2 0.46193794E-02 0.27598512E+03</pdfrwt>
<totfact> 0.10395207E+04</totfact>
</mgrwt>
</event>
<event>
 9    1  0.7816570E-001  0.2955999E+03  0.7818608E-02  0.1087461E+00
         -2   -1    0    0    0  501 -0.00000000000E+00  0.00000000000E+00  0.17010427360E+03  0.17010427360E+03  0.00000000000E+00 0. -1.
          2   -1    0    0  501    0  0.00000000000E+00 -0.00000000000E+00 -0.12842019457E+03  0.12842019457E+03  0.00000000000E+00 0. -1.
         35    2    1    2    0    0  0.71054273576E-14  0.28421709430E-13  0.41684079030E+02  0.29852446817E+03  0.29559989116E+03 0.  0.
         25    2    3    3    0    0 -0.15693363822E+02  0.78718255888E+02  0.17386781090E+02  0.14876354044E+03  0.12403808016E+03 0.  0.
         25    2    3    3    0    0  0.15693363822E+02 -0.78718255888E+02  0.24297297940E+02  0.14976092773E+03  0.12407711840E+03 0.  0.
          5    1    4    4  502    0  0.40202923347E+02 -0.10985268892E+02  0.43774610838E+01  0.42168748426E+02  0.47000000000E+01 0. -1.
         -5    1    4    4    0  502 -0.55896287169E+02  0.89703524780E+02  0.13009320007E+02  0.10659479201E+03  0.47000000000E+01 0. -1.
          5    1    5    5  503    0 -0.20607570986E+02  0.16543379244E+02  0.38282932396E+02  0.46754981463E+02  0.47000000000E+01 0.  1.
         -5    1    5    5    0  503  0.36300934808E+02 -0.95261635132E+02 -0.13985634456E+02  0.10300594627E+03  0.47000000000E+01 0.  1.
<mgrwt>
<rscale>  0 0.29559989E+03</rscale>
<asrwt>0</asrwt>
<pdfrwt beam="1">  1        2 0.19756953E-01 0.29559989E+03</pdfrwt>
<pdfrwt beam="2">  1       -2 0.26169888E-01 0.29559989E+03</pdfrwt>
<totfact> 0.36810731E+03</totfact>
</mgrwt>
</event>
<event>
 9    1  0.7816570E-001  0.2750255E+03  0.7818608E-02  0.1098437E+00
          1   -1    0    0  501    0  0.00000000000E+00  0.00000000000E+00  0.18035887587E+04  0.18035887587E+04  0.00000000000E+00 0.  1.
         -1   -1    0    0    0  501 -0.00000000000E+00 -0.00000000000E+00 -0.10484516629E+02  0.10484516629E+02  0.00000000000E+00 0.  1.
         35    2    1    2    0    0 -0.71054273576E-14 -0.71054273576E-14  0.17931042420E+04  0.18140732753E+04  0.27502549942E+03 0.  0.
         25    2    3    3    0    0 -0.36995431279E+02 -0.42821543854E+02  0.84479009023E+03  0.85590393815E+03  0.12529528418E+03 0.  0.
         25    2    3    3    0    0  0.36995431279E+02  0.42821543854E+02  0.94831415180E+03  0.95816933714E+03  0.12484551082E+03 0.  0.
          5    1    4    4  502    0 -0.81833807730E+02 -0.37014272930E+02  0.62727208967E+03  0.63368698343E+03  0.47000000000E+01 0. -1.
         -5    1    4    4    0  502  0.44838376452E+02 -0.58072709241E+01  0.21751800056E+03  0.22221695472E+03  0.47000000000E+01 0. -1.
          5    1    5    5  503    0  0.15403535250E+02  0.67673640485E+02  0.26285907188E+03  0.27190802155E+03  0.47000000000E+01 0. -1.
         -5    1    5    5    0  503  0.21591896029E+02 -0.24852096630E+02  0.68545507993E+03  0.68626131559E+03  0.47000000000E+01 0. -1.
<mgrwt>
<rscale>  0 0.27502550E+03</rscale>
<asrwt>0</asrwt>
<pdfrwt beam="1">  1        1 0.27747495E+00 0.27502550E+03</pdfrwt>
<pdfrwt beam="2">  1       -1 0.16130040E-02 0.27502550E+03</pdfrwt>
<totfact> 0.42492077E+03</totfact>
</mgrwt>
</event>
<event>
 9    1  0.7816570E-001  0.2730528E+03  0.7818608E-02  0.1099545E+00
          2   -1    0    0  501    0  0.00000000000E+00  0.00000000000E+00  0.55425084945E+02  0.55425084945E+02  0.00000000000E+00 0.  1.
         -2   -1    0    0    0  501 -0.00000000000E+00 -0.00000000000E+00 -0.33630009661E+03  0.33630009661E+03  0.00000000000E+00 0.  1.
         35    2    1    2    0    0  0.00000000000E+00  0.00000000000E+00 -0.28087501167E+03  0.39172518156E+03  0.27305282582E+03 0.  0.
         25    2    3    3    0    0  0.54325809973E+01  0.22990516087E+02 -0.20887321658E+03  0.24521803969E+03  0.12627663924E+03 0.  0.
         25    2    3    3    0    0 -0.54325809973E+01 -0.22990516087E+02 -0.72001795086E+02  0.14650714187E+03  0.12538742902E+03 0.  0.
          5    1    4    4  502    0 -0.53158198651E+02  0.38264188242E+02 -0.13029078081E+03  0.14590311768E+03  0.47000000000E+01 0. -1.
         -5    1    4    4    0  502  0.58590779648E+02 -0.15273672156E+02 -0.78582435772E+02  0.99314922004E+02  0.47000000000E+01 0. -1.
          5    1    5    5  503    0  0.26030365710E+02 -0.23589165981E+02 -0.98764164316E+02  0.10493082885E+03  0.47000000000E+01 0.  1.
         -5    1    5    5    0  503 -0.31462946708E+02  0.59864989430E+00  0.26762369231E+02  0.41576313017E+02  0.47000000000E+01 0.  1.
<mgrwt>
<rscale>  0 0.27305283E+03</rscale>
<asrwt>0</asrwt>
<pdfrwt beam="1">  1        2 0.85269363E-02 0.27305283E+03</pdfrwt>
<pdfrwt beam="2">  1       -2 0.51738475E-01 0.27305283E+03</pdfrwt>
<totfact> 0.27993736E+03</totfact>
</mgrwt>
</event>
<event>
 9    1  0.7816570E-001  0.2708372E+03  0.7818608E-02  0.1100801E+00
          1   -1    0    0  501    0  0.00000000000E+00  0.00000000000E+00  0.33170630124E+03  0.33170630124E+03  0.00000000000E+00 0.  1.
         -1   -1    0    0    0  501 -0.00000000000E+00 -0.00000000000E+00 -0.55284440686E+02  0.55284440686E+02  0.00000000000E+00 0.  1.
         35    2    1    2    0    0 -0.14210854715E-13 -0.17763568394E-14  0.27642186056E+03  0.38699074193E+03  0.27083720081E+03 0.  0.
         25    2    3    3    0    0  0.38286996558E+02  0.13959507867E+02  0.91753126043E+02  0.16014579906E+03  0.12476890179E+03 0.  0.
         25    2    3    3    0    0 -0.38286996558E+02 -0.13959507867E+02  0.18466873451E+03  0.22684494287E+03  0.12528098272E+03 0.  0.
          5    1    4    4  502    0  0.51081472103E+02  0.22739899317E+02  0.11721874545E+03  0.12995670086E+03  0.47000000000E+01 0. -1.
         -5    1    4    4    0  502 -0.12794475545E+02 -0.87803914496E+01 -0.25465619408E+02  0.30189098203E+02  0.47000000000E+01 0. -1.
          5    1    5    5  503    0  0.32261379699E+02  0.10305104605E+02  0.81490462700E+01  0.35149519999E+02  0.47000000000E+01 0. -1.
         -5    1    5    5    0  503 -0.70548376257E+02 -0.24264612473E+02  0.17651968824E+03  0.19169542287E+03  0.47000000000E+01 0. -1.
<mgrwt>
<rscale>  0 0.27083720E+03</rscale>
<asrwt>0</asrwt>
<pdfrwt beam="1">  1        1 0.51031737E-01 0.27083720E+03</pdfrwt>
<pdfrwt beam="2">  1       -1 0.85052988E-02 0.27083720E+03</pdfrwt>
<totfact> 0.59958986E+03</totfact>
</mgrwt>
</event>
<event>
 9    1  0.7816570E-001  0.2762308E+03  0.7818608E-02  0.1097766E+00
         -2   -1    0    0    0  501 -0.00000000000E+00  0.00000000000E+00  0.29248122654E+02  0.29248122654E+02  0.00000000000E+00 0. -1.
          2   -1    0    0  501    0  0.00000000000E+00 -0.00000000000E+00 -0.65220810825E+03  0.65220810825E+03  0.00000000000E+00 0. -1.
         35    2    1    2    0    0  0.00000000000E+00  0.00000000000E+00 -0.62295998559E+03  0.68145623090E+03  0.27623079297E+03 0.  0.
         25    2    3    3    0    0 -0.57996639184E+02 -0.17428336564E+01 -0.28119077133E+03  0.31303034978E+03  0.12471207790E+03 0.  0.
         25    2    3    3    0    0  0.57996639184E+02  0.17428336564E+01 -0.34176921426E+03  0.36842588112E+03  0.12475891326E+03 0.  0.
          5    1    4    4  502    0 -0.80511640231E+02  0.10407729534E+02 -0.27432976574E+03  0.28612821500E+03  0.47000000000E+01 0.  1.
         -5    1    4    4    0  502  0.22515001047E+02 -0.12150563190E+02 -0.68610055903E+01  0.26902134779E+02  0.47000000000E+01 0.  1.
          5    1    5    5  503    0  0.73476412720E+02  0.43245876464E+02 -0.27665932620E+03  0.28953663297E+03  0.47000000000E+01 0.  1.
         -5    1    5    5    0  503 -0.15479773536E+02 -0.41503042807E+02 -0.65109888058E+02  0.78889248151E+02  0.47000000000E+01 0.  1.
<mgrwt>
<rscale>  0 0.27623079E+03</rscale>
<asrwt>0</asrwt>
<pdfrwt beam="1">  1        2 0.10033971E+00 0.27623079E+03</pdfrwt>
<pdfrwt beam="2">  1       -2 0.44997112E-02 0.27623079E+03</pdfrwt>
<totfact> 0.10463905E+04</totfact>
</mgrwt>
</event>
<event>
 9    1  0.7816570E-001  0.2773670E+03  0.7818608E-02  0.1097136E+00
         -1   -1    0    0    0  501 -0.00000000000E+00  0.00000000000E+00  0.93108388884E+01  0.93108388884E+01  0.00000000000E+00 0. -1.
          1   -1    0    0  501    0  0.00000000000E+00 -0.00000000000E+00 -0.20656686242E+04  0.20656686242E+04  0.00000000000E+00 0. -1.
         35    2    1    2    0    0  0.00000000000E+00  0.71054273576E-14 -0.20563577853E+04  0.20749794631E+04  0.27736696095E+03 0.  0.
         25    2    3    3    0    0 -0.14927527291E+02 -0.48249965479E+02 -0.90295303036E+03  0.91302948966E+03  0.12549017372E+03 0.  0.
         25    2    3    3    0    0  0.14927527291E+02  0.48249965479E+02 -0.11534047549E+04  0.11619499734E+04  0.13127955584E+03 0.  0.
          5    1    4    4  502    0 -0.46590564358E+02 -0.63489476138E+02 -0.34301031344E+03  0.35196556563E+03  0.47000000000E+01 0. -1.
         -5    1    4    4    0  502  0.31663037067E+02  0.15239510659E+02 -0.55994271693E+03  0.56106392402E+03  0.47000000000E+01 0. -1.
          5    1    5    5  503    0 -0.25911535115E+02 -0.35792622753E+02 -0.48460134357E+03  0.48663443331E+03  0.47000000000E+01 0.  1.
         -5    1    5    5    0  503  0.40839062406E+02  0.84042588232E+02 -0.66880341137E+03  0.67531554011E+03  0.47000000000E+01 0.  1.
<mgrwt>
<rscale>  0 0.27736696E+03</rscale>
<asrwt>0</asrwt>
<pdfrwt beam="1">  1        1 0.31779565E+00 0.27736696E+03</pdfrwt>
<pdfrwt beam="2">  1       -1 0.14324346E-02 0.27736696E+03</pdfrwt>
<totfact> 0.34131276E+03</totfact>
</mgrwt>
</event>
<event>
 9    1  0.7816570E-001  0.2848019E+03  0.7818608E-02  0.1093095E+00
          2   -1    0    0  501    0  0.00000000000E+00  0.00000000000E+00  0.25125838268E+03  0.25125838268E+03  0.00000000000E+00 0.  1.
         -2   -1    0    0    0  501 -0.00000000000E+00 -0.00000000000E+00 -0.80705897074E+02  0.80705897074E+02  0.00000000000E+00 0.  1.
         35    2    1    2    0    0  0.00000000000E+00  0.00000000000E+00  0.17055248560E+03  0.33196427975E+03  0.28480191833E+03 0.  0.
         25    2    3    3    0    0  0.45393417139E+02 -0.46995338365E+02  0.99192123897E+02  0.17365753265E+03  0.12668361005E+03 0.  0.
         25    2    3    3    0    0 -0.45393417139E+02  0.46995338365E+02  0.71360361707E+02  0.15830674710E+03  0.12529804790E+03 0.  0.
          5    1    4    4  502    0  0.51715732747E+02  0.33410480767E+02  0.43364067312E+02  0.75454022904E+02  0.47000000000E+01 0.  1.
         -5    1    4    4    0  502 -0.63223156083E+01 -0.80405819132E+02  0.55828056585E+02  0.98203509748E+02  0.47000000000E+01 0.  1.
          5    1    5    5  503    0 -0.20989101677E+02  0.30794308140E+02  0.10614139789E+03  0.11259182097E+03  0.47000000000E+01 0.  1.
         -5    1    5    5    0  503 -0.24404315461E+02  0.16201030225E+02 -0.34781036181E+02  0.45714926132E+02  0.47000000000E+01 0.  1.
<mgrwt>
<rscale>  0 0.28480192E+03</rscale>
<asrwt>0</asrwt>
<pdfrwt beam="1">  1        2 0.38655135E-01 0.28480192E+03</pdfrwt>
<pdfrwt beam="2">  1       -2 0.12416292E-01 0.28480192E+03</pdfrwt>
<totfact> 0.61687297E+03</totfact>
</mgrwt>
</event>
<event>
 9    1  0.7816570E-001  0.2797754E+03  0.7818608E-02  0.1095812E+00
         -1   -1    0    0    0  501 -0.00000000000E+00  0.00000000000E+00  0.39667881879E+02  0.39667881879E+02  0.00000000000E+00 0. -1.
          1   -1    0    0  501    0  0.00000000000E+00 -0.00000000000E+00 -0.49331011086E+03  0.49331011086E+03  0.00000000000E+00 0. -1.
         35    2    1    2    0    0  0.14210854715E-13  0.00000000000E+00 -0.45364222898E+03  0.53297799274E+03  0.27977538996E+03 0.  0.
         25    2    3    3    0    0 -0.46797863300E+02  0.14671442872E+01 -0.30975665819E+03  0.33713160711E+03  0.12456460452E+03 0.  0.
         25    2    3    3    0    0  0.46797863300E+02 -0.14671442872E+01 -0.14388557079E+03  0.19584638562E+03  0.12434048721E+03 0.  0.
          5    1    4    4  502    0  0.32674559214E+00  0.18936356497E+02  0.35077558878E+01  0.19826414488E+02  0.47000000000E+01 0. -1.
         -5    1    4    4    0  502 -0.47124608893E+02 -0.17469212210E+02 -0.31326441408E+03  0.31730519263E+03  0.47000000000E+01 0. -1.
          5    1    5    5  503    0 -0.37237912116E+02 -0.12317726815E+02 -0.16565183052E+02  0.42835543445E+02  0.47000000000E+01 0. -1.
         -5    1    5    5    0  503  0.84035775417E+02  0.10850582528E+02 -0.12732038774E+03  0.15301084218E+03  0.47000000000E+01 0. -1.
<mgrwt>
<rscale>  0 0.27977539E+03</rscale>
<asrwt>0</asrwt>
<pdfrwt beam="1">  1        1 0.75893861E-01 0.27977539E+03</pdfrwt>
<pdfrwt beam="2">  1       -1 0.61027512E-02 0.27977539E+03</pdfrwt>
<totfact> 0.59630526E+03</totfact>
</mgrwt>
</event>
<event>
 9    1  0.7816570E-001  0.2740436E+03  0.7818608E-02  0.1098987E+00
          3   -1    0    0  501    0  0.00000000000E+00  0.00000000000E+00  0.81715146527E+02  0.81715146527E+02  0.00000000000E+00 0.  1.
         -3   -1    0    0    0  501 -0.00000000000E+00 -0.00000000000E+00 -0.22976131120E+03  0.22976131120E+03  0.00000000000E+00 0.  1.
         35    2    1    2    0    0 -0.35527136788E-14  0.00000000000E+00 -0.14804616467E+03  0.31147645772E+03  0.27404364040E+03 0.  0.
         25    2    3    3    0    0 -0.24328301622E+02 -0.17577073545E+02 -0.20817453277E+02  0.13074700798E+03  0.12554120423E+03 0.  0.
         25    2    3    3    0    0  0.24328301622E+02  0.17577073545E+02 -0.12722871139E+03  0.18072944974E+03  0.12480051774E+03 0.  0.
          5    1    4    4  502    0  0.44348119925E+02  0.19728871166E+02 -0.19272474562E+02  0.52435697517E+02  0.47000000000E+01 0. -1.
         -5    1    4    4    0  502 -0.68676421547E+02 -0.37305944711E+02 -0.15449787158E+01  0.78311310464E+02  0.47000000000E+01 0. -1.
          5    1    5    5  503    0  0.15080145224E+02  0.44642392082E+02  0.28696211675E+01  0.47441318241E+02  0.47000000000E+01 0. -1.
         -5    1    5    5    0  503  0.92481563989E+01 -0.27065318537E+02 -0.13009833256E+03  0.13328813150E+03  0.47000000000E+01 0. -1.
<mgrwt>
<rscale>  0 0.27404364E+03</rscale>
<asrwt>0</asrwt>
<pdfrwt beam="1">  1        3 0.12571561E-01 0.27404364E+03</pdfrwt>
<pdfrwt beam="2">  1       -3 0.35347893E-01 0.27404364E+03</pdfrwt>
<totfact> 0.10057193E+03</totfact>
</mgrwt>
</event>
<event>
 9    1  0.7816570E-001  0.2602759E+03  0.7818608E-02  0.1106978E+00
          2   -1    0    0  501    0  0.00000000000E+00  0.00000000000E+00  0.15127584603E+03  0.15127584603E+03  0.00000000000E+00 0.  1.
         -2   -1    0    0    0  501 -0.00000000000E+00 -0.00000000000E+00 -0.11195367561E+03  0.11195367561E+03  0.00000000000E+00 0.  1.
         35    2    1    2    0    0  0.35527136788E-14 -0.35527136788E-14  0.39322170415E+02  0.26322952164E+03  0.26027590741E+03 0.  0.
         25    2    3    3    0    0  0.26826057071E+02 -0.22124782006E+02  0.18456688225E+02  0.13191726008E+03  0.12590619861E+03 0.  0.
         25    2    3    3    0    0 -0.26826057071E+02  0.22124782006E+02  0.20865482190E+02  0.13131226157E+03  0.12489354817E+03 0.  0.
          5    1    4    4  502    0  0.88634939837E+01 -0.41797440228E+02  0.65092081636E+02  0.78004209034E+02  0.47000000000E+01 0. -1.
         -5    1    4    4    0  502  0.17962563087E+02  0.19672658223E+02 -0.46635393411E+02  0.53913051043E+02  0.47000000000E+01 0. -1.
          5    1    5    5  503    0  0.47600631662E+00 -0.75955078346E+00  0.70153461755E+02  0.70316439726E+02  0.47000000000E+01 0. -1.
         -5    1    5    5    0  503 -0.27302063387E+02  0.22884332789E+02 -0.49287979566E+02  0.60995821841E+02  0.47000000000E+01 0. -1.
<mgrwt>
<rscale>  0 0.26027591E+03</rscale>
<asrwt>0</asrwt>
<pdfrwt beam="1">  1        2 0.23273207E-01 0.26027591E+03</pdfrwt>
<pdfrwt beam="2">  1       -2 0.17223642E-01 0.26027591E+03</pdfrwt>
<totfact> 0.62633414E+03</totfact>
</mgrwt>
</event>
<event>
 9    1  0.7816570E-001  0.2752128E+03  0.7818608E-02  0.1098333E+00
          4   -1    0    0  501    0  0.00000000000E+00  0.00000000000E+00  0.68395760493E+03  0.68395760493E+03  0.00000000000E+00 0. -1.
         -4   -1    0    0    0  501 -0.00000000000E+00 -0.00000000000E+00 -0.27685234637E+02  0.27685234637E+02  0.00000000000E+00 0. -1.
         35    2    1    2    0    0  0.00000000000E+00 -0.71054273576E-14  0.65627237029E+03  0.71164283956E+03  0.27521283963E+03 0.  0.
         25    2    3    3    0    0  0.49754142562E+02 -0.37098022985E+02  0.33869267253E+03  0.36462827271E+03  0.11995546184E+03 0.  0.
         25    2    3    3    0    0 -0.49754142562E+02  0.37098022985E+02  0.31757969776E+03  0.34701456685E+03  0.12534156201E+03 0.  0.
          5    1    4    4  502    0  0.16890634001E+01 -0.71930967129E+02  0.22522658838E+03  0.23648683490E+03  0.47000000000E+01 0. -1.
         -5    1    4    4    0  502  0.48065079162E+02  0.34832944143E+02  0.11346608415E+03  0.12814143781E+03  0.47000000000E+01 0. -1.
          5    1    5    5  503    0  0.22532080910E+02 -0.21984336657E+01  0.21113024536E+03  0.21239255704E+03  0.47000000000E+01 0. -1.
         -5    1    5    5    0  503 -0.72286223472E+02  0.39296456651E+02  0.10644945240E+03  0.13462200981E+03  0.47000000000E+01 0. -1.
<mgrwt>
<rscale>  0 0.27521284E+03</rscale>
<asrwt>0</asrwt>
<pdfrwt beam="1">  1        4 0.10522423E+00 0.27521284E+03</pdfrwt>
<pdfrwt beam="2">  1       -4 0.42592674E-02 0.27521284E+03</pdfrwt>
<totfact> 0.43859290E+02</totfact>
</mgrwt>
</event>
<event>
 9    1  0.7816570E-001  0.2734801E+03  0.7818608E-02  0.1099304E+00
         -2   -1    0    0    0  501 -0.00000000000E+00  0.00000000000E+00  0.66502060044E+01  0.66502060044E+01  0.00000000000E+00 0. -1.
          2   -1    0    0  501    0  0.00000000000E+00 -0.00000000000E+00 -0.28116173587E+04  0.28116173587E+04  0.00000000000E+00 0. -1.
         35    2    1    2    0    0  0.00000000000E+00  0.00000000000E+00 -0.28049671526E+04  0.28182675647E+04  0.27348005149E+03 0.  0.
         25    2    3    3    0    0 -0.44432624683E+02 -0.33656719896E+02 -0.14465304198E+04  0.14529684534E+04  0.12473988246E+03 0.  0.
         25    2    3    3    0    0  0.44432624683E+02  0.33656719896E+02 -0.13584367329E+04  0.13652991113E+04  0.12483698603E+03 0.  0.
          5    1    4    4  502    0 -0.38655148267E+02  0.43729386885E+02 -0.67187495202E+03  0.67442161955E+03  0.47000000000E+01 0. -1.
         -5    1    4    4    0  502 -0.57774764163E+01 -0.77386106781E+02 -0.77465546775E+03  0.77854683383E+03  0.47000000000E+01 0. -1.
          5    1    5    5  503    0  0.82030506410E+02  0.43774600007E+02 -0.78040319461E+03  0.78593667413E+03  0.47000000000E+01 0. -1.
         -5    1    5    5    0  503 -0.37597881727E+02 -0.10117880112E+02 -0.57803353828E+03  0.57936243715E+03  0.47000000000E+01 0. -1.
<mgrwt>
<rscale>  0 0.27348005E+03</rscale>
<asrwt>0</asrwt>
<pdfrwt beam="1">  1        2 0.43255666E+00 0.27348005E+03</pdfrwt>
<pdfrwt beam="2">  1       -2 0.10231083E-02 0.27348005E+03</pdfrwt>
<totfact> 0.55340383E+03</totfact>
</mgrwt>
</event>
<event>
 9    1  0.7816570E-001  0.2763473E+03  0.7818608E-02  0.1097701E+00
          4   -1    0    0  501    0  0.00000000000E+00  0.00000000000E+00  0.28497168961E+02  0.28497168961E+02  0.00000000000E+00 0.  1.
         -4   -1    0    0    0  501 -0.00000000000E+00 -0.00000000000E+00 -0.66995958228E+03  0.66995958228E+03  0.00000000000E+00 0.  1.
         35    2    1    2    0    0  0.00000000000E+00  0.00000000000E+00 -0.64146241332E+03  0.69845675124E+03  0.27634725556E+03 0.  0.
         25    2    3    3    0    0 -0.49233571326E+02 -0.30990776484E+02 -0.33421741799E+03  0.36153117865E+03  0.12497654928E+03 0.  0.
         25    2    3    3    0    0  0.49233571326E+02  0.30990776484E+02 -0.30724499532E+03  0.33692557259E+03  0.12543915475E+03 0.  0.
          5    1    4    4  502    0 -0.21245687288E+02 -0.20167785228E+02 -0.32945314108E+03  0.33078630709E+03  0.47000000000E+01 0.  1.
         -5    1    4    4    0  502 -0.27987884038E+02 -0.10822991256E+02 -0.47642769142E+01  0.30744871559E+02  0.47000000000E+01 0.  1.
          5    1    5    5  503    0  0.56350305383E+02 -0.36673626225E+02 -0.11976861439E+03  0.13742970119E+03  0.47000000000E+01 0. -1.
         -5    1    5    5    0  503 -0.71167340570E+01  0.67664402710E+02 -0.18747638093E+03  0.19949587140E+03  0.47000000000E+01 0. -1.
<mgrwt>
<rscale>  0 0.27634726E+03</rscale>
<asrwt>0</asrwt>
<pdfrwt beam="1">  1        4 0.43841797E-02 0.27634726E+03</pdfrwt>
<pdfrwt beam="2">  1       -4 0.10307071E+00 0.27634726E+03</pdfrwt>
<totfact> 0.43989671E+02</totfact>
</mgrwt>
</event>
<event>
 9    1  0.7816570E-001  0.2900313E+03  0.7818608E-02  0.1090333E+00
          2   -1    0    0  501    0  0.00000000000E+00  0.00000000000E+00  0.53858786944E+03  0.53858786944E+03  0.00000000000E+00 0. -1.
         -2   -1    0    0    0  501 -0.00000000000E+00 -0.00000000000E+00 -0.39045687437E+02  0.39045687437E+02  0.00000000000E+00 0. -1.
         35    2    1    2    0    0  0.35527136788E-14  0.14210854715E-13  0.49954218200E+03  0.57763355688E+03  0.29003126457E+03 0.  0.
         25    2    3    3    0    0  0.26545581546E+02  0.61264068856E+02  0.18398368103E+03  0.23172714308E+03  0.12405450384E+03 0.  0.
         25    2    3    3    0    0 -0.26545581546E+02 -0.61264068856E+02  0.31555850097E+03  0.34590641379E+03  0.12496449711E+03 0.  0.
          5    1    4    4  502    0  0.24032726136E+02 -0.31448762013E+02  0.95380561045E+02  0.10337377802E+03  0.47000000000E+01 0. -1.
         -5    1    4    4    0  502  0.25128554104E+01  0.92712830870E+02  0.88603119990E+02  0.12835336506E+03  0.47000000000E+01 0. -1.
          5    1    5    5  503    0  0.17970140301E+02 -0.83777994566E+02  0.14866836221E+03  0.17165678034E+03  0.47000000000E+01 0.  1.
         -5    1    5    5    0  503 -0.44515721848E+02  0.22513925710E+02  0.16689013876E+03  0.17424963345E+03  0.47000000000E+01 0.  1.
<mgrwt>
<rscale>  0 0.29003126E+03</rscale>
<asrwt>0</asrwt>
<pdfrwt beam="1">  1        2 0.82859667E-01 0.29003126E+03</pdfrwt>
<pdfrwt beam="2">  1       -2 0.60070292E-02 0.29003126E+03</pdfrwt>
<totfact> 0.84267084E+03</totfact>
</mgrwt>
</event>
<event>
 9    1  0.7816570E-001  0.2628235E+03  0.7818608E-02  0.1105459E+00
          2   -1    0    0  501    0  0.00000000000E+00  0.00000000000E+00  0.17200311308E+04  0.17200311308E+04  0.00000000000E+00 0.  1.
         -2   -1    0    0    0  501 -0.00000000000E+00 -0.00000000000E+00 -0.10039964437E+02  0.10039964437E+02  0.00000000000E+00 0.  1.
         35    2    1    2    0    0  0.00000000000E+00  0.00000000000E+00  0.17099911664E+04  0.17300710953E+04  0.26282352546E+03 0.  0.
         25    2    3    3    0    0 -0.72377740727E+01 -0.37710438339E+02  0.77406520162E+03  0.78508482393E+03  0.12532670057E+03 0.  0.
         25    2    3    3    0    0  0.72377740727E+01  0.37710438339E+02  0.93592596477E+03  0.94498627134E+03  0.12476850141E+03 0.  0.
          5    1    4    4  502    0 -0.61537721281E+02  0.31002918177E+01  0.42141107588E+03  0.42591770077E+03  0.47000000000E+01 0. -1.
         -5    1    4    4    0  502  0.54299947208E+02 -0.40810730157E+02  0.35265412574E+03  0.35916712317E+03  0.47000000000E+01 0. -1.
          5    1    5    5  503    0 -0.34903446405E+02  0.31581760701E+02  0.82055152187E+03  0.82191395427E+03  0.47000000000E+01 0.  1.
         -5    1    5    5    0  503  0.42141220478E+02  0.61286776382E+01  0.11537444290E+03  0.12307231707E+03  0.47000000000E+01 0.  1.
<mgrwt>
<rscale>  0 0.26282353E+03</rscale>
<asrwt>0</asrwt>
<pdfrwt beam="1">  1        2 0.26461994E+00 0.26282353E+03</pdfrwt>
<pdfrwt beam="2">  1       -2 0.15446113E-02 0.26282353E+03</pdfrwt>
<totfact> 0.11771393E+04</totfact>
</mgrwt>
</event>
<event>
 9    1  0.7816570E-001  0.2744372E+03  0.7818608E-02  0.1098767E+00
         -1   -1    0    0    0  501 -0.00000000000E+00  0.00000000000E+00  0.23233701809E+02  0.23233701809E+02  0.00000000000E+00 0.  1.
          1   -1    0    0  501    0  0.00000000000E+00 -0.00000000000E+00 -0.81041510854E+03  0.81041510854E+03  0.00000000000E+00 0.  1.
         35    2    1    2    0    0 -0.71054273576E-14  0.71054273576E-14 -0.78718140673E+03  0.83364881034E+03  0.27443719116E+03 0.  0.
         25    2    3    3    0    0  0.48483113214E+02 -0.25539599899E+02 -0.44710282198E+03  0.46710631565E+03  0.12363047061E+03 0.  0.
         25    2    3    3    0    0 -0.48483113214E+02  0.25539599899E+02 -0.34007858474E+03  0.36654249469E+03  0.12528796106E+03 0.  0.
          5    1    4    4  502    0 -0.22312421202E+02 -0.32607633911E+02 -0.31026372342E+03  0.31280468347E+03  0.47000000000E+01 0. -1.
         -5    1    4    4    0  502  0.70795534416E+02  0.70680340115E+01 -0.13683909856E+03  0.15430163218E+03  0.47000000000E+01 0. -1.
          5    1    5    5  503    0  0.35078797523E+01 -0.32377283020E+02 -0.23323532370E+02  0.40332007616E+02  0.47000000000E+01 0. -1.
         -5    1    5    5    0  503 -0.51990992966E+02  0.57916882919E+02 -0.31675505237E+03  0.32621048708E+03  0.47000000000E+01 0. -1.
<mgrwt>
<rscale>  0 0.27443719E+03</rscale>
<asrwt>0</asrwt>
<pdfrwt beam="1">  1        1 0.12467921E+00 0.27443719E+03</pdfrwt>
<pdfrwt beam="2">  1       -1 0.35744166E-02 0.27443719E+03</pdfrwt>
<totfact> 0.65550374E+03</totfact>
</mgrwt>
</event>
<event>
 9    1  0.7816570E-001  0.2699163E+03  0.7818608E-02  0.1101327E+00
          2   -1    0    0  501    0  0.00000000000E+00  0.00000000000E+00  0.10522905375E+03  0.10522905375E+03  0.00000000000E+00 0.  1.
         -2   -1    0    0    0  501 -0.00000000000E+00 -0.00000000000E+00 -0.17308631294E+03  0.17308631294E+03  0.00000000000E+00 0.  1.
         35    2    1    2    0    0  0.35527136788E-14 -0.14210854715E-13 -0.67857259188E+02  0.27831536669E+03  0.26991634947E+03 0.  0.
         25    2    3    3    0    0 -0.11333159037E+02 -0.49710166823E+02 -0.36907381330E+02  0.14084658516E+03  0.12600025626E+03 0.  0.
         25    2    3    3    0    0  0.11333159037E+02  0.49710166823E+02 -0.30949877858E+02  0.13746878152E+03  0.12385568124E+03 0.  0.
          5    1    4    4  502    0  0.24671428278E+02 -0.20863653412E+02 -0.74376202969E+02  0.81227341303E+02  0.47000000000E+01 0.  1.
         -5    1    4    4    0  502 -0.36004587315E+02 -0.28846513411E+02  0.37468821640E+02  0.59619243862E+02  0.47000000000E+01 0.  1.
          5    1    5    5  503    0 -0.19259727098E+02  0.81646830329E+02 -0.38393541298E+02  0.92375841019E+02  0.47000000000E+01 0. -1.
         -5    1    5    5    0  503  0.30592886135E+02 -0.31936663506E+02  0.74436634394E+01  0.45092940504E+02  0.47000000000E+01 0. -1.
<mgrwt>
<rscale>  0 0.26991635E+03</rscale>
<asrwt>0</asrwt>
<pdfrwt beam="1">  1        2 0.16189085E-01 0.26991635E+03</pdfrwt>
<pdfrwt beam="2">  1       -2 0.26628663E-01 0.26991635E+03</pdfrwt>
<totfact> 0.44856574E+03</totfact>
</mgrwt>
</event>
<event>
 9    1  0.7816570E-001  0.2792818E+03  0.7818608E-02  0.1096082E+00
         -2   -1    0    0    0  501 -0.00000000000E+00  0.00000000000E+00  0.30366847780E+03  0.30366847780E+03  0.00000000000E+00 0. -1.
          2   -1    0    0  501    0  0.00000000000E+00 -0.00000000000E+00 -0.64213365914E+02  0.64213365914E+02  0.00000000000E+00 0. -1.
         35    2    1    2    0    0  0.00000000000E+00  0.00000000000E+00  0.23945511189E+03  0.36788184372E+03  0.27928175796E+03 0.  0.
         25    2    3    3    0    0  0.10974002280E+02  0.11392555971E+02  0.40439538957E+02  0.13237895494E+03  0.12505443751E+03 0.  0.
         25    2    3    3    0    0 -0.10974002280E+02 -0.11392555971E+02  0.19901557293E+03  0.23550288878E+03  0.12491674546E+03 0.  0.
          5    1    4    4  502    0  0.35097189145E+02  0.50401946816E+02 -0.11784558981E+02  0.62714709272E+02  0.47000000000E+01 0. -1.
         -5    1    4    4    0  502 -0.24123186865E+02 -0.39009390845E+02  0.52224097938E+02  0.69664245665E+02  0.47000000000E+01 0. -1.
          5    1    5    5  503    0  0.17059444804E+02 -0.39469953294E+02  0.12886197528E+02  0.45133645507E+02  0.47000000000E+01 0.  1.
         -5    1    5    5    0  503 -0.28033447085E+02  0.28077397323E+02  0.18612937540E+03  0.19036924327E+03  0.47000000000E+01 0.  1.
<mgrwt>
<rscale>  0 0.27928176E+03</rscale>
<asrwt>0</asrwt>
<pdfrwt beam="1">  1        2 0.98789796E-02 0.27928176E+03</pdfrwt>
<pdfrwt beam="2">  1       -2 0.46718226E-01 0.27928176E+03</pdfrwt>
<totfact> 0.28533334E+03</totfact>
</mgrwt>
</event>
<event>
 9    1  0.7816570E-001  0.2769927E+03  0.7818608E-02  0.1097343E+00
          2   -1    0    0  501    0  0.00000000000E+00  0.00000000000E+00  0.15228685388E+04  0.15228685388E+04  0.00000000000E+00 0.  1.
         -2   -1    0    0    0  501 -0.00000000000E+00 -0.00000000000E+00 -0.12595465775E+02  0.12595465775E+02  0.00000000000E+00 0.  1.
         35    2    1    2    0    0  0.35527136788E-14  0.00000000000E+00  0.15102730730E+04  0.15354640045E+04  0.27699269709E+03 0.  0.
         25    2    3    3    0    0  0.31614825080E+02 -0.49616396314E+02  0.65580702396E+03  0.66986172044E+03  0.12316894047E+03 0.  0.
         25    2    3    3    0    0 -0.31614825080E+02  0.49616396314E+02  0.85446604902E+03  0.86560228409E+03  0.12527490306E+03 0.  0.
          5    1    4    4  502    0  0.33762903251E+02  0.85976616123E+01  0.52975662451E+03  0.53092186302E+03  0.47000000000E+01 0.  1.
         -5    1    4    4    0  502 -0.21480781707E+01 -0.58214057926E+02  0.12605039945E+03  0.13893985742E+03  0.47000000000E+01 0.  1.
          5    1    5    5  503    0  0.11486073546E+02  0.41397467957E+02  0.89743420017E+02  0.99607488047E+02  0.47000000000E+01 0.  1.
         -5    1    5    5    0  503 -0.43100898626E+02  0.82189283562E+01  0.76472262900E+03  0.76599479604E+03  0.47000000000E+01 0.  1.
<mgrwt>
<rscale>  0 0.27699270E+03</rscale>
<asrwt>0</asrwt>
<pdfrwt beam="1">  1        2 0.23428732E+00 0.27699270E+03</pdfrwt>
<pdfrwt beam="2">  1       -2 0.19377652E-02 0.27699270E+03</pdfrwt>
<totfact> 0.10745187E+04</totfact>
</mgrwt>
</event>
<event>
 9    1  0.7816570E-001  0.2744022E+03  0.7818608E-02  0.1098786E+00
          2   -1    0    0  501    0  0.00000000000E+00  0.00000000000E+00  0.11003638059E+04  0.11003638059E+04  0.00000000000E+00 0. -1.
         -2   -1    0    0    0  501 -0.00000000000E+00 -0.00000000000E+00 -0.17107204278E+02  0.17107204278E+02  0.00000000000E+00 0. -1.
         35    2    1    2    0    0  0.14210854715E-13  0.10658141036E-13  0.10832566016E+04  0.11174710101E+04  0.27440224786E+03 0.  0.
         25    2    3    3    0    0 -0.28672214974E+02 -0.26522394360E+02  0.37204059136E+03  0.39430008488E+03  0.12463074260E+03 0.  0.
         25    2    3    3    0    0  0.28672214974E+02  0.26522394360E+02  0.71121601022E+03  0.72317092525E+03  0.12498976210E+03 0.  0.
          5    1    4    4  502    0 -0.71329272140E+02 -0.42372638957E+02  0.26941096538E+03  0.28193556686E+03  0.47000000000E+01 0. -1.
         -5    1    4    4    0  502  0.42657057165E+02  0.15850244597E+02  0.10262962599E+03  0.11236451802E+03  0.47000000000E+01 0. -1.
          5    1    5    5  503    0  0.56840319218E+02  0.35266836684E+02  0.66349126532E+03  0.66687129254E+03  0.47000000000E+01 0.  1.
         -5    1    5    5    0  503 -0.28168104243E+02 -0.87444423236E+01  0.47724744891E+02  0.56299632709E+02  0.47000000000E+01 0.  1.
<mgrwt>
<rscale>  0 0.27440225E+03</rscale>
<asrwt>0</asrwt>
<pdfrwt beam="1">  1        2 0.16928668E+00 0.27440225E+03</pdfrwt>
<pdfrwt beam="2">  1       -2 0.26318784E-02 0.27440225E+03</pdfrwt>
<totfact> 0.11732963E+04</totfact>
</mgrwt>
</event>
<event>
 9    1  0.7816570E-001  0.2762746E+03  0.7818608E-02  0.1097741E+00
         -1   -1    0    0    0  501 -0.00000000000E+00  0.00000000000E+00  0.31286362752E+03  0.31286362752E+03  0.00000000000E+00 0.  1.
          1   -1    0    0  501    0  0.00000000000E+00 -0.00000000000E+00 -0.60991143723E+02  0.60991143723E+02  0.00000000000E+00 0.  1.
         35    2    1    2    0    0 -0.35527136788E-14  0.00000000000E+00  0.25187248379E+03  0.37385477124E+03  0.27627457698E+03 0.  0.
         25    2    3    3    0    0  0.31496595236E+02 -0.32494230941E+02  0.80165491430E+02  0.15544510882E+03  0.12525480144E+03 0.  0.
         25    2    3    3    0    0 -0.31496595236E+02  0.32494230941E+02  0.17170699236E+03  0.21840966242E+03  0.12716752280E+03 0.  0.
          5    1    4    4  502    0  0.31907931307E+02  0.16133599133E+02  0.97223849049E+02  0.10369655696E+03  0.47000000000E+01 0.  1.
         -5    1    4    4    0  502 -0.41133607046E+00 -0.48627830075E+02 -0.17058357619E+02  0.51748551862E+02  0.47000000000E+01 0.  1.
          5    1    5    5  503    0 -0.61525601390E+02 -0.21549725174E+02  0.12401782853E+03  0.14018666867E+03  0.47000000000E+01 0.  1.
         -5    1    5    5    0  503  0.30029006153E+02  0.54043956115E+02  0.47689163839E+02  0.78222993747E+02  0.47000000000E+01 0.  1.
<mgrwt>
<rscale>  0 0.27627458E+03</rscale>
<asrwt>0</asrwt>
<pdfrwt beam="1">  1        1 0.93832531E-02 0.27627458E+03</pdfrwt>
<pdfrwt beam="2">  1       -1 0.48132865E-01 0.27627458E+03</pdfrwt>
<totfact> 0.30727183E+03</totfact>
</mgrwt>
</event>
<event>
 9    1  0.7816570E-001  0.2768775E+03  0.7818608E-02  0.1097407E+00
         -1   -1    0    0    0  501 -0.00000000000E+00  0.00000000000E+00  0.69500855922E+02  0.69500855922E+02  0.00000000000E+00 0. -1.
          1   -1    0    0  501    0  0.00000000000E+00 -0.00000000000E+00 -0.27575622181E+03  0.27575622181E+03  0.00000000000E+00 0. -1.
         35    2    1    2    0    0  0.00000000000E+00 -0.35527136788E-14 -0.20625536589E+03  0.34525707773E+03  0.27687754291E+03 0.  0.
         25    2    3    3    0    0  0.20458198596E+02  0.24920313544E+02 -0.39582106161E+02  0.13465419861E+03  0.12460116436E+03 0.  0.
         25    2    3    3    0    0 -0.20458198596E+02 -0.24920313544E+02 -0.16667325973E+03  0.21060287912E+03  0.12463561798E+03 0.  0.
          5    1    4    4  502    0  0.24785680898E+02  0.25088368451E+02 -0.83243232806E+02  0.90527796930E+02  0.47000000000E+01 0. -1.
         -5    1    4    4    0  502 -0.43274823016E+01 -0.16805490735E+00  0.43661126645E+02  0.44126401682E+02  0.47000000000E+01 0. -1.
          5    1    5    5  503    0  0.33580805353E+01  0.36343985214E+02 -0.64554135534E+01  0.37362070744E+02  0.47000000000E+01 0. -1.
         -5    1    5    5    0  503 -0.23816279131E+02 -0.61264298758E+02 -0.16021784617E+03  0.17324080837E+03  0.47000000000E+01 0. -1.
<mgrwt>
<rscale>  0 0.27687754E+03</rscale>
<asrwt>0</asrwt>
<pdfrwt beam="1">  1        1 0.42424034E-01 0.27687754E+03</pdfrwt>
<pdfrwt beam="2">  1       -1 0.10692439E-01 0.27687754E+03</pdfrwt>
<totfact> 0.53202301E+03</totfact>
</mgrwt>
</event>
<event>
 9    1  0.7816570E-001  0.2779887E+03  0.7818608E-02  0.1096793E+00
         -2   -1    0    0    0  501 -0.00000000000E+00  0.00000000000E+00  0.34047975449E+02  0.34047975449E+02  0.00000000000E+00 0.  1.
          2   -1    0    0  501    0  0.00000000000E+00 -0.00000000000E+00 -0.56741792616E+03  0.56741792616E+03  0.00000000000E+00 0.  1.
         35    2    1    2    0    0  0.00000000000E+00  0.00000000000E+00 -0.53336995071E+03  0.60146590160E+03  0.27798871646E+03 0.  0.
         25    2    3    3    0    0 -0.34485851544E+02  0.46489219283E+02 -0.29547183091E+03  0.32634344416E+03  0.12588057522E+03 0.  0.
         25    2    3    3    0    0  0.34485851544E+02 -0.46489219283E+02 -0.23789811980E+03  0.27512245745E+03  0.12548438039E+03 0.  0.
          5    1    4    4  502    0 -0.51693533641E+02  0.80663591015E+02 -0.24288778157E+03  0.26114249132E+03  0.47000000000E+01 0.  1.
         -5    1    4    4    0  502  0.17207682097E+02 -0.34174371732E+02 -0.52584049338E+02  0.65200952840E+02  0.47000000000E+01 0.  1.
          5    1    5    5  503    0 -0.50371912798E+01 -0.39315818641E+02 -0.23059689548E+03  0.23402590690E+03  0.47000000000E+01 0. -1.
         -5    1    5    5    0  503  0.39523042824E+02 -0.71734006424E+01 -0.73012243151E+01  0.41096550553E+02  0.47000000000E+01 0. -1.
<mgrwt>
<rscale>  0 0.27798872E+03</rscale>
<asrwt>0</asrwt>
<pdfrwt beam="1">  1        2 0.87295068E-01 0.27798872E+03</pdfrwt>
<pdfrwt beam="2">  1       -2 0.52381499E-02 0.27798872E+03</pdfrwt>
<totfact> 0.97763619E+03</totfact>
</mgrwt>
</event>
<event>
 9    1  0.7816570E-001  0.2761294E+03  0.7818608E-02  0.1097822E+00
         -1   -1    0    0    0  501 -0.00000000000E+00  0.00000000000E+00  0.12830195750E+02  0.12830195750E+02  0.00000000000E+00 0. -1.
          1   -1    0    0  501    0  0.00000000000E+00 -0.00000000000E+00 -0.14857027983E+04  0.14857027983E+04  0.00000000000E+00 0. -1.
         35    2    1    2    0    0  0.00000000000E+00  0.71054273576E-14 -0.14728726025E+04  0.14985329940E+04  0.27612937351E+03 0.  0.
         25    2    3    3    0    0  0.21584390197E+02  0.53382317417E+02 -0.71652323806E+03  0.72977843561E+03  0.12591845253E+03 0.  0.
         25    2    3    3    0    0 -0.21584390197E+02 -0.53382317417E+02 -0.75634936447E+03  0.76875455842E+03  0.12491457979E+03 0.  0.
          5    1    4    4  502    0  0.72655492508E+02  0.35910892403E+02 -0.35130055333E+03  0.36055870750E+03  0.47000000000E+01 0. -1.
         -5    1    4    4    0  502 -0.51071102311E+02  0.17471425013E+02 -0.36522268473E+03  0.36921972811E+03  0.47000000000E+01 0. -1.
          5    1    5    5  503    0 -0.27532844517E+02 -0.45182784268E+02 -0.75570414089E+03  0.75756872961E+03  0.47000000000E+01 0.  1.
         -5    1    5    5    0  503  0.59484543202E+01 -0.81995331483E+01 -0.64522357522E+00  0.11185828808E+02  0.47000000000E+01 0.  1.
<mgrwt>
<rscale>  0 0.27612937E+03</rscale>
<asrwt>0</asrwt>
<pdfrwt beam="1">  1        1 0.22856965E+00 0.27612937E+03</pdfrwt>
<pdfrwt beam="2">  1       -1 0.19738763E-02 0.27612937E+03</pdfrwt>
<totfact> 0.51133083E+03</totfact>
</mgrwt>
</event>
<event>
 9    1  0.7816570E-001  0.2725740E+03  0.7818608E-02  0.1099815E+00
         -1   -1    0    0    0  501 -0.00000000000E+00  0.00000000000E+00  0.13190566862E+03  0.13190566862E+03  0.00000000000E+00 0. -1.
          1   -1    0    0  501    0  0.00000000000E+00 -0.00000000000E+00 -0.14081387239E+03  0.14081387239E+03  0.00000000000E+00 0. -1.
         35    2    1    2    0    0  0.00000000000E+00  0.00000000000E+00 -0.89082037637E+01  0.27271954101E+03  0.27257401188E+03 0.  0.
         25    2    3    3    0    0 -0.17848880626E+02 -0.48658481160E+02  0.14946101343E+02  0.13568246072E+03  0.12449945331E+03 0.  0.
         25    2    3    3    0    0  0.17848880626E+02  0.48658481160E+02 -0.23854305107E+02  0.13703708029E+03  0.12459495645E+03 0.  0.
          5    1    4    4  502    0  0.11605324026E+02 -0.47739601984E+02  0.62441033025E+02  0.79590990373E+02  0.47000000000E+01 0. -1.
         -5    1    4    4    0  502 -0.29454204653E+02 -0.91887917666E+00 -0.47494931682E+02  0.56091470351E+02  0.47000000000E+01 0. -1.
          5    1    5    5  503    0  0.20617675199E+02  0.41251804874E+02 -0.73308111841E+02  0.86735051724E+02  0.47000000000E+01 0. -1.
         -5    1    5    5    0  503 -0.27687945729E+01  0.74066762866E+01  0.49453806734E+02  0.50302028562E+02  0.47000000000E+01 0. -1.
<mgrwt>
<rscale>  0 0.27257401E+03</rscale>
<asrwt>0</asrwt>
<pdfrwt beam="1">  1        1 0.21663673E-01 0.27257401E+03</pdfrwt>
<pdfrwt beam="2">  1       -1 0.20293180E-01 0.27257401E+03</pdfrwt>
<totfact> 0.45007393E+03</totfact>
</mgrwt>
</event>
<event>
 9    1  0.7816570E-001  0.2728147E+03  0.7818608E-02  0.1099679E+00
          2   -1    0    0  501    0  0.00000000000E+00  0.00000000000E+00  0.25203715220E+04  0.25203715220E+04  0.00000000000E+00 0. -1.
         -2   -1    0    0    0  501 -0.00000000000E+00 -0.00000000000E+00 -0.73826281142E+01  0.73826281142E+01  0.00000000000E+00 0. -1.
         35    2    1    2    0    0  0.00000000000E+00  0.00000000000E+00  0.25129888939E+04  0.25277541501E+04  0.27281470383E+03 0.  0.
         25    2    3    3    0    0  0.32350478155E+02 -0.34666309503E+02  0.98262087144E+03  0.99165872238E+03  0.12487969502E+03 0.  0.
         25    2    3    3    0    0 -0.32350478155E+02  0.34666309503E+02  0.15303680224E+04  0.15360954277E+04  0.12375206073E+03 0.  0.
          5    1    4    4  502    0  0.28676353696E+02 -0.49628275767E+02  0.18187574424E+03  0.19075160644E+03  0.47000000000E+01 0.  1.
         -5    1    4    4    0  502  0.36741244585E+01  0.14961966264E+02  0.80074512720E+03  0.80090711594E+03  0.47000000000E+01 0.  1.
          5    1    5    5  503    0 -0.50645441348E+01  0.55098957243E+02  0.29106770452E+03  0.29631747048E+03  0.47000000000E+01 0.  1.
         -5    1    5    5    0  503 -0.27285934020E+02 -0.20432647740E+02  0.12393003179E+04  0.12397779573E+04  0.47000000000E+01 0.  1.
<mgrwt>
<rscale>  0 0.27281470E+03</rscale>
<asrwt>0</asrwt>
<pdfrwt beam="1">  1        2 0.38774878E+00 0.27281470E+03</pdfrwt>
<pdfrwt beam="2">  1       -2 0.11357910E-02 0.27281470E+03</pdfrwt>
<totfact> 0.69238870E+03</totfact>
</mgrwt>
</event>
<event>
 9    1  0.7816570E-001  0.2772174E+03  0.7818608E-02  0.1097218E+00
          2   -1    0    0  501    0  0.00000000000E+00  0.00000000000E+00  0.12598178680E+03  0.12598178680E+03  0.00000000000E+00 0.  1.
         -2   -1    0    0    0  501 -0.00000000000E+00 -0.00000000000E+00 -0.15250121365E+03  0.15250121365E+03  0.00000000000E+00 0.  1.
         35    2    1    2    0    0  0.17763568394E-14  0.14210854715E-13 -0.26519426845E+02  0.27848300045E+03  0.27721742648E+03 0.  0.
         25    2    3    3    0    0 -0.35500657229E+00  0.42427639788E+02  0.28294696755E+02  0.13527644493E+03  0.12529523550E+03 0.  0.
         25    2    3    3    0    0  0.35500657229E+00 -0.42427639788E+02 -0.54814123601E+02  0.14320655553E+03  0.12531280363E+03 0.  0.
          5    1    4    4  502    0 -0.16243931860E+02  0.58134575130E+02  0.67022739798E+02  0.90319609155E+02  0.47000000000E+01 0.  1.
         -5    1    4    4    0  502  0.15888925287E+02 -0.15706935342E+02 -0.38728043043E+02  0.44956835771E+02  0.47000000000E+01 0.  1.
          5    1    5    5  503    0  0.84518039900E+01 -0.72976835372E+02 -0.75257155193E+02  0.10527478758E+03  0.47000000000E+01 0. -1.
         -5    1    5    5    0  503 -0.80967974177E+01  0.30549195584E+02  0.20443031592E+02  0.37931767951E+02  0.47000000000E+01 0. -1.
<mgrwt>
<rscale>  0 0.27721743E+03</rscale>
<asrwt>0</asrwt>
<pdfrwt beam="1">  1        2 0.19381813E-01 0.27721743E+03</pdfrwt>
<pdfrwt beam="2">  1       -2 0.23461725E-01 0.27721743E+03</pdfrwt>
<totfact> 0.45541097E+03</totfact>
</mgrwt>
</event>
<event>
 9    1  0.7816570E-001  0.2701398E+03  0.7818608E-02  0.1101200E+00
         -1   -1    0    0    0  501 -0.00000000000E+00  0.00000000000E+00  0.67126500434E+02  0.67126500434E+02  0.00000000000E+00 0. -1.
          1   -1    0    0  501    0  0.00000000000E+00 -0.00000000000E+00 -0.27178354619E+03  0.27178354619E+03  0.00000000000E+00 0. -1.
         35    2    1    2    0    0 -0.17763568394E-14  0.71054273576E-14 -0.20465704575E+03  0.33891004662E+03  0.27013980330E+03 0.  0.
         25    2    3    3    0    0  0.73778136484E+01  0.45383866443E+02 -0.67801060687E+02  0.14967531657E+03  0.12526607319E+03 0.  0.
         25    2    3    3    0    0 -0.73778136484E+01 -0.45383866443E+02 -0.13685598506E+03  0.18923473005E+03  0.12233599201E+03 0.  0.
          5    1    4    4  502    0 -0.25909832640E+02 -0.27229211843E+02  0.88161372134E+01  0.38891691662E+02  0.47000000000E+01 0.  1.
         -5    1    4    4    0  502  0.33287646288E+02  0.72613078285E+02 -0.76617197901E+02  0.11078362491E+03  0.47000000000E+01 0.  1.
          5    1    5    5  503    0 -0.13608806186E+02 -0.73847468874E+02 -0.34614469923E+02  0.82818474950E+02  0.47000000000E+01 0. -1.
         -5    1    5    5    0  503  0.62309925380E+01  0.28463602432E+02 -0.10224151514E+03  0.10641625510E+03  0.47000000000E+01 0. -1.
<mgrwt>
<rscale>  0 0.27013980E+03</rscale>
<asrwt>0</asrwt>
<pdfrwt beam="1">  1        1 0.41812853E-01 0.27013980E+03</pdfrwt>
<pdfrwt beam="2">  1       -1 0.10327154E-01 0.27013980E+03</pdfrwt>
<totfact> 0.57131529E+03</totfact>
</mgrwt>
</event>
<event>
 9    1  0.7816570E-001  0.2756817E+03  0.7818608E-02  0.1098071E+00
          1   -1    0    0  501    0  0.00000000000E+00  0.00000000000E+00  0.98568459377E+02  0.98568459377E+02  0.00000000000E+00 0.  1.
         -1   -1    0    0    0  501 -0.00000000000E+00 -0.00000000000E+00 -0.19276038553E+03  0.19276038553E+03  0.00000000000E+00 0.  1.
         35    2    1    2    0    0 -0.35527136788E-14  0.00000000000E+00 -0.94191926150E+02  0.29132884490E+03  0.27568165866E+03 0.  0.
         25    2    3    3    0    0  0.26282909503E+02 -0.48419079204E+02 -0.35408179178E+02  0.14121797906E+03  0.12511426735E+03 0.  0.
         25    2    3    3    0    0 -0.26282909503E+02  0.48419079204E+02 -0.58783746972E+02  0.15011086584E+03  0.12665916695E+03 0.  0.
          5    1    4    4  502    0  0.37455137604E+01  0.38686557864E+02  0.98818981941E+01  0.40378466348E+02  0.47000000000E+01 0. -1.
         -5    1    4    4    0  502  0.22537395743E+02 -0.87105637068E+02 -0.45290077372E+02  0.10083951271E+03  0.47000000000E+01 0. -1.
          5    1    5    5  503    0 -0.51570330825E+02 -0.13043191951E+02  0.10021272726E+02  0.54333597200E+02  0.47000000000E+01 0.  1.
         -5    1    5    5    0  503  0.25287421322E+02  0.61462271155E+02 -0.68805019698E+02  0.95777268641E+02  0.47000000000E+01 0.  1.
<mgrwt>
<rscale>  0 0.27568166E+03</rscale>
<asrwt>0</asrwt>
<pdfrwt beam="1">  1        1 0.15164378E-01 0.27568166E+03</pdfrwt>
<pdfrwt beam="2">  1       -1 0.29655444E-01 0.27568166E+03</pdfrwt>
<totfact> 0.38075418E+03</totfact>
</mgrwt>
</event>
<event>
 9    1  0.7816570E-001  0.2745745E+03  0.7818608E-02  0.1098690E+00
         -1   -1    0    0    0  501 -0.00000000000E+00  0.00000000000E+00  0.12138272883E+03  0.12138272883E+03  0.00000000000E+00 0. -1.
          1   -1    0    0  501    0  0.00000000000E+00 -0.00000000000E+00 -0.15527574048E+03  0.15527574048E+03  0.00000000000E+00 0. -1.
         35    2    1    2    0    0  0.00000000000E+00 -0.35527136788E-14 -0.33893011648E+02  0.27665846931E+03  0.27457452977E+03 0.  0.
         25    2    3    3    0    0 -0.45937594128E+02  0.84236696564E+01 -0.40877159740E+02  0.14403552726E+03  0.12997719093E+03 0.  0.
         25    2    3    3    0    0  0.45937594128E+02 -0.84236696564E+01  0.69841480920E+01  0.13262294204E+03  0.12393081000E+03 0.  0.
          5    1    4    4  502    0 -0.25976573729E+01  0.33759499831E+02  0.37562034166E+02  0.50788266985E+02  0.47000000000E+01 0. -1.
         -5    1    4    4    0  502 -0.43339936756E+02 -0.25335830175E+02 -0.78439193906E+02  0.93247260278E+02  0.47000000000E+01 0. -1.
          5    1    5    5  503    0  0.34883683826E+02 -0.30720129154E+02  0.58709654322E+02  0.75030068926E+02  0.47000000000E+01 0.  1.
         -5    1    5    5    0  503  0.11053910303E+02  0.22296459497E+02 -0.51725506230E+02  0.57592873117E+02  0.47000000000E+01 0.  1.
<mgrwt>
<rscale>  0 0.27457453E+03</rscale>
<asrwt>0</asrwt>
<pdfrwt beam="1">  1        1 0.23888575E-01 0.27457453E+03</pdfrwt>
<pdfrwt beam="2">  1       -1 0.18674266E-01 0.27457453E+03</pdfrwt>
<totfact> 0.45460080E+03</totfact>
</mgrwt>
</event>
<event>
 9    1  0.7816570E-001  0.2827777E+03  0.7818608E-02  0.1094181E+00
          2   -1    0    0  501    0  0.00000000000E+00  0.00000000000E+00  0.34164423313E+02  0.34164423313E+02  0.00000000000E+00 0. -1.
         -2   -1    0    0    0  501 -0.00000000000E+00 -0.00000000000E+00 -0.58513521245E+03  0.58513521245E+03  0.00000000000E+00 0. -1.
         35    2    1    2    0    0 -0.71054273576E-14  0.35527136788E-14 -0.55097078914E+03  0.61929963576E+03  0.28277770134E+03 0.  0.
         25    2    3    3    0    0  0.11805329892E+02 -0.58767037959E+01 -0.41171847751E+03  0.43180491334E+03  0.12949701540E+03 0.  0.
         25    2    3    3    0    0 -0.11805329892E+02  0.58767037959E+01 -0.13925231162E+03  0.18749472242E+03  0.12485657044E+03 0.  0.
          5    1    4    4  502    0 -0.48734454469E+02 -0.37486925544E+02 -0.20085524896E+03  0.21010768114E+03  0.47000000000E+01 0.  1.
         -5    1    4    4    0  502  0.60539784361E+02  0.31610221748E+02 -0.21086322856E+03  0.22169723220E+03  0.47000000000E+01 0.  1.
          5    1    5    5  503    0 -0.34220544214E+02 -0.10829884499E+02 -0.15211606573E+03  0.15636406076E+03  0.47000000000E+01 0.  1.
         -5    1    5    5    0  503  0.22415214322E+02  0.16706588295E+02  0.12863754109E+02  0.31130661659E+02  0.47000000000E+01 0.  1.
<mgrwt>
<rscale>  0 0.28277770E+03</rscale>
<asrwt>0</asrwt>
<pdfrwt beam="1">  1        2 0.52560654E-02 0.28277770E+03</pdfrwt>
<pdfrwt beam="2">  1       -2 0.90020797E-01 0.28277770E+03</pdfrwt>
<totfact> 0.16072477E+03</totfact>
</mgrwt>
</event>
<event>
 9    1  0.7816570E-001  0.2763721E+03  0.7818608E-02  0.1097687E+00
          2   -1    0    0  501    0  0.00000000000E+00  0.00000000000E+00  0.68352673205E+02  0.68352673205E+02  0.00000000000E+00 0.  1.
         -2   -1    0    0    0  501 -0.00000000000E+00 -0.00000000000E+00 -0.27936567501E+03  0.27936567501E+03  0.00000000000E+00 0.  1.
         35    2    1    2    0    0  0.00000000000E+00  0.00000000000E+00 -0.21101300181E+03  0.34771834822E+03  0.27637214540E+03 0.  0.
         25    2    3    3    0    0  0.26497408838E+02 -0.10162066803E+02 -0.13662926427E+03  0.18823854045E+03  0.12633610719E+03 0.  0.
         25    2    3    3    0    0 -0.26497408838E+02  0.10162066803E+02 -0.74383737534E+02  0.15947980776E+03  0.13818642624E+03 0.  0.
          5    1    4    4  502    0  0.44285716240E+02 -0.58256688864E+02 -0.54751774219E+02  0.91514552069E+02  0.47000000000E+01 0.  1.
         -5    1    4    4    0  502 -0.17788307402E+02  0.48094622061E+02 -0.81877490053E+02  0.96723988383E+02  0.47000000000E+01 0.  1.
          5    1    5    5  503    0 -0.41411110916E+02  0.12553000328E+01 -0.11105860509E+03  0.11862781988E+03  0.47000000000E+01 0.  1.
         -5    1    5    5    0  503  0.14913702077E+02  0.89067667697E+01  0.36674867554E+02  0.40851987883E+02  0.47000000000E+01 0.  1.
<mgrwt>
<rscale>  0 0.27637215E+03</rscale>
<asrwt>0</asrwt>
<pdfrwt beam="1">  1        2 0.10515796E-01 0.27637215E+03</pdfrwt>
<pdfrwt beam="2">  1       -2 0.42979336E-01 0.27637215E+03</pdfrwt>
<totfact> 0.31067262E+03</totfact>
</mgrwt>
</event>
<event>
 9    1  0.7816570E-001  0.2753715E+03  0.7818608E-02  0.1098244E+00
         -1   -1    0    0    0  501 -0.00000000000E+00  0.00000000000E+00  0.11899320251E+03  0.11899320251E+03  0.00000000000E+00 0.  1.
          1   -1    0    0  501    0  0.00000000000E+00 -0.00000000000E+00 -0.15931468211E+03  0.15931468211E+03  0.00000000000E+00 0.  1.
         35    2    1    2    0    0 -0.71054273576E-14  0.00000000000E+00 -0.40321479602E+02  0.27830788462E+03  0.27537148895E+03 0.  0.
         25    2    3    3    0    0  0.20611904864E+02 -0.51500465690E+02 -0.17960745898E+02  0.13987919099E+03  0.12714735975E+03 0.  0.
         25    2    3    3    0    0 -0.20611904864E+02  0.51500465690E+02 -0.22360733704E+02  0.13842869363E+03  0.12484130815E+03 0.  0.
          5    1    4    4  502    0  0.73802400264E+02 -0.24273204852E+02 -0.20321781212E+01  0.77860147100E+02  0.47000000000E+01 0.  1.
         -5    1    4    4    0  502 -0.53190495400E+02 -0.27227260838E+02 -0.15928567776E+02  0.62019043890E+02  0.47000000000E+01 0.  1.
          5    1    5    5  503    0  0.73403341859E+00 -0.32079214243E+02 -0.38715945345E+02  0.50503754469E+02  0.47000000000E+01 0. -1.
         -5    1    5    5    0  503 -0.21345938283E+02  0.83579679932E+02  0.16355211641E+02  0.87924939162E+02  0.47000000000E+01 0. -1.
<mgrwt>
<rscale>  0 0.27537149E+03</rscale>
<asrwt>0</asrwt>
<pdfrwt beam="1">  1        1 0.24509951E-01 0.27537149E+03</pdfrwt>
<pdfrwt beam="2">  1       -1 0.18306647E-01 0.27537149E+03</pdfrwt>
<totfact> 0.45434515E+03</totfact>
</mgrwt>
</event>
<event>
 9    1  0.7816570E-001  0.2813653E+03  0.7818608E-02  0.1094946E+00
         -2   -1    0    0    0  501 -0.00000000000E+00  0.00000000000E+00  0.11575011702E+03  0.11575011702E+03  0.00000000000E+00 0.  1.
          2   -1    0    0  501    0  0.00000000000E+00 -0.00000000000E+00 -0.17098567257E+03  0.17098567257E+03  0.00000000000E+00 0.  1.
         35    2    1    2    0    0  0.00000000000E+00 -0.71054273576E-14 -0.55235555547E+02  0.28673578959E+03  0.28136532558E+03 0.  0.
         25    2    3    3    0    0  0.60438924262E+02 -0.19808457221E+02 -0.64748034926E+02  0.14878612831E+03  0.11789726633E+03 0.  0.
         25    2    3    3    0    0 -0.60438924262E+02  0.19808457221E+02  0.95124793793E+01  0.13794966129E+03  0.12204254685E+03 0.  0.
          5    1    4    4  502    0  0.75603331742E+02 -0.56156615343E+02 -0.45518813467E+02  0.10470664543E+03  0.47000000000E+01 0. -1.
         -5    1    4    4    0  502 -0.15164407480E+02  0.36348158122E+02 -0.19229221459E+02  0.44079482881E+02  0.47000000000E+01 0. -1.
          5    1    5    5  503    0 -0.39539701802E+02  0.43185703385E+02 -0.45602794161E+02  0.74364627550E+02  0.47000000000E+01 0. -1.
         -5    1    5    5    0  503 -0.20899222460E+02 -0.23377246164E+02  0.55115273540E+02  0.63585033735E+02  0.47000000000E+01 0. -1.
<mgrwt>
<rscale>  0 0.28136533E+03</rscale>
<asrwt>0</asrwt>
<pdfrwt beam="1">  1        2 0.26305488E-01 0.28136533E+03</pdfrwt>
<pdfrwt beam="2">  1       -2 0.17807710E-01 0.28136533E+03</pdfrwt>
<totfact> 0.51786743E+03</totfact>
</mgrwt>
</event>
<event>
 9    1  0.7816570E-001  0.2762362E+03  0.7818608E-02  0.1097763E+00
          2   -1    0    0  501    0  0.00000000000E+00  0.00000000000E+00  0.17201942662E+02  0.17201942662E+02  0.00000000000E+00 0.  1.
         -2   -1    0    0    0  501 -0.00000000000E+00 -0.00000000000E+00 -0.11089801448E+04  0.11089801448E+04  0.00000000000E+00 0.  1.
         35    2    1    2    0    0  0.00000000000E+00  0.35527136788E-14 -0.10917782021E+04  0.11261820874E+04  0.27623622401E+03 0.  0.
         25    2    3    3    0    0  0.43145934783E+02  0.31596785265E+02 -0.46523103659E+03  0.48493172335E+03  0.12593224522E+03 0.  0.
         25    2    3    3    0    0 -0.43145934783E+02 -0.31596785265E+02 -0.62654716551E+03  0.64125036407E+03  0.12562145628E+03 0.  0.
          5    1    4    4  502    0  0.72040308593E+02  0.61362371711E+02 -0.30724033576E+03  0.32151805648E+03  0.47000000000E+01 0.  1.
         -5    1    4    4    0  502 -0.28894373810E+02 -0.29765586446E+02 -0.15799070083E+03  0.16341366688E+03  0.47000000000E+01 0.  1.
          5    1    5    5  503    0 -0.24169614338E+02 -0.19841511862E+01 -0.15475680999E+02  0.29149507981E+02  0.47000000000E+01 0.  1.
         -5    1    5    5    0  503 -0.18976320445E+02 -0.29612634079E+02 -0.61107148452E+03  0.61210085609E+03  0.47000000000E+01 0.  1.
<mgrwt>
<rscale>  0 0.27623622E+03</rscale>
<asrwt>0</asrwt>
<pdfrwt beam="1">  1        2 0.26464522E-02 0.27623622E+03</pdfrwt>
<pdfrwt beam="2">  1       -2 0.17061237E+00 0.27623622E+03</pdfrwt>
<totfact> 0.83890281E+02</totfact>
</mgrwt>
</event>
<event>
 9    1  0.7816570E-001  0.2699754E+03  0.7818608E-02  0.1101294E+00
          4   -1    0    0  501    0  0.00000000000E+00  0.00000000000E+00  0.20720975111E+03  0.20720975111E+03  0.00000000000E+00 0. -1.
         -4   -1    0    0    0  501 -0.00000000000E+00 -0.00000000000E+00 -0.87938333879E+02  0.87938333879E+02  0.00000000000E+00 0. -1.
         35    2    1    2    0    0  0.71054273576E-14  0.00000000000E+00  0.11927141723E+03  0.29514808499E+03  0.26997540833E+03 0.  0.
         25    2    3    3    0    0  0.48067559498E+02  0.18558167095E+02  0.49798286733E+02  0.14374825362E+03  0.12461458669E+03 0.  0.
         25    2    3    3    0    0 -0.48067559498E+02 -0.18558167095E+02  0.69473130498E+02  0.15139983137E+03  0.12425979734E+03 0.  0.
          5    1    4    4  502    0 -0.21304143135E+02  0.47432902719E+02 -0.21888914383E+01  0.52255411402E+02  0.47000000000E+01 0.  1.
         -5    1    4    4    0  502  0.69371702633E+02 -0.28874735624E+02  0.51987178171E+02  0.91492842222E+02  0.47000000000E+01 0.  1.
          5    1    5    5  503    0 -0.73816569735E+02  0.11736783411E+02  0.44297907885E+01  0.75022337331E+02  0.47000000000E+01 0. -1.
         -5    1    5    5    0  503  0.25749010237E+02 -0.30294950505E+02  0.65043339710E+02  0.76377494034E+02  0.47000000000E+01 0. -1.
<mgrwt>
<rscale>  0 0.26997541E+03</rscale>
<asrwt>0</asrwt>
<pdfrwt beam="1">  1        4 0.31878423E-01 0.26997541E+03</pdfrwt>
<pdfrwt beam="2">  1       -4 0.13528975E-01 0.26997541E+03</pdfrwt>
<totfact> 0.79963099E+02</totfact>
</mgrwt>
</event>
<event>
 9    1  0.7816570E-001  0.2754698E+03  0.7818608E-02  0.1098189E+00
         -3   -1    0    0    0  501 -0.00000000000E+00  0.00000000000E+00  0.50958160628E+03  0.50958160628E+03  0.00000000000E+00 0.  1.
          3   -1    0    0  501    0  0.00000000000E+00 -0.00000000000E+00 -0.37228394935E+02  0.37228394935E+02  0.00000000000E+00 0.  1.
         35    2    1    2    0    0  0.00000000000E+00 -0.71054273576E-14  0.47235321134E+03  0.54681000121E+03  0.27546981897E+03 0.  0.
         25    2    3    3    0    0 -0.15457775221E+02  0.45778358775E+02  0.28854163905E+03  0.31835402650E+03  0.12553249690E+03 0.  0.
         25    2    3    3    0    0  0.15457775221E+02 -0.45778358775E+02  0.18381157230E+03  0.22845597471E+03  0.12677080628E+03 0.  0.
          5    1    4    4  502    0 -0.24417574601E+02  0.82991429268E+02  0.24660875276E+03  0.26138431900E+03  0.47000000000E+01 0.  1.
         -5    1    4    4    0  502  0.89597993793E+01 -0.37213070493E+02  0.41932886293E+02  0.56969707506E+02  0.47000000000E+01 0.  1.
          5    1    5    5  503    0  0.34510242224E+02  0.35789293356E+02  0.87329127723E+02  0.10059968631E+03  0.47000000000E+01 0. -1.
         -5    1    5    5    0  503 -0.19052467002E+02 -0.81567652130E+02  0.96482444573E+02  0.12785628840E+03  0.47000000000E+01 0. -1.
<mgrwt>
<rscale>  0 0.27546982E+03</rscale>
<asrwt>0</asrwt>
<pdfrwt beam="1">  1        3 0.57274457E-02 0.27546982E+03</pdfrwt>
<pdfrwt beam="2">  1       -3 0.78397165E-01 0.27546982E+03</pdfrwt>
<totfact> 0.72614578E+02</totfact>
</mgrwt>
</event>
<event>
 9    1  0.7816570E-001  0.2801266E+03  0.7818608E-02  0.1095620E+00
          1   -1    0    0  501    0  0.00000000000E+00  0.00000000000E+00  0.16182535951E+04  0.16182535951E+04  0.00000000000E+00 0. -1.
         -1   -1    0    0    0  501 -0.00000000000E+00 -0.00000000000E+00 -0.12122779496E+02  0.12122779496E+02  0.00000000000E+00 0. -1.
         35    2    1    2    0    0  0.71054273576E-14  0.00000000000E+00  0.16061308156E+04  0.16303763746E+04  0.28012662495E+03 0.  0.
         25    2    3    3    0    0 -0.26849630161E+02 -0.50110379360E+02  0.87981404325E+03  0.89105996839E+03  0.12916332219E+03 0.  0.
         25    2    3    3    0    0  0.26849630161E+02  0.50110379360E+02  0.72631677232E+03  0.73931640617E+03  0.12578053080E+03 0.  0.
          5    1    4    4  502    0 -0.54374521823E+02  0.20675221503E+02  0.52147010015E+03  0.52472584152E+03  0.47000000000E+01 0.  1.
         -5    1    4    4    0  502  0.27524891661E+02 -0.70785600863E+02  0.35834394310E+03  0.36633412686E+03  0.47000000000E+01 0.  1.
          5    1    5    5  503    0 -0.39635725565E+02  0.52873637526E+02  0.46131058640E+03  0.46604308751E+03  0.47000000000E+01 0.  1.
         -5    1    5    5    0  503  0.66485355726E+02 -0.27632581659E+01  0.26500618591E+03  0.27327331866E+03  0.47000000000E+01 0.  1.
<mgrwt>
<rscale>  0 0.28012662E+03</rscale>
<asrwt>0</asrwt>
<pdfrwt beam="1">  1        1 0.24896192E+00 0.28012662E+03</pdfrwt>
<pdfrwt beam="2">  1       -1 0.18650443E-02 0.28012662E+03</pdfrwt>
<totfact> 0.45423328E+03</totfact>
</mgrwt>
</event>
<event>
 9    1  0.7816570E-001  0.2768836E+03  0.7818608E-02  0.1097403E+00
          1   -1    0    0  501    0  0.00000000000E+00  0.00000000000E+00  0.46917764112E+03  0.46917764112E+03  0.00000000000E+00 0. -1.
         -1   -1    0    0    0  501 -0.00000000000E+00 -0.00000000000E+00 -0.40850479378E+02  0.40850479378E+02  0.00000000000E+00 0. -1.
         35    2    1    2    0    0  0.00000000000E+00  0.00000000000E+00  0.42832716174E+03  0.51002812050E+03  0.27688359687E+03 0.  0.
         25    2    3    3    0    0  0.45935640958E+01  0.45228478596E+02  0.28380452754E+03  0.31393149845E+03  0.12625870172E+03 0.  0.
         25    2    3    3    0    0 -0.45935640958E+01 -0.45228478596E+02  0.14452263421E+03  0.19609662205E+03  0.12450051114E+03 0.  0.
          5    1    4    4  502    0  0.52586775220E+02  0.63429093906E+02  0.16808263122E+03  0.18724977918E+03  0.47000000000E+01 0.  1.
         -5    1    4    4    0  502 -0.47993211124E+02 -0.18200615310E+02  0.11572189631E+03  0.12668171927E+03  0.47000000000E+01 0.  1.
          5    1    5    5  503    0  0.43996283181E+02  0.10904927914E+02  0.17345456670E+02  0.48760078483E+02  0.47000000000E+01 0. -1.
         -5    1    5    5    0  503 -0.48589847277E+02 -0.56133406509E+02  0.12717717754E+03  0.14733654357E+03  0.47000000000E+01 0. -1.
<mgrwt>
<rscale>  0 0.27688360E+03</rscale>
<asrwt>0</asrwt>
<pdfrwt beam="1">  1        1 0.72181172E-01 0.27688360E+03</pdfrwt>
<pdfrwt beam="2">  1       -1 0.62846895E-02 0.27688360E+03</pdfrwt>
<totfact> 0.60925157E+03</totfact>
</mgrwt>
</event>
<event>
 9    1  0.7816570E-001  0.2752307E+03  0.7818608E-02  0.1098323E+00
          2   -1    0    0  501    0  0.00000000000E+00  0.00000000000E+00  0.28121865319E+04  0.28121865319E+04  0.00000000000E+00 0. -1.
         -2   -1    0    0    0  501 -0.00000000000E+00 -0.00000000000E+00 -0.67342559581E+01  0.67342559581E+01  0.00000000000E+00 0. -1.
         35    2    1    2    0    0 -0.71054273576E-14 -0.71054273576E-14  0.28054522759E+04  0.28189207879E+04  0.27523069529E+03 0.  0.
         25    2    3    3    0    0  0.35312519898E+02 -0.44694219072E+02  0.14797073937E+04  0.14861104536E+04  0.12548211905E+03 0.  0.
         25    2    3    3    0    0 -0.35312519898E+02  0.44694219072E+02  0.13257448823E+04  0.13328103342E+04  0.12465691676E+03 0.  0.
          5    1    4    4  502    0 -0.13735073497E+02 -0.57864146774E+02  0.33521030473E+03  0.34047753248E+03  0.47000000000E+01 0.  1.
         -5    1    4    4    0  502  0.49047593395E+02  0.13169927702E+02  0.11444970889E+04  0.11456329211E+04  0.47000000000E+01 0.  1.
          5    1    5    5  503    0 -0.28448853075E+02 -0.40798594137E+02  0.57543257445E+03  0.57759726476E+03  0.47000000000E+01 0. -1.
         -5    1    5    5    0  503 -0.68636668224E+01  0.85492813209E+02  0.75031230784E+03  0.75521306949E+03  0.47000000000E+01 0. -1.
<mgrwt>
<rscale>  0 0.27523070E+03</rscale>
<asrwt>0</asrwt>
<pdfrwt beam="1">  1        2 0.43264314E+00 0.27523070E+03</pdfrwt>
<pdfrwt beam="2">  1       -2 0.10360416E-02 0.27523070E+03</pdfrwt>
<totfact> 0.54293740E+03</totfact>
</mgrwt>
</event>
<event>
 9    1  0.7816570E-001  0.2754701E+03  0.7818608E-02  0.1098189E+00
          2   -1    0    0  501    0  0.00000000000E+00  0.00000000000E+00  0.11834479233E+04  0.11834479233E+04  0.00000000000E+00 0. -1.
         -2   -1    0    0    0  501 -0.00000000000E+00 -0.00000000000E+00 -0.16030235391E+02  0.16030235391E+02  0.00000000000E+00 0. -1.
         35    2    1    2    0    0  0.00000000000E+00  0.00000000000E+00  0.11674176879E+04  0.11994781587E+04  0.27547013474E+03 0.  0.
         25    2    3    3    0    0  0.39749424073E+02  0.35310530083E+02  0.72304531207E+03  0.73502485440E+03  0.12099654136E+03 0.  0.
         25    2    3    3    0    0 -0.39749424073E+02 -0.35310530083E+02  0.44437237584E+03  0.46445330430E+03  0.12419022995E+03 0.  0.
          5    1    4    4  502    0  0.31504276615E+02  0.32548311099E+02  0.72368801056E+03  0.72511953403E+03  0.47000000000E+01 0. -1.
         -5    1    4    4    0  502  0.82451474574E+01  0.27622189835E+01 -0.64269848504E+00  0.99053203709E+01  0.47000000000E+01 0. -1.
          5    1    5    5  503    0 -0.14792743705E+02 -0.50872142991E+02  0.42632101363E+03  0.42962599650E+03  0.47000000000E+01 0.  1.
         -5    1    5    5    0  503 -0.24956680368E+02  0.15561612908E+02  0.18051362207E+02  0.34827307803E+02  0.47000000000E+01 0.  1.
<mgrwt>
<rscale>  0 0.27547013E+03</rscale>
<asrwt>0</asrwt>
<pdfrwt beam="1">  1        2 0.18206884E+00 0.27547013E+03</pdfrwt>
<pdfrwt beam="2">  1       -2 0.24661910E-02 0.27547013E+03</pdfrwt>
<totfact> 0.11565788E+04</totfact>
</mgrwt>
</event>
<event>
 9    1  0.7816570E-001  0.2740425E+03  0.7818608E-02  0.1098988E+00
          1   -1    0    0  501    0  0.00000000000E+00  0.00000000000E+00  0.88192845978E+02  0.88192845978E+02  0.00000000000E+00 0.  1.
         -1   -1    0    0    0  501 -0.00000000000E+00 -0.00000000000E+00 -0.21288381055E+03  0.21288381055E+03  0.00000000000E+00 0.  1.
         35    2    1    2    0    0  0.00000000000E+00  0.00000000000E+00 -0.12469096457E+03  0.30107665653E+03  0.27404254498E+03 0.  0.
         25    2    3    3    0    0  0.22149987105E+01  0.40352914349E+02 -0.78021117818E+01  0.13175358804E+03  0.12515938277E+03 0.  0.
         25    2    3    3    0    0 -0.22149987105E+01 -0.40352914349E+02 -0.11688885279E+03  0.16932306849E+03  0.11564615731E+03 0.  0.
          5    1    4    4  502    0  0.35533743438E+02  0.67195751278E+02 -0.31733240218E+02  0.82504572281E+02  0.47000000000E+01 0.  1.
         -5    1    4    4    0  502 -0.33318744728E+02 -0.26842836929E+02  0.23931128436E+02  0.49249015755E+02  0.47000000000E+01 0.  1.
          5    1    5    5  503    0  0.20784978305E+02  0.20150649420E+02 -0.97163624324E+02  0.10149346721E+03  0.47000000000E+01 0.  1.
         -5    1    5    5    0  503 -0.22999977015E+02 -0.60503563769E+02 -0.19725228465E+02  0.67829601277E+02  0.47000000000E+01 0.  1.
<mgrwt>
<rscale>  0 0.27404254E+03</rscale>
<asrwt>0</asrwt>
<pdfrwt beam="1">  1        1 0.13568130E-01 0.27404254E+03</pdfrwt>
<pdfrwt beam="2">  1       -1 0.32751355E-01 0.27404254E+03</pdfrwt>
<totfact> 0.37186950E+03</totfact>
</mgrwt>
</event>
<event>
 9    1  0.7816570E-001  0.2752095E+03  0.7818608E-02  0.1098335E+00
          2   -1    0    0  501    0  0.00000000000E+00  0.00000000000E+00  0.56874671819E+03  0.56874671819E+03  0.00000000000E+00 0.  1.
         -2   -1    0    0    0  501 -0.00000000000E+00 -0.00000000000E+00 -0.33292616022E+02  0.33292616022E+02  0.00000000000E+00 0.  1.
         35    2    1    2    0    0 -0.71054273576E-14  0.71054273576E-14  0.53545410217E+03  0.60203933421E+03  0.27520949186E+03 0.  0.
         25    2    3    3    0    0  0.48229535259E+02  0.27434366416E+02  0.31491268571E+03  0.34347857131E+03  0.12541449995E+03 0.  0.
         25    2    3    3    0    0 -0.48229535259E+02 -0.27434366416E+02  0.22054141646E+03  0.25856076290E+03  0.12303015568E+03 0.  0.
          5    1    4    4  502    0  0.28897657320E+02  0.33796400790E+02  0.31906452380E+03  0.32218245087E+03  0.47000000000E+01 0.  1.
         -5    1    4    4    0  502  0.19331877939E+02 -0.63620343738E+01 -0.41518380911E+01  0.21296120434E+02  0.47000000000E+01 0.  1.
          5    1    5    5  503    0  0.26599493344E+02 -0.26758474572E+02  0.15297522110E+03  0.15762949368E+03  0.47000000000E+01 0. -1.
         -5    1    5    5    0  503 -0.74829028603E+02 -0.67589184409E+00  0.67566195363E+02  0.10093126922E+03  0.47000000000E+01 0. -1.
<mgrwt>
<rscale>  0 0.27520949E+03</rscale>
<asrwt>0</asrwt>
<pdfrwt beam="1">  1        2 0.87499488E-01 0.27520949E+03</pdfrwt>
<pdfrwt beam="2">  1       -2 0.51219413E-02 0.27520949E+03</pdfrwt>
<totfact> 0.10085143E+04</totfact>
</mgrwt>
</event>
<event>
 9    1  0.7816570E-001  0.2841609E+03  0.7818608E-02  0.1093438E+00
          2   -1    0    0  501    0  0.00000000000E+00  0.00000000000E+00  0.19535954798E+04  0.19535954798E+04  0.00000000000E+00 0. -1.
         -2   -1    0    0    0  501 -0.00000000000E+00 -0.00000000000E+00 -0.10333177407E+02  0.10333177407E+02  0.00000000000E+00 0. -1.
         35    2    1    2    0    0  0.14210854715E-13 -0.35527136788E-14  0.19432623024E+04  0.19639286572E+04  0.28416086060E+03 0.  0.
         25    2    3    3    0    0 -0.64208758786E+02 -0.98006433095E+01  0.11121010439E+04  0.11209928514E+04  0.12504968548E+03 0.  0.
         25    2    3    3    0    0  0.64208758786E+02  0.98006433095E+01  0.83116125847E+03  0.84293580574E+03  0.12447054952E+03 0.  0.
          5    1    4    4  502    0  0.35945840698E+02  0.10145554507E+02  0.24272048227E+03  0.24562238956E+03  0.47000000000E+01 0. -1.
         -5    1    4    4    0  502 -0.10015459948E+03 -0.19946197817E+02  0.86938056162E+03  0.87537046188E+03  0.47000000000E+01 0. -1.
          5    1    5    5  503    0 -0.30663081842E+02  0.20016259240E+02  0.37888834823E+03  0.38068273621E+03  0.47000000000E+01 0.  1.
         -5    1    5    5    0  503  0.94871840627E+02 -0.10215615931E+02  0.45227291024E+03  0.46225306953E+03  0.47000000000E+01 0.  1.
<mgrwt>
<rscale>  0 0.28416086E+03</rscale>
<asrwt>0</asrwt>
<pdfrwt beam="1">  1        2 0.30055286E+00 0.28416086E+03</pdfrwt>
<pdfrwt beam="2">  1       -2 0.15897212E-02 0.28416086E+03</pdfrwt>
<totfact> 0.85186477E+03</totfact>
</mgrwt>
</event>
<event>
 9    1  0.7816570E-001  0.2746290E+03  0.7818608E-02  0.1098659E+00
          2   -1    0    0  501    0  0.00000000000E+00  0.00000000000E+00  0.15090210731E+02  0.15090210731E+02  0.00000000000E+00 0.  1.
         -2   -1    0    0    0  501 -0.00000000000E+00 -0.00000000000E+00 -0.12495032904E+04  0.12495032904E+04  0.00000000000E+00 0.  1.
         35    2    1    2    0    0  0.00000000000E+00  0.00000000000E+00 -0.12344130796E+04  0.12645935011E+04  0.27462897124E+03 0.  0.
         25    2    3    3    0    0 -0.45403125091E+02 -0.30947699980E+02 -0.68723656018E+03  0.70062907213E+03  0.12477100289E+03 0.  0.
         25    2    3    3    0    0  0.45403125091E+02  0.30947699980E+02 -0.54717651945E+03  0.56396442897E+03  0.12503811338E+03 0.  0.
          5    1    4    4  502    0  0.43370860574E+02 -0.63870588339E+01 -0.22725993891E+03  0.23149729135E+03  0.47000000000E+01 0.  1.
         -5    1    4    4    0  502 -0.88773985665E+02 -0.24560641146E+02 -0.45997662126E+03  0.46913178078E+03  0.47000000000E+01 0.  1.
          5    1    5    5  503    0  0.66406438917E+02  0.29372029455E+02 -0.53344719717E+03  0.53838697367E+03  0.47000000000E+01 0.  1.
         -5    1    5    5    0  503 -0.21003313826E+02  0.15756705252E+01 -0.13729322279E+02  0.25577455298E+02  0.47000000000E+01 0.  1.
<mgrwt>
<rscale>  0 0.27462897E+03</rscale>
<asrwt>0</asrwt>
<pdfrwt beam="1">  1        2 0.23215716E-02 0.27462897E+03</pdfrwt>
<pdfrwt beam="2">  1       -2 0.19223122E+00 0.27462897E+03</pdfrwt>
<totfact> 0.72061596E+02</totfact>
</mgrwt>
</event>
<event>
 9    1  0.7816570E-001  0.2765795E+03  0.7818608E-02  0.1097572E+00
         -2   -1    0    0    0  501 -0.00000000000E+00  0.00000000000E+00  0.10048422171E+02  0.10048422171E+02  0.00000000000E+00 0.  1.
          2   -1    0    0  501    0  0.00000000000E+00 -0.00000000000E+00 -0.19031897460E+04  0.19031897460E+04  0.00000000000E+00 0.  1.
         35    2    1    2    0    0  0.00000000000E+00 -0.71054273576E-14 -0.18931413238E+04  0.19132381681E+04  0.27657949337E+03 0.  0.
         25    2    3    3    0    0  0.25399823671E+02 -0.53926426129E+02 -0.90840816008E+03  0.91880987016E+03  0.12431002261E+03 0.  0.
         25    2    3    3    0    0 -0.25399823671E+02  0.53926426129E+02 -0.98473316372E+03  0.99442829798E+03  0.12504009606E+03 0.  0.
          5    1    4    4  502    0 -0.16890604364E+02 -0.14931312292E+02 -0.74765363733E+03  0.74800821386E+03  0.47000000000E+01 0.  1.
         -5    1    4    4    0  502  0.42290428034E+02 -0.38995113836E+02 -0.16075452276E+03  0.17080165629E+03  0.47000000000E+01 0.  1.
          5    1    5    5  503    0 -0.38948508262E+00 -0.20928773604E+02 -0.65491160055E+03  0.65526289365E+03  0.47000000000E+01 0.  1.
         -5    1    5    5    0  503 -0.25010338588E+02  0.74855199732E+02 -0.32982156317E+03  0.33916540433E+03  0.47000000000E+01 0.  1.
<mgrwt>
<rscale>  0 0.27657949E+03</rscale>
<asrwt>0</asrwt>
<pdfrwt beam="1">  1        2 0.29279861E+00 0.27657949E+03</pdfrwt>
<pdfrwt beam="2">  1       -2 0.15459101E-02 0.27657949E+03</pdfrwt>
<totfact> 0.94302722E+03</totfact>
</mgrwt>
</event>
<event>
 9    1  0.7816570E-001  0.2843621E+03  0.7818608E-02  0.1093330E+00
          1   -1    0    0  501    0  0.00000000000E+00  0.00000000000E+00  0.41800194412E+03  0.41800194412E+03  0.00000000000E+00 0.  1.
         -1   -1    0    0    0  501 -0.00000000000E+00 -0.00000000000E+00 -0.48362094821E+02  0.48362094821E+02  0.00000000000E+00 0.  1.
         35    2    1    2    0    0 -0.14210854715E-13  0.00000000000E+00  0.36963984930E+03  0.46636403894E+03  0.28436209070E+03 0.  0.
         25    2    3    3    0    0 -0.35155089123E+02  0.42339127101E+02  0.11728755716E+03  0.17881505539E+03  0.12324760036E+03 0.  0.
         25    2    3    3    0    0  0.35155089123E+02 -0.42339127101E+02  0.25235229214E+03  0.28754898355E+03  0.12638930580E+03 0.  0.
          5    1    4    4  502    0  0.33450783567E+02 -0.12329666703E+02  0.50917453740E+01  0.36317922203E+02  0.47000000000E+01 0. -1.
         -5    1    4    4    0  502 -0.68605872690E+02  0.54668793804E+02  0.11219581179E+03  0.14249713319E+03  0.47000000000E+01 0. -1.
          5    1    5    5  503    0  0.18353662316E+02 -0.86659369945E+02  0.18364336936E+03  0.20394528783E+03  0.47000000000E+01 0. -1.
         -5    1    5    5    0  503  0.16801426807E+02  0.44320242844E+02  0.68708922778E+02  0.83603695719E+02  0.47000000000E+01 0. -1.
<mgrwt>
<rscale>  0 0.28436209E+03</rscale>
<asrwt>0</asrwt>
<pdfrwt beam="1">  1        1 0.64307989E-01 0.28436209E+03</pdfrwt>
<pdfrwt beam="2">  1       -1 0.74403226E-02 0.28436209E+03</pdfrwt>
<totfact> 0.54849930E+03</totfact>
</mgrwt>
</event>
<event>
 9    1  0.7816570E-001  0.2734504E+03  0.7818608E-02  0.1099321E+00
         -1   -1    0    0    0  501 -0.00000000000E+00  0.00000000000E+00  0.22726510665E+03  0.22726510665E+03  0.00000000000E+00 0. -1.
          1   -1    0    0  501    0  0.00000000000E+00 -0.00000000000E+00 -0.82255386552E+02  0.82255386552E+02  0.00000000000E+00 0. -1.
         35    2    1    2    0    0  0.00000000000E+00 -0.71054273576E-14  0.14500972010E+03  0.30952049320E+03  0.27345039182E+03 0.  0.
         25    2    3    3    0    0 -0.17986897739E+02  0.15947111764E+02  0.11883854165E+03  0.17900830327E+03  0.13169485486E+03 0.  0.
         25    2    3    3    0    0  0.17986897739E+02 -0.15947111764E+02  0.26171178453E+02  0.13051218993E+03  0.12558129747E+03 0.  0.
          5    1    4    4  502    0 -0.52079064326E+01 -0.51054143228E+02  0.13238414973E+02  0.53207080931E+02  0.47000000000E+01 0. -1.
         -5    1    4    4    0  502 -0.12778991307E+02  0.67001254992E+02  0.10560012667E+03  0.12580122234E+03  0.47000000000E+01 0. -1.
          5    1    5    5  503    0 -0.95010592460E+01  0.48376471311E+02 -0.11616821111E+02  0.50868395257E+02  0.47000000000E+01 0.  1.
         -5    1    5    5    0  503  0.27487956986E+02 -0.64323583075E+02  0.37787999564E+02  0.79643794673E+02  0.47000000000E+01 0.  1.
<mgrwt>
<rscale>  0 0.27345039E+03</rscale>
<asrwt>0</asrwt>
<pdfrwt beam="1">  1        1 0.12654675E-01 0.27345039E+03</pdfrwt>
<pdfrwt beam="2">  1       -1 0.34963862E-01 0.27345039E+03</pdfrwt>
<totfact> 0.36417930E+03</totfact>
</mgrwt>
</event>
<event>
 9    1  0.7816570E-001  0.2761761E+03  0.7818608E-02  0.1097796E+00
          3   -1    0    0  501    0  0.00000000000E+00  0.00000000000E+00  0.17181634029E+03  0.17181634029E+03  0.00000000000E+00 0. -1.
         -3   -1    0    0    0  501 -0.00000000000E+00 -0.00000000000E+00 -0.11098073304E+03  0.11098073304E+03  0.00000000000E+00 0. -1.
         35    2    1    2    0    0  0.00000000000E+00  0.00000000000E+00  0.60835607248E+02  0.28279707333E+03  0.27617605539E+03 0.  0.
         25    2    3    3    0    0  0.23882845664E+02 -0.51853963997E+02  0.49052640940E+02  0.14543945335E+03  0.12444777663E+03 0.  0.
         25    2    3    3    0    0 -0.23882845664E+02  0.51853963997E+02  0.11782966307E+02  0.13735761997E+03  0.12437465003E+03 0.  0.
          5    1    4    4  502    0  0.15715623864E+02  0.29055243616E+02  0.54389994701E+02  0.63808694851E+02  0.47000000000E+01 0. -1.
         -5    1    4    4    0  502  0.81672218004E+01 -0.80909207613E+02 -0.53373537602E+01  0.81630758503E+02  0.47000000000E+01 0. -1.
          5    1    5    5  503    0  0.32690184195E+02 -0.29290390366E+01  0.41444316873E+02  0.53074935831E+02  0.47000000000E+01 0.  1.
         -5    1    5    5    0  503 -0.56573029859E+02  0.54783003034E+02 -0.29661350565E+02  0.84282684142E+02  0.47000000000E+01 0.  1.
<mgrwt>
<rscale>  0 0.27617606E+03</rscale>
<asrwt>0</asrwt>
<pdfrwt beam="1">  1        3 0.26433283E-01 0.27617606E+03</pdfrwt>
<pdfrwt beam="2">  1       -3 0.17073959E-01 0.27617606E+03</pdfrwt>
<totfact> 0.10236185E+03</totfact>
</mgrwt>
</event>
<event>
 9    1  0.7816570E-001  0.2776766E+03  0.7818608E-02  0.1096965E+00
         -1   -1    0    0    0  501 -0.00000000000E+00  0.00000000000E+00  0.75714521023E+02  0.75714521023E+02  0.00000000000E+00 0. -1.
          1   -1    0    0  501    0  0.00000000000E+00 -0.00000000000E+00 -0.25458893023E+03  0.25458893023E+03  0.00000000000E+00 0. -1.
         35    2    1    2    0    0  0.00000000000E+00  0.00000000000E+00 -0.17887440921E+03  0.33030345125E+03  0.27767663863E+03 0.  0.
         25    2    3    3    0    0 -0.42906340084E+01  0.46468721554E+02 -0.56069643365E+02  0.14501151235E+03  0.12532670180E+03 0.  0.
         25    2    3    3    0    0  0.42906340084E+01 -0.46468721554E+02 -0.12280476584E+03  0.18529193890E+03  0.13066881987E+03 0.  0.
          5    1    4    4  502    0  0.16526712449E+02  0.49843392893E+02 -0.90281388994E+02  0.10454814794E+03  0.47000000000E+01 0. -1.
         -5    1    4    4    0  502 -0.20817346457E+02 -0.33746713388E+01  0.34211745630E+02  0.40463364408E+02  0.47000000000E+01 0. -1.
          5    1    5    5  503    0  0.66621006776E+02 -0.29667624787E+02 -0.54290697378E+02  0.91038982454E+02  0.47000000000E+01 0.  1.
         -5    1    5    5    0  503 -0.62330372768E+02 -0.16801096767E+02 -0.68514068463E+02  0.94252956448E+02  0.47000000000E+01 0.  1.
<mgrwt>
<rscale>  0 0.27767664E+03</rscale>
<asrwt>0</asrwt>
<pdfrwt beam="1">  1        1 0.39167529E-01 0.27767664E+03</pdfrwt>
<pdfrwt beam="2">  1       -1 0.11648388E-01 0.27767664E+03</pdfrwt>
<totfact> 0.51481047E+03</totfact>
</mgrwt>
</event>
<event>
 9    1  0.7816570E-001  0.2756876E+03  0.7818608E-02  0.1098068E+00
          2   -1    0    0  501    0  0.00000000000E+00  0.00000000000E+00  0.12438916313E+04  0.12438916313E+04  0.00000000000E+00 0.  1.
         -2   -1    0    0    0  501 -0.00000000000E+00 -0.00000000000E+00 -0.15275382083E+02  0.15275382083E+02  0.00000000000E+00 0.  1.
         35    2    1    2    0    0  0.71054273576E-14 -0.17763568394E-14  0.12286162492E+04  0.12591670134E+04  0.27568764889E+03 0.  0.
         25    2    3    3    0    0  0.45218435939E+02 -0.12082062805E+02  0.73091272999E+03  0.74334915375E+03  0.12705849969E+03 0.  0.
         25    2    3    3    0    0 -0.45218435939E+02  0.12082062805E+02  0.49770351925E+03  0.51581785964E+03  0.12715576301E+03 0.  0.
          5    1    4    4  502    0  0.18571900785E+02 -0.64864839190E+02  0.51555695287E+03  0.51997444602E+03  0.47000000000E+01 0. -1.
         -5    1    4    4    0  502  0.26646535154E+02  0.52782776384E+02  0.21535577712E+03  0.22337470774E+03  0.47000000000E+01 0. -1.
          5    1    5    5  503    0  0.37194040018E+02 -0.52768002077E+00  0.28257097855E+03  0.28504758020E+03  0.47000000000E+01 0. -1.
         -5    1    5    5    0  503 -0.82412475957E+02  0.12609742826E+02  0.21513254069E+03  0.23077027944E+03  0.47000000000E+01 0. -1.
<mgrwt>
<rscale>  0 0.27568765E+03</rscale>
<asrwt>0</asrwt>
<pdfrwt beam="1">  1        2 0.19136786E+00 0.27568765E+03</pdfrwt>
<pdfrwt beam="2">  1       -2 0.23500598E-02 0.27568765E+03</pdfrwt>
<totfact> 0.11479768E+04</totfact>
</mgrwt>
</event>
<event>
 9    1  0.7816570E-001  0.2752780E+03  0.7818608E-02  0.1098296E+00
          2   -1    0    0  501    0  0.00000000000E+00  0.00000000000E+00  0.93194579412E+03  0.93194579412E+03  0.00000000000E+00 0.  1.
         -2   -1    0    0    0  501 -0.00000000000E+00 -0.00000000000E+00 -0.20327897986E+02  0.20327897986E+02  0.00000000000E+00 0.  1.
         35    2    1    2    0    0 -0.10658141036E-13  0.00000000000E+00  0.91161789613E+03  0.95227369210E+03  0.27527803423E+03 0.  0.
         25    2    3    3    0    0 -0.26868886248E+02 -0.39614197163E+02  0.57749068256E+03  0.59260424423E+03  0.12406885255E+03 0.  0.
         25    2    3    3    0    0  0.26868886248E+02  0.39614197163E+02  0.33412721358E+03  0.35966944788E+03  0.12421712933E+03 0.  0.
          5    1    4    4  502    0  0.30329648572E+02  0.14903525543E+01  0.39711429821E+02  0.50211516525E+02  0.47000000000E+01 0.  1.
         -5    1    4    4    0  502 -0.57198534820E+02 -0.41104549718E+02  0.53777925273E+03  0.54239272770E+03  0.47000000000E+01 0.  1.
          5    1    5    5  503    0 -0.18242689743E+02 -0.14372068037E+02  0.24443235290E+03  0.24557812853E+03  0.47000000000E+01 0.  1.
         -5    1    5    5    0  503  0.45111575991E+02  0.53986265200E+02  0.89694860680E+02  0.11409131935E+03  0.47000000000E+01 0.  1.
<mgrwt>
<rscale>  0 0.27527803E+03</rscale>
<asrwt>0</asrwt>
<pdfrwt beam="1">  1        2 0.14337624E+00 0.27527803E+03</pdfrwt>
<pdfrwt beam="2">  1       -2 0.31273696E-02 0.27527803E+03</pdfrwt>
<totfact> 0.11499382E+04</totfact>
</mgrwt>
</event>
<event>
 9    1  0.7816570E-001  0.2683503E+03  0.7818608E-02  0.1102228E+00
         -1   -1    0    0    0  501 -0.00000000000E+00  0.00000000000E+00  0.84256103498E+01  0.84256103498E+01  0.00000000000E+00 0. -1.
          1   -1    0    0  501    0  0.00000000000E+00 -0.00000000000E+00 -0.21366961283E+04  0.21366961283E+04  0.00000000000E+00 0. -1.
         35    2    1    2    0    0 -0.35527136788E-14 -0.88817841970E-15 -0.21282705180E+04  0.21451217387E+04  0.26835028611E+03 0.  0.
         25    2    3    3    0    0  0.27637280925E+02 -0.73992870411E+00 -0.79243258138E+03  0.80313667994E+03  0.12772925994E+03 0.  0.
         25    2    3    3    0    0 -0.27637280925E+02  0.73992870411E+00 -0.13358379366E+04  0.13419850588E+04  0.12528582611E+03 0.  0.
          5    1    4    4  502    0 -0.13395518822E+02 -0.14627773944E+02 -0.70644462172E+03  0.70673863999E+03  0.47000000000E+01 0. -1.
         -5    1    4    4    0  502  0.41032799747E+02  0.13887845240E+02 -0.85987959658E+02  0.96398039953E+02  0.47000000000E+01 0. -1.
          5    1    5    5  503    0 -0.64016870504E+01 -0.66486714957E+01 -0.12956828389E+04  0.12957242359E+04  0.47000000000E+01 0. -1.
         -5    1    5    5    0  503 -0.21235593874E+02  0.73886001999E+01 -0.40155097707E+02  0.46260822863E+02  0.47000000000E+01 0. -1.
<mgrwt>
<rscale>  0 0.26835029E+03</rscale>
<asrwt>0</asrwt>
<pdfrwt beam="1">  1        1 0.32872286E+00 0.26835029E+03</pdfrwt>
<pdfrwt beam="2">  1       -1 0.12962463E-02 0.26835029E+03</pdfrwt>
<totfact> 0.35487382E+03</totfact>
</mgrwt>
</event>
<event>
 9    1  0.7816570E-001  0.2770549E+03  0.7818608E-02  0.1097308E+00
         -2   -1    0    0    0  501 -0.00000000000E+00  0.00000000000E+00  0.31969051498E+02  0.31969051498E+02  0.00000000000E+00 0. -1.
          2   -1    0    0  501    0  0.00000000000E+00 -0.00000000000E+00 -0.60026361272E+03  0.60026361272E+03  0.00000000000E+00 0. -1.
         35    2    1    2    0    0  0.17763568394E-14  0.71054273576E-14 -0.56829456122E+03  0.63223266422E+03  0.27705492847E+03 0.  0.
         25    2    3    3    0    0  0.10782563683E+02  0.58034688522E+02 -0.32695989763E+03  0.35466886417E+03  0.12410858069E+03 0.  0.
         25    2    3    3    0    0 -0.10782563683E+02 -0.58034688522E+02 -0.24133466358E+03  0.27756380004E+03  0.12375360397E+03 0.  0.
          5    1    4    4  502    0  0.27545473287E+02  0.39881547872E+02 -0.32587511862E+03  0.32949351116E+03  0.47000000000E+01 0.  1.
         -5    1    4    4    0  502 -0.16762909604E+02  0.18153140650E+02 -0.10847790126E+01  0.25175353014E+02  0.47000000000E+01 0.  1.
          5    1    5    5  503    0 -0.11516857780E+02  0.30045823970E+02 -0.13762629481E+03  0.14141597001E+03  0.47000000000E+01 0.  1.
         -5    1    5    5    0  503  0.73429409640E+00 -0.88080512492E+02 -0.10370836878E+03  0.13614783004E+03  0.47000000000E+01 0.  1.
<mgrwt>
<rscale>  0 0.27705493E+03</rscale>
<asrwt>0</asrwt>
<pdfrwt beam="1">  1        2 0.92348257E-01 0.27705493E+03</pdfrwt>
<pdfrwt beam="2">  1       -2 0.49183151E-02 0.27705493E+03</pdfrwt>
<totfact> 0.10081723E+04</totfact>
</mgrwt>
</event>
<event>
 9    1  0.7816570E-001  0.2665411E+03  0.7818608E-02  0.1103276E+00
          2   -1    0    0  501    0  0.00000000000E+00  0.00000000000E+00  0.52778053765E+02  0.52778053765E+02  0.00000000000E+00 0. -1.
         -2   -1    0    0    0  501 -0.00000000000E+00 -0.00000000000E+00 -0.33652316512E+03  0.33652316512E+03  0.00000000000E+00 0. -1.
         35    2    1    2    0    0 -0.35527136788E-14 -0.71054273576E-14 -0.28374511135E+03  0.38930121888E+03  0.26654108653E+03 0.  0.
         25    2    3    3    0    0  0.25982186784E+01  0.46982069912E+02 -0.14880466197E+03  0.19955367685E+03  0.12435745609E+03 0.  0.
         25    2    3    3    0    0 -0.25982186784E+01 -0.46982069912E+02 -0.13494044938E+03  0.18974754204E+03  0.12482443349E+03 0.  0.
          5    1    4    4  502    0 -0.58316787096E+02  0.20169761810E+02 -0.97099344505E+02  0.11514356105E+03  0.47000000000E+01 0. -1.
         -5    1    4    4    0  502  0.60915005775E+02  0.26812308102E+02 -0.51705317461E+02  0.84410115792E+02  0.47000000000E+01 0. -1.
          5    1    5    5  503    0 -0.22891382234E+02  0.71177473437E+00 -0.13569841956E+03  0.13769775987E+03  0.47000000000E+01 0.  1.
         -5    1    5    5    0  503  0.20293163556E+02 -0.47693844646E+02  0.75797017359E+00  0.52049782161E+02  0.47000000000E+01 0.  1.
<mgrwt>
<rscale>  0 0.26654109E+03</rscale>
<asrwt>0</asrwt>
<pdfrwt beam="1">  1        2 0.81197004E-02 0.26654109E+03</pdfrwt>
<pdfrwt beam="2">  1       -2 0.51772796E-01 0.26654109E+03</pdfrwt>
<totfact> 0.29720719E+03</totfact>
</mgrwt>
</event>
<event>
 9    1  0.7816570E-001  0.2741123E+03  0.7818608E-02  0.1098949E+00
         -1   -1    0    0    0  501 -0.00000000000E+00  0.00000000000E+00  0.15803248083E+02  0.15803248083E+02  0.00000000000E+00 0.  1.
          1   -1    0    0  501    0  0.00000000000E+00 -0.00000000000E+00 -0.11886412339E+04  0.11886412339E+04  0.00000000000E+00 0.  1.
         35    2    1    2    0    0  0.14210854715E-13 -0.35527136788E-14 -0.11728379858E+04  0.12044444820E+04  0.27411232953E+03 0.  0.
         25    2    3    3    0    0 -0.52357103783E+02  0.20034048247E+02 -0.59682603904E+03  0.61240149210E+03  0.12526626539E+03 0.  0.
         25    2    3    3    0    0  0.52357103783E+02 -0.20034048247E+02 -0.57601194676E+03  0.59204298987E+03  0.12482992283E+03 0.  0.
          5    1    4    4  502    0 -0.65232914921E+02 -0.17404093701E+02 -0.15953370479E+03  0.17329549512E+03  0.47000000000E+01 0. -1.
         -5    1    4    4    0  502  0.12875811138E+02  0.37438141948E+02 -0.43729233425E+03  0.43910599698E+03  0.47000000000E+01 0. -1.
          5    1    5    5  503    0  0.57706230592E+02  0.23495748946E+02 -0.50208003603E+03  0.50595307277E+03  0.47000000000E+01 0.  1.
         -5    1    5    5    0  503 -0.53491268091E+01 -0.43529797192E+02 -0.73931910734E+02  0.86089917099E+02  0.47000000000E+01 0.  1.
<mgrwt>
<rscale>  0 0.27411233E+03</rscale>
<asrwt>0</asrwt>
<pdfrwt beam="1">  1        1 0.18286787E+00 0.27411233E+03</pdfrwt>
<pdfrwt beam="2">  1       -1 0.24312691E-02 0.27411233E+03</pdfrwt>
<totfact> 0.59996567E+03</totfact>
</mgrwt>
</event>
<event>
 9    1  0.7816570E-001  0.2739073E+03  0.7818608E-02  0.1099064E+00
          1   -1    0    0  501    0  0.00000000000E+00  0.00000000000E+00  0.14770288662E+03  0.14770288662E+03  0.00000000000E+00 0. -1.
         -1   -1    0    0    0  501 -0.00000000000E+00 -0.00000000000E+00 -0.12698672965E+03  0.12698672965E+03  0.00000000000E+00 0. -1.
         35    2    1    2    0    0  0.00000000000E+00 -0.14210854715E-13  0.20716156969E+02  0.27468961627E+03  0.27390733127E+03 0.  0.
         25    2    3    3    0    0 -0.50484299787E+02  0.33844962518E+02  0.36047113755E+02  0.13480957547E+03  0.11480453483E+03 0.  0.
         25    2    3    3    0    0  0.50484299787E+02 -0.33844962518E+02 -0.15330956786E+02  0.13988004079E+03  0.12504895667E+03 0.  0.
          5    1    4    4  502    0  0.32813486398E+02  0.27805230896E+02 -0.11084988094E+01  0.43280186279E+02  0.47000000000E+01 0.  1.
         -5    1    4    4    0  502 -0.83297786185E+02  0.60397316217E+01  0.37155612564E+02  0.91529389195E+02  0.47000000000E+01 0.  1.
          5    1    5    5  503    0 -0.76471141791E+01  0.37249664752E+02 -0.27443728179E+02  0.47130288518E+02  0.47000000000E+01 0. -1.
         -5    1    5    5    0  503  0.58131413966E+02 -0.71094627270E+02  0.12112771393E+02  0.92749752276E+02  0.47000000000E+01 0. -1.
<mgrwt>
<rscale>  0 0.27390733E+03</rscale>
<asrwt>0</asrwt>
<pdfrwt beam="1">  1        1 0.22723521E-01 0.27390733E+03</pdfrwt>
<pdfrwt beam="2">  1       -1 0.19536420E-01 0.27390733E+03</pdfrwt>
<totfact> 0.45040572E+03</totfact>
</mgrwt>
</event>
<event>
 9    1  0.7816570E-001  0.2747598E+03  0.7818608E-02  0.1098586E+00
         -1   -1    0    0    0  501 -0.00000000000E+00  0.00000000000E+00  0.47650162673E+02  0.47650162673E+02  0.00000000000E+00 0. -1.
          1   -1    0    0  501    0  0.00000000000E+00 -0.00000000000E+00 -0.39607927381E+03  0.39607927381E+03  0.00000000000E+00 0. -1.
         35    2    1    2    0    0 -0.35527136788E-14  0.71054273576E-14 -0.34842911113E+03  0.44372943648E+03  0.27475983570E+03 0.  0.
         25    2    3    3    0    0 -0.20669710068E+02  0.52960192856E+02 -0.18197885713E+03  0.22780153211E+03  0.12468045015E+03 0.  0.
         25    2    3    3    0    0  0.20669710068E+02 -0.52960192856E+02 -0.16645025400E+03  0.21592790436E+03  0.12524836878E+03 0.  0.
          5    1    4    4  502    0  0.26629044596E+02  0.33207012097E+01 -0.14918433080E+03  0.15165153356E+03  0.47000000000E+01 0.  1.
         -5    1    4    4    0  502 -0.47298754664E+02  0.49639491647E+02 -0.32794526325E+02  0.76149998559E+02  0.47000000000E+01 0.  1.
          5    1    5    5  503    0  0.45235396558E+02  0.40269587359E+01 -0.88794606869E+01  0.46512281394E+02  0.47000000000E+01 0. -1.
         -5    1    5    5    0  503 -0.24565686489E+02 -0.56987151592E+02 -0.15757079332E+03  0.16941562297E+03  0.47000000000E+01 0. -1.
<mgrwt>
<rscale>  0 0.27475984E+03</rscale>
<asrwt>0</asrwt>
<pdfrwt beam="1">  1        1 0.60935270E-01 0.27475984E+03</pdfrwt>
<pdfrwt beam="2">  1       -1 0.73307946E-02 0.27475984E+03</pdfrwt>
<totfact> 0.60065846E+03</totfact>
</mgrwt>
</event>
<event>
 9    1  0.7816570E-001  0.2774814E+03  0.7818608E-02  0.1097073E+00
         -1   -1    0    0    0  501 -0.00000000000E+00  0.00000000000E+00  0.64912966372E+01  0.64912966372E+01  0.00000000000E+00 0. -1.
          1   -1    0    0  501    0  0.00000000000E+00 -0.00000000000E+00 -0.29653521741E+04  0.29653521741E+04  0.00000000000E+00 0. -1.
         35    2    1    2    0    0  0.71054273576E-14  0.00000000000E+00 -0.29588608774E+04  0.29718434707E+04  0.27748139106E+03 0.  0.
         25    2    3    3    0    0  0.49062447136E+02  0.12017199941E+02 -0.18458504393E+04  0.18507538722E+04  0.12479789423E+03 0.  0.
         25    2    3    3    0    0 -0.49062447136E+02 -0.12017199941E+02 -0.11130104382E+04  0.11210895986E+04  0.12449142808E+03 0.  0.
          5    1    4    4  502    0  0.23953295920E+01 -0.52678501808E+02 -0.88753424891E+03  0.88911185750E+03  0.47000000000E+01 0.  1.
         -5    1    4    4    0  502  0.46667117544E+02  0.64695701749E+02 -0.95831619034E+03  0.96164201466E+03  0.47000000000E+01 0.  1.
          5    1    5    5  503    0 -0.35885465480E+02 -0.67108021953E+02 -0.56021759203E+03  0.56538225446E+03  0.47000000000E+01 0. -1.
         -5    1    5    5    0  503 -0.13176981657E+02  0.55090822012E+02 -0.55279284616E+03  0.55570734409E+03  0.47000000000E+01 0. -1.
<mgrwt>
<rscale>  0 0.27748139E+03</rscale>
<asrwt>0</asrwt>
<pdfrwt beam="1">  1        1 0.45620916E+00 0.27748139E+03</pdfrwt>
<pdfrwt beam="2">  1       -1 0.99865855E-03 0.27748139E+03</pdfrwt>
<totfact> 0.14418554E+03</totfact>
</mgrwt>
</event>
<event>
 9    1  0.7816570E-001  0.2749755E+03  0.7818608E-02  0.1098465E+00
          2   -1    0    0  501    0  0.00000000000E+00  0.00000000000E+00  0.88738999870E+02  0.88738999870E+02  0.00000000000E+00 0.  1.
         -2   -1    0    0    0  501 -0.00000000000E+00 -0.00000000000E+00 -0.21301664992E+03  0.21301664992E+03  0.00000000000E+00 0.  1.
         35    2    1    2    0    0  0.00000000000E+00  0.00000000000E+00 -0.12427765005E+03  0.30175564979E+03  0.27497552232E+03 0.  0.
         25    2    3    3    0    0  0.23897457498E+02 -0.27682748067E+02 -0.14074945800E+02  0.13128511379E+03  0.12530065438E+03 0.  0.
         25    2    3    3    0    0 -0.23897457498E+02  0.27682748067E+02 -0.11020270425E+03  0.17047053599E+03  0.12481243769E+03 0.  0.
          5    1    4    4  502    0  0.40581697672E+02  0.41926503120E+02 -0.22498767301E+01  0.58582060353E+02  0.47000000000E+01 0.  1.
         -5    1    4    4    0  502 -0.16684240174E+02 -0.69609251188E+02 -0.11825069070E+02  0.72703053441E+02  0.47000000000E+01 0.  1.
          5    1    5    5  503    0 -0.44213552958E+02 -0.33043810818E+02 -0.18262123297E+02  0.58329468074E+02  0.47000000000E+01 0.  1.
         -5    1    5    5    0  503  0.20316095460E+02  0.60726558885E+02 -0.91940580949E+02  0.11214106792E+03  0.47000000000E+01 0.  1.
<mgrwt>
<rscale>  0 0.27497552E+03</rscale>
<asrwt>0</asrwt>
<pdfrwt beam="1">  1        2 0.13652154E-01 0.27497552E+03</pdfrwt>
<pdfrwt beam="2">  1       -2 0.32771792E-01 0.27497552E+03</pdfrwt>
<totfact> 0.37722713E+03</totfact>
</mgrwt>
</event>
<event>
 9    1  0.7816570E-001  0.2736961E+03  0.7818608E-02  0.1099183E+00
         -1   -1    0    0    0  501 -0.00000000000E+00  0.00000000000E+00  0.13327354039E+02  0.13327354039E+02  0.00000000000E+00 0.  1.
          1   -1    0    0  501    0  0.00000000000E+00 -0.00000000000E+00 -0.14051841137E+04  0.14051841137E+04  0.00000000000E+00 0.  1.
         35    2    1    2    0    0  0.00000000000E+00  0.71054273576E-14 -0.13918567596E+04  0.14185114677E+04  0.27369608088E+03 0.  0.
         25    2    3    3    0    0  0.49769098158E+02 -0.26671069200E+02 -0.68907178306E+03  0.70247140112E+03  0.12432955450E+03 0.  0.
         25    2    3    3    0    0 -0.49769098158E+02  0.26671069200E+02 -0.70278497655E+03  0.71604006657E+03  0.12497337556E+03 0.  0.
          5    1    4    4  502    0  0.71838873680E+02 -0.61351100448E+02 -0.50821372920E+03  0.51694106612E+03  0.47000000000E+01 0. -1.
         -5    1    4    4    0  502 -0.22069775522E+02  0.34680031248E+02 -0.18085805386E+03  0.18553033500E+03  0.47000000000E+01 0. -1.
          5    1    5    5  503    0  0.10766254537E+02 -0.35642185252E+02 -0.96432475675E+02  0.10347748533E+03  0.47000000000E+01 0. -1.
         -5    1    5    5    0  503 -0.60535352695E+02  0.62313254452E+02 -0.60635250088E+03  0.61256258123E+03  0.47000000000E+01 0. -1.
<mgrwt>
<rscale>  0 0.27369608E+03</rscale>
<asrwt>0</asrwt>
<pdfrwt beam="1">  1        1 0.21618212E+00 0.27369608E+03</pdfrwt>
<pdfrwt beam="2">  1       -1 0.20503627E-02 0.27369608E+03</pdfrwt>
<totfact> 0.54734701E+03</totfact>
</mgrwt>
</event>
<event>
 9    1  0.7816570E-001  0.2788807E+03  0.7818608E-02  0.1096302E+00
         -4   -1    0    0    0  501 -0.00000000000E+00  0.00000000000E+00  0.23907397550E+04  0.23907397550E+04  0.00000000000E+00 0. -1.
          4   -1    0    0  501    0  0.00000000000E+00 -0.00000000000E+00 -0.81328842346E+01  0.81328842346E+01  0.00000000000E+00 0. -1.
         35    2    1    2    0    0 -0.35527136788E-14  0.00000000000E+00  0.23826068708E+04  0.23988726392E+04  0.27888068892E+03 0.  0.
         25    2    3    3    0    0  0.71259751832E+00 -0.40655611610E+02  0.78429247100E+03  0.79521551365E+03  0.12489854496E+03 0.  0.
         25    2    3    3    0    0 -0.71259751832E+00  0.40655611610E+02  0.15983143998E+04  0.16036571256E+04  0.12431359293E+03 0.  0.
          5    1    4    4  502    0  0.38053106257E+02 -0.48055018664E+02  0.19025230998E+03  0.19993837842E+03  0.47000000000E+01 0.  1.
         -5    1    4    4    0  502 -0.37340508739E+02  0.73994070540E+01  0.59404016102E+03  0.59527713523E+03  0.47000000000E+01 0.  1.
          5    1    5    5  503    0  0.21363395553E+02  0.77867390196E+02  0.12535411052E+04  0.12561477292E+04  0.47000000000E+01 0. -1.
         -5    1    5    5    0  503 -0.22075993072E+02 -0.37211778586E+02  0.34477329454E+03  0.34750939637E+03  0.47000000000E+01 0. -1.
<mgrwt>
<rscale>  0 0.27888069E+03</rscale>
<asrwt>0</asrwt>
<pdfrwt beam="1">  1        4 0.12512149E-02 0.27888069E+03</pdfrwt>
<pdfrwt beam="2">  1       -4 0.36780556E+00 0.27888069E+03</pdfrwt>
<totfact> 0.54507810E+01</totfact>
</mgrwt>
</event>
<event>
 9    1  0.7816570E-001  0.2618781E+03  0.7818608E-02  0.1106020E+00
          1   -1    0    0  501    0  0.00000000000E+00  0.00000000000E+00  0.65783357309E+03  0.65783357309E+03  0.00000000000E+00 0. -1.
         -1   -1    0    0    0  501 -0.00000000000E+00 -0.00000000000E+00 -0.26062876586E+02  0.26062876586E+02  0.00000000000E+00 0. -1.
         35    2    1    2    0    0 -0.35527136788E-14  0.00000000000E+00  0.63177069651E+03  0.68389644968E+03  0.26187810317E+03 0.  0.
         25    2    3    3    0    0  0.18063608263E+02 -0.27223090303E+02  0.23430847547E+03  0.26786225559E+03  0.12562776644E+03 0.  0.
         25    2    3    3    0    0 -0.18063608263E+02  0.27223090303E+02  0.39746222104E+03  0.41603419409E+03  0.11849406277E+03 0.  0.
          5    1    4    4  502    0  0.10396027012E+02  0.36824583264E+02  0.17794389063E+03  0.18207208881E+03  0.47000000000E+01 0.  1.
         -5    1    4    4    0  502  0.76675812505E+01 -0.64047673567E+02  0.56364584838E+02  0.85790166777E+02  0.47000000000E+01 0.  1.
          5    1    5    5  503    0 -0.45189785400E+00 -0.43959269164E+02  0.95147765864E+02  0.10491810571E+03  0.47000000000E+01 0. -1.
         -5    1    5    5    0  503 -0.17611710409E+02  0.71182359467E+02  0.30231445517E+03  0.31111608838E+03  0.47000000000E+01 0. -1.
<mgrwt>
<rscale>  0 0.26187810E+03</rscale>
<asrwt>0</asrwt>
<pdfrwt beam="1">  1        1 0.10120515E+00 0.26187810E+03</pdfrwt>
<pdfrwt beam="2">  1       -1 0.40096738E-02 0.26187810E+03</pdfrwt>
<totfact> 0.75219067E+03</totfact>
</mgrwt>
</event>
