<event>
 9    1  0.4296086E-036  0.1000564E+04  0.7818608E-02  0.8680501E-01
         -1   -1    0    0    0  501 -0.00000000000E+00  0.00000000000E+00  0.12001463466E+03  0.12001463466E+03  0.00000000000E+00 0. -1.
          1   -1    0    0  501    0  0.00000000000E+00 -0.00000000000E+00 -0.20854277841E+04  0.20854277841E+04  0.00000000000E+00 0. -1.
         36    2    1    2    0    0  0.00000000000E+00  0.35527136788E-13 -0.19654131494E+04  0.22054424187E+04  0.10005635484E+04 0.  0.
         25    2    3    3    0    0  0.86090419947E+02 -0.59262472976E+02 -0.15897307428E+03  0.22760513022E+03  0.12493220500E+03 0.  0.
         35    2    3    3    0    0 -0.86090419947E+02  0.59262472976E+02 -0.18064400752E+04  0.19778372885E+04  0.79855556706E+03 0.  0.
         22    1    5    5    0    0 -0.11360929123E+03 -0.36231767757E+03 -0.76782170460E+03  0.85658119322E+03  0.00000000000E+00 0. -1.
         22    1    5    5    0    0  0.27518871280E+02  0.42158015055E+03 -0.10386183706E+04  0.11212560953E+04  0.00000000000E+00 0. -1.
          5    1    4    4  502    0  0.28300082033E+02 -0.13345511282E+02  0.17573176320E+02  0.36192593724E+02  0.47000000000E+01 0. -1.
         -5    1    4    4    0  502  0.57790337913E+02 -0.45916961693E+02 -0.17654625060E+03  0.19141253650E+03  0.47000000000E+01 0. -1.
<mgrwt>
<rscale>  0 0.10005635E+04</rscale>
<asrwt>0</asrwt>
<pdfrwt beam="1">  1        1 0.32083501E+00 0.10005635E+04</pdfrwt>
<pdfrwt beam="2">  1       -1 0.18463792E-01 0.10005635E+04</pdfrwt>
<totfact> 0.63296481E+01</totfact>
</mgrwt>
</event>
<event>
 9    1  0.4296086E-036  0.9990336E+03  0.7818608E-02  0.8681959E-01
         -1   -1    0    0    0  501 -0.00000000000E+00  0.00000000000E+00  0.25638586173E+03  0.25638586173E+03  0.00000000000E+00 0.  1.
          1   -1    0    0  501    0  0.00000000000E+00 -0.00000000000E+00 -0.97320904933E+03  0.97320904933E+03  0.00000000000E+00 0.  1.
         36    2    1    2    0    0 -0.14210854715E-13 -0.14210854715E-13 -0.71682318760E+03  0.12295949111E+04  0.99903361456E+03 0.  0.
         25    2    3    3    0    0  0.12046835022E+03  0.13381214550E+02 -0.21859323119E+03  0.27913539062E+03  0.12426538241E+03 0.  0.
         35    2    3    3    0    0 -0.12046835022E+03 -0.13381214550E+02 -0.49822995640E+03  0.95045952044E+03  0.80028028229E+03 0.  0.
         22    1    5    5    0    0 -0.17230785362E+03 -0.24745788550E+03  0.90465842499E+02  0.31481656591E+03  0.00000000000E+00 0. -1.
         22    1    5    5    0    0  0.51839503398E+02  0.23407667095E+03 -0.58869579890E+03  0.63564295453E+03  0.00000000000E+00 0. -1.
          5    1    4    4  502    0  0.13200995302E+03  0.43592547806E+02 -0.15972682259E+03  0.21180577370E+03  0.47000000000E+01 0. -1.
         -5    1    4    4    0  502 -0.11541602794E+02 -0.30211333257E+02 -0.58866408605E+02  0.67329616918E+02  0.47000000000E+01 0. -1.
<mgrwt>
<rscale>  0 0.99903361E+03</rscale>
<asrwt>0</asrwt>
<pdfrwt beam="1">  1        1 0.14972447E+00 0.99903361E+03</pdfrwt>
<pdfrwt beam="2">  1       -1 0.39443979E-01 0.99903361E+03</pdfrwt>
<totfact> 0.11133704E+02</totfact>
</mgrwt>
</event>
<event>
 9    1  0.4296086E-036  0.1000435E+04  0.7818608E-02  0.8680624E-01
          1   -1    0    0  501    0  0.00000000000E+00  0.00000000000E+00  0.90208700322E+03  0.90208700322E+03  0.00000000000E+00 0. -1.
         -1   -1    0    0    0  501 -0.00000000000E+00 -0.00000000000E+00 -0.27737641653E+03  0.27737641653E+03  0.00000000000E+00 0. -1.
         36    2    1    2    0    0  0.00000000000E+00  0.42632564146E-13  0.62471058669E+03  0.11794634198E+04  0.10004352260E+04 0.  0.
         25    2    3    3    0    0  0.11991565480E+03  0.37770315742E+02  0.19047604399E+03  0.25999461297E+03  0.12453800391E+03 0.  0.
         35    2    3    3    0    0 -0.11991565480E+03 -0.37770315742E+02  0.43423454269E+03  0.91946880678E+03  0.80066028224E+03 0.  0.
         22    1    5    5    0    0 -0.29250078479E+03  0.30350923603E+03  0.16937095079E+03  0.45426983659E+03  0.00000000000E+00 0.  1.
         22    1    5    5    0    0  0.17258512999E+03 -0.34127955177E+03  0.26486359190E+03  0.46519897019E+03  0.00000000000E+00 0.  1.
          5    1    4    4  502    0  0.13656327081E+02  0.19229034307E+02  0.13776330726E+03  0.13984659401E+03  0.47000000000E+01 0.  1.
         -5    1    4    4    0  502  0.10625932772E+03  0.18541281435E+02  0.52712736737E+02  0.12014801896E+03  0.47000000000E+01 0.  1.
<mgrwt>
<rscale>  0 0.10004352E+04</rscale>
<asrwt>0</asrwt>
<pdfrwt beam="1">  1        1 0.13878261E+00 0.10004352E+04</pdfrwt>
<pdfrwt beam="2">  1       -1 0.42673295E-01 0.10004352E+04</pdfrwt>
<totfact> 0.11056697E+02</totfact>
</mgrwt>
</event>
<event>
 9    1  0.4296086E-036  0.1000187E+04  0.7818608E-02  0.8680859E-01
         -2   -1    0    0    0  501 -0.00000000000E+00  0.00000000000E+00  0.14079029734E+03  0.14079029734E+03  0.00000000000E+00 0.  1.
          2   -1    0    0  501    0  0.00000000000E+00 -0.00000000000E+00 -0.17763563670E+04  0.17763563670E+04  0.00000000000E+00 0.  1.
         36    2    1    2    0    0  0.00000000000E+00 -0.28421709430E-13 -0.16355660696E+04  0.19171466643E+04  0.10001874646E+04 0.  0.
         25    2    3    3    0    0  0.60697689118E+02  0.12320187013E+03 -0.35191322096E+03  0.39809939770E+03  0.12560774297E+03 0.  0.
         35    2    3    3    0    0 -0.60697689118E+02 -0.12320187013E+03 -0.12836528487E+04  0.15190472666E+04  0.80054796986E+03 0.  0.
         22    1    5    5    0    0 -0.11603084876E+03 -0.40394049050E+03 -0.36427999542E+03  0.55617532559E+03  0.00000000000E+00 0. -1.
         22    1    5    5    0    0  0.55333159645E+02  0.28073862037E+03 -0.91937285325E+03  0.96287194103E+03  0.00000000000E+00 0. -1.
          5    1    4    4  502    0  0.71777535917E+02  0.13833226533E+03 -0.25200991485E+03  0.29634256777E+03  0.47000000000E+01 0.  1.
         -5    1    4    4    0  502 -0.11079846799E+02 -0.15130395200E+02 -0.99903306114E+02  0.10175682993E+03  0.47000000000E+01 0.  1.
<mgrwt>
<rscale>  0 0.10001875E+04</rscale>
<asrwt>0</asrwt>
<pdfrwt beam="1">  1        2 0.27328560E+00 0.10001875E+04</pdfrwt>
<pdfrwt beam="2">  1       -2 0.21660045E-01 0.10001875E+04</pdfrwt>
<totfact> 0.19536049E+02</totfact>
</mgrwt>
</event>
<event>
 9    1  0.4296086E-036  0.1012348E+04  0.7818608E-02  0.8669367E-01
          2   -1    0    0  501    0  0.00000000000E+00  0.00000000000E+00  0.12048420088E+04  0.12048420088E+04  0.00000000000E+00 0.  1.
         -2   -1    0    0    0  501 -0.00000000000E+00 -0.00000000000E+00 -0.21265191993E+03  0.21265191993E+03  0.00000000000E+00 0.  1.
         36    2    1    2    0    0  0.00000000000E+00 -0.28421709430E-13  0.99219008888E+03  0.14174939287E+04  0.10123476999E+04 0.  0.
         25    2    3    3    0    0 -0.91418640472E+01 -0.74189990364E+02  0.56403898253E+01  0.14591226640E+03  0.12518325423E+03 0.  0.
         35    2    3    3    0    0  0.91418640472E+01  0.74189990364E+02  0.98654969905E+03  0.12715816623E+04  0.79878150138E+03 0.  0.
         22    1    5    5    0    0 -0.11346667802E+03  0.16606939617E+03 -0.63109179143E+02  0.21079966759E+03  0.00000000000E+00 0.  1.
         22    1    5    5    0    0  0.12260854207E+03 -0.91879405807E+02  0.10496588782E+04  0.10607819947E+04  0.00000000000E+00 0.  1.
          5    1    4    4  502    0 -0.62637524097E+02 -0.16145585994E+02  0.14145339769E+02  0.66380117575E+02  0.47000000000E+01 0.  1.
         -5    1    4    4    0  502  0.53495660049E+02 -0.58044404370E+02 -0.85049499441E+01  0.79532148823E+02  0.47000000000E+01 0.  1.
<mgrwt>
<rscale>  0 0.10123477E+04</rscale>
<asrwt>0</asrwt>
<pdfrwt beam="1">  1        2 0.18536030E+00 0.10123477E+04</pdfrwt>
<pdfrwt beam="2">  1       -2 0.32715681E-01 0.10123477E+04</pdfrwt>
<totfact> 0.19759309E+02</totfact>
</mgrwt>
</event>
<event>
 9    1  0.4296086E-036  0.9996786E+03  0.7818608E-02  0.8681344E-01
         -1   -1    0    0    0  501 -0.00000000000E+00  0.00000000000E+00  0.23563799643E+03  0.23563799643E+03  0.00000000000E+00 0.  1.
          1   -1    0    0  501    0  0.00000000000E+00 -0.00000000000E+00 -0.10602675289E+04  0.10602675289E+04  0.00000000000E+00 0.  1.
         36    2    1    2    0    0 -0.35527136788E-14  0.71054273576E-14 -0.82462953249E+03  0.12959055253E+04  0.99967858073E+03 0.  0.
         25    2    3    3    0    0 -0.96070281728E+01  0.50640205314E+02 -0.32265629486E+03  0.34970953695E+03  0.12463125707E+03 0.  0.
         35    2    3    3    0    0  0.96070281728E+01 -0.50640205314E+02 -0.50197323763E+03  0.94619598839E+03  0.80040801581E+03 0.  0.
         22    1    5    5    0    0 -0.16010995276E+03  0.20262863059E+03 -0.57705871536E+03  0.63221066099E+03  0.00000000000E+00 0.  1.
         22    1    5    5    0    0  0.16971698094E+03 -0.25326883590E+03  0.75085477729E+02  0.31398532740E+03  0.00000000000E+00 0.  1.
          5    1    4    4  502    0  0.17025355944E+02  0.38575342863E+00  0.39933271175E+01  0.18112101264E+02  0.47000000000E+01 0. -1.
         -5    1    4    4    0  502 -0.26632384116E+02  0.50254451885E+02 -0.32664962198E+03  0.33159743569E+03  0.47000000000E+01 0. -1.
<mgrwt>
<rscale>  0 0.99967858E+03</rscale>
<asrwt>0</asrwt>
<pdfrwt beam="1">  1        1 0.16311808E+00 0.99967858E+03</pdfrwt>
<pdfrwt beam="2">  1       -1 0.36252000E-01 0.99967858E+03</pdfrwt>
<totfact> 0.11029273E+02</totfact>
</mgrwt>
</event>
<event>
 9    1 -0.4296086E-036  0.1000442E+04  0.7818608E-02  0.8680617E-01
         -1   -1    0    0    0  501 -0.00000000000E+00  0.00000000000E+00  0.31375432235E+04  0.31375432235E+04  0.00000000000E+00 0.  1.
          1   -1    0    0  501    0  0.00000000000E+00 -0.00000000000E+00 -0.79750639065E+02  0.79750639065E+02  0.00000000000E+00 0.  1.
         36    2    1    2    0    0  0.71054273576E-14 -0.14210854715E-13  0.30577925844E+04  0.32172938625E+04  0.10004420566E+04 0.  0.
         25    2    3    3    0    0 -0.45132287221E+02 -0.49800113686E+02  0.97080879002E+03  0.98126278405E+03  0.12605542391E+03 0.  0.
         35    2    3    3    0    0  0.45132287221E+02  0.49800113686E+02  0.20869837944E+04  0.22360310785E+04  0.79988539884E+03 0.  0.
         22    1    5    5    0    0 -0.93300262093E+02 -0.23632308149E+03  0.20241775021E+03  0.32484840057E+03  0.00000000000E+00 0.  1.
         22    1    5    5    0    0  0.13843254931E+03  0.28612319518E+03  0.18845660442E+04  0.19111826779E+04  0.00000000000E+00 0. -1.
          5    1    4    4  502    0 -0.33334059463E+02 -0.48010993574E+02  0.96566621548E+03  0.96744485360E+03  0.47000000000E+01 0. -1.
         -5    1    4    4    0  502 -0.11798227758E+02 -0.17891201127E+01  0.51425745378E+01  0.13817930449E+02  0.47000000000E+01 0. -1.
<mgrwt>
<rscale>  0 0.10004421E+04</rscale>
<asrwt>0</asrwt>
<pdfrwt beam="1">  1        1 0.12269332E-01 0.10004421E+04</pdfrwt>
<pdfrwt beam="2">  1       -1 0.48269886E+00 0.10004421E+04</pdfrwt>
<totfact>-0.29438303E+00</totfact>
</mgrwt>
</event>
<event>
 9    1  0.4296086E-036  0.1000351E+04  0.7818608E-02  0.8680704E-01
          2   -1    0    0  501    0  0.00000000000E+00  0.00000000000E+00  0.32107497766E+04  0.32107497766E+04  0.00000000000E+00 0.  1.
         -2   -1    0    0    0  501 -0.00000000000E+00 -0.00000000000E+00 -0.77918079453E+02  0.77918079453E+02  0.00000000000E+00 0.  1.
         36    2    1    2    0    0  0.71054273576E-14 -0.42632564146E-13  0.31328316971E+04  0.32886678560E+04  0.10003508508E+04 0.  0.
         25    2    3    3    0    0  0.60792995806E+02 -0.12464022434E+03  0.52067083648E+03  0.55308728373E+03  0.12480564729E+03 0.  0.
         35    2    3    3    0    0 -0.60792995806E+02  0.12464022434E+03  0.26121608606E+04  0.27355805723E+04  0.80049093176E+03 0.  0.
         22    1    5    5    0    0 -0.88827676973E+02 -0.20935097445E+03  0.20807134660E+03  0.30823995843E+03  0.00000000000E+00 0.  1.
         22    1    5    5    0    0  0.28034681167E+02  0.33399119879E+03  0.24040895140E+04  0.24273406139E+04  0.00000000000E+00 0.  1.
          5    1    4    4  502    0  0.62026785672E+02 -0.88120462930E+02  0.17579111751E+03  0.20624535176E+03  0.47000000000E+01 0.  1.
         -5    1    4    4    0  502 -0.12337898664E+01 -0.36519761409E+02  0.34487971897E+03  0.34684193197E+03  0.47000000000E+01 0.  1.
<mgrwt>
<rscale>  0 0.10003509E+04</rscale>
<asrwt>0</asrwt>
<pdfrwt beam="1">  1        2 0.49396140E+00 0.10003509E+04</pdfrwt>
<pdfrwt beam="2">  1       -2 0.11987399E-01 0.10003509E+04</pdfrwt>
<totfact> 0.69677255E+01</totfact>
</mgrwt>
</event>
<event>
 9    1  0.4296086E-036  0.1002231E+04  0.7818608E-02  0.8678916E-01
         -1   -1    0    0    0  501 -0.00000000000E+00  0.00000000000E+00  0.62985574205E+03  0.62985574205E+03  0.00000000000E+00 0. -1.
          1   -1    0    0  501    0  0.00000000000E+00 -0.00000000000E+00 -0.39868932263E+03  0.39868932263E+03  0.00000000000E+00 0. -1.
         36    2    1    2    0    0 -0.35527136788E-13  0.00000000000E+00  0.23116641942E+03  0.10285450647E+04  0.10022310296E+04 0.  0.
         25    2    3    3    0    0  0.38391185016E+02  0.45224212386E+02  0.17582077813E+03  0.22359188160E+03  0.12474482363E+03 0.  0.
         35    2    3    3    0    0 -0.38391185016E+02 -0.45224212386E+02  0.55345641296E+02  0.80495318308E+03  0.80085415306E+03 0.  0.
         22    1    5    5    0    0  0.28719882866E+03  0.45717936230E+02  0.27626316001E+03  0.40111672921E+03  0.00000000000E+00 0. -1.
         22    1    5    5    0    0 -0.32559001367E+03 -0.90942148616E+02 -0.22091751871E+03  0.40383645387E+03  0.00000000000E+00 0. -1.
          5    1    4    4  502    0 -0.40137388326E+02 -0.82675662702E+01  0.37715547747E+02  0.55891995272E+02  0.47000000000E+01 0.  1.
         -5    1    4    4    0  502  0.78528573342E+02  0.53491778656E+02  0.13810523038E+03  0.16769988633E+03  0.47000000000E+01 0.  1.
<mgrwt>
<rscale>  0 0.10022310E+04</rscale>
<asrwt>0</asrwt>
<pdfrwt beam="1">  1        1 0.61336819E-01 0.10022310E+04</pdfrwt>
<pdfrwt beam="2">  1       -1 0.96900883E-01 0.10022310E+04</pdfrwt>
<totfact> 0.73777802E+01</totfact>
</mgrwt>
</event>
<event>
 9    1  0.4296086E-036  0.9998332E+03  0.7818608E-02  0.8681197E-01
          1   -1    0    0  501    0  0.00000000000E+00  0.00000000000E+00  0.20828030890E+04  0.20828030890E+04  0.00000000000E+00 0.  1.
         -1   -1    0    0    0  501 -0.00000000000E+00 -0.00000000000E+00 -0.11999050836E+03  0.11999050836E+03  0.00000000000E+00 0.  1.
         36    2    1    2    0    0  0.71054273576E-14 -0.14210854715E-13  0.19628125806E+04  0.22027935974E+04  0.99983318903E+03 0.  0.
         25    2    3    3    0    0  0.58013246321E+02  0.45725863360E+02  0.62580037778E+03  0.64253875929E+03  0.12559280645E+03 0.  0.
         35    2    3    3    0    0 -0.58013246321E+02 -0.45725863360E+02  0.13370122029E+04  0.15602548381E+04  0.80083527509E+03 0.  0.
         22    1    5    5    0    0 -0.53388362340E+01 -0.22588866709E+03  0.16592465326E+02  0.22656015315E+03  0.00000000000E+00 0. -1.
         22    1    5    5    0    0 -0.52674410087E+02  0.18016280373E+03  0.13204197375E+04  0.13336946849E+04  0.00000000000E+00 0. -1.
          5    1    4    4  502    0 -0.43093797948E+01  0.67313971795E+02  0.18834294246E+03  0.20011220734E+03  0.47000000000E+01 0.  1.
         -5    1    4    4    0  502  0.62322626116E+02 -0.21588108435E+02  0.43745743532E+03  0.44242655195E+03  0.47000000000E+01 0.  1.
<mgrwt>
<rscale>  0 0.99983319E+03</rscale>
<asrwt>0</asrwt>
<pdfrwt beam="1">  1        1 0.32043122E+00 0.99983319E+03</pdfrwt>
<pdfrwt beam="2">  1       -1 0.18460080E-01 0.99983319E+03</pdfrwt>
<totfact> 0.63589089E+01</totfact>
</mgrwt>
</event>
<event>
 9    1  0.4296086E-036  0.1001132E+04  0.7818608E-02  0.8679961E-01
         -4   -1    0    0    0  501 -0.00000000000E+00  0.00000000000E+00  0.11297787644E+04  0.11297787644E+04  0.00000000000E+00 0. -1.
          4   -1    0    0  501    0  0.00000000000E+00 -0.00000000000E+00 -0.22178353887E+03  0.22178353887E+03  0.00000000000E+00 0. -1.
         36    2    1    2    0    0  0.71054273576E-14 -0.28421709430E-13  0.90799522551E+03  0.13515623033E+04  0.10011320243E+04 0.  0.
         25    2    3    3    0    0  0.12480387847E+02  0.13971821006E+03  0.16603806767E+03  0.25050205268E+03  0.12452188633E+03 0.  0.
         35    2    3    3    0    0 -0.12480387847E+02 -0.13971821006E+03  0.74195715784E+03  0.11010602506E+04  0.80134656237E+03 0.  0.
         22    1    5    5    0    0 -0.17468356882E+03 -0.36132724517E+03  0.11640232403E+03  0.41787704933E+03  0.00000000000E+00 0.  1.
         22    1    5    5    0    0  0.16220318097E+03  0.22160903511E+03  0.62555483381E+03  0.68318320125E+03  0.00000000000E+00 0.  1.
          5    1    4    4  502    0  0.33425568499E+02  0.11092622144E+03  0.17818635097E+03  0.21258965380E+03  0.47000000000E+01 0. -1.
         -5    1    4    4    0  502 -0.20945180652E+02  0.28791988621E+02 -0.12148283296E+02  0.37912398873E+02  0.47000000000E+01 0. -1.
<mgrwt>
<rscale>  0 0.10011320E+04</rscale>
<asrwt>0</asrwt>
<pdfrwt beam="1">  1        4 0.34120545E-01 0.10011320E+04</pdfrwt>
<pdfrwt beam="2">  1       -4 0.17381211E+00 0.10011320E+04</pdfrwt>
<totfact> 0.31426618E+00</totfact>
</mgrwt>
</event>
<event>
 9    1  0.4296086E-036  0.1003970E+04  0.7818608E-02  0.8677267E-01
         -2   -1    0    0    0  501 -0.00000000000E+00  0.00000000000E+00  0.25241136009E+03  0.25241136009E+03  0.00000000000E+00 0. -1.
          2   -1    0    0  501    0  0.00000000000E+00 -0.00000000000E+00 -0.99832590488E+03  0.99832590488E+03  0.00000000000E+00 0. -1.
         36    2    1    2    0    0  0.00000000000E+00  0.00000000000E+00 -0.74591454479E+03  0.12507372650E+04  0.10039697196E+04 0.  0.
         25    2    3    3    0    0 -0.97325223272E+02  0.54226087980E+02 -0.23422086629E+02  0.16676120517E+03  0.12185252441E+03 0.  0.
         35    2    3    3    0    0  0.97325223272E+02 -0.54226087980E+02 -0.72249245816E+03  0.10839760598E+04  0.80037246231E+03 0.  0.
         22    1    5    5    0    0  0.20062950441E+03 -0.12793298900E+03 -0.86267205893E+03  0.89488665705E+03  0.00000000000E+00 0.  1.
         22    1    5    5    0    0 -0.10330428114E+03  0.73706901022E+02  0.14017960077E+03  0.18908940275E+03  0.00000000000E+00 0.  1.
          5    1    4    4  502    0 -0.27035106221E+02 -0.32514665064E+02 -0.34076178116E+02  0.54510332301E+02  0.47000000000E+01 0.  1.
         -5    1    4    4    0  502 -0.70290117051E+02  0.86740753044E+02  0.10654091487E+02  0.11225087287E+03  0.47000000000E+01 0.  1.
<mgrwt>
<rscale>  0 0.10039697E+04</rscale>
<asrwt>0</asrwt>
<pdfrwt beam="1">  1        2 0.15358860E+00 0.10039697E+04</pdfrwt>
<pdfrwt beam="2">  1       -2 0.38832516E-01 0.10039697E+04</pdfrwt>
<totfact> 0.19133494E+02</totfact>
</mgrwt>
</event>
<event>
 9    1  0.4296086E-036  0.1003777E+04  0.7818608E-02  0.8677449E-01
          3   -1    0    0  501    0  0.00000000000E+00  0.00000000000E+00  0.16317042773E+04  0.16317042773E+04  0.00000000000E+00 0. -1.
         -3   -1    0    0    0  501 -0.00000000000E+00 -0.00000000000E+00 -0.15437360045E+03  0.15437360045E+03  0.00000000000E+00 0. -1.
         36    2    1    2    0    0  0.28421709430E-13  0.00000000000E+00  0.14773306769E+04  0.17860778778E+04  0.10037769955E+04 0.  0.
         25    2    3    3    0    0 -0.90414222404E+02 -0.65176182320E+02  0.11504407523E+03  0.20319152107E+03  0.12501595352E+03 0.  0.
         35    2    3    3    0    0  0.90414222404E+02  0.65176182320E+02  0.13622866016E+04  0.15828863567E+04  0.79829929656E+03 0.  0.
         22    1    5    5    0    0  0.37154287551E+03 -0.50103518314E+01  0.11879933103E+04  0.12447478931E+04  0.00000000000E+00 0. -1.
         22    1    5    5    0    0 -0.28112865311E+03  0.70186534151E+02  0.17429329129E+03  0.33813846360E+03  0.00000000000E+00 0. -1.
          5    1    4    4  502    0  0.10458863307E+02  0.26356564528E+02  0.78506935733E+01  0.29795632313E+02  0.47000000000E+01 0. -1.
         -5    1    4    4    0  502 -0.10087308571E+03 -0.91532746847E+02  0.10719338165E+03  0.17339588875E+03  0.47000000000E+01 0. -1.
<mgrwt>
<rscale>  0 0.10037770E+04</rscale>
<asrwt>0</asrwt>
<pdfrwt beam="1">  1        3 0.25103142E+00 0.10037770E+04</pdfrwt>
<pdfrwt beam="2">  1       -3 0.23749786E-01 0.10037770E+04</pdfrwt>
<totfact> 0.48903548E+00</totfact>
</mgrwt>
</event>
<event>
 9    1  0.4296086E-036  0.9999728E+03  0.7818608E-02  0.8681064E-01
          2   -1    0    0  501    0  0.00000000000E+00  0.00000000000E+00  0.21072942502E+03  0.21072942502E+03  0.00000000000E+00 0.  1.
         -2   -1    0    0    0  501 -0.00000000000E+00 -0.00000000000E+00 -0.11862909920E+04  0.11862909920E+04  0.00000000000E+00 0.  1.
         36    2    1    2    0    0  0.00000000000E+00  0.71054273576E-14 -0.97556156700E+03  0.13970204170E+04  0.99997283695E+03 0.  0.
         25    2    3    3    0    0  0.40097776316E+02 -0.42705190708E+02 -0.36064533768E+03  0.38625873200E+03  0.12529638253E+03 0.  0.
         35    2    3    3    0    0 -0.40097776316E+02  0.42705190708E+02 -0.61491622931E+03  0.10107616850E+04  0.80005352940E+03 0.  0.
         22    1    5    5    0    0 -0.20965273456E+03  0.21838959028E+03  0.45980156580E+02  0.30620655945E+03  0.00000000000E+00 0.  1.
         22    1    5    5    0    0  0.16955495824E+03 -0.17568439957E+03 -0.66089638589E+03  0.70455512559E+03  0.00000000000E+00 0.  1.
          5    1    4    4  502    0  0.63652887841E+02 -0.74291546949E+02 -0.27335625261E+03  0.29037330269E+03  0.47000000000E+01 0.  1.
         -5    1    4    4    0  502 -0.23555111525E+02  0.31586356241E+02 -0.87289085079E+02  0.95885429307E+02  0.47000000000E+01 0.  1.
<mgrwt>
<rscale>  0 0.99997284E+03</rscale>
<asrwt>0</asrwt>
<pdfrwt beam="1">  1        2 0.32419911E-01 0.99997284E+03</pdfrwt>
<pdfrwt beam="2">  1       -2 0.18250631E+00 0.99997284E+03</pdfrwt>
<totfact> 0.31313994E+01</totfact>
</mgrwt>
</event>
<event>
 9    1  0.4296086E-036  0.1001159E+04  0.7818608E-02  0.8679935E-01
          1   -1    0    0  501    0  0.00000000000E+00  0.00000000000E+00  0.91744630288E+03  0.91744630288E+03  0.00000000000E+00 0.  1.
         -1   -1    0    0    0  501 -0.00000000000E+00 -0.00000000000E+00 -0.27312735827E+03  0.27312735827E+03  0.00000000000E+00 0.  1.
         36    2    1    2    0    0 -0.28421709430E-13  0.35527136788E-14  0.64431894461E+03  0.11905736611E+04  0.10011586988E+04 0.  0.
         25    2    3    3    0    0 -0.12693417716E+03  0.12251271834E+02  0.50865719990E+02  0.18586819744E+03  0.12528881178E+03 0.  0.
         35    2    3    3    0    0  0.12693417716E+03 -0.12251271834E+02  0.59345322462E+03  0.10047054637E+04  0.80061473881E+03 0.  0.
         22    1    5    5    0    0 -0.25996074799E+03  0.23434655247E+03  0.22285033247E+03  0.41492188160E+03  0.00000000000E+00 0. -1.
         22    1    5    5    0    0  0.38689492515E+03 -0.24659782430E+03  0.37060289215E+03  0.58978358211E+03  0.00000000000E+00 0. -1.
          5    1    4    4  502    0 -0.75896840083E+02  0.41854525653E+02  0.81637121680E+02  0.11915889093E+03  0.47000000000E+01 0. -1.
         -5    1    4    4    0  502 -0.51037337077E+02 -0.29603253818E+02 -0.30771401690E+02  0.66709306506E+02  0.47000000000E+01 0. -1.
<mgrwt>
<rscale>  0 0.10011587E+04</rscale>
<asrwt>0</asrwt>
<pdfrwt beam="1">  1        1 0.14114558E+00 0.10011587E+04</pdfrwt>
<pdfrwt beam="2">  1       -1 0.42019594E-01 0.10011587E+04</pdfrwt>
<totfact> 0.11038766E+02</totfact>
</mgrwt>
</event>
<event>
 9    1  0.4296086E-036  0.1000093E+04  0.7818608E-02  0.8680949E-01
         -2   -1    0    0    0  501 -0.00000000000E+00  0.00000000000E+00  0.10601045300E+03  0.10601045300E+03  0.00000000000E+00 0.  1.
          2   -1    0    0  501    0  0.00000000000E+00 -0.00000000000E+00 -0.23586983057E+04  0.23586983057E+04  0.00000000000E+00 0.  1.
         36    2    1    2    0    0  0.00000000000E+00  0.35527136788E-13 -0.22526878527E+04  0.24647087587E+04  0.10000933474E+04 0.  0.
         25    2    3    3    0    0 -0.13285922357E+03  0.25151332348E+02 -0.50676160046E+03  0.53909528799E+03  0.12462843586E+03 0.  0.
         35    2    3    3    0    0  0.13285922357E+03 -0.25151332348E+02 -0.17459262522E+04  0.19256134707E+04  0.80090236452E+03 0.  0.
         22    1    5    5    0    0 -0.20573217158E+03  0.26009022451E+03 -0.10470222194E+04  0.10982841978E+04  0.00000000000E+00 0. -1.
         22    1    5    5    0    0  0.33859139515E+03 -0.28524155686E+03 -0.69890403287E+03  0.82732927289E+03  0.00000000000E+00 0. -1.
          5    1    4    4  502    0 -0.15606735241E+03  0.19556512880E+02 -0.46320034971E+03  0.48919947839E+03  0.47000000000E+01 0. -1.
         -5    1    4    4    0  502  0.23208128836E+02  0.55948194686E+01 -0.43561250750E+02  0.49895809602E+02  0.47000000000E+01 0. -1.
<mgrwt>
<rscale>  0 0.10000933E+04</rscale>
<asrwt>0</asrwt>
<pdfrwt beam="1">  1        2 0.36287665E+00 0.10000933E+04</pdfrwt>
<pdfrwt beam="2">  1       -2 0.16309301E-01 0.10000933E+04</pdfrwt>
<totfact> 0.14709464E+02</totfact>
</mgrwt>
</event>
<event>
 9    1  0.4296086E-036  0.1000186E+04  0.7818608E-02  0.8680861E-01
         -1   -1    0    0    0  501 -0.00000000000E+00  0.00000000000E+00  0.14407112061E+03  0.14407112061E+03  0.00000000000E+00 0.  1.
          1   -1    0    0  501    0  0.00000000000E+00 -0.00000000000E+00 -0.17359002946E+04  0.17359002946E+04  0.00000000000E+00 0.  1.
         36    2    1    2    0    0  0.14210854715E-13  0.00000000000E+00 -0.15918291740E+04  0.18799714152E+04  0.10001861841E+04 0.  0.
         25    2    3    3    0    0 -0.67197039197E+02  0.95661248551E+02 -0.43527304379E+03  0.46759100397E+03  0.12454801399E+03 0.  0.
         35    2    3    3    0    0  0.67197039197E+02 -0.95661248551E+02 -0.11565561302E+04  0.14123804113E+04  0.80220310847E+03 0.  0.
         22    1    5    5    0    0 -0.35541968159E+03  0.36969576059E+02 -0.63011825550E+03  0.72438864950E+03  0.00000000000E+00 0. -1.
         22    1    5    5    0    0  0.42261672078E+03 -0.13263082461E+03 -0.52643787472E+03  0.68799176177E+03  0.00000000000E+00 0. -1.
          5    1    4    4  502    0 -0.23552873716E+01  0.89911621099E+02 -0.15012570787E+03  0.17506988647E+03  0.47000000000E+01 0.  1.
         -5    1    4    4    0  502 -0.64841751826E+02  0.57496274514E+01 -0.28514733593E+03  0.29252111750E+03  0.47000000000E+01 0.  1.
<mgrwt>
<rscale>  0 0.10001862E+04</rscale>
<asrwt>0</asrwt>
<pdfrwt beam="1">  1        1 0.26706160E+00 0.10001862E+04</pdfrwt>
<pdfrwt beam="2">  1       -1 0.22164787E-01 0.10001862E+04</pdfrwt>
<totfact> 0.82298701E+01</totfact>
</mgrwt>
</event>
<event>
 9    1  0.4296086E-036  0.9999426E+03  0.7818608E-02  0.8681093E-01
         -3   -1    0    0    0  501 -0.00000000000E+00  0.00000000000E+00  0.15952675069E+04  0.15952675069E+04  0.00000000000E+00 0.  1.
          3   -1    0    0  501    0  0.00000000000E+00 -0.00000000000E+00 -0.15669555186E+03  0.15669555186E+03  0.00000000000E+00 0.  1.
         36    2    1    2    0    0  0.00000000000E+00  0.42632564146E-13  0.14385719551E+04  0.17519630588E+04  0.99994264308E+03 0.  0.
         25    2    3    3    0    0  0.85262872899E+02  0.78906301474E+02  0.13781128766E+03  0.22033449715E+03  0.12672560009E+03 0.  0.
         35    2    3    3    0    0 -0.85262872899E+02 -0.78906301474E+02  0.13007606674E+04  0.15316285616E+04  0.80025731802E+03 0.  0.
         22    1    5    5    0    0 -0.23068674496E+03 -0.28189462511E+03  0.12137011767E+04  0.12671825047E+04  0.00000000000E+00 0.  1.
         22    1    5    5    0    0  0.14542387206E+03  0.20298832364E+03  0.87059490724E+02  0.26444605692E+03  0.00000000000E+00 0.  1.
          5    1    4    4  502    0  0.61888037657E+02 -0.85208475637E+01  0.10814771134E+03  0.12498300491E+03  0.47000000000E+01 0. -1.
         -5    1    4    4    0  502  0.23374835243E+02  0.87427149038E+02  0.29663576318E+02  0.95351492235E+02  0.47000000000E+01 0. -1.
<mgrwt>
<rscale>  0 0.99994264E+03</rscale>
<asrwt>0</asrwt>
<pdfrwt beam="1">  1        3 0.24107009E-01 0.99994264E+03</pdfrwt>
<pdfrwt beam="2">  1       -3 0.24542576E+00 0.99994264E+03</pdfrwt>
<totfact> 0.29611903E+00</totfact>
</mgrwt>
</event>
<event>
 9    1  0.4296086E-036  0.1001035E+04  0.7818608E-02  0.8680053E-01
         -2   -1    0    0    0  501 -0.00000000000E+00  0.00000000000E+00  0.11571811237E+03  0.11571811237E+03  0.00000000000E+00 0. -1.
          2   -1    0    0  501    0  0.00000000000E+00 -0.00000000000E+00 -0.21648969713E+04  0.21648969713E+04  0.00000000000E+00 0. -1.
         36    2    1    2    0    0 -0.31974423109E-13  0.10658141036E-13 -0.20491788589E+04  0.22806150837E+04  0.10010350464E+04 0.  0.
         25    2    3    3    0    0  0.30923480977E+01 -0.28540837669E+02 -0.76292873942E+02  0.15112330676E+03  0.12725371979E+03 0.  0.
         35    2    3    3    0    0 -0.30923480977E+01  0.28540837669E+02 -0.19728859850E+04  0.21294917769E+04  0.80101933570E+03 0.  0.
         22    1    5    5    0    0  0.30690095616E+03 -0.58418139836E+01 -0.30509543569E+03  0.43278811047E+03  0.00000000000E+00 0.  1.
         22    1    5    5    0    0 -0.30999330426E+03  0.34382651652E+02 -0.16677905493E+04  0.16967036665E+04  0.00000000000E+00 0.  1.
          5    1    4    4  502    0  0.15973609447E+02  0.74912062803E+01  0.31629754323E+02  0.36521305136E+02  0.47000000000E+01 0.  1.
         -5    1    4    4    0  502 -0.12881261350E+02 -0.36032043949E+02 -0.10792262826E+03  0.11460200163E+03  0.47000000000E+01 0.  1.
<mgrwt>
<rscale>  0 0.10010350E+04</rscale>
<asrwt>0</asrwt>
<pdfrwt beam="1">  1        2 0.33306104E+00 0.10010350E+04</pdfrwt>
<pdfrwt beam="2">  1       -2 0.17802788E-01 0.10010350E+04</pdfrwt>
<totfact> 0.16465632E+02</totfact>
</mgrwt>
</event>
<event>
 9    1  0.4296086E-036  0.1000381E+04  0.7818608E-02  0.8680675E-01
          2   -1    0    0  501    0  0.00000000000E+00  0.00000000000E+00  0.91937177331E+03  0.91937177331E+03  0.00000000000E+00 0. -1.
         -2   -1    0    0    0  501 -0.00000000000E+00 -0.00000000000E+00 -0.27213192667E+03  0.27213192667E+03  0.00000000000E+00 0. -1.
         36    2    1    2    0    0 -0.28421709430E-13 -0.88817841970E-14  0.64723984664E+03  0.11915037000E+04  0.10003807515E+04 0.  0.
         25    2    3    3    0    0 -0.12888498071E+03  0.10190811328E+01  0.19132773425E+03  0.26219999356E+03  0.12462005438E+03 0.  0.
         35    2    3    3    0    0  0.12888498071E+03 -0.10190811328E+01  0.45591211239E+03  0.92930370642E+03  0.79946053546E+03 0.  0.
         22    1    5    5    0    0 -0.32093221047E+03 -0.12301714318E+03  0.19075873742E+03  0.39308980798E+03  0.00000000000E+00 0. -1.
         22    1    5    5    0    0  0.44981719118E+03  0.12199806204E+03  0.26515337498E+03  0.53621389844E+03  0.00000000000E+00 0. -1.
          5    1    4    4  502    0  0.14379254834E+02 -0.17228345121E+01 -0.75808094147E+01  0.17008521385E+02  0.47000000000E+01 0.  1.
         -5    1    4    4    0  502 -0.14326423554E+03  0.27419156448E+01  0.19890854366E+03  0.24519147218E+03  0.47000000000E+01 0.  1.
<mgrwt>
<rscale>  0 0.10003808E+04</rscale>
<asrwt>0</asrwt>
<pdfrwt beam="1">  1        2 0.14144181E+00 0.10003808E+04</pdfrwt>
<pdfrwt beam="2">  1       -2 0.41866451E-01 0.10003808E+04</pdfrwt>
<totfact> 0.18607775E+02</totfact>
</mgrwt>
</event>
<event>
 9    1  0.4296086E-036  0.1000182E+04  0.7818608E-02  0.8680865E-01
          1   -1    0    0  501    0  0.00000000000E+00  0.00000000000E+00  0.29121788812E+03  0.29121788812E+03  0.00000000000E+00 0. -1.
         -1   -1    0    0    0  501 -0.00000000000E+00 -0.00000000000E+00 -0.85877635119E+03  0.85877635119E+03  0.00000000000E+00 0. -1.
         36    2    1    2    0    0  0.28421709430E-13  0.00000000000E+00 -0.56755846307E+03  0.11499942393E+04  0.10001820541E+04 0.  0.
         25    2    3    3    0    0  0.62456400762E+02  0.39187962374E+02 -0.24024077709E+03  0.28251185485E+03  0.12907679404E+03 0.  0.
         35    2    3    3    0    0 -0.62456400762E+02 -0.39187962374E+02 -0.32731768598E+03  0.86748238446E+03  0.79997020032E+03 0.  0.
         22    1    5    5    0    0 -0.35318800891E+03 -0.26429591950E+01 -0.43048122894E+03  0.55683286840E+03  0.00000000000E+00 0.  1.
         22    1    5    5    0    0  0.29073160815E+03 -0.36545003179E+02  0.10316354296E+03  0.31064951606E+03  0.00000000000E+00 0.  1.
          5    1    4    4  502    0  0.50021844193E+02 -0.34077105518E+02 -0.16854378844E+03  0.17914388809E+03  0.47000000000E+01 0. -1.
         -5    1    4    4    0  502  0.12434556568E+02  0.73265067892E+02 -0.71696988654E+02  0.10336796676E+03  0.47000000000E+01 0. -1.
<mgrwt>
<rscale>  0 0.10001821E+04</rscale>
<asrwt>0</asrwt>
<pdfrwt beam="1">  1        1 0.44802752E-01 0.10001821E+04</pdfrwt>
<pdfrwt beam="2">  1       -1 0.13211944E+00 0.10001821E+04</pdfrwt>
<totfact> 0.53056393E+01</totfact>
</mgrwt>
</event>
<event>
 9    1  0.4296086E-036  0.1002398E+04  0.7818608E-02  0.8678758E-01
         -2   -1    0    0    0  501 -0.00000000000E+00  0.00000000000E+00  0.29547949176E+03  0.29547949176E+03  0.00000000000E+00 0.  1.
          2   -1    0    0  501    0  0.00000000000E+00 -0.00000000000E+00 -0.85014441629E+03  0.85014441629E+03  0.00000000000E+00 0.  1.
         36    2    1    2    0    0  0.14210854715E-13  0.00000000000E+00 -0.55466492453E+03  0.11456239081E+04  0.10023976058E+04 0.  0.
         25    2    3    3    0    0  0.77704056501E+02 -0.11357696063E+03 -0.62145455988E+02  0.19631489946E+03  0.12545850176E+03 0.  0.
         35    2    3    3    0    0 -0.77704056501E+02  0.11357696063E+03 -0.49251946854E+03  0.94930900860E+03  0.79979654947E+03 0.  0.
         22    1    5    5    0    0 -0.22725570713E+03  0.18593060580E+03 -0.65445757340E+03  0.71730750865E+03  0.00000000000E+00 0.  1.
         22    1    5    5    0    0  0.14955165063E+03 -0.72353645163E+02  0.16193810486E+03  0.23200149995E+03  0.00000000000E+00 0.  1.
          5    1    4    4  502    0 -0.29625170322E-01 -0.82760819859E+02  0.12861295949E+02  0.83885976866E+02  0.47000000000E+01 0.  1.
         -5    1    4    4    0  502  0.77733681671E+02 -0.30816140776E+02 -0.75006751937E+02  0.11242892259E+03  0.47000000000E+01 0.  1.
<mgrwt>
<rscale>  0 0.10023976E+04</rscale>
<asrwt>0</asrwt>
<pdfrwt beam="1">  1        2 0.13079145E+00 0.10023976E+04</pdfrwt>
<pdfrwt beam="2">  1       -2 0.45458383E-01 0.10023976E+04</pdfrwt>
<totfact> 0.17624027E+02</totfact>
</mgrwt>
</event>
<event>
 9    1  0.4296086E-036  0.9997168E+03  0.7818608E-02  0.8681308E-01
          1   -1    0    0  501    0  0.00000000000E+00  0.00000000000E+00  0.27989811101E+04  0.27989811101E+04  0.00000000000E+00 0. -1.
         -1   -1    0    0    0  501 -0.00000000000E+00 -0.00000000000E+00 -0.89267631207E+02  0.89267631207E+02  0.00000000000E+00 0. -1.
         36    2    1    2    0    0 -0.28421709430E-13  0.00000000000E+00  0.27097134788E+04  0.28882487413E+04  0.99971678687E+03 0.  0.
         25    2    3    3    0    0 -0.10753326265E+03 -0.80663966939E+02  0.38489570012E+03  0.42587085176E+03  0.12309022818E+03 0.  0.
         35    2    3    3    0    0  0.10753326265E+03  0.80663966939E+02  0.23248177787E+04  0.24623778895E+04  0.80028562917E+03 0.  0.
         22    1    5    5    0    0 -0.27242613780E+03 -0.18438218142E+03  0.12376209341E+04  0.12805929743E+04  0.00000000000E+00 0. -1.
         22    1    5    5    0    0  0.37995940045E+03  0.26504614835E+03  0.10871968447E+04  0.11817849152E+04  0.00000000000E+00 0. -1.
          5    1    4    4  502    0 -0.66679801770E+02 -0.57374634624E+02  0.36344911082E+03  0.37397244661E+03  0.47000000000E+01 0. -1.
         -5    1    4    4    0  502 -0.40853460880E+02 -0.23289332315E+02  0.21446589295E+02  0.51898405158E+02  0.47000000000E+01 0. -1.
<mgrwt>
<rscale>  0 0.99971679E+03</rscale>
<asrwt>0</asrwt>
<pdfrwt beam="1">  1        1 0.43061241E+00 0.99971679E+03</pdfrwt>
<pdfrwt beam="2">  1       -1 0.13733484E-01 0.99971679E+03</pdfrwt>
<totfact> 0.32203890E+01</totfact>
</mgrwt>
</event>
<event>
 9    1  0.4296086E-036  0.1000007E+04  0.7818608E-02  0.8681031E-01
         -2   -1    0    0    0  501 -0.00000000000E+00  0.00000000000E+00  0.20936226032E+03  0.20936226032E+03  0.00000000000E+00 0.  1.
          2   -1    0    0  501    0  0.00000000000E+00 -0.00000000000E+00 -0.11941202455E+04  0.11941202455E+04  0.00000000000E+00 0.  1.
         36    2    1    2    0    0  0.28421709430E-13  0.14210854715E-13 -0.98475798515E+03  0.14034825058E+04  0.10000074273E+04 0.  0.
         25    2    3    3    0    0 -0.12136866217E+03 -0.71352124030E+02 -0.15218134297E+03  0.24560776039E+03  0.13169105154E+03 0.  0.
         35    2    3    3    0    0  0.12136866217E+03  0.71352124030E+02 -0.83257664219E+03  0.11578747454E+04  0.79225537748E+03 0.  0.
         22    1    5    5    0    0 -0.33093985325E+03  0.75972417030E+02 -0.46065362957E+03  0.57227157981E+03  0.00000000000E+00 0. -1.
         22    1    5    5    0    0  0.45230851543E+03 -0.46202930007E+01 -0.37192301262E+03  0.58560316559E+03  0.00000000000E+00 0. -1.
          5    1    4    4  502    0  0.10166580621E+02 -0.95862779460E+01 -0.83534104277E+02  0.84825070962E+02  0.47000000000E+01 0. -1.
         -5    1    4    4    0  502 -0.13153524279E+03 -0.61765846084E+02 -0.68647238688E+02  0.16078268943E+03  0.47000000000E+01 0. -1.
<mgrwt>
<rscale>  0 0.10000074E+04</rscale>
<asrwt>0</asrwt>
<pdfrwt beam="1">  1        2 0.18371081E+00 0.10000074E+04</pdfrwt>
<pdfrwt beam="2">  1       -2 0.32209578E-01 0.10000074E+04</pdfrwt>
<totfact> 0.20636016E+02</totfact>
</mgrwt>
</event>
<event>
 9    1  0.4296086E-036  0.9997451E+03  0.7818608E-02  0.8681281E-01
          2   -1    0    0  501    0  0.00000000000E+00  0.00000000000E+00  0.29516962817E+04  0.29516962817E+04  0.00000000000E+00 0. -1.
         -2   -1    0    0    0  501 -0.00000000000E+00 -0.00000000000E+00 -0.84653889549E+02  0.84653889549E+02  0.00000000000E+00 0. -1.
         36    2    1    2    0    0  0.49737991503E-13  0.00000000000E+00  0.28670423922E+04  0.30363501713E+04  0.99974510955E+03 0.  0.
         25    2    3    3    0    0 -0.40127600986E+02 -0.54824668714E+02  0.17126978678E+03  0.22273550233E+03  0.12514709534E+03 0.  0.
         35    2    3    3    0    0  0.40127600986E+02  0.54824668714E+02  0.26957726054E+04  0.28136146690E+04  0.80288330202E+03 0.  0.
         22    1    5    5    0    0 -0.31793703910E+03 -0.16877363904E+03  0.15842499480E+04  0.16246280805E+04  0.00000000000E+00 0. -1.
         22    1    5    5    0    0  0.35806464009E+03  0.22359830776E+03  0.11115226574E+04  0.11889865885E+04  0.00000000000E+00 0. -1.
          5    1    4    4  502    0  0.29548904792E+02 -0.32799889059E+02  0.13278956124E+03  0.14001474234E+03  0.47000000000E+01 0. -1.
         -5    1    4    4    0  502 -0.69676505778E+02 -0.22024779655E+02  0.38480225541E+02  0.82720759994E+02  0.47000000000E+01 0. -1.
<mgrwt>
<rscale>  0 0.99974511E+03</rscale>
<asrwt>0</asrwt>
<pdfrwt beam="1">  1        2 0.45410704E+00 0.99974511E+03</pdfrwt>
<pdfrwt beam="2">  1       -2 0.13023678E-01 0.99974511E+03</pdfrwt>
<totfact> 0.91177897E+01</totfact>
</mgrwt>
</event>
<event>
 9    1  0.4296086E-036  0.9996244E+03  0.7818608E-02  0.8681396E-01
         -2   -1    0    0    0  501 -0.00000000000E+00  0.00000000000E+00  0.19619779051E+04  0.19619779051E+04  0.00000000000E+00 0.  1.
          2   -1    0    0  501    0  0.00000000000E+00 -0.00000000000E+00 -0.12732673958E+03  0.12732673958E+03  0.00000000000E+00 0.  1.
         36    2    1    2    0    0  0.21316282073E-13 -0.71054273576E-14  0.18346511655E+04  0.20893046447E+04  0.99962442904E+03 0.  0.
         25    2    3    3    0    0 -0.14536737204E+02 -0.17382071254E+02  0.64473195787E+03  0.65721336268E+03  0.12544581880E+03 0.  0.
         35    2    3    3    0    0  0.14536737204E+02  0.17382071254E+02  0.11899192077E+04  0.14320912820E+04  0.79653265226E+03 0.  0.
         22    1    5    5    0    0  0.22166505210E+03  0.34271976058E+03  0.54941592424E+03  0.68443413666E+03  0.00000000000E+00 0.  1.
         22    1    5    5    0    0 -0.20712831489E+03 -0.32533768932E+03  0.64050328341E+03  0.74765714535E+03  0.00000000000E+00 0.  1.
          5    1    4    4  502    0 -0.50126047672E+02 -0.55548414321E+02  0.36591605975E+03  0.37351693372E+03  0.47000000000E+01 0. -1.
         -5    1    4    4    0  502  0.35589310468E+02  0.38166343067E+02  0.27881589812E+03  0.28369642896E+03  0.47000000000E+01 0. -1.
<mgrwt>
<rscale>  0 0.99962443E+03</rscale>
<asrwt>0</asrwt>
<pdfrwt beam="1">  1        2 0.19588731E-01 0.99962443E+03</pdfrwt>
<pdfrwt beam="2">  1       -2 0.30184273E+00 0.99962443E+03</pdfrwt>
<totfact> 0.99129810E+00</totfact>
</mgrwt>
</event>
<event>
 9    1  0.4296086E-036  0.1009007E+04  0.7818608E-02  0.8672508E-01
         -2   -1    0    0    0  501 -0.00000000000E+00  0.00000000000E+00  0.12989524504E+03  0.12989524504E+03  0.00000000000E+00 0.  1.
          2   -1    0    0  501    0  0.00000000000E+00 -0.00000000000E+00 -0.19594533024E+04  0.19594533024E+04  0.00000000000E+00 0.  1.
         36    2    1    2    0    0 -0.28421709430E-13  0.00000000000E+00 -0.18295580574E+04  0.20893485475E+04  0.10090067728E+04 0.  0.
         25    2    3    3    0    0 -0.50008641592E+02  0.13602598258E+03 -0.27195320273E+03  0.33235430610E+03  0.12448657815E+03 0.  0.
         35    2    3    3    0    0  0.50008641592E+02 -0.13602598258E+03 -0.15576048547E+04  0.17569942414E+04  0.79993246513E+03 0.  0.
         22    1    5    5    0    0 -0.28870150856E+03 -0.28960630889E+03 -0.56859872680E+03  0.70037481916E+03  0.00000000000E+00 0. -1.
         22    1    5    5    0    0  0.33871015015E+03  0.15358032630E+03 -0.98900612786E+03  0.10566194222E+04  0.00000000000E+00 0. -1.
          5    1    4    4  502    0  0.11763548794E+01 -0.21732636049E+02 -0.16366070934E+02  0.27633848053E+02  0.47000000000E+01 0. -1.
         -5    1    4    4    0  502 -0.51184996471E+02  0.15775861863E+03 -0.25558713179E+03  0.30472045805E+03  0.47000000000E+01 0. -1.
<mgrwt>
<rscale>  0 0.10090068E+04</rscale>
<asrwt>0</asrwt>
<pdfrwt beam="1">  1        2 0.30145431E+00 0.10090068E+04</pdfrwt>
<pdfrwt beam="2">  1       -2 0.19983887E-01 0.10090068E+04</pdfrwt>
<totfact> 0.17701315E+02</totfact>
</mgrwt>
</event>
<event>
 9    1  0.4296086E-036  0.1000536E+04  0.7818608E-02  0.8680528E-01
         -1   -1    0    0    0  501 -0.00000000000E+00  0.00000000000E+00  0.12515909126E+03  0.12515909126E+03  0.00000000000E+00 0.  1.
          1   -1    0    0  501    0  0.00000000000E+00 -0.00000000000E+00 -0.19996003131E+04  0.19996003131E+04  0.00000000000E+00 0.  1.
         36    2    1    2    0    0  0.00000000000E+00  0.28421709430E-13 -0.18744412219E+04  0.21247594044E+04  0.10005361724E+04 0.  0.
         25    2    3    3    0    0 -0.10945567101E+03 -0.77355856838E+02 -0.44522536312E+03  0.48175617723E+03  0.12609091097E+03 0.  0.
         35    2    3    3    0    0  0.10945567101E+03  0.77355856838E+02 -0.14292158588E+04  0.16430032272E+04  0.79927289525E+03 0.  0.
         22    1    5    5    0    0  0.13262501878E+02  0.33389686427E+03 -0.12959330380E+04  0.13383218779E+04  0.00000000000E+00 0. -1.
         22    1    5    5    0    0  0.96193169131E+02 -0.25654100743E+03 -0.13328282077E+03  0.30468134927E+03  0.00000000000E+00 0. -1.
          5    1    4    4  502    0  0.20373563792E+02 -0.39822465879E+02 -0.73177496249E+02  0.85894975683E+02  0.47000000000E+01 0.  1.
         -5    1    4    4    0  502 -0.12982923480E+03 -0.37533390958E+02 -0.37204786687E+03  0.39586120154E+03  0.47000000000E+01 0.  1.
<mgrwt>
<rscale>  0 0.10005362E+04</rscale>
<asrwt>0</asrwt>
<pdfrwt beam="1">  1        1 0.30763082E+00 0.10005362E+04</pdfrwt>
<pdfrwt beam="2">  1       -1 0.19255244E-01 0.10005362E+04</pdfrwt>
<totfact> 0.67852806E+01</totfact>
</mgrwt>
</event>
<event>
 9    1  0.4296086E-036  0.1000447E+04  0.7818608E-02  0.8680612E-01
         -2   -1    0    0    0  501 -0.00000000000E+00  0.00000000000E+00  0.28503628014E+03  0.28503628014E+03  0.00000000000E+00 0.  1.
          2   -1    0    0  501    0  0.00000000000E+00 -0.00000000000E+00 -0.87786546142E+03  0.87786546142E+03  0.00000000000E+00 0.  1.
         36    2    1    2    0    0 -0.14210854715E-13 -0.21316282073E-13 -0.59282918129E+03  0.11629017416E+04  0.10004469113E+04 0.  0.
         25    2    3    3    0    0 -0.12769271737E+03  0.48725298638E+02 -0.14719340847E+03  0.23633200955E+03  0.12452844834E+03 0.  0.
         35    2    3    3    0    0  0.12769271737E+03 -0.48725298638E+02 -0.44563577282E+03  0.92656973201E+03  0.80078751331E+03 0.  0.
         22    1    5    5    0    0  0.14423909154E+03  0.36732429571E+03 -0.19008009154E+03  0.43802111244E+03  0.00000000000E+00 0.  1.
         22    1    5    5    0    0 -0.16546374170E+02 -0.41604959434E+03 -0.25555568128E+03  0.48854861957E+03  0.00000000000E+00 0.  1.
          5    1    4    4  502    0 -0.10207208071E+03  0.59067335365E+02 -0.38593561043E+02  0.12417412259E+03  0.47000000000E+01 0. -1.
         -5    1    4    4    0  502 -0.25620636655E+02 -0.10342036726E+02 -0.10859984742E+03  0.11215788696E+03  0.47000000000E+01 0. -1.
<mgrwt>
<rscale>  0 0.10004469E+04</rscale>
<asrwt>0</asrwt>
<pdfrwt beam="1">  1        2 0.13505622E+00 0.10004469E+04</pdfrwt>
<pdfrwt beam="2">  1       -2 0.43851736E-01 0.10004469E+04</pdfrwt>
<totfact> 0.18114901E+02</totfact>
</mgrwt>
</event>
<event>
 9    1  0.4296086E-036  0.9999560E+03  0.7818608E-02  0.8681080E-01
          2   -1    0    0  501    0  0.00000000000E+00  0.00000000000E+00  0.33829043607E+04  0.33829043607E+04  0.00000000000E+00 0.  1.
         -2   -1    0    0    0  501 -0.00000000000E+00 -0.00000000000E+00 -0.73894493526E+02  0.73894493526E+02  0.00000000000E+00 0.  1.
         36    2    1    2    0    0  0.28421709430E-13  0.14210854715E-13  0.33090098672E+04  0.34567988543E+04  0.99995600780E+03 0.  0.
         25    2    3    3    0    0  0.11442129379E+03 -0.96192307803E+01  0.36329417195E+03  0.40132998100E+03  0.12608860458E+03 0.  0.
         35    2    3    3    0    0 -0.11442129379E+03  0.96192307803E+01  0.29457156953E+04  0.30554688733E+04  0.80340793877E+03 0.  0.
         22    1    5    5    0    0  0.28675356244E+03  0.21541064365E+03  0.14135625356E+04  0.14583512585E+04  0.00000000000E+00 0. -1.
         22    1    5    5    0    0 -0.40117485623E+03 -0.20579141287E+03  0.15321531596E+04  0.15971176148E+04  0.00000000000E+00 0. -1.
          5    1    4    4  502    0  0.38178471123E+02 -0.12028940684E+02  0.29828413578E+03  0.30099469552E+03  0.47000000000E+01 0. -1.
         -5    1    4    4    0  502  0.76242822669E+02  0.24097099041E+01  0.65010036167E+02  0.10033528548E+03  0.47000000000E+01 0. -1.
<mgrwt>
<rscale>  0 0.99995601E+03</rscale>
<asrwt>0</asrwt>
<pdfrwt beam="1">  1        2 0.52044670E+00 0.99995601E+03</pdfrwt>
<pdfrwt beam="2">  1       -2 0.11368386E-01 0.99995601E+03</pdfrwt>
<totfact> 0.57221942E+01</totfact>
</mgrwt>
</event>
<event>
 9    1  0.4296086E-036  0.1000437E+04  0.7818608E-02  0.8680621E-01
         -1   -1    0    0    0  501 -0.00000000000E+00  0.00000000000E+00  0.11437141808E+04  0.11437141808E+04  0.00000000000E+00 0. -1.
          1   -1    0    0  501    0  0.00000000000E+00 -0.00000000000E+00 -0.21877737838E+03  0.21877737838E+03  0.00000000000E+00 0. -1.
         36    2    1    2    0    0 -0.21316282073E-13 -0.56843418861E-13  0.92493680242E+03  0.13624915592E+04  0.10004374845E+04 0.  0.
         25    2    3    3    0    0  0.29266866954E+02  0.13034664462E+03  0.13868132587E+03  0.22997438306E+03  0.12573348580E+03 0.  0.
         35    2    3    3    0    0 -0.29266866954E+02 -0.13034664462E+03  0.78625547656E+03  0.11325171761E+04  0.80408375345E+03 0.  0.
         22    1    5    5    0    0 -0.16128606950E+03  0.25679623202E+03  0.62152766549E+03  0.69155920930E+03  0.00000000000E+00 0. -1.
         22    1    5    5    0    0  0.13201920255E+03 -0.38714287664E+03  0.16472781106E+03  0.44095796683E+03  0.00000000000E+00 0. -1.
          5    1    4    4  502    0  0.24361519577E+02 -0.19957099447E+02  0.14955615833E+02  0.35178543167E+02  0.47000000000E+01 0.  1.
         -5    1    4    4    0  502  0.49053473771E+01  0.15030374407E+03  0.12372571004E+03  0.19479583989E+03  0.47000000000E+01 0.  1.
<mgrwt>
<rscale>  0 0.10004375E+04</rscale>
<asrwt>0</asrwt>
<pdfrwt beam="1">  1        1 0.33658059E-01 0.10004375E+04</pdfrwt>
<pdfrwt beam="2">  1       -1 0.17595602E+00 0.10004375E+04</pdfrwt>
<totfact> 0.32864104E+01</totfact>
</mgrwt>
</event>
<event>
 9    1  0.4296086E-036  0.1000604E+04  0.7818608E-02  0.8680463E-01
          1   -1    0    0  501    0  0.00000000000E+00  0.00000000000E+00  0.98761715480E+03  0.98761715480E+03  0.00000000000E+00 0.  1.
         -1   -1    0    0    0  501 -0.00000000000E+00 -0.00000000000E+00 -0.25344044510E+03  0.25344044510E+03  0.00000000000E+00 0.  1.
         36    2    1    2    0    0 -0.14210854715E-13  0.14210854715E-13  0.73417670970E+03  0.12410575999E+04  0.10006040801E+04 0.  0.
         25    2    3    3    0    0  0.11243059616E+03 -0.65884333395E+02  0.74205707038E+02  0.19525701421E+03  0.12504971133E+03 0.  0.
         35    2    3    3    0    0 -0.11243059616E+03  0.65884333395E+02  0.65997100266E+03  0.10458005857E+04  0.80072202188E+03 0.  0.
         22    1    5    5    0    0  0.26583079450E+00 -0.30786775334E+03  0.36258025373E+02  0.30999559451E+03  0.00000000000E+00 0. -1.
         22    1    5    5    0    0 -0.11269642696E+03  0.37375208674E+03  0.62371297729E+03  0.73580499117E+03  0.00000000000E+00 0. -1.
          5    1    4    4  502    0  0.12425189633E+03 -0.24380733158E+02  0.24130878146E+02  0.12898582546E+03  0.47000000000E+01 0.  1.
         -5    1    4    4    0  502 -0.11821300164E+02 -0.41503600237E+02  0.50074828892E+02  0.66271188753E+02  0.47000000000E+01 0.  1.
<mgrwt>
<rscale>  0 0.10006041E+04</rscale>
<asrwt>0</asrwt>
<pdfrwt beam="1">  1        1 0.15194110E+00 0.10006041E+04</pdfrwt>
<pdfrwt beam="2">  1       -1 0.38990838E-01 0.10006041E+04</pdfrwt>
<totfact> 0.11064782E+02</totfact>
</mgrwt>
</event>
<event>
 9    1  0.4296086E-036  0.1003196E+04  0.7818608E-02  0.8678001E-01
          3   -1    0    0  501    0  0.00000000000E+00  0.00000000000E+00  0.27388655304E+03  0.27388655304E+03  0.00000000000E+00 0.  1.
         -3   -1    0    0    0  501 -0.00000000000E+00 -0.00000000000E+00 -0.91863000387E+03  0.91863000387E+03  0.00000000000E+00 0.  1.
         36    2    1    2    0    0 -0.28421709430E-13  0.00000000000E+00 -0.64474345083E+03  0.11925165569E+04  0.10031957043E+04 0.  0.
         25    2    3    3    0    0 -0.43415621294E+02 -0.13581940262E+03 -0.14731343760E+03  0.23987483964E+03  0.12452655739E+03 0.  0.
         35    2    3    3    0    0  0.43415621294E+02  0.13581940262E+03 -0.49743001323E+03  0.95264171727E+03  0.79984860888E+03 0.  0.
         22    1    5    5    0    0 -0.17011542733E+03  0.29322318183E+02 -0.64792864610E+03  0.67053007941E+03  0.00000000000E+00 0. -1.
         22    1    5    5    0    0  0.21353104863E+03  0.10649708444E+03  0.15049863287E+03  0.28211163786E+03  0.00000000000E+00 0. -1.
          5    1    4    4  502    0  0.43123684024E+02 -0.45191683900E+02 -0.36310998972E+02  0.72405241964E+02  0.47000000000E+01 0. -1.
         -5    1    4    4    0  502 -0.86539305317E+02 -0.90627718722E+02 -0.11100243862E+03  0.16746959768E+03  0.47000000000E+01 0. -1.
<mgrwt>
<rscale>  0 0.10031957E+04</rscale>
<asrwt>0</asrwt>
<pdfrwt beam="1">  1        3 0.42136392E-01 0.10031957E+04</pdfrwt>
<pdfrwt beam="2">  1       -3 0.14132769E+00 0.10031957E+04</pdfrwt>
<totfact> 0.69351378E+00</totfact>
</mgrwt>
</event>
<event>
 9    1  0.4296086E-036  0.9980175E+03  0.7818608E-02  0.8682928E-01
          2   -1    0    0  501    0  0.00000000000E+00  0.00000000000E+00  0.10378875708E+04  0.10378875708E+04  0.00000000000E+00 0.  1.
         -2   -1    0    0    0  501 -0.00000000000E+00 -0.00000000000E+00 -0.23991974297E+03  0.23991974297E+03  0.00000000000E+00 0.  1.
         36    2    1    2    0    0 -0.28421709430E-13 -0.71054273576E-14  0.79796782780E+03  0.12778073137E+04  0.99801747321E+03 0.  0.
         25    2    3    3    0    0  0.11034211808E+03 -0.40465061268E+02  0.24049847563E+03  0.29530073487E+03  0.12470045319E+03 0.  0.
         35    2    3    3    0    0 -0.11034211808E+03  0.40465061268E+02  0.55746935217E+03  0.98250657887E+03  0.80045880263E+03 0.  0.
         22    1    5    5    0    0  0.34307121355E+03 -0.20670426636E+02  0.17239167429E+03  0.38450489394E+03  0.00000000000E+00 0. -1.
         22    1    5    5    0    0 -0.45341333162E+03  0.61135487904E+02  0.38507767788E+03  0.59800168493E+03  0.00000000000E+00 0. -1.
          5    1    4    4  502    0  0.78791522923E+02  0.37092122190E+02  0.13107802951E+03  0.15744036786E+03  0.47000000000E+01 0. -1.
         -5    1    4    4    0  502  0.31550595154E+02 -0.77557183458E+02  0.10942044613E+03  0.13786036701E+03  0.47000000000E+01 0. -1.
<mgrwt>
<rscale>  0 0.99801747E+03</rscale>
<asrwt>0</asrwt>
<pdfrwt beam="1">  1        2 0.15967501E+00 0.99801747E+03</pdfrwt>
<pdfrwt beam="2">  1       -2 0.36910730E-01 0.99801747E+03</pdfrwt>
<totfact> 0.19901269E+02</totfact>
</mgrwt>
</event>
<event>
 9    1  0.4296086E-036  0.1000763E+04  0.7818608E-02  0.8680312E-01
          2   -1    0    0  501    0  0.00000000000E+00  0.00000000000E+00  0.88324866232E+03  0.88324866232E+03  0.00000000000E+00 0. -1.
         -2   -1    0    0    0  501 -0.00000000000E+00 -0.00000000000E+00 -0.28347810920E+03  0.28347810920E+03  0.00000000000E+00 0. -1.
         36    2    1    2    0    0  0.00000000000E+00 -0.14210854715E-13  0.59977055313E+03  0.11667267715E+04  0.10007630304E+04 0.  0.
         25    2    3    3    0    0 -0.13381527356E+03  0.39887890964E+02  0.80313168800E+02  0.20416971531E+03  0.12544917809E+03 0.  0.
         35    2    3    3    0    0  0.13381527356E+03 -0.39887890964E+02  0.51945738432E+03  0.96255705621E+03  0.79823714587E+03 0.  0.
         22    1    5    5    0    0  0.30869657312E+03 -0.33970850554E+03  0.24668080173E+03  0.52110158408E+03  0.00000000000E+00 0.  1.
         22    1    5    5    0    0 -0.17488129956E+03  0.29982061457E+03  0.27277658259E+03  0.44145547213E+03  0.00000000000E+00 0.  1.
          5    1    4    4  502    0 -0.22519814452E+02  0.25741308761E+02 -0.30750831728E+02  0.46232679693E+02  0.47000000000E+01 0. -1.
         -5    1    4    4    0  502 -0.11129545911E+03  0.14146582203E+02  0.11106400053E+03  0.15793703562E+03  0.47000000000E+01 0. -1.
<mgrwt>
<rscale>  0 0.10007630E+04</rscale>
<asrwt>0</asrwt>
<pdfrwt beam="1">  1        2 0.13588441E+00 0.10007630E+04</pdfrwt>
<pdfrwt beam="2">  1       -2 0.43612017E-01 0.10007630E+04</pdfrwt>
<totfact> 0.18158714E+02</totfact>
</mgrwt>
</event>
<event>
 9    1  0.4296086E-036  0.9997557E+03  0.7818608E-02  0.8681271E-01
          1   -1    0    0  501    0  0.00000000000E+00  0.00000000000E+00  0.45508433678E+03  0.45508433678E+03  0.00000000000E+00 0.  1.
         -1   -1    0    0    0  501 -0.00000000000E+00 -0.00000000000E+00 -0.54908033323E+03  0.54908033323E+03  0.00000000000E+00 0.  1.
         36    2    1    2    0    0 -0.14210854715E-13 -0.28421709430E-13 -0.93995996457E+02  0.10041646700E+04  0.99975568873E+03 0.  0.
         25    2    3    3    0    0  0.79185708001E+02  0.10086571816E+03  0.38536490131E+02  0.18298131847E+03  0.12471099546E+03 0.  0.
         35    2    3    3    0    0 -0.79185708001E+02 -0.10086571816E+03 -0.13253248659E+03  0.82118335153E+03  0.80020807756E+03 0.  0.
         22    1    5    5    0    0 -0.36849792177E+03 -0.99111250454E+02 -0.30133093566E+03  0.48622432179E+03  0.00000000000E+00 0. -1.
         22    1    5    5    0    0  0.28931221377E+03 -0.17544677018E+01  0.16879844908E+03  0.33495902974E+03  0.00000000000E+00 0. -1.
          5    1    4    4  502    0 -0.13976101624E+02  0.36889876154E+01 -0.28666134582E+02  0.32446530139E+02  0.47000000000E+01 0.  1.
         -5    1    4    4    0  502  0.93161809624E+02  0.97176730540E+02  0.67202624712E+02  0.15053478834E+03  0.47000000000E+01 0.  1.
<mgrwt>
<rscale>  0 0.99975569E+03</rscale>
<asrwt>0</asrwt>
<pdfrwt beam="1">  1        1 0.70012975E-01 0.99975569E+03</pdfrwt>
<pdfrwt beam="2">  1       -1 0.84473897E-01 0.99975569E+03</pdfrwt>
<totfact> 0.82982285E+01</totfact>
</mgrwt>
</event>
<event>
 9    1  0.4296086E-036  0.1000894E+04  0.7818608E-02  0.8680187E-01
          1   -1    0    0  501    0  0.00000000000E+00  0.00000000000E+00  0.99327592576E+03  0.99327592576E+03  0.00000000000E+00 0. -1.
         -1   -1    0    0    0  501 -0.00000000000E+00 -0.00000000000E+00 -0.25214262359E+03  0.25214262359E+03  0.00000000000E+00 0. -1.
         36    2    1    2    0    0  0.71054273576E-14  0.14210854715E-13  0.74113330217E+03  0.12454185494E+04  0.10008939961E+04 0.  0.
         25    2    3    3    0    0 -0.43690658520E+02  0.12536838688E+03  0.19961985954E+03  0.27035871883E+03  0.12497856798E+03 0.  0.
         35    2    3    3    0    0  0.43690658520E+02 -0.12536838688E+03  0.54151344263E+03  0.97505983052E+03  0.79992422046E+03 0.  0.
         22    1    5    5    0    0 -0.30975764529E+03 -0.22820342230E+03  0.94852262050E+02  0.39626197443E+03  0.00000000000E+00 0.  1.
         22    1    5    5    0    0  0.35344830381E+03  0.10283503542E+03  0.44666118058E+03  0.57879785609E+03  0.00000000000E+00 0.  1.
          5    1    4    4  502    0 -0.13572959012E+02  0.13187907733E+03  0.19902314487E+03  0.23918323195E+03  0.47000000000E+01 0.  1.
         -5    1    4    4    0  502 -0.30117699507E+02 -0.65106904498E+01  0.59671467291E+00  0.31175486879E+02  0.47000000000E+01 0.  1.
<mgrwt>
<rscale>  0 0.10008940E+04</rscale>
<asrwt>0</asrwt>
<pdfrwt beam="1">  1        1 0.15281168E+00 0.10008940E+04</pdfrwt>
<pdfrwt beam="2">  1       -1 0.38791173E-01 0.10008940E+04</pdfrwt>
<totfact> 0.11050225E+02</totfact>
</mgrwt>
</event>
<event>
 9    1  0.4296086E-036  0.1000971E+04  0.7818608E-02  0.8680114E-01
         -1   -1    0    0    0  501 -0.00000000000E+00  0.00000000000E+00  0.26428798773E+03  0.26428798773E+03  0.00000000000E+00 0. -1.
          1   -1    0    0  501    0  0.00000000000E+00 -0.00000000000E+00 -0.94777580937E+03  0.94777580937E+03  0.00000000000E+00 0. -1.
         36    2    1    2    0    0  0.00000000000E+00 -0.71054273576E-14 -0.68348782164E+03  0.12120637971E+04  0.10009710515E+04 0.  0.
         25    2    3    3    0    0 -0.11903378078E+03  0.52727655199E+02 -0.63512799409E+02  0.19149004256E+03  0.12524102411E+03 0.  0.
         35    2    3    3    0    0  0.11903378078E+03 -0.52727655199E+02 -0.61997502223E+03  0.10205737545E+04  0.80015780549E+03 0.  0.
         22    1    5    5    0    0 -0.10056661921E+03 -0.27419531712E+03 -0.64464215973E+03  0.70771479491E+03  0.00000000000E+00 0.  1.
         22    1    5    5    0    0  0.21960040000E+03  0.22146766192E+03  0.24667137503E+02  0.31285895964E+03  0.00000000000E+00 0.  1.
          5    1    4    4  502    0 -0.12267886369E+03  0.77815517160E+02 -0.28683797091E+02  0.14815602763E+03  0.47000000000E+01 0.  1.
         -5    1    4    4    0  502  0.36450829095E+01 -0.25087861961E+02 -0.34829002318E+02  0.43334014927E+02  0.47000000000E+01 0.  1.
<mgrwt>
<rscale>  0 0.10009711E+04</rscale>
<asrwt>0</asrwt>
<pdfrwt beam="1">  1        1 0.14581166E+00 0.10009711E+04</pdfrwt>
<pdfrwt beam="2">  1       -1 0.40659690E-01 0.10009711E+04</pdfrwt>
<totfact> 0.11057289E+02</totfact>
</mgrwt>
</event>
<event>
 9    1  0.4296086E-036  0.1000727E+04  0.7818608E-02  0.8680346E-01
         -1   -1    0    0    0  501 -0.00000000000E+00  0.00000000000E+00  0.27800991799E+03  0.27800991799E+03  0.00000000000E+00 0. -1.
          1   -1    0    0  501    0  0.00000000000E+00 -0.00000000000E+00 -0.90055686638E+03  0.90055686638E+03  0.00000000000E+00 0. -1.
         36    2    1    2    0    0  0.00000000000E+00  0.00000000000E+00 -0.62254694839E+03  0.11785667844E+04  0.10007272167E+04 0.  0.
         25    2    3    3    0    0 -0.66479977767E+02  0.94384216162E+02 -0.21148984415E+03  0.27099531537E+03  0.12402636441E+03 0.  0.
         35    2    3    3    0    0  0.66479977767E+02 -0.94384216162E+02 -0.41105710425E+03  0.90757146901E+03  0.80086831670E+03 0.  0.
         22    1    5    5    0    0 -0.13694050182E+03  0.13826773982E+03 -0.53902855042E+03  0.57308153616E+03  0.00000000000E+00 0.  1.
         22    1    5    5    0    0  0.20342047959E+03 -0.23265195598E+03  0.12797144618E+03  0.33448993285E+03  0.00000000000E+00 0.  1.
          5    1    4    4  502    0 -0.32223838132E+02  0.10356383749E+00  0.44306111742E+01  0.32864978089E+02  0.47000000000E+01 0.  1.
         -5    1    4    4    0  502 -0.34256139635E+02  0.94280652325E+02 -0.21592045532E+03  0.23813033728E+03  0.47000000000E+01 0.  1.
<mgrwt>
<rscale>  0 0.10007272E+04</rscale>
<asrwt>0</asrwt>
<pdfrwt beam="1">  1        1 0.13854721E+00 0.10007272E+04</pdfrwt>
<pdfrwt beam="2">  1       -1 0.42770756E-01 0.10007272E+04</pdfrwt>
<totfact> 0.11043434E+02</totfact>
</mgrwt>
</event>
<event>
 9    1  0.4296086E-036  0.9999972E+03  0.7818608E-02  0.8681041E-01
          1   -1    0    0  501    0  0.00000000000E+00  0.00000000000E+00  0.95948999443E+03  0.95948999443E+03  0.00000000000E+00 0.  1.
         -1   -1    0    0    0  501 -0.00000000000E+00 -0.00000000000E+00 -0.26055360717E+03  0.26055360717E+03  0.00000000000E+00 0.  1.
         36    2    1    2    0    0  0.14210854715E-13  0.14210854715E-13  0.69893638725E+03  0.12200436016E+04  0.99999715818E+03 0.  0.
         25    2    3    3    0    0 -0.61925486349E+02  0.93691902620E+02  0.25925968326E+02  0.16856869361E+03  0.12300532573E+03 0.  0.
         35    2    3    3    0    0  0.61925486349E+02 -0.93691902620E+02  0.67301041893E+03  0.10514749080E+04  0.80002719932E+03 0.  0.
         22    1    5    5    0    0  0.34361498182E+03  0.14532074651E+03  0.54506639851E+03  0.66052006320E+03  0.00000000000E+00 0.  1.
         22    1    5    5    0    0 -0.28168949547E+03 -0.23901264913E+03  0.12794402041E+03  0.39095484479E+03  0.00000000000E+00 0.  1.
          5    1    4    4  502    0  0.19068407600E+02 -0.14220692535E+02 -0.13720001099E+02  0.27859660707E+02  0.47000000000E+01 0. -1.
         -5    1    4    4    0  502 -0.80993893949E+02  0.10791259515E+03  0.39645969425E+02  0.14070903291E+03  0.47000000000E+01 0. -1.
<mgrwt>
<rscale>  0 0.99999716E+03</rscale>
<asrwt>0</asrwt>
<pdfrwt beam="1">  1        1 0.14761384E+00 0.99999716E+03</pdfrwt>
<pdfrwt beam="2">  1       -1 0.40085171E-01 0.99999716E+03</pdfrwt>
<totfact> 0.11096984E+02</totfact>
</mgrwt>
</event>
<event>
 9    1  0.4296086E-036  0.9995825E+03  0.7818608E-02  0.8681436E-01
         -2   -1    0    0    0  501 -0.00000000000E+00  0.00000000000E+00  0.11104386774E+03  0.11104386774E+03  0.00000000000E+00 0.  1.
          2   -1    0    0  501    0  0.00000000000E+00 -0.00000000000E+00 -0.22494830486E+04  0.22494830486E+04  0.00000000000E+00 0.  1.
         36    2    1    2    0    0  0.00000000000E+00  0.00000000000E+00 -0.21384391808E+04  0.23605269163E+04  0.99958250914E+03 0.  0.
         25    2    3    3    0    0  0.98160026431E+02  0.83855068079E+02 -0.53124093730E+03  0.56090472613E+03  0.12541975563E+03 0.  0.
         35    2    3    3    0    0 -0.98160026431E+02 -0.83855068079E+02 -0.16071982436E+04  0.17996221902E+04  0.79930392854E+03 0.  0.
         22    1    5    5    0    0 -0.33932946506E+03 -0.23487906796E+02 -0.14833937235E+04  0.15218912926E+04  0.00000000000E+00 0.  1.
         22    1    5    5    0    0  0.24116943863E+03 -0.60367161283E+02 -0.12380452004E+03  0.27773089759E+03  0.00000000000E+00 0.  1.
          5    1    4    4  502    0  0.56063940887E+01  0.43369181618E+02 -0.40290898272E+02  0.59646995335E+02  0.47000000000E+01 0. -1.
         -5    1    4    4    0  502  0.92553632342E+02  0.40485886461E+02 -0.49095003902E+03  0.50125773079E+03  0.47000000000E+01 0. -1.
<mgrwt>
<rscale>  0 0.99958251E+03</rscale>
<asrwt>0</asrwt>
<pdfrwt beam="1">  1        2 0.34607428E+00 0.99958251E+03</pdfrwt>
<pdfrwt beam="2">  1       -2 0.17083673E-01 0.99958251E+03</pdfrwt>
<totfact> 0.15771109E+02</totfact>
</mgrwt>
</event>
<event>
 9    1  0.4296086E-036  0.1000000E+04  0.7818608E-02  0.8681038E-01
          2   -1    0    0  501    0  0.00000000000E+00  0.00000000000E+00  0.19538278821E+04  0.19538278821E+04  0.00000000000E+00 0. -1.
         -2   -1    0    0    0  501 -0.00000000000E+00 -0.00000000000E+00 -0.12795398102E+03  0.12795398102E+03  0.00000000000E+00 0. -1.
         36    2    1    2    0    0 -0.35527136788E-14 -0.14210854715E-13  0.18258739011E+04  0.20817818631E+04  0.10000001115E+04 0.  0.
         25    2    3    3    0    0 -0.64663572146E+01  0.44406987990E+02  0.66148981369E+02  0.14783875895E+03  0.12436565665E+03 0.  0.
         35    2    3    3    0    0  0.64663572146E+01 -0.44406987990E+02  0.17597249197E+04  0.19339431042E+04  0.80093092258E+03 0.  0.
         22    1    5    5    0    0 -0.40050124104E+02  0.35556162342E+03  0.11404955909E+04  0.11953067696E+04  0.00000000000E+00 0.  1.
         22    1    5    5    0    0  0.46516481319E+02 -0.39996861141E+03  0.61922932882E+03  0.73863633461E+03  0.00000000000E+00 0.  1.
          5    1    4    4  502    0 -0.34176324623E+02 -0.33284035186E+02  0.35771472547E+02  0.59812510490E+02  0.47000000000E+01 0.  1.
         -5    1    4    4    0  502  0.27709967408E+02  0.77691023176E+02  0.30377508822E+02  0.88026248461E+02  0.47000000000E+01 0.  1.
<mgrwt>
<rscale>  0 0.10000001E+04</rscale>
<asrwt>0</asrwt>
<pdfrwt beam="1">  1        2 0.30058888E+00 0.10000001E+04</pdfrwt>
<pdfrwt beam="2">  1       -2 0.19685229E-01 0.10000001E+04</pdfrwt>
<totfact> 0.18303050E+02</totfact>
</mgrwt>
</event>
<event>
 9    1  0.4296086E-036  0.9998601E+03  0.7818608E-02  0.8681171E-01
          2   -1    0    0  501    0  0.00000000000E+00  0.00000000000E+00  0.30754004051E+04  0.30754004051E+04  0.00000000000E+00 0.  1.
         -2   -1    0    0    0  501 -0.00000000000E+00 -0.00000000000E+00 -0.81267488392E+02  0.81267488392E+02  0.00000000000E+00 0.  1.
         36    2    1    2    0    0  0.28421709430E-13 -0.14210854715E-13  0.29941329167E+04  0.31566678935E+04  0.99986012366E+03 0.  0.
         25    2    3    3    0    0 -0.91836968639E+02 -0.63456291383E+02  0.29346285596E+03  0.33822770696E+03  0.12576487668E+03 0.  0.
         35    2    3    3    0    0  0.91836968639E+02  0.63456291383E+02  0.27006700607E+04  0.28184401865E+04  0.79845198871E+03 0.  0.
         22    1    5    5    0    0  0.30741406742E+03 -0.89982223419E+02  0.45050433687E+03  0.55276972323E+03  0.00000000000E+00 0.  1.
         22    1    5    5    0    0 -0.21557709878E+03  0.15343851480E+03  0.22501657239E+04  0.22656704633E+04  0.00000000000E+00 0.  1.
          5    1    4    4  502    0 -0.41648522206E+01 -0.78235856196E+02  0.12287035874E+03  0.14579921208E+03  0.47000000000E+01 0.  1.
         -5    1    4    4    0  502 -0.87672116418E+02  0.14779564813E+02  0.17059249722E+03  0.19242849488E+03  0.47000000000E+01 0.  1.
<mgrwt>
<rscale>  0 0.99986012E+03</rscale>
<asrwt>0</asrwt>
<pdfrwt beam="1">  1        2 0.47313843E+00 0.99986012E+03</pdfrwt>
<pdfrwt beam="2">  1       -2 0.12502693E-01 0.99986012E+03</pdfrwt>
<totfact> 0.80602440E+01</totfact>
</mgrwt>
</event>
<event>
 9    1  0.4296086E-036  0.9998611E+03  0.7818608E-02  0.8681170E-01
         -2   -1    0    0    0  501 -0.00000000000E+00  0.00000000000E+00  0.45546947350E+03  0.45546947350E+03  0.00000000000E+00 0.  1.
          2   -1    0    0  501    0  0.00000000000E+00 -0.00000000000E+00 -0.54873171425E+03  0.54873171425E+03  0.00000000000E+00 0.  1.
         36    2    1    2    0    0  0.28421709430E-13 -0.14210854715E-13 -0.93262240759E+02  0.10042011877E+04  0.99986108031E+03 0.  0.
         25    2    3    3    0    0  0.72956267257E+02  0.11731744091E+03 -0.37580740166E+02  0.19085343757E+03  0.12620112412E+03 0.  0.
         35    2    3    3    0    0 -0.72956267257E+02 -0.11731744091E+03 -0.55681500593E+02  0.81334775018E+03  0.79959248017E+03 0.  0.
         22    1    5    5    0    0 -0.75756602411E+02 -0.41048046299E+03  0.16246578865E+03  0.44791562351E+03  0.00000000000E+00 0.  1.
         22    1    5    5    0    0  0.28003351542E+01  0.29316302209E+03 -0.21814728924E+03  0.36543212666E+03  0.00000000000E+00 0.  1.
          5    1    4    4  502    0 -0.22940038137E+02  0.59739226035E+02  0.16892840305E+02  0.66351175804E+02  0.47000000000E+01 0.  1.
         -5    1    4    4    0  502  0.95896305394E+02  0.57578214872E+02 -0.54473580471E+02  0.12450226177E+03  0.47000000000E+01 0.  1.
<mgrwt>
<rscale>  0 0.99986108E+03</rscale>
<asrwt>0</asrwt>
<pdfrwt beam="1">  1        2 0.84420264E-01 0.99986108E+03</pdfrwt>
<pdfrwt beam="2">  1       -2 0.70072227E-01 0.99986108E+03</pdfrwt>
<totfact> 0.12383487E+02</totfact>
</mgrwt>
</event>
<event>
 9    1  0.4296086E-036  0.1000400E+04  0.7818608E-02  0.8680657E-01
         -2   -1    0    0    0  501 -0.00000000000E+00  0.00000000000E+00  0.45977937839E+03  0.45977937839E+03  0.00000000000E+00 0.  1.
          2   -1    0    0  501    0  0.00000000000E+00 -0.00000000000E+00 -0.54417461407E+03  0.54417461407E+03  0.00000000000E+00 0.  1.
         36    2    1    2    0    0  0.14210854715E-13 -0.28421709430E-13 -0.84395235688E+02  0.10039539925E+04  0.10004004514E+04 0.  0.
         25    2    3    3    0    0  0.11260294354E+03 -0.64024083604E+02 -0.69147956183E+02  0.19241150524E+03  0.12434726105E+03 0.  0.
         35    2    3    3    0    0 -0.11260294354E+03  0.64024083604E+02 -0.15247279504E+02  0.81154248722E+03  0.80099327266E+03 0.  0.
         22    1    5    5    0    0 -0.10186805543E+03 -0.61243177923E+02  0.37927900787E+03  0.39746747461E+03  0.00000000000E+00 0. -1.
         22    1    5    5    0    0 -0.10734888113E+02  0.12526726153E+03 -0.39452628738E+03  0.41407501261E+03  0.00000000000E+00 0. -1.
          5    1    4    4  502    0  0.72629060075E+02 -0.23281178126E+01 -0.90079871408E+02  0.11583122952E+03  0.47000000000E+01 0. -1.
         -5    1    4    4    0  502  0.39973883466E+02 -0.61695965792E+02  0.20931915225E+02  0.76580275720E+02  0.47000000000E+01 0. -1.
<mgrwt>
<rscale>  0 0.10004005E+04</rscale>
<asrwt>0</asrwt>
<pdfrwt beam="1">  1        2 0.83719172E-01 0.10004005E+04</pdfrwt>
<pdfrwt beam="2">  1       -2 0.70735289E-01 0.10004005E+04</pdfrwt>
<totfact> 0.12250230E+02</totfact>
</mgrwt>
</event>
<event>
 9    1  0.4296086E-036  0.1000036E+04  0.7818608E-02  0.8681004E-01
         -2   -1    0    0    0  501 -0.00000000000E+00  0.00000000000E+00  0.51462687907E+03  0.51462687907E+03  0.00000000000E+00 0. -1.
          2   -1    0    0  501    0  0.00000000000E+00 -0.00000000000E+00 -0.48582393455E+03  0.48582393455E+03  0.00000000000E+00 0. -1.
         36    2    1    2    0    0 -0.14210854715E-13  0.00000000000E+00  0.28802944519E+02  0.10004508136E+04  0.10000361098E+04 0.  0.
         25    2    3    3    0    0  0.39574115076E+02  0.64287816246E+02 -0.10337966807E+03  0.18575722783E+03  0.13460816475E+03 0.  0.
         35    2    3    3    0    0 -0.39574115076E+02 -0.64287816246E+02  0.13218261259E+03  0.81469358580E+03  0.80034640111E+03 0.  0.
         22    1    5    5    0    0 -0.39931412454E+03  0.96590215376E+01  0.19100636924E+03  0.44275105855E+03  0.00000000000E+00 0.  1.
         22    1    5    5    0    0  0.35974000947E+03 -0.73946837784E+02 -0.58823756656E+02  0.37194252725E+03  0.00000000000E+00 0.  1.
          5    1    4    4  502    0  0.55031462310E+02  0.32923672208E+02 -0.12765300745E+03  0.14293288756E+03  0.47000000000E+01 0. -1.
         -5    1    4    4    0  502 -0.15457347234E+02  0.31364144039E+02  0.24273339378E+02  0.42824340268E+02  0.47000000000E+01 0. -1.
<mgrwt>
<rscale>  0 0.10000361E+04</rscale>
<asrwt>0</asrwt>
<pdfrwt beam="1">  1        2 0.74742144E-01 0.10000361E+04</pdfrwt>
<pdfrwt beam="2">  1       -2 0.79173366E-01 0.10000361E+04</pdfrwt>
<totfact> 0.10860467E+02</totfact>
</mgrwt>
</event>
<event>
 9    1  0.4296086E-036  0.9999570E+03  0.7818608E-02  0.8681079E-01
         -2   -1    0    0    0  501 -0.00000000000E+00  0.00000000000E+00  0.69009835367E+02  0.69009835367E+02  0.00000000000E+00 0. -1.
          2   -1    0    0  501    0  0.00000000000E+00 -0.00000000000E+00 -0.36223607870E+04  0.36223607870E+04  0.00000000000E+00 0. -1.
         36    2    1    2    0    0  0.00000000000E+00  0.00000000000E+00 -0.35533509516E+04  0.36913706224E+04  0.99995704217E+03 0.  0.
         25    2    3    3    0    0  0.11416096280E+03 -0.80230686988E+02 -0.63794524783E+03  0.66480639462E+03  0.12459419942E+03 0.  0.
         35    2    3    3    0    0 -0.11416096280E+03  0.80230686988E+02 -0.29154057038E+04  0.30265642277E+04  0.80064406472E+03 0.  0.
         22    1    5    5    0    0 -0.48549584240E+02  0.38030520882E+03 -0.23682797201E+04  0.23991119079E+04  0.00000000000E+00 0. -1.
         22    1    5    5    0    0 -0.65611378562E+02 -0.30007452183E+03 -0.54712598372E+03  0.62745231987E+03  0.00000000000E+00 0. -1.
          5    1    4    4  502    0  0.39434795326E+02 -0.93037752707E+02 -0.46561718911E+03  0.47647936294E+03  0.47000000000E+01 0.  1.
         -5    1    4    4    0  502  0.74726167477E+02  0.12807065719E+02 -0.17232805873E+03  0.18832703168E+03  0.47000000000E+01 0.  1.
<mgrwt>
<rscale>  0 0.99995704E+03</rscale>
<asrwt>0</asrwt>
<pdfrwt beam="1">  1        2 0.55728631E+00 0.99995704E+03</pdfrwt>
<pdfrwt beam="2">  1       -2 0.10616897E-01 0.99995704E+03</pdfrwt>
<totfact> 0.42155292E+01</totfact>
</mgrwt>
</event>
<event>
 9    1  0.4296086E-036  0.9994264E+03  0.7818608E-02  0.8681584E-01
          2   -1    0    0  501    0  0.00000000000E+00  0.00000000000E+00  0.98568163508E+03  0.98568163508E+03  0.00000000000E+00 0.  1.
         -2   -1    0    0    0  501 -0.00000000000E+00 -0.00000000000E+00 -0.25334070907E+03  0.25334070907E+03  0.00000000000E+00 0.  1.
         36    2    1    2    0    0 -0.42632564146E-13  0.00000000000E+00  0.73234092601E+03  0.12390223441E+04  0.99942640419E+03 0.  0.
         25    2    3    3    0    0  0.29479482732E+02  0.70938165977E+02 -0.31546763011E+01  0.14981398012E+03  0.12858076591E+03 0.  0.
         35    2    3    3    0    0 -0.29479482732E+02 -0.70938165977E+02  0.73549560231E+03  0.10892083640E+04  0.79969982867E+03 0.  0.
         22    1    5    5    0    0  0.30159871260E+03  0.21127997918E+03  0.32858809613E+03  0.49352927974E+03  0.00000000000E+00 0. -1.
         22    1    5    5    0    0 -0.33107819533E+03 -0.28221814516E+03  0.40690750618E+03  0.59567908429E+03  0.00000000000E+00 0. -1.
          5    1    4    4  502    0  0.76970973851E+02  0.35679497879E+02  0.17937213418E+02  0.86841182682E+02  0.47000000000E+01 0.  1.
         -5    1    4    4    0  502 -0.47491491118E+02  0.35258668097E+02 -0.21091889719E+02  0.62972797433E+02  0.47000000000E+01 0.  1.
<mgrwt>
<rscale>  0 0.99942640E+03</rscale>
<asrwt>0</asrwt>
<pdfrwt beam="1">  1        2 0.15164333E+00 0.99942640E+03</pdfrwt>
<pdfrwt beam="2">  1       -2 0.38975494E-01 0.99942640E+03</pdfrwt>
<totfact> 0.19352780E+02</totfact>
</mgrwt>
</event>
<event>
 9    1  0.4296086E-036  0.1000009E+04  0.7818608E-02  0.8681029E-01
          1   -1    0    0  501    0  0.00000000000E+00  0.00000000000E+00  0.39752562628E+03  0.39752562628E+03  0.00000000000E+00 0.  1.
         -1   -1    0    0    0  501 -0.00000000000E+00 -0.00000000000E+00 -0.62890195986E+03  0.62890195986E+03  0.00000000000E+00 0.  1.
         36    2    1    2    0    0 -0.14210854715E-13  0.00000000000E+00 -0.23137633358E+03  0.10264275861E+04  0.10000092909E+04 0.  0.
         25    2    3    3    0    0  0.11798024431E+03 -0.23223781050E+02 -0.12352194853E+03  0.21322603843E+03  0.12549497856E+03 0.  0.
         35    2    3    3    0    0 -0.11798024431E+03  0.23223781050E+02 -0.10785438505E+03  0.81320154771E+03  0.79699780851E+03 0.  0.
         22    1    5    5    0    0 -0.58821887438E+02  0.19987681001E+02  0.34800575470E+03  0.35350746405E+03  0.00000000000E+00 0. -1.
         22    1    5    5    0    0 -0.59158356873E+02  0.32361000487E+01 -0.45586013975E+03  0.45969408366E+03  0.00000000000E+00 0. -1.
          5    1    4    4  502    0  0.50510661364E+02 -0.73638950902E+02 -0.65425830792E+02  0.11080005116E+03  0.47000000000E+01 0. -1.
         -5    1    4    4    0  502  0.67469582947E+02  0.50415169852E+02 -0.58096117733E+02  0.10242598728E+03  0.47000000000E+01 0. -1.
<mgrwt>
<rscale>  0 0.10000093E+04</rscale>
<asrwt>0</asrwt>
<pdfrwt beam="1">  1        1 0.61157789E-01 0.10000093E+04</pdfrwt>
<pdfrwt beam="2">  1       -1 0.96754148E-01 0.10000093E+04</pdfrwt>
<totfact> 0.74333847E+01</totfact>
</mgrwt>
</event>
<event>
 9    1  0.4296086E-036  0.9997834E+03  0.7818608E-02  0.8681244E-01
         -1   -1    0    0    0  501 -0.00000000000E+00  0.00000000000E+00  0.11528062867E+03  0.11528062867E+03  0.00000000000E+00 0.  1.
          1   -1    0    0  501    0  0.00000000000E+00 -0.00000000000E+00 -0.21676816157E+04  0.21676816157E+04  0.00000000000E+00 0.  1.
         36    2    1    2    0    0  0.00000000000E+00 -0.56843418861E-13 -0.20524009871E+04  0.22829622444E+04  0.99978337535E+03 0.  0.
         25    2    3    3    0    0  0.76251893122E+01 -0.13344148409E+03 -0.49506502605E+03  0.52789095302E+03  0.12535830676E+03 0.  0.
         35    2    3    3    0    0 -0.76251893122E+01  0.13344148409E+03 -0.15573359610E+04  0.17550712914E+04  0.79819494433E+03 0.  0.
         22    1    5    5    0    0  0.93350251638E+02 -0.12399883123E+03  0.17452150794E+02  0.15618757055E+03  0.00000000000E+00 0. -1.
         22    1    5    5    0    0 -0.10097544095E+03  0.25744031532E+03 -0.15747881118E+04  0.15988837208E+04  0.00000000000E+00 0. -1.
          5    1    4    4  502    0  0.50932650769E+02 -0.19632888461E+02 -0.94869259781E+02  0.10955296288E+03  0.47000000000E+01 0. -1.
         -5    1    4    4    0  502 -0.43307461457E+02 -0.11380859563E+03 -0.40019576627E+03  0.41833799015E+03  0.47000000000E+01 0. -1.
<mgrwt>
<rscale>  0 0.99978338E+03</rscale>
<asrwt>0</asrwt>
<pdfrwt beam="1">  1        1 0.33348949E+00 0.99978338E+03</pdfrwt>
<pdfrwt beam="2">  1       -1 0.17735481E-01 0.99978338E+03</pdfrwt>
<totfact> 0.59200481E+01</totfact>
</mgrwt>
</event>
<event>
 9    1  0.4296086E-036  0.9993804E+03  0.7818608E-02  0.8681628E-01
         -2   -1    0    0    0  501 -0.00000000000E+00  0.00000000000E+00  0.22551217195E+03  0.22551217195E+03  0.00000000000E+00 0. -1.
          2   -1    0    0  501    0  0.00000000000E+00 -0.00000000000E+00 -0.11072143198E+04  0.11072143198E+04  0.00000000000E+00 0. -1.
         36    2    1    2    0    0  0.28421709430E-13  0.00000000000E+00 -0.88170214782E+03  0.13327264917E+04  0.99938042020E+03 0.  0.
         25    2    3    3    0    0  0.92147709265E+02  0.10280506442E+03 -0.19435004989E+03  0.26918688532E+03  0.12501822163E+03 0.  0.
         35    2    3    3    0    0 -0.92147709265E+02 -0.10280506442E+03 -0.68735209792E+03  0.10635396064E+04  0.79975215303E+03 0.  0.
         22    1    5    5    0    0  0.32710150910E+03 -0.18227735999E+03 -0.23712668562E+03  0.44322623823E+03  0.00000000000E+00 0. -1.
         22    1    5    5    0    0 -0.41924921836E+03  0.79472295568E+02 -0.45022541230E+03  0.62031336818E+03  0.00000000000E+00 0. -1.
          5    1    4    4  502    0  0.36863337539E+01 -0.27745069787E+02 -0.26494594733E+02  0.38825655231E+02  0.47000000000E+01 0.  1.
         -5    1    4    4    0  502  0.88461375511E+02  0.13055013421E+03 -0.16785545516E+03  0.23036123009E+03  0.47000000000E+01 0.  1.
<mgrwt>
<rscale>  0 0.99938042E+03</rscale>
<asrwt>0</asrwt>
<pdfrwt beam="1">  1        2 0.17034066E+00 0.99938042E+03</pdfrwt>
<pdfrwt beam="2">  1       -2 0.34694181E-01 0.99938042E+03</pdfrwt>
<totfact> 0.20269146E+02</totfact>
</mgrwt>
</event>
<event>
 9    1  0.4296086E-036  0.1000739E+04  0.7818608E-02  0.8680335E-01
         -1   -1    0    0    0  501 -0.00000000000E+00  0.00000000000E+00  0.27381595939E+03  0.27381595939E+03  0.00000000000E+00 0. -1.
          1   -1    0    0  501    0  0.00000000000E+00 -0.00000000000E+00 -0.91437143441E+03  0.91437143441E+03  0.00000000000E+00 0. -1.
         36    2    1    2    0    0  0.00000000000E+00  0.71054273576E-14 -0.64055547502E+03  0.11881873938E+04  0.10007387102E+04 0.  0.
         25    2    3    3    0    0  0.12140537723E+03 -0.62139517227E+02 -0.15966974485E+03  0.24487090151E+03  0.12596327150E+03 0.  0.
         35    2    3    3    0    0 -0.12140537723E+03  0.62139517227E+02 -0.48088573017E+03  0.94331649228E+03  0.79999645868E+03 0.  0.
         22    1    5    5    0    0 -0.40987043858E+03 -0.16240781468E+03 -0.21002384664E+03  0.48834423397E+03  0.00000000000E+00 0. -1.
         22    1    5    5    0    0  0.28846506135E+03  0.22454733191E+03 -0.27086188353E+03  0.45497225831E+03  0.00000000000E+00 0. -1.
          5    1    4    4  502    0  0.98462579378E+02  0.31184336391E+01 -0.39714220085E+02  0.10631986382E+03  0.47000000000E+01 0.  1.
         -5    1    4    4    0  502  0.22942797852E+02 -0.65257950867E+02 -0.11995552476E+03  0.13855103769E+03  0.47000000000E+01 0.  1.
<mgrwt>
<rscale>  0 0.10007387E+04</rscale>
<asrwt>0</asrwt>
<pdfrwt beam="1">  1        1 0.14067253E+00 0.10007387E+04</pdfrwt>
<pdfrwt beam="2">  1       -1 0.42125533E-01 0.10007387E+04</pdfrwt>
<totfact> 0.11053850E+02</totfact>
</mgrwt>
</event>
<event>
 9    1  0.4296086E-036  0.1000143E+04  0.7818608E-02  0.8680902E-01
          3   -1    0    0  501    0  0.00000000000E+00  0.00000000000E+00  0.12588426581E+04  0.12588426581E+04  0.00000000000E+00 0.  1.
         -3   -1    0    0    0  501 -0.00000000000E+00 -0.00000000000E+00 -0.19865171895E+03  0.19865171895E+03  0.00000000000E+00 0.  1.
         36    2    1    2    0    0  0.00000000000E+00  0.28421709430E-13  0.10601909392E+04  0.14574943771E+04  0.10001425057E+04 0.  0.
         25    2    3    3    0    0 -0.11150029742E+03  0.71022346780E+02  0.27270218505E+03  0.32757062755E+03  0.12433641555E+03 0.  0.
         35    2    3    3    0    0  0.11150029742E+03 -0.71022346780E+02  0.78748875413E+03  0.11299237495E+04  0.79944521501E+03 0.  0.
         22    1    5    5    0    0 -0.14154145800E+03 -0.26479638302E+03  0.22376928506E+02  0.30108443288E+03  0.00000000000E+00 0.  1.
         22    1    5    5    0    0  0.25304175542E+03  0.19377403624E+03  0.76511182562E+03  0.82883931664E+03  0.00000000000E+00 0.  1.
          5    1    4    4  502    0 -0.77626344289E+02  0.82579439837E+01  0.47970064674E+02  0.91745626988E+02  0.47000000000E+01 0.  1.
         -5    1    4    4    0  502 -0.33873953132E+02  0.62764402796E+02  0.22473212038E+03  0.23582500056E+03  0.47000000000E+01 0.  1.
<mgrwt>
<rscale>  0 0.10001425E+04</rscale>
<asrwt>0</asrwt>
<pdfrwt beam="1">  1        3 0.19366810E+00 0.10001425E+04</pdfrwt>
<pdfrwt beam="2">  1       -3 0.30561804E-01 0.10001425E+04</pdfrwt>
<totfact> 0.68069419E+00</totfact>
</mgrwt>
</event>
<event>
 9    1  0.4296086E-036  0.9989751E+03  0.7818608E-02  0.8682015E-01
          1   -1    0    0  501    0  0.00000000000E+00  0.00000000000E+00  0.85103601715E+03  0.85103601715E+03  0.00000000000E+00 0. -1.
         -1   -1    0    0    0  501 -0.00000000000E+00 -0.00000000000E+00 -0.29315773409E+03  0.29315773409E+03  0.00000000000E+00 0. -1.
         36    2    1    2    0    0  0.33750779949E-13  0.14210854715E-13  0.55787828306E+03  0.11441937512E+04  0.99897505557E+03 0.  0.
         25    2    3    3    0    0 -0.15732628048E+02  0.75458117878E+02 -0.33231549609E+02  0.14564785293E+03  0.11902738355E+03 0.  0.
         35    2    3    3    0    0  0.15732628048E+02 -0.75458117878E+02  0.59110983267E+03  0.99854589830E+03  0.80108778145E+03 0.  0.
         22    1    5    5    0    0 -0.29138791636E+03 -0.26054712564E+03  0.12483867843E+03  0.41033695679E+03  0.00000000000E+00 0. -1.
         22    1    5    5    0    0  0.30712054441E+03  0.18508900776E+03  0.46627115424E+03  0.58820894151E+03  0.00000000000E+00 0. -1.
          5    1    4    4  502    0 -0.28741275458E+02 -0.20073944022E+02  0.14176389001E+02  0.38106221916E+02  0.47000000000E+01 0. -1.
         -5    1    4    4    0  502  0.13008647410E+02  0.95532061901E+02 -0.47407938610E+02  0.10754163102E+03  0.47000000000E+01 0. -1.
<mgrwt>
<rscale>  0 0.99897506E+03</rscale>
<asrwt>0</asrwt>
<pdfrwt beam="1">  1        1 0.13092862E+00 0.99897506E+03</pdfrwt>
<pdfrwt beam="2">  1       -1 0.45101190E-01 0.99897506E+03</pdfrwt>
<totfact> 0.11048022E+02</totfact>
</mgrwt>
</event>
<event>
 9    1  0.4296086E-036  0.9869920E+03  0.7818608E-02  0.8693525E-01
         -4   -1    0    0    0  501 -0.00000000000E+00  0.00000000000E+00  0.36166537264E+03  0.36166537264E+03  0.00000000000E+00 0. -1.
          4   -1    0    0  501    0  0.00000000000E+00 -0.00000000000E+00 -0.67338019526E+03  0.67338019526E+03  0.00000000000E+00 0. -1.
         36    2    1    2    0    0 -0.71054273576E-14  0.00000000000E+00 -0.31171482262E+03  0.10350455679E+04  0.98699199440E+03 0.  0.
         25    2    3    3    0    0  0.28355341507E+02  0.11928604670E+03 -0.32496977249E+02  0.17824533394E+03  0.12522842813E+03 0.  0.
         35    2    3    3    0    0 -0.28355341507E+02 -0.11928604670E+03 -0.27921784537E+03  0.85680023397E+03  0.80069397989E+03 0.  0.
         22    1    5    5    0    0  0.38624670708E+02 -0.37248740505E+03  0.10761627512E+03  0.38964085358E+03  0.00000000000E+00 0.  1.
         22    1    5    5    0    0 -0.66980012215E+02  0.25320135835E+03 -0.38683412049E+03  0.46715938039E+03  0.00000000000E+00 0.  1.
          5    1    4    4  502    0 -0.40787352189E+02  0.68350734559E+02  0.13251959093E+02  0.80827813487E+02  0.47000000000E+01 0.  1.
         -5    1    4    4    0  502  0.69142693696E+02  0.50935312143E+02 -0.45748936342E+02  0.97417520452E+02  0.47000000000E+01 0.  1.
<mgrwt>
<rscale>  0 0.98699199E+03</rscale>
<asrwt>0</asrwt>
<pdfrwt beam="1">  1        4 0.10359695E+00 0.98699199E+03</pdfrwt>
<pdfrwt beam="2">  1       -4 0.55640828E-01 0.98699199E+03</pdfrwt>
<totfact> 0.52251212E+00</totfact>
</mgrwt>
</event>
<event>
 9    1  0.4296086E-036  0.1000217E+04  0.7818608E-02  0.8680832E-01
         -1   -1    0    0    0  501 -0.00000000000E+00  0.00000000000E+00  0.91639275853E+02  0.91639275853E+02  0.00000000000E+00 0. -1.
          1   -1    0    0  501    0  0.00000000000E+00 -0.00000000000E+00 -0.27292705727E+04  0.27292705727E+04  0.00000000000E+00 0. -1.
         36    2    1    2    0    0 -0.42632564146E-13  0.14210854715E-13 -0.26376312969E+04  0.28209098486E+04  0.10002167343E+04 0.  0.
         25    2    3    3    0    0 -0.36524698161E+02 -0.10523595675E+03 -0.27006213087E+03  0.31946158701E+03  0.12928066707E+03 0.  0.
         35    2    3    3    0    0  0.36524698161E+02  0.10523595675E+03 -0.23675691660E+04  0.25014482616E+04  0.79965679471E+03 0.  0.
         22    1    5    5    0    0 -0.30951838928E+03 -0.16227615258E+03 -0.77969983744E+03  0.85443959383E+03  0.00000000000E+00 0.  1.
         22    1    5    5    0    0  0.34604308744E+03  0.26751210933E+03 -0.15878693286E+04  0.16470086678E+04  0.00000000000E+00 0.  1.
          5    1    4    4  502    0 -0.56932781560E+02 -0.65919505615E+01 -0.16081250484E+03  0.17078509051E+03  0.47000000000E+01 0. -1.
         -5    1    4    4    0  502  0.20408083399E+02 -0.98644006184E+02 -0.10924962603E+03  0.14867649650E+03  0.47000000000E+01 0. -1.
<mgrwt>
<rscale>  0 0.10002167E+04</rscale>
<asrwt>0</asrwt>
<pdfrwt beam="1">  1        1 0.41988770E+00 0.10002167E+04</pdfrwt>
<pdfrwt beam="2">  1       -1 0.14098353E-01 0.10002167E+04</pdfrwt>
<totfact> 0.34603196E+01</totfact>
</mgrwt>
</event>
<event>
 9    1  0.4296086E-036  0.1000186E+04  0.7818608E-02  0.8680861E-01
         -2   -1    0    0    0  501 -0.00000000000E+00  0.00000000000E+00  0.12688832509E+03  0.12688832509E+03  0.00000000000E+00 0. -1.
          2   -1    0    0  501    0  0.00000000000E+00 -0.00000000000E+00 -0.19709692544E+04  0.19709692544E+04  0.00000000000E+00 0. -1.
         36    2    1    2    0    0  0.42632564146E-13  0.42632564146E-13 -0.18440809293E+04  0.20978575795E+04  0.10001859577E+04 0.  0.
         25    2    3    3    0    0  0.92730999539E+02  0.74682061272E+02 -0.21614026021E+03  0.27675417901E+03  0.12529890250E+03 0.  0.
         35    2    3    3    0    0 -0.92730999539E+02 -0.74682061272E+02 -0.16279406691E+04  0.18211034005E+04  0.80749633097E+03 0.  0.
         22    1    5    5    0    0  0.25466419838E+03 -0.29635483666E+03 -0.95722002363E+03  0.10339004869E+04  0.00000000000E+00 0.  1.
         22    1    5    5    0    0 -0.34739519792E+03  0.22167277539E+03 -0.67072064545E+03  0.78720291356E+03  0.00000000000E+00 0.  1.
          5    1    4    4  502    0 -0.11966781799E+02 -0.24826914903E+02 -0.42031700660E+02  0.50481020499E+02  0.47000000000E+01 0.  1.
         -5    1    4    4    0  502  0.10469778134E+03  0.99508976175E+02 -0.17410855955E+03  0.22627315851E+03  0.47000000000E+01 0.  1.
<mgrwt>
<rscale>  0 0.10001860E+04</rscale>
<asrwt>0</asrwt>
<pdfrwt beam="1">  1        2 0.30322603E+00 0.10001860E+04</pdfrwt>
<pdfrwt beam="2">  1       -2 0.19521282E-01 0.10001860E+04</pdfrwt>
<totfact> 0.18157633E+02</totfact>
</mgrwt>
</event>
<event>
 9    1  0.4296086E-036  0.9969619E+03  0.7818608E-02  0.8683937E-01
         -2   -1    0    0    0  501 -0.00000000000E+00  0.00000000000E+00  0.37980143732E+03  0.37980143732E+03  0.00000000000E+00 0. -1.
          2   -1    0    0  501    0  0.00000000000E+00 -0.00000000000E+00 -0.65424513152E+03  0.65424513152E+03  0.00000000000E+00 0. -1.
         36    2    1    2    0    0 -0.14210854715E-13  0.14210854715E-13 -0.27444369420E+03  0.10340465688E+04  0.99696186750E+03 0.  0.
         25    2    3    3    0    0  0.65139800885E+02  0.11891786162E+03 -0.68478285116E+02  0.19683221709E+03  0.12517585502E+03 0.  0.
         35    2    3    3    0    0 -0.65139800885E+02 -0.11891786162E+03 -0.20596540908E+03  0.83721435175E+03  0.80007591487E+03 0.  0.
         22    1    5    5    0    0  0.87457631123E+02 -0.43832556823E+03 -0.18140633496E+03  0.48237578646E+03  0.00000000000E+00 0.  1.
         22    1    5    5    0    0 -0.15259743201E+03  0.31940770660E+03 -0.24559074125E+02  0.35483856529E+03  0.00000000000E+00 0.  1.
          5    1    4    4  502    0  0.64921194122E+02  0.11406233785E+03 -0.33674335253E+01  0.13137126007E+03  0.47000000000E+01 0.  1.
         -5    1    4    4    0  502  0.21860676239E+00  0.48555237710E+01 -0.65110851591E+02  0.65460957027E+02  0.47000000000E+01 0.  1.
<mgrwt>
<rscale>  0 0.99696187E+03</rscale>
<asrwt>0</asrwt>
<pdfrwt beam="1">  1        2 0.10065310E+00 0.99696187E+03</pdfrwt>
<pdfrwt beam="2">  1       -2 0.58430991E-01 0.99696187E+03</pdfrwt>
<totfact> 0.14779236E+02</totfact>
</mgrwt>
</event>
<event>
 9    1  0.4296086E-036  0.1001567E+04  0.7818608E-02  0.8679547E-01
          2   -1    0    0  501    0  0.00000000000E+00  0.00000000000E+00  0.33385178286E+03  0.33385178286E+03  0.00000000000E+00 0.  1.
         -2   -1    0    0    0  501 -0.00000000000E+00 -0.00000000000E+00 -0.75118451625E+03  0.75118451625E+03  0.00000000000E+00 0.  1.
         36    2    1    2    0    0  0.00000000000E+00  0.28421709430E-13 -0.41733273340E+03  0.10850362991E+04  0.10015673517E+04 0.  0.
         25    2    3    3    0    0  0.71316882200E+02  0.23384782642E+02 -0.20897600721E+03  0.25481630961E+03  0.12500973687E+03 0.  0.
         35    2    3    3    0    0 -0.71316882200E+02 -0.23384782642E+02 -0.20835672619E+03  0.83021998949E+03  0.80013733812E+03 0.  0.
         22    1    5    5    0    0 -0.36946012516E+02  0.38632490283E+03 -0.57779624771E+02  0.39236516592E+03  0.00000000000E+00 0. -1.
         22    1    5    5    0    0 -0.34370869684E+02 -0.40970968547E+03 -0.15057710142E+03  0.43785482357E+03  0.00000000000E+00 0. -1.
          5    1    4    4  502    0  0.84005354504E+02  0.60953612782E+02 -0.16851778903E+03  0.19797115375E+03  0.47000000000E+01 0. -1.
         -5    1    4    4    0  502 -0.12688472304E+02 -0.37568830140E+02 -0.40458218171E+02  0.56845155863E+02  0.47000000000E+01 0. -1.
<mgrwt>
<rscale>  0 0.10015674E+04</rscale>
<asrwt>0</asrwt>
<pdfrwt beam="1">  1        2 0.51361813E-01 0.10015674E+04</pdfrwt>
<pdfrwt beam="2">  1       -2 0.11556685E+00 0.10015674E+04</pdfrwt>
<totfact> 0.66506357E+01</totfact>
</mgrwt>
</event>
<event>
 9    1  0.4296086E-036  0.1002053E+04  0.7818608E-02  0.8679085E-01
          2   -1    0    0  501    0  0.00000000000E+00  0.00000000000E+00  0.17333062920E+04  0.17333062920E+04  0.00000000000E+00 0.  1.
         -2   -1    0    0    0  501 -0.00000000000E+00 -0.00000000000E+00 -0.14482584033E+03  0.14482584033E+03  0.00000000000E+00 0.  1.
         36    2    1    2    0    0  0.00000000000E+00 -0.42632564146E-13  0.15884804517E+04  0.18781321324E+04  0.10020529732E+04 0.  0.
         25    2    3    3    0    0 -0.11609191521E+03 -0.19023120745E+02  0.44458024175E+03  0.47649899826E+03  0.12474170149E+03 0.  0.
         35    2    3    3    0    0  0.11609191521E+03  0.19023120745E+02  0.11439002100E+04  0.14016331341E+04  0.80139162735E+03 0.  0.
         22    1    5    5    0    0  0.34889554231E+03  0.28537337935E+03  0.55910562734E+03  0.71816792438E+03  0.00000000000E+00 0.  1.
         22    1    5    5    0    0 -0.23280362710E+03 -0.26635025861E+03  0.58479458262E+03  0.68346520973E+03  0.00000000000E+00 0.  1.
          5    1    4    4  502    0 -0.41383103480E+02 -0.66622827677E+02  0.15724332471E+03  0.17578030489E+03  0.47000000000E+01 0. -1.
         -5    1    4    4    0  502 -0.74708811733E+02  0.47599706932E+02  0.28733691704E+03  0.30071869337E+03  0.47000000000E+01 0. -1.
<mgrwt>
<rscale>  0 0.10020530E+04</rscale>
<asrwt>0</asrwt>
<pdfrwt beam="1">  1        2 0.26666249E+00 0.10020530E+04</pdfrwt>
<pdfrwt beam="2">  1       -2 0.22280900E-01 0.10020530E+04</pdfrwt>
<totfact> 0.19663085E+02</totfact>
</mgrwt>
</event>
<event>
 9    1  0.4296086E-036  0.9997270E+03  0.7818608E-02  0.8681298E-01
          2   -1    0    0  501    0  0.00000000000E+00  0.00000000000E+00  0.15240610281E+04  0.15240610281E+04  0.00000000000E+00 0.  1.
         -2   -1    0    0    0  501 -0.00000000000E+00 -0.00000000000E+00 -0.16394586334E+03  0.16394586334E+03  0.00000000000E+00 0.  1.
         36    2    1    2    0    0 -0.14210854715E-13  0.00000000000E+00  0.13601151648E+04  0.16880068915E+04  0.99972696482E+03 0.  0.
         25    2    3    3    0    0  0.34269738316E+02  0.61844453007E+02  0.44148061581E+03  0.46786714741E+03  0.13782373583E+03 0.  0.
         35    2    3    3    0    0 -0.34269738316E+02 -0.61844453007E+02  0.91863454899E+03  0.12201397441E+04  0.79990775039E+03 0.  0.
         22    1    5    5    0    0  0.22116992944E+03  0.29123461948E+03  0.45690550048E+03  0.58523190074E+03  0.00000000000E+00 0.  1.
         22    1    5    5    0    0 -0.25543966776E+03 -0.35307907249E+03  0.46172904850E+03  0.63490784333E+03  0.00000000000E+00 0.  1.
          5    1    4    4  502    0  0.46306240192E+02  0.57046099510E+02  0.90722453254E+02  0.11683825946E+03  0.47000000000E+01 0. -1.
         -5    1    4    4    0  502 -0.12036501876E+02  0.47983534969E+01  0.35075816255E+03  0.35102888795E+03  0.47000000000E+01 0. -1.
<mgrwt>
<rscale>  0 0.99972696E+03</rscale>
<asrwt>0</asrwt>
<pdfrwt beam="1">  1        2 0.23447092E+00 0.99972696E+03</pdfrwt>
<pdfrwt beam="2">  1       -2 0.25222442E-01 0.99972696E+03</pdfrwt>
<totfact> 0.20734656E+02</totfact>
</mgrwt>
</event>
<event>
 9    1  0.4296086E-036  0.1000229E+04  0.7818608E-02  0.8680820E-01
          2   -1    0    0  501    0  0.00000000000E+00  0.00000000000E+00  0.33134052984E+03  0.33134052984E+03  0.00000000000E+00 0.  1.
         -2   -1    0    0    0  501 -0.00000000000E+00 -0.00000000000E+00 -0.75485663608E+03  0.75485663608E+03  0.00000000000E+00 0.  1.
         36    2    1    2    0    0  0.71054273576E-14  0.00000000000E+00 -0.42351610624E+03  0.10861971659E+04  0.10002291692E+04 0.  0.
         25    2    3    3    0    0  0.37349938350E+01 -0.13186457365E+03 -0.29007809058E+02  0.18407583123E+03  0.12506095591E+03 0.  0.
         35    2    3    3    0    0 -0.37349938350E+01  0.13186457365E+03 -0.39450829719E+03  0.90212133469E+03  0.80048978132E+03 0.  0.
         22    1    5    5    0    0  0.19127119272E+03  0.14597498442E+03  0.17660573012E+03  0.29846766852E+03  0.00000000000E+00 0. -1.
         22    1    5    5    0    0 -0.19500618656E+03 -0.14110410761E+02 -0.57111402731E+03  0.60365366617E+03  0.00000000000E+00 0. -1.
          5    1    4    4  502    0 -0.12343974856E+02 -0.15217787380E+03 -0.35789521073E+02  0.15688677066E+03  0.47000000000E+01 0.  1.
         -5    1    4    4    0  502  0.16078968691E+02  0.20313300147E+02  0.67817120154E+01  0.27189060573E+02  0.47000000000E+01 0.  1.
<mgrwt>
<rscale>  0 0.10002292E+04</rscale>
<asrwt>0</asrwt>
<pdfrwt beam="1">  1        2 0.50975466E-01 0.10002292E+04</pdfrwt>
<pdfrwt beam="2">  1       -2 0.11613179E+00 0.10002292E+04</pdfrwt>
<totfact> 0.66238283E+01</totfact>
</mgrwt>
</event>
<event>
 9    1  0.4296086E-036  0.1000201E+04  0.7818608E-02  0.8680847E-01
         -2   -1    0    0    0  501 -0.00000000000E+00  0.00000000000E+00  0.17402590973E+03  0.17402590973E+03  0.00000000000E+00 0. -1.
          2   -1    0    0  501    0  0.00000000000E+00 -0.00000000000E+00 -0.14371443331E+04  0.14371443331E+04  0.00000000000E+00 0. -1.
         36    2    1    2    0    0 -0.35527136788E-14 -0.28421709430E-13 -0.12631184234E+04  0.16111702429E+04  0.10002006798E+04 0.  0.
         25    2    3    3    0    0  0.12019141540E+02  0.71399834351E+02 -0.43229026255E+03  0.45558832480E+03  0.12427169627E+03 0.  0.
         35    2    3    3    0    0 -0.12019141540E+02 -0.71399834351E+02 -0.83082816087E+03  0.11555819181E+04  0.79990733236E+03 0.  0.
         22    1    5    5    0    0  0.88255247740E+02  0.35330723655E+03 -0.33165182824E+03  0.49255246150E+03  0.00000000000E+00 0. -1.
         22    1    5    5    0    0 -0.10027438928E+03 -0.42470707090E+03 -0.49917633263E+03  0.66302945657E+03  0.00000000000E+00 0. -1.
          5    1    4    4  502    0  0.18998233975E+02  0.10366165775E+03 -0.37227890919E+03  0.38693713755E+03  0.47000000000E+01 0.  1.
         -5    1    4    4    0  502 -0.69790924343E+01 -0.32261823400E+02 -0.60011353354E+02  0.68651187256E+02  0.47000000000E+01 0.  1.
<mgrwt>
<rscale>  0 0.10002007E+04</rscale>
<asrwt>0</asrwt>
<pdfrwt beam="1">  1        2 0.22109913E+00 0.10002007E+04</pdfrwt>
<pdfrwt beam="2">  1       -2 0.26773217E-01 0.10002007E+04</pdfrwt>
<totfact> 0.20881535E+02</totfact>
</mgrwt>
</event>
<event>
 9    1  0.4296086E-036  0.9995948E+03  0.7818608E-02  0.8681424E-01
          1   -1    0    0  501    0  0.00000000000E+00  0.00000000000E+00  0.31224282594E+03  0.31224282594E+03  0.00000000000E+00 0.  1.
         -1   -1    0    0    0  501 -0.00000000000E+00 -0.00000000000E+00 -0.80001025219E+03  0.80001025219E+03  0.00000000000E+00 0.  1.
         36    2    1    2    0    0 -0.56843418861E-13  0.00000000000E+00 -0.48776742625E+03  0.11122530781E+04  0.99959484178E+03 0.  0.
         25    2    3    3    0    0  0.11141614073E+03 -0.23543222287E+02 -0.17452500927E+03  0.24321041238E+03  0.12539731297E+03 0.  0.
         35    2    3    3    0    0 -0.11141614073E+03  0.23543222287E+02 -0.31324241697E+03  0.86904266575E+03  0.80258738052E+03 0.  0.
         22    1    5    5    0    0 -0.40532281525E+03 -0.14376037413E+03 -0.31120043579E+03  0.53084775687E+03  0.00000000000E+00 0. -1.
         22    1    5    5    0    0  0.29390667453E+03  0.16730359642E+03 -0.20419811798E+01  0.33819490888E+03  0.00000000000E+00 0. -1.
          5    1    4    4  502    0  0.51148255328E+02  0.46712413706E+02 -0.40871318203E+02  0.80565180252E+02  0.47000000000E+01 0.  1.
         -5    1    4    4    0  502  0.60267885397E+02 -0.70255635993E+02 -0.13365369107E+03  0.16264523213E+03  0.47000000000E+01 0.  1.
<mgrwt>
<rscale>  0 0.99959484E+03</rscale>
<asrwt>0</asrwt>
<pdfrwt beam="1">  1        1 0.48037358E-01 0.99959484E+03</pdfrwt>
<pdfrwt beam="2">  1       -1 0.12307850E+00 0.99959484E+03</pdfrwt>
<totfact> 0.58125581E+01</totfact>
</mgrwt>
</event>
<event>
 9    1  0.4296086E-036  0.9993375E+03  0.7818608E-02  0.8681669E-01
          1   -1    0    0  501    0  0.00000000000E+00  0.00000000000E+00  0.36371199185E+04  0.36371199185E+04  0.00000000000E+00 0. -1.
         -1   -1    0    0    0  501 -0.00000000000E+00 -0.00000000000E+00 -0.68644660893E+02  0.68644660893E+02  0.00000000000E+00 0. -1.
         36    2    1    2    0    0 -0.14210854715E-13  0.00000000000E+00  0.35684752576E+04  0.37057645794E+04  0.99933750742E+03 0.  0.
         25    2    3    3    0    0  0.36124018603E+02  0.87723785818E+02  0.10480423316E+04  0.10596444689E+04  0.12431115969E+03 0.  0.
         35    2    3    3    0    0 -0.36124018603E+02 -0.87723785818E+02  0.25204329260E+04  0.26461201105E+04  0.80023065244E+03 0.  0.
         22    1    5    5    0    0  0.37422219083E+03 -0.14429276123E+02  0.94573308591E+03  0.10171831310E+04  0.00000000000E+00 0. -1.
         22    1    5    5    0    0 -0.41034620943E+03 -0.73294509695E+02  0.15746998401E+04  0.16289369795E+04  0.00000000000E+00 0. -1.
          5    1    4    4  502    0  0.45630999762E+02 -0.17049777879E+02  0.25641786092E+03  0.26104615007E+03  0.47000000000E+01 0. -1.
         -5    1    4    4    0  502 -0.95069811588E+01  0.10477356370E+03  0.79162447066E+03  0.79859831886E+03  0.47000000000E+01 0. -1.
<mgrwt>
<rscale>  0 0.99933751E+03</rscale>
<asrwt>0</asrwt>
<pdfrwt beam="1">  1        1 0.55955676E+00 0.99933751E+03</pdfrwt>
<pdfrwt beam="2">  1       -1 0.10560720E-01 0.99933751E+03</pdfrwt>
<totfact> 0.11939320E+01</totfact>
</mgrwt>
</event>
<event>
 9    1  0.4296086E-036  0.1000970E+04  0.7818608E-02  0.8680114E-01
         -2   -1    0    0    0  501 -0.00000000000E+00  0.00000000000E+00  0.15878662541E+03  0.15878662541E+03  0.00000000000E+00 0. -1.
          2   -1    0    0  501    0  0.00000000000E+00 -0.00000000000E+00 -0.15774967804E+04  0.15774967804E+04  0.00000000000E+00 0. -1.
         36    2    1    2    0    0  0.00000000000E+00 -0.14210854715E-13 -0.14187101550E+04  0.17362834058E+04  0.10009703100E+04 0.  0.
         25    2    3    3    0    0  0.10772263150E+03 -0.75417121891E+02 -0.36664882269E+03  0.40830537620E+03  0.12243371039E+03 0.  0.
         35    2    3    3    0    0 -0.10772263150E+03  0.75417121891E+02 -0.10520613323E+04  0.13279780296E+04  0.79962534515E+03 0.  0.
         22    1    5    5    0    0 -0.36457018254E+03  0.25709781573E+03 -0.38034659473E+03  0.58623735549E+03  0.00000000000E+00 0. -1.
         22    1    5    5    0    0  0.25684755104E+03 -0.18168069384E+03 -0.67171473754E+03  0.74174067410E+03  0.00000000000E+00 0. -1.
          5    1    4    4  502    0  0.95019747788E+02 -0.10259780211E+03 -0.34087610659E+03  0.36847479088E+03  0.47000000000E+01 0.  1.
         -5    1    4    4    0  502  0.12702883707E+02  0.27180680221E+02 -0.25772716100E+02  0.39830585320E+02  0.47000000000E+01 0.  1.
<mgrwt>
<rscale>  0 0.10009703E+04</rscale>
<asrwt>0</asrwt>
<pdfrwt beam="1">  1        2 0.24269181E+00 0.10009703E+04</pdfrwt>
<pdfrwt beam="2">  1       -2 0.24428712E-01 0.10009703E+04</pdfrwt>
<totfact> 0.20469855E+02</totfact>
</mgrwt>
</event>
<event>
 9    1  0.4296086E-036  0.9928320E+03  0.7818608E-02  0.8687894E-01
         -2   -1    0    0    0  501 -0.00000000000E+00  0.00000000000E+00  0.98630438221E+02  0.98630438221E+02  0.00000000000E+00 0. -1.
          2   -1    0    0  501    0  0.00000000000E+00 -0.00000000000E+00 -0.24985071289E+04  0.24985071289E+04  0.00000000000E+00 0. -1.
         36    2    1    2    0    0 -0.28421709430E-13 -0.71054273576E-14 -0.23998766907E+04  0.25971375671E+04  0.99283201605E+03 0.  0.
         25    2    3    3    0    0 -0.71655661961E+02  0.41660252327E+02 -0.70479231838E+03  0.72074765969E+03  0.12599550147E+03 0.  0.
         35    2    3    3    0    0  0.71655661961E+02 -0.41660252327E+02 -0.16950843723E+04  0.18763899075E+04  0.80041110998E+03 0.  0.
         22    1    5    5    0    0  0.33354247830E+03 -0.12556327159E+03 -0.33615665376E+03  0.48991633559E+03  0.00000000000E+00 0. -1.
         22    1    5    5    0    0 -0.26188681634E+03  0.83903019267E+02 -0.13589277186E+04  0.13864735719E+04  0.00000000000E+00 0. -1.
          5    1    4    4  502    0 -0.14542433312E+02 -0.43279053042E+02 -0.16236827758E+03  0.16873086962E+03  0.47000000000E+01 0. -1.
         -5    1    4    4    0  502 -0.57113228649E+02  0.84939305369E+02 -0.54242404080E+03  0.55201679008E+03  0.47000000000E+01 0. -1.
<mgrwt>
<rscale>  0 0.99283202E+03</rscale>
<asrwt>0</asrwt>
<pdfrwt beam="1">  1        2 0.38438570E+00 0.99283202E+03</pdfrwt>
<pdfrwt beam="2">  1       -2 0.15173914E-01 0.99283202E+03</pdfrwt>
<totfact> 0.13689436E+02</totfact>
</mgrwt>
</event>
<event>
 9    1  0.4296086E-036  0.9995768E+03  0.7818608E-02  0.8681441E-01
         -2   -1    0    0    0  501 -0.00000000000E+00  0.00000000000E+00  0.14882569120E+03  0.14882569120E+03  0.00000000000E+00 0. -1.
          2   -1    0    0  501    0  0.00000000000E+00 -0.00000000000E+00 -0.16783959358E+04  0.16783959358E+04  0.00000000000E+00 0. -1.
         36    2    1    2    0    0 -0.35527136788E-14 -0.31974423109E-13 -0.15295702446E+04  0.18272216270E+04  0.99957678095E+03 0.  0.
         25    2    3    3    0    0  0.32075467344E+01  0.18715611214E+02 -0.31747861827E+02  0.12911867736E+03  0.12370587558E+03 0.  0.
         35    2    3    3    0    0 -0.32075467344E+01 -0.18715611214E+02 -0.14978223828E+04  0.16981029497E+04  0.79982571526E+03 0.  0.
         22    1    5    5    0    0  0.14549398351E+02 -0.35307358227E+03 -0.11967091906E+04  0.12477922609E+04  0.00000000000E+00 0.  1.
         22    1    5    5    0    0 -0.17756945086E+02  0.33435797106E+03 -0.30111319223E+03  0.45031068880E+03  0.00000000000E+00 0.  1.
          5    1    4    4  502    0  0.55940570549E+02  0.24059806159E+02  0.94763082756E+01  0.61807055619E+02  0.47000000000E+01 0.  1.
         -5    1    4    4    0  502 -0.52733023815E+02 -0.53441949453E+01 -0.41224170103E+02  0.67311621737E+02  0.47000000000E+01 0.  1.
<mgrwt>
<rscale>  0 0.99957678E+03</rscale>
<asrwt>0</asrwt>
<pdfrwt beam="1">  1        2 0.25821473E+00 0.99957678E+03</pdfrwt>
<pdfrwt beam="2">  1       -2 0.22896263E-01 0.99957678E+03</pdfrwt>
<totfact> 0.20129487E+02</totfact>
</mgrwt>
</event>
<event>
 9    1  0.4296086E-036  0.9979906E+03  0.7818608E-02  0.8682954E-01
          2   -1    0    0  501    0  0.00000000000E+00  0.00000000000E+00  0.11462810320E+04  0.11462810320E+04  0.00000000000E+00 0.  1.
         -2   -1    0    0    0  501 -0.00000000000E+00 -0.00000000000E+00 -0.21722101885E+03  0.21722101885E+03  0.00000000000E+00 0.  1.
         36    2    1    2    0    0  0.35527136788E-14 -0.28421709430E-13  0.92906001319E+03  0.13635020509E+04  0.99799064859E+03 0.  0.
         25    2    3    3    0    0  0.14642344601E+02  0.11854515080E+03  0.12019012607E+03  0.21935573247E+03  0.13929795380E+03 0.  0.
         35    2    3    3    0    0 -0.14642344601E+02 -0.11854515080E+03  0.80886988712E+03  0.11441463184E+04  0.80033302607E+03 0.  0.
         22    1    5    5    0    0 -0.11675829184E+03  0.23967611905E+03  0.14756445278E+02  0.26701103616E+03  0.00000000000E+00 0. -1.
         22    1    5    5    0    0  0.10211594724E+03 -0.35822126985E+03  0.79411344185E+03  0.87713528225E+03  0.00000000000E+00 0. -1.
          5    1    4    4  502    0 -0.23163413711E+01  0.44909465407E+02  0.13486056851E+03  0.14223813996E+03  0.47000000000E+01 0. -1.
         -5    1    4    4    0  502  0.16958685972E+02  0.73635685394E+02 -0.14670442446E+02  0.77117592512E+02  0.47000000000E+01 0. -1.
<mgrwt>
<rscale>  0 0.99799065E+03</rscale>
<asrwt>0</asrwt>
<pdfrwt beam="1">  1        2 0.17635092E+00 0.99799065E+03</pdfrwt>
<pdfrwt beam="2">  1       -2 0.33418619E-01 0.99799065E+03</pdfrwt>
<totfact> 0.20585374E+02</totfact>
</mgrwt>
</event>
<event>
 9    1  0.4296086E-036  0.1000067E+04  0.7818608E-02  0.8680975E-01
         -2   -1    0    0    0  501 -0.00000000000E+00  0.00000000000E+00  0.25797098443E+03  0.25797098443E+03  0.00000000000E+00 0. -1.
          2   -1    0    0  501    0  0.00000000000E+00 -0.00000000000E+00 -0.96923024426E+03  0.96923024426E+03  0.00000000000E+00 0. -1.
         36    2    1    2    0    0  0.14210854715E-13  0.56843418861E-13 -0.71125925983E+03  0.12272012287E+04  0.10000665583E+04 0.  0.
         25    2    3    3    0    0  0.74177724511E+02 -0.10891656610E+03 -0.19288509728E+03  0.26474982694E+03  0.12458995516E+03 0.  0.
         35    2    3    3    0    0 -0.74177724511E+02  0.10891656610E+03 -0.51837416255E+03  0.96245140175E+03  0.80014734589E+03 0.  0.
         22    1    5    5    0    0 -0.10509288179E+03  0.40166315479E+03 -0.62598997205E+02  0.41987669400E+03  0.00000000000E+00 0.  1.
         22    1    5    5    0    0  0.30915157280E+02 -0.29274658869E+03 -0.45577516534E+03  0.54257470774E+03  0.00000000000E+00 0.  1.
          5    1    4    4  502    0  0.48981750070E+02 -0.13360432068E+03 -0.17275084882E+03  0.22386217213E+03  0.47000000000E+01 0.  1.
         -5    1    4    4    0  502  0.25195974441E+02  0.24687754582E+02 -0.20134248463E+02  0.40887654806E+02  0.47000000000E+01 0.  1.
<mgrwt>
<rscale>  0 0.10000666E+04</rscale>
<asrwt>0</asrwt>
<pdfrwt beam="1">  1        2 0.14911235E+00 0.10000666E+04</pdfrwt>
<pdfrwt beam="2">  1       -2 0.39687843E-01 0.10000666E+04</pdfrwt>
<totfact> 0.19149894E+02</totfact>
</mgrwt>
</event>
<event>
 9    1  0.4296086E-036  0.1003084E+04  0.7818608E-02  0.8678106E-01
         -1   -1    0    0    0  501 -0.00000000000E+00  0.00000000000E+00  0.94566645752E+03  0.94566645752E+03  0.00000000000E+00 0.  1.
          1   -1    0    0  501    0  0.00000000000E+00 -0.00000000000E+00 -0.26599709667E+03  0.26599709667E+03  0.00000000000E+00 0.  1.
         36    2    1    2    0    0  0.28421709430E-13  0.00000000000E+00  0.67966936085E+03  0.12116635542E+04  0.10030843078E+04 0.  0.
         25    2    3    3    0    0  0.80592689710E+02 -0.42362833095E+02 -0.57286408649E+01  0.15449430915E+03  0.12468313026E+03 0.  0.
         35    2    3    3    0    0 -0.80592689710E+02  0.42362833095E+02  0.68539800171E+03  0.10571692450E+04  0.79971657519E+03 0.  0.
         22    1    5    5    0    0 -0.48584351021E+02  0.12066693078E+03  0.85648727870E+03  0.86630907066E+03  0.00000000000E+00 0. -1.
         22    1    5    5    0    0 -0.32008338688E+02 -0.78304097688E+02 -0.17108927699E+03  0.19086017437E+03  0.00000000000E+00 0. -1.
          5    1    4    4  502    0  0.92677165253E+02 -0.41876603109E+02 -0.46341878263E+02  0.11185869000E+03  0.47000000000E+01 0.  1.
         -5    1    4    4    0  502 -0.12084475543E+02 -0.48622998667E+00  0.40613237398E+02  0.42635619155E+02  0.47000000000E+01 0.  1.
<mgrwt>
<rscale>  0 0.10030843E+04</rscale>
<asrwt>0</asrwt>
<pdfrwt beam="1">  1        1 0.40922631E-01 0.10030843E+04</pdfrwt>
<pdfrwt beam="2">  1       -1 0.14548715E+00 0.10030843E+04</pdfrwt>
<totfact> 0.45871757E+01</totfact>
</mgrwt>
</event>
<event>
 9    1  0.4296086E-036  0.9995396E+03  0.7818608E-02  0.8681477E-01
          2   -1    0    0  501    0  0.00000000000E+00  0.00000000000E+00  0.17256875256E+04  0.17256875256E+04  0.00000000000E+00 0. -1.
         -2   -1    0    0    0  501 -0.00000000000E+00 -0.00000000000E+00 -0.14473643066E+03  0.14473643066E+03  0.00000000000E+00 0. -1.
         36    2    1    2    0    0  0.00000000000E+00  0.35527136788E-14  0.15809510950E+04  0.18704239563E+04  0.99953959981E+03 0.  0.
         25    2    3    3    0    0  0.11432451371E+03 -0.67990424558E+01  0.14540034477E+03  0.22302423611E+03  0.12442760232E+03 0.  0.
         35    2    3    3    0    0 -0.11432451371E+03  0.67990424558E+01  0.14355507502E+04  0.16473997202E+04  0.80000222516E+03 0.  0.
         22    1    5    5    0    0  0.33734623208E+03 -0.17165347180E+02  0.78979480215E+03  0.85899531951E+03  0.00000000000E+00 0. -1.
         22    1    5    5    0    0 -0.45167074578E+03  0.23964389635E+02  0.64575594807E+03  0.78840440069E+03  0.00000000000E+00 0. -1.
          5    1    4    4  502    0  0.13128506605E+03  0.20906688120E+02  0.97375524179E+02  0.16485430199E+03  0.47000000000E+01 0.  1.
         -5    1    4    4    0  502 -0.16960552341E+02 -0.27705730576E+02  0.48024820595E+02  0.58169934121E+02  0.47000000000E+01 0.  1.
<mgrwt>
<rscale>  0 0.99953960E+03</rscale>
<asrwt>0</asrwt>
<pdfrwt beam="1">  1        2 0.26549037E+00 0.99953960E+03</pdfrwt>
<pdfrwt beam="2">  1       -2 0.22267144E-01 0.99953960E+03</pdfrwt>
<totfact> 0.19879695E+02</totfact>
</mgrwt>
</event>
<event>
 9    1  0.4296086E-036  0.1000315E+04  0.7818608E-02  0.8680738E-01
          2   -1    0    0  501    0  0.00000000000E+00  0.00000000000E+00  0.11097945258E+04  0.11097945258E+04  0.00000000000E+00 0. -1.
         -2   -1    0    0    0  501 -0.00000000000E+00 -0.00000000000E+00 -0.22540885430E+03  0.22540885430E+03  0.00000000000E+00 0. -1.
         36    2    1    2    0    0 -0.17763568394E-13 -0.35527136788E-14  0.88438567147E+03  0.13352033801E+04  0.10003149755E+04 0.  0.
         25    2    3    3    0    0 -0.13576690084E+02  0.18609993479E+02  0.35149435901E+03  0.37374797744E+03  0.12493441422E+03 0.  0.
         35    2    3    3    0    0  0.13576690084E+02 -0.18609993479E+02  0.53289131247E+03  0.96145540264E+03  0.79993292343E+03 0.  0.
         22    1    5    5    0    0 -0.13230452823E+03 -0.84353941107E+02  0.70745789007E+03  0.72464939232E+03  0.00000000000E+00 0. -1.
         22    1    5    5    0    0  0.14588121832E+03  0.65743947627E+02 -0.17456657760E+03  0.23680601032E+03  0.00000000000E+00 0. -1.
          5    1    4    4  502    0  0.15172888781E+02 -0.31353222530E+02  0.27486662695E+02  0.44618916875E+02  0.47000000000E+01 0. -1.
         -5    1    4    4    0  502 -0.28749578865E+02  0.49963216009E+02  0.32400769631E+03  0.32912906056E+03  0.47000000000E+01 0. -1.
<mgrwt>
<rscale>  0 0.10003150E+04</rscale>
<asrwt>0</asrwt>
<pdfrwt beam="1">  1        2 0.17073762E+00 0.10003150E+04</pdfrwt>
<pdfrwt beam="2">  1       -2 0.34678286E-01 0.10003150E+04</pdfrwt>
<totfact> 0.20213562E+02</totfact>
</mgrwt>
</event>
<event>
 9    1  0.4296086E-036  0.1003327E+04  0.7818608E-02  0.8677876E-01
          2   -1    0    0  501    0  0.00000000000E+00  0.00000000000E+00  0.29878468472E+03  0.29878468472E+03  0.00000000000E+00 0. -1.
         -2   -1    0    0    0  501 -0.00000000000E+00 -0.00000000000E+00 -0.84229915483E+03  0.84229915483E+03  0.00000000000E+00 0. -1.
         36    2    1    2    0    0  0.00000000000E+00  0.00000000000E+00 -0.54351447011E+03  0.11410838395E+04  0.10033266416E+04 0.  0.
         25    2    3    3    0    0  0.70244246416E+02 -0.11892760357E+03 -0.56258445902E+02  0.19435219270E+03  0.12461834948E+03 0.  0.
         35    2    3    3    0    0 -0.70244246416E+02  0.11892760357E+03 -0.48725602420E+03  0.94673164685E+03  0.79987770876E+03 0.  0.
         22    1    5    5    0    0  0.56262208131E+02  0.41972986442E+03 -0.90548885852E+02  0.43305622716E+03  0.00000000000E+00 0. -1.
         22    1    5    5    0    0 -0.12650645455E+03 -0.30080226085E+03 -0.39670713835E+03  0.51367541969E+03  0.00000000000E+00 0. -1.
          5    1    4    4  502    0 -0.11842956974E+02 -0.94116804036E+02 -0.52194883786E+02  0.10837261797E+03  0.47000000000E+01 0.  1.
         -5    1    4    4    0  502  0.82087203390E+02 -0.24810799535E+02 -0.40635621151E+01  0.85979574731E+02  0.47000000000E+01 0.  1.
<mgrwt>
<rscale>  0 0.10033266E+04</rscale>
<asrwt>0</asrwt>
<pdfrwt beam="1">  1        2 0.45966876E-01 0.10033266E+04</pdfrwt>
<pdfrwt beam="2">  1       -2 0.12958448E+00 0.10033266E+04</pdfrwt>
<totfact> 0.55769502E+01</totfact>
</mgrwt>
</event>
<event>
 9    1  0.4296086E-036  0.9988068E+03  0.7818608E-02  0.8682175E-01
         -2   -1    0    0    0  501 -0.00000000000E+00  0.00000000000E+00  0.30863503745E+03  0.30863503745E+03  0.00000000000E+00 0.  1.
          2   -1    0    0  501    0  0.00000000000E+00 -0.00000000000E+00 -0.80808632534E+03  0.80808632534E+03  0.00000000000E+00 0.  1.
         36    2    1    2    0    0  0.00000000000E+00 -0.35527136788E-13 -0.49945128789E+03  0.11167213628E+04  0.99880679470E+03 0.  0.
         25    2    3    3    0    0  0.43452158987E+02 -0.21883685327E+02  0.52988630426E+02  0.14414997398E+03  0.12491770987E+03 0.  0.
         35    2    3    3    0    0 -0.43452158987E+02  0.21883685327E+02 -0.55243991832E+03  0.97257138881E+03  0.79896073569E+03 0.  0.
         22    1    5    5    0    0  0.12580051552E+03 -0.33107926353E+03 -0.87562358300E+02  0.36483751868E+03  0.00000000000E+00 0.  1.
         22    1    5    5    0    0 -0.16925267451E+03  0.35296294886E+03 -0.46487756002E+03  0.60773387013E+03  0.00000000000E+00 0.  1.
          5    1    4    4  502    0  0.37957351243E+02  0.42854630837E+02  0.54232758443E+02  0.78997227710E+02  0.47000000000E+01 0.  1.
         -5    1    4    4    0  502  0.54948077439E+01 -0.64738316164E+02 -0.12441280174E+01  0.65152746270E+02  0.47000000000E+01 0.  1.
<mgrwt>
<rscale>  0 0.99880679E+03</rscale>
<asrwt>0</asrwt>
<pdfrwt beam="1">  1        2 0.12432097E+00 0.99880679E+03</pdfrwt>
<pdfrwt beam="2">  1       -2 0.47482314E-01 0.99880679E+03</pdfrwt>
<totfact> 0.17288557E+02</totfact>
</mgrwt>
</event>
<event>
 9    1  0.4296086E-036  0.9981469E+03  0.7818608E-02  0.8682805E-01
          2   -1    0    0  501    0  0.00000000000E+00  0.00000000000E+00  0.92672403341E+03  0.92672403341E+03  0.00000000000E+00 0. -1.
         -2   -1    0    0    0  501 -0.00000000000E+00 -0.00000000000E+00 -0.26876859649E+03  0.26876859649E+03  0.00000000000E+00 0. -1.
         36    2    1    2    0    0  0.21316282073E-13 -0.14210854715E-13  0.65795543692E+03  0.11954926299E+04  0.99814691863E+03 0.  0.
         25    2    3    3    0    0 -0.13434804196E+02  0.12242079470E+03  0.16875459143E+03  0.24290424093E+03  0.12392341666E+03 0.  0.
         35    2    3    3    0    0  0.13434804196E+02 -0.12242079470E+03  0.48920084549E+03  0.95258838897E+03  0.80804692105E+03 0.  0.
         22    1    5    5    0    0  0.21924600973E+03 -0.13953471337E+03  0.64402071051E+03  0.69447924705E+03  0.00000000000E+00 0.  1.
         22    1    5    5    0    0 -0.20581120554E+03  0.17113918665E+02 -0.15481986502E+03  0.25810914192E+03  0.00000000000E+00 0.  1.
          5    1    4    4  502    0  0.23238151009E+02  0.13360731245E+03  0.13789030711E+03  0.19345995037E+03  0.47000000000E+01 0.  1.
         -5    1    4    4    0  502 -0.36672955205E+02 -0.11186517748E+02  0.30864284322E+02  0.49444290566E+02  0.47000000000E+01 0.  1.
<mgrwt>
<rscale>  0 0.99814692E+03</rscale>
<asrwt>0</asrwt>
<pdfrwt beam="1">  1        2 0.14257293E+00 0.99814692E+03</pdfrwt>
<pdfrwt beam="2">  1       -2 0.41349015E-01 0.99814692E+03</pdfrwt>
<totfact> 0.18851100E+02</totfact>
</mgrwt>
</event>
<event>
 9    1  0.4296086E-036  0.1002943E+04  0.7818608E-02  0.8678240E-01
         -2   -1    0    0    0  501 -0.00000000000E+00  0.00000000000E+00  0.10081979503E+03  0.10081979503E+03  0.00000000000E+00 0. -1.
          2   -1    0    0  501    0  0.00000000000E+00 -0.00000000000E+00 -0.24942885269E+04  0.24942885269E+04  0.00000000000E+00 0. -1.
         36    2    1    2    0    0  0.00000000000E+00  0.00000000000E+00 -0.23934687319E+04  0.25951083220E+04  0.10029429855E+04 0.  0.
         25    2    3    3    0    0 -0.12423364165E+03  0.67477797165E+02 -0.66252094710E+03  0.68888196799E+03  0.12504842923E+03 0.  0.
         35    2    3    3    0    0  0.12423364165E+03 -0.67477797165E+02 -0.17309477848E+04  0.19062263540E+04  0.78583167921E+03 0.  0.
         22    1    5    5    0    0 -0.27879318147E+03  0.30110380230E+02 -0.27645200971E+03  0.39377403000E+03  0.00000000000E+00 0. -1.
         22    1    5    5    0    0  0.40302682312E+03 -0.97588177395E+02 -0.14544957751E+04  0.15124523240E+04  0.00000000000E+00 0. -1.
          5    1    4    4  502    0 -0.25328730735E+02 -0.15078999830E+02 -0.26464175933E+02  0.39891896976E+02  0.47000000000E+01 0. -1.
         -5    1    4    4    0  502 -0.98904910910E+02  0.82556796995E+02 -0.63605677116E+03  0.64899007101E+03  0.47000000000E+01 0. -1.
<mgrwt>
<rscale>  0 0.10029430E+04</rscale>
<asrwt>0</asrwt>
<pdfrwt beam="1">  1        2 0.38373668E+00 0.10029430E+04</pdfrwt>
<pdfrwt beam="2">  1       -2 0.15510738E-01 0.10029430E+04</pdfrwt>
<totfact> 0.13269146E+02</totfact>
</mgrwt>
</event>
<event>
 9    1  0.4296086E-036  0.9986717E+03  0.7818608E-02  0.8682304E-01
          1   -1    0    0  501    0  0.00000000000E+00  0.00000000000E+00  0.60196312156E+03  0.60196312156E+03  0.00000000000E+00 0.  1.
         -1   -1    0    0    0  501 -0.00000000000E+00 -0.00000000000E+00 -0.41420528160E+03  0.41420528160E+03  0.00000000000E+00 0.  1.
         36    2    1    2    0    0  0.00000000000E+00  0.28421709430E-13  0.18775783995E+03  0.10161684032E+04  0.99867172641E+03 0.  0.
         25    2    3    3    0    0 -0.10931082506E+03 -0.81253044049E+02  0.18947973170E+02  0.18747056775E+03  0.12741771636E+03 0.  0.
         35    2    3    3    0    0  0.10931082506E+03  0.81253044049E+02  0.16880986678E+03  0.82869783541E+03  0.79980773793E+03 0.  0.
         22    1    5    5    0    0 -0.18603882829E+02 -0.30547179290E+03  0.27096174946E+03  0.40875345917E+03  0.00000000000E+00 0.  1.
         22    1    5    5    0    0  0.12791470789E+03  0.38672483695E+03 -0.10215188268E+03  0.41994437624E+03  0.00000000000E+00 0.  1.
          5    1    4    4  502    0  0.11557710359E+02 -0.43304561876E+02 -0.27108002373E+02  0.52590869366E+02  0.47000000000E+01 0.  1.
         -5    1    4    4    0  502 -0.12086853542E+03 -0.37948482173E+02  0.46055975543E+02  0.13487969839E+03  0.47000000000E+01 0.  1.
<mgrwt>
<rscale>  0 0.99867173E+03</rscale>
<asrwt>0</asrwt>
<pdfrwt beam="1">  1        1 0.92609711E-01 0.99867173E+03</pdfrwt>
<pdfrwt beam="2">  1       -1 0.63723889E-01 0.99867173E+03</pdfrwt>
<totfact> 0.99045710E+01</totfact>
</mgrwt>
</event>
<event>
 9    1  0.4296086E-036  0.9949561E+03  0.7818608E-02  0.8685856E-01
          1   -1    0    0  501    0  0.00000000000E+00  0.00000000000E+00  0.52592454201E+03  0.52592454201E+03  0.00000000000E+00 0.  1.
         -1   -1    0    0    0  501 -0.00000000000E+00 -0.00000000000E+00 -0.47057023304E+03  0.47057023304E+03  0.00000000000E+00 0.  1.
         36    2    1    2    0    0  0.00000000000E+00  0.00000000000E+00  0.55354308970E+02  0.99649477505E+03  0.99495614837E+03 0.  0.
         25    2    3    3    0    0  0.81520046133E+02  0.10389936905E+03  0.41715687939E+02  0.18637062643E+03  0.12471252931E+03 0.  0.
         35    2    3    3    0    0 -0.81520046133E+02 -0.10389936905E+03  0.13638621031E+02  0.81012414862E+03  0.79917115024E+03 0.  0.
         22    1    5    5    0    0  0.35963061837E+02  0.29001022899E+03  0.20474153049E+03  0.35681699657E+03  0.00000000000E+00 0. -1.
         22    1    5    5    0    0 -0.11748310797E+03 -0.39390959804E+03 -0.19110290946E+03  0.45330715204E+03  0.00000000000E+00 0. -1.
          5    1    4    4  502    0  0.72111758806E+02  0.25382520289E+02 -0.27292796125E+02  0.81310299561E+02  0.47000000000E+01 0. -1.
         -5    1    4    4    0  502  0.94082873271E+01  0.78516848763E+02  0.69008484064E+02  0.10506032687E+03  0.47000000000E+01 0. -1.
<mgrwt>
<rscale>  0 0.99495615E+03</rscale>
<asrwt>0</asrwt>
<pdfrwt beam="1">  1        1 0.80911468E-01 0.99495615E+03</pdfrwt>
<pdfrwt beam="2">  1       -1 0.72395421E-01 0.99495615E+03</pdfrwt>
<totfact> 0.93498228E+01</totfact>
</mgrwt>
</event>
<event>
 9    1  0.4296086E-036  0.9991587E+03  0.7818608E-02  0.8681840E-01
         -1   -1    0    0    0  501 -0.00000000000E+00  0.00000000000E+00  0.20204166889E+03  0.20204166889E+03  0.00000000000E+00 0.  1.
          1   -1    0    0  501    0  0.00000000000E+00 -0.00000000000E+00 -0.12352873152E+04  0.12352873152E+04  0.00000000000E+00 0.  1.
         36    2    1    2    0    0  0.00000000000E+00  0.00000000000E+00 -0.10332456463E+04  0.14373289841E+04  0.99915866751E+03 0.  0.
         25    2    3    3    0    0  0.11049041702E+03 -0.10524248449E+01 -0.31338378425E+03  0.35522841479E+03  0.12557304882E+03 0.  0.
         35    2    3    3    0    0 -0.11049041702E+03  0.10524248449E+01 -0.71986186202E+03  0.10821005693E+04  0.80033199471E+03 0.  0.
         22    1    5    5    0    0 -0.14407151968E+03 -0.12623696110E+02  0.15181183209E+03  0.20967306182E+03  0.00000000000E+00 0. -1.
         22    1    5    5    0    0  0.33581102662E+02  0.13676120955E+02 -0.87167369411E+03  0.87242750744E+03  0.00000000000E+00 0. -1.
          5    1    4    4  502    0  0.25308791975E+02 -0.12201361304E+02  0.17699642961E+01  0.28541740355E+02  0.47000000000E+01 0.  1.
         -5    1    4    4    0  502  0.85181625045E+02  0.11148936459E+02 -0.31515374855E+03  0.32668667444E+03  0.47000000000E+01 0.  1.
<mgrwt>
<rscale>  0 0.99915867E+03</rscale>
<asrwt>0</asrwt>
<pdfrwt beam="1">  1        1 0.19004420E+00 0.99915867E+03</pdfrwt>
<pdfrwt beam="2">  1       -1 0.31083334E-01 0.99915867E+03</pdfrwt>
<totfact> 0.10614375E+02</totfact>
</mgrwt>
</event>
<event>
 9    1  0.4296086E-036  0.9976822E+03  0.7818608E-02  0.8683248E-01
         -1   -1    0    0    0  501 -0.00000000000E+00  0.00000000000E+00  0.68672713592E+03  0.68672713592E+03  0.00000000000E+00 0.  1.
          1   -1    0    0  501    0  0.00000000000E+00 -0.00000000000E+00 -0.36235999373E+03  0.36235999373E+03  0.00000000000E+00 0.  1.
         36    2    1    2    0    0  0.14210854715E-13  0.71054273576E-14  0.32436714219E+03  0.10490871297E+04  0.99768219523E+03 0.  0.
         25    2    3    3    0    0  0.72397720571E+02  0.40204560835E+02 -0.54901544420E+02  0.15947246305E+03  0.12473752537E+03 0.  0.
         35    2    3    3    0    0 -0.72397720571E+02 -0.40204560835E+02  0.37926868661E+03  0.88961466661E+03  0.80044467751E+03 0.  0.
         22    1    5    5    0    0  0.19096237611E+03  0.15662147357E+03 -0.13330578591E+03  0.28065521130E+03  0.00000000000E+00 0.  1.
         22    1    5    5    0    0 -0.26336009668E+03 -0.19682603440E+03  0.51257447251E+03  0.60895945531E+03  0.00000000000E+00 0.  1.
          5    1    4    4  502    0  0.35679167127E+02 -0.15935496871E+02  0.31198872401E+02  0.50223527022E+02  0.47000000000E+01 0.  1.
         -5    1    4    4    0  502  0.36718553444E+02  0.56140057706E+02 -0.86100416821E+02  0.10924893603E+03  0.47000000000E+01 0.  1.
<mgrwt>
<rscale>  0 0.99768220E+03</rscale>
<asrwt>0</asrwt>
<pdfrwt beam="1">  1        1 0.55747692E-01 0.99768220E+03</pdfrwt>
<pdfrwt beam="2">  1       -1 0.10565033E+00 0.99768220E+03</pdfrwt>
<totfact> 0.68977758E+01</totfact>
</mgrwt>
</event>
<event>
 9    1  0.4296086E-036  0.1000082E+04  0.7818608E-02  0.8680960E-01
          2   -1    0    0  501    0  0.00000000000E+00  0.00000000000E+00  0.16841708822E+03  0.16841708822E+03  0.00000000000E+00 0. -1.
         -2   -1    0    0    0  501 -0.00000000000E+00 -0.00000000000E+00 -0.14846530577E+04  0.14846530577E+04  0.00000000000E+00 0. -1.
         36    2    1    2    0    0  0.00000000000E+00  0.00000000000E+00 -0.13162359695E+04  0.16530701459E+04  0.10000818866E+04 0.  0.
         25    2    3    3    0    0 -0.13481178786E+02  0.13596462169E+03 -0.19682723065E+03  0.27031935700E+03  0.12515380743E+03 0.  0.
         35    2    3    3    0    0  0.13481178786E+02 -0.13596462169E+03 -0.11194087388E+04  0.13827507889E+04  0.80015979600E+03 0.  0.
         22    1    5    5    0    0 -0.23732943511E+02 -0.46650672889E+03 -0.76786629091E+03  0.89878274428E+03  0.00000000000E+00 0.  1.
         22    1    5    5    0    0  0.37214122297E+02  0.33054210720E+03 -0.35154244793E+03  0.48396804464E+03  0.00000000000E+00 0.  1.
          5    1    4    4  502    0  0.31579454693E+02  0.12971609652E+03 -0.11361816218E+03  0.17537019254E+03  0.47000000000E+01 0. -1.
         -5    1    4    4    0  502 -0.45060633479E+02  0.62485251641E+01 -0.83209068465E+02  0.94949164457E+02  0.47000000000E+01 0. -1.
<mgrwt>
<rscale>  0 0.10000819E+04</rscale>
<asrwt>0</asrwt>
<pdfrwt beam="1">  1        2 0.25910320E-01 0.10000819E+04</pdfrwt>
<pdfrwt beam="2">  1       -2 0.22840817E+00 0.10000819E+04</pdfrwt>
<totfact> 0.19807306E+01</totfact>
</mgrwt>
</event>
<event>
 9    1  0.4296086E-036  0.9947370E+03  0.7818608E-02  0.8686066E-01
         -1   -1    0    0    0  501 -0.00000000000E+00  0.00000000000E+00  0.50540043775E+03  0.50540043775E+03  0.00000000000E+00 0.  1.
          1   -1    0    0  501    0  0.00000000000E+00 -0.00000000000E+00 -0.48946424856E+03  0.48946424856E+03  0.00000000000E+00 0.  1.
         36    2    1    2    0    0  0.00000000000E+00  0.00000000000E+00  0.15936189187E+02  0.99486468631E+03  0.99473704161E+03 0.  0.
         25    2    3    3    0    0  0.55711310020E+02  0.97225823857E+02 -0.70438239347E+02  0.18188233448E+03  0.12475186229E+03 0.  0.
         35    2    3    3    0    0 -0.55711310020E+02 -0.97225823857E+02  0.86374428535E+02  0.81298235183E+03  0.80057676184E+03 0.  0.
         22    1    5    5    0    0 -0.20373866777E+03  0.31225264662E+03  0.46990906302E+02  0.37579157167E+03  0.00000000000E+00 0. -1.
         22    1    5    5    0    0  0.14802735775E+03 -0.40947847048E+03  0.39383522233E+02  0.43719078015E+03  0.00000000000E+00 0. -1.
          5    1    4    4  502    0  0.90567495787E+02  0.92397886344E+02 -0.41123576050E+02  0.13584211130E+03  0.47000000000E+01 0. -1.
         -5    1    4    4    0  502 -0.34856185767E+02  0.48279375128E+01 -0.29314663297E+02  0.46040223187E+02  0.47000000000E+01 0. -1.
<mgrwt>
<rscale>  0 0.99473704E+03</rscale>
<asrwt>0</asrwt>
<pdfrwt beam="1">  1        1 0.75302192E-01 0.99473704E+03</pdfrwt>
<pdfrwt beam="2">  1       -1 0.77753913E-01 0.99473704E+03</pdfrwt>
<totfact> 0.89389694E+01</totfact>
</mgrwt>
</event>
<event>
 9    1  0.4296086E-036  0.1000674E+04  0.7818608E-02  0.8680396E-01
          3   -1    0    0  501    0  0.00000000000E+00  0.00000000000E+00  0.10889969427E+04  0.10889969427E+04  0.00000000000E+00 0.  1.
         -3   -1    0    0    0  501 -0.00000000000E+00 -0.00000000000E+00 -0.22987869332E+03  0.22987869332E+03  0.00000000000E+00 0.  1.
         36    2    1    2    0    0  0.35527136788E-14  0.12434497876E-13  0.85911824934E+03  0.13188756360E+04  0.10006741612E+04 0.  0.
         25    2    3    3    0    0  0.31428464874E+02 -0.10147732909E+02 -0.16966844240E+02  0.13260562248E+03  0.12730142349E+03 0.  0.
         35    2    3    3    0    0 -0.31428464874E+02  0.10147732909E+02  0.87608509358E+03  0.11862700135E+04  0.79913749058E+03 0.  0.
         22    1    5    5    0    0 -0.13901949708E+03  0.35608745644E+03  0.23162936029E+03  0.44696404525E+03  0.00000000000E+00 0. -1.
         22    1    5    5    0    0  0.10759103221E+03 -0.34593972353E+03  0.64445573328E+03  0.73930596825E+03  0.00000000000E+00 0. -1.
          5    1    4    4  502    0  0.52167367682E+02 -0.23855787656E+02 -0.59711748580E+02  0.82934406455E+02  0.47000000000E+01 0.  1.
         -5    1    4    4    0  502 -0.20738902808E+02  0.13708054748E+02  0.42744904340E+02  0.49671216028E+02  0.47000000000E+01 0.  1.
<mgrwt>
<rscale>  0 0.10006742E+04</rscale>
<asrwt>0</asrwt>
<pdfrwt beam="1">  1        3 0.16753799E+00 0.10006742E+04</pdfrwt>
<pdfrwt beam="2">  1       -3 0.35365953E-01 0.10006742E+04</pdfrwt>
<totfact> 0.78558392E+00</totfact>
</mgrwt>
</event>
<event>
 9    1  0.4296086E-036  0.1001752E+04  0.7818608E-02  0.8679371E-01
          4   -1    0    0  501    0  0.00000000000E+00  0.00000000000E+00  0.93065083151E+03  0.93065083151E+03  0.00000000000E+00 0. -1.
         -4   -1    0    0    0  501 -0.00000000000E+00 -0.00000000000E+00 -0.26957136550E+03  0.26957136550E+03  0.00000000000E+00 0. -1.
         36    2    1    2    0    0  0.28421709430E-13  0.14210854715E-13  0.66107946601E+03  0.12002221970E+04  0.10017520960E+04 0.  0.
         25    2    3    3    0    0  0.11474437364E+03 -0.76850360792E+02  0.83944693420E+02  0.20394079238E+03  0.12439005590E+03 0.  0.
         35    2    3    3    0    0 -0.11474437364E+03  0.76850360792E+02  0.57713477259E+03  0.99628140463E+03  0.80026235838E+03 0.  0.
         22    1    5    5    0    0  0.15291043602E+03 -0.61391764517E+02 -0.14141551229E+03  0.21713796838E+03  0.00000000000E+00 0. -1.
         22    1    5    5    0    0 -0.26765480966E+03  0.13824212531E+03  0.71855028489E+03  0.77914343625E+03  0.00000000000E+00 0. -1.
          5    1    4    4  502    0  0.67209563256E+02 -0.91543864670E+02  0.92102680828E+01  0.11403650113E+03  0.47000000000E+01 0.  1.
         -5    1    4    4    0  502  0.47534810384E+02  0.14693503878E+02  0.74734425337E+02  0.89904291248E+02  0.47000000000E+01 0.  1.
<mgrwt>
<rscale>  0 0.10017521E+04</rscale>
<asrwt>0</asrwt>
<pdfrwt beam="1">  1        4 0.14317705E+00 0.10017521E+04</pdfrwt>
<pdfrwt beam="2">  1       -4 0.41472518E-01 0.10017521E+04</pdfrwt>
<totfact> 0.38761832E+00</totfact>
</mgrwt>
</event>
<event>
 9    1  0.4296086E-036  0.1000057E+04  0.7818608E-02  0.8680984E-01
          2   -1    0    0  501    0  0.00000000000E+00  0.00000000000E+00  0.99499751125E+03  0.99499751125E+03  0.00000000000E+00 0.  1.
         -2   -1    0    0    0  501 -0.00000000000E+00 -0.00000000000E+00 -0.25128558990E+03  0.25128558990E+03  0.00000000000E+00 0.  1.
         36    2    1    2    0    0  0.14210854715E-13  0.00000000000E+00  0.74371192135E+03  0.12462831011E+04  0.10000570715E+04 0.  0.
         25    2    3    3    0    0 -0.11939348701E+03  0.31185894757E+02  0.21988124019E+03  0.28152750980E+03  0.12523024480E+03 0.  0.
         35    2    3    3    0    0  0.11939348701E+03 -0.31185894757E+02  0.52383068116E+03  0.96475559135E+03  0.80070431730E+03 0.  0.
         22    1    5    5    0    0 -0.13347403200E+03 -0.18042758358E+03  0.61712388758E+03  0.65666682782E+03  0.00000000000E+00 0.  1.
         22    1    5    5    0    0  0.25286751901E+03  0.14924168882E+03 -0.93293206416E+02  0.30808876353E+03  0.00000000000E+00 0.  1.
          5    1    4    4  502    0 -0.13757016734E+03  0.52466506622E+02  0.18814109799E+03  0.23895072298E+03  0.47000000000E+01 0.  1.
         -5    1    4    4    0  502  0.18176680325E+02 -0.21280611865E+02  0.31740142200E+02  0.42576786819E+02  0.47000000000E+01 0.  1.
<mgrwt>
<rscale>  0 0.10000571E+04</rscale>
<asrwt>0</asrwt>
<pdfrwt beam="1">  1        2 0.15307654E+00 0.10000571E+04</pdfrwt>
<pdfrwt beam="2">  1       -2 0.38659322E-01 0.10000571E+04</pdfrwt>
<totfact> 0.19390864E+02</totfact>
</mgrwt>
</event>
<event>
 9    1  0.4296086E-036  0.1001167E+04  0.7818608E-02  0.8679928E-01
          1   -1    0    0  501    0  0.00000000000E+00  0.00000000000E+00  0.16587016775E+04  0.16587016775E+04  0.00000000000E+00 0. -1.
         -1   -1    0    0    0  501 -0.00000000000E+00 -0.00000000000E+00 -0.15107218212E+03  0.15107218212E+03  0.00000000000E+00 0. -1.
         36    2    1    2    0    0  0.00000000000E+00  0.00000000000E+00  0.15076294954E+04  0.18097738597E+04  0.10011666832E+04 0.  0.
         25    2    3    3    0    0 -0.33253379272E+02 -0.11515581379E+03  0.14969914016E+03  0.22933600813E+03  0.12577171135E+03 0.  0.
         35    2    3    3    0    0  0.33253379272E+02  0.11515581379E+03  0.13579303553E+04  0.15804378515E+04  0.79965136410E+03 0.  0.
         22    1    5    5    0    0  0.80183063018E+02 -0.15495113025E+03 -0.19898091746E+02  0.17559928934E+03  0.00000000000E+00 0.  1.
         22    1    5    5    0    0 -0.46929683746E+02  0.27010694404E+03  0.13778284470E+04  0.14048385622E+04  0.00000000000E+00 0.  1.
          5    1    4    4  502    0 -0.62323980024E+01  0.47736933617E+01 -0.18680264020E+02  0.20800797990E+02  0.47000000000E+01 0.  1.
         -5    1    4    4    0  502 -0.27020981270E+02 -0.11992950715E+03  0.16837940418E+03  0.20853521014E+03  0.47000000000E+01 0.  1.
<mgrwt>
<rscale>  0 0.10011667E+04</rscale>
<asrwt>0</asrwt>
<pdfrwt beam="1">  1        1 0.25518486E+00 0.10011667E+04</pdfrwt>
<pdfrwt beam="2">  1       -1 0.23241875E-01 0.10011667E+04</pdfrwt>
<totfact> 0.86181218E+01</totfact>
</mgrwt>
</event>
<event>
 9    1  0.4296086E-036  0.9894102E+03  0.7818608E-02  0.8691189E-01
          2   -1    0    0  501    0  0.00000000000E+00  0.00000000000E+00  0.24933489390E+04  0.24933489390E+04  0.00000000000E+00 0. -1.
         -2   -1    0    0    0  501 -0.00000000000E+00 -0.00000000000E+00 -0.98154386744E+02  0.98154386744E+02  0.00000000000E+00 0. -1.
         36    2    1    2    0    0 -0.35527136788E-13 -0.14210854715E-13  0.23951945523E+04  0.25915033258E+04  0.98941020017E+03 0.  0.
         25    2    3    3    0    0 -0.14001766158E+02 -0.12387654405E+03  0.50100751192E+03  0.53113902458E+03  0.12473447325E+03 0.  0.
         35    2    3    3    0    0  0.14001766158E+02  0.12387654405E+03  0.18941870404E+04  0.20603643012E+04  0.80100877780E+03 0.  0.
         22    1    5    5    0    0  0.39910746999E+03  0.31225463912E+02  0.75977448425E+03  0.85878930426E+03  0.00000000000E+00 0. -1.
         22    1    5    5    0    0 -0.38510570383E+03  0.92651080135E+02  0.11344125561E+04  0.12015749969E+04  0.00000000000E+00 0. -1.
          5    1    4    4  502    0 -0.52836986943E+02 -0.11795315346E+02  0.11317525994E+03  0.12554523534E+03  0.47000000000E+01 0. -1.
         -5    1    4    4    0  502  0.38835220785E+02 -0.11208122870E+03  0.38783225198E+03  0.40559378924E+03  0.47000000000E+01 0. -1.
<mgrwt>
<rscale>  0 0.98941020E+03</rscale>
<asrwt>0</asrwt>
<pdfrwt beam="1">  1        2 0.38359210E+00 0.98941020E+03</pdfrwt>
<pdfrwt beam="2">  1       -2 0.15100677E-01 0.98941020E+03</pdfrwt>
<totfact> 0.13902020E+02</totfact>
</mgrwt>
</event>
<event>
 9    1  0.4296086E-036  0.1000331E+04  0.7818608E-02  0.8680723E-01
          2   -1    0    0  501    0  0.00000000000E+00  0.00000000000E+00  0.33647176502E+03  0.33647176502E+03  0.00000000000E+00 0.  1.
         -2   -1    0    0    0  501 -0.00000000000E+00 -0.00000000000E+00 -0.74349671683E+03  0.74349671683E+03  0.00000000000E+00 0.  1.
         36    2    1    2    0    0 -0.10658141036E-13  0.21316282073E-13 -0.40702495181E+03  0.10799684818E+04  0.10003312503E+04 0.  0.
         25    2    3    3    0    0  0.85214188664E+01 -0.36580531302E+02 -0.22095304955E+03  0.25667152685E+03  0.12509705327E+03 0.  0.
         35    2    3    3    0    0 -0.85214188664E+01  0.36580531302E+02 -0.18607190226E+03  0.82329695500E+03  0.80111445715E+03 0.  0.
         22    1    5    5    0    0 -0.28961732922E+03 -0.13042802061E+03  0.15273910295E+03  0.35244701661E+03  0.00000000000E+00 0. -1.
         22    1    5    5    0    0  0.28109591035E+03  0.16700855191E+03 -0.33881100521E+03  0.47084993839E+03  0.00000000000E+00 0. -1.
          5    1    4    4  502    0  0.26092844018E+02  0.32858592230E+02 -0.14966058104E+03  0.15550210001E+03  0.47000000000E+01 0. -1.
         -5    1    4    4    0  502 -0.17571425151E+02 -0.69439123532E+02 -0.71292468514E+02  0.10116942683E+03  0.47000000000E+01 0. -1.
<mgrwt>
<rscale>  0 0.10003313E+04</rscale>
<asrwt>0</asrwt>
<pdfrwt beam="1">  1        2 0.51764888E-01 0.10003313E+04</pdfrwt>
<pdfrwt beam="2">  1       -2 0.11438411E+00 0.10003313E+04</pdfrwt>
<totfact> 0.67698959E+01</totfact>
</mgrwt>
</event>
<event>
 9    1  0.4296086E-036  0.9990125E+03  0.7818608E-02  0.8681979E-01
          2   -1    0    0  501    0  0.00000000000E+00  0.00000000000E+00  0.23050267038E+04  0.23050267038E+04  0.00000000000E+00 0. -1.
         -2   -1    0    0    0  501 -0.00000000000E+00 -0.00000000000E+00 -0.10824451939E+03  0.10824451939E+03  0.00000000000E+00 0. -1.
         36    2    1    2    0    0  0.00000000000E+00  0.71054273576E-14  0.21967821844E+04  0.24132712232E+04  0.99901252793E+03 0.  0.
         25    2    3    3    0    0 -0.38581762504E+02  0.53615874650E+02  0.12232740319E+03  0.18892129849E+03  0.12792204283E+03 0.  0.
         35    2    3    3    0    0  0.38581762504E+02 -0.53615874650E+02  0.20744547812E+04  0.22243499247E+04  0.80000420860E+03 0.  0.
         22    1    5    5    0    0  0.25315815851E+03  0.37216035968E+02  0.17346852394E+03  0.30913656424E+03  0.00000000000E+00 0. -1.
         22    1    5    5    0    0 -0.21457639601E+03 -0.90831910619E+02  0.19009862573E+04  0.19152133605E+04  0.00000000000E+00 0. -1.
          5    1    4    4  502    0  0.23656104770E+02  0.42913167426E+02  0.11509909607E+03  0.12518403711E+03  0.47000000000E+01 0.  1.
         -5    1    4    4    0  502 -0.62237867274E+02  0.10702707224E+02  0.72283071198E+01  0.63737261383E+02  0.47000000000E+01 0.  1.
<mgrwt>
<rscale>  0 0.99901253E+03</rscale>
<asrwt>0</asrwt>
<pdfrwt beam="1">  1        2 0.35461945E+00 0.99901253E+03</pdfrwt>
<pdfrwt beam="2">  1       -2 0.16653005E-01 0.99901253E+03</pdfrwt>
<totfact> 0.15277130E+02</totfact>
</mgrwt>
</event>
<event>
 9    1  0.4296086E-036  0.1000743E+04  0.7818608E-02  0.8680331E-01
         -1   -1    0    0    0  501 -0.00000000000E+00  0.00000000000E+00  0.64236744261E+03  0.64236744261E+03  0.00000000000E+00 0.  1.
          1   -1    0    0  501    0  0.00000000000E+00 -0.00000000000E+00 -0.38976392784E+03  0.38976392784E+03  0.00000000000E+00 0.  1.
         36    2    1    2    0    0  0.00000000000E+00  0.28421709430E-13  0.25260351478E+03  0.10321313705E+04  0.10007430390E+04 0.  0.
         25    2    3    3    0    0  0.10573985638E+03  0.24570540975E+02 -0.46131690292E+02  0.17224726380E+03  0.12552433360E+03 0.  0.
         35    2    3    3    0    0 -0.10573985638E+03 -0.24570540975E+02  0.29873520507E+03  0.85988410666E+03  0.79898268156E+03 0.  0.
         22    1    5    5    0    0  0.48433576981E+02  0.32958796565E+03 -0.53184989342E+02  0.33734653040E+03  0.00000000000E+00 0.  1.
         22    1    5    5    0    0 -0.15417343336E+03 -0.35415850663E+03  0.35192019441E+03  0.52253757626E+03  0.00000000000E+00 0.  1.
          5    1    4    4  502    0  0.27946055313E+02 -0.37497913210E+02 -0.54851608768E+02  0.72234787237E+02  0.47000000000E+01 0.  1.
         -5    1    4    4    0  502  0.77793801066E+02  0.62068454185E+02  0.87199184767E+01  0.10001247656E+03  0.47000000000E+01 0.  1.
<mgrwt>
<rscale>  0 0.10007430E+04</rscale>
<asrwt>0</asrwt>
<pdfrwt beam="1">  1        1 0.59963681E-01 0.10007430E+04</pdfrwt>
<pdfrwt beam="2">  1       -1 0.98825761E-01 0.10007430E+04</pdfrwt>
<totfact> 0.72808157E+01</totfact>
</mgrwt>
</event>
<event>
 9    1  0.4296086E-036  0.1000125E+04  0.7818608E-02  0.8680919E-01
         -1   -1    0    0    0  501 -0.00000000000E+00  0.00000000000E+00  0.26844174248E+03  0.26844174248E+03  0.00000000000E+00 0. -1.
          1   -1    0    0  501    0  0.00000000000E+00 -0.00000000000E+00 -0.93153364221E+03  0.93153364221E+03  0.00000000000E+00 0. -1.
         36    2    1    2    0    0  0.28421709430E-13  0.00000000000E+00 -0.66309189973E+03  0.11999753847E+04  0.10001250204E+04 0.  0.
         25    2    3    3    0    0 -0.88209776372E+02 -0.44254232964E+02 -0.24593013582E+03  0.29247569841E+03  0.12377802986E+03 0.  0.
         35    2    3    3    0    0  0.88209776372E+02  0.44254232964E+02 -0.41716176391E+03  0.90749968628E+03  0.79987020294E+03 0.  0.
         22    1    5    5    0    0  0.16539811526E+03  0.75754166206E+02  0.20827055423E+03  0.27653544797E+03  0.00000000000E+00 0. -1.
         22    1    5    5    0    0 -0.77188338884E+02 -0.31499933241E+02 -0.62543231813E+03  0.63096423830E+03  0.00000000000E+00 0. -1.
          5    1    4    4  502    0 -0.59079456392E+02 -0.15444941687E+01 -0.23096154761E+03  0.23844935333E+03  0.47000000000E+01 0.  1.
         -5    1    4    4    0  502 -0.29130319980E+02 -0.42709738796E+02 -0.14968588212E+02  0.54026345085E+02  0.47000000000E+01 0.  1.
<mgrwt>
<rscale>  0 0.10001250E+04</rscale>
<asrwt>0</asrwt>
<pdfrwt beam="1">  1        1 0.14331286E+00 0.10001250E+04</pdfrwt>
<pdfrwt beam="2">  1       -1 0.41298731E-01 0.10001250E+04</pdfrwt>
<totfact> 0.11087672E+02</totfact>
</mgrwt>
</event>
<event>
 9    1  0.4296086E-036  0.9999059E+03  0.7818608E-02  0.8681128E-01
          2   -1    0    0  501    0  0.00000000000E+00  0.00000000000E+00  0.26503812939E+03  0.26503812939E+03  0.00000000000E+00 0.  1.
         -2   -1    0    0    0  501 -0.00000000000E+00 -0.00000000000E+00 -0.94308294475E+03  0.94308294475E+03  0.00000000000E+00 0.  1.
         36    2    1    2    0    0 -0.35527136788E-14  0.21316282073E-13 -0.67804481536E+03  0.12081210741E+04  0.99990587465E+03 0.  0.
         25    2    3    3    0    0  0.20228373287E+02  0.18884695064E+02  0.39462681590E+02  0.13291795161E+03  0.12387114203E+03 0.  0.
         35    2    3    3    0    0 -0.20228373287E+02 -0.18884695064E+02 -0.71750749695E+03  0.10752031225E+04  0.80029927386E+03 0.  0.
         22    1    5    5    0    0 -0.17424036172E+03  0.23255581189E+03 -0.72413959233E+03  0.78026922179E+03  0.00000000000E+00 0.  1.
         22    1    5    5    0    0  0.15401198844E+03 -0.25144050695E+03  0.66320953832E+01  0.29493390074E+03  0.00000000000E+00 0.  1.
          5    1    4    4  502    0 -0.15190303477E+02 -0.45800851849E+02 -0.13465693840E+01  0.48501202036E+02  0.47000000000E+01 0. -1.
         -5    1    4    4    0  502  0.35418676764E+02  0.64685546914E+02  0.40809250974E+02  0.84416749572E+02  0.47000000000E+01 0. -1.
<mgrwt>
<rscale>  0 0.99990587E+03</rscale>
<asrwt>0</asrwt>
<pdfrwt beam="1">  1        2 0.40775097E-01 0.99990587E+03</pdfrwt>
<pdfrwt beam="2">  1       -2 0.14508968E+00 0.99990587E+03</pdfrwt>
<totfact> 0.46913669E+01</totfact>
</mgrwt>
</event>
<event>
 9    1  0.4296086E-036  0.9999977E+03  0.7818608E-02  0.8681040E-01
          1   -1    0    0  501    0  0.00000000000E+00  0.00000000000E+00  0.85398058722E+03  0.85398058722E+03  0.00000000000E+00 0. -1.
         -1   -1    0    0    0  501 -0.00000000000E+00 -0.00000000000E+00 -0.29274537492E+03  0.29274537492E+03  0.00000000000E+00 0. -1.
         36    2    1    2    0    0  0.14210854715E-13 -0.14210854715E-13  0.56123521230E+03  0.11467259621E+04  0.99999773436E+03 0.  0.
         25    2    3    3    0    0 -0.12035993274E+03  0.37361569024E+02  0.17728878126E+03  0.25085788802E+03  0.12496386587E+03 0.  0.
         35    2    3    3    0    0  0.12035993274E+03 -0.37361569024E+02  0.38394643104E+03  0.89586807411E+03  0.79955133923E+03 0.  0.
         22    1    5    5    0    0  0.25396199728E+03 -0.61503817134E+02 -0.17903103116E+03  0.31675152044E+03  0.00000000000E+00 0. -1.
         22    1    5    5    0    0 -0.13360206454E+03  0.24142248110E+02  0.56297746220E+03  0.57911655367E+03  0.00000000000E+00 0. -1.
          5    1    4    4  502    0 -0.69839335028E+02  0.52397856909E+02  0.17757813710E+03  0.19793724485E+03  0.47000000000E+01 0.  1.
         -5    1    4    4    0  502 -0.50520597714E+02 -0.15036287884E+02 -0.28935583270E+00  0.52920643170E+02  0.47000000000E+01 0.  1.
<mgrwt>
<rscale>  0 0.99999773E+03</rscale>
<asrwt>0</asrwt>
<pdfrwt beam="1">  1        1 0.13138163E+00 0.99999773E+03</pdfrwt>
<pdfrwt beam="2">  1       -1 0.45037750E-01 0.99999773E+03</pdfrwt>
<totfact> 0.11011286E+02</totfact>
</mgrwt>
</event>
<event>
 9    1  0.4296086E-036  0.9998208E+03  0.7818608E-02  0.8681209E-01
          1   -1    0    0  501    0  0.00000000000E+00  0.00000000000E+00  0.59974079635E+03  0.59974079635E+03  0.00000000000E+00 0. -1.
         -1   -1    0    0    0  501 -0.00000000000E+00 -0.00000000000E+00 -0.41669736076E+03  0.41669736076E+03  0.00000000000E+00 0. -1.
         36    2    1    2    0    0  0.00000000000E+00  0.71054273576E-14  0.18304343559E+03  0.10164381571E+04  0.99982079790E+03 0.  0.
         25    2    3    3    0    0 -0.63076763535E+02  0.49423148821E+02 -0.79766513396E+02  0.16994236498E+03  0.12687152958E+03 0.  0.
         35    2    3    3    0    0  0.63076763535E+02 -0.49423148821E+02  0.26280994899E+03  0.84649579213E+03  0.80066518038E+03 0.  0.
         22    1    5    5    0    0 -0.16441536697E+03  0.12137311485E+03  0.45798167494E+03  0.50150878406E+03  0.00000000000E+00 0.  1.
         22    1    5    5    0    0  0.22749213050E+03 -0.17079626367E+03 -0.19517172596E+03  0.34498700807E+03  0.00000000000E+00 0.  1.
          5    1    4    4  502    0 -0.77913072191E+02  0.67423436921E+01 -0.93968920612E+02  0.12234440755E+03  0.47000000000E+01 0. -1.
         -5    1    4    4    0  502  0.14836308657E+02  0.42680805129E+02  0.14202407216E+02  0.47597957433E+02  0.47000000000E+01 0. -1.
<mgrwt>
<rscale>  0 0.99982080E+03</rscale>
<asrwt>0</asrwt>
<pdfrwt beam="1">  1        1 0.92267815E-01 0.99982080E+03</pdfrwt>
<pdfrwt beam="2">  1       -1 0.64107286E-01 0.99982080E+03</pdfrwt>
<totfact> 0.98419054E+01</totfact>
</mgrwt>
</event>
<event>
 9    1  0.4296086E-036  0.1001088E+04  0.7818608E-02  0.8680003E-01
         -2   -1    0    0    0  501 -0.00000000000E+00  0.00000000000E+00  0.40004725036E+03  0.40004725036E+03  0.00000000000E+00 0. -1.
          2   -1    0    0  501    0  0.00000000000E+00 -0.00000000000E+00 -0.62628678541E+03  0.62628678541E+03  0.00000000000E+00 0. -1.
         36    2    1    2    0    0  0.00000000000E+00  0.00000000000E+00 -0.22623953505E+03  0.10263340358E+04  0.10010880210E+04 0.  0.
         25    2    3    3    0    0  0.47636413564E+02 -0.13433574360E+03 -0.46929809803E+02  0.19487571596E+03  0.12433349394E+03 0.  0.
         35    2    3    3    0    0 -0.47636413564E+02  0.13433574360E+03 -0.17930972525E+03  0.83145831981E+03  0.79928445506E+03 0.  0.
         22    1    5    5    0    0 -0.36921328043E+02 -0.10426617974E+03 -0.45409975227E+03  0.46737694178E+03  0.00000000000E+00 0.  1.
         22    1    5    5    0    0 -0.10715085521E+02  0.23860192333E+03  0.27479002702E+03  0.36408137802E+03  0.00000000000E+00 0.  1.
          5    1    4    4  502    0  0.79570192874E+01 -0.13057286772E+03  0.28524950668E+01  0.13093057194E+03  0.47000000000E+01 0.  1.
         -5    1    4    4    0  502  0.39679394276E+02 -0.37628758763E+01 -0.49782304870E+02  0.63945144015E+02  0.47000000000E+01 0.  1.
<mgrwt>
<rscale>  0 0.10010880E+04</rscale>
<asrwt>0</asrwt>
<pdfrwt beam="1">  1        2 0.96351813E-01 0.10010880E+04</pdfrwt>
<pdfrwt beam="2">  1       -2 0.61545731E-01 0.10010880E+04</pdfrwt>
<totfact> 0.13975568E+02</totfact>
</mgrwt>
</event>
<event>
 9    1  0.4296086E-036  0.1000267E+04  0.7818608E-02  0.8680784E-01
          1   -1    0    0  501    0  0.00000000000E+00  0.00000000000E+00  0.27449615909E+03  0.27449615909E+03  0.00000000000E+00 0.  1.
         -1   -1    0    0    0  501 -0.00000000000E+00 -0.00000000000E+00 -0.91124628603E+03  0.91124628603E+03  0.00000000000E+00 0.  1.
         36    2    1    2    0    0  0.00000000000E+00 -0.14210854715E-13 -0.63675012694E+03  0.11857424451E+04  0.10002671753E+04 0.  0.
         25    2    3    3    0    0 -0.12818904391E+03 -0.57790785032E+02 -0.12578012864E+03  0.22615869523E+03  0.12471932029E+03 0.  0.
         35    2    3    3    0    0  0.12818904391E+03  0.57790785032E+02 -0.51096999830E+03  0.95958374989E+03  0.79996151663E+03 0.  0.
         22    1    5    5    0    0  0.36882415502E+03  0.14812448006E+03 -0.11227304540E+02  0.39761560745E+03  0.00000000000E+00 0. -1.
         22    1    5    5    0    0 -0.24063511111E+03 -0.90333695025E+02 -0.49974269376E+03  0.56196814244E+03  0.00000000000E+00 0. -1.
          5    1    4    4  502    0 -0.55638108619E+02 -0.69599724466E+01  0.16368244347E+02  0.58600765952E+02  0.47000000000E+01 0. -1.
         -5    1    4    4    0  502 -0.72550935292E+02 -0.50830812585E+02 -0.14214837299E+03  0.16755792928E+03  0.47000000000E+01 0. -1.
<mgrwt>
<rscale>  0 0.10002672E+04</rscale>
<asrwt>0</asrwt>
<pdfrwt beam="1">  1        1 0.42230178E-01 0.10002672E+04</pdfrwt>
<pdfrwt beam="2">  1       -1 0.14019174E+00 0.10002672E+04</pdfrwt>
<totfact> 0.48849313E+01</totfact>
</mgrwt>
</event>
<event>
 9    1  0.4296086E-036  0.1000017E+04  0.7818608E-02  0.8681022E-01
         -1   -1    0    0    0  501 -0.00000000000E+00  0.00000000000E+00  0.24917346733E+03  0.24917346733E+03  0.00000000000E+00 0.  1.
          1   -1    0    0  501    0  0.00000000000E+00 -0.00000000000E+00 -0.10033512660E+04  0.10033512660E+04  0.00000000000E+00 0.  1.
         36    2    1    2    0    0  0.00000000000E+00  0.00000000000E+00 -0.75417779863E+03  0.12525247333E+04  0.10000170276E+04 0.  0.
         25    2    3    3    0    0  0.13792027413E+03 -0.12553747621E+02 -0.15345144518E+03  0.24217583805E+03  0.12618316809E+03 0.  0.
         35    2    3    3    0    0 -0.13792027413E+03  0.12553747621E+02 -0.60072635345E+03  0.10103488952E+04  0.80047057396E+03 0.  0.
         22    1    5    5    0    0 -0.30271630463E+03  0.74809130691E+02  0.67709206907E+02  0.31908949187E+03  0.00000000000E+00 0.  1.
         22    1    5    5    0    0  0.16479603050E+03 -0.62255383070E+02 -0.66843556036E+03  0.69125940336E+03  0.00000000000E+00 0.  1.
          5    1    4    4  502    0  0.11185923317E+03 -0.30821919130E+02 -0.17009553695E+03  0.20595402505E+03  0.47000000000E+01 0.  1.
         -5    1    4    4    0  502  0.26061040962E+02  0.18268171509E+02  0.16644091765E+02  0.36221813000E+02  0.47000000000E+01 0.  1.
<mgrwt>
<rscale>  0 0.10000170E+04</rscale>
<asrwt>0</asrwt>
<pdfrwt beam="1">  1        1 0.15436173E+00 0.10000170E+04</pdfrwt>
<pdfrwt beam="2">  1       -1 0.38334380E-01 0.10000170E+04</pdfrwt>
<totfact> 0.11079144E+02</totfact>
</mgrwt>
</event>
<event>
 9    1  0.4296086E-036  0.1001369E+04  0.7818608E-02  0.8679735E-01
         -1   -1    0    0    0  501 -0.00000000000E+00  0.00000000000E+00  0.94094936544E+02  0.94094936544E+02  0.00000000000E+00 0. -1.
          1   -1    0    0  501    0  0.00000000000E+00 -0.00000000000E+00 -0.26641713225E+04  0.26641713225E+04  0.00000000000E+00 0. -1.
         36    2    1    2    0    0 -0.28421709430E-13  0.00000000000E+00 -0.25700763859E+04  0.27582662590E+04  0.10013691258E+04 0.  0.
         25    2    3    3    0    0 -0.13947996929E+03 -0.17287573361E+02 -0.44469592563E+03  0.48294281212E+03  0.12540243811E+03 0.  0.
         35    2    3    3    0    0  0.13947996929E+03  0.17287573361E+02 -0.21253804603E+04  0.22753234469E+04  0.80006322559E+03 0.  0.
         22    1    5    5    0    0 -0.30743024360E+03  0.11366686737E+03 -0.61005620705E+03  0.69253309464E+03  0.00000000000E+00 0. -1.
         22    1    5    5    0    0  0.44691021288E+03 -0.96379294011E+02 -0.15153242533E+04  0.15827903523E+04  0.00000000000E+00 0. -1.
          5    1    4    4  502    0 -0.11904939018E+03 -0.50039058869E+02 -0.22194891760E+03  0.25682693928E+03  0.47000000000E+01 0. -1.
         -5    1    4    4    0  502 -0.20430579104E+02  0.32751485508E+02 -0.22274700803E+03  0.22611587285E+03  0.47000000000E+01 0. -1.
<mgrwt>
<rscale>  0 0.10013691E+04</rscale>
<asrwt>0</asrwt>
<pdfrwt beam="1">  1        1 0.40987247E+00 0.10013691E+04</pdfrwt>
<pdfrwt beam="2">  1       -1 0.14476145E-01 0.10013691E+04</pdfrwt>
<totfact> 0.36864496E+01</totfact>
</mgrwt>
</event>
<event>
 9    1  0.4296086E-036  0.9985781E+03  0.7818608E-02  0.8682393E-01
          2   -1    0    0  501    0  0.00000000000E+00  0.00000000000E+00  0.11115906589E+04  0.11115906589E+04  0.00000000000E+00 0. -1.
         -2   -1    0    0    0  501 -0.00000000000E+00 -0.00000000000E+00 -0.22426383038E+03  0.22426383038E+03  0.00000000000E+00 0. -1.
         36    2    1    2    0    0 -0.28421709430E-13 -0.71054273576E-14  0.88732682857E+03  0.13358544893E+04  0.99857814714E+03 0.  0.
         25    2    3    3    0    0 -0.12859164671E+03  0.55796965656E+01  0.10545946014E+03  0.21004510861E+03  0.12818075246E+03 0.  0.
         35    2    3    3    0    0  0.12859164671E+03 -0.55796965656E+01  0.78186736843E+03  0.11258093807E+04  0.79972697545E+03 0.  0.
         22    1    5    5    0    0  0.26727672861E+03 -0.87107538014E+02  0.88909340171E+03  0.93247608537E+03  0.00000000000E+00 0. -1.
         22    1    5    5    0    0 -0.13868508190E+03  0.81527841449E+02 -0.10722603328E+03  0.19333329534E+03  0.00000000000E+00 0. -1.
          5    1    4    4  502    0 -0.80291668862E+02 -0.36768935540E+02  0.11485360581E+03  0.14495567418E+03  0.47000000000E+01 0. -1.
         -5    1    4    4    0  502 -0.48299977852E+02  0.42348632106E+02 -0.93941456697E+01  0.65089434431E+02  0.47000000000E+01 0. -1.
<mgrwt>
<rscale>  0 0.99857815E+03</rscale>
<asrwt>0</asrwt>
<pdfrwt beam="1">  1        2 0.17101395E+00 0.99857815E+03</pdfrwt>
<pdfrwt beam="2">  1       -2 0.34502128E-01 0.99857815E+03</pdfrwt>
<totfact> 0.20355510E+02</totfact>
</mgrwt>
</event>
<event>
 9    1  0.4296086E-036  0.9993346E+03  0.7818608E-02  0.8681672E-01
          2   -1    0    0  501    0  0.00000000000E+00  0.00000000000E+00  0.74693504271E+03  0.74693504271E+03  0.00000000000E+00 0.  1.
         -2   -1    0    0    0  501 -0.00000000000E+00 -0.00000000000E+00 -0.33425582204E+03  0.33425582204E+03  0.00000000000E+00 0.  1.
         36    2    1    2    0    0  0.00000000000E+00 -0.19539925233E-13  0.41267922067E+03  0.10811908648E+04  0.99933455202E+03 0.  0.
         25    2    3    3    0    0  0.13326911944E+03  0.41265767294E+01  0.31876649074E+02  0.18566890292E+03  0.12521634847E+03 0.  0.
         35    2    3    3    0    0 -0.13326911944E+03 -0.41265767294E+01  0.38080257160E+03  0.89552196183E+03  0.79948189395E+03 0.  0.
         22    1    5    5    0    0  0.26036780906E+03 -0.23385027804E+03  0.11750389415E+03  0.36916732476E+03  0.00000000000E+00 0. -1.
         22    1    5    5    0    0 -0.39363692850E+03  0.22972370131E+03  0.26329867745E+03  0.52635463707E+03  0.00000000000E+00 0. -1.
          5    1    4    4  502    0  0.62096675321E+01 -0.14774134923E+02 -0.36450236446E+02  0.40094198714E+02  0.47000000000E+01 0.  1.
         -5    1    4    4    0  502  0.12705945191E+03  0.18900711652E+02  0.68326885520E+02  0.14557470421E+03  0.47000000000E+01 0.  1.
<mgrwt>
<rscale>  0 0.99933455E+03</rscale>
<asrwt>0</asrwt>
<pdfrwt beam="1">  1        2 0.11491308E+00 0.99933455E+03</pdfrwt>
<pdfrwt beam="2">  1       -2 0.51423973E-01 0.99933455E+03</pdfrwt>
<totfact> 0.16302342E+02</totfact>
</mgrwt>
</event>
<event>
 9    1  0.4296086E-036  0.1000575E+04  0.7818608E-02  0.8680491E-01
         -2   -1    0    0    0  501 -0.00000000000E+00  0.00000000000E+00  0.50087846945E+03  0.50087846945E+03  0.00000000000E+00 0. -1.
          2   -1    0    0  501    0  0.00000000000E+00 -0.00000000000E+00 -0.49969680845E+03  0.49969680845E+03  0.00000000000E+00 0. -1.
         36    2    1    2    0    0  0.56843418861E-13 -0.56843418861E-13  0.11816610082E+01  0.10005752779E+04  0.10005745801E+04 0.  0.
         25    2    3    3    0    0 -0.12941143334E+03  0.56196084328E+02 -0.16819699543E+01  0.18797899555E+03  0.12420931839E+03 0.  0.
         35    2    3    3    0    0  0.12941143334E+03 -0.56196084328E+02  0.28636309625E+01  0.81259628235E+03  0.80024946031E+03 0.  0.
         22    1    5    5    0    0  0.26732542384E+03  0.31356973168E+03  0.50276894712E+02  0.41511037688E+03  0.00000000000E+00 0.  1.
         22    1    5    5    0    0 -0.13791399050E+03 -0.36976581601E+03 -0.47413263750E+02  0.39748590546E+03  0.00000000000E+00 0.  1.
          5    1    4    4  502    0 -0.74177174557E+02  0.77630765895E+02  0.40762531513E+02  0.11494547844E+03  0.47000000000E+01 0.  1.
         -5    1    4    4    0  502 -0.55234258781E+02 -0.21434681567E+02 -0.42444501467E+02  0.73033517112E+02  0.47000000000E+01 0.  1.
<mgrwt>
<rscale>  0 0.10005746E+04</rscale>
<asrwt>0</asrwt>
<pdfrwt beam="1">  1        2 0.76876432E-01 0.10005746E+04</pdfrwt>
<pdfrwt beam="2">  1       -2 0.77058226E-01 0.10005746E+04</pdfrwt>
<totfact> 0.11181954E+02</totfact>
</mgrwt>
</event>
<event>
 9    1  0.4296086E-036  0.1000267E+04  0.7818608E-02  0.8680784E-01
         -2   -1    0    0    0  501 -0.00000000000E+00  0.00000000000E+00  0.31718484670E+03  0.31718484670E+03  0.00000000000E+00 0.  1.
          2   -1    0    0  501    0  0.00000000000E+00 -0.00000000000E+00 -0.78860510285E+03  0.78860510285E+03  0.00000000000E+00 0.  1.
         36    2    1    2    0    0  0.71054273576E-14  0.56843418861E-13 -0.47142025615E+03  0.11057899496E+04  0.10002671416E+04 0.  0.
         25    2    3    3    0    0 -0.12184074218E+02  0.14625727347E+03 -0.69205601980E+02  0.20453069115E+03  0.12451404166E+03 0.  0.
         35    2    3    3    0    0  0.12184074218E+02 -0.14625727347E+03 -0.40221465417E+03  0.90125925840E+03  0.79306492869E+03 0.  0.
         22    1    5    5    0    0  0.12089921313E+03  0.29031583565E+03 -0.27387786308E+02  0.31567387444E+03  0.00000000000E+00 0.  1.
         22    1    5    5    0    0 -0.10871513891E+03 -0.43657310912E+03 -0.37482686786E+03  0.58558538396E+03  0.00000000000E+00 0.  1.
          5    1    4    4  502    0 -0.14057029858E+02  0.66340825974E+02  0.32284893342E+02  0.75253635244E+02  0.47000000000E+01 0.  1.
         -5    1    4    4    0  502  0.18729556393E+01  0.79916447494E+02 -0.10149049532E+03  0.12927705591E+03  0.47000000000E+01 0.  1.
<mgrwt>
<rscale>  0 0.10002671E+04</rscale>
<asrwt>0</asrwt>
<pdfrwt beam="1">  1        2 0.12132386E+00 0.10002671E+04</pdfrwt>
<pdfrwt beam="2">  1       -2 0.48797669E-01 0.10002671E+04</pdfrwt>
<totfact> 0.16899233E+02</totfact>
</mgrwt>
</event>
<event>
 9    1  0.4296086E-036  0.1000030E+04  0.7818608E-02  0.8681010E-01
          1   -1    0    0  501    0  0.00000000000E+00  0.00000000000E+00  0.24328682628E+03  0.24328682628E+03  0.00000000000E+00 0. -1.
         -1   -1    0    0    0  501 -0.00000000000E+00 -0.00000000000E+00 -0.10276548550E+04  0.10276548550E+04  0.00000000000E+00 0. -1.
         36    2    1    2    0    0  0.28421709430E-13 -0.14210854715E-13 -0.78436802868E+03  0.12709416812E+04  0.10000297759E+04 0.  0.
         25    2    3    3    0    0 -0.14878204146E+03 -0.29413148870E+02 -0.13575722451E+03  0.23890249302E+03  0.12507257083E+03 0.  0.
         35    2    3    3    0    0  0.14878204146E+03  0.29413148870E+02 -0.64861080416E+03  0.10320391882E+04  0.78829415929E+03 0.  0.
         22    1    5    5    0    0  0.36135525219E+03 -0.16378119677E+03 -0.62958290930E+03  0.74416163458E+03  0.00000000000E+00 0.  1.
         22    1    5    5    0    0 -0.21257321073E+03  0.19319434564E+03 -0.19027894864E+02  0.28787755364E+03  0.00000000000E+00 0.  1.
          5    1    4    4  502    0  0.15355069980E+02  0.15251681205E+01 -0.47016005836E+02  0.49706127556E+02  0.47000000000E+01 0. -1.
         -5    1    4    4    0  502 -0.16413711144E+03 -0.30938316990E+02 -0.88741218679E+02  0.18919636546E+03  0.47000000000E+01 0. -1.
<mgrwt>
<rscale>  0 0.10000298E+04</rscale>
<asrwt>0</asrwt>
<pdfrwt beam="1">  1        1 0.37428743E-01 0.10000298E+04</pdfrwt>
<pdfrwt beam="2">  1       -1 0.15810074E+00 0.10000298E+04</pdfrwt>
<totfact> 0.40380530E+01</totfact>
</mgrwt>
</event>
<event>
 9    1  0.4296086E-036  0.9998296E+03  0.7818608E-02  0.8681200E-01
         -2   -1    0    0    0  501 -0.00000000000E+00  0.00000000000E+00  0.18229332167E+03  0.18229332167E+03  0.00000000000E+00 0.  1.
          2   -1    0    0  501    0  0.00000000000E+00 -0.00000000000E+00 -0.13709487148E+04  0.13709487148E+04  0.00000000000E+00 0.  1.
         36    2    1    2    0    0 -0.21316282073E-13  0.00000000000E+00 -0.11886553932E+04  0.15532420365E+04  0.99982957560E+03 0.  0.
         25    2    3    3    0    0 -0.28729165094E+02 -0.95278349775E+02 -0.37500383405E+03  0.40763281229E+03  0.12503321656E+03 0.  0.
         35    2    3    3    0    0  0.28729165094E+02  0.95278349775E+02 -0.81365155912E+03  0.11456092242E+04  0.80030513311E+03 0.  0.
         22    1    5    5    0    0 -0.23315748592E+03  0.80310600614E+02  0.42444268907E+02  0.25022734018E+03  0.00000000000E+00 0. -1.
         22    1    5    5    0    0  0.26188665101E+03  0.14967749161E+02 -0.85609582803E+03  0.89538188403E+03  0.00000000000E+00 0. -1.
          5    1    4    4  502    0  0.19814744669E+02 -0.14128423774E+02 -0.24793184887E+03  0.24916767076E+03  0.47000000000E+01 0. -1.
         -5    1    4    4    0  502 -0.48543909764E+02 -0.81149926001E+02 -0.12707198517E+03  0.15846514153E+03  0.47000000000E+01 0. -1.
<mgrwt>
<rscale>  0 0.99982958E+03</rscale>
<asrwt>0</asrwt>
<pdfrwt beam="1">  1        2 0.21091518E+00 0.99982958E+03</pdfrwt>
<pdfrwt beam="2">  1       -2 0.28045127E-01 0.99982958E+03</pdfrwt>
<totfact> 0.20957509E+02</totfact>
</mgrwt>
</event>
<event>
 9    1  0.4296086E-036  0.9995205E+03  0.7818608E-02  0.8681495E-01
          1   -1    0    0  501    0  0.00000000000E+00  0.00000000000E+00  0.15538284320E+04  0.15538284320E+04  0.00000000000E+00 0. -1.
         -1   -1    0    0    0  501 -0.00000000000E+00 -0.00000000000E+00 -0.16073865478E+03  0.16073865478E+03  0.00000000000E+00 0. -1.
         36    2    1    2    0    0 -0.14210854715E-13  0.00000000000E+00  0.13930897772E+04  0.17145670868E+04  0.99952046887E+03 0.  0.
         25    2    3    3    0    0 -0.70977992027E+02  0.45577792328E+02  0.69929796128E+02  0.16628430038E+03  0.12508030086E+03 0.  0.
         35    2    3    3    0    0  0.70977992027E+02 -0.45577792328E+02  0.13231599811E+04  0.15482827864E+04  0.79956990976E+03 0.  0.
         22    1    5    5    0    0  0.30158372282E+03  0.21938732135E+03  0.34151425976E+03  0.50568322916E+03  0.00000000000E+00 0.  1.
         22    1    5    5    0    0 -0.23060573079E+03 -0.26496511368E+03  0.98164572135E+03  0.10425995573E+04  0.00000000000E+00 0.  1.
          5    1    4    4  502    0 -0.77053844799E+02  0.77460626136E+02  0.27695203267E+02  0.11281204671E+03  0.47000000000E+01 0. -1.
         -5    1    4    4    0  502  0.60758527715E+01 -0.31882833808E+02  0.42234592861E+02  0.53472253671E+02  0.47000000000E+01 0. -1.
<mgrwt>
<rscale>  0 0.99952047E+03</rscale>
<asrwt>0</asrwt>
<pdfrwt beam="1">  1        1 0.23905052E+00 0.99952047E+03</pdfrwt>
<pdfrwt beam="2">  1       -1 0.24729025E-01 0.99952047E+03</pdfrwt>
<totfact> 0.92168137E+01</totfact>
</mgrwt>
</event>
<event>
 9    1  0.4296086E-036  0.1000026E+04  0.7818608E-02  0.8681013E-01
         -1   -1    0    0    0  501 -0.00000000000E+00  0.00000000000E+00  0.73056914951E+03  0.73056914951E+03  0.00000000000E+00 0.  1.
          1   -1    0    0  501    0  0.00000000000E+00 -0.00000000000E+00 -0.34221653610E+03  0.34221653610E+03  0.00000000000E+00 0.  1.
         36    2    1    2    0    0 -0.14210854715E-13  0.00000000000E+00  0.38835261341E+03  0.10727856856E+04  0.10000256871E+04 0.  0.
         25    2    3    3    0    0  0.11993222625E+03 -0.71175309795E+02  0.58551597768E+02  0.19628565210E+03  0.12510037570E+03 0.  0.
         35    2    3    3    0    0 -0.11993222625E+03  0.71175309795E+02  0.32980101564E+03  0.87650003352E+03  0.80002120923E+03 0.  0.
         22    1    5    5    0    0 -0.18048641914E+03  0.17254610066E+03  0.56257005557E+03  0.61549376258E+03  0.00000000000E+00 0. -1.
         22    1    5    5    0    0  0.60554192887E+02 -0.10137079087E+03 -0.23276903993E+03  0.26100627094E+03  0.00000000000E+00 0. -1.
          5    1    4    4  502    0  0.62475653629E+02 -0.41729542193E+02  0.95615807876E+02  0.12169237734E+03  0.47000000000E+01 0.  1.
         -5    1    4    4    0  502  0.57456572624E+02 -0.29445767602E+02 -0.37064210108E+02  0.74593274752E+02  0.47000000000E+01 0.  1.
<mgrwt>
<rscale>  0 0.10000257E+04</rscale>
<asrwt>0</asrwt>
<pdfrwt beam="1">  1        1 0.52648698E-01 0.10000257E+04</pdfrwt>
<pdfrwt beam="2">  1       -1 0.11239525E+00 0.10000257E+04</pdfrwt>
<totfact> 0.64350957E+01</totfact>
</mgrwt>
</event>
<event>
 9    1  0.4296086E-036  0.1000426E+04  0.7818608E-02  0.8680632E-01
         -1   -1    0    0    0  501 -0.00000000000E+00  0.00000000000E+00  0.19576501044E+03  0.19576501044E+03  0.00000000000E+00 0. -1.
          1   -1    0    0  501    0  0.00000000000E+00 -0.00000000000E+00 -0.12781306297E+04  0.12781306297E+04  0.00000000000E+00 0. -1.
         36    2    1    2    0    0  0.14210854715E-13  0.00000000000E+00 -0.10823656192E+04  0.14738956401E+04  0.10004264212E+04 0.  0.
         25    2    3    3    0    0 -0.24658147881E+02 -0.61350901391E+02 -0.38581845443E+03  0.41142147082E+03  0.12664829063E+03 0.  0.
         35    2    3    3    0    0  0.24658147881E+02  0.61350901391E+02 -0.69654716481E+03  0.10624741693E+04  0.79956328721E+03 0.  0.
         22    1    5    5    0    0  0.37119198087E+03  0.20252642438E+03 -0.30865482669E+03  0.52351527320E+03  0.00000000000E+00 0.  1.
         22    1    5    5    0    0 -0.34653383299E+03 -0.14117552299E+03 -0.38789233812E+03  0.53895889609E+03  0.00000000000E+00 0.  1.
          5    1    4    4  502    0 -0.60267799503E+02 -0.81386598283E+02 -0.26082322062E+03  0.27983357278E+03  0.47000000000E+01 0. -1.
         -5    1    4    4    0  502  0.35609651622E+02  0.20035696892E+02 -0.12499523380E+03  0.13158789805E+03  0.47000000000E+01 0. -1.
<mgrwt>
<rscale>  0 0.10004264E+04</rscale>
<asrwt>0</asrwt>
<pdfrwt beam="1">  1        1 0.19663549E+00 0.10004264E+04</pdfrwt>
<pdfrwt beam="2">  1       -1 0.30117693E-01 0.10004264E+04</pdfrwt>
<totfact> 0.10418203E+02</totfact>
</mgrwt>
</event>
<event>
 9    1  0.4296086E-036  0.1000144E+04  0.7818608E-02  0.8680901E-01
         -2   -1    0    0    0  501 -0.00000000000E+00  0.00000000000E+00  0.19597926700E+03  0.19597926700E+03  0.00000000000E+00 0. -1.
          2   -1    0    0  501    0  0.00000000000E+00 -0.00000000000E+00 -0.12760113524E+04  0.12760113524E+04  0.00000000000E+00 0. -1.
         36    2    1    2    0    0  0.14210854715E-13  0.00000000000E+00 -0.10800320854E+04  0.14719906194E+04  0.10001435288E+04 0.  0.
         25    2    3    3    0    0  0.16200641165E+02  0.10725912440E+03 -0.75472239551E+02  0.18386496940E+03  0.12784086784E+03 0.  0.
         35    2    3    3    0    0 -0.16200641165E+02 -0.10725912440E+03 -0.10045598459E+04  0.12881256500E+04  0.79897448379E+03 0.  0.
         22    1    5    5    0    0 -0.23494913945E+03 -0.30984100361E+03 -0.88544799010E+03  0.96706808903E+03  0.00000000000E+00 0.  1.
         22    1    5    5    0    0  0.21874849828E+03  0.20258187921E+03 -0.11911185579E+03  0.32105756100E+03  0.00000000000E+00 0.  1.
          5    1    4    4  502    0  0.39073845212E+02  0.60057006619E+02  0.20257542289E+02  0.74606081812E+02  0.47000000000E+01 0. -1.
         -5    1    4    4    0  502 -0.22873204046E+02  0.47202117783E+02 -0.95729781840E+02  0.10925888759E+03  0.47000000000E+01 0. -1.
<mgrwt>
<rscale>  0 0.10001435E+04</rscale>
<asrwt>0</asrwt>
<pdfrwt beam="1">  1        2 0.19630943E+00 0.10001435E+04</pdfrwt>
<pdfrwt beam="2">  1       -2 0.30150657E-01 0.10001435E+04</pdfrwt>
<totfact> 0.20852346E+02</totfact>
</mgrwt>
</event>
<event>
 9    1  0.4296086E-036  0.1000361E+04  0.7818608E-02  0.8680694E-01
          2   -1    0    0  501    0  0.00000000000E+00  0.00000000000E+00  0.42966757058E+04  0.42966757058E+04  0.00000000000E+00 0. -1.
         -2   -1    0    0    0  501 -0.00000000000E+00 -0.00000000000E+00 -0.58226532199E+02  0.58226532199E+02  0.00000000000E+00 0. -1.
         36    2    1    2    0    0  0.00000000000E+00  0.14210854715E-13  0.42384491736E+04  0.43549022380E+04  0.10003609875E+04 0.  0.
         25    2    3    3    0    0 -0.11150210938E+03  0.69384962743E+02  0.99116776664E+03  0.10079411432E+04  0.12761196310E+03 0.  0.
         35    2    3    3    0    0  0.11150210938E+03 -0.69384962743E+02  0.32472814070E+04  0.33469610948E+04  0.80004064928E+03 0.  0.
         22    1    5    5    0    0  0.35703831203E+03 -0.26450805178E+03  0.24545426204E+04  0.24944378808E+04  0.00000000000E+00 0.  1.
         22    1    5    5    0    0 -0.24553620265E+03  0.19512308903E+03  0.79273878658E+03  0.85252321401E+03  0.00000000000E+00 0.  1.
          5    1    4    4  502    0 -0.81559545023E+02  0.10136364441E+03  0.85412717675E+03  0.86399182395E+03  0.47000000000E+01 0. -1.
         -5    1    4    4    0  502 -0.29942564357E+02 -0.31978681668E+02  0.13704058990E+03  0.14394931928E+03  0.47000000000E+01 0. -1.
<mgrwt>
<rscale>  0 0.10003610E+04</rscale>
<asrwt>0</asrwt>
<pdfrwt beam="1">  1        2 0.66102679E+00 0.10003610E+04</pdfrwt>
<pdfrwt beam="2">  1       -2 0.89579314E-02 0.10003610E+04</pdfrwt>
<totfact> 0.14537947E+01</totfact>
</mgrwt>
</event>
<event>
 9    1  0.4296086E-036  0.9959647E+03  0.7818608E-02  0.8684890E-01
         -1   -1    0    0    0  501 -0.00000000000E+00  0.00000000000E+00  0.23264643770E+03  0.23264643770E+03  0.00000000000E+00 0.  1.
          1   -1    0    0  501    0  0.00000000000E+00 -0.00000000000E+00 -0.10659368142E+04  0.10659368142E+04  0.00000000000E+00 0.  1.
         36    2    1    2    0    0  0.00000000000E+00  0.00000000000E+00 -0.83329037654E+03  0.12985832519E+04  0.99596466333E+03 0.  0.
         25    2    3    3    0    0  0.83530487353E+02  0.10530654070E+03 -0.16008773864E+03  0.24418511267E+03  0.12621994833E+03 0.  0.
         35    2    3    3    0    0 -0.83530487353E+02 -0.10530654070E+03 -0.67320263790E+03  0.10543981393E+04  0.80030421379E+03 0.  0.
         22    1    5    5    0    0  0.95901764867E+02  0.32824348476E+03 -0.26892515861E+03  0.43504215282E+03  0.00000000000E+00 0.  1.
         22    1    5    5    0    0 -0.17943225222E+03 -0.43355002546E+03 -0.40427747928E+03  0.61935598646E+03  0.00000000000E+00 0.  1.
          5    1    4    4  502    0  0.85372703752E+02  0.13162883746E+03 -0.12925152340E+03  0.20332903310E+03  0.47000000000E+01 0. -1.
         -5    1    4    4    0  502 -0.18422163989E+01 -0.26322296764E+02 -0.30836215239E+02  0.40856079578E+02  0.47000000000E+01 0. -1.
<mgrwt>
<rscale>  0 0.99596466E+03</rscale>
<asrwt>0</asrwt>
<pdfrwt beam="1">  1        1 0.16399028E+00 0.99596466E+03</pdfrwt>
<pdfrwt beam="2">  1       -1 0.35791760E-01 0.99596466E+03</pdfrwt>
<totfact> 0.11168813E+02</totfact>
</mgrwt>
</event>
<event>
 9    1  0.4296086E-036  0.1000068E+04  0.7818608E-02  0.8680973E-01
          2   -1    0    0  501    0  0.00000000000E+00  0.00000000000E+00  0.65684895746E+03  0.65684895746E+03  0.00000000000E+00 0.  1.
         -2   -1    0    0    0  501 -0.00000000000E+00 -0.00000000000E+00 -0.38065653831E+03  0.38065653831E+03  0.00000000000E+00 0.  1.
         36    2    1    2    0    0  0.00000000000E+00 -0.28421709430E-13  0.27619241915E+03  0.10375054958E+04  0.10000676984E+04 0.  0.
         25    2    3    3    0    0 -0.46473846892E+02  0.64224515541E+02 -0.68322593705E+02  0.16261896069E+03  0.12446823982E+03 0.  0.
         35    2    3    3    0    0  0.46473846892E+02 -0.64224515541E+02  0.34451501286E+03  0.87488653507E+03  0.80028198051E+03 0.  0.
         22    1    5    5    0    0 -0.11660407794E+03  0.34243827397E+03  0.20100381213E+03  0.41383935888E+03  0.00000000000E+00 0.  1.
         22    1    5    5    0    0  0.16307792484E+03 -0.40666278951E+03  0.14351120073E+03  0.46104717619E+03  0.00000000000E+00 0.  1.
          5    1    4    4  502    0 -0.85506528524E+01  0.97704566421E+01  0.36187525406E+02  0.38732447408E+02  0.47000000000E+01 0.  1.
         -5    1    4    4    0  502 -0.37923194040E+02  0.54454058899E+02 -0.10451011911E+03  0.12388651328E+03  0.47000000000E+01 0.  1.
<mgrwt>
<rscale>  0 0.10000677E+04</rscale>
<asrwt>0</asrwt>
<pdfrwt beam="1">  1        2 0.10105369E+00 0.10000677E+04</pdfrwt>
<pdfrwt beam="2">  1       -2 0.58562545E-01 0.10000677E+04</pdfrwt>
<totfact> 0.14638642E+02</totfact>
</mgrwt>
</event>
<event>
 9    1  0.4296086E-036  0.9994837E+03  0.7818608E-02  0.8681530E-01
         -1   -1    0    0    0  501 -0.00000000000E+00  0.00000000000E+00  0.38118963193E+03  0.38118963193E+03  0.00000000000E+00 0.  1.
          1   -1    0    0  501    0  0.00000000000E+00 -0.00000000000E+00 -0.65516456860E+03  0.65516456860E+03  0.00000000000E+00 0.  1.
         36    2    1    2    0    0 -0.28421709430E-13  0.14210854715E-13 -0.27397493667E+03  0.10363542005E+04  0.99948374826E+03 0.  0.
         25    2    3    3    0    0 -0.84517297750E+02  0.57540790552E+02 -0.14961226959E+03  0.22005728758E+03  0.12484895839E+03 0.  0.
         35    2    3    3    0    0  0.84517297750E+02 -0.57540790552E+02 -0.12436266708E+03  0.81629691295E+03  0.80026274494E+03 0.  0.
         22    1    5    5    0    0  0.28033149633E+03  0.10219357294E+03  0.23302792393E+03  0.37859118785E+03  0.00000000000E+00 0.  1.
         22    1    5    5    0    0 -0.19581419858E+03 -0.15973436349E+03 -0.35739059101E+03  0.43770572510E+03  0.00000000000E+00 0.  1.
          5    1    4    4  502    0  0.24331590193E+02  0.45388209965E+02 -0.50095585055E+02  0.71998427255E+02  0.47000000000E+01 0.  1.
         -5    1    4    4    0  502 -0.10884888794E+03  0.12152580587E+02 -0.99516684534E+02  0.14805886033E+03  0.47000000000E+01 0.  1.
<mgrwt>
<rscale>  0 0.99948375E+03</rscale>
<asrwt>0</asrwt>
<pdfrwt beam="1">  1        1 0.10079455E+00 0.99948375E+03</pdfrwt>
<pdfrwt beam="2">  1       -1 0.58644559E-01 0.99948375E+03</pdfrwt>
<totfact> 0.10250680E+02</totfact>
</mgrwt>
</event>
<event>
 9    1  0.4296086E-036  0.1003309E+04  0.7818608E-02  0.8677893E-01
         -1   -1    0    0    0  501 -0.00000000000E+00  0.00000000000E+00  0.14298546034E+04  0.14298546034E+04  0.00000000000E+00 0. -1.
          1   -1    0    0  501    0  0.00000000000E+00 -0.00000000000E+00 -0.17600214062E+03  0.17600214062E+03  0.00000000000E+00 0. -1.
         36    2    1    2    0    0  0.14210854715E-13 -0.28421709430E-13  0.12538524628E+04  0.16058567440E+04  0.10033094657E+04 0.  0.
         25    2    3    3    0    0  0.56567810606E+02  0.12078949872E+03  0.32408117365E+03  0.37198152325E+03  0.12470615997E+03 0.  0.
         35    2    3    3    0    0 -0.56567810606E+02 -0.12078949872E+03  0.92977128913E+03  0.12338752208E+04  0.80011461062E+03 0.  0.
         22    1    5    5    0    0  0.29660831642E+02  0.23115353696E+02 -0.14310435830E+03  0.14796263675E+03  0.00000000000E+00 0.  1.
         22    1    5    5    0    0 -0.86228642247E+02 -0.14390485242E+03  0.10728756474E+04  0.10859125840E+04  0.00000000000E+00 0.  1.
          5    1    4    4  502    0  0.75244300280E+02  0.13238830378E+03  0.31010993067E+03  0.34551212251E+03  0.47000000000E+01 0. -1.
         -5    1    4    4    0  502 -0.18676489674E+02 -0.11598805061E+02  0.13971242977E+02  0.26469400743E+02  0.47000000000E+01 0. -1.
<mgrwt>
<rscale>  0 0.10033095E+04</rscale>
<asrwt>0</asrwt>
<pdfrwt beam="1">  1        1 0.27077253E-01 0.10033095E+04</pdfrwt>
<pdfrwt beam="2">  1       -1 0.21997762E+00 0.10033095E+04</pdfrwt>
<totfact> 0.18425272E+01</totfact>
</mgrwt>
</event>
<event>
 9    1  0.4296086E-036  0.9999005E+03  0.7818608E-02  0.8681133E-01
          1   -1    0    0  501    0  0.00000000000E+00  0.00000000000E+00  0.68657673093E+03  0.68657673093E+03  0.00000000000E+00 0.  1.
         -1   -1    0    0    0  501 -0.00000000000E+00 -0.00000000000E+00 -0.36405292244E+03  0.36405292244E+03  0.00000000000E+00 0.  1.
         36    2    1    2    0    0  0.00000000000E+00  0.28421709430E-13  0.32252380848E+03  0.10506296534E+04  0.99990052580E+03 0.  0.
         25    2    3    3    0    0  0.49672993058E+02 -0.13071066882E+03  0.67830699311E+02  0.19927922654E+03  0.12473380126E+03 0.  0.
         35    2    3    3    0    0 -0.49672993058E+02  0.13071066882E+03  0.25469310917E+03  0.85135042683E+03  0.80023514308E+03 0.  0.
         22    1    5    5    0    0 -0.35940639205E+03  0.18412370275E+03 -0.58030084916E+02  0.40797301788E+03  0.00000000000E+00 0.  1.
         22    1    5    5    0    0  0.30973339900E+03 -0.53413033931E+02  0.31272319409E+03  0.44337740895E+03  0.00000000000E+00 0.  1.
          5    1    4    4  502    0  0.78566164693E+02 -0.13198149404E+03  0.71972152810E+02  0.16968747091E+03  0.47000000000E+01 0.  1.
         -5    1    4    4    0  502 -0.28893171635E+02  0.12708252226E+01 -0.41414534992E+01  0.29591755625E+02  0.47000000000E+01 0.  1.
<mgrwt>
<rscale>  0 0.99990053E+03</rscale>
<asrwt>0</asrwt>
<pdfrwt beam="1">  1        1 0.10562719E+00 0.99990053E+03</pdfrwt>
<pdfrwt beam="2">  1       -1 0.56008142E-01 0.99990053E+03</pdfrwt>
<totfact> 0.10421970E+02</totfact>
</mgrwt>
</event>
<event>
 9    1  0.4296086E-036  0.1000461E+04  0.7818608E-02  0.8680599E-01
         -3   -1    0    0    0  501 -0.00000000000E+00  0.00000000000E+00  0.16259253160E+03  0.16259253160E+03  0.00000000000E+00 0.  1.
          3   -1    0    0  501    0  0.00000000000E+00 -0.00000000000E+00 -0.15390045563E+04  0.15390045563E+04  0.00000000000E+00 0.  1.
         36    2    1    2    0    0 -0.42632564146E-13 -0.14210854715E-13 -0.13764120247E+04  0.17015970879E+04  0.10004611876E+04 0.  0.
         25    2    3    3    0    0  0.10322661238E+03  0.82297943311E+02 -0.17203246723E+03  0.25019250612E+03  0.12478956431E+03 0.  0.
         35    2    3    3    0    0 -0.10322661238E+03 -0.82297943311E+02 -0.12043795575E+04  0.14514045818E+04  0.79913481754E+03 0.  0.
         22    1    5    5    0    0 -0.28266724452E+03  0.19783484992E+03 -0.21247358200E+03  0.40519676950E+03  0.00000000000E+00 0.  1.
         22    1    5    5    0    0  0.17944063214E+03 -0.28013279323E+03 -0.99190597552E+03  0.10462078123E+04  0.00000000000E+00 0.  1.
          5    1    4    4  502    0  0.63091097254E+02  0.99072655208E+02 -0.64462535474E+02  0.13406485760E+03  0.47000000000E+01 0. -1.
         -5    1    4    4    0  502  0.40135515124E+02 -0.16774711897E+02 -0.10756993176E+03  0.11612764852E+03  0.47000000000E+01 0. -1.
<mgrwt>
<rscale>  0 0.10004612E+04</rscale>
<asrwt>0</asrwt>
<pdfrwt beam="1">  1        3 0.23676992E+00 0.10004612E+04</pdfrwt>
<pdfrwt beam="2">  1       -3 0.25014237E-01 0.10004612E+04</pdfrwt>
<totfact> 0.53241086E+00</totfact>
</mgrwt>
</event>
<event>
 9    1  0.4296086E-036  0.9940992E+03  0.7818608E-02  0.8686678E-01
          1   -1    0    0  501    0  0.00000000000E+00  0.00000000000E+00  0.14918555107E+03  0.14918555107E+03  0.00000000000E+00 0. -1.
         -1   -1    0    0    0  501 -0.00000000000E+00 -0.00000000000E+00 -0.16560472375E+04  0.16560472375E+04  0.00000000000E+00 0. -1.
         36    2    1    2    0    0  0.00000000000E+00  0.00000000000E+00 -0.15068616865E+04  0.18052327886E+04  0.99409922991E+03 0.  0.
         25    2    3    3    0    0  0.41241648786E+02 -0.91641397139E+02 -0.42447909835E+03  0.45383188387E+03  0.12522721199E+03 0.  0.
         35    2    3    3    0    0 -0.41241648786E+02  0.91641397139E+02 -0.10823825881E+04  0.13514009047E+04  0.80289060212E+03 0.  0.
         22    1    5    5    0    0 -0.78044114155E+02  0.41909163863E+03 -0.84120859769E+03  0.94305916577E+03  0.00000000000E+00 0.  1.
         22    1    5    5    0    0  0.36802465369E+02 -0.32745024149E+03 -0.24117399041E+03  0.40834173894E+03  0.00000000000E+00 0.  1.
          5    1    4    4  502    0  0.53424736447E+02 -0.11584021037E+03 -0.29449632971E+03  0.32097248327E+03  0.47000000000E+01 0.  1.
         -5    1    4    4    0  502 -0.12183087661E+02  0.24198813229E+02 -0.12998276864E+03  0.13285940061E+03  0.47000000000E+01 0.  1.
<mgrwt>
<rscale>  0 0.99409923E+03</rscale>
<asrwt>0</asrwt>
<pdfrwt beam="1">  1        1 0.22951623E-01 0.99409923E+03</pdfrwt>
<pdfrwt beam="2">  1       -1 0.25477650E+00 0.99409923E+03</pdfrwt>
<totfact> 0.11053673E+01</totfact>
</mgrwt>
</event>
<event>
 9    1  0.4296086E-036  0.1001205E+04  0.7818608E-02  0.8679892E-01
         -2   -1    0    0    0  501 -0.00000000000E+00  0.00000000000E+00  0.32946845740E+03  0.32946845740E+03  0.00000000000E+00 0. -1.
          2   -1    0    0  501    0  0.00000000000E+00 -0.00000000000E+00 -0.76062735864E+03  0.76062735864E+03  0.00000000000E+00 0. -1.
         36    2    1    2    0    0  0.00000000000E+00 -0.71054273576E-14 -0.43115890125E+03  0.10900958160E+04  0.10012047193E+04 0.  0.
         25    2    3    3    0    0  0.12039173507E+03  0.48780694736E+02 -0.13958346033E+03  0.22791528055E+03  0.12485233942E+03 0.  0.
         35    2    3    3    0    0 -0.12039173507E+03 -0.48780694736E+02 -0.29157544092E+03  0.86218053549E+03  0.80091529638E+03 0.  0.
         22    1    5    5    0    0 -0.37792271595E+03  0.20279877833E+03 -0.25819288945E+03  0.50061611229E+03  0.00000000000E+00 0.  1.
         22    1    5    5    0    0  0.25753098088E+03 -0.25157947306E+03 -0.33382551469E+02  0.36156442320E+03  0.00000000000E+00 0.  1.
          5    1    4    4  502    0  0.27821386067E+02  0.73027929763E+01 -0.12127888727E+03  0.12473178747E+03  0.47000000000E+01 0.  1.
         -5    1    4    4    0  502  0.92570349004E+02  0.41477901760E+02 -0.18304573056E+02  0.10318349308E+03  0.47000000000E+01 0.  1.
<mgrwt>
<rscale>  0 0.10012047E+04</rscale>
<asrwt>0</asrwt>
<pdfrwt beam="1">  1        2 0.11701959E+00 0.10012047E+04</pdfrwt>
<pdfrwt beam="2">  1       -2 0.50687456E-01 0.10012047E+04</pdfrwt>
<totfact> 0.16401207E+02</totfact>
</mgrwt>
</event>
<event>
 9    1  0.4296086E-036  0.1000088E+04  0.7818608E-02  0.8680954E-01
          2   -1    0    0  501    0  0.00000000000E+00  0.00000000000E+00  0.56275706692E+03  0.56275706692E+03  0.00000000000E+00 0.  1.
         -2   -1    0    0    0  501 -0.00000000000E+00 -0.00000000000E+00 -0.44431955887E+03  0.44431955887E+03  0.00000000000E+00 0.  1.
         36    2    1    2    0    0  0.28421709430E-13  0.14210854715E-13  0.11843750804E+03  0.10070766258E+04  0.10000879396E+04 0.  0.
         25    2    3    3    0    0 -0.13527841289E+03  0.16226015948E+02  0.65354716883E+02  0.19545183955E+03  0.12396229255E+03 0.  0.
         35    2    3    3    0    0  0.13527841289E+03 -0.16226015948E+02  0.53082791160E+02  0.81162478624E+03  0.79834421043E+03 0.  0.
         22    1    5    5    0    0  0.30944039539E+03  0.20856418207E+03 -0.20659160042E+03  0.42653542140E+03  0.00000000000E+00 0.  1.
         22    1    5    5    0    0 -0.17416198250E+03 -0.22479019802E+03  0.25967439158E+03  0.38508936484E+03  0.00000000000E+00 0.  1.
          5    1    4    4  502    0 -0.86875450440E+02 -0.51070788995E+02  0.41278754675E+02  0.10900272916E+03  0.47000000000E+01 0. -1.
         -5    1    4    4    0  502 -0.48402962452E+02  0.67296804943E+02  0.24075962209E+02  0.86449110383E+02  0.47000000000E+01 0. -1.
<mgrwt>
<rscale>  0 0.10000879E+04</rscale>
<asrwt>0</asrwt>
<pdfrwt beam="1">  1        2 0.86578010E-01 0.10000879E+04</pdfrwt>
<pdfrwt beam="2">  1       -2 0.68356855E-01 0.10000879E+04</pdfrwt>
<totfact> 0.12687007E+02</totfact>
</mgrwt>
</event>
<event>
 9    1  0.4296086E-036  0.9996753E+03  0.7818608E-02  0.8681347E-01
          2   -1    0    0  501    0  0.00000000000E+00  0.00000000000E+00  0.10025124876E+04  0.10025124876E+04  0.00000000000E+00 0.  1.
         -2   -1    0    0    0  501 -0.00000000000E+00 -0.00000000000E+00 -0.24921151777E+03  0.24921151777E+03  0.00000000000E+00 0.  1.
         36    2    1    2    0    0  0.28421709430E-13  0.28421709430E-13  0.75330096983E+03  0.12517240054E+04  0.99967526451E+03 0.  0.
         25    2    3    3    0    0  0.30451923912E+02 -0.13618456348E+03  0.14724041934E+03  0.23841646852E+03  0.12525620294E+03 0.  0.
         35    2    3    3    0    0 -0.30451923912E+02  0.13618456348E+03  0.60606055049E+03  0.10133075368E+04  0.80000576146E+03 0.  0.
         22    1    5    5    0    0 -0.29498181592E+03  0.33961568078E+03  0.47661522576E+03  0.65537405791E+03  0.00000000000E+00 0.  1.
         22    1    5    5    0    0  0.26452989200E+03 -0.20343111730E+03  0.12944532473E+03  0.35793347894E+03  0.00000000000E+00 0.  1.
          5    1    4    4  502    0 -0.36742084407E+02 -0.77990615460E+02  0.30409961159E+02  0.91538913060E+02  0.47000000000E+01 0.  1.
         -5    1    4    4    0  502  0.67194008319E+02 -0.58193948023E+02  0.11683045818E+03  0.14687755546E+03  0.47000000000E+01 0.  1.
<mgrwt>
<rscale>  0 0.99967526E+03</rscale>
<asrwt>0</asrwt>
<pdfrwt beam="1">  1        2 0.15423269E+00 0.99967526E+03</pdfrwt>
<pdfrwt beam="2">  1       -2 0.38340234E-01 0.99967526E+03</pdfrwt>
<totfact> 0.19485639E+02</totfact>
</mgrwt>
</event>
<event>
 9    1  0.4296086E-036  0.9995232E+03  0.7818608E-02  0.8681492E-01
         -1   -1    0    0    0  501 -0.00000000000E+00  0.00000000000E+00  0.35614371071E+03  0.35614371071E+03  0.00000000000E+00 0. -1.
          1   -1    0    0  501    0  0.00000000000E+00 -0.00000000000E+00 -0.70129455635E+03  0.70129455635E+03  0.00000000000E+00 0. -1.
         36    2    1    2    0    0  0.35527136788E-14  0.00000000000E+00 -0.34515084563E+03  0.10574382671E+04  0.99952317752E+03 0.  0.
         25    2    3    3    0    0  0.18792415051E+02 -0.11313641005E+03 -0.15095034514E+03  0.22696597819E+03  0.12479802249E+03 0.  0.
         35    2    3    3    0    0 -0.18792415051E+02  0.11313641005E+03 -0.19420050049E+03  0.83047228887E+03  0.79926052451E+03 0.  0.
         22    1    5    5    0    0  0.11417902032E+03  0.19425470632E+03  0.26366958723E+03  0.34683337619E+03  0.00000000000E+00 0. -1.
         22    1    5    5    0    0 -0.13297143537E+03 -0.81118296278E+02 -0.45787008773E+03  0.48363891267E+03  0.00000000000E+00 0. -1.
          5    1    4    4  502    0  0.31187565302E+02 -0.13595617651E+03 -0.14198392258E+03  0.19909362227E+03  0.47000000000E+01 0. -1.
         -5    1    4    4    0  502 -0.12395150251E+02  0.22819766458E+02 -0.89664225617E+01  0.27872355920E+02  0.47000000000E+01 0. -1.
<mgrwt>
<rscale>  0 0.99952318E+03</rscale>
<asrwt>0</asrwt>
<pdfrwt beam="1">  1        1 0.10789147E+00 0.99952318E+03</pdfrwt>
<pdfrwt beam="2">  1       -1 0.54791341E-01 0.99952318E+03</pdfrwt>
<totfact> 0.10516261E+02</totfact>
</mgrwt>
</event>
<event>
 9    1  0.4296086E-036  0.1000228E+04  0.7818608E-02  0.8680821E-01
          2   -1    0    0  501    0  0.00000000000E+00  0.00000000000E+00  0.12440054715E+04  0.12440054715E+04  0.00000000000E+00 0. -1.
         -2   -1    0    0    0  501 -0.00000000000E+00 -0.00000000000E+00 -0.20105522744E+03  0.20105522744E+03  0.00000000000E+00 0. -1.
         36    2    1    2    0    0  0.00000000000E+00  0.14210854715E-13  0.10429502441E+04  0.14450606989E+04  0.10002275801E+04 0.  0.
         25    2    3    3    0    0 -0.82548208586E+02 -0.38212996340E+02  0.35130241636E+03  0.38379946034E+03  0.12495678528E+03 0.  0.
         35    2    3    3    0    0  0.82548208586E+02  0.38212996340E+02  0.69164782770E+03  0.10612612386E+04  0.79976512750E+03 0.  0.
         22    1    5    5    0    0 -0.25331829767E+03  0.28957207241E+03  0.35262273617E+03  0.52188594455E+03  0.00000000000E+00 0.  1.
         22    1    5    5    0    0  0.33586650625E+03 -0.25135907607E+03  0.33902509153E+03  0.53937529405E+03  0.00000000000E+00 0.  1.
          5    1    4    4  502    0 -0.96455328230E+02 -0.59855584602E+02  0.33308297837E+03  0.35192709733E+03  0.47000000000E+01 0.  1.
         -5    1    4    4    0  502  0.13907119644E+02  0.21642588262E+02  0.18219437991E+02  0.31872363015E+02  0.47000000000E+01 0.  1.
<mgrwt>
<rscale>  0 0.10002276E+04</rscale>
<asrwt>0</asrwt>
<pdfrwt beam="1">  1        2 0.19138545E+00 0.10002276E+04</pdfrwt>
<pdfrwt beam="2">  1       -2 0.30931574E-01 0.10002276E+04</pdfrwt>
<totfact> 0.20775176E+02</totfact>
</mgrwt>
</event>
<event>
 9    1  0.4296086E-036  0.1000047E+04  0.7818608E-02  0.8680994E-01
         -2   -1    0    0    0  501 -0.00000000000E+00  0.00000000000E+00  0.20895834412E+04  0.20895834412E+04  0.00000000000E+00 0. -1.
          2   -1    0    0  501    0  0.00000000000E+00 -0.00000000000E+00 -0.11965220504E+03  0.11965220504E+03  0.00000000000E+00 0. -1.
         36    2    1    2    0    0  0.21316282073E-13  0.00000000000E+00  0.19699312362E+04  0.22092356463E+04  0.10000465316E+04 0.  0.
         25    2    3    3    0    0  0.27424052451E+02 -0.10296787903E+03  0.56229103793E+03  0.58571387509E+03  0.12463975841E+03 0.  0.
         35    2    3    3    0    0 -0.27424052451E+02  0.10296787903E+03  0.14076401983E+04  0.16235217712E+04  0.80188375152E+03 0.  0.
         22    1    5    5    0    0 -0.36173280871E+03 -0.14800690372E+03  0.67030411082E+03  0.77592800531E+03  0.00000000000E+00 0. -1.
         22    1    5    5    0    0  0.33430875625E+03  0.25097478275E+03  0.73733608745E+03  0.84759376587E+03  0.00000000000E+00 0. -1.
          5    1    4    4  502    0 -0.25600232069E+02 -0.84662003987E+02  0.19550059749E+03  0.21462898318E+03  0.47000000000E+01 0. -1.
         -5    1    4    4    0  502  0.53024284520E+02 -0.18305875039E+02  0.36679044043E+03  0.37108489191E+03  0.47000000000E+01 0. -1.
<mgrwt>
<rscale>  0 0.10000465E+04</rscale>
<asrwt>0</asrwt>
<pdfrwt beam="1">  1        2 0.18408033E-01 0.10000465E+04</pdfrwt>
<pdfrwt beam="2">  1       -2 0.32147435E+00 0.10000465E+04</pdfrwt>
<totfact> 0.83641647E+00</totfact>
</mgrwt>
</event>
<event>
 9    1  0.4296086E-036  0.1001216E+04  0.7818608E-02  0.8679881E-01
         -1   -1    0    0    0  501 -0.00000000000E+00  0.00000000000E+00  0.60177743799E+03  0.60177743799E+03  0.00000000000E+00 0. -1.
          1   -1    0    0  501    0  0.00000000000E+00 -0.00000000000E+00 -0.41644710941E+03  0.41644710941E+03  0.00000000000E+00 0. -1.
         36    2    1    2    0    0  0.00000000000E+00  0.31974423109E-13  0.18533032858E+03  0.10182245474E+04  0.10012162095E+04 0.  0.
         25    2    3    3    0    0  0.88963699991E+02  0.12179921055E+02 -0.77119250367E+02  0.17113253803E+03  0.12359642552E+03 0.  0.
         35    2    3    3    0    0 -0.88963699991E+02 -0.12179921055E+02  0.26244957895E+03  0.84709200937E+03  0.80038878082E+03 0.  0.
         22    1    5    5    0    0  0.22641443646E+03 -0.27682314498E+03 -0.22635258523E+01  0.35763063932E+03  0.00000000000E+00 0.  1.
         22    1    5    5    0    0 -0.31537813645E+03  0.26464322392E+03  0.26471310480E+03  0.48946137005E+03  0.00000000000E+00 0.  1.
          5    1    4    4  502    0  0.72716019338E+02  0.17117389718E+02  0.15847749928E+02  0.76510559251E+02  0.47000000000E+01 0.  1.
         -5    1    4    4    0  502  0.16247680653E+02 -0.49374686630E+01 -0.92967000295E+02  0.94621978775E+02  0.47000000000E+01 0.  1.
<mgrwt>
<rscale>  0 0.10012162E+04</rscale>
<asrwt>0</asrwt>
<pdfrwt beam="1">  1        1 0.64068786E-01 0.10012162E+04</pdfrwt>
<pdfrwt beam="2">  1       -1 0.92581145E-01 0.10012162E+04</pdfrwt>
<totfact> 0.76889700E+01</totfact>
</mgrwt>
</event>
<event>
 9    1  0.4296086E-036  0.9988846E+03  0.7818608E-02  0.8682101E-01
         -2   -1    0    0    0  501 -0.00000000000E+00  0.00000000000E+00  0.18662733345E+03  0.18662733345E+03  0.00000000000E+00 0.  1.
          2   -1    0    0  501    0  0.00000000000E+00 -0.00000000000E+00 -0.13365812474E+04  0.13365812474E+04  0.00000000000E+00 0.  1.
         36    2    1    2    0    0  0.00000000000E+00  0.28421709430E-13 -0.11499539139E+04  0.15232085808E+04  0.99888456617E+03 0.  0.
         25    2    3    3    0    0  0.12722283207E+03  0.34322014799E+02 -0.14933345893E+03  0.23534387278E+03  0.12538981937E+03 0.  0.
         35    2    3    3    0    0 -0.12722283207E+03 -0.34322014799E+02 -0.10006204550E+04  0.12878647080E+04  0.79999410095E+03 0.  0.
         22    1    5    5    0    0 -0.29883272029E+02  0.14585311828E+03 -0.10633207955E+04  0.10736932785E+04  0.00000000000E+00 0.  1.
         22    1    5    5    0    0 -0.97339560043E+02 -0.18017513308E+03  0.62700340536E+02  0.21417142955E+03  0.00000000000E+00 0.  1.
          5    1    4    4  502    0  0.10596461607E+03  0.78068303756E+02 -0.95774373921E+02  0.16284342360E+03  0.47000000000E+01 0. -1.
         -5    1    4    4    0  502  0.21258216004E+02 -0.43746288956E+02 -0.53559085008E+02  0.72500449185E+02  0.47000000000E+01 0. -1.
<mgrwt>
<rscale>  0 0.99888457E+03</rscale>
<asrwt>0</asrwt>
<pdfrwt beam="1">  1        2 0.20562788E+00 0.99888457E+03</pdfrwt>
<pdfrwt beam="2">  1       -2 0.28711898E-01 0.99888457E+03</pdfrwt>
<totfact> 0.21020630E+02</totfact>
</mgrwt>
</event>
<event>
 9    1  0.4296086E-036  0.1000515E+04  0.7818608E-02  0.8680548E-01
          4   -1    0    0  501    0  0.00000000000E+00  0.00000000000E+00  0.52240018184E+03  0.52240018184E+03  0.00000000000E+00 0. -1.
         -4   -1    0    0    0  501 -0.00000000000E+00 -0.00000000000E+00 -0.47905316643E+03  0.47905316643E+03  0.00000000000E+00 0. -1.
         36    2    1    2    0    0 -0.14210854715E-13  0.28421709430E-13  0.43347015409E+02  0.10014533483E+04  0.10005147900E+04 0.  0.
         25    2    3    3    0    0  0.33076794562E+02 -0.13256230036E+03 -0.27913594121E+02  0.18744980957E+03  0.12526541644E+03 0.  0.
         35    2    3    3    0    0 -0.33076794562E+02  0.13256230036E+03  0.71260609530E+02  0.81400353871E+03  0.79928521114E+03 0.  0.
         22    1    5    5    0    0 -0.18732472624E+03  0.82170909594E+02 -0.32600980337E+03  0.38487011230E+03  0.00000000000E+00 0.  1.
         22    1    5    5    0    0  0.15424793168E+03  0.50391390768E+02  0.39727041290E+03  0.42913342641E+03  0.00000000000E+00 0.  1.
          5    1    4    4  502    0  0.20952924605E+02  0.19688225842E+02 -0.18169406754E+02  0.34334656370E+02  0.47000000000E+01 0. -1.
         -5    1    4    4    0  502  0.12123869957E+02 -0.15225052620E+03 -0.97441873672E+01  0.15311515320E+03  0.47000000000E+01 0. -1.
<mgrwt>
<rscale>  0 0.10005148E+04</rscale>
<asrwt>0</asrwt>
<pdfrwt beam="1">  1        4 0.80369259E-01 0.10005148E+04</pdfrwt>
<pdfrwt beam="2">  1       -4 0.73700487E-01 0.10005148E+04</pdfrwt>
<totfact> 0.52828994E+00</totfact>
</mgrwt>
</event>
<event>
 9    1  0.4296086E-036  0.1000381E+04  0.7818608E-02  0.8680676E-01
          1   -1    0    0  501    0  0.00000000000E+00  0.00000000000E+00  0.76419795944E+03  0.76419795944E+03  0.00000000000E+00 0.  1.
         -1   -1    0    0    0  501 -0.00000000000E+00 -0.00000000000E+00 -0.32738942414E+03  0.32738942414E+03  0.00000000000E+00 0.  1.
         36    2    1    2    0    0 -0.14210854715E-13  0.28421709430E-13  0.43680853531E+03  0.10915873836E+04  0.10003805873E+04 0.  0.
         25    2    3    3    0    0  0.49131445013E+02 -0.36484672477E+02  0.20456627066E+03  0.24772494380E+03  0.12559959583E+03 0.  0.
         35    2    3    3    0    0 -0.49131445013E+02  0.36484672477E+02  0.23224226465E+03  0.84386243978E+03  0.80896373069E+03 0.  0.
         22    1    5    5    0    0  0.31704256414E+03 -0.17924833405E+03  0.20512816613E+03  0.41799942258E+03  0.00000000000E+00 0.  1.
         22    1    5    5    0    0 -0.36617400915E+03  0.21573300653E+03  0.27114098520E+02  0.42586301721E+03  0.00000000000E+00 0.  1.
          5    1    4    4  502    0 -0.26915908852E+02  0.22292834530E+02  0.97945474074E+02  0.10410015616E+03  0.47000000000E+01 0.  1.
         -5    1    4    4    0  502  0.76047353865E+02 -0.58777507007E+02  0.10662079658E+03  0.14362478764E+03  0.47000000000E+01 0.  1.
<mgrwt>
<rscale>  0 0.10003806E+04</rscale>
<asrwt>0</asrwt>
<pdfrwt beam="1">  1        1 0.11756892E+00 0.10003806E+04</pdfrwt>
<pdfrwt beam="2">  1       -1 0.50367604E-01 0.10003806E+04</pdfrwt>
<totfact> 0.10757281E+02</totfact>
</mgrwt>
</event>
<event>
 9    1  0.4296086E-036  0.1000664E+04  0.7818608E-02  0.8680406E-01
         -1   -1    0    0    0  501 -0.00000000000E+00  0.00000000000E+00  0.16628060872E+03  0.16628060872E+03  0.00000000000E+00 0.  1.
          1   -1    0    0  501    0  0.00000000000E+00 -0.00000000000E+00 -0.15054803262E+04  0.15054803262E+04  0.00000000000E+00 0.  1.
         36    2    1    2    0    0  0.21316282073E-13  0.14210854715E-13 -0.13391997174E+04  0.16717609349E+04  0.10006641496E+04 0.  0.
         25    2    3    3    0    0 -0.45083782774E+02 -0.78447870791E+02 -0.68688757999E+02  0.16709128144E+03  0.12253462758E+03 0.  0.
         35    2    3    3    0    0  0.45083782774E+02  0.78447870791E+02 -0.12705109594E+04  0.15046696534E+04  0.80102812189E+03 0.  0.
         22    1    5    5    0    0 -0.33815151828E+03 -0.70658701416E+02 -0.84518048859E+03  0.91305485032E+03  0.00000000000E+00 0.  1.
         22    1    5    5    0    0  0.38323530105E+03  0.14910657221E+03 -0.42533047085E+03  0.59161480313E+03  0.00000000000E+00 0.  1.
          5    1    4    4  502    0  0.39815308383E+02 -0.80105917802E+01 -0.10178996524E+02  0.42132295600E+02  0.47000000000E+01 0. -1.
         -5    1    4    4    0  502 -0.84899091156E+02 -0.70437279011E+02 -0.58509761475E+02  0.12495898584E+03  0.47000000000E+01 0. -1.
<mgrwt>
<rscale>  0 0.10006641E+04</rscale>
<asrwt>0</asrwt>
<pdfrwt beam="1">  1        1 0.23161235E+00 0.10006641E+04</pdfrwt>
<pdfrwt beam="2">  1       -1 0.25581633E-01 0.10006641E+04</pdfrwt>
<totfact> 0.94227600E+01</totfact>
</mgrwt>
</event>
<event>
 9    1  0.4296086E-036  0.1003401E+04  0.7818608E-02  0.8677806E-01
         -2   -1    0    0    0  501 -0.00000000000E+00  0.00000000000E+00  0.40028252895E+03  0.40028252895E+03  0.00000000000E+00 0.  1.
          2   -1    0    0  501    0  0.00000000000E+00 -0.00000000000E+00 -0.62881440553E+03  0.62881440553E+03  0.00000000000E+00 0.  1.
         36    2    1    2    0    0 -0.14210854715E-13  0.14210854715E-13 -0.22853187658E+03  0.10290969345E+04  0.10034010574E+04 0.  0.
         25    2    3    3    0    0 -0.12685593369E+03 -0.51363842480E+02  0.75308072197E+01  0.18531432246E+03  0.12471572806E+03 0.  0.
         35    2    3    3    0    0  0.12685593369E+03  0.51363842480E+02 -0.23606268380E+03  0.84378261202E+03  0.79844400770E+03 0.  0.
         22    1    5    5    0    0  0.21828345627E+01  0.19182053960E+03  0.25438338570E+03  0.31860758167E+03  0.00000000000E+00 0.  1.
         22    1    5    5    0    0  0.12467309913E+03 -0.14045669712E+03 -0.49044606950E+03  0.52517503034E+03  0.00000000000E+00 0.  1.
          5    1    4    4  502    0 -0.13889525993E+03 -0.56064689806E+02 -0.23203765571E+02  0.15164315814E+03  0.47000000000E+01 0. -1.
         -5    1    4    4    0  502  0.12039326244E+02  0.47008473266E+01  0.30734572791E+02  0.33671164320E+02  0.47000000000E+01 0. -1.
<mgrwt>
<rscale>  0 0.10034011E+04</rscale>
<asrwt>0</asrwt>
<pdfrwt beam="1">  1        2 0.96740677E-01 0.10034011E+04</pdfrwt>
<pdfrwt beam="2">  1       -2 0.61581928E-01 0.10034011E+04</pdfrwt>
<totfact> 0.13890336E+02</totfact>
</mgrwt>
</event>
<event>
 9    1  0.4296086E-036  0.9995085E+03  0.7818608E-02  0.8681506E-01
         -2   -1    0    0    0  501 -0.00000000000E+00  0.00000000000E+00  0.27320299025E+03  0.27320299025E+03  0.00000000000E+00 0.  1.
          2   -1    0    0  501    0  0.00000000000E+00 -0.00000000000E+00 -0.91417130854E+03  0.91417130854E+03  0.00000000000E+00 0.  1.
         36    2    1    2    0    0 -0.14210854715E-13  0.00000000000E+00 -0.64096831829E+03  0.11873742988E+04  0.99950854943E+03 0.  0.
         25    2    3    3    0    0 -0.96712549164E+02 -0.72460055913E+02 -0.36736243308E+02  0.17739676937E+03  0.12456438231E+03 0.  0.
         35    2    3    3    0    0  0.96712549164E+02  0.72460055913E+02 -0.60423207498E+03  0.10099775294E+04  0.80022148974E+03 0.  0.
         22    1    5    5    0    0  0.20440819919E+03 -0.43855571328E+02 -0.75970341221E+03  0.78794371471E+03  0.00000000000E+00 0. -1.
         22    1    5    5    0    0 -0.10769565003E+03  0.11631562724E+03  0.15547133723E+03  0.22203381471E+03  0.00000000000E+00 0. -1.
          5    1    4    4  502    0 -0.11279296672E+03 -0.76135533239E+02  0.75628708980E+00  0.13616730420E+03  0.47000000000E+01 0. -1.
         -5    1    4    4    0  502  0.16080417555E+02  0.36754773261E+01 -0.37492530398E+02  0.41229465167E+02  0.47000000000E+01 0. -1.
<mgrwt>
<rscale>  0 0.99950855E+03</rscale>
<asrwt>0</asrwt>
<pdfrwt beam="1">  1        2 0.14064174E+00 0.99950855E+03</pdfrwt>
<pdfrwt beam="2">  1       -2 0.42031229E-01 0.99950855E+03</pdfrwt>
<totfact> 0.18612283E+02</totfact>
</mgrwt>
</event>
<event>
 9    1  0.4296086E-036  0.9991614E+03  0.7818608E-02  0.8681837E-01
         -2   -1    0    0    0  501 -0.00000000000E+00  0.00000000000E+00  0.45883736364E+03  0.45883736364E+03  0.00000000000E+00 0.  1.
          2   -1    0    0  501    0  0.00000000000E+00 -0.00000000000E+00 -0.54394187877E+03  0.54394187877E+03  0.00000000000E+00 0.  1.
         36    2    1    2    0    0  0.00000000000E+00  0.00000000000E+00 -0.85104515122E+02  0.10027792424E+04  0.99916136360E+03 0.  0.
         25    2    3    3    0    0  0.47074478378E+02  0.11643692064E+03  0.42686893605E+02  0.18207345257E+03  0.12471971874E+03 0.  0.
         35    2    3    3    0    0 -0.47074478378E+02 -0.11643692064E+03 -0.12779140873E+03  0.82070578984E+03  0.80090810105E+03 0.  0.
         22    1    5    5    0    0  0.28483794101E+02 -0.63448330990E+01  0.33641428276E+03  0.33767758747E+03  0.00000000000E+00 0.  1.
         22    1    5    5    0    0 -0.75558272480E+02 -0.11009208754E+03 -0.46420569149E+03  0.48302820237E+03  0.00000000000E+00 0.  1.
          5    1    4    4  502    0  0.21295822234E+02  0.60380253928E+01 -0.37034773081E+02  0.43400854974E+02  0.47000000000E+01 0. -1.
         -5    1    4    4    0  502  0.25778656144E+02  0.11039889525E+03  0.79721666687E+02  0.13867259760E+03  0.47000000000E+01 0. -1.
<mgrwt>
<rscale>  0 0.99916136E+03</rscale>
<asrwt>0</asrwt>
<pdfrwt beam="1">  1        2 0.83683366E-01 0.99916136E+03</pdfrwt>
<pdfrwt beam="2">  1       -2 0.70590364E-01 0.99916136E+03</pdfrwt>
<totfact> 0.12311750E+02</totfact>
</mgrwt>
</event>
<event>
 9    1  0.4296086E-036  0.1000490E+04  0.7818608E-02  0.8680572E-01
          2   -1    0    0  501    0  0.00000000000E+00  0.00000000000E+00  0.10511116648E+04  0.10511116648E+04  0.00000000000E+00 0.  1.
         -2   -1    0    0    0  501 -0.00000000000E+00 -0.00000000000E+00 -0.23807636798E+03  0.23807636798E+03  0.00000000000E+00 0.  1.
         36    2    1    2    0    0  0.28421709430E-13  0.00000000000E+00  0.81303529684E+03  0.12891880328E+04  0.10004895752E+04 0.  0.
         25    2    3    3    0    0 -0.11738906961E+03 -0.57204705364E+02  0.87180488967E+02  0.20081084800E+03  0.12518780708E+03 0.  0.
         35    2    3    3    0    0  0.11738906961E+03  0.57204705364E+02  0.72585480787E+03  0.10883771848E+04  0.80040434926E+03 0.  0.
         22    1    5    5    0    0 -0.20737781839E+03 -0.30280035209E+02 -0.72741717196E+02  0.22184182994E+03  0.00000000000E+00 0.  1.
         22    1    5    5    0    0  0.32476688799E+03  0.87484740574E+02  0.79859652507E+03  0.86653535486E+03  0.00000000000E+00 0.  1.
          5    1    4    4  502    0 -0.14393842723E+03 -0.44737810032E+02  0.77605723049E+02  0.16960094554E+03  0.47000000000E+01 0. -1.
         -5    1    4    4    0  502  0.26549357621E+02 -0.12466895332E+02  0.95747659184E+01  0.31209902462E+02  0.47000000000E+01 0. -1.
<mgrwt>
<rscale>  0 0.10004896E+04</rscale>
<asrwt>0</asrwt>
<pdfrwt beam="1">  1        2 0.16170948E+00 0.10004896E+04</pdfrwt>
<pdfrwt beam="2">  1       -2 0.36627134E-01 0.10004896E+04</pdfrwt>
<totfact> 0.19815595E+02</totfact>
</mgrwt>
</event>
<event>
 9    1  0.4296086E-036  0.1000059E+04  0.7818608E-02  0.8680982E-01
         -1   -1    0    0    0  501 -0.00000000000E+00  0.00000000000E+00  0.27604046326E+03  0.27604046326E+03  0.00000000000E+00 0.  1.
          1   -1    0    0  501    0  0.00000000000E+00 -0.00000000000E+00 -0.90577076987E+03  0.90577076987E+03  0.00000000000E+00 0.  1.
         36    2    1    2    0    0 -0.28421709430E-13  0.14210854715E-13 -0.62973030660E+03  0.11818112331E+04  0.10000587641E+04 0.  0.
         25    2    3    3    0    0  0.22448880324E+02 -0.10181218643E+03 -0.23717353417E+03  0.28841428384E+03  0.12673531582E+03 0.  0.
         35    2    3    3    0    0 -0.22448880324E+02  0.10181218643E+03 -0.39255677244E+03  0.89339694930E+03  0.79573086901E+03 0.  0.
         22    1    5    5    0    0 -0.35150100841E+03 -0.69076299139E+02 -0.38025002850E+03  0.52241226842E+03  0.00000000000E+00 0. -1.
         22    1    5    5    0    0  0.32905212809E+03  0.17088848557E+03 -0.12306743936E+02  0.37098468088E+03  0.00000000000E+00 0. -1.
          5    1    4    4  502    0 -0.24118839728E+01 -0.11656950523E+03 -0.11900192650E+03  0.16666677907E+03  0.47000000000E+01 0.  1.
         -5    1    4    4    0  502  0.24860764296E+02  0.14757318794E+02 -0.11817160766E+03  0.12174750477E+03  0.47000000000E+01 0.  1.
<mgrwt>
<rscale>  0 0.10000588E+04</rscale>
<asrwt>0</asrwt>
<pdfrwt beam="1">  1        1 0.13934935E+00 0.10000588E+04</pdfrwt>
<pdfrwt beam="2">  1       -1 0.42467763E-01 0.10000588E+04</pdfrwt>
<totfact> 0.11075173E+02</totfact>
</mgrwt>
</event>
<event>
 9    1  0.4296086E-036  0.9986181E+03  0.7818608E-02  0.8682355E-01
         -2   -1    0    0    0  501 -0.00000000000E+00  0.00000000000E+00  0.13234525200E+03  0.13234525200E+03  0.00000000000E+00 0. -1.
          2   -1    0    0  501    0  0.00000000000E+00 -0.00000000000E+00 -0.18837812467E+04  0.18837812467E+04  0.00000000000E+00 0. -1.
         36    2    1    2    0    0  0.14210854715E-13 -0.35527136788E-13 -0.17514359947E+04  0.20161264986E+04  0.99861805270E+03 0.  0.
         25    2    3    3    0    0 -0.95206204510E+02  0.40213663967E+02 -0.49812642619E+03  0.52465437845E+03  0.12826114069E+03 0.  0.
         35    2    3    3    0    0  0.95206204510E+02 -0.40213663967E+02 -0.12533095685E+04  0.14914721202E+04  0.80188705612E+03 0.  0.
         22    1    5    5    0    0 -0.12476560912E+03  0.23192630120E+03 -0.10589223290E+04  0.10911795293E+04  0.00000000000E+00 0.  1.
         22    1    5    5    0    0  0.21997181363E+03 -0.27213996516E+03 -0.19438723948E+03  0.40029259087E+03  0.00000000000E+00 0.  1.
          5    1    4    4  502    0 -0.10671165986E+03 -0.15052538347E+02 -0.31408280929E+03  0.33209043701E+03  0.47000000000E+01 0.  1.
         -5    1    4    4    0  502  0.11505455354E+02  0.55266202314E+02 -0.18404361690E+03  0.19256394144E+03  0.47000000000E+01 0.  1.
<mgrwt>
<rscale>  0 0.99861805E+03</rscale>
<asrwt>0</asrwt>
<pdfrwt beam="1">  1        2 0.28981249E+00 0.99861805E+03</pdfrwt>
<pdfrwt beam="2">  1       -2 0.20360809E-01 0.99861805E+03</pdfrwt>
<totfact> 0.18918824E+02</totfact>
</mgrwt>
</event>
<event>
 9    1  0.4296086E-036  0.1000092E+04  0.7818608E-02  0.8680950E-01
          1   -1    0    0  501    0  0.00000000000E+00  0.00000000000E+00  0.23065540891E+03  0.23065540891E+03  0.00000000000E+00 0. -1.
         -1   -1    0    0    0  501 -0.00000000000E+00 -0.00000000000E+00 -0.10840678998E+04  0.10840678998E+04  0.00000000000E+00 0. -1.
         36    2    1    2    0    0  0.14210854715E-13  0.35527136788E-14 -0.85341249091E+03  0.13147233087E+04  0.10000922452E+04 0.  0.
         25    2    3    3    0    0 -0.64504586202E+02  0.30623817600E+02 -0.19992325227E+01  0.14420176444E+03  0.12526568600E+03 0.  0.
         35    2    3    3    0    0  0.64504586202E+02 -0.30623817600E+02 -0.85141325839E+03  0.11705215443E+04  0.80007342740E+03 0.  0.
         22    1    5    5    0    0  0.41995720158E+03  0.42722260294E+02 -0.33286068995E+03  0.53757369876E+03  0.00000000000E+00 0. -1.
         22    1    5    5    0    0 -0.35545261538E+03 -0.73346077894E+02 -0.51855256844E+03  0.63294784553E+03  0.00000000000E+00 0. -1.
          5    1    4    4  502    0  0.19399853844E+02  0.46277484644E+02  0.22624857910E+02  0.55244312916E+02  0.47000000000E+01 0. -1.
         -5    1    4    4    0  502 -0.83904440045E+02 -0.15653667043E+02 -0.24624090433E+02  0.88957451520E+02  0.47000000000E+01 0. -1.
<mgrwt>
<rscale>  0 0.10000922E+04</rscale>
<asrwt>0</asrwt>
<pdfrwt beam="1">  1        1 0.35485447E-01 0.10000922E+04</pdfrwt>
<pdfrwt beam="2">  1       -1 0.16677968E+00 0.10000922E+04</pdfrwt>
<totfact> 0.36614717E+01</totfact>
</mgrwt>
</event>
<event>
 9    1  0.4296086E-036  0.9995396E+03  0.7818608E-02  0.8681477E-01
          2   -1    0    0  501    0  0.00000000000E+00  0.00000000000E+00  0.28386064941E+04  0.28386064941E+04  0.00000000000E+00 0. -1.
         -2   -1    0    0    0  501 -0.00000000000E+00 -0.00000000000E+00 -0.87990301591E+02  0.87990301591E+02  0.00000000000E+00 0. -1.
         36    2    1    2    0    0 -0.14210854715E-13 -0.14210854715E-13  0.27506161926E+04  0.29265967957E+04  0.99953957704E+03 0.  0.
         25    2    3    3    0    0 -0.10614816656E+03 -0.82550688521E+02  0.61370665813E+03  0.64088199755E+03  0.12653783277E+03 0.  0.
         35    2    3    3    0    0  0.10614816656E+03  0.82550688521E+02  0.21369095344E+04  0.22857147982E+04  0.80001733160E+03 0.  0.
         22    1    5    5    0    0  0.22816416090E+03 -0.12407400797E+03  0.18441827671E+03  0.31853311375E+03  0.00000000000E+00 0.  1.
         22    1    5    5    0    0 -0.12201599434E+03  0.20662469649E+03  0.19524912577E+04  0.19671816844E+04  0.00000000000E+00 0.  1.
          5    1    4    4  502    0 -0.81587212860E+02 -0.22736142687E+02  0.14720099364E+03  0.16989298989E+03  0.47000000000E+01 0.  1.
         -5    1    4    4    0  502 -0.24560953699E+02 -0.59814545834E+02  0.46650566449E+03  0.47098900766E+03  0.47000000000E+01 0.  1.
<mgrwt>
<rscale>  0 0.99953958E+03</rscale>
<asrwt>0</asrwt>
<pdfrwt beam="1">  1        2 0.43670862E+00 0.99953958E+03</pdfrwt>
<pdfrwt beam="2">  1       -2 0.13536972E-01 0.99953958E+03</pdfrwt>
<totfact> 0.10137903E+02</totfact>
</mgrwt>
</event>
<event>
 9    1  0.4296086E-036  0.1000783E+04  0.7818608E-02  0.8680293E-01
          2   -1    0    0  501    0  0.00000000000E+00  0.00000000000E+00  0.12749905914E+04  0.12749905914E+04  0.00000000000E+00 0.  1.
         -2   -1    0    0    0  501 -0.00000000000E+00 -0.00000000000E+00 -0.19638700345E+03  0.19638700345E+03  0.00000000000E+00 0.  1.
         36    2    1    2    0    0  0.28421709430E-13  0.00000000000E+00  0.10786035880E+04  0.14713775949E+04  0.10007828569E+04 0.  0.
         25    2    3    3    0    0 -0.10785230204E+03 -0.89017332548E+02  0.20869396911E+03  0.28097682233E+03  0.12585148942E+03 0.  0.
         35    2    3    3    0    0  0.10785230204E+03  0.89017332548E+02  0.86990961884E+03  0.11904007725E+04  0.80047176699E+03 0.  0.
         22    1    5    5    0    0 -0.29001361319E+03  0.15245110754E+03  0.65827685238E+03  0.73530786097E+03  0.00000000000E+00 0.  1.
         22    1    5    5    0    0  0.39786591524E+03 -0.63433774995E+02  0.21163276647E+03  0.45509291157E+03  0.00000000000E+00 0.  1.
          5    1    4    4  502    0 -0.18082822776E+02 -0.80464258180E+02  0.15575505605E+03  0.17630431875E+03  0.47000000000E+01 0. -1.
         -5    1    4    4    0  502 -0.89769479269E+02 -0.85530743681E+01  0.52938913065E+02  0.10467250358E+03  0.47000000000E+01 0. -1.
<mgrwt>
<rscale>  0 0.10007829E+04</rscale>
<asrwt>0</asrwt>
<pdfrwt beam="1">  1        2 0.19615239E+00 0.10007829E+04</pdfrwt>
<pdfrwt beam="2">  1       -2 0.30213386E-01 0.10007829E+04</pdfrwt>
<totfact> 0.20801863E+02</totfact>
</mgrwt>
</event>
<event>
 9    1  0.4296086E-036  0.9997612E+03  0.7818608E-02  0.8681265E-01
         -2   -1    0    0    0  501 -0.00000000000E+00  0.00000000000E+00  0.32393236380E+03  0.32393236380E+03  0.00000000000E+00 0. -1.
          2   -1    0    0  501    0  0.00000000000E+00 -0.00000000000E+00 -0.77139752379E+03  0.77139752379E+03  0.00000000000E+00 0. -1.
         36    2    1    2    0    0  0.14210854715E-13  0.14210854715E-13 -0.44746515999E+03  0.10953298876E+04  0.99976121812E+03 0.  0.
         25    2    3    3    0    0  0.76187060935E+02  0.29312527594E+02  0.38837257427E+02  0.15526949660E+03  0.12624021342E+03 0.  0.
         35    2    3    3    0    0 -0.76187060935E+02 -0.29312527594E+02 -0.48630241742E+03  0.94006039099E+03  0.80034980165E+03 0.  0.
         22    1    5    5    0    0  0.16326327389E+03  0.29371862050E+03 -0.41112954316E+03  0.53099249137E+03  0.00000000000E+00 0. -1.
         22    1    5    5    0    0 -0.23945033482E+03 -0.32303114809E+03 -0.75172874253E+02  0.40906789963E+03  0.00000000000E+00 0. -1.
          5    1    4    4  502    0  0.90455632626E+01 -0.32260181316E+02 -0.26573319278E+02  0.43020609139E+02  0.47000000000E+01 0. -1.
         -5    1    4    4    0  502  0.67141497672E+02  0.61572708911E+02  0.65410576705E+02  0.11224888746E+03  0.47000000000E+01 0. -1.
<mgrwt>
<rscale>  0 0.99976122E+03</rscale>
<asrwt>0</asrwt>
<pdfrwt beam="1">  1        2 0.11867654E+00 0.99976122E+03</pdfrwt>
<pdfrwt beam="2">  1       -2 0.49835749E-01 0.99976122E+03</pdfrwt>
<totfact> 0.16667985E+02</totfact>
</mgrwt>
</event>
<event>
 9    1  0.4296086E-036  0.1000774E+04  0.7818608E-02  0.8680301E-01
         -2   -1    0    0    0  501 -0.00000000000E+00  0.00000000000E+00  0.24288878608E+03  0.24288878608E+03  0.00000000000E+00 0.  1.
          2   -1    0    0  501    0  0.00000000000E+00 -0.00000000000E+00 -0.10308716951E+04  0.10308716951E+04  0.00000000000E+00 0.  1.
         36    2    1    2    0    0  0.71054273576E-14 -0.14210854715E-13 -0.78798290903E+03  0.12737604812E+04  0.10007740497E+04 0.  0.
         25    2    3    3    0    0 -0.12811011528E+01  0.11063604937E+03 -0.35946679501E+02  0.17058227732E+03  0.12475645446E+03 0.  0.
         35    2    3    3    0    0  0.12811011528E+01 -0.11063604937E+03 -0.75203622953E+03  0.11031782039E+04  0.79950089578E+03 0.  0.
         22    1    5    5    0    0 -0.19056782699E+03 -0.15065749751E+03  0.74208451772E+02  0.25400919778E+03  0.00000000000E+00 0. -1.
         22    1    5    5    0    0  0.19184892814E+03  0.40021448146E+02 -0.82624468130E+03  0.84916900610E+03  0.00000000000E+00 0. -1.
          5    1    4    4  502    0  0.22880092707E+02  0.75476264385E+02 -0.77621979038E+02  0.11075841619E+03  0.47000000000E+01 0.  1.
         -5    1    4    4    0  502 -0.24161193860E+02  0.35159784982E+02  0.41675299537E+02  0.59823861128E+02  0.47000000000E+01 0.  1.
<mgrwt>
<rscale>  0 0.10007740E+04</rscale>
<asrwt>0</asrwt>
<pdfrwt beam="1">  1        2 0.15859565E+00 0.10007740E+04</pdfrwt>
<pdfrwt beam="2">  1       -2 0.37367506E-01 0.10007740E+04</pdfrwt>
<totfact> 0.19640140E+02</totfact>
</mgrwt>
</event>
<event>
 9    1  0.4296086E-036  0.9975385E+03  0.7818608E-02  0.8683386E-01
         -2   -1    0    0    0  501 -0.00000000000E+00  0.00000000000E+00  0.16420335304E+03  0.16420335304E+03  0.00000000000E+00 0. -1.
          2   -1    0    0  501    0  0.00000000000E+00 -0.00000000000E+00 -0.15150163170E+04  0.15150163170E+04  0.00000000000E+00 0. -1.
         36    2    1    2    0    0 -0.42632564146E-13 -0.14210854715E-13 -0.13508129640E+04  0.16792196701E+04  0.99753848883E+03 0.  0.
         25    2    3    3    0    0  0.91460478982E+02  0.55267621397E+02 -0.11014428181E+03  0.19971688998E+03  0.12781057913E+03 0.  0.
         35    2    3    3    0    0 -0.91460478982E+02 -0.55267621397E+02 -0.12406686822E+04  0.14795027801E+04  0.79890560655E+03 0.  0.
         22    1    5    5    0    0 -0.38639593764E+03  0.11043032490E+03 -0.37330093033E+03  0.54849818766E+03  0.00000000000E+00 0. -1.
         22    1    5    5    0    0  0.29493545866E+03 -0.16569794630E+03 -0.86736775187E+03  0.93100459245E+03  0.00000000000E+00 0. -1.
          5    1    4    4  502    0  0.36217314363E+02  0.66885005272E+02 -0.39102568487E+00  0.76207222040E+02  0.47000000000E+01 0.  1.
         -5    1    4    4    0  502  0.55243164619E+02 -0.11617383876E+02 -0.10975325612E+03  0.12350966794E+03  0.47000000000E+01 0.  1.
<mgrwt>
<rscale>  0 0.99753849E+03</rscale>
<asrwt>0</asrwt>
<pdfrwt beam="1">  1        2 0.23307944E+00 0.99753849E+03</pdfrwt>
<pdfrwt beam="2">  1       -2 0.25262054E-01 0.99753849E+03</pdfrwt>
<totfact> 0.20922199E+02</totfact>
</mgrwt>
</event>
<event>
 9    1  0.4296086E-036  0.1000064E+04  0.7818608E-02  0.8680977E-01
         -2   -1    0    0    0  501 -0.00000000000E+00  0.00000000000E+00  0.44476266542E+03  0.44476266542E+03  0.00000000000E+00 0. -1.
          2   -1    0    0  501    0  0.00000000000E+00 -0.00000000000E+00 -0.56216977830E+03  0.56216977830E+03  0.00000000000E+00 0. -1.
         36    2    1    2    0    0  0.00000000000E+00  0.00000000000E+00 -0.11740711287E+03  0.10069324437E+04  0.10000642560E+04 0.  0.
         25    2    3    3    0    0  0.13712290972E+02  0.13173972478E+03 -0.71629731922E+02  0.19744310318E+03  0.12770896009E+03 0.  0.
         35    2    3    3    0    0 -0.13712290972E+02 -0.13173972478E+03 -0.45777380952E+02  0.80948934054E+03  0.79726660650E+03 0.  0.
         22    1    5    5    0    0  0.33062418259E+03 -0.22157349383E+03  0.12168984760E+03  0.41619176144E+03  0.00000000000E+00 0.  1.
         22    1    5    5    0    0 -0.34433647356E+03  0.89833769048E+02 -0.16746722855E+03  0.39329757910E+03  0.00000000000E+00 0.  1.
          5    1    4    4  502    0 -0.10677059964E+01  0.14370144299E+03 -0.23774127730E+02  0.14573449784E+03  0.47000000000E+01 0.  1.
         -5    1    4    4    0  502  0.14779996968E+02 -0.11961718207E+02 -0.47855604192E+02  0.51708605333E+02  0.47000000000E+01 0.  1.
<mgrwt>
<rscale>  0 0.10000643E+04</rscale>
<asrwt>0</asrwt>
<pdfrwt beam="1">  1        2 0.86487658E-01 0.10000643E+04</pdfrwt>
<pdfrwt beam="2">  1       -2 0.68425026E-01 0.10000643E+04</pdfrwt>
<totfact> 0.12675226E+02</totfact>
</mgrwt>
</event>
<event>
 9    1  0.4296086E-036  0.9999288E+03  0.7818608E-02  0.8681106E-01
          1   -1    0    0  501    0  0.00000000000E+00  0.00000000000E+00  0.25497771644E+03  0.25497771644E+03  0.00000000000E+00 0.  1.
         -1   -1    0    0    0  501 -0.00000000000E+00 -0.00000000000E+00 -0.98033820973E+03  0.98033820973E+03  0.00000000000E+00 0.  1.
         36    2    1    2    0    0  0.00000000000E+00  0.00000000000E+00 -0.72536049329E+03  0.12353159262E+04  0.99992879357E+03 0.  0.
         25    2    3    3    0    0 -0.10855270259E+03  0.86888992933E+02 -0.13216588494E+03  0.22918853770E+03  0.12540406029E+03 0.  0.
         35    2    3    3    0    0  0.10855270259E+03 -0.86888992933E+02 -0.59319460835E+03  0.10061273885E+04  0.80067414852E+03 0.  0.
         22    1    5    5    0    0 -0.13046037664E+03 -0.64436501891E+02 -0.72005120468E+03  0.73460581948E+03  0.00000000000E+00 0.  1.
         22    1    5    5    0    0  0.23901307923E+03 -0.22452491041E+02  0.12685659632E+03  0.27152156899E+03  0.00000000000E+00 0.  1.
          5    1    4    4  502    0 -0.12926107155E+03  0.42310004404E+02 -0.82451964015E+02  0.15911938116E+03  0.47000000000E+01 0. -1.
         -5    1    4    4    0  502  0.20708368968E+02  0.44578988529E+02 -0.49713920923E+02  0.70069156532E+02  0.47000000000E+01 0. -1.
<mgrwt>
<rscale>  0 0.99992879E+03</rscale>
<asrwt>0</asrwt>
<pdfrwt beam="1">  1        1 0.39227341E-01 0.99992879E+03</pdfrwt>
<pdfrwt beam="2">  1       -1 0.15082126E+00 0.99992879E+03</pdfrwt>
<totfact> 0.43722698E+01</totfact>
</mgrwt>
</event>
<event>
 9    1  0.4296086E-036  0.1005291E+04  0.7818608E-02  0.8676015E-01
         -1   -1    0    0    0  501 -0.00000000000E+00  0.00000000000E+00  0.94756783442E+03  0.94756783442E+03  0.00000000000E+00 0.  1.
          1   -1    0    0  501    0  0.00000000000E+00 -0.00000000000E+00 -0.26663281924E+03  0.26663281924E+03  0.00000000000E+00 0.  1.
         36    2    1    2    0    0  0.17763568394E-14  0.28421709430E-13  0.68093501517E+03  0.12142006537E+04  0.10052913669E+04 0.  0.
         25    2    3    3    0    0 -0.61972477051E+01  0.10194683505E+03  0.16049691249E+02  0.16974598611E+03  0.13462742720E+03 0.  0.
         35    2    3    3    0    0  0.61972477051E+01 -0.10194683505E+03  0.66488532392E+03  0.10444546675E+04  0.79898779436E+03 0.  0.
         22    1    5    5    0    0  0.45379950878E+01  0.34801498798E+03  0.36120163852E+03  0.50159909183E+03  0.00000000000E+00 0.  1.
         22    1    5    5    0    0  0.16592526173E+01 -0.44996182303E+03  0.30368368541E+03  0.54285557572E+03  0.00000000000E+00 0.  1.
          5    1    4    4  502    0 -0.36446033012E+02  0.12458332784E+03  0.45290657344E+01  0.12996892449E+03  0.47000000000E+01 0.  1.
         -5    1    4    4    0  502  0.30248785307E+02 -0.22636492787E+02  0.11520625515E+02  0.39777061612E+02  0.47000000000E+01 0.  1.
<mgrwt>
<rscale>  0 0.10052914E+04</rscale>
<asrwt>0</asrwt>
<pdfrwt beam="1">  1        1 0.41020434E-01 0.10052914E+04</pdfrwt>
<pdfrwt beam="2">  1       -1 0.14577967E+00 0.10052914E+04</pdfrwt>
<totfact> 0.45456989E+01</totfact>
</mgrwt>
</event>
<event>
 9    1  0.4296086E-036  0.9997526E+03  0.7818608E-02  0.8681274E-01
          2   -1    0    0  501    0  0.00000000000E+00  0.00000000000E+00  0.70494217390E+03  0.70494217390E+03  0.00000000000E+00 0. -1.
         -2   -1    0    0    0  501 -0.00000000000E+00 -0.00000000000E+00 -0.35446356581E+03  0.35446356581E+03  0.00000000000E+00 0. -1.
         36    2    1    2    0    0 -0.14210854715E-13 -0.42632564146E-13  0.35047860808E+03  0.10594057397E+04  0.99975260270E+03 0.  0.
         25    2    3    3    0    0  0.11558621639E+03  0.74945711324E+02  0.80077379231E+02  0.20231497807E+03  0.12466727968E+03 0.  0.
         35    2    3    3    0    0 -0.11558621639E+03 -0.74945711324E+02  0.27040122885E+03  0.85709076164E+03  0.80156766156E+03 0.  0.
         22    1    5    5    0    0  0.14285178512E+03 -0.37963598470E+03  0.19676572075E+03  0.45082908320E+03  0.00000000000E+00 0. -1.
         22    1    5    5    0    0 -0.25843800151E+03  0.30469027338E+03  0.73635508099E+02  0.40626167844E+03  0.00000000000E+00 0. -1.
          5    1    4    4  502    0  0.46156086305E+02  0.69512439716E+02  0.99423672134E+02  0.12988271694E+03  0.47000000000E+01 0. -1.
         -5    1    4    4    0  502  0.69430130082E+02  0.54332716081E+01 -0.19346292904E+02  0.72432261132E+02  0.47000000000E+01 0. -1.
<mgrwt>
<rscale>  0 0.99975260E+03</rscale>
<asrwt>0</asrwt>
<pdfrwt beam="1">  1        2 0.10845264E+00 0.99975260E+03</pdfrwt>
<pdfrwt beam="2">  1       -2 0.54532857E-01 0.99975260E+03</pdfrwt>
<totfact> 0.15553017E+02</totfact>
</mgrwt>
</event>
<event>
 9    1  0.4296086E-036  0.9978316E+03  0.7818608E-02  0.8683106E-01
          2   -1    0    0  501    0  0.00000000000E+00  0.00000000000E+00  0.36218467251E+03  0.36218467251E+03  0.00000000000E+00 0. -1.
         -2   -1    0    0    0  501 -0.00000000000E+00 -0.00000000000E+00 -0.68726535556E+03  0.68726535556E+03  0.00000000000E+00 0. -1.
         36    2    1    2    0    0  0.00000000000E+00 -0.28421709430E-13 -0.32508068306E+03  0.10494500281E+04  0.99783160449E+03 0.  0.
         25    2    3    3    0    0 -0.53404930922E+02 -0.81366884398E+02 -0.16390842641E+03  0.22724978025E+03  0.12370866521E+03 0.  0.
         35    2    3    3    0    0  0.53404930922E+02  0.81366884398E+02 -0.16117225664E+03  0.82220024782E+03  0.80035248153E+03 0.  0.
         22    1    5    5    0    0  0.10394140583E+03  0.83466149660E+02 -0.48062435595E+03  0.49876866934E+03  0.00000000000E+00 0. -1.
         22    1    5    5    0    0 -0.50536474912E+02 -0.20992652619E+01  0.31945209930E+03  0.32343157848E+03  0.00000000000E+00 0. -1.
          5    1    4    4  502    0 -0.90528730839E+01 -0.42088031149E+02 -0.16210672504E+03  0.16779164813E+03  0.47000000000E+01 0. -1.
         -5    1    4    4    0  502 -0.44352057838E+02 -0.39278853249E+02 -0.18017013691E+01  0.59458132117E+02  0.47000000000E+01 0. -1.
<mgrwt>
<rscale>  0 0.99783160E+03</rscale>
<asrwt>0</asrwt>
<pdfrwt beam="1">  1        2 0.55720719E-01 0.99783160E+03</pdfrwt>
<pdfrwt beam="2">  1       -2 0.10573313E+00 0.99783160E+03</pdfrwt>
<totfact> 0.76050790E+01</totfact>
</mgrwt>
</event>
<event>
 9    1  0.4296086E-036  0.9992976E+03  0.7818608E-02  0.8681707E-01
          2   -1    0    0  501    0  0.00000000000E+00  0.00000000000E+00  0.11116199205E+04  0.11116199205E+04  0.00000000000E+00 0. -1.
         -2   -1    0    0    0  501 -0.00000000000E+00 -0.00000000000E+00 -0.22458120956E+03  0.22458120956E+03  0.00000000000E+00 0. -1.
         36    2    1    2    0    0  0.00000000000E+00 -0.14210854715E-13  0.88703871092E+03  0.13362011300E+04  0.99929764598E+03 0.  0.
         25    2    3    3    0    0  0.12625119153E+03  0.57241134918E+02  0.15486345414E+03  0.24291066260E+03  0.12572585130E+03 0.  0.
         35    2    3    3    0    0 -0.12625119153E+03 -0.57241134918E+02  0.73217525677E+03  0.10932904674E+04  0.79999220539E+03 0.  0.
         22    1    5    5    0    0 -0.23222818283E+03  0.18014818917E+03 -0.22815390568E+02  0.29479457425E+03  0.00000000000E+00 0. -1.
         22    1    5    5    0    0  0.10597699130E+03 -0.23738932409E+03  0.75499064734E+03  0.79849589320E+03  0.00000000000E+00 0. -1.
          5    1    4    4  502    0  0.12951769146E+03  0.73625168340E+01  0.13915875541E+03  0.19030577570E+03  0.47000000000E+01 0. -1.
         -5    1    4    4    0  502 -0.32664999347E+01  0.49878618084E+02  0.15704698732E+02  0.52604886902E+02  0.47000000000E+01 0. -1.
<mgrwt>
<rscale>  0 0.99929765E+03</rscale>
<asrwt>0</asrwt>
<pdfrwt beam="1">  1        2 0.17101845E+00 0.99929765E+03</pdfrwt>
<pdfrwt beam="2">  1       -2 0.34550956E-01 0.99929765E+03</pdfrwt>
<totfact> 0.20301054E+02</totfact>
</mgrwt>
</event>
<event>
 9    1  0.4296086E-036  0.9993110E+03  0.7818608E-02  0.8681694E-01
         -2   -1    0    0    0  501 -0.00000000000E+00  0.00000000000E+00  0.91109047642E+02  0.91109047642E+02  0.00000000000E+00 0.  1.
          2   -1    0    0  501    0  0.00000000000E+00 -0.00000000000E+00 -0.27401845692E+04  0.27401845692E+04  0.00000000000E+00 0.  1.
         36    2    1    2    0    0  0.14210854715E-13 -0.14210854715E-13 -0.26490755216E+04  0.28312936168E+04  0.99931097555E+03 0.  0.
         25    2    3    3    0    0  0.71575559733E+02 -0.10335359169E+03 -0.66601201357E+03  0.68942538988E+03  0.12621545201E+03 0.  0.
         35    2    3    3    0    0 -0.71575559733E+02  0.10335359169E+03 -0.19830635080E+04  0.21418682270E+04  0.79953336347E+03 0.  0.
         22    1    5    5    0    0 -0.70422265279E+02  0.18671966979E+03 -0.48314584138E+02  0.20532371898E+03  0.00000000000E+00 0. -1.
         22    1    5    5    0    0 -0.11532944536E+01 -0.83366078107E+02 -0.19347489239E+04  0.19365445080E+04  0.00000000000E+00 0. -1.
          5    1    4    4  502    0  0.77568836183E+02 -0.12879204952E+03 -0.53469185962E+03  0.55544737924E+03  0.47000000000E+01 0.  1.
         -5    1    4    4    0  502 -0.59932764496E+01  0.25438457838E+02 -0.13132015395E+03  0.13397801063E+03  0.47000000000E+01 0.  1.
<mgrwt>
<rscale>  0 0.99931098E+03</rscale>
<asrwt>0</asrwt>
<pdfrwt beam="1">  1        2 0.42156676E+00 0.99931098E+03</pdfrwt>
<pdfrwt beam="2">  1       -2 0.14016780E-01 0.99931098E+03</pdfrwt>
<totfact> 0.11061174E+02</totfact>
</mgrwt>
</event>
<event>
 9    1  0.4296086E-036  0.9994878E+03  0.7818608E-02  0.8681526E-01
          2   -1    0    0  501    0  0.00000000000E+00  0.00000000000E+00  0.81902385550E+02  0.81902385550E+02  0.00000000000E+00 0. -1.
         -2   -1    0    0    0  501 -0.00000000000E+00 -0.00000000000E+00 -0.30492882911E+04  0.30492882911E+04  0.00000000000E+00 0. -1.
         36    2    1    2    0    0  0.00000000000E+00  0.21316282073E-13 -0.29673859056E+04  0.31311906767E+04  0.99948783939E+03 0.  0.
         25    2    3    3    0    0 -0.47181559196E+02  0.24488112478E+02 -0.96251668631E+03  0.97205042633E+03  0.12497156768E+03 0.  0.
         35    2    3    3    0    0  0.47181559196E+02 -0.24488112478E+02 -0.20048692193E+04  0.21591402503E+04  0.79972511972E+03 0.  0.
         22    1    5    5    0    0 -0.16888268565E+03 -0.25555911270E+03 -0.16723703877E+04  0.17001924994E+04  0.00000000000E+00 0.  1.
         22    1    5    5    0    0  0.21606424485E+03  0.23107100023E+03 -0.33249883160E+03  0.45894775091E+03  0.00000000000E+00 0.  1.
          5    1    4    4  502    0 -0.32096639360E+01 -0.34349493849E+02 -0.91036457177E+02  0.97467513591E+02  0.47000000000E+01 0.  1.
         -5    1    4    4    0  502 -0.43971895260E+02  0.58837606327E+02 -0.87148022913E+03  0.87458291274E+03  0.47000000000E+01 0.  1.
<mgrwt>
<rscale>  0 0.99948784E+03</rscale>
<asrwt>0</asrwt>
<pdfrwt beam="1">  1        2 0.12600369E-01 0.99948784E+03</pdfrwt>
<pdfrwt beam="2">  1       -2 0.46912122E+00 0.99948784E+03</pdfrwt>
<totfact> 0.25079853E+00</totfact>
</mgrwt>
</event>
<event>
 9    1  0.4296086E-036  0.9994151E+03  0.7818608E-02  0.8681595E-01
          2   -1    0    0  501    0  0.00000000000E+00  0.00000000000E+00  0.28019992603E+04  0.28019992603E+04  0.00000000000E+00 0. -1.
         -2   -1    0    0    0  501 -0.00000000000E+00 -0.00000000000E+00 -0.89117673184E+02  0.89117673184E+02  0.00000000000E+00 0. -1.
         36    2    1    2    0    0 -0.17763568394E-13  0.00000000000E+00  0.27128815871E+04  0.28911169335E+04  0.99941513765E+03 0.  0.
         25    2    3    3    0    0  0.28119685884E+02 -0.97844955635E+02  0.78755260098E+03  0.80386645486E+03  0.12489125617E+03 0.  0.
         35    2    3    3    0    0 -0.28119685884E+02  0.97844955635E+02  0.19253289861E+04  0.20872504786E+04  0.79959896421E+03 0.  0.
         22    1    5    5    0    0 -0.13114196304E+03 -0.12800050787E+03  0.42487181739E+02  0.18811566946E+03  0.00000000000E+00 0.  1.
         22    1    5    5    0    0  0.10302227716E+03  0.22584546350E+03  0.18828418044E+04  0.18991348092E+04  0.00000000000E+00 0.  1.
          5    1    4    4  502    0  0.25970694640E+02 -0.87422311298E+02  0.78693572769E+03  0.79221655311E+03  0.47000000000E+01 0.  1.
         -5    1    4    4    0  502  0.21489912440E+01 -0.10422644337E+02  0.61687328554E+00  0.11649901758E+02  0.47000000000E+01 0.  1.
<mgrwt>
<rscale>  0 0.99941514E+03</rscale>
<asrwt>0</asrwt>
<pdfrwt beam="1">  1        2 0.43107674E+00 0.99941514E+03</pdfrwt>
<pdfrwt beam="2">  1       -2 0.13710413E-01 0.99941514E+03</pdfrwt>
<totfact> 0.10479271E+02</totfact>
</mgrwt>
</event>
<event>
 9    1  0.4296086E-036  0.9992055E+03  0.7818608E-02  0.8681795E-01
         -2   -1    0    0    0  501 -0.00000000000E+00  0.00000000000E+00  0.11965475633E+03  0.11965475633E+03  0.00000000000E+00 0.  1.
          2   -1    0    0  501    0  0.00000000000E+00 -0.00000000000E+00 -0.20860258626E+04  0.20860258626E+04  0.00000000000E+00 0.  1.
         36    2    1    2    0    0  0.10658141036E-13  0.00000000000E+00 -0.19663711062E+04  0.22056806189E+04  0.99920551698E+03 0.  0.
         25    2    3    3    0    0 -0.48565283635E+01 -0.83173321634E+02 -0.61805783150E+03  0.63601423678E+03  0.12480880982E+03 0.  0.
         35    2    3    3    0    0  0.48565283635E+01  0.83173321634E+02 -0.13483132747E+04  0.15696663821E+04  0.79935128513E+03 0.  0.
         22    1    5    5    0    0  0.24362488065E+03 -0.11614333637E+03 -0.10758158770E+03  0.29054458361E+03  0.00000000000E+00 0.  1.
         22    1    5    5    0    0 -0.23876835228E+03  0.19931665801E+03 -0.12407316870E+04  0.12791217985E+04  0.00000000000E+00 0.  1.
          5    1    4    4  502    0  0.24547110475E+02  0.21922239311E+02 -0.74377002786E+02  0.81468851425E+02  0.47000000000E+01 0.  1.
         -5    1    4    4    0  502 -0.29403638838E+02 -0.10509556095E+03 -0.54368082871E+03  0.55454538535E+03  0.47000000000E+01 0.  1.
<mgrwt>
<rscale>  0 0.99920552E+03</rscale>
<asrwt>0</asrwt>
<pdfrwt beam="1">  1        2 0.32092704E+00 0.99920552E+03</pdfrwt>
<pdfrwt beam="2">  1       -2 0.18408425E-01 0.99920552E+03</pdfrwt>
<totfact> 0.17266385E+02</totfact>
</mgrwt>
</event>
<event>
 9    1  0.4296086E-036  0.1000578E+04  0.7818608E-02  0.8680487E-01
          2   -1    0    0  501    0  0.00000000000E+00  0.00000000000E+00  0.10786612722E+04  0.10786612722E+04  0.00000000000E+00 0. -1.
         -2   -1    0    0    0  501 -0.00000000000E+00 -0.00000000000E+00 -0.23203698392E+03  0.23203698392E+03  0.00000000000E+00 0. -1.
         36    2    1    2    0    0 -0.21316282073E-13  0.00000000000E+00  0.84662428830E+03  0.13106982561E+04  0.10005784492E+04 0.  0.
         25    2    3    3    0    0 -0.42586972177E+02 -0.74150933286E+02  0.30738272764E+03  0.34283876374E+03  0.12546818547E+03 0.  0.
         35    2    3    3    0    0  0.42586972177E+02  0.74150933286E+02  0.53924156065E+03  0.96785949239E+03  0.79916113842E+03 0.  0.
         22    1    5    5    0    0 -0.37565743972E+03 -0.53491841219E+01  0.21641438738E+03  0.43356927111E+03  0.00000000000E+00 0. -1.
         22    1    5    5    0    0  0.41824441190E+03  0.79500117408E+02  0.32282717327E+03  0.53429022128E+03  0.00000000000E+00 0. -1.
          5    1    4    4  502    0 -0.59809087433E+02 -0.18250754787E+02  0.54014959381E+02  0.82764260564E+02  0.47000000000E+01 0. -1.
         -5    1    4    4    0  502  0.17222115256E+02 -0.55900178499E+02  0.25336776826E+03  0.26007450318E+03  0.47000000000E+01 0. -1.
<mgrwt>
<rscale>  0 0.10005784E+04</rscale>
<asrwt>0</asrwt>
<pdfrwt beam="1">  1        2 0.16594789E+00 0.10005784E+04</pdfrwt>
<pdfrwt beam="2">  1       -2 0.35697998E-01 0.10005784E+04</pdfrwt>
<totfact> 0.20000858E+02</totfact>
</mgrwt>
</event>
<event>
 9    1  0.4296086E-036  0.9996562E+03  0.7818608E-02  0.8681365E-01
         -2   -1    0    0    0  501 -0.00000000000E+00  0.00000000000E+00  0.97814490061E+03  0.97814490061E+03  0.00000000000E+00 0.  1.
          2   -1    0    0  501    0  0.00000000000E+00 -0.00000000000E+00 -0.25541015023E+03  0.25541015023E+03  0.00000000000E+00 0.  1.
         36    2    1    2    0    0  0.28421709430E-13 -0.28421709430E-13  0.72273475038E+03  0.12335550508E+04  0.99965621292E+03 0.  0.
         25    2    3    3    0    0 -0.11931421881E+03 -0.71725740013E+02  0.16339534677E+03  0.24838021897E+03  0.12495690953E+03 0.  0.
         35    2    3    3    0    0  0.11931421881E+03  0.71725740013E+02  0.55933940362E+03  0.98517483187E+03  0.79895457713E+03 0.  0.
         22    1    5    5    0    0  0.29664987033E+03 -0.22233627491E+03  0.52130101571E+03  0.63967907086E+03  0.00000000000E+00 0. -1.
         22    1    5    5    0    0 -0.17733565152E+03  0.29406201492E+03  0.38038387904E+02  0.34549576101E+03  0.00000000000E+00 0. -1.
          5    1    4    4  502    0 -0.13728241556E+03 -0.74027884116E+02  0.16781371070E+03  0.22915086896E+03  0.47000000000E+01 0.  1.
         -5    1    4    4    0  502  0.17968196747E+02  0.23021441027E+01 -0.44183639303E+01  0.19229350006E+02  0.47000000000E+01 0.  1.
<mgrwt>
<rscale>  0 0.99965621E+03</rscale>
<asrwt>0</asrwt>
<pdfrwt beam="1">  1        2 0.39293870E-01 0.99965621E+03</pdfrwt>
<pdfrwt beam="2">  1       -2 0.15048383E+00 0.99965621E+03</pdfrwt>
<totfact> 0.44186166E+01</totfact>
</mgrwt>
</event>
<event>
 9    1  0.4296086E-036  0.9996363E+03  0.7818608E-02  0.8681384E-01
         -1   -1    0    0    0  501 -0.00000000000E+00  0.00000000000E+00  0.75232566095E+03  0.75232566095E+03  0.00000000000E+00 0.  1.
          1   -1    0    0  501    0  0.00000000000E+00 -0.00000000000E+00 -0.33206123745E+03  0.33206123745E+03  0.00000000000E+00 0.  1.
         36    2    1    2    0    0  0.00000000000E+00  0.00000000000E+00  0.42026442350E+03  0.10843868984E+04  0.99963631374E+03 0.  0.
         25    2    3    3    0    0 -0.72819238212E+02  0.32112933192E+02 -0.45221805333E+02  0.15465725870E+03  0.12465943230E+03 0.  0.
         35    2    3    3    0    0  0.72819238212E+02 -0.32112933192E+02  0.46548622883E+03  0.92972963969E+03  0.80086571394E+03 0.  0.
         22    1    5    5    0    0 -0.10593208122E+03  0.14185845397E+03  0.61428047818E+03  0.63928548604E+03  0.00000000000E+00 0.  1.
         22    1    5    5    0    0  0.17875131944E+03 -0.17397138716E+03 -0.14879424934E+03  0.29044415365E+03  0.00000000000E+00 0.  1.
          5    1    4    4  502    0  0.24146478119E+02 -0.51234781080E+01 -0.44005515115E+02  0.50674232052E+02  0.47000000000E+01 0.  1.
         -5    1    4    4    0  502 -0.96965716331E+02  0.37236411300E+02 -0.12162902178E+01  0.10398302665E+03  0.47000000000E+01 0.  1.
<mgrwt>
<rscale>  0 0.99963631E+03</rscale>
<asrwt>0</asrwt>
<pdfrwt beam="1">  1        1 0.51086344E-01 0.99963631E+03</pdfrwt>
<pdfrwt beam="2">  1       -1 0.11574241E+00 0.99963631E+03</pdfrwt>
<totfact> 0.62402755E+01</totfact>
</mgrwt>
</event>
<event>
 9    1  0.4296086E-036  0.1002385E+04  0.7818608E-02  0.8678770E-01
         -2   -1    0    0    0  501 -0.00000000000E+00  0.00000000000E+00  0.60687145431E+03  0.60687145431E+03  0.00000000000E+00 0. -1.
          2   -1    0    0  501    0  0.00000000000E+00 -0.00000000000E+00 -0.41391580020E+03  0.41391580020E+03  0.00000000000E+00 0. -1.
         36    2    1    2    0    0  0.14210854715E-13  0.14210854715E-13  0.19295565411E+03  0.10207872545E+04  0.10023845243E+04 0.  0.
         25    2    3    3    0    0 -0.12071195109E+03 -0.31252958590E+01 -0.42290201879E+02  0.17836180297E+03  0.12427119124E+03 0.  0.
         35    2    3    3    0    0  0.12071195109E+03  0.31252958590E+01  0.23524585599E+03  0.84242545154E+03  0.79984928958E+03 0.  0.
         22    1    5    5    0    0 -0.10118129916E+03 -0.14938010124E+03  0.45845994044E+03  0.49268406401E+03  0.00000000000E+00 0. -1.
         22    1    5    5    0    0  0.22189325025E+03  0.15250539710E+03 -0.22321408445E+03  0.34974138753E+03  0.00000000000E+00 0. -1.
          5    1    4    4  502    0 -0.87532420270E+02  0.56694333676E+02 -0.20254631632E+02  0.10634148848E+03  0.47000000000E+01 0.  1.
         -5    1    4    4    0  502 -0.33179530821E+02 -0.59819629535E+02 -0.22035570247E+02  0.72020314491E+02  0.47000000000E+01 0.  1.
<mgrwt>
<rscale>  0 0.10023845E+04</rscale>
<asrwt>0</asrwt>
<pdfrwt beam="1">  1        2 0.63679354E-01 0.10023845E+04</pdfrwt>
<pdfrwt beam="2">  1       -2 0.93364839E-01 0.10023845E+04</pdfrwt>
<totfact> 0.88565001E+01</totfact>
</mgrwt>
</event>
<event>
 9    1  0.4296086E-036  0.1000012E+04  0.7818608E-02  0.8681027E-01
         -2   -1    0    0    0  501 -0.00000000000E+00  0.00000000000E+00  0.16928708619E+03  0.16928708619E+03  0.00000000000E+00 0. -1.
          2   -1    0    0  501    0  0.00000000000E+00 -0.00000000000E+00 -0.14768167075E+04  0.14768167075E+04  0.00000000000E+00 0. -1.
         36    2    1    2    0    0 -0.21316282073E-13  0.21316282073E-13 -0.13075296213E+04  0.16461037936E+04  0.10000119944E+04 0.  0.
         25    2    3    3    0    0  0.30193898813E+02 -0.49094670923E+02 -0.35548959036E+02  0.14231820624E+03  0.12517501787E+03 0.  0.
         35    2    3    3    0    0 -0.30193898813E+02  0.49094670923E+02 -0.12719806622E+04  0.15037855874E+04  0.80007145278E+03 0.  0.
         22    1    5    5    0    0 -0.17488202729E+03 -0.34252413010E+03 -0.61955512219E+03  0.72921536778E+03  0.00000000000E+00 0.  1.
         22    1    5    5    0    0  0.14468812848E+03  0.39161880102E+03 -0.65242554004E+03  0.77457021963E+03  0.00000000000E+00 0.  1.
          5    1    4    4  502    0 -0.11985328394E+01  0.13389451170E+02 -0.64820553791E+02  0.66366468019E+02  0.47000000000E+01 0. -1.
         -5    1    4    4    0  502  0.31392431652E+02 -0.62484122093E+02  0.29271594755E+02  0.75951738218E+02  0.47000000000E+01 0. -1.
<mgrwt>
<rscale>  0 0.10000120E+04</rscale>
<asrwt>0</asrwt>
<pdfrwt beam="1">  1        2 0.22720258E+00 0.10000120E+04</pdfrwt>
<pdfrwt beam="2">  1       -2 0.26044167E-01 0.10000120E+04</pdfrwt>
<totfact> 0.20828461E+02</totfact>
</mgrwt>
</event>
<event>
 9    1  0.4296086E-036  0.9994838E+03  0.7818608E-02  0.8681530E-01
         -1   -1    0    0    0  501 -0.00000000000E+00  0.00000000000E+00  0.28510747730E+03  0.28510747730E+03  0.00000000000E+00 0.  1.
          1   -1    0    0  501    0  0.00000000000E+00 -0.00000000000E+00 -0.87595718261E+03  0.87595718261E+03  0.00000000000E+00 0.  1.
         36    2    1    2    0    0  0.35527136788E-13  0.00000000000E+00 -0.59084970532E+03  0.11610646599E+04  0.99948375185E+03 0.  0.
         25    2    3    3    0    0  0.34758604210E+02 -0.78933386227E+02 -0.23942045128E+03  0.28318981300E+03  0.12424040272E+03 0.  0.
         35    2    3    3    0    0 -0.34758604210E+02  0.78933386227E+02 -0.35142925404E+03  0.87787484691E+03  0.79982691016E+03 0.  0.
         22    1    5    5    0    0  0.32445053369E+03 -0.13905361584E+02  0.53001131391E+02  0.32904502401E+03  0.00000000000E+00 0.  1.
         22    1    5    5    0    0 -0.35920913790E+03  0.92838747811E+02 -0.40443038543E+03  0.54882982290E+03  0.00000000000E+00 0.  1.
          5    1    4    4  502    0  0.46495535385E+02 -0.10897854710E+03 -0.18419429202E+03  0.21906114615E+03  0.47000000000E+01 0. -1.
         -5    1    4    4    0  502 -0.11736931176E+02  0.30045160877E+02 -0.55226159260E+02  0.64128666851E+02  0.47000000000E+01 0.  1.
<mgrwt>
<rscale>  0 0.99948375E+03</rscale>
<asrwt>0</asrwt>
<pdfrwt beam="1">  1        1 0.13476264E+00 0.99948375E+03</pdfrwt>
<pdfrwt beam="2">  1       -1 0.43862689E-01 0.99948375E+03</pdfrwt>
<totfact> 0.11066313E+02</totfact>
</mgrwt>
</event>
<event>
 9    1  0.4296086E-036  0.1000165E+04  0.7818608E-02  0.8680881E-01
          2   -1    0    0  501    0  0.00000000000E+00  0.00000000000E+00  0.27598545952E+03  0.27598545952E+03  0.00000000000E+00 0.  1.
         -2   -1    0    0    0  501 -0.00000000000E+00 -0.00000000000E+00 -0.90614410958E+03  0.90614410958E+03  0.00000000000E+00 0.  1.
         36    2    1    2    0    0  0.00000000000E+00  0.00000000000E+00 -0.63015865006E+03  0.11821295691E+04  0.10001651833E+04 0.  0.
         25    2    3    3    0    0  0.91568322053E+02  0.93021915032E+02 -0.58096707921E+02  0.18898317414E+03  0.12369954873E+03 0.  0.
         35    2    3    3    0    0 -0.91568322053E+02 -0.93021915032E+02 -0.57206194213E+03  0.99314639496E+03  0.80127839226E+03 0.  0.
         22    1    5    5    0    0  0.19872058500E+02  0.32322418027E+03 -0.43230206191E+03  0.54014242765E+03  0.00000000000E+00 0. -1.
         22    1    5    5    0    0 -0.11144038055E+03 -0.41624609530E+03 -0.13975988022E+03  0.45300396730E+03  0.00000000000E+00 0. -1.
          5    1    4    4  502    0  0.68712534495E+02 -0.12997325156E+02 -0.33459871491E+02  0.77665924691E+02  0.47000000000E+01 0. -1.
         -5    1    4    4    0  502  0.22855787558E+02  0.10601924019E+03 -0.24636836430E+02  0.11131724945E+03  0.47000000000E+01 0. -1.
<mgrwt>
<rscale>  0 0.10001652E+04</rscale>
<asrwt>0</asrwt>
<pdfrwt beam="1">  1        2 0.42459302E-01 0.10001652E+04</pdfrwt>
<pdfrwt beam="2">  1       -2 0.13940678E+00 0.10001652E+04</pdfrwt>
<totfact> 0.50035047E+01</totfact>
</mgrwt>
</event>
<event>
 9    1  0.4296086E-036  0.9994113E+03  0.7818608E-02  0.8681599E-01
         -2   -1    0    0    0  501 -0.00000000000E+00  0.00000000000E+00  0.28749736369E+03  0.28749736369E+03  0.00000000000E+00 0. -1.
          2   -1    0    0  501    0  0.00000000000E+00 -0.00000000000E+00 -0.86854961172E+03  0.86854961172E+03  0.00000000000E+00 0. -1.
         36    2    1    2    0    0  0.71054273576E-14 -0.28421709430E-13 -0.58105224803E+03  0.11560469754E+04  0.99941127390E+03 0.  0.
         25    2    3    3    0    0  0.29281827121E+02  0.45696647535E+02  0.40620728969E+02  0.14259707472E+03  0.12545227420E+03 0.  0.
         35    2    3    3    0    0 -0.29281827121E+02 -0.45696647535E+02 -0.62167297700E+03  0.10134499007E+04  0.79853478438E+03 0.  0.
         22    1    5    5    0    0 -0.41651679110E+02  0.34727389580E+03 -0.48342772198E+03  0.59668784423E+03  0.00000000000E+00 0. -1.
         22    1    5    5    0    0  0.12369851989E+02 -0.39297054333E+03 -0.13824525503E+03  0.41676205645E+03  0.00000000000E+00 0. -1.
          5    1    4    4  502    0  0.68962723414E+02  0.49150619669E+02  0.53729207855E+02  0.10040198410E+03  0.47000000000E+01 0.  1.
         -5    1    4    4    0  502 -0.39680896293E+02 -0.34539721345E+01 -0.13108478886E+02  0.42195090625E+02  0.47000000000E+01 0.  1.
<mgrwt>
<rscale>  0 0.99941127E+03</rscale>
<asrwt>0</asrwt>
<pdfrwt beam="1">  1        2 0.13362301E+00 0.99941127E+03</pdfrwt>
<pdfrwt beam="2">  1       -2 0.44230365E-01 0.99941127E+03</pdfrwt>
<totfact> 0.18071395E+02</totfact>
</mgrwt>
</event>
<event>
 9    1  0.4296086E-036  0.9992054E+03  0.7818608E-02  0.8681795E-01
          1   -1    0    0  501    0  0.00000000000E+00  0.00000000000E+00  0.60234048057E+03  0.60234048057E+03  0.00000000000E+00 0. -1.
         -1   -1    0    0    0  501 -0.00000000000E+00 -0.00000000000E+00 -0.41438829593E+03  0.41438829593E+03  0.00000000000E+00 0. -1.
         36    2    1    2    0    0  0.14210854715E-13  0.14210854715E-13  0.18795218465E+03  0.10167287765E+04  0.99920537491E+03 0.  0.
         25    2    3    3    0    0 -0.36927364260E+02 -0.73079258204E+02  0.14629017444E+03  0.20918266812E+03  0.12510941328E+03 0.  0.
         35    2    3    3    0    0  0.36927364260E+02  0.73079258204E+02  0.41662010209E+02  0.80754610838E+03  0.80230342506E+03 0.  0.
         22    1    5    5    0    0  0.22576760494E+03 -0.19985723007E+03  0.26995986269E+03  0.40471255394E+03  0.00000000000E+00 0. -1.
         22    1    5    5    0    0 -0.18884024068E+03  0.27293648828E+03 -0.22829785248E+03  0.40283355444E+03  0.00000000000E+00 0. -1.
          5    1    4    4  502    0  0.46410949066E+02 -0.22984673058E+02  0.46254871147E+02  0.69597948918E+02  0.47000000000E+01 0.  1.
         -5    1    4    4    0  502 -0.83338313326E+02 -0.50094585146E+02  0.10003530329E+03  0.13958471920E+03  0.47000000000E+01 0.  1.
<mgrwt>
<rscale>  0 0.99920537E+03</rscale>
<asrwt>0</asrwt>
<pdfrwt beam="1">  1        1 0.92667766E-01 0.99920537E+03</pdfrwt>
<pdfrwt beam="2">  1       -1 0.63752046E-01 0.99920537E+03</pdfrwt>
<totfact> 0.98865539E+01</totfact>
</mgrwt>
</event>
<event>
 9    1  0.4296086E-036  0.9958192E+03  0.7818608E-02  0.8685030E-01
          2   -1    0    0  501    0  0.00000000000E+00  0.00000000000E+00  0.13907265411E+04  0.13907265411E+04  0.00000000000E+00 0. -1.
         -2   -1    0    0    0  501 -0.00000000000E+00 -0.00000000000E+00 -0.17826219706E+03  0.17826219706E+03  0.00000000000E+00 0. -1.
         36    2    1    2    0    0  0.00000000000E+00  0.00000000000E+00  0.12124643440E+04  0.15689887382E+04  0.99581919791E+03 0.  0.
         25    2    3    3    0    0 -0.10899280190E+02 -0.43994597586E+02  0.42598642803E+03  0.44566447499E+03  0.12287419777E+03 0.  0.
         35    2    3    3    0    0  0.10899280190E+02  0.43994597586E+02  0.78647791600E+03  0.11233242632E+04  0.80078434609E+03 0.  0.
         22    1    5    5    0    0 -0.33609555722E+03 -0.33106822194E+02  0.10323497458E+03  0.35314833319E+03  0.00000000000E+00 0. -1.
         22    1    5    5    0    0  0.34699483741E+03  0.77101419780E+02  0.68324294142E+03  0.77017592998E+03  0.00000000000E+00 0. -1.
          5    1    4    4  502    0 -0.51685262452E+02 -0.58501111211E+02  0.34459387453E+03  0.35335644147E+03  0.47000000000E+01 0.  1.
         -5    1    4    4    0  502  0.40785982261E+02  0.14506513625E+02  0.81392553503E+02  0.92308033520E+02  0.47000000000E+01 0.  1.
<mgrwt>
<rscale>  0 0.99581920E+03</rscale>
<asrwt>0</asrwt>
<pdfrwt beam="1">  1        2 0.21395792E+00 0.99581920E+03</pdfrwt>
<pdfrwt beam="2">  1       -2 0.27424954E-01 0.99581920E+03</pdfrwt>
<totfact> 0.21257746E+02</totfact>
</mgrwt>
</event>
<event>
 9    1  0.4296086E-036  0.1000984E+04  0.7818608E-02  0.8680102E-01
         -2   -1    0    0    0  501 -0.00000000000E+00  0.00000000000E+00  0.10804666778E+03  0.10804666778E+03  0.00000000000E+00 0. -1.
          2   -1    0    0  501    0  0.00000000000E+00 -0.00000000000E+00 -0.23183691570E+04  0.23183691570E+04  0.00000000000E+00 0. -1.
         36    2    1    2    0    0  0.71054273576E-14  0.00000000000E+00 -0.22103224892E+04  0.24264158248E+04  0.10009836404E+04 0.  0.
         25    2    3    3    0    0 -0.10966437076E+01  0.11801827315E+03 -0.61411961270E+03  0.63774073123E+03  0.12506328854E+03 0.  0.
         35    2    3    3    0    0  0.10966437076E+01 -0.11801827315E+03 -0.15962028765E+04  0.17886750936E+04  0.79847695764E+03 0.  0.
         22    1    5    5    0    0 -0.66667730323E+02 -0.11799315497E+03  0.47476003581E+02  0.14359993664E+03  0.00000000000E+00 0. -1.
         22    1    5    5    0    0  0.67764374031E+02 -0.25118183031E-01 -0.16436788801E+04  0.16450751569E+04  0.00000000000E+00 0. -1.
          5    1    4    4  502    0 -0.21830304931E+02  0.12705246066E+01 -0.31717287777E+03  0.31796053346E+03  0.47000000000E+01 0.  1.
         -5    1    4    4    0  502  0.20733661223E+02  0.11674774855E+03 -0.29694673493E+03  0.31978019776E+03  0.47000000000E+01 0.  1.
<mgrwt>
<rscale>  0 0.10009836E+04</rscale>
<asrwt>0</asrwt>
<pdfrwt beam="1">  1        2 0.35667217E+00 0.10009836E+04</pdfrwt>
<pdfrwt beam="2">  1       -2 0.16622565E-01 0.10009836E+04</pdfrwt>
<totfact> 0.15048873E+02</totfact>
</mgrwt>
</event>
<event>
 9    1  0.4296086E-036  0.1000056E+04  0.7818608E-02  0.8680985E-01
         -1   -1    0    0    0  501 -0.00000000000E+00  0.00000000000E+00  0.13063854295E+03  0.13063854295E+03  0.00000000000E+00 0.  1.
          1   -1    0    0  501    0  0.00000000000E+00 -0.00000000000E+00 -0.19138906642E+04  0.19138906642E+04  0.00000000000E+00 0.  1.
         36    2    1    2    0    0  0.28421709430E-13  0.00000000000E+00 -0.17832521213E+04  0.20445292072E+04  0.10000557739E+04 0.  0.
         25    2    3    3    0    0 -0.21455042439E+02  0.40846828416E+02 -0.60591687989E+03  0.62043704642E+03  0.12521214396E+03 0.  0.
         35    2    3    3    0    0  0.21455042439E+02 -0.40846828416E+02 -0.11773352414E+04  0.14240921608E+04  0.79986963282E+03 0.  0.
         22    1    5    5    0    0  0.28874034513E+03 -0.16558938919E+03 -0.16860144069E+03  0.37311831705E+03  0.00000000000E+00 0. -1.
         22    1    5    5    0    0 -0.26728530269E+03  0.12474256077E+03 -0.10087338007E+04  0.10509738437E+04  0.00000000000E+00 0. -1.
          5    1    4    4  502    0 -0.53093769077E+01 -0.44182666742E+02 -0.15818283178E+03  0.16439037622E+03  0.47000000000E+01 0. -1.
         -5    1    4    4    0  502 -0.16145665532E+02  0.85029495158E+02 -0.44773404811E+03  0.45604667020E+03  0.47000000000E+01 0. -1.
<mgrwt>
<rscale>  0 0.10000558E+04</rscale>
<asrwt>0</asrwt>
<pdfrwt beam="1">  1        1 0.29444472E+00 0.10000558E+04</pdfrwt>
<pdfrwt beam="2">  1       -1 0.20098237E-01 0.10000558E+04</pdfrwt>
<totfact> 0.72600783E+01</totfact>
</mgrwt>
</event>
<event>
 9    1  0.4296086E-036  0.9984073E+03  0.7818608E-02  0.8682556E-01
         -1   -1    0    0    0  501 -0.00000000000E+00  0.00000000000E+00  0.48237580176E+03  0.48237580176E+03  0.00000000000E+00 0. -1.
          1   -1    0    0  501    0  0.00000000000E+00 -0.00000000000E+00 -0.51661858853E+03  0.51661858853E+03  0.00000000000E+00 0. -1.
         36    2    1    2    0    0 -0.14210854715E-13 -0.21316282073E-13 -0.34242786776E+02  0.99899439029E+03  0.99840734342E+03 0.  0.
         25    2    3    3    0    0  0.10590694112E+03 -0.29116502660E+02 -0.90513844072E+02  0.18925974328E+03  0.12474952326E+03 0.  0.
         35    2    3    3    0    0 -0.10590694112E+03  0.29116502660E+02  0.56271057295E+02  0.80973464701E+03  0.80027477517E+03 0.  0.
         22    1    5    5    0    0 -0.37572285947E+03 -0.22036326491E+03  0.74045036720E+02  0.44182610054E+03  0.00000000000E+00 0.  1.
         22    1    5    5    0    0  0.26981591835E+03  0.24947976757E+03 -0.17773979425E+02  0.36790854647E+03  0.00000000000E+00 0.  1.
          5    1    4    4  502    0  0.58469906012E+02  0.37028636025E+02 -0.26844304843E+01  0.69420068871E+02  0.47000000000E+01 0. -1.
         -5    1    4    4    0  502  0.47437035107E+02 -0.66145138686E+02 -0.87829413587E+02  0.11983967441E+03  0.47000000000E+01 0. -1.
<mgrwt>
<rscale>  0 0.99840734E+03</rscale>
<asrwt>0</asrwt>
<pdfrwt beam="1">  1        1 0.79479783E-01 0.99840734E+03</pdfrwt>
<pdfrwt beam="2">  1       -1 0.74211661E-01 0.99840734E+03</pdfrwt>
<totfact> 0.91170648E+01</totfact>
</mgrwt>
</event>
<event>
 9    1  0.4296086E-036  0.1000247E+04  0.7818608E-02  0.8680803E-01
         -2   -1    0    0    0  501 -0.00000000000E+00  0.00000000000E+00  0.26239577743E+03  0.26239577743E+03  0.00000000000E+00 0. -1.
          2   -1    0    0  501    0  0.00000000000E+00 -0.00000000000E+00 -0.95322932810E+03  0.95322932810E+03  0.00000000000E+00 0. -1.
         36    2    1    2    0    0  0.14210854715E-13  0.00000000000E+00 -0.69083355067E+03  0.12156251055E+04  0.10002466708E+04 0.  0.
         25    2    3    3    0    0 -0.22487695586E+02 -0.71349667173E+02  0.13848863748E+02  0.14628212436E+03  0.12494077566E+03 0.  0.
         35    2    3    3    0    0  0.22487695586E+02  0.71349667173E+02 -0.70468241442E+03  0.10693429812E+04  0.80082497135E+03 0.  0.
         22    1    5    5    0    0  0.22945677841E+03  0.52239712435E+02 -0.80489870896E+03  0.83859485593E+03  0.00000000000E+00 0. -1.
         22    1    5    5    0    0 -0.20696908282E+03  0.19109954738E+02  0.10021629454E+03  0.23074812524E+03  0.00000000000E+00 0. -1.
          5    1    4    4  502    0  0.41217244252E+02  0.94321584890E+01  0.16365030454E+01  0.42574581380E+02  0.47000000000E+01 0. -1.
         -5    1    4    4    0  502 -0.63704939838E+02 -0.80781825662E+02  0.12212360702E+02  0.10370754298E+03  0.47000000000E+01 0. -1.
<mgrwt>
<rscale>  0 0.10002467E+04</rscale>
<asrwt>0</asrwt>
<pdfrwt beam="1">  1        2 0.14665067E+00 0.10002467E+04</pdfrwt>
<pdfrwt beam="2">  1       -2 0.40368581E-01 0.10002467E+04</pdfrwt>
<totfact> 0.18977918E+02</totfact>
</mgrwt>
</event>
<event>
 9    1  0.4296086E-036  0.9991661E+03  0.7818608E-02  0.8681833E-01
         -1   -1    0    0    0  501 -0.00000000000E+00  0.00000000000E+00  0.39707573764E+03  0.39707573764E+03  0.00000000000E+00 0. -1.
          1   -1    0    0  501    0  0.00000000000E+00 -0.00000000000E+00 -0.62855313782E+03  0.62855313782E+03  0.00000000000E+00 0. -1.
         36    2    1    2    0    0 -0.14210854715E-13 -0.14210854715E-13 -0.23147740018E+03  0.10256288755E+04  0.99916605396E+03 0.  0.
         25    2    3    3    0    0  0.11511002478E+03  0.76701538203E+02 -0.47967178441E+02  0.19323876080E+03  0.12612265736E+03 0.  0.
         35    2    3    3    0    0 -0.11511002478E+03 -0.76701538203E+02 -0.18351022174E+03  0.83239011466E+03  0.80003991009E+03 0.  0.
         22    1    5    5    0    0 -0.96853518109E+02 -0.16707352258E+03  0.29086578031E+03  0.34913760622E+03  0.00000000000E+00 0.  1.
         22    1    5    5    0    0 -0.18256506669E+02  0.90371984379E+02 -0.47437600205E+03  0.48325250844E+03  0.00000000000E+00 0.  1.
          5    1    4    4  502    0  0.13258883574E+02 -0.20362151950E+02 -0.46249609744E+02  0.52455043867E+02  0.47000000000E+01 0. -1.
         -5    1    4    4    0  502  0.10185114120E+03  0.97063690153E+02 -0.17175686974E+01  0.14078371693E+03  0.47000000000E+01 0. -1.
<mgrwt>
<rscale>  0 0.99916605E+03</rscale>
<asrwt>0</asrwt>
<pdfrwt beam="1">  1        1 0.96700483E-01 0.99916605E+03</pdfrwt>
<pdfrwt beam="2">  1       -1 0.61088575E-01 0.99916605E+03</pdfrwt>
<totfact> 0.10084014E+02</totfact>
</mgrwt>
</event>
<event>
 9    1  0.4296086E-036  0.9996239E+03  0.7818608E-02  0.8681396E-01
          2   -1    0    0  501    0  0.00000000000E+00  0.00000000000E+00  0.81891226815E+03  0.81891226815E+03  0.00000000000E+00 0. -1.
         -2   -1    0    0    0  501 -0.00000000000E+00 -0.00000000000E+00 -0.30505340232E+03  0.30505340232E+03  0.00000000000E+00 0. -1.
         36    2    1    2    0    0  0.35527136788E-14  0.56843418861E-13  0.51385886583E+03  0.11239656705E+04  0.99962387646E+03 0.  0.
         25    2    3    3    0    0 -0.21702605093E+00  0.94735288430E+02  0.21178925938E+03  0.26350538121E+03  0.12492227008E+03 0.  0.
         35    2    3    3    0    0  0.21702605093E+00 -0.94735288430E+02  0.30206960646E+03  0.86046028926E+03  0.80010689303E+03 0.  0.
         22    1    5    5    0    0  0.55183422548E+02 -0.36360245547E+03  0.42304330040E+03  0.56055114821E+03  0.00000000000E+00 0. -1.
         22    1    5    5    0    0 -0.54966396497E+02  0.26886716704E+03 -0.12097369394E+03  0.29990914104E+03  0.00000000000E+00 0. -1.
          5    1    4    4  502    0 -0.31582945275E+02  0.96990657447E+02  0.20770507715E+03  0.23144796205E+03  0.47000000000E+01 0. -1.
         -5    1    4    4    0  502  0.31365919224E+02 -0.22553690168E+01  0.40841822231E+01  0.32057419151E+02  0.47000000000E+01 0. -1.
<mgrwt>
<rscale>  0 0.99962388E+03</rscale>
<asrwt>0</asrwt>
<pdfrwt beam="1">  1        2 0.12598650E+00 0.99962388E+03</pdfrwt>
<pdfrwt beam="2">  1       -2 0.46931293E-01 0.99962388E+03</pdfrwt>
<totfact> 0.17388213E+02</totfact>
</mgrwt>
</event>
<event>
 9    1  0.4296086E-036  0.1000144E+04  0.7818608E-02  0.8680901E-01
         -1   -1    0    0    0  501 -0.00000000000E+00  0.00000000000E+00  0.68756700543E+03  0.68756700543E+03  0.00000000000E+00 0.  1.
          1   -1    0    0  501    0  0.00000000000E+00 -0.00000000000E+00 -0.36370583304E+03  0.36370583304E+03  0.00000000000E+00 0.  1.
         36    2    1    2    0    0  0.14210854715E-13  0.71054273576E-14  0.32386117240E+03  0.10512728385E+04  0.10001442506E+04 0.  0.
         25    2    3    3    0    0  0.32692436787E+02 -0.15676034763E+02  0.20344520255E+03  0.24135456503E+03  0.12468978360E+03 0.  0.
         35    2    3    3    0    0 -0.32692436787E+02  0.15676034763E+02  0.12041596985E+03  0.80991827344E+03  0.80009566326E+03 0.  0.
         22    1    5    5    0    0  0.19916106404E+03 -0.17659348869E+03  0.34388805837E+03  0.43486709047E+03  0.00000000000E+00 0.  1.
         22    1    5    5    0    0 -0.23185350083E+03  0.19226952346E+03 -0.22347208853E+03  0.37505118297E+03  0.00000000000E+00 0.  1.
          5    1    4    4  502    0 -0.44379638413E+01 -0.63878793170E+02  0.13602526407E+03  0.15041661546E+03  0.47000000000E+01 0. -1.
         -5    1    4    4    0  502  0.37130400628E+02  0.48202758407E+02  0.67419938476E+02  0.90937949575E+02  0.47000000000E+01 0. -1.
<mgrwt>
<rscale>  0 0.10001443E+04</rscale>
<asrwt>0</asrwt>
<pdfrwt beam="1">  1        1 0.55954744E-01 0.10001443E+04</pdfrwt>
<pdfrwt beam="2">  1       -1 0.10577954E+00 0.10001443E+04</pdfrwt>
<totfact> 0.68426916E+01</totfact>
</mgrwt>
</event>
<event>
 9    1  0.4296086E-036  0.1000244E+04  0.7818608E-02  0.8680805E-01
         -1   -1    0    0    0  501 -0.00000000000E+00  0.00000000000E+00  0.16898625750E+03  0.16898625750E+03  0.00000000000E+00 0.  1.
          1   -1    0    0  501    0  0.00000000000E+00 -0.00000000000E+00 -0.14801335735E+04  0.14801335735E+04  0.00000000000E+00 0.  1.
         36    2    1    2    0    0  0.00000000000E+00  0.28421709430E-13 -0.13111473160E+04  0.16491198310E+04  0.10002444365E+04 0.  0.
         25    2    3    3    0    0  0.13558060514E+03  0.37223331314E+02 -0.25123898930E+03  0.31371535172E+03  0.12461386472E+03 0.  0.
         35    2    3    3    0    0 -0.13558060514E+03 -0.37223331314E+02 -0.10599083267E+04  0.13354044793E+04  0.80008236164E+03 0.  0.
         22    1    5    5    0    0 -0.66339466134E+02  0.38182995205E+03 -0.51357884009E+03  0.64339588283E+03  0.00000000000E+00 0. -1.
         22    1    5    5    0    0 -0.69241139004E+02 -0.41905328337E+03 -0.54632948663E+03  0.69200859647E+03  0.00000000000E+00 0. -1.
          5    1    4    4  502    0  0.20060998846E+02  0.56177779433E+02 -0.13960137718E+03  0.15188489421E+03  0.47000000000E+01 0. -1.
         -5    1    4    4    0  502  0.11551960629E+03 -0.18954448118E+02 -0.11163761212E+03  0.16183045752E+03  0.47000000000E+01 0. -1.
<mgrwt>
<rscale>  0 0.10002444E+04</rscale>
<asrwt>0</asrwt>
<pdfrwt beam="1">  1        1 0.22771286E+00 0.10002444E+04</pdfrwt>
<pdfrwt beam="2">  1       -1 0.25997885E-01 0.10002444E+04</pdfrwt>
<totfact> 0.95595330E+01</totfact>
</mgrwt>
</event>
<event>
 9    1  0.4296086E-036  0.9993815E+03  0.7818608E-02  0.8681627E-01
         -2   -1    0    0    0  501 -0.00000000000E+00  0.00000000000E+00  0.23836751939E+03  0.23836751939E+03  0.00000000000E+00 0. -1.
          2   -1    0    0  501    0  0.00000000000E+00 -0.00000000000E+00 -0.10475035573E+04  0.10475035573E+04  0.00000000000E+00 0. -1.
         36    2    1    2    0    0 -0.21316282073E-13  0.17763568394E-14 -0.80913603794E+03  0.12858710767E+04  0.99938145774E+03 0.  0.
         25    2    3    3    0    0  0.36413740656E+02 -0.48245581293E+01 -0.30932654063E+03  0.33533700979E+03  0.12417231787E+03 0.  0.
         35    2    3    3    0    0 -0.36413740656E+02  0.48245581293E+01 -0.49980949731E+03  0.95053406694E+03  0.80768573216E+03 0.  0.
         22    1    5    5    0    0  0.37739496304E+03  0.26550805176E+02 -0.33242634739E+03  0.50362603172E+03  0.00000000000E+00 0. -1.
         22    1    5    5    0    0 -0.41380870370E+03 -0.21726247047E+02 -0.16738314992E+03  0.44690803522E+03  0.00000000000E+00 0. -1.
          5    1    4    4  502    0  0.80651107401E+02 -0.84834016717E+01 -0.23492663142E+03  0.24857429751E+03  0.47000000000E+01 0. -1.
         -5    1    4    4    0  502 -0.44237366745E+02  0.36588435424E+01 -0.74399909206E+02  0.86762712282E+02  0.47000000000E+01 0. -1.
<mgrwt>
<rscale>  0 0.99938146E+03</rscale>
<asrwt>0</asrwt>
<pdfrwt beam="1">  1        2 0.16115439E+00 0.99938146E+03</pdfrwt>
<pdfrwt beam="2">  1       -2 0.36671926E-01 0.99938146E+03</pdfrwt>
<totfact> 0.19871848E+02</totfact>
</mgrwt>
</event>
<event>
 9    1  0.4296086E-036  0.9997473E+03  0.7818608E-02  0.8681279E-01
         -1   -1    0    0    0  501 -0.00000000000E+00  0.00000000000E+00  0.39096486756E+03  0.39096486756E+03  0.00000000000E+00 0. -1.
          1   -1    0    0  501    0  0.00000000000E+00 -0.00000000000E+00 -0.63912054643E+03  0.63912054643E+03  0.00000000000E+00 0. -1.
         36    2    1    2    0    0  0.14210854715E-13  0.28421709430E-13 -0.24815567887E+03  0.10300854140E+04  0.99974732766E+03 0.  0.
         25    2    3    3    0    0  0.29738884144E+02 -0.77537915523E+02  0.66053250051E+02  0.16403992986E+03  0.12509811018E+03 0.  0.
         35    2    3    3    0    0 -0.29738884144E+02  0.77537915523E+02 -0.31420892892E+03  0.86604548414E+03  0.80275214108E+03 0.  0.
         22    1    5    5    0    0  0.13827376039E+03 -0.21419049271E+03 -0.43846382525E+03  0.50719594442E+03  0.00000000000E+00 0. -1.
         22    1    5    5    0    0 -0.16801264454E+03  0.29172840823E+03  0.12425489633E+03  0.35884953972E+03  0.00000000000E+00 0. -1.
          5    1    4    4  502    0 -0.16832078848E+02 -0.61358344069E+02 -0.18169407046E+02  0.66335379833E+02  0.47000000000E+01 0. -1.
         -5    1    4    4    0  502  0.46570962992E+02 -0.16179571454E+02  0.84222657097E+02  0.97704550022E+02  0.47000000000E+01 0. -1.
<mgrwt>
<rscale>  0 0.99974733E+03</rscale>
<asrwt>0</asrwt>
<pdfrwt beam="1">  1        1 0.98326237E-01 0.99974733E+03</pdfrwt>
<pdfrwt beam="2">  1       -1 0.60148441E-01 0.99974733E+03</pdfrwt>
<totfact> 0.10134348E+02</totfact>
</mgrwt>
</event>
<event>
 9    1  0.4296086E-036  0.9997803E+03  0.7818608E-02  0.8681247E-01
          1   -1    0    0  501    0  0.00000000000E+00  0.00000000000E+00  0.56267624356E+03  0.56267624356E+03  0.00000000000E+00 0.  1.
         -1   -1    0    0    0  501 -0.00000000000E+00 -0.00000000000E+00 -0.44411001185E+03  0.44411001185E+03  0.00000000000E+00 0.  1.
         36    2    1    2    0    0  0.00000000000E+00 -0.28421709430E-13  0.11856623171E+03  0.10067862554E+04  0.99978028225E+03 0.  0.
         25    2    3    3    0    0 -0.46441504047E+02  0.75708481718E+02 -0.88309168752E+02  0.17742957022E+03  0.12567480098E+03 0.  0.
         35    2    3    3    0    0  0.46441504047E+02 -0.75708481718E+02  0.20687540046E+03  0.82935668518E+03  0.79821456541E+03 0.  0.
         22    1    5    5    0    0 -0.56716697207E+02  0.35278278958E+03  0.46383698432E+02  0.36031087667E+03  0.00000000000E+00 0.  1.
         22    1    5    5    0    0  0.10315820125E+03 -0.42849127130E+03  0.16049170203E+03  0.46904580851E+03  0.00000000000E+00 0.  1.
          5    1    4    4  502    0  0.24769985551E+02  0.17765196161E+02  0.18925255062E+02  0.36185765959E+02  0.47000000000E+01 0. -1.
         -5    1    4    4    0  502 -0.71211489599E+02  0.57943285557E+02 -0.10723442381E+03  0.14124380426E+03  0.47000000000E+01 0. -1.
<mgrwt>
<rscale>  0 0.99978028E+03</rscale>
<asrwt>0</asrwt>
<pdfrwt beam="1">  1        1 0.86565577E-01 0.99978028E+03</pdfrwt>
<pdfrwt beam="2">  1       -1 0.68324617E-01 0.99978028E+03</pdfrwt>
<totfact> 0.95275088E+01</totfact>
</mgrwt>
</event>
<event>
 9    1  0.4296086E-036  0.9994522E+03  0.7818608E-02  0.8681560E-01
         -2   -1    0    0    0  501 -0.00000000000E+00  0.00000000000E+00  0.24694622448E+03  0.24694622448E+03  0.00000000000E+00 0. -1.
          2   -1    0    0  501    0  0.00000000000E+00 -0.00000000000E+00 -0.10112573527E+04  0.10112573527E+04  0.00000000000E+00 0. -1.
         36    2    1    2    0    0 -0.28421709430E-13  0.14210854715E-13 -0.76431112818E+03  0.12582035771E+04  0.99945222041E+03 0.  0.
         25    2    3    3    0    0 -0.28443535648E+02  0.77850843628E+02 -0.28533447749E+03  0.32253096785E+03  0.12546183724E+03 0.  0.
         35    2    3    3    0    0  0.28443535648E+02 -0.77850843628E+02 -0.47897665069E+03  0.93567260930E+03  0.79949659868E+03 0.  0.
         22    1    5    5    0    0  0.27970738188E+03 -0.22155582554E+03  0.21552008117E+02  0.35747404432E+03  0.00000000000E+00 0. -1.
         22    1    5    5    0    0 -0.25126384623E+03  0.14370498191E+03 -0.50052865881E+03  0.57819856498E+03  0.00000000000E+00 0. -1.
          5    1    4    4  502    0 -0.56799405984E+02 -0.27164960813E+01 -0.66801193113E+02  0.87852383419E+02  0.47000000000E+01 0.  1.
         -5    1    4    4    0  502  0.28355870336E+02  0.80567339709E+02 -0.21853328438E+03  0.23467858443E+03  0.47000000000E+01 0.  1.
<mgrwt>
<rscale>  0 0.99945222E+03</rscale>
<asrwt>0</asrwt>
<pdfrwt beam="1">  1        2 0.15557806E+00 0.99945222E+03</pdfrwt>
<pdfrwt beam="2">  1       -2 0.37991726E-01 0.99945222E+03</pdfrwt>
<totfact> 0.19577614E+02</totfact>
</mgrwt>
</event>
<event>
 9    1  0.4296086E-036  0.1000697E+04  0.7818608E-02  0.8680374E-01
         -1   -1    0    0    0  501 -0.00000000000E+00  0.00000000000E+00  0.71384184775E+02  0.71384184775E+02  0.00000000000E+00 0.  1.
          1   -1    0    0  501    0  0.00000000000E+00 -0.00000000000E+00 -0.35070616184E+04  0.35070616184E+04  0.00000000000E+00 0.  1.
         36    2    1    2    0    0 -0.21316282073E-13 -0.71054273576E-14 -0.34356774336E+04  0.35784458031E+04  0.10006972261E+04 0.  0.
         25    2    3    3    0    0 -0.63782936042E+02 -0.18196319441E+02 -0.10867575938E+04  0.10961359909E+04  0.12677804950E+03 0.  0.
         35    2    3    3    0    0  0.63782936042E+02  0.18196319441E+02 -0.23489198397E+04  0.24823098122E+04  0.80002388797E+03 0.  0.
         22    1    5    5    0    0  0.35479624655E+03  0.12932936980E+03 -0.18919073539E+04  0.19292277984E+04  0.00000000000E+00 0.  1.
         22    1    5    5    0    0 -0.29101331051E+03 -0.11113305036E+03 -0.45701248587E+03  0.55308201382E+03  0.00000000000E+00 0.  1.
          5    1    4    4  502    0  0.37668568021E+02 -0.98438695104E+01 -0.38986465897E+03  0.39183206236E+03  0.47000000000E+01 0.  1.
         -5    1    4    4    0  502 -0.10145150406E+03 -0.83524499303E+01 -0.69689293487E+03  0.70430392855E+03  0.47000000000E+01 0.  1.
<mgrwt>
<rscale>  0 0.10006972E+04</rscale>
<asrwt>0</asrwt>
<pdfrwt beam="1">  1        1 0.53954791E+00 0.10006972E+04</pdfrwt>
<pdfrwt beam="2">  1       -1 0.10982183E-01 0.10006972E+04</pdfrwt>
<totfact> 0.13987603E+01</totfact>
</mgrwt>
</event>
<event>
 9    1  0.4296086E-036  0.9999609E+03  0.7818608E-02  0.8681075E-01
          2   -1    0    0  501    0  0.00000000000E+00  0.00000000000E+00  0.12573102453E+04  0.12573102453E+04  0.00000000000E+00 0. -1.
         -2   -1    0    0    0  501 -0.00000000000E+00 -0.00000000000E+00 -0.19882161805E+03  0.19882161805E+03  0.00000000000E+00 0. -1.
         36    2    1    2    0    0  0.00000000000E+00 -0.14210854715E-13  0.10584886273E+04  0.14561318634E+04  0.99996091398E+03 0.  0.
         25    2    3    3    0    0  0.35292102381E+02 -0.12332518921E+03  0.12257844940E+03  0.21779447447E+03  0.12631041948E+03 0.  0.
         35    2    3    3    0    0 -0.35292102381E+02  0.12332518921E+03  0.93591017790E+03  0.12383373889E+04  0.80068532703E+03 0.  0.
         22    1    5    5    0    0 -0.71161714967E+02 -0.88555483718E+02 -0.11737772184E+03  0.16335113394E+03  0.00000000000E+00 0. -1.
         22    1    5    5    0    0  0.35869612586E+02  0.21188067293E+03  0.10532878997E+04  0.10749862550E+04  0.00000000000E+00 0. -1.
          5    1    4    4  502    0  0.31319769074E+02 -0.10678325650E+03  0.19326730175E+02  0.11304514277E+03  0.47000000000E+01 0. -1.
         -5    1    4    4    0  502  0.39723333072E+01 -0.16541932709E+02  0.10325171923E+03  0.10474933171E+03  0.47000000000E+01 0. -1.
<mgrwt>
<rscale>  0 0.99996091E+03</rscale>
<asrwt>0</asrwt>
<pdfrwt beam="1">  1        2 0.19343234E+00 0.99996091E+03</pdfrwt>
<pdfrwt beam="2">  1       -2 0.30587942E-01 0.99996091E+03</pdfrwt>
<totfact> 0.20827798E+02</totfact>
</mgrwt>
</event>
<event>
 9    1  0.4296086E-036  0.1000288E+04  0.7818608E-02  0.8680764E-01
          2   -1    0    0  501    0  0.00000000000E+00  0.00000000000E+00  0.16773371440E+04  0.16773371440E+04  0.00000000000E+00 0. -1.
         -2   -1    0    0    0  501 -0.00000000000E+00 -0.00000000000E+00 -0.14913150795E+03  0.14913150795E+03  0.00000000000E+00 0. -1.
         36    2    1    2    0    0  0.71054273576E-14  0.56843418861E-13  0.15282056360E+04  0.18264686519E+04  0.10002875939E+04 0.  0.
         25    2    3    3    0    0  0.46748407185E+02  0.12977165460E+03  0.34622661593E+03  0.39319453387E+03  0.12531151575E+03 0.  0.
         35    2    3    3    0    0 -0.46748407185E+02 -0.12977165460E+03  0.11819790201E+04  0.14332741181E+04  0.79885805850E+03 0.  0.
         22    1    5    5    0    0 -0.77877094863E+01  0.31427686732E+03  0.25537535706E+03  0.40502737036E+03  0.00000000000E+00 0.  1.
         22    1    5    5    0    0 -0.38960697699E+02 -0.44404852192E+03  0.92660366306E+03  0.10282467477E+04  0.00000000000E+00 0.  1.
          5    1    4    4  502    0  0.12705380861E+02  0.81235536472E+02  0.31585829179E+03  0.32641873350E+03  0.47000000000E+01 0. -1.
         -5    1    4    4    0  502  0.34043026324E+02  0.48536118129E+02  0.30368324136E+02  0.66775800371E+02  0.47000000000E+01 0. -1.
<mgrwt>
<rscale>  0 0.10002876E+04</rscale>
<asrwt>0</asrwt>
<pdfrwt beam="1">  1        2 0.25805185E+00 0.10002876E+04</pdfrwt>
<pdfrwt beam="2">  1       -2 0.22943310E-01 0.10002876E+04</pdfrwt>
<totfact> 0.20084635E+02</totfact>
</mgrwt>
</event>
<event>
 9    1  0.4296086E-036  0.1000372E+04  0.7818608E-02  0.8680684E-01
         -2   -1    0    0    0  501 -0.00000000000E+00  0.00000000000E+00  0.23120995969E+03  0.23120995969E+03  0.00000000000E+00 0.  1.
          2   -1    0    0  501    0  0.00000000000E+00 -0.00000000000E+00 -0.10820725437E+04  0.10820725437E+04  0.00000000000E+00 0.  1.
         36    2    1    2    0    0  0.14210854715E-13  0.00000000000E+00 -0.85086258400E+03  0.13132825034E+04  0.10003718293E+04 0.  0.
         25    2    3    3    0    0 -0.43007505428E+02 -0.13394467500E+03 -0.17210528651E+03  0.25506000061E+03  0.12507818667E+03 0.  0.
         35    2    3    3    0    0  0.43007505428E+02  0.13394467500E+03 -0.67875729749E+03  0.10582225028E+04  0.79958275057E+03 0.  0.
         22    1    5    5    0    0 -0.25111052877E+03  0.31273977947E+03 -0.57054717572E+03  0.69741432954E+03  0.00000000000E+00 0. -1.
         22    1    5    5    0    0  0.29411803420E+03 -0.17879510447E+03 -0.10821012176E+03  0.36080817324E+03  0.00000000000E+00 0. -1.
          5    1    4    4  502    0 -0.45385128912E+02 -0.10420296679E+03 -0.18889493757E+03  0.22050273389E+03  0.47000000000E+01 0. -1.
         -5    1    4    4    0  502  0.23776234844E+01 -0.29741708203E+02  0.16789651054E+02  0.34557266715E+02  0.47000000000E+01 0. -1.
<mgrwt>
<rscale>  0 0.10003718E+04</rscale>
<asrwt>0</asrwt>
<pdfrwt beam="1">  1        2 0.16647270E+00 0.10003718E+04</pdfrwt>
<pdfrwt beam="2">  1       -2 0.35570763E-01 0.10003718E+04</pdfrwt>
<totfact> 0.20038727E+02</totfact>
</mgrwt>
</event>
<event>
 9    1  0.4296086E-036  0.9996195E+03  0.7818608E-02  0.8681400E-01
          2   -1    0    0  501    0  0.00000000000E+00  0.00000000000E+00  0.25256247459E+04  0.25256247459E+04  0.00000000000E+00 0.  1.
         -2   -1    0    0    0  501 -0.00000000000E+00 -0.00000000000E+00 -0.98910101575E+02  0.98910101575E+02  0.00000000000E+00 0.  1.
         36    2    1    2    0    0  0.14210854715E-13 -0.28421709430E-13  0.24267146444E+04  0.26245348475E+04  0.99961952794E+03 0.  0.
         25    2    3    3    0    0 -0.12701276333E+03  0.18018822242E+02  0.31775591205E+03  0.36471117125E+03  0.12485390979E+03 0.  0.
         35    2    3    3    0    0  0.12701276333E+03 -0.18018822242E+02  0.21089587323E+04  0.22598236763E+04  0.80164779872E+03 0.  0.
         22    1    5    5    0    0  0.21730433401E+03 -0.37222047719E+03  0.92024559104E+03  0.10161797110E+04  0.00000000000E+00 0.  1.
         22    1    5    5    0    0 -0.90291570679E+02  0.35420165495E+03  0.11887131413E+04  0.12436439653E+04  0.00000000000E+00 0.  1.
          5    1    4    4  502    0 -0.12140021310E+03 -0.60507195464E+01  0.31700459026E+03  0.33954178416E+03  0.47000000000E+01 0. -1.
         -5    1    4    4    0  502 -0.56125502236E+01  0.24069541788E+02  0.75132179048E+00  0.25169387087E+02  0.47000000000E+01 0. -1.
<mgrwt>
<rscale>  0 0.99961953E+03</rscale>
<asrwt>0</asrwt>
<pdfrwt beam="1">  1        2 0.38855760E+00 0.99961953E+03</pdfrwt>
<pdfrwt beam="2">  1       -2 0.15216941E-01 0.99961953E+03</pdfrwt>
<totfact> 0.13113634E+02</totfact>
</mgrwt>
</event>
<event>
 9    1  0.4296086E-036  0.1000417E+04  0.7818608E-02  0.8680641E-01
          1   -1    0    0  501    0  0.00000000000E+00  0.00000000000E+00  0.34042245503E+03  0.34042245503E+03  0.00000000000E+00 0. -1.
         -1   -1    0    0    0  501 -0.00000000000E+00 -0.00000000000E+00 -0.73499453109E+03  0.73499453109E+03  0.00000000000E+00 0. -1.
         36    2    1    2    0    0 -0.14210854715E-13 -0.35527136788E-14 -0.39457207606E+03  0.10754169861E+04  0.10004171984E+04 0.  0.
         25    2    3    3    0    0 -0.76938290568E+02  0.34950198378E+01  0.51827749396E+02  0.15545468883E+03  0.12469293866E+03 0.  0.
         35    2    3    3    0    0  0.76938290568E+02 -0.34950198378E+01 -0.44639982545E+03  0.91996229729E+03  0.80070350852E+03 0.  0.
         22    1    5    5    0    0  0.43558587633E+03  0.31816670622E+02 -0.30562549350E+03  0.53306125207E+03  0.00000000000E+00 0.  1.
         22    1    5    5    0    0 -0.35864758576E+03 -0.35311690460E+02 -0.14077433195E+03  0.38690104522E+03  0.00000000000E+00 0.  1.
          5    1    4    4  502    0 -0.93208555693E+02 -0.31882804500E+02  0.59930401261E+02  0.11540403404E+03  0.47000000000E+01 0.  1.
         -5    1    4    4    0  502  0.16270265124E+02  0.35377824337E+02 -0.81026518647E+01  0.40050654792E+02  0.47000000000E+01 0.  1.
<mgrwt>
<rscale>  0 0.10004172E+04</rscale>
<asrwt>0</asrwt>
<pdfrwt beam="1">  1        1 0.52372685E-01 0.10004172E+04</pdfrwt>
<pdfrwt beam="2">  1       -1 0.11307608E+00 0.10004172E+04</pdfrwt>
<totfact> 0.63869405E+01</totfact>
</mgrwt>
</event>
<event>
 9    1  0.4296086E-036  0.1000375E+04  0.7818608E-02  0.8680681E-01
          2   -1    0    0  501    0  0.00000000000E+00  0.00000000000E+00  0.53727367057E+03  0.53727367057E+03  0.00000000000E+00 0. -1.
         -2   -1    0    0    0  501 -0.00000000000E+00 -0.00000000000E+00 -0.46566090572E+03  0.46566090572E+03  0.00000000000E+00 0. -1.
         36    2    1    2    0    0  0.00000000000E+00  0.00000000000E+00  0.71612764848E+02  0.10029345763E+04  0.10003746179E+04 0.  0.
         25    2    3    3    0    0 -0.20909864503E+02 -0.80761395993E+02  0.12602640277E+03  0.19646384997E+03  0.12552196874E+03 0.  0.
         35    2    3    3    0    0  0.20909864503E+02  0.80761395993E+02 -0.54413637921E+02  0.80647072632E+03  0.80029654685E+03 0.  0.
         22    1    5    5    0    0  0.11385354656E+03  0.19049748211E+03  0.32906880227E+03  0.39691081792E+03  0.00000000000E+00 0.  1.
         22    1    5    5    0    0 -0.92943682055E+02 -0.10973608611E+03 -0.38348244019E+03  0.40955990840E+03  0.00000000000E+00 0.  1.
          5    1    4    4  502    0  0.52023369314E+01 -0.10726080543E+03  0.11491951302E+03  0.15735478755E+03  0.47000000000E+01 0.  1.
         -5    1    4    4    0  502 -0.26112201434E+02  0.26499409434E+02  0.11106889744E+02  0.39109062426E+02  0.47000000000E+01 0.  1.
<mgrwt>
<rscale>  0 0.10003746E+04</rscale>
<asrwt>0</asrwt>
<pdfrwt beam="1">  1        2 0.82657487E-01 0.10003746E+04</pdfrwt>
<pdfrwt beam="2">  1       -2 0.71640140E-01 0.10003746E+04</pdfrwt>
<totfact> 0.12092617E+02</totfact>
</mgrwt>
</event>
<event>
 9    1  0.4296086E-036  0.1001567E+04  0.7818608E-02  0.8679547E-01
         -2   -1    0    0    0  501 -0.00000000000E+00  0.00000000000E+00  0.31855197333E+03  0.31855197333E+03  0.00000000000E+00 0.  1.
          2   -1    0    0  501    0  0.00000000000E+00 -0.00000000000E+00 -0.78726347323E+03  0.78726347323E+03  0.00000000000E+00 0.  1.
         36    2    1    2    0    0  0.00000000000E+00  0.00000000000E+00 -0.46871149990E+03  0.11058154466E+04  0.10015674374E+04 0.  0.
         25    2    3    3    0    0 -0.11897022578E+03 -0.73390989049E+02 -0.11158050671E+03  0.21821196351E+03  0.12500439850E+03 0.  0.
         35    2    3    3    0    0  0.11897022578E+03  0.73390989049E+02 -0.35713099319E+03  0.88760348305E+03  0.80047313817E+03 0.  0.
         22    1    5    5    0    0  0.16653980158E+03  0.10896899758E+03 -0.60282581023E+03  0.63482966646E+03  0.00000000000E+00 0. -1.
         22    1    5    5    0    0 -0.47569575796E+02 -0.35578008533E+02  0.24569481704E+03  0.25277381659E+03  0.00000000000E+00 0. -1.
          5    1    4    4  502    0 -0.76788694180E+02 -0.90132233126E+02 -0.26135303082E+02  0.12134853551E+03  0.47000000000E+01 0.  1.
         -5    1    4    4    0  502 -0.42181531603E+02  0.16741244076E+02 -0.85445203631E+02  0.96863428006E+02  0.47000000000E+01 0.  1.
<mgrwt>
<rscale>  0 0.10015674E+04</rscale>
<asrwt>0</asrwt>
<pdfrwt beam="1">  1        2 0.12111746E+00 0.10015674E+04</pdfrwt>
<pdfrwt beam="2">  1       -2 0.49007996E-01 0.10015674E+04</pdfrwt>
<totfact> 0.16791265E+02</totfact>
</mgrwt>
</event>
<event>
 9    1  0.4296086E-036  0.1000279E+04  0.7818608E-02  0.8680773E-01
          2   -1    0    0  501    0  0.00000000000E+00  0.00000000000E+00  0.25854138912E+03  0.25854138912E+03  0.00000000000E+00 0. -1.
         -2   -1    0    0    0  501 -0.00000000000E+00 -0.00000000000E+00 -0.96750204112E+03  0.96750204112E+03  0.00000000000E+00 0. -1.
         36    2    1    2    0    0 -0.35527136788E-14  0.71054273576E-14 -0.70896065200E+03  0.12260434302E+04  0.10002786046E+04 0.  0.
         25    2    3    3    0    0  0.16977975584E+02  0.52095696104E+02  0.28528768542E+02  0.13887203693E+03  0.12437579668E+03 0.  0.
         35    2    3    3    0    0 -0.16977975584E+02 -0.52095696104E+02 -0.73748942055E+03  0.10871713933E+04  0.79689947910E+03 0.  0.
         22    1    5    5    0    0  0.97332111847E+02  0.16477498728E+01  0.15649838713E+03  0.18430409721E+03  0.00000000000E+00 0.  1.
         22    1    5    5    0    0 -0.11431008743E+03 -0.53743445977E+02 -0.89398780767E+03  0.90286729609E+03  0.00000000000E+00 0.  1.
          5    1    4    4  502    0  0.25945802369E-02 -0.27409500661E+02  0.47698291897E+02  0.55213202978E+02  0.47000000000E+01 0. -1.
         -5    1    4    4    0  502  0.16975381004E+02  0.79505196765E+02 -0.19169523354E+02  0.83658833954E+02  0.47000000000E+01 0. -1.
<mgrwt>
<rscale>  0 0.10002786E+04</rscale>
<asrwt>0</asrwt>
<pdfrwt beam="1">  1        2 0.39775599E-01 0.10002786E+04</pdfrwt>
<pdfrwt beam="2">  1       -2 0.14884647E+00 0.10002786E+04</pdfrwt>
<totfact> 0.44935157E+01</totfact>
</mgrwt>
</event>
<event>
 9    1  0.4296086E-036  0.1000116E+04  0.7818608E-02  0.8680927E-01
         -1   -1    0    0    0  501 -0.00000000000E+00  0.00000000000E+00  0.10973350303E+04  0.10973350303E+04  0.00000000000E+00 0.  1.
          1   -1    0    0  501    0  0.00000000000E+00 -0.00000000000E+00 -0.22787773563E+03  0.22787773563E+03  0.00000000000E+00 0.  1.
         36    2    1    2    0    0 -0.14210854715E-13 -0.35527136788E-14  0.86945729468E+03  0.13252127659E+04  0.10001164371E+04 0.  0.
         25    2    3    3    0    0 -0.96149850092E+02  0.18057002943E+02  0.31687883662E+03  0.35523077984E+03  0.12730224198E+03 0.  0.
         35    2    3    3    0    0  0.96149850092E+02 -0.18057002943E+02  0.55257845805E+03  0.96998198611E+03  0.79117081092E+03 0.  0.
         22    1    5    5    0    0  0.37468009004E+03 -0.70111211336E+02  0.38677597897E+02  0.38314058569E+03  0.00000000000E+00 0.  1.
         22    1    5    5    0    0 -0.27853023995E+03  0.52054208393E+02  0.51390086016E+03  0.58684140042E+03  0.00000000000E+00 0.  1.
          5    1    4    4  502    0 -0.12533669450E+03  0.50468472216E+01  0.27541198630E+03  0.30266914255E+03  0.47000000000E+01 0.  1.
         -5    1    4    4    0  502  0.29186844405E+02  0.13010155721E+02  0.41466850321E+02  0.52561637282E+02  0.47000000000E+01 0.  1.
<mgrwt>
<rscale>  0 0.10001164E+04</rscale>
<asrwt>0</asrwt>
<pdfrwt beam="1">  1        1 0.35058114E-01 0.10001164E+04</pdfrwt>
<pdfrwt beam="2">  1       -1 0.16882077E+00 0.10001164E+04</pdfrwt>
<totfact> 0.35762318E+01</totfact>
</mgrwt>
</event>
<event>
 9    1  0.4296086E-036  0.1000046E+04  0.7818608E-02  0.8680994E-01
         -1   -1    0    0    0  501 -0.00000000000E+00  0.00000000000E+00  0.47000895982E+03  0.47000895982E+03  0.00000000000E+00 0. -1.
          1   -1    0    0  501    0  0.00000000000E+00 -0.00000000000E+00 -0.53195363842E+03  0.53195363842E+03  0.00000000000E+00 0. -1.
         36    2    1    2    0    0  0.14210854715E-13  0.71054273576E-14 -0.61944678608E+02  0.10019625982E+04  0.10000459515E+04 0.  0.
         25    2    3    3    0    0  0.12166764033E+03  0.33716828366E+02  0.51999920683E+02  0.18422820417E+03  0.12367780820E+03 0.  0.
         35    2    3    3    0    0 -0.12166764033E+03 -0.33716828366E+02 -0.11394459929E+03  0.81773439407E+03  0.79985394187E+03 0.  0.
         22    1    5    5    0    0  0.66939684964E+02  0.36052780735E+03 -0.10167615255E+03  0.38052498117E+03  0.00000000000E+00 0.  1.
         22    1    5    5    0    0 -0.18860732529E+03 -0.39424463572E+03 -0.12268446745E+02  0.43720941290E+03  0.00000000000E+00 0.  1.
          5    1    4    4  502    0  0.54308879779E+02  0.16218536352E+02  0.88732290565E+02  0.10539451946E+03  0.47000000000E+01 0.  1.
         -5    1    4    4    0  502  0.67358760552E+02  0.17498292013E+02 -0.36732369882E+02  0.78833684701E+02  0.47000000000E+01 0.  1.
<mgrwt>
<rscale>  0 0.10000460E+04</rscale>
<asrwt>0</asrwt>
<pdfrwt beam="1">  1        1 0.81839021E-01 0.10000460E+04</pdfrwt>
<pdfrwt beam="2">  1       -1 0.72309071E-01 0.10000460E+04</pdfrwt>
<totfact> 0.92186073E+01</totfact>
</mgrwt>
</event>
<event>
 9    1  0.4296086E-036  0.9995899E+03  0.7818608E-02  0.8681429E-01
          1   -1    0    0  501    0  0.00000000000E+00  0.00000000000E+00  0.54681151673E+03  0.54681151673E+03  0.00000000000E+00 0. -1.
         -1   -1    0    0    0  501 -0.00000000000E+00 -0.00000000000E+00 -0.45682101466E+03  0.45682101466E+03  0.00000000000E+00 0. -1.
         36    2    1    2    0    0  0.14210854715E-13 -0.14210854715E-13  0.89990502069E+02  0.10036325314E+04  0.99958989971E+03 0.  0.
         25    2    3    3    0    0  0.20719234318E+02 -0.63877765399E+02 -0.10752387321E+03  0.17696136780E+03  0.12346775612E+03 0.  0.
         35    2    3    3    0    0 -0.20719234318E+02  0.63877765399E+02  0.19751437528E+03  0.82667116359E+03  0.79991476339E+03 0.  0.
         22    1    5    5    0    0  0.21022495957E+03  0.30221100222E+03 -0.99448271162E+02  0.38133447540E+03  0.00000000000E+00 0.  1.
         22    1    5    5    0    0 -0.23094419389E+03 -0.23833323683E+03  0.29696264644E+03  0.44533668819E+03  0.00000000000E+00 0.  1.
          5    1    4    4  502    0  0.65460742394E+02 -0.32109311681E+02 -0.23979583454E+02  0.76897510454E+02  0.47000000000E+01 0.  1.
         -5    1    4    4    0  502 -0.44741508076E+02 -0.31768453718E+02 -0.83544289753E+02  0.10006385735E+03  0.47000000000E+01 0.  1.
<mgrwt>
<rscale>  0 0.99958990E+03</rscale>
<asrwt>0</asrwt>
<pdfrwt beam="1">  1        1 0.84124849E-01 0.99958990E+03</pdfrwt>
<pdfrwt beam="2">  1       -1 0.70280156E-01 0.99958990E+03</pdfrwt>
<totfact> 0.93849785E+01</totfact>
</mgrwt>
</event>
<event>
 9    1  0.4296086E-036  0.9995639E+03  0.7818608E-02  0.8681453E-01
         -2   -1    0    0    0  501 -0.00000000000E+00  0.00000000000E+00  0.22224210302E+03  0.22224210302E+03  0.00000000000E+00 0.  1.
          2   -1    0    0  501    0  0.00000000000E+00 -0.00000000000E+00 -0.11239185253E+04  0.11239185253E+04  0.00000000000E+00 0.  1.
         36    2    1    2    0    0  0.21316282073E-13  0.14210854715E-13 -0.90167642230E+03  0.13461606283E+04  0.99956393830E+03 0.  0.
         25    2    3    3    0    0  0.63750003350E+02  0.83140918421E+02 -0.29344326722E+03  0.33573660734E+03  0.12503456799E+03 0.  0.
         35    2    3    3    0    0 -0.63750003350E+02 -0.83140918421E+02 -0.60823315508E+03  0.10104240210E+04  0.80002040975E+03 0.  0.
         22    1    5    5    0    0 -0.77175044545E+02  0.30992555413E+03 -0.51537050916E+03  0.60631394369E+03  0.00000000000E+00 0. -1.
         22    1    5    5    0    0  0.13425041195E+02 -0.39306647255E+03 -0.92862645925E+02  0.40411007731E+03  0.00000000000E+00 0. -1.
          5    1    4    4  502    0 -0.32118949869E+02 -0.44654381062E+01 -0.69035233294E+02  0.76416755454E+02  0.47000000000E+01 0. -1.
         -5    1    4    4    0  502  0.95868953218E+02  0.87606356528E+02 -0.22440803392E+03  0.25931985189E+03  0.47000000000E+01 0. -1.
<mgrwt>
<rscale>  0 0.99956394E+03</rscale>
<asrwt>0</asrwt>
<pdfrwt beam="1">  1        2 0.17291054E+00 0.99956394E+03</pdfrwt>
<pdfrwt beam="2">  1       -2 0.34191094E-01 0.99956394E+03</pdfrwt>
<totfact> 0.20349860E+02</totfact>
</mgrwt>
</event>
<event>
 9    1  0.4296086E-036  0.9998480E+03  0.7818608E-02  0.8681183E-01
          2   -1    0    0  501    0  0.00000000000E+00  0.00000000000E+00  0.55619813050E+03  0.55619813050E+03  0.00000000000E+00 0. -1.
         -2   -1    0    0    0  501 -0.00000000000E+00 -0.00000000000E+00 -0.44934350977E+03  0.44934350977E+03  0.00000000000E+00 0. -1.
         36    2    1    2    0    0  0.00000000000E+00  0.00000000000E+00  0.10685462073E+03  0.10055416403E+04  0.99984802863E+03 0.  0.
         25    2    3    3    0    0  0.12110648806E+02 -0.10946308743E+03  0.10410992994E+03  0.19679973131E+03  0.12554848230E+03 0.  0.
         35    2    3    3    0    0 -0.12110648806E+02  0.10946308743E+03  0.27446907921E+01  0.80874190897E+03  0.80120353636E+03 0.  0.
         22    1    5    5    0    0 -0.11802514331E+02  0.68231740414E+02  0.40171869187E+03  0.40764295302E+03  0.00000000000E+00 0.  1.
         22    1    5    5    0    0 -0.30813447542E+00  0.41231347011E+02 -0.39897400108E+03  0.40109895595E+03  0.00000000000E+00 0.  1.
          5    1    4    4  502    0  0.12464158953E+02 -0.61193356681E+02 -0.18206297920E+02  0.65219180034E+02  0.47000000000E+01 0.  1.
         -5    1    4    4    0  502 -0.35351014728E+00 -0.48269730744E+02  0.12231622786E+03  0.13158055127E+03  0.47000000000E+01 0.  1.
<mgrwt>
<rscale>  0 0.99984803E+03</rscale>
<asrwt>0</asrwt>
<pdfrwt beam="1">  1        2 0.85568943E-01 0.99984803E+03</pdfrwt>
<pdfrwt beam="2">  1       -2 0.69129771E-01 0.99984803E+03</pdfrwt>
<totfact> 0.12553306E+02</totfact>
</mgrwt>
</event>
<event>
 9    1  0.4296086E-036  0.1001448E+04  0.7818608E-02  0.8679661E-01
         -2   -1    0    0    0  501 -0.00000000000E+00  0.00000000000E+00  0.85980403224E+02  0.85980403224E+02  0.00000000000E+00 0.  1.
          2   -1    0    0  501    0  0.00000000000E+00 -0.00000000000E+00 -0.29160630662E+04  0.29160630662E+04  0.00000000000E+00 0.  1.
         36    2    1    2    0    0 -0.28421709430E-13  0.71054273576E-14 -0.28300826630E+04  0.30020434695E+04  0.10014475089E+04 0.  0.
         25    2    3    3    0    0  0.13408199983E+03 -0.28509244308E+02 -0.66493493033E+03  0.69032167930E+03  0.12495919192E+03 0.  0.
         35    2    3    3    0    0 -0.13408199983E+03  0.28509244308E+02 -0.21651477327E+04  0.23117217902E+04  0.79837470594E+03 0.  0.
         22    1    5    5    0    0  0.14755665494E+03 -0.58309820383E+02 -0.36546407017E+02  0.16281474576E+03  0.00000000000E+00 0.  1.
         22    1    5    5    0    0 -0.28163865477E+03  0.86819064692E+02 -0.21286013257E+04  0.21489070444E+04  0.00000000000E+00 0.  1.
          5    1    4    4  502    0 -0.20108714946E+02 -0.47567564392E+01 -0.17113196671E+03  0.17243905351E+03  0.47000000000E+01 0. -1.
         -5    1    4    4    0  502  0.15419071477E+03 -0.23752487869E+02 -0.49380296363E+03  0.51788262578E+03  0.47000000000E+01 0. -1.
<mgrwt>
<rscale>  0 0.10014475E+04</rscale>
<asrwt>0</asrwt>
<pdfrwt beam="1">  1        2 0.44862505E+00 0.10014475E+04</pdfrwt>
<pdfrwt beam="2">  1       -2 0.13227756E-01 0.10014475E+04</pdfrwt>
<totfact> 0.93784227E+01</totfact>
</mgrwt>
</event>
<event>
 9    1  0.4296086E-036  0.9995318E+03  0.7818608E-02  0.8681484E-01
         -2   -1    0    0    0  501 -0.00000000000E+00  0.00000000000E+00  0.20975137356E+03  0.20975137356E+03  0.00000000000E+00 0.  1.
          2   -1    0    0  501    0  0.00000000000E+00 -0.00000000000E+00 -0.11907713743E+04  0.11907713743E+04  0.00000000000E+00 0.  1.
         36    2    1    2    0    0  0.00000000000E+00  0.00000000000E+00 -0.98102000070E+03  0.14005227478E+04  0.99953175305E+03 0.  0.
         25    2    3    3    0    0  0.11047081112E+03  0.77488389185E+02 -0.23562243853E+03  0.29853215955E+03  0.12407766189E+03 0.  0.
         35    2    3    3    0    0 -0.11047081112E+03 -0.77488389185E+02 -0.74539756217E+03  0.11019905883E+04  0.80034834938E+03 0.  0.
         22    1    5    5    0    0 -0.49696645519E+02 -0.22071990546E+03  0.96405647947E+02  0.24592901862E+03  0.00000000000E+00 0.  1.
         22    1    5    5    0    0 -0.60774165597E+02  0.14323151628E+03 -0.84180321012E+03  0.85606156965E+03  0.00000000000E+00 0.  1.
          5    1    4    4  502    0  0.72010237453E+02  0.83370258496E+02 -0.75381797687E+02  0.13356863300E+03  0.47000000000E+01 0.  1.
         -5    1    4    4    0  502  0.38460573663E+02 -0.58818693112E+01 -0.16024064084E+03  0.16496352655E+03  0.47000000000E+01 0.  1.
<mgrwt>
<rscale>  0 0.99953175E+03</rscale>
<asrwt>0</asrwt>
<pdfrwt beam="1">  1        2 0.18319560E+00 0.99953175E+03</pdfrwt>
<pdfrwt beam="2">  1       -2 0.32269442E-01 0.99953175E+03</pdfrwt>
<totfact> 0.20659754E+02</totfact>
</mgrwt>
</event>
<event>
 9    1  0.4296086E-036  0.9984278E+03  0.7818608E-02  0.8682537E-01
         -1   -1    0    0    0  501 -0.00000000000E+00  0.00000000000E+00  0.67688043679E+03  0.67688043679E+03  0.00000000000E+00 0. -1.
          1   -1    0    0  501    0  0.00000000000E+00 -0.00000000000E+00 -0.36818099613E+03  0.36818099613E+03  0.00000000000E+00 0. -1.
         36    2    1    2    0    0  0.00000000000E+00 -0.28421709430E-13  0.30869944066E+03  0.10450614329E+04  0.99842779104E+03 0.  0.
         25    2    3    3    0    0  0.88709780280E+02 -0.10259649839E+03  0.86304493927E+02  0.20390033171E+03  0.12542492973E+03 0.  0.
         35    2    3    3    0    0 -0.88709780280E+02  0.10259649839E+03  0.22239494673E+03  0.84116110122E+03  0.79981061463E+03 0.  0.
         22    1    5    5    0    0  0.20723200481E+03 -0.26669806487E+03  0.10267322925E+03  0.35300814952E+03  0.00000000000E+00 0.  1.
         22    1    5    5    0    0 -0.29594178509E+03  0.36929456326E+03  0.11972171748E+03  0.48815295170E+03  0.00000000000E+00 0.  1.
          5    1    4    4  502    0 -0.12460420763E+02 -0.61237186174E+02  0.68880181179E+02  0.93122631059E+02  0.47000000000E+01 0. -1.
         -5    1    4    4    0  502  0.10117020104E+03 -0.41359312214E+02  0.17424312748E+02  0.11077770065E+03  0.47000000000E+01 0. -1.
<mgrwt>
<rscale>  0 0.99842779E+03</rscale>
<asrwt>0</asrwt>
<pdfrwt beam="1">  1        1 0.56643230E-01 0.99842779E+03</pdfrwt>
<pdfrwt beam="2">  1       -1 0.10413545E+00 0.99842779E+03</pdfrwt>
<totfact> 0.69802930E+01</totfact>
</mgrwt>
</event>
<event>
 9    1  0.4296086E-036  0.1000601E+04  0.7818608E-02  0.8680466E-01
         -2   -1    0    0    0  501 -0.00000000000E+00  0.00000000000E+00  0.20778348057E+03  0.20778348057E+03  0.00000000000E+00 0. -1.
          2   -1    0    0  501    0  0.00000000000E+00 -0.00000000000E+00 -0.12046224745E+04  0.12046224745E+04  0.00000000000E+00 0. -1.
         36    2    1    2    0    0  0.00000000000E+00  0.00000000000E+00 -0.99683899394E+03  0.14124059551E+04  0.10006011204E+04 0.  0.
         25    2    3    3    0    0  0.11320521171E+03  0.77274805438E+02 -0.22933002962E+03  0.29518639898E+03  0.12552263599E+03 0.  0.
         35    2    3    3    0    0 -0.11320521171E+03 -0.77274805438E+02 -0.76750896432E+03  0.11172195561E+04  0.80020166878E+03 0.  0.
         22    1    5    5    0    0 -0.15456628727E+03 -0.76671166045E+01 -0.92621371091E+03  0.93905343837E+03  0.00000000000E+00 0. -1.
         22    1    5    5    0    0  0.41361075560E+02 -0.69607688834E+02  0.15870474659E+03  0.17816611773E+03  0.00000000000E+00 0. -1.
          5    1    4    4  502    0  0.10845078469E+03  0.34062103722E+02 -0.78701781984E+02  0.13833965483E+03  0.47000000000E+01 0.  1.
         -5    1    4    4    0  502  0.47544270134E+01  0.43212701717E+02 -0.15062824764E+03  0.15684674416E+03  0.47000000000E+01 0.  1.
<mgrwt>
<rscale>  0 0.10006011E+04</rscale>
<asrwt>0</asrwt>
<pdfrwt beam="1">  1        2 0.18532653E+00 0.10006011E+04</pdfrwt>
<pdfrwt beam="2">  1       -2 0.31966690E-01 0.10006011E+04</pdfrwt>
<totfact> 0.20628353E+02</totfact>
</mgrwt>
</event>
<event>
 9    1  0.4296086E-036  0.9991559E+03  0.7818608E-02  0.8681842E-01
         -2   -1    0    0    0  501 -0.00000000000E+00  0.00000000000E+00  0.15558183160E+03  0.15558183160E+03  0.00000000000E+00 0.  1.
          2   -1    0    0  501    0  0.00000000000E+00 -0.00000000000E+00 -0.16041597584E+04  0.16041597584E+04  0.00000000000E+00 0.  1.
         36    2    1    2    0    0  0.00000000000E+00  0.00000000000E+00 -0.14485779268E+04  0.17597415900E+04  0.99915587050E+03 0.  0.
         25    2    3    3    0    0  0.10635085769E+02 -0.23364109050E+02 -0.30409319080E+02  0.13100814682E+03  0.12481755167E+03 0.  0.
         35    2    3    3    0    0 -0.10635085769E+02  0.23364109050E+02 -0.14181686077E+04  0.16287334432E+04  0.80056944880E+03 0.  0.
         22    1    5    5    0    0 -0.73862276396E+02  0.17552116526E+03 -0.14486961986E+04  0.14611584415E+04  0.00000000000E+00 0. -1.
         22    1    5    5    0    0  0.63227190626E+02 -0.15215705621E+03  0.30527590859E+02  0.16757500169E+03  0.00000000000E+00 0. -1.
          5    1    4    4  502    0  0.18035513274E+02 -0.72451952325E+02 -0.48325945489E+01  0.74966719982E+02  0.47000000000E+01 0.  1.
         -5    1    4    4    0  502 -0.74004275049E+01  0.49087843274E+02 -0.25576724531E+02  0.56041426841E+02  0.47000000000E+01 0. -1.
<mgrwt>
<rscale>  0 0.99915587E+03</rscale>
<asrwt>0</asrwt>
<pdfrwt beam="1">  1        2 0.24679381E+00 0.99915587E+03</pdfrwt>
<pdfrwt beam="2">  1       -2 0.23935666E-01 0.99915587E+03</pdfrwt>
<totfact> 0.20498901E+02</totfact>
</mgrwt>
</event>
<event>
 9    1  0.4296086E-036  0.1000063E+04  0.7818608E-02  0.8680978E-01
         -2   -1    0    0    0  501 -0.00000000000E+00  0.00000000000E+00  0.18625574805E+03  0.18625574805E+03  0.00000000000E+00 0. -1.
          2   -1    0    0  501    0  0.00000000000E+00 -0.00000000000E+00 -0.13424083551E+04  0.13424083551E+04  0.00000000000E+00 0. -1.
         36    2    1    2    0    0 -0.21316282073E-13  0.17763568394E-13 -0.11561526071E+04  0.15286641032E+04  0.10000625428E+04 0.  0.
         25    2    3    3    0    0 -0.42139901804E+02 -0.74994220722E+01 -0.42277313608E+03  0.44315925134E+03  0.12578149624E+03 0.  0.
         35    2    3    3    0    0  0.42139901804E+02  0.74994220722E+01 -0.73337947099E+03  0.10855048518E+04  0.79915162655E+03 0.  0.
         22    1    5    5    0    0 -0.27448120147E+03 -0.24525479994E+03 -0.49011808305E+03  0.61294827040E+03  0.00000000000E+00 0.  1.
         22    1    5    5    0    0  0.31662110328E+03  0.25275422201E+03 -0.24326138793E+03  0.47255658142E+03  0.00000000000E+00 0.  1.
          5    1    4    4  502    0  0.39787394921E+02  0.19626124007E+02 -0.11105231676E+03  0.11967843831E+03  0.47000000000E+01 0. -1.
         -5    1    4    4    0  502 -0.81927296724E+02 -0.27125546079E+02 -0.31172081932E+03  0.32348081303E+03  0.47000000000E+01 0. -1.
<mgrwt>
<rscale>  0 0.10000625E+04</rscale>
<asrwt>0</asrwt>
<pdfrwt beam="1">  1        2 0.20652436E+00 0.10000625E+04</pdfrwt>
<pdfrwt beam="2">  1       -2 0.28654731E-01 0.10000625E+04</pdfrwt>
<totfact> 0.20934072E+02</totfact>
</mgrwt>
</event>
<event>
 9    1  0.4296086E-036  0.1000731E+04  0.7818608E-02  0.8680342E-01
         -2   -1    0    0    0  501 -0.00000000000E+00  0.00000000000E+00  0.37394668132E+03  0.37394668132E+03  0.00000000000E+00 0. -1.
          2   -1    0    0  501    0  0.00000000000E+00 -0.00000000000E+00 -0.66952276207E+03  0.66952276207E+03  0.00000000000E+00 0. -1.
         36    2    1    2    0    0  0.00000000000E+00  0.00000000000E+00 -0.29557608075E+03  0.10434694434E+04  0.10007313625E+04 0.  0.
         25    2    3    3    0    0 -0.58902661958E+02  0.12802662911E+03 -0.64092331679E+02  0.19863189682E+03  0.12444461462E+03 0.  0.
         35    2    3    3    0    0  0.58902661958E+02 -0.12802662911E+03 -0.23148374907E+03  0.84483754658E+03  0.80019086015E+03 0.  0.
         22    1    5    5    0    0 -0.34196550866E+03 -0.70620197836E+02 -0.26520802753E+03  0.43847795763E+03  0.00000000000E+00 0. -1.
         22    1    5    5    0    0  0.40086817062E+03 -0.57406431276E+02  0.33724278464E+02  0.40635958895E+03  0.00000000000E+00 0. -1.
          5    1    4    4  502    0 -0.18591451666E+02 -0.23779136721E+02 -0.14803937733E+02  0.33946074746E+02  0.47000000000E+01 0.  1.
         -5    1    4    4    0  502 -0.40311210292E+02  0.15180576583E+03 -0.49288393947E+02  0.16468582208E+03  0.47000000000E+01 0.  1.
<mgrwt>
<rscale>  0 0.10007314E+04</rscale>
<asrwt>0</asrwt>
<pdfrwt beam="1">  1        2 0.10300350E+00 0.10007314E+04</pdfrwt>
<pdfrwt beam="2">  1       -2 0.57530259E-01 0.10007314E+04</pdfrwt>
<totfact> 0.14839845E+02</totfact>
</mgrwt>
</event>
<event>
 9    1  0.4296086E-036  0.9992623E+03  0.7818608E-02  0.8681741E-01
         -2   -1    0    0    0  501 -0.00000000000E+00  0.00000000000E+00  0.15323872576E+03  0.15323872576E+03  0.00000000000E+00 0.  1.
          2   -1    0    0  501    0  0.00000000000E+00 -0.00000000000E+00 -0.16290351444E+04  0.16290351444E+04  0.00000000000E+00 0.  1.
         36    2    1    2    0    0 -0.14210854715E-13  0.00000000000E+00 -0.14757964186E+04  0.17822738702E+04  0.99926226738E+03 0.  0.
         25    2    3    3    0    0 -0.10417446997E+03 -0.83590454442E+02 -0.18373488805E+03  0.25974078000E+03  0.12596459597E+03 0.  0.
         35    2    3    3    0    0  0.10417446997E+03  0.83590454442E+02 -0.12920615306E+04  0.15225330902E+04  0.79425709161E+03 0.  0.
         22    1    5    5    0    0 -0.16131139030E+03  0.39252695946E+02 -0.12366268770E+04  0.12477211915E+04  0.00000000000E+00 0.  1.
         22    1    5    5    0    0  0.26548586027E+03  0.44337758497E+02 -0.55434653574E+02  0.27481189866E+03  0.00000000000E+00 0.  1.
          5    1    4    4  502    0  0.26533055445E+02 -0.33088610201E+02 -0.52977499847E+02  0.68026205585E+02  0.47000000000E+01 0.  1.
         -5    1    4    4    0  502 -0.13070752542E+03 -0.50501844242E+02 -0.13075738820E+03  0.19171457441E+03  0.47000000000E+01 0.  1.
<mgrwt>
<rscale>  0 0.99926227E+03</rscale>
<asrwt>0</asrwt>
<pdfrwt beam="1">  1        2 0.25062081E+00 0.99926227E+03</pdfrwt>
<pdfrwt beam="2">  1       -2 0.23575187E-01 0.99926227E+03</pdfrwt>
<totfact> 0.20386198E+02</totfact>
</mgrwt>
</event>
<event>
 9    1  0.4296086E-036  0.1000194E+04  0.7818608E-02  0.8680853E-01
          2   -1    0    0  501    0  0.00000000000E+00  0.00000000000E+00  0.33544557595E+04  0.33544557595E+04  0.00000000000E+00 0. -1.
         -2   -1    0    0    0  501 -0.00000000000E+00 -0.00000000000E+00 -0.74556685863E+02  0.74556685863E+02  0.00000000000E+00 0. -1.
         36    2    1    2    0    0 -0.28421709430E-13 -0.71054273576E-14  0.32798990736E+04  0.34290124454E+04  0.10001941898E+04 0.  0.
         25    2    3    3    0    0  0.72299369651E+02 -0.39139244154E+02  0.10089741764E+04  0.10199993380E+04  0.12494271257E+03 0.  0.
         35    2    3    3    0    0 -0.72299369651E+02  0.39139244154E+02  0.22709248972E+04  0.24090131074E+04  0.79967817506E+03 0.  0.
         22    1    5    5    0    0  0.32605497894E+03  0.14861121704E+03  0.13991447294E+04  0.14443002170E+04  0.00000000000E+00 0. -1.
         22    1    5    5    0    0 -0.39835434859E+03 -0.10947197288E+03  0.87178016779E+03  0.96471289036E+03  0.00000000000E+00 0. -1.
          5    1    4    4  502    0  0.10633999963E+03 -0.22205044209E+02  0.65578050782E+03  0.66473410018E+03  0.47000000000E+01 0.  1.
         -5    1    4    4    0  502 -0.34040629976E+02 -0.16934199945E+02  0.35319366862E+03  0.35526523777E+03  0.47000000000E+01 0.  1.
<mgrwt>
<rscale>  0 0.10001942E+04</rscale>
<asrwt>0</asrwt>
<pdfrwt beam="1">  1        2 0.51607000E+00 0.10001942E+04</pdfrwt>
<pdfrwt beam="2">  1       -2 0.11470262E-01 0.10001942E+04</pdfrwt>
<totfact> 0.59151934E+01</totfact>
</mgrwt>
</event>
<event>
 9    1  0.4296086E-036  0.9988801E+03  0.7818608E-02  0.8682105E-01
         -4   -1    0    0    0  501 -0.00000000000E+00  0.00000000000E+00  0.37956713654E+03  0.37956713654E+03  0.00000000000E+00 0.  1.
          4   -1    0    0  501    0  0.00000000000E+00 -0.00000000000E+00 -0.65717061138E+03  0.65717061138E+03  0.00000000000E+00 0.  1.
         36    2    1    2    0    0 -0.21316282073E-13  0.28421709430E-13 -0.27760347483E+03  0.10367377479E+04  0.99888010728E+03 0.  0.
         25    2    3    3    0    0 -0.16459855536E+01 -0.76621977888E+02 -0.16716742582E+03  0.22558131140E+03  0.13064586880E+03 0.  0.
         35    2    3    3    0    0  0.16459855536E+01  0.76621977888E+02 -0.11043604902E+03  0.81115643652E+03  0.79994062706E+03 0.  0.
         22    1    5    5    0    0 -0.35966685825E+03  0.20815491030E+03 -0.95315406419E+02  0.42634931958E+03  0.00000000000E+00 0. -1.
         22    1    5    5    0    0  0.36131284381E+03 -0.13153293242E+03 -0.15120642596E+02  0.38480711693E+03  0.00000000000E+00 0. -1.
          5    1    4    4  502    0  0.51322535647E+02  0.47291794482E+01 -0.78485246434E+02  0.94012721008E+02  0.47000000000E+01 0. -1.
         -5    1    4    4    0  502 -0.52968521200E+02 -0.81351157336E+02 -0.88682179384E+02  0.13156859039E+03  0.47000000000E+01 0. -1.
<mgrwt>
<rscale>  0 0.99888011E+03</rscale>
<asrwt>0</asrwt>
<pdfrwt beam="1">  1        4 0.10110317E+00 0.99888011E+03</pdfrwt>
<pdfrwt beam="2">  1       -4 0.58394945E-01 0.99888011E+03</pdfrwt>
<totfact> 0.49979820E+00</totfact>
</mgrwt>
</event>
<event>
 9    1  0.4296086E-036  0.1002325E+04  0.7818608E-02  0.8678827E-01
          2   -1    0    0  501    0  0.00000000000E+00  0.00000000000E+00  0.25705967718E+04  0.25705967718E+04  0.00000000000E+00 0. -1.
         -2   -1    0    0    0  501 -0.00000000000E+00 -0.00000000000E+00 -0.97706489688E+02  0.97706489688E+02  0.00000000000E+00 0. -1.
         36    2    1    2    0    0 -0.71054273576E-14  0.00000000000E+00  0.24728902821E+04  0.26683032615E+04  0.10023252705E+04 0.  0.
         25    2    3    3    0    0 -0.17857269791E+02 -0.77203915256E+02  0.14215101279E+03  0.20282145793E+03  0.12103845151E+03 0.  0.
         35    2    3    3    0    0  0.17857269791E+02  0.77203915256E+02  0.23307392693E+04  0.24654818036E+04  0.79998478455E+03 0.  0.
         22    1    5    5    0    0  0.28222532087E+03  0.31290115004E+03  0.93603256839E+03  0.10265063227E+04  0.00000000000E+00 0.  1.
         22    1    5    5    0    0 -0.26436805108E+03 -0.23569723479E+03  0.13947067009E+04  0.14389754809E+04  0.00000000000E+00 0.  1.
          5    1    4    4  502    0  0.18659855347E+02 -0.98611584526E+02  0.11302136879E+03  0.15122286404E+03  0.47000000000E+01 0.  1.
         -5    1    4    4    0  502 -0.36517125138E+02  0.21407669271E+02  0.29129643999E+02  0.51598593890E+02  0.47000000000E+01 0.  1.
<mgrwt>
<rscale>  0 0.10023253E+04</rscale>
<asrwt>0</asrwt>
<pdfrwt beam="1">  1        2 0.39547637E+00 0.10023253E+04</pdfrwt>
<pdfrwt beam="2">  1       -2 0.15031770E-01 0.10023253E+04</pdfrwt>
<totfact> 0.12561486E+02</totfact>
</mgrwt>
</event>
<event>
 9    1  0.4296086E-036  0.9996235E+03  0.7818608E-02  0.8681397E-01
          1   -1    0    0  501    0  0.00000000000E+00  0.00000000000E+00  0.32924190415E+03  0.32924190415E+03  0.00000000000E+00 0.  1.
         -1   -1    0    0    0  501 -0.00000000000E+00 -0.00000000000E+00 -0.75874852579E+03  0.75874852579E+03  0.00000000000E+00 0.  1.
         36    2    1    2    0    0 -0.71054273576E-14  0.00000000000E+00 -0.42950662165E+03  0.10879904299E+04  0.99962354795E+03 0.  0.
         25    2    3    3    0    0 -0.18433113368E+01  0.13486621818E+03 -0.34517356614E+02  0.18704773880E+03  0.12491242564E+03 0.  0.
         35    2    3    3    0    0  0.18433113368E+01 -0.13486621818E+03 -0.39498926503E+03  0.90094269114E+03  0.79842903168E+03 0.  0.
         22    1    5    5    0    0  0.85525750536E+02  0.12051770696E+03 -0.56428753620E+03  0.58331774806E+03  0.00000000000E+00 0.  1.
         22    1    5    5    0    0 -0.83682439199E+02 -0.25538392513E+03  0.16929827117E+03  0.31762494308E+03  0.00000000000E+00 0.  1.
          5    1    4    4  502    0  0.27589719767E+02  0.14814108338E+03 -0.33306434638E+02  0.15439683225E+03  0.47000000000E+01 0. -1.
         -5    1    4    4    0  502 -0.29433031104E+02 -0.13274865204E+02 -0.12109219762E+01  0.32650906544E+02  0.47000000000E+01 0. -1.
<mgrwt>
<rscale>  0 0.99962355E+03</rscale>
<asrwt>0</asrwt>
<pdfrwt beam="1">  1        1 0.50652601E-01 0.99962355E+03</pdfrwt>
<pdfrwt beam="2">  1       -1 0.11673054E+00 0.99962355E+03</pdfrwt>
<totfact> 0.61816402E+01</totfact>
</mgrwt>
</event>
<event>
 9    1  0.4296086E-036  0.1000368E+04  0.7818608E-02  0.8680688E-01
          1   -1    0    0  501    0  0.00000000000E+00  0.00000000000E+00  0.63888563942E+03  0.63888563942E+03  0.00000000000E+00 0.  1.
         -1   -1    0    0    0  501 -0.00000000000E+00 -0.00000000000E+00 -0.39159411828E+03  0.39159411828E+03  0.00000000000E+00 0.  1.
         36    2    1    2    0    0  0.00000000000E+00 -0.28421709430E-13  0.24729152114E+03  0.10304797577E+04  0.10003676497E+04 0.  0.
         25    2    3    3    0    0  0.72991789184E+02  0.72887731652E+02  0.14358022253E+03  0.21742728776E+03  0.12656588184E+03 0.  0.
         35    2    3    3    0    0 -0.72991789184E+02 -0.72887731652E+02  0.10371129861E+03  0.81305246994E+03  0.79978613560E+03 0.  0.
         22    1    5    5    0    0  0.17018445942E+03  0.30888892356E+03  0.24406378913E+02  0.35351207711E+03  0.00000000000E+00 0.  1.
         22    1    5    5    0    0 -0.24317624861E+03 -0.38177665522E+03  0.79304919693E+02  0.45954039283E+03  0.00000000000E+00 0.  1.
          5    1    4    4  502    0  0.35052667728E+02  0.79869583468E+02  0.15412857909E+03  0.17715967028E+03  0.47000000000E+01 0. -1.
         -5    1    4    4    0  502  0.37939121456E+02 -0.69818518161E+01 -0.10548356563E+02  0.40267617484E+02  0.47000000000E+01 0. -1.
<mgrwt>
<rscale>  0 0.10003676E+04</rscale>
<asrwt>0</asrwt>
<pdfrwt beam="1">  1        1 0.98290098E-01 0.10003676E+04</pdfrwt>
<pdfrwt beam="2">  1       -1 0.60245249E-01 0.10003676E+04</pdfrwt>
<totfact> 0.10108096E+02</totfact>
</mgrwt>
</event>
<event>
 9    1  0.4296086E-036  0.1000631E+04  0.7818608E-02  0.8680437E-01
          1   -1    0    0  501    0  0.00000000000E+00  0.00000000000E+00  0.11216614973E+04  0.11216614973E+04  0.00000000000E+00 0. -1.
         -1   -1    0    0    0  501 -0.00000000000E+00 -0.00000000000E+00 -0.22316496150E+03  0.22316496150E+03  0.00000000000E+00 0. -1.
         36    2    1    2    0    0  0.56843418861E-13  0.00000000000E+00  0.89849653582E+03  0.13448264588E+04  0.10006308907E+04 0.  0.
         25    2    3    3    0    0  0.13694086001E+03 -0.14383948768E+02  0.12434816183E+03  0.22327707635E+03  0.12421952484E+03 0.  0.
         35    2    3    3    0    0 -0.13694086001E+03  0.14383948768E+02  0.77414837399E+03  0.11215493825E+04  0.79975472193E+03 0.  0.
         22    1    5    5    0    0  0.31726880687E+03 -0.70065849693E+02  0.45877028067E+03  0.56217336252E+03  0.00000000000E+00 0.  1.
         22    1    5    5    0    0 -0.45420966688E+03  0.84449798461E+02  0.31537809332E+03  0.55937601995E+03  0.00000000000E+00 0.  1.
          5    1    4    4  502    0  0.40379720410E+02  0.51891531017E+02  0.28293285295E+02  0.71734599772E+02  0.47000000000E+01 0.  1.
         -5    1    4    4    0  502  0.96561139598E+02 -0.66275479785E+02  0.96054876536E+02  0.15154247658E+03  0.47000000000E+01 0.  1.
<mgrwt>
<rscale>  0 0.10006309E+04</rscale>
<asrwt>0</asrwt>
<pdfrwt beam="1">  1        1 0.17256330E+00 0.10006309E+04</pdfrwt>
<pdfrwt beam="2">  1       -1 0.34333072E-01 0.10006309E+04</pdfrwt>
<totfact> 0.10877034E+02</totfact>
</mgrwt>
</event>
<event>
 9    1  0.4296086E-036  0.9998596E+03  0.7818608E-02  0.8681172E-01
          1   -1    0    0  501    0  0.00000000000E+00  0.00000000000E+00  0.33620901286E+03  0.33620901286E+03  0.00000000000E+00 0.  1.
         -1   -1    0    0    0  501 -0.00000000000E+00 -0.00000000000E+00 -0.74337627265E+03  0.74337627265E+03  0.00000000000E+00 0.  1.
         36    2    1    2    0    0  0.14210854715E-13  0.00000000000E+00 -0.40716725978E+03  0.10795852855E+04  0.99985959577E+03 0.  0.
         25    2    3    3    0    0  0.11780425513E+03 -0.47335008081E+02 -0.19437110336E+02  0.18128995071E+03  0.12794451709E+03 0.  0.
         35    2    3    3    0    0 -0.11780425513E+03  0.47335008081E+02 -0.38773014945E+03  0.89829533480E+03  0.80030081483E+03 0.  0.
         22    1    5    5    0    0 -0.61087550174E+02  0.20241365440E+03  0.19804115614E+03  0.28969514287E+03  0.00000000000E+00 0. -1.
         22    1    5    5    0    0 -0.56716704961E+02 -0.15507864632E+03 -0.58577130559E+03  0.60860019193E+03  0.00000000000E+00 0. -1.
          5    1    4    4  502    0  0.73293982084E+02  0.24524909536E+02  0.30246627580E+02  0.83128980972E+02  0.47000000000E+01 0. -1.
         -5    1    4    4    0  502  0.44510273050E+02 -0.71859917616E+02 -0.49683737916E+02  0.98160969739E+02  0.47000000000E+01 0. -1.
<mgrwt>
<rscale>  0 0.99985960E+03</rscale>
<asrwt>0</asrwt>
<pdfrwt beam="1">  1        1 0.51724465E-01 0.99985960E+03</pdfrwt>
<pdfrwt beam="2">  1       -1 0.11436558E+00 0.99985960E+03</pdfrwt>
<totfact> 0.63189256E+01</totfact>
</mgrwt>
</event>
<event>
 9    1  0.4296086E-036  0.1000897E+04  0.7818608E-02  0.8680185E-01
          2   -1    0    0  501    0  0.00000000000E+00  0.00000000000E+00  0.13481024643E+03  0.13481024643E+03  0.00000000000E+00 0. -1.
         -2   -1    0    0    0  501 -0.00000000000E+00 -0.00000000000E+00 -0.18577851565E+04  0.18577851565E+04  0.00000000000E+00 0. -1.
         36    2    1    2    0    0  0.71054273576E-14  0.00000000000E+00 -0.17229749100E+04  0.19925954029E+04  0.10008965476E+04 0.  0.
         25    2    3    3    0    0  0.98520688897E+01  0.76195322995E+02 -0.88957660613E+02  0.17172082523E+03  0.12518700383E+03 0.  0.
         35    2    3    3    0    0 -0.98520688897E+01 -0.76195322995E+02 -0.16340172494E+04  0.18208745777E+04  0.79979313931E+03 0.  0.
         22    1    5    5    0    0 -0.11246830107E+03 -0.25594086550E+02 -0.16896985213E+04  0.16936307948E+04  0.00000000000E+00 0. -1.
         22    1    5    5    0    0  0.10261623218E+03 -0.50601236445E+02  0.55681271932E+02  0.12724378288E+03  0.00000000000E+00 0. -1.
          5    1    4    4  502    0  0.58654902039E+02  0.41656826625E+02 -0.85229221423E+02  0.11163242774E+03  0.47000000000E+01 0. -1.
         -5    1    4    4    0  502 -0.48802833149E+02  0.34538496370E+02 -0.37284391904E+01  0.60088397496E+02  0.47000000000E+01 0. -1.
<mgrwt>
<rscale>  0 0.10008965E+04</rscale>
<asrwt>0</asrwt>
<pdfrwt beam="1">  1        2 0.20740037E-01 0.10008965E+04</pdfrwt>
<pdfrwt beam="2">  1       -2 0.28581311E+00 0.10008965E+04</pdfrwt>
<totfact> 0.11432473E+01</totfact>
</mgrwt>
</event>
<event>
 9    1  0.4296086E-036  0.9980762E+03  0.7818608E-02  0.8682872E-01
         -1   -1    0    0    0  501 -0.00000000000E+00  0.00000000000E+00  0.76323638857E+03  0.76323638857E+03  0.00000000000E+00 0.  1.
          1   -1    0    0  501    0  0.00000000000E+00 -0.00000000000E+00 -0.32629344547E+03  0.32629344547E+03  0.00000000000E+00 0.  1.
         36    2    1    2    0    0  0.14210854715E-13  0.00000000000E+00  0.43694294310E+03  0.10895298340E+04  0.99807621138E+03 0.  0.
         25    2    3    3    0    0  0.65601258584E+02 -0.69066117845E+02 -0.34690226777E+02  0.15620179650E+03  0.11883575066E+03 0.  0.
         35    2    3    3    0    0 -0.65601258584E+02  0.69066117845E+02  0.47163316988E+03  0.93332803753E+03  0.79974353699E+03 0.  0.
         22    1    5    5    0    0  0.99033821160E+02  0.31915455966E+03  0.53165915494E+03  0.62795603964E+03  0.00000000000E+00 0.  1.
         22    1    5    5    0    0 -0.16463507974E+03 -0.25008844182E+03 -0.60025985063E+02  0.30537199789E+03  0.00000000000E+00 0.  1.
          5    1    4    4  502    0  0.44589545919E+02 -0.42096166239E+02 -0.78950271292E+02  0.10007772057E+03  0.47000000000E+01 0. -1.
         -5    1    4    4    0  502  0.21011712665E+02 -0.26969951606E+02  0.44260044515E+02  0.56124075932E+02  0.47000000000E+01 0. -1.
<mgrwt>
<rscale>  0 0.99807621E+03</rscale>
<asrwt>0</asrwt>
<pdfrwt beam="1">  1        1 0.50198992E-01 0.99807621E+03</pdfrwt>
<pdfrwt beam="2">  1       -1 0.11742098E+00 0.99807621E+03</pdfrwt>
<totfact> 0.61667879E+01</totfact>
</mgrwt>
</event>
<event>
 9    1  0.4296086E-036  0.9999284E+03  0.7818608E-02  0.8681106E-01
          3   -1    0    0  501    0  0.00000000000E+00  0.00000000000E+00  0.11870072338E+04  0.11870072338E+04  0.00000000000E+00 0. -1.
         -3   -1    0    0    0  501 -0.00000000000E+00 -0.00000000000E+00 -0.21058355636E+03  0.21058355636E+03  0.00000000000E+00 0. -1.
         36    2    1    2    0    0 -0.14210854715E-13 -0.71054273576E-14  0.97642367744E+03  0.13975907902E+04  0.99992840688E+03 0.  0.
         25    2    3    3    0    0 -0.68904536807E+02 -0.16696604996E+01  0.11423435227E+02  0.14223225090E+03  0.12389065891E+03 0.  0.
         35    2    3    3    0    0  0.68904536807E+02  0.16696604996E+01  0.96500024221E+03  0.12553585393E+04  0.79996810666E+03 0.  0.
         22    1    5    5    0    0 -0.21913003657E+03  0.30789173896E+03  0.38994827202E+03  0.54302389514E+03  0.00000000000E+00 0.  1.
         22    1    5    5    0    0  0.28803457337E+03 -0.30622207846E+03  0.57505197020E+03  0.71233464412E+03  0.00000000000E+00 0.  1.
          5    1    4    4  502    0 -0.95106015171E+02  0.28384127276E+02  0.19557251943E+02  0.10126889407E+03  0.47000000000E+01 0.  1.
         -5    1    4    4    0  502  0.26201478364E+02 -0.30053787776E+02 -0.81338167161E+01  0.40963356826E+02  0.47000000000E+01 0.  1.
<mgrwt>
<rscale>  0 0.99992841E+03</rscale>
<asrwt>0</asrwt>
<pdfrwt beam="1">  1        3 0.18261649E+00 0.99992841E+03</pdfrwt>
<pdfrwt beam="2">  1       -3 0.32397471E-01 0.99992841E+03</pdfrwt>
<totfact> 0.72558736E+00</totfact>
</mgrwt>
</event>
<event>
 9    1  0.4296086E-036  0.1001227E+04  0.7818608E-02  0.8679871E-01
          2   -1    0    0  501    0  0.00000000000E+00  0.00000000000E+00  0.17351648121E+03  0.17351648121E+03  0.00000000000E+00 0.  1.
         -2   -1    0    0    0  501 -0.00000000000E+00 -0.00000000000E+00 -0.14443227356E+04  0.14443227356E+04  0.00000000000E+00 0.  1.
         36    2    1    2    0    0  0.00000000000E+00 -0.20428103653E-13 -0.12708062544E+04  0.16178392168E+04  0.10012268451E+04 0.  0.
         25    2    3    3    0    0 -0.71768960777E+02  0.37775146400E+01 -0.43006426817E+02  0.15069025496E+03  0.12527149255E+03 0.  0.
         35    2    3    3    0    0  0.71768960777E+02 -0.37775146400E+01 -0.12277998276E+04  0.14671489619E+04  0.79991787474E+03 0.  0.
         22    1    5    5    0    0  0.17263740786E+03  0.17494248644E+03 -0.12375275519E+04  0.12616984544E+04  0.00000000000E+00 0. -1.
         22    1    5    5    0    0 -0.10086844709E+03 -0.17872000108E+03  0.97277242813E+01  0.20545050748E+03  0.00000000000E+00 0. -1.
          5    1    4    4  502    0 -0.10005292758E+03  0.10562859578E+02 -0.26894590345E+01  0.10075458059E+03  0.47000000000E+01 0. -1.
         -5    1    4    4    0  502  0.28283966803E+02 -0.67853449378E+01 -0.40316967783E+02  0.49935674374E+02  0.47000000000E+01 0. -1.
<mgrwt>
<rscale>  0 0.10012268E+04</rscale>
<asrwt>0</asrwt>
<pdfrwt beam="1">  1        2 0.26694844E-01 0.10012268E+04</pdfrwt>
<pdfrwt beam="2">  1       -2 0.22220349E+00 0.10012268E+04</pdfrwt>
<totfact> 0.20983354E+01</totfact>
</mgrwt>
</event>
<event>
 9    1  0.4296086E-036  0.9996709E+03  0.7818608E-02  0.8681351E-01
         -1   -1    0    0    0  501 -0.00000000000E+00  0.00000000000E+00  0.41285627030E+03  0.41285627030E+03  0.00000000000E+00 0.  1.
          1   -1    0    0  501    0  0.00000000000E+00 -0.00000000000E+00 -0.60513912665E+03  0.60513912665E+03  0.00000000000E+00 0.  1.
         36    2    1    2    0    0 -0.71054273576E-14  0.00000000000E+00 -0.19228285635E+03  0.10179953969E+04  0.99967091153E+03 0.  0.
         25    2    3    3    0    0 -0.49871997251E+02  0.12334348973E+03  0.69086527711E+01  0.18312072665E+03  0.12563693119E+03 0.  0.
         35    2    3    3    0    0  0.49871997251E+02 -0.12334348973E+03 -0.19919150912E+03  0.83487467030E+03  0.79977348370E+03 0.  0.
         22    1    5    5    0    0  0.32652132701E+03  0.51106769061E+02  0.14426094862E+03  0.36060962290E+03  0.00000000000E+00 0. -1.
         22    1    5    5    0    0 -0.27664932975E+03 -0.17445025879E+03 -0.34345245775E+03  0.47426504739E+03  0.00000000000E+00 0. -1.
          5    1    4    4  502    0 -0.26909185415E+02 -0.22327285048E+02 -0.17384272499E+01  0.35323137553E+02  0.47000000000E+01 0.  1.
         -5    1    4    4    0  502 -0.22962811836E+02  0.14567077477E+03  0.86470800209E+01  0.14779758910E+03  0.47000000000E+01 0.  1.
<mgrwt>
<rscale>  0 0.99967091E+03</rscale>
<asrwt>0</asrwt>
<pdfrwt beam="1">  1        1 0.93098327E-01 0.99967091E+03</pdfrwt>
<pdfrwt beam="2">  1       -1 0.63516350E-01 0.99967091E+03</pdfrwt>
<totfact> 0.98901394E+01</totfact>
</mgrwt>
</event>
<event>
 9    1  0.4296086E-036  0.1001090E+04  0.7818608E-02  0.8680001E-01
          1   -1    0    0  501    0  0.00000000000E+00  0.00000000000E+00  0.64845604927E+03  0.64845604927E+03  0.00000000000E+00 0.  1.
         -1   -1    0    0    0  501 -0.00000000000E+00 -0.00000000000E+00 -0.38637183169E+03  0.38637183169E+03  0.00000000000E+00 0.  1.
         36    2    1    2    0    0 -0.28421709430E-13 -0.71054273576E-14  0.26208421758E+03  0.10348278810E+04  0.10010897093E+04 0.  0.
         25    2    3    3    0    0 -0.13971300493E+03  0.26513947646E+01  0.25895858811E+02  0.18880645248E+03  0.12430015026E+03 0.  0.
         35    2    3    3    0    0  0.13971300493E+03 -0.26513947646E+01  0.23618835877E+03  0.84602142848E+03  0.80027530450E+03 0.  0.
         22    1    5    5    0    0  0.15678389813E+02  0.35274427372E+03 -0.71007228737E+02  0.36016157636E+03  0.00000000000E+00 0. -1.
         22    1    5    5    0    0  0.12403461511E+03 -0.35539566849E+03  0.30719558750E+03  0.48585985213E+03  0.00000000000E+00 0. -1.
          5    1    4    4  502    0 -0.58966877869E+02 -0.60201023419E+02  0.15930105724E+02  0.85890128506E+02  0.47000000000E+01 0. -1.
         -5    1    4    4    0  502 -0.80746127056E+02  0.62852418184E+02  0.99657530867E+01  0.10291632398E+03  0.47000000000E+01 0. -1.
<mgrwt>
<rscale>  0 0.10010897E+04</rscale>
<asrwt>0</asrwt>
<pdfrwt beam="1">  1        1 0.99762469E-01 0.10010897E+04</pdfrwt>
<pdfrwt beam="2">  1       -1 0.59441820E-01 0.10010897E+04</pdfrwt>
<totfact> 0.10143239E+02</totfact>
</mgrwt>
</event>
<event>
 9    1  0.4296086E-036  0.1000206E+04  0.7818608E-02  0.8680842E-01
          1   -1    0    0  501    0  0.00000000000E+00  0.00000000000E+00  0.47105722398E+03  0.47105722398E+03  0.00000000000E+00 0. -1.
         -1   -1    0    0    0  501 -0.00000000000E+00 -0.00000000000E+00 -0.53093946379E+03  0.53093946379E+03  0.00000000000E+00 0. -1.
         36    2    1    2    0    0  0.00000000000E+00 -0.71054273576E-14 -0.59882239811E+02  0.10019966878E+04  0.10002057187E+04 0.  0.
         25    2    3    3    0    0 -0.13660363379E+03 -0.37107279088E+02 -0.17514154158E+02  0.18959859708E+03  0.12491348804E+03 0.  0.
         35    2    3    3    0    0  0.13660363379E+03  0.37107279088E+02 -0.42368085653E+02  0.81239809069E+03  0.79884798313E+03 0.  0.
         22    1    5    5    0    0 -0.21329848713E+03 -0.24403342492E+03 -0.13998490253E+03  0.35305003898E+03  0.00000000000E+00 0.  1.
         22    1    5    5    0    0  0.34990212092E+03  0.28114070401E+03  0.97616816875E+02  0.45934805171E+03  0.00000000000E+00 0.  1.
          5    1    4    4  502    0 -0.87955670270E+02  0.30042802888E+02  0.24906512253E+02  0.96338955208E+02  0.47000000000E+01 0.  1.
         -5    1    4    4    0  502 -0.48647963516E+02 -0.67150081976E+02 -0.42420666410E+02  0.93259641874E+02  0.47000000000E+01 0.  1.
<mgrwt>
<rscale>  0 0.10002057E+04</rscale>
<asrwt>0</asrwt>
<pdfrwt beam="1">  1        1 0.72470342E-01 0.10002057E+04</pdfrwt>
<pdfrwt beam="2">  1       -1 0.81682994E-01 0.10002057E+04</pdfrwt>
<totfact> 0.84996165E+01</totfact>
</mgrwt>
</event>
<event>
 9    1  0.4296086E-036  0.1000559E+04  0.7818608E-02  0.8680506E-01
          2   -1    0    0  501    0  0.00000000000E+00  0.00000000000E+00  0.18636078717E+04  0.18636078717E+04  0.00000000000E+00 0. -1.
         -2   -1    0    0    0  501 -0.00000000000E+00 -0.00000000000E+00 -0.13429835998E+03  0.13429835998E+03  0.00000000000E+00 0. -1.
         36    2    1    2    0    0 -0.56843418861E-13 -0.35527136788E-14  0.17293095117E+04  0.19979062317E+04  0.10005588055E+04 0.  0.
         25    2    3    3    0    0  0.95572265005E+02  0.26279531170E+02  0.52547803823E+03  0.54925040916E+03  0.12539605937E+03 0.  0.
         35    2    3    3    0    0 -0.95572265005E+02 -0.26279531170E+02  0.12038314735E+04  0.14486558225E+04  0.79973045706E+03 0.  0.
         22    1    5    5    0    0 -0.38477578797E+03 -0.22055238462E+03  0.53847933716E+03  0.69760716590E+03  0.00000000000E+00 0.  1.
         22    1    5    5    0    0  0.28920352297E+03  0.19427285345E+03  0.66535213634E+03  0.75104865662E+03  0.00000000000E+00 0.  1.
          5    1    4    4  502    0  0.92771693690E+02  0.53521962121E+02  0.50061119685E+03  0.51196176419E+03  0.47000000000E+01 0. -1.
         -5    1    4    4    0  502  0.28005713144E+01 -0.27242430951E+02  0.24866841380E+02  0.37288644974E+02  0.47000000000E+01 0. -1.
<mgrwt>
<rscale>  0 0.10005588E+04</rscale>
<asrwt>0</asrwt>
<pdfrwt beam="1">  1        2 0.28670888E+00 0.10005588E+04</pdfrwt>
<pdfrwt beam="2">  1       -2 0.20661288E-01 0.10005588E+04</pdfrwt>
<totfact> 0.18935153E+02</totfact>
</mgrwt>
</event>
<event>
 9    1  0.4296086E-036  0.9995355E+03  0.7818608E-02  0.8681480E-01
          1   -1    0    0  501    0  0.00000000000E+00  0.00000000000E+00  0.11698564439E+04  0.11698564439E+04  0.00000000000E+00 0.  1.
         -1   -1    0    0    0  501 -0.00000000000E+00 -0.00000000000E+00 -0.21350296449E+03  0.21350296449E+03  0.00000000000E+00 0.  1.
         36    2    1    2    0    0  0.00000000000E+00  0.00000000000E+00  0.95635347944E+03  0.13833594084E+04  0.99953552975E+03 0.  0.
         25    2    3    3    0    0 -0.41310841285E+02 -0.68816506218E+02  0.22169998400E+02  0.15024572801E+03  0.12505987694E+03 0.  0.
         35    2    3    3    0    0  0.41310841285E+02  0.68816506218E+02  0.93418348104E+03  0.12331136804E+04  0.80089217466E+03 0.  0.
         22    1    5    5    0    0  0.67489896418E+02  0.18602045763E+03  0.10486801415E+04  0.10671872075E+04  0.00000000000E+00 0. -1.
         22    1    5    5    0    0 -0.26179055134E+02 -0.11720395142E+03 -0.11449666043E+03  0.16592647289E+03  0.00000000000E+00 0. -1.
          5    1    4    4  502    0 -0.24343623758E+02 -0.10108922409E+03 -0.55045469324E+01  0.10423067342E+03  0.47000000000E+01 0. -1.
         -5    1    4    4    0  502 -0.16967217527E+02  0.32272717873E+02  0.27674545332E+02  0.46015054589E+02  0.47000000000E+01 0. -1.
<mgrwt>
<rscale>  0 0.99953553E+03</rscale>
<asrwt>0</asrwt>
<pdfrwt beam="1">  1        1 0.17997791E+00 0.99953553E+03</pdfrwt>
<pdfrwt beam="2">  1       -1 0.32846610E-01 0.99953553E+03</pdfrwt>
<totfact> 0.10799836E+02</totfact>
</mgrwt>
</event>
<event>
 9    1  0.4296086E-036  0.9999387E+03  0.7818608E-02  0.8681096E-01
         -1   -1    0    0    0  501 -0.00000000000E+00  0.00000000000E+00  0.17365415381E+03  0.17365415381E+03  0.00000000000E+00 0. -1.
          1   -1    0    0  501    0  0.00000000000E+00 -0.00000000000E+00 -0.14394665621E+04  0.14394665621E+04  0.00000000000E+00 0. -1.
         36    2    1    2    0    0  0.00000000000E+00  0.71054273576E-14 -0.12658124083E+04  0.16131207159E+04  0.99993869368E+03 0.  0.
         25    2    3    3    0    0 -0.97958376405E+02 -0.57264406303E+02 -0.10603488480E+03  0.19961907203E+03  0.12541659135E+03 0.  0.
         35    2    3    3    0    0  0.97958376405E+02  0.57264406303E+02 -0.11597775235E+04  0.14135016439E+04  0.80001746076E+03 0.  0.
         22    1    5    5    0    0  0.14350479808E+03  0.58887261829E+02  0.78869476893E+02  0.17401646779E+03  0.00000000000E+00 0.  1.
         22    1    5    5    0    0 -0.45546421676E+02 -0.16228555257E+01 -0.12386470004E+04  0.12394851761E+04  0.00000000000E+00 0.  1.
          5    1    4    4  502    0 -0.80120542338E+02 -0.32529171636E+02 -0.13295434788E+03  0.15867071857E+03  0.47000000000E+01 0.  1.
         -5    1    4    4    0  502 -0.17837834067E+02 -0.24735234667E+02  0.26919463083E+02  0.40948353458E+02  0.47000000000E+01 0.  1.
<mgrwt>
<rscale>  0 0.99993869E+03</rscale>
<asrwt>0</asrwt>
<pdfrwt beam="1">  1        1 0.22145639E+00 0.99993869E+03</pdfrwt>
<pdfrwt beam="2">  1       -1 0.26716024E-01 0.99993869E+03</pdfrwt>
<totfact> 0.97619050E+01</totfact>
</mgrwt>
</event>
<event>
 9    1  0.4296086E-036  0.9992606E+03  0.7818608E-02  0.8681742E-01
          2   -1    0    0  501    0  0.00000000000E+00  0.00000000000E+00  0.16199820630E+04  0.16199820630E+04  0.00000000000E+00 0. -1.
         -2   -1    0    0    0  501 -0.00000000000E+00 -0.00000000000E+00 -0.15409457058E+03  0.15409457058E+03  0.00000000000E+00 0. -1.
         36    2    1    2    0    0  0.28421709430E-13  0.00000000000E+00  0.14658874925E+04  0.17740766336E+04  0.99926060736E+03 0.  0.
         25    2    3    3    0    0  0.13703266901E+03 -0.17649187892E+02  0.23633427103E+03  0.30096606176E+03  0.12504893626E+03 0.  0.
         35    2    3    3    0    0 -0.13703266901E+03  0.17649187892E+02  0.12295532214E+04  0.14731105719E+04  0.79947744583E+03 0.  0.
         22    1    5    5    0    0  0.19980126969E+03 -0.29085935841E+03  0.58333393032E+03  0.68176109306E+03  0.00000000000E+00 0.  1.
         22    1    5    5    0    0 -0.33683393870E+03  0.30850854630E+03  0.64621929110E+03  0.79134947880E+03  0.00000000000E+00 0.  1.
          5    1    4    4  502    0  0.45787596725E+02  0.25504057453E+02  0.10642183347E+02  0.53687121610E+02  0.47000000000E+01 0. -1.
         -5    1    4    4    0  502  0.91245072287E+02 -0.43153245346E+02  0.22569208768E+03  0.24727894015E+03  0.47000000000E+01 0. -1.
<mgrwt>
<rscale>  0 0.99926061E+03</rscale>
<asrwt>0</asrwt>
<pdfrwt beam="1">  1        2 0.24922800E+00 0.99926061E+03</pdfrwt>
<pdfrwt beam="2">  1       -2 0.23706858E-01 0.99926061E+03</pdfrwt>
<totfact> 0.20425622E+02</totfact>
</mgrwt>
</event>
<event>
 9    1  0.4296086E-036  0.1001573E+04  0.7818608E-02  0.8679541E-01
          2   -1    0    0  501    0  0.00000000000E+00  0.00000000000E+00  0.10637807196E+04  0.10637807196E+04  0.00000000000E+00 0. -1.
         -2   -1    0    0    0  501 -0.00000000000E+00 -0.00000000000E+00 -0.23575074393E+03  0.23575074393E+03  0.00000000000E+00 0. -1.
         36    2    1    2    0    0  0.42632564146E-13  0.00000000000E+00  0.82802997565E+03  0.12995314635E+04  0.10015729549E+04 0.  0.
         25    2    3    3    0    0 -0.57067040060E+02  0.71123549441E+02  0.29788745500E+03  0.33539073138E+03  0.12423687257E+03 0.  0.
         35    2    3    3    0    0  0.57067040060E+02 -0.71123549441E+02  0.53014252065E+03  0.96414073212E+03  0.80012564813E+03 0.  0.
         22    1    5    5    0    0  0.31479910739E+03  0.14652639771E+03  0.52170906942E+03  0.62669674992E+03  0.00000000000E+00 0.  1.
         22    1    5    5    0    0 -0.25773206733E+03 -0.21764994715E+03  0.84334512257E+01  0.33744398220E+03  0.00000000000E+00 0.  1.
          5    1    4    4  502    0 -0.86153651725E+02  0.83961676743E+02  0.21373036806E+03  0.24530547303E+03  0.47000000000E+01 0. -1.
         -5    1    4    4    0  502  0.29086611665E+02 -0.12838127302E+02  0.84157086938E+02  0.90085258354E+02  0.47000000000E+01 0. -1.
<mgrwt>
<rscale>  0 0.10015730E+04</rscale>
<asrwt>0</asrwt>
<pdfrwt beam="1">  1        2 0.16365857E+00 0.10015730E+04</pdfrwt>
<pdfrwt beam="2">  1       -2 0.36269346E-01 0.10015730E+04</pdfrwt>
<totfact> 0.19825475E+02</totfact>
</mgrwt>
</event>
<event>
 9    1  0.4296086E-036  0.9998908E+03  0.7818608E-02  0.8681142E-01
          2   -1    0    0  501    0  0.00000000000E+00  0.00000000000E+00  0.20601365779E+04  0.20601365779E+04  0.00000000000E+00 0.  1.
         -2   -1    0    0    0  501 -0.00000000000E+00 -0.00000000000E+00 -0.12132466958E+03  0.12132466958E+03  0.00000000000E+00 0.  1.
         36    2    1    2    0    0  0.00000000000E+00  0.00000000000E+00  0.19388119083E+04  0.21814612475E+04  0.99989077323E+03 0.  0.
         25    2    3    3    0    0  0.64106396821E+02  0.11074702550E+03  0.48997163175E+03  0.52199145592E+03  0.12660310566E+03 0.  0.
         35    2    3    3    0    0 -0.64106396821E+02 -0.11074702550E+03  0.14488402766E+04  0.16594697915E+04  0.79895388371E+03 0.  0.
         22    1    5    5    0    0  0.22636057827E+03 -0.49940183443E+02  0.60228064077E+02  0.23950063261E+03  0.00000000000E+00 0.  1.
         22    1    5    5    0    0 -0.29046697509E+03 -0.60806842059E+02  0.13886122125E+04  0.14199691589E+04  0.00000000000E+00 0.  1.
          5    1    4    4  502    0  0.84505774140E+02  0.22588703152E+02  0.27773538267E+03  0.29122243759E+03  0.47000000000E+01 0. -1.
         -5    1    4    4    0  502 -0.20399377319E+02  0.88158322349E+02  0.21223624909E+03  0.23076901833E+03  0.47000000000E+01 0. -1.
<mgrwt>
<rscale>  0 0.99989077E+03</rscale>
<asrwt>0</asrwt>
<pdfrwt beam="1">  1        2 0.31694406E+00 0.99989077E+03</pdfrwt>
<pdfrwt beam="2">  1       -2 0.18665335E-01 0.99989077E+03</pdfrwt>
<totfact> 0.17446327E+02</totfact>
</mgrwt>
</event>
<event>
 9    1  0.4296086E-036  0.9997892E+03  0.7818608E-02  0.8681239E-01
         -2   -1    0    0    0  501 -0.00000000000E+00  0.00000000000E+00  0.41858209703E+03  0.41858209703E+03  0.00000000000E+00 0.  1.
          2   -1    0    0  501    0  0.00000000000E+00 -0.00000000000E+00 -0.59700263631E+03  0.59700263631E+03  0.00000000000E+00 0.  1.
         36    2    1    2    0    0  0.14210854715E-13  0.28421709430E-13 -0.17842053929E+03  0.10155847333E+04  0.99978920866E+03 0.  0.
         25    2    3    3    0    0  0.10206968422E+03 -0.20346892358E+02  0.62734806532E+02  0.17434747766E+03  0.12501668109E+03 0.  0.
         35    2    3    3    0    0 -0.10206968422E+03  0.20346892358E+02 -0.24115534582E+03  0.84123725568E+03  0.79918208380E+03 0.  0.
         22    1    5    5    0    0 -0.72636822779E+02  0.40183480367E+03 -0.43723998152E+02  0.41068126994E+03  0.00000000000E+00 0. -1.
         22    1    5    5    0    0 -0.29432861441E+02 -0.38148791132E+03 -0.19743134767E+03  0.43055598574E+03  0.00000000000E+00 0. -1.
          5    1    4    4  502    0 -0.66035868433E+01 -0.13721216092E+02  0.63396669401E+02  0.65369005052E+02  0.47000000000E+01 0.  1.
         -5    1    4    4    0  502  0.10867327106E+03 -0.66256762659E+01 -0.66186286972E+00  0.10897847261E+03  0.47000000000E+01 0.  1.
<mgrwt>
<rscale>  0 0.99978921E+03</rscale>
<asrwt>0</asrwt>
<pdfrwt beam="1">  1        2 0.91846559E-01 0.99978921E+03</pdfrwt>
<pdfrwt beam="2">  1       -2 0.64397246E-01 0.99978921E+03</pdfrwt>
<totfact> 0.13446981E+02</totfact>
</mgrwt>
</event>
<event>
 9    1  0.4296086E-036  0.1001421E+04  0.7818608E-02  0.8679686E-01
          2   -1    0    0  501    0  0.00000000000E+00  0.00000000000E+00  0.85574615108E+03  0.85574615108E+03  0.00000000000E+00 0.  1.
         -2   -1    0    0    0  501 -0.00000000000E+00 -0.00000000000E+00 -0.29297338897E+03  0.29297338897E+03  0.00000000000E+00 0.  1.
         36    2    1    2    0    0  0.00000000000E+00  0.00000000000E+00  0.56277276211E+03  0.11487195401E+04  0.10014206908E+04 0.  0.
         25    2    3    3    0    0  0.12516727186E+03 -0.42093327273E+02  0.16579141126E+03  0.24581204190E+03  0.12449125973E+03 0.  0.
         35    2    3    3    0    0 -0.12516727186E+03  0.42093327273E+02  0.39698135085E+03  0.90290749816E+03  0.80013065381E+03 0.  0.
         22    1    5    5    0    0 -0.44020561916E+03  0.82766132794E+01  0.38654186074E+03  0.58588744616E+03  0.00000000000E+00 0. -1.
         22    1    5    5    0    0  0.31503834730E+03  0.33816713993E+02  0.10439490105E+02  0.31702005200E+03  0.00000000000E+00 0. -1.
          5    1    4    4  502    0  0.14316988573E+02 -0.45737998172E+02  0.11311322010E+03  0.12293750933E+03  0.47000000000E+01 0.  1.
         -5    1    4    4    0  502  0.11085028328E+03  0.36446708988E+01  0.52678191158E+02  0.12287453257E+03  0.47000000000E+01 0.  1.
<mgrwt>
<rscale>  0 0.10014207E+04</rscale>
<asrwt>0</asrwt>
<pdfrwt beam="1">  1        2 0.13165325E+00 0.10014207E+04</pdfrwt>
<pdfrwt beam="2">  1       -2 0.45072829E-01 0.10014207E+04</pdfrwt>
<totfact> 0.17765343E+02</totfact>
</mgrwt>
</event>
<event>
 9    1  0.4296086E-036  0.9999986E+03  0.7818608E-02  0.8681039E-01
          2   -1    0    0  501    0  0.00000000000E+00  0.00000000000E+00  0.96267845939E+03  0.96267845939E+03  0.00000000000E+00 0. -1.
         -2   -1    0    0    0  501 -0.00000000000E+00 -0.00000000000E+00 -0.25969135677E+03  0.25969135677E+03  0.00000000000E+00 0. -1.
         36    2    1    2    0    0 -0.35527136788E-13 -0.28421709430E-13  0.70298710261E+03  0.12223698162E+04  0.99999855050E+03 0.  0.
         25    2    3    3    0    0 -0.41882579570E+02  0.12824346588E+03  0.84670191492E+02  0.20228812802E+03  0.12470328143E+03 0.  0.
         35    2    3    3    0    0  0.41882579570E+02 -0.12824346588E+03  0.61831691112E+03  0.10200816881E+04  0.80003144368E+03 0.  0.
         22    1    5    5    0    0 -0.34870668682E+03  0.69360911021E+02  0.17207408421E+03  0.39498959463E+03  0.00000000000E+00 0.  1.
         22    1    5    5    0    0  0.39058926639E+03 -0.19760437690E+03  0.44624282692E+03  0.62509209350E+03  0.00000000000E+00 0.  1.
          5    1    4    4  502    0 -0.75102061475E+02  0.89506870437E+02  0.18178488758E+02  0.11833996344E+03  0.47000000000E+01 0.  1.
         -5    1    4    4    0  502  0.33219481905E+02  0.38736595445E+02  0.66491702733E+02  0.83948164584E+02  0.47000000000E+01 0.  1.
<mgrwt>
<rscale>  0 0.99999855E+03</rscale>
<asrwt>0</asrwt>
<pdfrwt beam="1">  1        2 0.14810438E+00 0.99999855E+03</pdfrwt>
<pdfrwt beam="2">  1       -2 0.39952517E-01 0.99999855E+03</pdfrwt>
<totfact> 0.19090733E+02</totfact>
</mgrwt>
</event>
<event>
 9    1  0.4296086E-036  0.9995124E+03  0.7818608E-02  0.8681502E-01
          2   -1    0    0  501    0  0.00000000000E+00  0.00000000000E+00  0.48579245248E+03  0.48579245248E+03  0.00000000000E+00 0.  1.
         -2   -1    0    0    0  501 -0.00000000000E+00 -0.00000000000E+00 -0.51412129593E+03  0.51412129593E+03  0.00000000000E+00 0.  1.
         36    2    1    2    0    0  0.14210854715E-13  0.00000000000E+00 -0.28328843451E+02  0.99991374842E+03  0.99951237156E+03 0.  0.
         25    2    3    3    0    0  0.67182211001E+02  0.10098189151E+03  0.62853202486E+02  0.18490463018E+03  0.12461302224E+03 0.  0.
         35    2    3    3    0    0 -0.67182211001E+02 -0.10098189151E+03 -0.91182045937E+02  0.81500911823E+03  0.80075895587E+03 0.  0.
         22    1    5    5    0    0 -0.32115357397E+02  0.25189064621E+03 -0.30814460249E+03  0.39929110918E+03  0.00000000000E+00 0. -1.
         22    1    5    5    0    0 -0.35066853604E+02 -0.35287253772E+03  0.21696255655E+03  0.41571800905E+03  0.00000000000E+00 0. -1.
          5    1    4    4  502    0  0.81826994412E+02  0.16805894051E+02  0.52344617600E+02  0.98692168286E+02  0.47000000000E+01 0. -1.
         -5    1    4    4    0  502 -0.14644783410E+02  0.84175997464E+02  0.10508584886E+02  0.86212461898E+02  0.47000000000E+01 0. -1.
<mgrwt>
<rscale>  0 0.99951237E+03</rscale>
<asrwt>0</asrwt>
<pdfrwt beam="1">  1        2 0.74737300E-01 0.99951237E+03</pdfrwt>
<pdfrwt beam="2">  1       -2 0.79095584E-01 0.99951237E+03</pdfrwt>
<totfact> 0.10885894E+02</totfact>
</mgrwt>
</event>
<event>
 9    1  0.4296086E-036  0.1000645E+04  0.7818608E-02  0.8680424E-01
          1   -1    0    0  501    0  0.00000000000E+00  0.00000000000E+00  0.33711667637E+04  0.33711667637E+04  0.00000000000E+00 0.  1.
         -1   -1    0    0    0  501 -0.00000000000E+00 -0.00000000000E+00 -0.74253951446E+02  0.74253951446E+02  0.00000000000E+00 0.  1.
         36    2    1    2    0    0  0.00000000000E+00  0.28421709430E-13  0.32969128122E+04  0.34454207151E+04  0.10006446986E+04 0.  0.
         25    2    3    3    0    0 -0.18249913023E+02 -0.13918936228E+03  0.64549176936E+03  0.67241686443E+03  0.12561081709E+03 0.  0.
         35    2    3    3    0    0  0.18249913023E+02  0.13918936228E+03  0.26514210429E+04  0.27730038507E+04  0.79988128585E+03 0.  0.
         22    1    5    5    0    0  0.21605541683E+03  0.10081874537E+03  0.19411081169E+03  0.30744653157E+03  0.00000000000E+00 0. -1.
         22    1    5    5    0    0 -0.19780550381E+03  0.38370616908E+02  0.24573102312E+04  0.24655573191E+04  0.00000000000E+00 0. -1.
          5    1    4    4  502    0 -0.56815741482E+02 -0.73142481887E+02  0.20090916684E+03  0.22127908725E+03  0.47000000000E+01 0. -1.
         -5    1    4    4    0  502  0.38565828459E+02 -0.66046880390E+02  0.44458260252E+03  0.45113777718E+03  0.47000000000E+01 0. -1.
<mgrwt>
<rscale>  0 0.10006447E+04</rscale>
<asrwt>0</asrwt>
<pdfrwt beam="1">  1        1 0.51864092E+00 0.10006447E+04</pdfrwt>
<pdfrwt beam="2">  1       -1 0.11423687E-01 0.10006447E+04</pdfrwt>
<totfact> 0.16545903E+01</totfact>
</mgrwt>
</event>
<event>
 9    1  0.4296086E-036  0.1000520E+04  0.7818608E-02  0.8680543E-01
         -1   -1    0    0    0  501 -0.00000000000E+00  0.00000000000E+00  0.99915125583E+02  0.99915125583E+02  0.00000000000E+00 0.  1.
          1   -1    0    0  501    0  0.00000000000E+00 -0.00000000000E+00 -0.25047261004E+04  0.25047261004E+04  0.00000000000E+00 0.  1.
         36    2    1    2    0    0 -0.14210854715E-13  0.00000000000E+00 -0.24048109748E+04  0.26046412260E+04  0.10005199106E+04 0.  0.
         25    2    3    3    0    0 -0.88765887678E+02  0.10751122246E+03 -0.41842845745E+03  0.45855343870E+03  0.12550233611E+03 0.  0.
         35    2    3    3    0    0  0.88765887678E+02 -0.10751122246E+03 -0.19863825174E+04  0.21460877873E+04  0.80033695382E+03 0.  0.
         22    1    5    5    0    0 -0.29534243738E+03 -0.16049258127E+03 -0.14230494870E+04  0.14622088997E+04  0.00000000000E+00 0.  1.
         22    1    5    5    0    0  0.38410832506E+03  0.52981358809E+02 -0.56333303038E+03  0.68387888758E+03  0.00000000000E+00 0.  1.
          5    1    4    4  502    0  0.28115618490E+02  0.14096252821E+01 -0.83881039599E+02  0.88603576964E+02  0.47000000000E+01 0.  1.
         -5    1    4    4    0  502 -0.11688150617E+03  0.10610159718E+03 -0.33454741785E+03  0.36994986174E+03  0.47000000000E+01 0.  1.
<mgrwt>
<rscale>  0 0.10005199E+04</rscale>
<asrwt>0</asrwt>
<pdfrwt beam="1">  1        1 0.38534247E+00 0.10005199E+04</pdfrwt>
<pdfrwt beam="2">  1       -1 0.15371558E-01 0.10005199E+04</pdfrwt>
<totfact> 0.43310418E+01</totfact>
</mgrwt>
</event>
<event>
 9    1  0.4296086E-036  0.9995957E+03  0.7818608E-02  0.8681423E-01
         -1   -1    0    0    0  501 -0.00000000000E+00  0.00000000000E+00  0.15646216080E+03  0.15646216080E+03  0.00000000000E+00 0. -1.
          1   -1    0    0  501    0  0.00000000000E+00 -0.00000000000E+00 -0.15965386904E+04  0.15965386904E+04  0.00000000000E+00 0. -1.
         36    2    1    2    0    0  0.21316282073E-13  0.00000000000E+00 -0.14400765296E+04  0.17530008512E+04  0.99959570489E+03 0.  0.
         25    2    3    3    0    0 -0.22684560204E+01 -0.73289142337E+02 -0.47564546379E+03  0.49718578690E+03  0.12481448310E+03 0.  0.
         35    2    3    3    0    0  0.22684560204E+01  0.73289142337E+02 -0.96443106585E+03  0.12558150643E+04  0.80097924491E+03 0.  0.
         22    1    5    5    0    0  0.22450808775E+03  0.29595448228E+03 -0.83822221054E+03  0.91684753982E+03  0.00000000000E+00 0.  1.
         22    1    5    5    0    0 -0.22223963173E+03 -0.22266533994E+03 -0.12620885531E+03  0.33896752452E+03  0.00000000000E+00 0.  1.
          5    1    4    4  502    0  0.38929501890E+02 -0.24592480114E+02 -0.55808667455E+02  0.72505127810E+02  0.47000000000E+01 0. -1.
         -5    1    4    4    0  502 -0.41197957910E+02 -0.48696662223E+02 -0.41983679633E+03  0.42468065909E+03  0.47000000000E+01 0. -1.
<mgrwt>
<rscale>  0 0.99959570E+03</rscale>
<asrwt>0</asrwt>
<pdfrwt beam="1">  1        1 0.24562134E+00 0.99959570E+03</pdfrwt>
<pdfrwt beam="2">  1       -1 0.24071101E-01 0.99959570E+03</pdfrwt>
<totfact> 0.89936506E+01</totfact>
</mgrwt>
</event>
<event>
 9    1  0.4296086E-036  0.1000233E+04  0.7818608E-02  0.8680816E-01
         -1   -1    0    0    0  501 -0.00000000000E+00  0.00000000000E+00  0.90657451994E+02  0.90657451994E+02  0.00000000000E+00 0. -1.
          1   -1    0    0  501    0  0.00000000000E+00 -0.00000000000E+00 -0.27589188223E+04  0.27589188223E+04  0.00000000000E+00 0. -1.
         36    2    1    2    0    0  0.00000000000E+00  0.56843418861E-13 -0.26682613703E+04  0.28495762743E+04  0.10002330742E+04 0.  0.
         25    2    3    3    0    0  0.81186919204E+02 -0.41031911132E+02 -0.79391756361E+03  0.80888079652E+03  0.12533200545E+03 0.  0.
         35    2    3    3    0    0 -0.81186919204E+02  0.41031911132E+02 -0.18743438067E+04  0.20406954778E+04  0.80187180629E+03 0.  0.
         22    1    5    5    0    0 -0.75380741981E+02 -0.30914559258E+03 -0.33509500009E+03  0.46210595404E+03  0.00000000000E+00 0. -1.
         22    1    5    5    0    0 -0.58061772235E+01  0.35017750371E+03 -0.15392488066E+04  0.15785895237E+04  0.00000000000E+00 0. -1.
          5    1    4    4  502    0  0.33695459881E+01  0.29281170374E+02 -0.40324942016E+03  0.40435247697E+03  0.47000000000E+01 0. -1.
         -5    1    4    4    0  502  0.77817373216E+02 -0.70313081506E+02 -0.39066814345E+03  0.40452831955E+03  0.47000000000E+01 0. -1.
<mgrwt>
<rscale>  0 0.10002331E+04</rscale>
<asrwt>0</asrwt>
<pdfrwt beam="1">  1        1 0.42444905E+00 0.10002331E+04</pdfrwt>
<pdfrwt beam="2">  1       -1 0.13947300E-01 0.10002331E+04</pdfrwt>
<totfact> 0.33543943E+01</totfact>
</mgrwt>
</event>
<event>
 9    1  0.4296086E-036  0.9987243E+03  0.7818608E-02  0.8682254E-01
          1   -1    0    0  501    0  0.00000000000E+00  0.00000000000E+00  0.33240946546E+03  0.33240946546E+03  0.00000000000E+00 0.  1.
         -1   -1    0    0    0  501 -0.00000000000E+00 -0.00000000000E+00 -0.75016687518E+03  0.75016687518E+03  0.00000000000E+00 0.  1.
         36    2    1    2    0    0  0.00000000000E+00 -0.53290705182E-14 -0.41775740972E+03  0.10825763406E+04  0.99872432630E+03 0.  0.
         25    2    3    3    0    0 -0.13765999417E+03 -0.10098462917E+02 -0.78400026141E+02  0.20203232564E+03  0.12497297131E+03 0.  0.
         35    2    3    3    0    0  0.13765999417E+03  0.10098462917E+02 -0.33935738358E+03  0.88054401500E+03  0.80071347910E+03 0.  0.
         22    1    5    5    0    0  0.14652385936E+02 -0.38530390303E+03 -0.24175279693E+03  0.45510241147E+03  0.00000000000E+00 0.  1.
         22    1    5    5    0    0  0.12300760823E+03  0.39540236595E+03 -0.97604586646E+02  0.42544160353E+03  0.00000000000E+00 0.  1.
          5    1    4    4  502    0 -0.14201521882E+03 -0.85605250965E+01 -0.20571249096E+02  0.14382931293E+03  0.47000000000E+01 0. -1.
         -5    1    4    4    0  502  0.43552246547E+01 -0.15379378204E+01 -0.57828777045E+02  0.58203012714E+02  0.47000000000E+01 0. -1.
<mgrwt>
<rscale>  0 0.99872433E+03</rscale>
<asrwt>0</asrwt>
<pdfrwt beam="1">  1        1 0.51139918E-01 0.99872433E+03</pdfrwt>
<pdfrwt beam="2">  1       -1 0.11541029E+00 0.99872433E+03</pdfrwt>
<totfact> 0.62758059E+01</totfact>
</mgrwt>
</event>
<event>
 9    1  0.4296086E-036  0.1000454E+04  0.7818608E-02  0.8680606E-01
          1   -1    0    0  501    0  0.00000000000E+00  0.00000000000E+00  0.23540095038E+04  0.23540095038E+04  0.00000000000E+00 0. -1.
         -1   -1    0    0    0  501 -0.00000000000E+00 -0.00000000000E+00 -0.10629826666E+03  0.10629826666E+03  0.00000000000E+00 0. -1.
         36    2    1    2    0    0  0.00000000000E+00  0.00000000000E+00  0.22477112372E+04  0.24603077705E+04  0.10004541568E+04 0.  0.
         25    2    3    3    0    0 -0.12512464445E+03 -0.35949580922E+02  0.29490634786E+03  0.34596015623E+03  0.12557916497E+03 0.  0.
         35    2    3    3    0    0  0.12512464445E+03  0.35949580922E+02  0.19528048893E+04  0.21143476143E+04  0.80004396703E+03 0.  0.
         22    1    5    5    0    0  0.24167354843E+03  0.31251464448E+03  0.16143868824E+04  0.16620218148E+04  0.00000000000E+00 0. -1.
         22    1    5    5    0    0 -0.11654890397E+03 -0.27656506356E+03  0.33841800696E+03  0.45232579943E+03  0.00000000000E+00 0. -1.
          5    1    4    4  502    0  0.10306986528E+02  0.20061732273E+02  0.91715082350E+01  0.24797452215E+02  0.47000000000E+01 0. -1.
         -5    1    4    4    0  502 -0.13543163098E+03 -0.56011313195E+02  0.28573483962E+03  0.32116270402E+03  0.47000000000E+01 0. -1.
<mgrwt>
<rscale>  0 0.10004542E+04</rscale>
<asrwt>0</asrwt>
<pdfrwt beam="1">  1        1 0.36215527E+00 0.10004542E+04</pdfrwt>
<pdfrwt beam="2">  1       -1 0.16353581E-01 0.10004542E+04</pdfrwt>
<totfact> 0.49987334E+01</totfact>
</mgrwt>
</event>
<event>
 9    1  0.4296086E-036  0.1000247E+04  0.7818608E-02  0.8680803E-01
          1   -1    0    0  501    0  0.00000000000E+00  0.00000000000E+00  0.28463804499E+03  0.28463804499E+03  0.00000000000E+00 0. -1.
         -1   -1    0    0    0  501 -0.00000000000E+00 -0.00000000000E+00 -0.87874262104E+03  0.87874262104E+03  0.00000000000E+00 0. -1.
         36    2    1    2    0    0  0.42632564146E-13 -0.14210854715E-13 -0.59410457605E+03  0.11633806660E+04  0.10002471329E+04 0.  0.
         25    2    3    3    0    0  0.11828655537E+03  0.29797759812E+02 -0.19213027837E+03  0.25997031263E+03  0.12566186338E+03 0.  0.
         35    2    3    3    0    0 -0.11828655537E+03 -0.29797759812E+02 -0.40197429768E+03  0.90341035340E+03  0.79980454797E+03 0.  0.
         22    1    5    5    0    0  0.22426424634E+03 -0.27004351004E+03 -0.32422102179E+03  0.47784644026E+03  0.00000000000E+00 0. -1.
         22    1    5    5    0    0 -0.34255080171E+03  0.24024575023E+03 -0.77753275895E+02  0.42556391314E+03  0.00000000000E+00 0. -1.
          5    1    4    4  502    0  0.11162554589E+03  0.44352562263E+02 -0.75057581840E+02  0.14171500579E+03  0.47000000000E+01 0. -1.
         -5    1    4    4    0  502  0.66610094800E+01 -0.14554802451E+02 -0.11707269653E+03  0.11825530683E+03  0.47000000000E+01 0. -1.
<mgrwt>
<rscale>  0 0.10002471E+04</rscale>
<asrwt>0</asrwt>
<pdfrwt beam="1">  1        1 0.43790468E-01 0.10002471E+04</pdfrwt>
<pdfrwt beam="2">  1       -1 0.13519117E+00 0.10002471E+04</pdfrwt>
<totfact> 0.51424157E+01</totfact>
</mgrwt>
</event>
<event>
 9    1  0.4296086E-036  0.1012147E+04  0.7818608E-02  0.8669556E-01
          1   -1    0    0  501    0  0.00000000000E+00  0.00000000000E+00  0.17718929126E+04  0.17718929126E+04  0.00000000000E+00 0.  1.
         -1   -1    0    0    0  501 -0.00000000000E+00 -0.00000000000E+00 -0.14454058997E+03  0.14454058997E+03  0.00000000000E+00 0.  1.
         36    2    1    2    0    0  0.28421709430E-13  0.28421709430E-13  0.16273523226E+04  0.19164335026E+04  0.10121471177E+04 0.  0.
         25    2    3    3    0    0 -0.41371168783E+02  0.14630039862E+03  0.34110927425E+03  0.39386865568E+03  0.12514631719E+03 0.  0.
         35    2    3    3    0    0  0.41371168783E+02 -0.14630039862E+03  0.12862430484E+04  0.15225648469E+04  0.80041686215E+03 0.  0.
         22    1    5    5    0    0  0.32400372170E+03 -0.18524506097E+01  0.17783147761E+03  0.36960232369E+03  0.00000000000E+00 0.  1.
         22    1    5    5    0    0 -0.28263255292E+03 -0.14444794801E+03  0.11084115708E+04  0.11529625232E+04  0.00000000000E+00 0.  1.
          5    1    4    4  502    0  0.35789915194E+02  0.61240663186E+02  0.19764068497E+03  0.21003634736E+03  0.47000000000E+01 0. -1.
         -5    1    4    4    0  502 -0.77161083978E+02  0.85059735438E+02  0.14346858928E+03  0.18383230833E+03  0.47000000000E+01 0. -1.
<mgrwt>
<rscale>  0 0.10121471E+04</rscale>
<asrwt>0</asrwt>
<pdfrwt beam="1">  1        1 0.27259890E+00 0.10121471E+04</pdfrwt>
<pdfrwt beam="2">  1       -1 0.22237015E-01 0.10121471E+04</pdfrwt>
<totfact> 0.77158300E+01</totfact>
</mgrwt>
</event>
<event>
 9    1  0.4296086E-036  0.1000241E+04  0.7818608E-02  0.8680808E-01
          2   -1    0    0  501    0  0.00000000000E+00  0.00000000000E+00  0.12833807424E+04  0.12833807424E+04  0.00000000000E+00 0. -1.
         -2   -1    0    0    0  501 -0.00000000000E+00 -0.00000000000E+00 -0.19489193669E+03  0.19489193669E+03  0.00000000000E+00 0. -1.
         36    2    1    2    0    0  0.00000000000E+00  0.39079850467E-13  0.10884888057E+04  0.14782726791E+04  0.10002410877E+04 0.  0.
         25    2    3    3    0    0  0.50627051026E+01  0.18214479180E+02  0.41138704396E+03  0.43075994882E+03  0.12632274276E+03 0.  0.
         35    2    3    3    0    0 -0.50627051026E+01 -0.18214479180E+02  0.67710176173E+03  0.10475127302E+04  0.79903612313E+03 0.  0.
         22    1    5    5    0    0 -0.10411506935E+03  0.37329966645E+03  0.40498443055E+03  0.56053989833E+03  0.00000000000E+00 0. -1.
         22    1    5    5    0    0  0.99052364251E+02 -0.39151414563E+03  0.27211733118E+03  0.48697283191E+03  0.00000000000E+00 0. -1.
          5    1    4    4  502    0  0.59968308784E+02  0.34307184027E+02  0.25234547767E+03  0.26167443711E+03  0.47000000000E+01 0.  1.
         -5    1    4    4    0  502 -0.54905603681E+02 -0.16092704847E+02  0.15904156628E+03  0.16908551171E+03  0.47000000000E+01 0.  1.
<mgrwt>
<rscale>  0 0.10002411E+04</rscale>
<asrwt>0</asrwt>
<pdfrwt beam="1">  1        2 0.19744319E+00 0.10002411E+04</pdfrwt>
<pdfrwt beam="2">  1       -2 0.29983376E-01 0.10002411E+04</pdfrwt>
<totfact> 0.20857907E+02</totfact>
</mgrwt>
</event>
<event>
 9    1  0.4296086E-036  0.1005174E+04  0.7818608E-02  0.8676126E-01
          2   -1    0    0  501    0  0.00000000000E+00  0.00000000000E+00  0.60444424231E+03  0.60444424231E+03  0.00000000000E+00 0.  1.
         -2   -1    0    0    0  501 -0.00000000000E+00 -0.00000000000E+00 -0.41789436939E+03  0.41789436939E+03  0.00000000000E+00 0.  1.
         36    2    1    2    0    0  0.56843418861E-13  0.00000000000E+00  0.18654987292E+03  0.10223386117E+04  0.10051743042E+04 0.  0.
         25    2    3    3    0    0 -0.95404385029E+02  0.83086844807E+02  0.11315942095E+03  0.21003975271E+03  0.12371832000E+03 0.  0.
         35    2    3    3    0    0  0.95404385029E+02 -0.83086844807E+02  0.73390451970E+02  0.81229885900E+03  0.79902306439E+03 0.  0.
         22    1    5    5    0    0  0.44608645845E+03  0.51398916668E+01  0.18072049729E+02  0.44648196590E+03  0.00000000000E+00 0.  1.
         22    1    5    5    0    0 -0.35068207342E+03 -0.88226736473E+02  0.55318402242E+02  0.36581689309E+03  0.00000000000E+00 0.  1.
          5    1    4    4  502    0 -0.10219923490E+03  0.13121795010E+02  0.46833947100E+02  0.11328006761E+03  0.47000000000E+01 0. -1.
         -5    1    4    4    0  502  0.67948498670E+01  0.69965049796E+02  0.66325473852E+02  0.96759685093E+02  0.47000000000E+01 0. -1.
<mgrwt>
<rscale>  0 0.10051743E+04</rscale>
<asrwt>0</asrwt>
<pdfrwt beam="1">  1        2 0.92991422E-01 0.10051743E+04</pdfrwt>
<pdfrwt beam="2">  1       -2 0.64291441E-01 0.10051743E+04</pdfrwt>
<totfact> 0.13295426E+02</totfact>
</mgrwt>
</event>
<event>
 9    1  0.4296086E-036  0.1003710E+04  0.7818608E-02  0.8677512E-01
          2   -1    0    0  501    0  0.00000000000E+00  0.00000000000E+00  0.67063367789E+03  0.67063367789E+03  0.00000000000E+00 0. -1.
         -2   -1    0    0    0  501 -0.00000000000E+00 -0.00000000000E+00 -0.37555329971E+03  0.37555329971E+03  0.00000000000E+00 0. -1.
         36    2    1    2    0    0 -0.28421709430E-13  0.14210854715E-13  0.29508037818E+03  0.10461869776E+04  0.10037104974E+04 0.  0.
         25    2    3    3    0    0 -0.13615956337E+03 -0.41673864554E+02  0.78509675372E+02  0.20501541428E+03  0.12486558085E+03 0.  0.
         35    2    3    3    0    0  0.13615956337E+03  0.41673864554E+02  0.21657070281E+03  0.84117156332E+03  0.80024408272E+03 0.  0.
         22    1    5    5    0    0 -0.97806031938E+02 -0.18343872529E+03 -0.21634335880E+03  0.30003372263E+03  0.00000000000E+00 0.  1.
         22    1    5    5    0    0  0.23396559531E+03  0.22511258984E+03  0.43291406161E+03  0.54113784069E+03  0.00000000000E+00 0.  1.
          5    1    4    4  502    0  0.13377741271E+02 -0.36705057518E+02  0.21451579120E+02  0.44816129414E+02  0.47000000000E+01 0.  1.
         -5    1    4    4    0  502 -0.14953730464E+03 -0.49688070356E+01  0.57058096252E+02  0.16019928486E+03  0.47000000000E+01 0.  1.
<mgrwt>
<rscale>  0 0.10037105E+04</rscale>
<asrwt>0</asrwt>
<pdfrwt beam="1">  1        2 0.10317441E+00 0.10037105E+04</pdfrwt>
<pdfrwt beam="2">  1       -2 0.57777431E-01 0.10037105E+04</pdfrwt>
<totfact> 0.14677939E+02</totfact>
</mgrwt>
</event>
<event>
 9    1  0.4296086E-036  0.1001323E+04  0.7818608E-02  0.8679779E-01
         -2   -1    0    0    0  501 -0.00000000000E+00  0.00000000000E+00  0.24496694776E+04  0.24496694776E+04  0.00000000000E+00 0. -1.
          2   -1    0    0  501    0  0.00000000000E+00 -0.00000000000E+00 -0.10232475814E+03  0.10232475814E+03  0.00000000000E+00 0. -1.
         36    2    1    2    0    0  0.00000000000E+00  0.14210854715E-13  0.23473447195E+04  0.25519942358E+04  0.10013227987E+04 0.  0.
         25    2    3    3    0    0 -0.23831674358E+01  0.12241327227E+03  0.24820757631E+03  0.30241001088E+03  0.12187750010E+03 0.  0.
         35    2    3    3    0    0  0.23831674358E+01 -0.12241327227E+03  0.20991371432E+04  0.22495842249E+04  0.79953846077E+03 0.  0.
         22    1    5    5    0    0 -0.30504223301E+03 -0.12727911844E+03  0.38204660927E+03  0.50518348109E+03  0.00000000000E+00 0. -1.
         22    1    5    5    0    0  0.30742540045E+03  0.48658461669E+01  0.17170905339E+04  0.17444007438E+04  0.00000000000E+00 0. -1.
          5    1    4    4  502    0  0.39020656704E+02  0.80166115309E+02  0.21852554809E+03  0.23606084567E+03  0.47000000000E+01 0. -1.
         -5    1    4    4    0  502 -0.41403824140E+02  0.42247156964E+02  0.29682028219E+02  0.66349165210E+02  0.47000000000E+01 0. -1.
<mgrwt>
<rscale>  0 0.10013228E+04</rscale>
<asrwt>0</asrwt>
<pdfrwt beam="1">  1        2 0.15742272E-01 0.10013228E+04</pdfrwt>
<pdfrwt beam="2">  1       -2 0.37687218E+00 0.10013228E+04</pdfrwt>
<totfact> 0.53416173E+00</totfact>
</mgrwt>
</event>
<event>
 9    1  0.4296086E-036  0.1000121E+04  0.7818608E-02  0.8680922E-01
         -1   -1    0    0    0  501 -0.00000000000E+00  0.00000000000E+00  0.50492346839E+03  0.50492346839E+03  0.00000000000E+00 0.  1.
          1   -1    0    0  501    0  0.00000000000E+00 -0.00000000000E+00 -0.49524474623E+03  0.49524474623E+03  0.00000000000E+00 0.  1.
         36    2    1    2    0    0 -0.71054273576E-14 -0.14210854715E-13  0.96787221616E+01  0.10001682146E+04  0.10001213826E+04 0.  0.
         25    2    3    3    0    0 -0.41115182900E+02  0.43278067151E+02  0.13008207141E+03  0.19002475781E+03  0.12499845566E+03 0.  0.
         35    2    3    3    0    0  0.41115182900E+02 -0.43278067151E+02 -0.12040334925E+03  0.81014345681E+03  0.79891927298E+03 0.  0.
         22    1    5    5    0    0  0.12280975810E+03 -0.36394345780E+03 -0.24608193370E+03  0.45617254987E+03  0.00000000000E+00 0.  1.
         22    1    5    5    0    0 -0.81694575200E+02  0.32066539064E+03  0.12567858445E+03  0.35397090695E+03  0.00000000000E+00 0.  1.
          5    1    4    4  502    0  0.12489222745E+02 -0.32628857747E+02  0.73503577909E+01  0.36010287451E+02  0.47000000000E+01 0.  1.
         -5    1    4    4    0  502 -0.53604405645E+02  0.75906924898E+02  0.12273171362E+03  0.15401447036E+03  0.47000000000E+01 0.  1.
<mgrwt>
<rscale>  0 0.10001214E+04</rscale>
<asrwt>0</asrwt>
<pdfrwt beam="1">  1        1 0.76191499E-01 0.10001214E+04</pdfrwt>
<pdfrwt beam="2">  1       -1 0.77680534E-01 0.10001214E+04</pdfrwt>
<totfact> 0.88073714E+01</totfact>
</mgrwt>
</event>
<event>
 9    1  0.4296086E-036  0.1000169E+04  0.7818608E-02  0.8680877E-01
          2   -1    0    0  501    0  0.00000000000E+00  0.00000000000E+00  0.25364588608E+04  0.25364588608E+04  0.00000000000E+00 0. -1.
         -2   -1    0    0    0  501 -0.00000000000E+00 -0.00000000000E+00 -0.98595835861E+02  0.98595835861E+02  0.00000000000E+00 0. -1.
         36    2    1    2    0    0  0.14210854715E-13 -0.71054273576E-14  0.24378630250E+04  0.26350546967E+04  0.10001685488E+04 0.  0.
         25    2    3    3    0    0 -0.23937505675E+02 -0.59611876408E+00  0.82066695534E+03  0.83051668953E+03  0.12526116900E+03 0.  0.
         35    2    3    3    0    0  0.23937505675E+02  0.59611876408E+00  0.16171960696E+04  0.18045380072E+04  0.80028803074E+03 0.  0.
         22    1    5    5    0    0  0.19647098177E+03  0.25972228355E+03  0.13666873114E+04  0.14049522121E+04  0.00000000000E+00 0.  1.
         22    1    5    5    0    0 -0.17253347609E+03 -0.25912616478E+03  0.25050875827E+03  0.39958579507E+03  0.00000000000E+00 0.  1.
          5    1    4    4  502    0 -0.74352842841E+02  0.91149008450E+01  0.53422780017E+03  0.53947461398E+03  0.47000000000E+01 0.  1.
         -5    1    4    4    0  502  0.50415337166E+02 -0.97110196090E+01  0.28643915518E+03  0.29104207555E+03  0.47000000000E+01 0.  1.
<mgrwt>
<rscale>  0 0.10001685E+04</rscale>
<asrwt>0</asrwt>
<pdfrwt beam="1">  1        2 0.39022439E+00 0.10001685E+04</pdfrwt>
<pdfrwt beam="2">  1       -2 0.15168592E-01 0.10001685E+04</pdfrwt>
<totfact> 0.12984064E+02</totfact>
</mgrwt>
</event>
<event>
 9    1  0.4296086E-036  0.1002189E+04  0.7818608E-02  0.8678956E-01
          2   -1    0    0  501    0  0.00000000000E+00  0.00000000000E+00  0.35342702999E+03  0.35342702999E+03  0.00000000000E+00 0. -1.
         -2   -1    0    0    0  501 -0.00000000000E+00 -0.00000000000E+00 -0.71046014736E+03  0.71046014736E+03  0.00000000000E+00 0. -1.
         36    2    1    2    0    0  0.42632564146E-13 -0.12434497876E-13 -0.35703311737E+03  0.10638871773E+04  0.10021892432E+04 0.  0.
         25    2    3    3    0    0 -0.36707020942E+02  0.13433367198E+02  0.78346241848E+02  0.15199043318E+03  0.12423806754E+03 0.  0.
         35    2    3    3    0    0  0.36707020942E+02 -0.13433367198E+02 -0.43537935921E+03  0.91189674416E+03  0.80029533601E+03 0.  0.
         22    1    5    5    0    0 -0.31870143388E+03 -0.14970866752E+03 -0.26260435338E+02  0.35309049768E+03  0.00000000000E+00 0.  1.
         22    1    5    5    0    0  0.35540845482E+03  0.13627530032E+03 -0.40911892388E+03  0.55880624649E+03  0.00000000000E+00 0.  1.
          5    1    4    4  502    0  0.10332503300E+02 -0.13992290718E+01  0.98017245160E+02  0.98682261908E+02  0.47000000000E+01 0.  1.
         -5    1    4    4    0  502 -0.47039524243E+02  0.14832596270E+02 -0.19671003312E+02  0.53308171272E+02  0.47000000000E+01 0.  1.
<mgrwt>
<rscale>  0 0.10021892E+04</rscale>
<asrwt>0</asrwt>
<pdfrwt beam="1">  1        2 0.54373390E-01 0.10021892E+04</pdfrwt>
<pdfrwt beam="2">  1       -2 0.10930156E+00 0.10021892E+04</pdfrwt>
<totfact> 0.71910823E+01</totfact>
</mgrwt>
</event>
<event>
 9    1  0.4296086E-036  0.9915024E+03  0.7818608E-02  0.8689173E-01
          2   -1    0    0  501    0  0.00000000000E+00  0.00000000000E+00  0.37770253787E+04  0.37770253787E+04  0.00000000000E+00 0. -1.
         -2   -1    0    0    0  501 -0.00000000000E+00 -0.00000000000E+00 -0.65069531826E+02  0.65069531826E+02  0.00000000000E+00 0. -1.
         36    2    1    2    0    0  0.00000000000E+00  0.00000000000E+00  0.37119558469E+04  0.38420949106E+04  0.99150244193E+03 0.  0.
         25    2    3    3    0    0  0.25648854276E+02 -0.12081336021E+03  0.84826706081E+03  0.86629125208E+03  0.12509914163E+03 0.  0.
         35    2    3    3    0    0 -0.25648854276E+02  0.12081336021E+03  0.28636887861E+04  0.29758036585E+04  0.79965006002E+03 0.  0.
         22    1    5    5    0    0  0.25982087019E+03  0.31981123980E+03  0.20471387668E+04  0.20881961700E+04  0.00000000000E+00 0.  1.
         22    1    5    5    0    0 -0.28546972447E+03 -0.19899787959E+03  0.81655001927E+03  0.88760748850E+03  0.00000000000E+00 0.  1.
          5    1    4    4  502    0  0.17984821366E+01 -0.37022149163E+01 -0.28102421719E+01  0.68504302308E+01  0.47000000000E+01 0.  1.
         -5    1    4    4    0  502  0.23850372140E+02 -0.11711114529E+03  0.85107730298E+03  0.85944082185E+03  0.47000000000E+01 0.  1.
<mgrwt>
<rscale>  0 0.99150244E+03</rscale>
<asrwt>0</asrwt>
<pdfrwt beam="1">  1        2 0.58108066E+00 0.99150244E+03</pdfrwt>
<pdfrwt beam="2">  1       -2 0.10010700E-01 0.99150244E+03</pdfrwt>
<totfact> 0.34926020E+01</totfact>
</mgrwt>
</event>
<event>
 9    1  0.4296086E-036  0.1000571E+04  0.7818608E-02  0.8680494E-01
          2   -1    0    0  501    0  0.00000000000E+00  0.00000000000E+00  0.10565901986E+04  0.10565901986E+04  0.00000000000E+00 0.  1.
         -2   -1    0    0    0  501 -0.00000000000E+00 -0.00000000000E+00 -0.23688069437E+03  0.23688069437E+03  0.00000000000E+00 0.  1.
         36    2    1    2    0    0 -0.28421709430E-13 -0.28421709430E-13  0.81970950422E+03  0.12934708930E+04  0.10005714765E+04 0.  0.
         25    2    3    3    0    0  0.12759671620E+02  0.13695147883E+03  0.19552148533E+03  0.26966619675E+03  0.12479058327E+03 0.  0.
         35    2    3    3    0    0 -0.12759671620E+02 -0.13695147883E+03  0.62418801889E+03  0.10238046962E+04  0.79977925472E+03 0.  0.
         22    1    5    5    0    0 -0.30668377875E+03 -0.19761625698E+03  0.39987578352E+02  0.36702333930E+03  0.00000000000E+00 0. -1.
         22    1    5    5    0    0  0.29392410713E+03  0.60664778154E+02  0.58420044053E+03  0.65678135691E+03  0.00000000000E+00 0. -1.
          5    1    4    4  502    0  0.66158009373E+02  0.62593519806E+02  0.12107045227E+03  0.15157498257E+03  0.47000000000E+01 0.  1.
         -5    1    4    4    0  502 -0.53398337754E+02  0.74357959020E+02  0.74451033055E+02  0.11809121418E+03  0.47000000000E+01 0.  1.
<mgrwt>
<rscale>  0 0.10005715E+04</rscale>
<asrwt>0</asrwt>
<pdfrwt beam="1">  1        2 0.16255234E+00 0.10005715E+04</pdfrwt>
<pdfrwt beam="2">  1       -2 0.36443184E-01 0.10005715E+04</pdfrwt>
<totfact> 0.19849278E+02</totfact>
</mgrwt>
</event>
<event>
 9    1  0.4296086E-036  0.9983784E+03  0.7818608E-02  0.8682584E-01
          2   -1    0    0  501    0  0.00000000000E+00  0.00000000000E+00  0.72604197277E+03  0.72604197277E+03  0.00000000000E+00 0. -1.
         -2   -1    0    0    0  501 -0.00000000000E+00 -0.00000000000E+00 -0.34321686436E+03  0.34321686436E+03  0.00000000000E+00 0. -1.
         36    2    1    2    0    0  0.00000000000E+00 -0.71054273576E-14  0.38282510841E+03  0.10692588371E+04  0.99837838376E+03 0.  0.
         25    2    3    3    0    0 -0.99225222425E+02 -0.42775152780E+02 -0.23945179012E+02  0.16677235295E+03  0.12475691424E+03 0.  0.
         35    2    3    3    0    0  0.99225222425E+02  0.42775152780E+02  0.40677028742E+03  0.90248648418E+03  0.79833854281E+03 0.  0.
         22    1    5    5    0    0 -0.72371900443E+02  0.23962598101E+03 -0.14695904562E+03  0.29026757283E+03  0.00000000000E+00 0.  1.
         22    1    5    5    0    0  0.17159712287E+03 -0.19685082823E+03  0.55372933304E+03  0.61221891135E+03  0.00000000000E+00 0.  1.
          5    1    4    4  502    0 -0.42068504265E+01 -0.65480705953E+02 -0.20504346068E+02  0.68905287535E+02  0.47000000000E+01 0.  1.
         -5    1    4    4    0  502 -0.95018371999E+02  0.22705553174E+02 -0.34408329445E+01  0.97867065418E+02  0.47000000000E+01 0.  1.
<mgrwt>
<rscale>  0 0.99837838E+03</rscale>
<asrwt>0</asrwt>
<pdfrwt beam="1">  1        2 0.11169876E+00 0.99837838E+03</pdfrwt>
<pdfrwt beam="2">  1       -2 0.52802595E-01 0.99837838E+03</pdfrwt>
<totfact> 0.16012398E+02</totfact>
</mgrwt>
</event>
<event>
 9    1  0.4296086E-036  0.9957326E+03  0.7818608E-02  0.8685112E-01
          2   -1    0    0  501    0  0.00000000000E+00  0.00000000000E+00  0.10329827036E+04  0.10329827036E+04  0.00000000000E+00 0.  1.
         -2   -1    0    0    0  501 -0.00000000000E+00 -0.00000000000E+00 -0.23995644297E+03  0.23995644297E+03  0.00000000000E+00 0.  1.
         36    2    1    2    0    0  0.14210854715E-13  0.35527136788E-14  0.79302626065E+03  0.12729391466E+04  0.99573260509E+03 0.  0.
         25    2    3    3    0    0  0.12474565831E+03 -0.28966754110E+02  0.73290396895E+02  0.19324499113E+03  0.12478618597E+03 0.  0.
         35    2    3    3    0    0 -0.12474565831E+03  0.28966754110E+02  0.71973586375E+03  0.10796941555E+04  0.79455597893E+03 0.  0.
         22    1    5    5    0    0 -0.13718144309E+03  0.76631228738E+02  0.88932264745E+03  0.90309792648E+03  0.00000000000E+00 0. -1.
         22    1    5    5    0    0  0.12435784788E+02 -0.47664474628E+02 -0.16958678370E+03  0.17659622898E+03  0.00000000000E+00 0. -1.
          5    1    4    4  502    0  0.11636355334E+03  0.28314002727E+02  0.40281342610E+02  0.12643905986E+03  0.47000000000E+01 0. -1.
         -5    1    4    4    0  502  0.83821049639E+01 -0.57280756837E+02  0.33009054285E+02  0.66805931266E+02  0.47000000000E+01 0. -1.
<mgrwt>
<rscale>  0 0.99573261E+03</rscale>
<asrwt>0</asrwt>
<pdfrwt beam="1">  1        2 0.15892041E+00 0.99573261E+03</pdfrwt>
<pdfrwt beam="2">  1       -2 0.36916376E-01 0.99573261E+03</pdfrwt>
<totfact> 0.20035692E+02</totfact>
</mgrwt>
</event>
<event>
 9    1  0.4296086E-036  0.9993335E+03  0.7818608E-02  0.8681673E-01
          2   -1    0    0  501    0  0.00000000000E+00  0.00000000000E+00  0.69197130526E+03  0.69197130526E+03  0.00000000000E+00 0.  1.
         -2   -1    0    0    0  501 -0.00000000000E+00 -0.00000000000E+00 -0.36080519214E+03  0.36080519214E+03  0.00000000000E+00 0.  1.
         36    2    1    2    0    0  0.56843418861E-13  0.71054273576E-14  0.33116611312E+03  0.10527764974E+04  0.99933345736E+03 0.  0.
         25    2    3    3    0    0 -0.12827644392E+03 -0.41907837811E+02  0.10145535809E+03  0.20986430455E+03  0.12465441710E+03 0.  0.
         35    2    3    3    0    0  0.12827644392E+03  0.41907837811E+02  0.22971075503E+03  0.84291219286E+03  0.79970170749E+03 0.  0.
         22    1    5    5    0    0  0.16045957368E+03 -0.16284900085E+03  0.47176457738E+03  0.52424125013E+03  0.00000000000E+00 0. -1.
         22    1    5    5    0    0 -0.32183129766E+02  0.20475683866E+03 -0.24205382236E+03  0.31867094273E+03  0.00000000000E+00 0. -1.
          5    1    4    4  502    0  0.94601211108E+01 -0.12870386025E+02 -0.18480213514E+02  0.24874666217E+02  0.47000000000E+01 0.  1.
         -5    1    4    4    0  502 -0.13773656503E+03 -0.29037451786E+02  0.11993557161E+03  0.18498963833E+03  0.47000000000E+01 0.  1.
<mgrwt>
<rscale>  0 0.99933346E+03</rscale>
<asrwt>0</asrwt>
<pdfrwt beam="1">  1        2 0.10645712E+00 0.99933346E+03</pdfrwt>
<pdfrwt beam="2">  1       -2 0.55508491E-01 0.99933346E+03</pdfrwt>
<totfact> 0.15345170E+02</totfact>
</mgrwt>
</event>
<event>
 9    1  0.4296086E-036  0.1004558E+04  0.7818608E-02  0.8676709E-01
          1   -1    0    0  501    0  0.00000000000E+00  0.00000000000E+00  0.38249641507E+03  0.38249641507E+03  0.00000000000E+00 0. -1.
         -1   -1    0    0    0  501 -0.00000000000E+00 -0.00000000000E+00 -0.65957293128E+03  0.65957293128E+03  0.00000000000E+00 0. -1.
         36    2    1    2    0    0  0.14210854715E-13  0.00000000000E+00 -0.27707651621E+03  0.10420693463E+04  0.10045581749E+04 0.  0.
         25    2    3    3    0    0 -0.94231134866E+02 -0.10791357539E+03 -0.80253169317E+02  0.20623869206E+03  0.12477572034E+03 0.  0.
         35    2    3    3    0    0  0.94231134866E+02  0.10791357539E+03 -0.19682334689E+03  0.83583065428E+03  0.79959277524E+03 0.  0.
         22    1    5    5    0    0  0.37254019261E+01 -0.31879325598E+03 -0.23776716461E+03  0.39771377051E+03  0.00000000000E+00 0. -1.
         22    1    5    5    0    0  0.90505732940E+02  0.42670683138E+03  0.40943817723E+02  0.43811688377E+03  0.00000000000E+00 0. -1.
          5    1    4    4  502    0 -0.42687660870E+02 -0.37820233865E+02 -0.10153064117E+03  0.11654684714E+03  0.47000000000E+01 0. -1.
         -5    1    4    4    0  502 -0.51543473995E+02 -0.70093341528E+02  0.21277471857E+02  0.89691844929E+02  0.47000000000E+01 0. -1.
<mgrwt>
<rscale>  0 0.10045582E+04</rscale>
<asrwt>0</asrwt>
<pdfrwt beam="1">  1        1 0.58845603E-01 0.10045582E+04</pdfrwt>
<pdfrwt beam="2">  1       -1 0.10147276E+00 0.10045582E+04</pdfrwt>
<totfact> 0.70320366E+01</totfact>
</mgrwt>
</event>
<event>
 9    1  0.4296086E-036  0.1001896E+04  0.7818608E-02  0.8679235E-01
         -1   -1    0    0    0  501 -0.00000000000E+00  0.00000000000E+00  0.22611621075E+03  0.22611621075E+03  0.00000000000E+00 0.  1.
          1   -1    0    0  501    0  0.00000000000E+00 -0.00000000000E+00 -0.11098222694E+04  0.11098222694E+04  0.00000000000E+00 0.  1.
         36    2    1    2    0    0  0.14210854715E-13 -0.28421709430E-13 -0.88370605868E+03  0.13359384802E+04  0.10018958153E+04 0.  0.
         25    2    3    3    0    0  0.12665487751E+03 -0.50341955386E+02 -0.21824183648E+03  0.28609480828E+03  0.12507985315E+03 0.  0.
         35    2    3    3    0    0 -0.12665487751E+03  0.50341955386E+02 -0.66546422220E+03  0.10498436719E+04  0.80047069524E+03 0.  0.
         22    1    5    5    0    0  0.16310534398E+03  0.30470345317E+03 -0.54600577593E+03  0.64619645230E+03  0.00000000000E+00 0.  1.
         22    1    5    5    0    0 -0.28976022149E+03 -0.25436149779E+03 -0.11945844627E+03  0.40364721961E+03  0.00000000000E+00 0.  1.
          5    1    4    4  502    0  0.52195611169E+02  0.14061351185E+02 -0.16579719546E+03  0.17445028932E+03  0.47000000000E+01 0. -1.
         -5    1    4    4    0  502  0.74459266336E+02 -0.64403306570E+02 -0.52444641022E+02  0.11164451895E+03  0.47000000000E+01 0. -1.
<mgrwt>
<rscale>  0 0.10018958E+04</rscale>
<asrwt>0</asrwt>
<pdfrwt beam="1">  1        1 0.17074189E+00 0.10018958E+04</pdfrwt>
<pdfrwt beam="2">  1       -1 0.34787109E-01 0.10018958E+04</pdfrwt>
<totfact> 0.10853254E+02</totfact>
</mgrwt>
</event>
<event>
 9    1  0.4296086E-036  0.1000986E+04  0.7818608E-02  0.8680100E-01
          2   -1    0    0  501    0  0.00000000000E+00  0.00000000000E+00  0.17547860908E+04  0.17547860908E+04  0.00000000000E+00 0. -1.
         -2   -1    0    0    0  501 -0.00000000000E+00 -0.00000000000E+00 -0.14274856663E+03  0.14274856663E+03  0.00000000000E+00 0. -1.
         36    2    1    2    0    0  0.00000000000E+00  0.00000000000E+00  0.16120375242E+04  0.18975346575E+04  0.10009859124E+04 0.  0.
         25    2    3    3    0    0 -0.18362181406E+02 -0.11620343112E+02  0.39031655986E+02  0.13267241457E+03  0.12492516695E+03 0.  0.
         35    2    3    3    0    0  0.18362181406E+02  0.11620343112E+02  0.15730058682E+04  0.17648622429E+04  0.79994941894E+03 0.  0.
         22    1    5    5    0    0  0.28892846259E+03 -0.25425698227E+03  0.10535116737E+04  0.11216118385E+04  0.00000000000E+00 0. -1.
         22    1    5    5    0    0 -0.27056628119E+03  0.26587732538E+03  0.51949419448E+03  0.64325040441E+03  0.00000000000E+00 0. -1.
          5    1    4    4  502    0 -0.43117522333E+02 -0.23789137484E+02  0.73299971026E+02  0.88430874398E+02  0.47000000000E+01 0.  1.
         -5    1    4    4    0  502  0.24755340927E+02  0.12168794372E+02 -0.34268315041E+02  0.44241540170E+02  0.47000000000E+01 0.  1.
<mgrwt>
<rscale>  0 0.10009859E+04</rscale>
<asrwt>0</asrwt>
<pdfrwt beam="1">  1        2 0.26996707E+00 0.10009859E+04</pdfrwt>
<pdfrwt beam="2">  1       -2 0.21961319E-01 0.10009859E+04</pdfrwt>
<totfact> 0.19612117E+02</totfact>
</mgrwt>
</event>
<event>
 9    1  0.4296086E-036  0.9995967E+03  0.7818608E-02  0.8681422E-01
          2   -1    0    0  501    0  0.00000000000E+00  0.00000000000E+00  0.19938291097E+04  0.19938291097E+04  0.00000000000E+00 0.  1.
         -2   -1    0    0    0  501 -0.00000000000E+00 -0.00000000000E+00 -0.12528575223E+03  0.12528575223E+03  0.00000000000E+00 0.  1.
         36    2    1    2    0    0  0.28421709430E-13  0.42632564146E-13  0.18685433575E+04  0.21191148619E+04  0.99959667831E+03 0.  0.
         25    2    3    3    0    0 -0.36097164677E+02 -0.10423318033E+03  0.16786828287E+03  0.23619464344E+03  0.12426016262E+03 0.  0.
         35    2    3    3    0    0  0.36097164677E+02  0.10423318033E+03  0.17006750746E+04  0.18829202185E+04  0.80057809028E+03 0.  0.
         22    1    5    5    0    0 -0.14572068641E+03 -0.30332438892E+03  0.97027673524E+03  0.10269747545E+04  0.00000000000E+00 0.  1.
         22    1    5    5    0    0  0.18181785109E+03  0.40755756926E+03  0.73039833934E+03  0.85594546400E+03  0.00000000000E+00 0.  1.
          5    1    4    4  502    0 -0.38131426836E+01  0.28288329368E+02  0.21305715787E+02  0.35927610006E+02  0.47000000000E+01 0. -1.
         -5    1    4    4    0  502 -0.32284021994E+02 -0.13252150970E+03  0.14656256708E+03  0.20026703343E+03  0.47000000000E+01 0. -1.
<mgrwt>
<rscale>  0 0.99959668E+03</rscale>
<asrwt>0</asrwt>
<pdfrwt beam="1">  1        2 0.30674292E+00 0.99959668E+03</pdfrwt>
<pdfrwt beam="2">  1       -2 0.19274733E-01 0.99959668E+03</pdfrwt>
<totfact> 0.18012479E+02</totfact>
</mgrwt>
</event>
<event>
 9    1  0.4296086E-036  0.1000054E+04  0.7818608E-02  0.8680987E-01
          1   -1    0    0  501    0  0.00000000000E+00  0.00000000000E+00  0.99004801985E+03  0.99004801985E+03  0.00000000000E+00 0. -1.
         -1   -1    0    0    0  501 -0.00000000000E+00 -0.00000000000E+00 -0.25254015421E+03  0.25254015421E+03  0.00000000000E+00 0. -1.
         36    2    1    2    0    0  0.28421709430E-13  0.00000000000E+00  0.73750786564E+03  0.12425881741E+04  0.10000537578E+04 0.  0.
         25    2    3    3    0    0 -0.77173514293E+02  0.47646591925E+02  0.27607590454E+03  0.31473546065E+03  0.12089067828E+03 0.  0.
         35    2    3    3    0    0  0.77173514293E+02 -0.47646591925E+02  0.46143196110E+03  0.92785271342E+03  0.79985327032E+03 0.  0.
         22    1    5    5    0    0  0.21526303615E+03 -0.93692682488E+02 -0.16356435486E+03  0.28612897732E+03  0.00000000000E+00 0.  1.
         22    1    5    5    0    0 -0.13808952185E+03  0.46046090563E+02  0.62499631596E+03  0.64172373610E+03  0.00000000000E+00 0.  1.
          5    1    4    4  502    0 -0.53709388253E+01  0.47794706200E+02  0.26751221417E+02  0.55234941585E+02  0.47000000000E+01 0. -1.
         -5    1    4    4    0  502 -0.71802575468E+02 -0.14811427559E+00  0.24932468312E+03  0.25950051906E+03  0.47000000000E+01 0. -1.
<mgrwt>
<rscale>  0 0.10000538E+04</rscale>
<asrwt>0</asrwt>
<pdfrwt beam="1">  1        1 0.15231508E+00 0.10000538E+04</pdfrwt>
<pdfrwt beam="2">  1       -1 0.38852332E-01 0.10000538E+04</pdfrwt>
<totfact> 0.11085742E+02</totfact>
</mgrwt>
</event>
<event>
 9    1  0.4296086E-036  0.9981893E+03  0.7818608E-02  0.8682764E-01
          1   -1    0    0  501    0  0.00000000000E+00  0.00000000000E+00  0.10853181194E+04  0.10853181194E+04  0.00000000000E+00 0.  1.
         -1   -1    0    0    0  501 -0.00000000000E+00 -0.00000000000E+00 -0.22951379814E+03  0.22951379814E+03  0.00000000000E+00 0.  1.
         36    2    1    2    0    0 -0.42632564146E-13  0.28421709430E-13  0.85580432122E+03  0.13148319175E+04  0.99818932828E+03 0.  0.
         25    2    3    3    0    0 -0.25657917542E+02 -0.12617615451E+03  0.67061637394E+02  0.19166508103E+03  0.12513788146E+03 0.  0.
         35    2    3    3    0    0  0.25657917542E+02  0.12617615451E+03  0.78874268383E+03  0.11231668365E+04  0.78918310333E+03 0.  0.
         22    1    5    5    0    0 -0.33028987325E+03  0.13594908400E+03  0.64871118278E+03  0.74054017614E+03  0.00000000000E+00 0.  1.
         22    1    5    5    0    0  0.35594779079E+03 -0.97729294953E+01  0.14003150105E+03  0.38262666034E+03  0.00000000000E+00 0.  1.
          5    1    4    4  502    0 -0.25523952039E+02 -0.37345313970E+02 -0.34183689131E+02  0.56892523286E+02  0.47000000000E+01 0. -1.
         -5    1    4    4    0  502 -0.13396550277E+00 -0.88830840538E+02  0.10124532653E+03  0.13477255774E+03  0.47000000000E+01 0. -1.
<mgrwt>
<rscale>  0 0.99818933E+03</rscale>
<asrwt>0</asrwt>
<pdfrwt beam="1">  1        1 0.16697202E+00 0.99818933E+03</pdfrwt>
<pdfrwt beam="2">  1       -1 0.35309816E-01 0.99818933E+03</pdfrwt>
<totfact> 0.11046363E+02</totfact>
</mgrwt>
</event>
<event>
 9    1  0.4296086E-036  0.1000552E+04  0.7818608E-02  0.8680513E-01
          1   -1    0    0  501    0  0.00000000000E+00  0.00000000000E+00  0.19052828898E+04  0.19052828898E+04  0.00000000000E+00 0. -1.
         -1   -1    0    0    0  501 -0.00000000000E+00 -0.00000000000E+00 -0.13135895832E+03  0.13135895832E+03  0.00000000000E+00 0. -1.
         36    2    1    2    0    0 -0.28421709430E-13  0.00000000000E+00  0.17739239314E+04  0.20366418481E+04  0.10005517992E+04 0.  0.
         25    2    3    3    0    0 -0.13066263702E+03 -0.47649620890E+02  0.40355453375E+03  0.44390480082E+03  0.12186877942E+03 0.  0.
         35    2    3    3    0    0  0.13066263702E+03  0.47649620890E+02  0.13703693977E+04  0.15927370473E+04  0.79972232963E+03 0.  0.
         22    1    5    5    0    0  0.36422638665E+03  0.57484786569E+01  0.12927195181E+04  0.13430627902E+04  0.00000000000E+00 0. -1.
         22    1    5    5    0    0 -0.23356374963E+03  0.41901142233E+02  0.77649879546E+02  0.24967425709E+03  0.00000000000E+00 0. -1.
          5    1    4    4  502    0 -0.13275697489E+02 -0.43889869433E+02  0.22814341603E+03  0.23275324501E+03  0.47000000000E+01 0. -1.
         -5    1    4    4    0  502 -0.11738693953E+03 -0.37597514572E+01  0.17541111772E+03  0.21115155582E+03  0.47000000000E+01 0. -1.
<mgrwt>
<rscale>  0 0.10005518E+04</rscale>
<asrwt>0</asrwt>
<pdfrwt beam="1">  1        1 0.29312043E+00 0.10005518E+04</pdfrwt>
<pdfrwt beam="2">  1       -1 0.20209072E-01 0.10005518E+04</pdfrwt>
<totfact> 0.72948434E+01</totfact>
</mgrwt>
</event>
<event>
 9    1  0.4296086E-036  0.1000479E+04  0.7818608E-02  0.8680582E-01
         -2   -1    0    0    0  501 -0.00000000000E+00  0.00000000000E+00  0.24505975059E+03  0.24505975059E+03  0.00000000000E+00 0.  1.
          2   -1    0    0  501    0  0.00000000000E+00 -0.00000000000E+00 -0.10211374124E+04  0.10211374124E+04  0.00000000000E+00 0.  1.
         36    2    1    2    0    0  0.00000000000E+00 -0.28421709430E-13 -0.77607766180E+03  0.12661971630E+04  0.10004792444E+04 0.  0.
         25    2    3    3    0    0  0.35258180328E+02  0.12347846521E+03 -0.13017104074E+03  0.22074448906E+03  0.12366712964E+03 0.  0.
         35    2    3    3    0    0 -0.35258180328E+02 -0.12347846521E+03 -0.64590662106E+03  0.10454526739E+04  0.81196419849E+03 0.  0.
         22    1    5    5    0    0 -0.26041188266E+03  0.99527006234E+02  0.47743140751E+02  0.28284161838E+03  0.00000000000E+00 0.  1.
         22    1    5    5    0    0  0.22515370233E+03 -0.22300547145E+03 -0.69364976181E+03  0.76261105554E+03  0.00000000000E+00 0.  1.
          5    1    4    4  502    0  0.58546001495E+02  0.80806737818E+01 -0.55803505862E+02  0.81418995612E+02  0.47000000000E+01 0.  1.
         -5    1    4    4    0  502 -0.23287821167E+02  0.11539779143E+03 -0.74367534873E+02  0.13932549345E+03  0.47000000000E+01 0.  1.
<mgrwt>
<rscale>  0 0.10004792E+04</rscale>
<asrwt>0</asrwt>
<pdfrwt beam="1">  1        2 0.15709807E+00 0.10004792E+04</pdfrwt>
<pdfrwt beam="2">  1       -2 0.37701499E-01 0.10004792E+04</pdfrwt>
<totfact> 0.19583706E+02</totfact>
</mgrwt>
</event>
<event>
 9    1  0.4296086E-036  0.1000057E+04  0.7818608E-02  0.8680983E-01
          2   -1    0    0  501    0  0.00000000000E+00  0.00000000000E+00  0.28569002690E+04  0.28569002690E+04  0.00000000000E+00 0. -1.
         -2   -1    0    0    0  501 -0.00000000000E+00 -0.00000000000E+00 -0.87517479796E+02  0.87517479796E+02  0.00000000000E+00 0. -1.
         36    2    1    2    0    0  0.00000000000E+00  0.28421709430E-13  0.27693827892E+04  0.29444177488E+04  0.10000574215E+04 0.  0.
         25    2    3    3    0    0 -0.67543391235E+02  0.11001332427E+03  0.68641534292E+03  0.70948714917E+03  0.12466334919E+03 0.  0.
         35    2    3    3    0    0  0.67543391235E+02 -0.11001332427E+03  0.20829674463E+04  0.22349305997E+04  0.79968516408E+03 0.  0.
         22    1    5    5    0    0 -0.17650818019E+03 -0.26373747643E+03  0.18106744269E+04  0.18382748637E+04  0.00000000000E+00 0.  1.
         22    1    5    5    0    0  0.24405157143E+03  0.15372415216E+03  0.27229301943E+03  0.39665573600E+03  0.00000000000E+00 0.  1.
          5    1    4    4  502    0 -0.76010266514E+02  0.52496759705E+02  0.58685805829E+03  0.59410263505E+03  0.47000000000E+01 0. -1.
         -5    1    4    4    0  502  0.84668752798E+01  0.57516564563E+02  0.99557284622E+02  0.11538451411E+03  0.47000000000E+01 0. -1.
<mgrwt>
<rscale>  0 0.10000574E+04</rscale>
<asrwt>0</asrwt>
<pdfrwt beam="1">  1        2 0.43952305E+00 0.10000574E+04</pdfrwt>
<pdfrwt beam="2">  1       -2 0.13464230E-01 0.10000574E+04</pdfrwt>
<totfact> 0.99536098E+01</totfact>
</mgrwt>
</event>
<event>
 9    1  0.4296086E-036  0.1007046E+04  0.7818608E-02  0.8674357E-01
         -2   -1    0    0    0  501 -0.00000000000E+00  0.00000000000E+00  0.15044403856E+04  0.15044403856E+04  0.00000000000E+00 0. -1.
          2   -1    0    0  501    0  0.00000000000E+00 -0.00000000000E+00 -0.16852483517E+03  0.16852483517E+03  0.00000000000E+00 0. -1.
         36    2    1    2    0    0 -0.28421709430E-13 -0.35527136788E-13  0.13359155505E+04  0.16729652208E+04  0.10070463108E+04 0.  0.
         25    2    3    3    0    0  0.56758829398E+02 -0.46834282325E+02  0.37745115252E+02  0.15075898154E+03  0.12604983965E+03 0.  0.
         35    2    3    3    0    0 -0.56758829398E+02  0.46834282325E+02  0.12981704352E+04  0.15222062393E+04  0.79148615986E+03 0.  0.
         22    1    5    5    0    0  0.23150546188E+03 -0.27411882831E+03  0.50784997169E+03  0.62180986214E+03  0.00000000000E+00 0.  1.
         22    1    5    5    0    0 -0.28826429128E+03  0.32095311064E+03  0.79032046352E+03  0.90039637711E+03  0.00000000000E+00 0.  1.
          5    1    4    4  502    0  0.14142562842E+02 -0.80850947148E+02  0.47820560374E+02  0.95109325163E+02  0.47000000000E+01 0.  1.
         -5    1    4    4    0  502  0.42616266556E+02  0.34016664823E+02 -0.10075445121E+02  0.55649656381E+02  0.47000000000E+01 0.  1.
<mgrwt>
<rscale>  0 0.10070463E+04</rscale>
<asrwt>0</asrwt>
<pdfrwt beam="1">  1        2 0.25926899E-01 0.10070463E+04</pdfrwt>
<pdfrwt beam="2">  1       -2 0.23145236E+00 0.10070463E+04</pdfrwt>
<totfact> 0.18907583E+01</totfact>
</mgrwt>
</event>
<event>
 9    1  0.4296086E-036  0.1004456E+04  0.7818608E-02  0.8676806E-01
          1   -1    0    0  501    0  0.00000000000E+00  0.00000000000E+00  0.55310568687E+03  0.55310568687E+03  0.00000000000E+00 0. -1.
         -1   -1    0    0    0  501 -0.00000000000E+00 -0.00000000000E+00 -0.45603034941E+03  0.45603034941E+03  0.00000000000E+00 0. -1.
         36    2    1    2    0    0  0.00000000000E+00  0.28421709430E-13  0.97075337463E+02  0.10091360363E+04  0.10044560312E+04 0.  0.
         25    2    3    3    0    0  0.93174275794E+02  0.73537216071E+02 -0.55819408233E+02  0.18086503244E+03  0.12452785153E+03 0.  0.
         35    2    3    3    0    0 -0.93174275794E+02 -0.73537216071E+02  0.15289474570E+03  0.82827100384E+03  0.80533650403E+03 0.  0.
         22    1    5    5    0    0 -0.47307073776E+02 -0.36142900876E+03  0.32617194418E+03  0.48913906486E+03  0.00000000000E+00 0. -1.
         22    1    5    5    0    0 -0.45867202017E+02  0.28789179269E+03 -0.17327719849E+03  0.33913193897E+03  0.00000000000E+00 0. -1.
          5    1    4    4  502    0  0.10465604777E+03  0.58978595133E+02  0.17145626900E+01  0.12023474017E+03  0.47000000000E+01 0.  1.
         -5    1    4    4    0  502 -0.11481771972E+02  0.14558620939E+02 -0.57533970923E+02  0.60630292276E+02  0.47000000000E+01 0.  1.
<mgrwt>
<rscale>  0 0.10044560E+04</rscale>
<asrwt>0</asrwt>
<pdfrwt beam="1">  1        1 0.85093182E-01 0.10044560E+04</pdfrwt>
<pdfrwt beam="2">  1       -1 0.70158516E-01 0.10044560E+04</pdfrwt>
<totfact> 0.92610544E+01</totfact>
</mgrwt>
</event>
<event>
 9    1  0.4296086E-036  0.1000624E+04  0.7818608E-02  0.8680444E-01
          2   -1    0    0  501    0  0.00000000000E+00  0.00000000000E+00  0.13266096576E+04  0.13266096576E+04  0.00000000000E+00 0.  1.
         -2   -1    0    0    0  501 -0.00000000000E+00 -0.00000000000E+00 -0.18868569855E+03  0.18868569855E+03  0.00000000000E+00 0.  1.
         36    2    1    2    0    0  0.42632564146E-13 -0.71054273576E-14  0.11379239591E+04  0.15152953562E+04  0.10006243450E+04 0.  0.
         25    2    3    3    0    0  0.42745692148E+02  0.27893135514E+02  0.40693621616E+03  0.42867783376E+03  0.12474926826E+03 0.  0.
         35    2    3    3    0    0 -0.42745692148E+02 -0.27893135514E+02  0.73098774293E+03  0.10866175224E+04  0.80236484127E+03 0.  0.
         22    1    5    5    0    0  0.31415338844E+03 -0.20214122046E+03  0.20063761876E+03  0.42403877009E+03  0.00000000000E+00 0. -1.
         22    1    5    5    0    0 -0.35689908059E+03  0.17424808494E+03  0.53035012417E+03  0.66257875233E+03  0.00000000000E+00 0. -1.
          5    1    4    4  502    0  0.82122320002E+02  0.42344782588E+02  0.27326240401E+03  0.28849885181E+03  0.47000000000E+01 0. -1.
         -5    1    4    4    0  502 -0.39376627853E+02 -0.14451647074E+02  0.13367381215E+03  0.14017898195E+03  0.47000000000E+01 0. -1.
<mgrwt>
<rscale>  0 0.10006243E+04</rscale>
<asrwt>0</asrwt>
<pdfrwt beam="1">  1        2 0.20409379E+00 0.10006243E+04</pdfrwt>
<pdfrwt beam="2">  1       -2 0.29028570E-01 0.10006243E+04</pdfrwt>
<totfact> 0.20881628E+02</totfact>
</mgrwt>
</event>
<event>
 9    1  0.4296086E-036  0.9999193E+03  0.7818608E-02  0.8681115E-01
          1   -1    0    0  501    0  0.00000000000E+00  0.00000000000E+00  0.71534586903E+03  0.71534586903E+03  0.00000000000E+00 0.  1.
         -1   -1    0    0    0  501 -0.00000000000E+00 -0.00000000000E+00 -0.34942486515E+03  0.34942486515E+03  0.00000000000E+00 0.  1.
         36    2    1    2    0    0 -0.17763568394E-13 -0.28421709430E-13  0.36592100388E+03  0.10647707342E+04  0.99991926438E+03 0.  0.
         25    2    3    3    0    0 -0.31896659576E+02  0.12390451604E+03  0.12683445398E+03  0.21981035132E+03  0.12593603870E+03 0.  0.
         35    2    3    3    0    0  0.31896659576E+02 -0.12390451604E+03  0.23908654990E+03  0.84496038286E+03  0.80026617089E+03 0.  0.
         22    1    5    5    0    0  0.33682268014E+03  0.13215677457E+03 -0.32040083702E+02  0.36323752269E+03  0.00000000000E+00 0.  1.
         22    1    5    5    0    0 -0.30492602056E+03 -0.25606129061E+03  0.27112663360E+03  0.48172286017E+03  0.00000000000E+00 0.  1.
          5    1    4    4  502    0 -0.62886911340E+02  0.37815147400E+02  0.14663981775E+02  0.74979139447E+02  0.47000000000E+01 0. -1.
         -5    1    4    4    0  502  0.30990251764E+02  0.86089368638E+02  0.11217047221E+03  0.14483121187E+03  0.47000000000E+01 0. -1.
<mgrwt>
<rscale>  0 0.99991926E+03</rscale>
<asrwt>0</asrwt>
<pdfrwt beam="1">  1        1 0.11005321E+00 0.99991926E+03</pdfrwt>
<pdfrwt beam="2">  1       -1 0.53757672E-01 0.99991926E+03</pdfrwt>
<totfact> 0.10570302E+02</totfact>
</mgrwt>
</event>
<event>
 9    1  0.4296086E-036  0.9995033E+03  0.7818608E-02  0.8681511E-01
          3   -1    0    0  501    0  0.00000000000E+00  0.00000000000E+00  0.50831680198E+03  0.50831680198E+03  0.00000000000E+00 0. -1.
         -3   -1    0    0    0  501 -0.00000000000E+00 -0.00000000000E+00 -0.49133082597E+03  0.49133082597E+03  0.00000000000E+00 0. -1.
         36    2    1    2    0    0  0.00000000000E+00  0.00000000000E+00  0.16985976012E+02  0.99964762794E+03  0.99950330498E+03 0.  0.
         25    2    3    3    0    0  0.21841016172E+02 -0.12934363688E+03 -0.11873605946E+02  0.18863487028E+03  0.13503823673E+03 0.  0.
         35    2    3    3    0    0 -0.21841016172E+02  0.12934363688E+03  0.28859581958E+02  0.81101275766E+03  0.79981373534E+03 0.  0.
         22    1    5    5    0    0  0.15584418326E+03 -0.26134382230E+03  0.18288800152E+03  0.35501552644E+03  0.00000000000E+00 0. -1.
         22    1    5    5    0    0 -0.17768519943E+03  0.39068745918E+03 -0.15402841957E+03  0.45599723123E+03  0.00000000000E+00 0. -1.
          5    1    4    4  502    0  0.72199986550E+02 -0.88743013101E+02 -0.35075449228E+02  0.11975198358E+03  0.47000000000E+01 0.  1.
         -5    1    4    4    0  502 -0.50358970378E+02 -0.40600623780E+02  0.23201843282E+02  0.68882886703E+02  0.47000000000E+01 0.  1.
<mgrwt>
<rscale>  0 0.99950330E+03</rscale>
<asrwt>0</asrwt>
<pdfrwt beam="1">  1        3 0.78202585E-01 0.99950330E+03</pdfrwt>
<pdfrwt beam="2">  1       -3 0.75589358E-01 0.99950330E+03</pdfrwt>
<totfact> 0.10081434E+01</totfact>
</mgrwt>
</event>
<event>
 9    1  0.4296086E-036  0.1000190E+04  0.7818608E-02  0.8680857E-01
          2   -1    0    0  501    0  0.00000000000E+00  0.00000000000E+00  0.18414902228E+04  0.18414902228E+04  0.00000000000E+00 0.  1.
         -2   -1    0    0    0  501 -0.00000000000E+00 -0.00000000000E+00 -0.13581118242E+03  0.13581118242E+03  0.00000000000E+00 0.  1.
         36    2    1    2    0    0  0.00000000000E+00  0.00000000000E+00  0.17056790404E+04  0.19773014053E+04  0.10001899111E+04 0.  0.
         25    2    3    3    0    0  0.70629728849E+02  0.11405581101E+03  0.23384942774E+03  0.29687371783E+03  0.12430270656E+03 0.  0.
         35    2    3    3    0    0 -0.70629728849E+02 -0.11405581101E+03  0.14718296127E+04  0.16804276874E+04  0.79972340049E+03 0.  0.
         22    1    5    5    0    0 -0.46869096091E+02 -0.28003915569E+03  0.10403463308E+03  0.30239352798E+03  0.00000000000E+00 0.  1.
         22    1    5    5    0    0 -0.23760632757E+02  0.16598334468E+03  0.13677949796E+04  0.13780341594E+04  0.00000000000E+00 0.  1.
          5    1    4    4  502    0  0.28394220360E+02  0.63600630767E+02  0.21817313179E+03  0.22906959077E+03  0.47000000000E+01 0. -1.
         -5    1    4    4    0  502  0.42235508489E+02  0.50455180241E+02  0.15676295958E+02  0.67804127053E+02  0.47000000000E+01 0. -1.
<mgrwt>
<rscale>  0 0.10001899E+04</rscale>
<asrwt>0</asrwt>
<pdfrwt beam="1">  1        2 0.28330617E+00 0.10001899E+04</pdfrwt>
<pdfrwt beam="2">  1       -2 0.20894029E-01 0.10001899E+04</pdfrwt>
<totfact> 0.19112172E+02</totfact>
</mgrwt>
</event>
<event>
 9    1  0.4296086E-036  0.9983476E+03  0.7818608E-02  0.8682613E-01
          2   -1    0    0  501    0  0.00000000000E+00  0.00000000000E+00  0.15996544689E+03  0.15996544689E+03  0.00000000000E+00 0. -1.
         -2   -1    0    0    0  501 -0.00000000000E+00 -0.00000000000E+00 -0.15576769886E+04  0.15576769886E+04  0.00000000000E+00 0. -1.
         36    2    1    2    0    0 -0.28421709430E-13  0.00000000000E+00 -0.13977115417E+04  0.17176424355E+04  0.99834762601E+03 0.  0.
         25    2    3    3    0    0 -0.95064666657E+02  0.70340354313E+02 -0.37433531790E+03  0.41192826470E+03  0.12479146100E+03 0.  0.
         35    2    3    3    0    0  0.95064666657E+02 -0.70340354313E+02 -0.10233762238E+04  0.13057141708E+04  0.80225030012E+03 0.  0.
         22    1    5    5    0    0  0.42726044508E+03 -0.15612267497E+03 -0.69614384115E+03  0.83159005835E+03  0.00000000000E+00 0.  1.
         22    1    5    5    0    0 -0.33219577842E+03  0.85782320654E+02 -0.32723238264E+03  0.47412411243E+03  0.00000000000E+00 0.  1.
          5    1    4    4  502    0 -0.85314517020E+02  0.62347138375E+02 -0.13168235738E+03  0.16890253321E+03  0.47000000000E+01 0.  1.
         -5    1    4    4    0  502 -0.97501496369E+01  0.79932159383E+01 -0.24265296052E+03  0.24302573149E+03  0.47000000000E+01 0.  1.
<mgrwt>
<rscale>  0 0.99834763E+03</rscale>
<asrwt>0</asrwt>
<pdfrwt beam="1">  1        2 0.24610069E-01 0.99834763E+03</pdfrwt>
<pdfrwt beam="2">  1       -2 0.23964261E+00 0.99834763E+03</pdfrwt>
<totfact> 0.17838776E+01</totfact>
</mgrwt>
</event>
<event>
 9    1  0.4296086E-036  0.9992415E+03  0.7818608E-02  0.8681761E-01
         -1   -1    0    0    0  501 -0.00000000000E+00  0.00000000000E+00  0.43580856939E+03  0.43580856939E+03  0.00000000000E+00 0.  1.
          1   -1    0    0  501    0  0.00000000000E+00 -0.00000000000E+00 -0.57277647792E+03  0.57277647792E+03  0.00000000000E+00 0.  1.
         36    2    1    2    0    0 -0.14210854715E-13 -0.28421709430E-13 -0.13696790853E+03  0.10085850473E+04  0.99924150720E+03 0.  0.
         25    2    3    3    0    0  0.76633068630E+02  0.10779758216E+03  0.24382062007E+02  0.18339520859E+03  0.12468508997E+03 0.  0.
         35    2    3    3    0    0 -0.76633068630E+02 -0.10779758216E+03 -0.16134997054E+03  0.82518983872E+03  0.79838055526E+03 0.  0.
         22    1    5    5    0    0 -0.88365582420E+02 -0.34013764481E+03 -0.37171799868E+03  0.51154312049E+03  0.00000000000E+00 0. -1.
         22    1    5    5    0    0  0.11732513790E+02  0.23234006266E+03  0.21036802814E+03  0.31364671824E+03  0.00000000000E+00 0. -1.
          5    1    4    4  502    0  0.10030724641E+03  0.72715551805E+02 -0.15631883676E+02  0.12496215805E+03  0.47000000000E+01 0.  1.
         -5    1    4    4    0  502 -0.23674177780E+02  0.35082030350E+02  0.40013945683E+02  0.58433050546E+02  0.47000000000E+01 0.  1.
<mgrwt>
<rscale>  0 0.99924151E+03</rscale>
<asrwt>0</asrwt>
<pdfrwt beam="1">  1        1 0.88119459E-01 0.99924151E+03</pdfrwt>
<pdfrwt beam="2">  1       -1 0.67047472E-01 0.99924151E+03</pdfrwt>
<totfact> 0.96390127E+01</totfact>
</mgrwt>
</event>
<event>
 9    1  0.4296086E-036  0.1000025E+04  0.7818608E-02  0.8681015E-01
          3   -1    0    0  501    0  0.00000000000E+00  0.00000000000E+00  0.27879051069E+04  0.27879051069E+04  0.00000000000E+00 0. -1.
         -3   -1    0    0    0  501 -0.00000000000E+00 -0.00000000000E+00 -0.89677472046E+02  0.89677472046E+02  0.00000000000E+00 0. -1.
         36    2    1    2    0    0 -0.28421709430E-13  0.14210854715E-13  0.26982276349E+04  0.28775825790E+04  0.10000245643E+04 0.  0.
         25    2    3    3    0    0  0.77370855215E+02 -0.65039070790E+02  0.25461498424E+03  0.30118611279E+03  0.12517169957E+03 0.  0.
         35    2    3    3    0    0 -0.77370855215E+02  0.65039070790E+02  0.24436126506E+04  0.25763964662E+04  0.81016025243E+03 0.  0.
         22    1    5    5    0    0 -0.21440405205E+03 -0.16833571244E+03  0.26208545010E+03  0.37814652289E+03  0.00000000000E+00 0. -1.
         22    1    5    5    0    0  0.13703319683E+03  0.23337478323E+03  0.21815272005E+04  0.21982499433E+04  0.00000000000E+00 0. -1.
          5    1    4    4  502    0  0.69757052874E+02 -0.40409729856E+02  0.26183543355E+03  0.27400524987E+03  0.47000000000E+01 0.  1.
         -5    1    4    4    0  502  0.76138023408E+01 -0.24629340934E+02 -0.72204493112E+01  0.27180862922E+02  0.47000000000E+01 0.  1.
<mgrwt>
<rscale>  0 0.10000246E+04</rscale>
<asrwt>0</asrwt>
<pdfrwt beam="1">  1        3 0.42890841E+00 0.10000246E+04</pdfrwt>
<pdfrwt beam="2">  1       -3 0.13796536E-01 0.10000246E+04</pdfrwt>
<totfact> 0.32737043E+00</totfact>
</mgrwt>
</event>
<event>
 9    1  0.4296086E-036  0.9986285E+03  0.7818608E-02  0.8682345E-01
          2   -1    0    0  501    0  0.00000000000E+00  0.00000000000E+00  0.17009615309E+04  0.17009615309E+04  0.00000000000E+00 0. -1.
         -2   -1    0    0    0  501 -0.00000000000E+00 -0.00000000000E+00 -0.14657282776E+03  0.14657282776E+03  0.00000000000E+00 0. -1.
         36    2    1    2    0    0  0.00000000000E+00  0.00000000000E+00  0.15543887032E+04  0.18475343587E+04  0.99862854257E+03 0.  0.
         25    2    3    3    0    0  0.95408910542E+02 -0.59820006150E+02  0.42231720693E+03  0.45434715505E+03  0.12408956718E+03 0.  0.
         35    2    3    3    0    0 -0.95408910542E+02  0.59820006150E+02  0.11320714962E+04  0.13931872036E+04  0.80417872297E+03 0.  0.
         22    1    5    5    0    0 -0.11211202663E+03  0.40892483344E+03  0.40444136167E+03  0.58597051201E+03  0.00000000000E+00 0. -1.
         22    1    5    5    0    0  0.16703116089E+02 -0.34910482729E+03  0.72763013456E+03  0.80721669163E+03  0.00000000000E+00 0. -1.
          5    1    4    4  502    0 -0.89589374101E+01 -0.59041836696E+02  0.11352890201E+03  0.12836316696E+03  0.47000000000E+01 0. -1.
         -5    1    4    4    0  502  0.10436784795E+03 -0.77816945362E+00  0.30878830493E+03  0.32598398809E+03  0.47000000000E+01 0. -1.
<mgrwt>
<rscale>  0 0.99862854E+03</rscale>
<asrwt>0</asrwt>
<pdfrwt beam="1">  1        2 0.26168638E+00 0.99862854E+03</pdfrwt>
<pdfrwt beam="2">  1       -2 0.22549667E-01 0.99862854E+03</pdfrwt>
<totfact> 0.20078875E+02</totfact>
</mgrwt>
</event>
<event>
 9    1  0.4296086E-036  0.9995608E+03  0.7818608E-02  0.8681456E-01
          2   -1    0    0  501    0  0.00000000000E+00  0.00000000000E+00  0.37667078528E+03  0.37667078528E+03  0.00000000000E+00 0.  1.
         -2   -1    0    0    0  501 -0.00000000000E+00 -0.00000000000E+00 -0.66312665511E+03  0.66312665511E+03  0.00000000000E+00 0.  1.
         36    2    1    2    0    0  0.24868995752E-13  0.00000000000E+00 -0.28645586982E+03  0.10397974404E+04  0.99956077939E+03 0.  0.
         25    2    3    3    0    0 -0.20711954653E+02 -0.51396223239E+02  0.80400105494E+02  0.15898647118E+03  0.12546698461E+03 0.  0.
         35    2    3    3    0    0  0.20711954653E+02  0.51396223239E+02 -0.36685597532E+03  0.88081096921E+03  0.79885799741E+03 0.  0.
         22    1    5    5    0    0 -0.13315943352E+03  0.39125614607E+03 -0.10940118356E+03  0.42752944406E+03  0.00000000000E+00 0.  1.
         22    1    5    5    0    0  0.15387138817E+03 -0.33985992283E+03 -0.25745479176E+03  0.45328152515E+03  0.00000000000E+00 0.  1.
          5    1    4    4  502    0 -0.33790594638E+02 -0.67147068983E+02 -0.58753145501E+00  0.75319110139E+02  0.47000000000E+01 0. -1.
         -5    1    4    4    0  502  0.13078639985E+02  0.15750845744E+02  0.80987636949E+02  0.83667361044E+02  0.47000000000E+01 0. -1.
<mgrwt>
<rscale>  0 0.99956078E+03</rscale>
<asrwt>0</asrwt>
<pdfrwt beam="1">  1        2 0.57949352E-01 0.99956078E+03</pdfrwt>
<pdfrwt beam="2">  1       -2 0.10201949E+00 0.99956078E+03</pdfrwt>
<totfact> 0.79497253E+01</totfact>
</mgrwt>
</event>
<event>
 9    1  0.4296086E-036  0.1001435E+04  0.7818608E-02  0.8679673E-01
          2   -1    0    0  501    0  0.00000000000E+00  0.00000000000E+00  0.24105086869E+03  0.24105086869E+03  0.00000000000E+00 0. -1.
         -2   -1    0    0    0  501 -0.00000000000E+00 -0.00000000000E+00 -0.10401038986E+04  0.10401038986E+04  0.00000000000E+00 0. -1.
         36    2    1    2    0    0  0.28421709430E-13 -0.71054273576E-14 -0.79905302996E+03  0.12811547673E+04  0.10014348672E+04 0.  0.
         25    2    3    3    0    0 -0.14355648597E+03 -0.19909589587E+02 -0.16938877685E+03  0.25295987977E+03  0.11954616945E+03 0.  0.
         35    2    3    3    0    0  0.14355648597E+03  0.19909589587E+02 -0.62966425311E+03  0.10281948876E+04  0.79981422765E+03 0.  0.
         22    1    5    5    0    0 -0.28854235001E+03  0.17695972076E+03 -0.17278710362E+03  0.38003527954E+03  0.00000000000E+00 0.  1.
         22    1    5    5    0    0  0.43209883597E+03 -0.15705013117E+03 -0.45687714949E+03  0.64815960803E+03  0.00000000000E+00 0.  1.
          5    1    4    4  502    0  0.16364019351E+02 -0.18438450456E+02 -0.39867159297E+02  0.47108788723E+02  0.47000000000E+01 0. -1.
         -5    1    4    4    0  502 -0.15992050532E+03 -0.14711391318E+01 -0.12952161755E+03  0.20585109105E+03  0.47000000000E+01 0. -1.
<mgrwt>
<rscale>  0 0.10014349E+04</rscale>
<asrwt>0</asrwt>
<pdfrwt beam="1">  1        2 0.37084749E-01 0.10014349E+04</pdfrwt>
<pdfrwt beam="2">  1       -2 0.16001599E+00 0.10014349E+04</pdfrwt>
<totfact> 0.39605126E+01</totfact>
</mgrwt>
</event>
<event>
 9    1  0.4296086E-036  0.1003639E+04  0.7818608E-02  0.8677580E-01
         -2   -1    0    0    0  501 -0.00000000000E+00  0.00000000000E+00  0.10895691694E+03  0.10895691694E+03  0.00000000000E+00 0. -1.
          2   -1    0    0  501    0  0.00000000000E+00 -0.00000000000E+00 -0.23112153212E+04  0.23112153212E+04  0.00000000000E+00 0. -1.
         36    2    1    2    0    0  0.00000000000E+00  0.00000000000E+00 -0.22022584042E+04  0.24201722381E+04  0.10036391698E+04 0.  0.
         25    2    3    3    0    0 -0.13118648128E+03 -0.53944396326E+02 -0.48879028939E+03  0.52415443615E+03  0.12530776180E+03 0.  0.
         35    2    3    3    0    0  0.13118648128E+03  0.53944396326E+02 -0.17134681148E+04  0.18960178020E+04  0.79924378887E+03 0.  0.
         22    1    5    5    0    0  0.30449577277E+03 -0.76352293831E+02 -0.16358800256E+04  0.16657283112E+04  0.00000000000E+00 0.  1.
         22    1    5    5    0    0 -0.17330929149E+03  0.13029669016E+03 -0.77588089215E+02  0.23028949079E+03  0.00000000000E+00 0.  1.
          5    1    4    4  502    0 -0.31603931174E+02 -0.52976687689E+02 -0.33644884644E+03  0.34208954116E+03  0.47000000000E+01 0. -1.
         -5    1    4    4    0  502 -0.99582550106E+02 -0.96770863779E+00 -0.15234144295E+03  0.18206489498E+03  0.47000000000E+01 0. -1.
<mgrwt>
<rscale>  0 0.10036392E+04</rscale>
<asrwt>0</asrwt>
<pdfrwt beam="1">  1        2 0.35557159E+00 0.10036392E+04</pdfrwt>
<pdfrwt beam="2">  1       -2 0.16762603E-01 0.10036392E+04</pdfrwt>
<totfact> 0.14980808E+02</totfact>
</mgrwt>
</event>
<event>
 9    1  0.4296086E-036  0.9921650E+03  0.7818608E-02  0.8688535E-01
          2   -1    0    0  501    0  0.00000000000E+00  0.00000000000E+00  0.58919678056E+03  0.58919678056E+03  0.00000000000E+00 0. -1.
         -2   -1    0    0    0  501 -0.00000000000E+00 -0.00000000000E+00 -0.41768364775E+03  0.41768364775E+03  0.00000000000E+00 0. -1.
         36    2    1    2    0    0  0.71054273576E-14  0.14210854715E-13  0.17151313281E+03  0.10068804283E+04  0.99216502771E+03 0.  0.
         25    2    3    3    0    0  0.59339262181E+02  0.11590572433E+03  0.56057720748E+02  0.18833091667E+03  0.12397895446E+03 0.  0.
         35    2    3    3    0    0 -0.59339262181E+02 -0.11590572433E+03  0.11545541206E+03  0.81854951165E+03  0.79983627442E+03 0.  0.
         22    1    5    5    0    0  0.10562754063E+03 -0.35567561012E+03 -0.17246866993E+03  0.40915493285E+03  0.00000000000E+00 0.  1.
         22    1    5    5    0    0 -0.16496680281E+03  0.23976988579E+03  0.28792408199E+03  0.40939457880E+03  0.00000000000E+00 0.  1.
          5    1    4    4  502    0  0.77787647430E+02  0.95327600252E+02  0.83761954782E+02  0.14891750915E+03  0.47000000000E+01 0. -1.
         -5    1    4    4    0  502 -0.18448385249E+02  0.20578124078E+02 -0.27704234034E+02  0.39413407519E+02  0.47000000000E+01 0. -1.
<mgrwt>
<rscale>  0 0.99216503E+03</rscale>
<asrwt>0</asrwt>
<pdfrwt beam="1">  1        2 0.90645659E-01 0.99216503E+03</pdfrwt>
<pdfrwt beam="2">  1       -2 0.64259023E-01 0.99216503E+03</pdfrwt>
<totfact> 0.13722908E+02</totfact>
</mgrwt>
</event>
<event>
 9    1  0.4296086E-036  0.1000898E+04  0.7818608E-02  0.8680183E-01
          1   -1    0    0  501    0  0.00000000000E+00  0.00000000000E+00  0.19549767195E+04  0.19549767195E+04  0.00000000000E+00 0.  1.
         -1   -1    0    0    0  501 -0.00000000000E+00 -0.00000000000E+00 -0.12810862106E+03  0.12810862106E+03  0.00000000000E+00 0.  1.
         36    2    1    2    0    0  0.00000000000E+00  0.00000000000E+00  0.18268680984E+04  0.20830853406E+04  0.10008983400E+04 0.  0.
         25    2    3    3    0    0  0.76852101613E+02  0.79828408333E+02  0.16157793325E+03  0.23251577377E+03  0.12520916994E+03 0.  0.
         35    2    3    3    0    0 -0.76852101613E+02 -0.79828408333E+02  0.16652901652E+04  0.18505695668E+04  0.79946079766E+03 0.  0.
         22    1    5    5    0    0 -0.14817405492E+03  0.28552901958E+03  0.12593568986E+04  0.12997931257E+04  0.00000000000E+00 0.  1.
         22    1    5    5    0    0  0.71321953310E+02 -0.36535742791E+03  0.40593326662E+03  0.55077644113E+03  0.00000000000E+00 0.  1.
          5    1    4    4  502    0  0.74848932758E+02 -0.11360531643E+02  0.71655928983E+02  0.10434599452E+03  0.47000000000E+01 0. -1.
         -5    1    4    4    0  502  0.20031688552E+01  0.91188939976E+02  0.89922004270E+02  0.12816977924E+03  0.47000000000E+01 0. -1.
<mgrwt>
<rscale>  0 0.10008983E+04</rscale>
<asrwt>0</asrwt>
<pdfrwt beam="1">  1        1 0.30076563E+00 0.10008983E+04</pdfrwt>
<pdfrwt beam="2">  1       -1 0.19709020E-01 0.10008983E+04</pdfrwt>
<totfact> 0.70168871E+01</totfact>
</mgrwt>
</event>
<event>
 9    1  0.4296086E-036  0.1000576E+04  0.7818608E-02  0.8680490E-01
         -3   -1    0    0    0  501 -0.00000000000E+00  0.00000000000E+00  0.11484675078E+04  0.11484675078E+04  0.00000000000E+00 0.  1.
          3   -1    0    0  501    0  0.00000000000E+00 -0.00000000000E+00 -0.21793227792E+03  0.21793227792E+03  0.00000000000E+00 0.  1.
         36    2    1    2    0    0  0.00000000000E+00  0.00000000000E+00  0.93053522991E+03  0.13663997857E+04  0.10005761142E+04 0.  0.
         25    2    3    3    0    0 -0.11645276835E+03 -0.38086051403E+02  0.80041475211E+02  0.19220697663E+03  0.12459971727E+03 0.  0.
         35    2    3    3    0    0  0.11645276835E+03  0.38086051403E+02  0.85049375469E+03  0.11741928091E+04  0.80023579751E+03 0.  0.
         22    1    5    5    0    0 -0.42216890941E+01 -0.21490892725E+03  0.86715306282E+03  0.89339694651E+03  0.00000000000E+00 0. -1.
         22    1    5    5    0    0  0.12067445745E+03  0.25299497865E+03 -0.16659308131E+02  0.28079586260E+03  0.00000000000E+00 0. -1.
          5    1    4    4  502    0 -0.87226005599E+02 -0.81333367649E+02  0.71428513204E+02  0.13909570534E+03  0.47000000000E+01 0. -1.
         -5    1    4    4    0  502 -0.29226762755E+02  0.43247316246E+02  0.86129620071E+01  0.53111271291E+02  0.47000000000E+01 0. -1.
<mgrwt>
<rscale>  0 0.10005761E+04</rscale>
<asrwt>0</asrwt>
<pdfrwt beam="1">  1        3 0.33528043E-01 0.10005761E+04</pdfrwt>
<pdfrwt beam="2">  1       -3 0.17668731E+00 0.10005761E+04</pdfrwt>
<totfact> 0.54126370E+00</totfact>
</mgrwt>
</event>
<event>
 9    1  0.4296086E-036  0.1001397E+04  0.7818608E-02  0.8679709E-01
         -2   -1    0    0    0  501 -0.00000000000E+00  0.00000000000E+00  0.20219810774E+03  0.20219810774E+03  0.00000000000E+00 0.  1.
          2   -1    0    0  501    0  0.00000000000E+00 -0.00000000000E+00 -0.12398677733E+04  0.12398677733E+04  0.00000000000E+00 0.  1.
         36    2    1    2    0    0 -0.14210854715E-13  0.00000000000E+00 -0.10376696656E+04  0.14420658811E+04  0.10013968596E+04 0.  0.
         25    2    3    3    0    0  0.86505694975E+02  0.27204327887E+02 -0.37779275035E+02  0.15885145454E+03  0.12483268911E+03 0.  0.
         35    2    3    3    0    0 -0.86505694975E+02 -0.27204327887E+02 -0.99989039057E+03  0.12832144265E+04  0.79914652010E+03 0.  0.
         22    1    5    5    0    0 -0.39379420943E+03  0.65712284377E+02 -0.25934603260E+03  0.47608019106E+03  0.00000000000E+00 0. -1.
         22    1    5    5    0    0  0.30728851445E+03 -0.92916612264E+02 -0.74054435798E+03  0.80713423548E+03  0.00000000000E+00 0. -1.
          5    1    4    4  502    0  0.83836242142E+00 -0.16861223643E+02 -0.57753926200E+02  0.60354036367E+02  0.47000000000E+01 0.  1.
         -5    1    4    4    0  502  0.85667332553E+02  0.44065551530E+02  0.19974651165E+02  0.98497418177E+02  0.47000000000E+01 0.  1.
<mgrwt>
<rscale>  0 0.10013969E+04</rscale>
<asrwt>0</asrwt>
<pdfrwt beam="1">  1        2 0.19074889E+00 0.10013969E+04</pdfrwt>
<pdfrwt beam="2">  1       -2 0.31107402E-01 0.10013969E+04</pdfrwt>
<totfact> 0.20675553E+02</totfact>
</mgrwt>
</event>
<event>
 9    1  0.4296086E-036  0.9975829E+03  0.7818608E-02  0.8683343E-01
          1   -1    0    0  501    0  0.00000000000E+00  0.00000000000E+00  0.47060820913E+03  0.47060820913E+03  0.00000000000E+00 0. -1.
         -1   -1    0    0    0  501 -0.00000000000E+00 -0.00000000000E+00 -0.52866251199E+03  0.52866251199E+03  0.00000000000E+00 0. -1.
         36    2    1    2    0    0  0.00000000000E+00  0.14210854715E-13 -0.58054302856E+02  0.99927072112E+03  0.99758291485E+03 0.  0.
         25    2    3    3    0    0 -0.28986313907E+02  0.11715289120E+03 -0.76360975455E+02  0.19021662365E+03  0.12564377832E+03 0.  0.
         35    2    3    3    0    0  0.28986313907E+02 -0.11715289120E+03  0.18306672599E+02  0.80905409746E+03  0.79979271818E+03 0.  0.
         22    1    5    5    0    0 -0.41961521880E+02  0.34144350847E+03  0.25391039889E+02  0.34494803043E+03  0.00000000000E+00 0. -1.
         22    1    5    5    0    0  0.70947835787E+02 -0.45859639967E+03 -0.70843672903E+01  0.46410606703E+03  0.00000000000E+00 0. -1.
          5    1    4    4  502    0  0.31439378656E+02  0.12434813410E+02  0.16292051672E+02  0.37823009697E+02  0.47000000000E+01 0.  1.
         -5    1    4    4    0  502 -0.60425692563E+02  0.10471807779E+03 -0.92653027127E+02  0.15239361396E+03  0.47000000000E+01 0.  1.
<mgrwt>
<rscale>  0 0.99758291E+03</rscale>
<asrwt>0</asrwt>
<pdfrwt beam="1">  1        1 0.72401263E-01 0.99758291E+03</pdfrwt>
<pdfrwt beam="2">  1       -1 0.81332694E-01 0.99758291E+03</pdfrwt>
<totfact> 0.85902901E+01</totfact>
</mgrwt>
</event>
<event>
 9    1  0.4296086E-036  0.1000478E+04  0.7818608E-02  0.8680583E-01
          1   -1    0    0  501    0  0.00000000000E+00  0.00000000000E+00  0.50769705141E+03  0.50769705141E+03  0.00000000000E+00 0. -1.
         -1   -1    0    0    0  501 -0.00000000000E+00 -0.00000000000E+00 -0.49289015019E+03  0.49289015019E+03  0.00000000000E+00 0. -1.
         36    2    1    2    0    0  0.00000000000E+00 -0.14210854715E-13  0.14806901222E+02  0.10005872016E+04  0.10004776378E+04 0.  0.
         25    2    3    3    0    0  0.93651553918E+02  0.74750703823E+02  0.55269289279E+02  0.18322486193E+03  0.12711559472E+03 0.  0.
         35    2    3    3    0    0 -0.93651553918E+02 -0.74750703823E+02 -0.40462388056E+02  0.81736233967E+03  0.80751824016E+03 0.  0.
         22    1    5    5    0    0 -0.11514711159E+03  0.18107771996E+03  0.31361643676E+03  0.38000429916E+03  0.00000000000E+00 0.  1.
         22    1    5    5    0    0  0.21495557676E+02 -0.25582842378E+03 -0.35407882482E+03  0.43735804051E+03  0.00000000000E+00 0.  1.
          5    1    4    4  502    0  0.42830846968E+02  0.57770378342E+02  0.92902119314E+02  0.11757887497E+03  0.47000000000E+01 0.  1.
         -5    1    4    4    0  502  0.50820706950E+02  0.16980325481E+02 -0.37632830035E+02  0.65645986966E+02  0.47000000000E+01 0.  1.
<mgrwt>
<rscale>  0 0.10004776E+04</rscale>
<asrwt>0</asrwt>
<pdfrwt beam="1">  1        1 0.78107239E-01 0.10004776E+04</pdfrwt>
<pdfrwt beam="2">  1       -1 0.75829254E-01 0.10004776E+04</pdfrwt>
<totfact> 0.89394454E+01</totfact>
</mgrwt>
</event>
<event>
 9    1  0.4296086E-036  0.1001339E+04  0.7818608E-02  0.8679764E-01
          4   -1    0    0  501    0  0.00000000000E+00  0.00000000000E+00  0.17705374806E+03  0.17705374806E+03  0.00000000000E+00 0. -1.
         -4   -1    0    0    0  501 -0.00000000000E+00 -0.00000000000E+00 -0.14157834129E+04  0.14157834129E+04  0.00000000000E+00 0. -1.
         36    2    1    2    0    0 -0.28421709430E-13  0.00000000000E+00 -0.12387296648E+04  0.15928371609E+04  0.10013386234E+04 0.  0.
         25    2    3    3    0    0 -0.10633693537E+03  0.70990370572E+02 -0.32343131439E+03  0.36958846241E+03  0.12506254387E+03 0.  0.
         35    2    3    3    0    0  0.10633693537E+03 -0.70990370572E+02 -0.91529835043E+03  0.12232486985E+04  0.80138575707E+03 0.  0.
         22    1    5    5    0    0  0.33037156650E+03 -0.27682908817E+03 -0.77810099336E+03  0.88950597068E+03  0.00000000000E+00 0. -1.
         22    1    5    5    0    0 -0.22403463113E+03  0.20583871760E+03 -0.13719735707E+03  0.33374272786E+03  0.00000000000E+00 0. -1.
          5    1    4    4  502    0 -0.54673210322E+02  0.10355148751E+03 -0.20031420227E+03  0.23207744423E+03  0.47000000000E+01 0. -1.
         -5    1    4    4    0  502 -0.51663725046E+02 -0.32561116937E+02 -0.12311711212E+03  0.13751101818E+03  0.47000000000E+01 0. -1.
<mgrwt>
<rscale>  0 0.10013386E+04</rscale>
<asrwt>0</asrwt>
<pdfrwt beam="1">  1        4 0.27239038E-01 0.10013386E+04</pdfrwt>
<pdfrwt beam="2">  1       -4 0.21781284E+00 0.10013386E+04</pdfrwt>
<totfact> 0.22352599E+00</totfact>
</mgrwt>
</event>
<event>
 9    1  0.4296086E-036  0.1000154E+04  0.7818608E-02  0.8680891E-01
          1   -1    0    0  501    0  0.00000000000E+00  0.00000000000E+00  0.65982483455E+03  0.65982483455E+03  0.00000000000E+00 0.  1.
         -1   -1    0    0    0  501 -0.00000000000E+00 -0.00000000000E+00 -0.37900511711E+03  0.37900511711E+03  0.00000000000E+00 0.  1.
         36    2    1    2    0    0  0.00000000000E+00  0.00000000000E+00  0.28081971743E+03  0.10388299517E+04  0.10001539655E+04 0.  0.
         25    2    3    3    0    0 -0.70941551116E+02 -0.37183219929E+02  0.17319186643E+03  0.22801809506E+03  0.12482601314E+03 0.  0.
         35    2    3    3    0    0  0.70941551116E+02  0.37183219929E+02  0.10762785100E+03  0.81081185660E+03  0.79963542754E+03 0.  0.
         22    1    5    5    0    0  0.57442283662E+02 -0.52143253295E+02  0.45004250262E+03  0.45668018238E+03  0.00000000000E+00 0. -1.
         22    1    5    5    0    0  0.13499267455E+02  0.89326473224E+02 -0.34241465162E+03  0.35413167422E+03  0.00000000000E+00 0. -1.
          5    1    4    4  502    0 -0.10222814428E+03 -0.48673389903E+01  0.12960324734E+03  0.16520707065E+03  0.47000000000E+01 0. -1.
         -5    1    4    4    0  502  0.31286593164E+02 -0.32315880938E+02  0.43588619093E+02  0.62811024407E+02  0.47000000000E+01 0. -1.
<mgrwt>
<rscale>  0 0.10001540E+04</rscale>
<asrwt>0</asrwt>
<pdfrwt beam="1">  1        1 0.10151151E+00 0.10001540E+04</pdfrwt>
<pdfrwt beam="2">  1       -1 0.58308479E-01 0.10001540E+04</pdfrwt>
<totfact> 0.10253299E+02</totfact>
</mgrwt>
</event>
<event>
 9    1  0.4296086E-036  0.1000075E+04  0.7818608E-02  0.8680967E-01
         -3   -1    0    0    0  501 -0.00000000000E+00  0.00000000000E+00  0.10274614208E+03  0.10274614208E+03  0.00000000000E+00 0.  1.
          3   -1    0    0  501    0  0.00000000000E+00 -0.00000000000E+00 -0.24335456811E+04  0.24335456811E+04  0.00000000000E+00 0.  1.
         36    2    1    2    0    0  0.00000000000E+00  0.28421709430E-13 -0.23307995391E+04  0.25362918232E+04  0.10000748578E+04 0.  0.
         25    2    3    3    0    0 -0.16181107031E+02 -0.13348279253E+03 -0.54489577433E+03  0.57493065889E+03  0.12471717411E+03 0.  0.
         35    2    3    3    0    0  0.16181107031E+02  0.13348279253E+03 -0.17859037647E+04  0.19613611643E+04  0.79962858625E+03 0.  0.
         22    1    5    5    0    0  0.10107247830E+03  0.47079331967E+02  0.49479692214E+02  0.12198503723E+03  0.00000000000E+00 0.  1.
         22    1    5    5    0    0 -0.84891371266E+02  0.86403460561E+02 -0.18353834570E+04  0.18393761271E+04  0.00000000000E+00 0.  1.
          5    1    4    4  502    0 -0.68255771003E+02 -0.10024535069E+03 -0.36826764750E+03  0.38775137757E+03  0.47000000000E+01 0.  1.
         -5    1    4    4    0  502  0.52074663971E+02 -0.33237441837E+02 -0.17662812683E+03  0.18717928132E+03  0.47000000000E+01 0.  1.
<mgrwt>
<rscale>  0 0.10000749E+04</rscale>
<asrwt>0</asrwt>
<pdfrwt beam="1">  1        3 0.37439165E+00 0.10000749E+04</pdfrwt>
<pdfrwt beam="2">  1       -3 0.15807099E-01 0.10000749E+04</pdfrwt>
<totfact> 0.35422692E+00</totfact>
</mgrwt>
</event>
<event>
 9    1  0.4296086E-036  0.1000187E+04  0.7818608E-02  0.8680860E-01
          2   -1    0    0  501    0  0.00000000000E+00  0.00000000000E+00  0.97611044485E+03  0.97611044485E+03  0.00000000000E+00 0.  1.
         -2   -1    0    0    0  501 -0.00000000000E+00 -0.00000000000E+00 -0.25621439438E+03  0.25621439438E+03  0.00000000000E+00 0.  1.
         36    2    1    2    0    0  0.00000000000E+00  0.21316282073E-13  0.71989605047E+03  0.12323248392E+04  0.10001870754E+04 0.  0.
         25    2    3    3    0    0  0.12963642832E+03  0.24136029195E+02  0.71586774286E+02  0.19461013251E+03  0.12393662078E+03 0.  0.
         35    2    3    3    0    0 -0.12963642832E+03 -0.24136029195E+02  0.64830927618E+03  0.10377147067E+04  0.79947404179E+03 0.  0.
         22    1    5    5    0    0 -0.29588934079E+03  0.25526058597E+03  0.10513697291E+03  0.40467548952E+03  0.00000000000E+00 0. -1.
         22    1    5    5    0    0  0.16625291247E+03 -0.27939661516E+03  0.54317230327E+03  0.63303921720E+03  0.00000000000E+00 0. -1.
          5    1    4    4  502    0  0.78421483560E+02 -0.28565816424E+01 -0.24490338745E+02  0.82340487212E+02  0.47000000000E+01 0. -1.
         -5    1    4    4    0  502  0.51214944755E+02  0.26992610837E+02  0.96077113031E+02  0.11226964529E+03  0.47000000000E+01 0. -1.
<mgrwt>
<rscale>  0 0.10001871E+04</rscale>
<asrwt>0</asrwt>
<pdfrwt beam="1">  1        2 0.15017084E+00 0.10001871E+04</pdfrwt>
<pdfrwt beam="2">  1       -2 0.39417600E-01 0.10001871E+04</pdfrwt>
<totfact> 0.19207066E+02</totfact>
</mgrwt>
</event>
<event>
 9    1  0.4296086E-036  0.1000334E+04  0.7818608E-02  0.8680720E-01
         -2   -1    0    0    0  501 -0.00000000000E+00  0.00000000000E+00  0.53589585342E+03  0.53589585342E+03  0.00000000000E+00 0. -1.
          2   -1    0    0  501    0  0.00000000000E+00 -0.00000000000E+00 -0.46681984849E+03  0.46681984849E+03  0.00000000000E+00 0. -1.
         36    2    1    2    0    0 -0.14210854715E-13  0.71054273576E-14  0.69076004930E+02  0.10027157019E+04  0.10003335866E+04 0.  0.
         25    2    3    3    0    0 -0.37160890656E+02  0.35334272729E+02 -0.11773274758E+03  0.17988990169E+03  0.12597592728E+03 0.  0.
         35    2    3    3    0    0  0.37160890656E+02 -0.35334272729E+02  0.18680875251E+03  0.82282580021E+03  0.79969703317E+03 0.  0.
         22    1    5    5    0    0  0.18020877559E+03 -0.37115667925E+03 -0.41275346851E+00  0.41259260018E+03  0.00000000000E+00 0.  1.
         22    1    5    5    0    0 -0.14304788494E+03  0.33582240652E+03  0.18722150598E+03  0.41023320004E+03  0.00000000000E+00 0.  1.
          5    1    4    4  502    0  0.29345335290E+02 -0.23752039883E+02 -0.67851108380E+02  0.77789273105E+02  0.47000000000E+01 0.  1.
         -5    1    4    4    0  502 -0.66506225946E+02  0.59086312612E+02 -0.49881639203E+02  0.10210062858E+03  0.47000000000E+01 0.  1.
<mgrwt>
<rscale>  0 0.10003336E+04</rscale>
<asrwt>0</asrwt>
<pdfrwt beam="1">  1        2 0.71818439E-01 0.10003336E+04</pdfrwt>
<pdfrwt beam="2">  1       -2 0.82445515E-01 0.10003336E+04</pdfrwt>
<totfact> 0.10352320E+02</totfact>
</mgrwt>
</event>
<event>
 9    1  0.4296086E-036  0.1000388E+04  0.7818608E-02  0.8680668E-01
         -2   -1    0    0    0  501 -0.00000000000E+00  0.00000000000E+00  0.94605424746E+02  0.94605424746E+02  0.00000000000E+00 0. -1.
          2   -1    0    0  501    0  0.00000000000E+00 -0.00000000000E+00 -0.26446081012E+04  0.26446081012E+04  0.00000000000E+00 0. -1.
         36    2    1    2    0    0  0.00000000000E+00  0.14210854715E-13 -0.25500026765E+04  0.27392135260E+04  0.10003884700E+04 0.  0.
         25    2    3    3    0    0 -0.51724441345E+02  0.48862407861E+02 -0.15234936668E+03  0.21054883770E+03  0.12671831278E+03 0.  0.
         35    2    3    3    0    0  0.51724441345E+02 -0.48862407861E+02 -0.23976533098E+04  0.25286646883E+04  0.80021294603E+03 0.  0.
         22    1    5    5    0    0  0.11793012514E+03  0.24281129692E+03 -0.27609023545E+03  0.38612259509E+03  0.00000000000E+00 0.  1.
         22    1    5    5    0    0 -0.66205683794E+02 -0.29167370478E+03 -0.21215630743E+04  0.21425420932E+04  0.00000000000E+00 0.  1.
          5    1    4    4  502    0  0.31373923150E+02 -0.14224651861E+01 -0.88991218518E+02  0.94487424742E+02  0.47000000000E+01 0. -1.
         -5    1    4    4    0  502 -0.83098364494E+02  0.50284873047E+02 -0.63358148161E+02  0.11606141296E+03  0.47000000000E+01 0. -1.
<mgrwt>
<rscale>  0 0.10003885E+04</rscale>
<asrwt>0</asrwt>
<pdfrwt beam="1">  1        2 0.40686275E+00 0.10003885E+04</pdfrwt>
<pdfrwt beam="2">  1       -2 0.14554682E-01 0.10003885E+04</pdfrwt>
<totfact> 0.11929420E+02</totfact>
</mgrwt>
</event>
<event>
 9    1  0.4296086E-036  0.1000075E+04  0.7818608E-02  0.8680966E-01
         -2   -1    0    0    0  501 -0.00000000000E+00  0.00000000000E+00  0.35863126583E+03  0.35863126583E+03  0.00000000000E+00 0.  1.
          2   -1    0    0  501    0  0.00000000000E+00 -0.00000000000E+00 -0.69720008717E+03  0.69720008717E+03  0.00000000000E+00 0.  1.
         36    2    1    2    0    0  0.00000000000E+00  0.00000000000E+00 -0.33856882134E+03  0.10558313530E+04  0.10000754967E+04 0.  0.
         25    2    3    3    0    0  0.49601458653E+02  0.11004106847E+03  0.11767340476E+02  0.17438543785E+03  0.12530949358E+03 0.  0.
         35    2    3    3    0    0 -0.49601458653E+02 -0.11004106847E+03 -0.35033616182E+03  0.88144591515E+03  0.79977630223E+03 0.  0.
         22    1    5    5    0    0 -0.84240258434E+02  0.34346027413E+03 -0.16650627771E+03  0.39087814158E+03  0.00000000000E+00 0.  1.
         22    1    5    5    0    0  0.34638799781E+02 -0.45350134259E+03 -0.18382988411E+03  0.49056777358E+03  0.00000000000E+00 0.  1.
          5    1    4    4  502    0  0.77032414407E+02  0.45621967546E+02  0.40729339437E+02  0.98469923749E+02  0.47000000000E+01 0. -1.
         -5    1    4    4    0  502 -0.27430955754E+02  0.64419100920E+02 -0.28961998961E+02  0.75915514098E+02  0.47000000000E+01 0. -1.
<mgrwt>
<rscale>  0 0.10000755E+04</rscale>
<asrwt>0</asrwt>
<pdfrwt beam="1">  1        2 0.10726155E+00 0.10000755E+04</pdfrwt>
<pdfrwt beam="2">  1       -2 0.55174041E-01 0.10000755E+04</pdfrwt>
<totfact> 0.15393252E+02</totfact>
</mgrwt>
</event>
<event>
 9    1  0.4296086E-036  0.9876489E+03  0.7818608E-02  0.8692890E-01
          2   -1    0    0  501    0  0.00000000000E+00  0.00000000000E+00  0.19976537361E+04  0.19976537361E+04  0.00000000000E+00 0. -1.
         -2   -1    0    0    0  501 -0.00000000000E+00 -0.00000000000E+00 -0.12207450671E+03  0.12207450671E+03  0.00000000000E+00 0. -1.
         36    2    1    2    0    0  0.71054273576E-14  0.00000000000E+00  0.18755792294E+04  0.21197282428E+04  0.98764891416E+03 0.  0.
         25    2    3    3    0    0  0.51189732111E+01 -0.44410948164E+02  0.79216390761E+02  0.15472357847E+03  0.12516234644E+03 0.  0.
         35    2    3    3    0    0 -0.51189732111E+01  0.44410948164E+02  0.17963628386E+04  0.19650046643E+04  0.79518887484E+03 0.  0.
         22    1    5    5    0    0  0.13826938050E+03 -0.15922687600E+03  0.72130096917E+02  0.22287747868E+03  0.00000000000E+00 0.  1.
         22    1    5    5    0    0 -0.14338835371E+03  0.20363782416E+03  0.17242327417E+04  0.17421271857E+04  0.00000000000E+00 0.  1.
          5    1    4    4  502    0 -0.47639484106E+02 -0.60200620583E+02  0.53968485821E+02  0.93959154031E+02  0.47000000000E+01 0.  1.
         -5    1    4    4    0  502  0.52758457317E+02  0.15789672418E+02  0.25247904940E+02  0.60764424439E+02  0.47000000000E+01 0.  1.
<mgrwt>
<rscale>  0 0.98764891E+03</rscale>
<asrwt>0</asrwt>
<pdfrwt beam="1">  1        2 0.30733132E+00 0.98764891E+03</pdfrwt>
<pdfrwt beam="2">  1       -2 0.18780695E-01 0.98764891E+03</pdfrwt>
<totfact> 0.18742799E+02</totfact>
</mgrwt>
</event>
<event>
 9    1  0.4296086E-036  0.9997761E+03  0.7818608E-02  0.8681251E-01
         -1   -1    0    0    0  501 -0.00000000000E+00  0.00000000000E+00  0.17219902689E+04  0.17219902689E+04  0.00000000000E+00 0.  1.
          1   -1    0    0  501    0  0.00000000000E+00 -0.00000000000E+00 -0.14511585252E+03  0.14511585252E+03  0.00000000000E+00 0.  1.
         36    2    1    2    0    0 -0.14210854715E-13  0.00000000000E+00  0.15768744164E+04  0.18671061214E+04  0.99977614673E+03 0.  0.
         25    2    3    3    0    0  0.86234450416E+02 -0.90819577404E+02  0.17976139871E+03  0.25220580374E+03  0.12493610725E+03 0.  0.
         35    2    3    3    0    0 -0.86234450416E+02  0.90819577404E+02  0.13971130177E+04  0.16149003177E+04  0.80018352632E+03 0.  0.
         22    1    5    5    0    0  0.12536962966E+03  0.26211174876E+03  0.12901413083E+03  0.31790683986E+03  0.00000000000E+00 0. -1.
         22    1    5    5    0    0 -0.21160408008E+03 -0.17129217136E+03  0.12680988868E+04  0.12969934778E+04  0.00000000000E+00 0. -1.
          5    1    4    4  502    0  0.39829416069E+02  0.26626404319E+02  0.69205155379E+02  0.84301787184E+02  0.47000000000E+01 0. -1.
         -5    1    4    4    0  502  0.46405034347E+02 -0.11744598172E+03  0.11055624333E+03  0.16790401655E+03  0.47000000000E+01 0. -1.
<mgrwt>
<rscale>  0 0.99977615E+03</rscale>
<asrwt>0</asrwt>
<pdfrwt beam="1">  1        1 0.22325517E-01 0.99977615E+03</pdfrwt>
<pdfrwt beam="2">  1       -1 0.26492157E+00 0.99977615E+03</pdfrwt>
<totfact> 0.91064890E+00</totfact>
</mgrwt>
</event>
<event>
 9    1  0.4296086E-036  0.1003837E+04  0.7818608E-02  0.8677393E-01
          2   -1    0    0  501    0  0.00000000000E+00  0.00000000000E+00  0.12069959547E+04  0.12069959547E+04  0.00000000000E+00 0. -1.
         -2   -1    0    0    0  501 -0.00000000000E+00 -0.00000000000E+00 -0.20871815416E+03  0.20871815416E+03  0.00000000000E+00 0. -1.
         36    2    1    2    0    0  0.14210854715E-13 -0.14210854715E-13  0.99827780057E+03  0.14157141089E+04  0.10038365758E+04 0.  0.
         25    2    3    3    0    0  0.90649703451E+02  0.11391131857E+03  0.19467337547E+03  0.27217129512E+03  0.12241868132E+03 0.  0.
         35    2    3    3    0    0 -0.90649703451E+02 -0.11391131857E+03  0.80360442510E+03  0.11435428138E+04  0.80044796062E+03 0.  0.
         22    1    5    5    0    0 -0.28831290378E+03  0.88670290942E+02  0.10914194243E+02  0.30183749041E+03  0.00000000000E+00 0.  1.
         22    1    5    5    0    0  0.19766320033E+03 -0.20258160951E+03  0.79269023086E+03  0.84170532336E+03  0.00000000000E+00 0.  1.
          5    1    4    4  502    0  0.24174801777E+02  0.11648710130E+03  0.15166236765E+03  0.19281397660E+03  0.47000000000E+01 0.  1.
         -5    1    4    4    0  502  0.66474901673E+02 -0.25757827307E+01  0.43011007815E+02  0.79357318518E+02  0.47000000000E+01 0.  1.
<mgrwt>
<rscale>  0 0.10038366E+04</rscale>
<asrwt>0</asrwt>
<pdfrwt beam="1">  1        2 0.18569168E+00 0.10038366E+04</pdfrwt>
<pdfrwt beam="2">  1       -2 0.32110486E-01 0.10038366E+04</pdfrwt>
<totfact> 0.20392476E+02</totfact>
</mgrwt>
</event>
<event>
 9    1  0.4296086E-036  0.9980036E+03  0.7818608E-02  0.8682941E-01
          2   -1    0    0  501    0  0.00000000000E+00  0.00000000000E+00  0.72793526166E+03  0.72793526166E+03  0.00000000000E+00 0. -1.
         -2   -1    0    0    0  501 -0.00000000000E+00 -0.00000000000E+00 -0.34206722547E+03  0.34206722547E+03  0.00000000000E+00 0. -1.
         36    2    1    2    0    0  0.53290705182E-14  0.00000000000E+00  0.38586803620E+03  0.10700024871E+04  0.99800359774E+03 0.  0.
         25    2    3    3    0    0 -0.40254671454E+01  0.10731553324E+03 -0.21235665352E+02  0.16618470527E+03  0.12503429418E+03 0.  0.
         35    2    3    3    0    0  0.40254671454E+01 -0.10731553324E+03  0.40710370155E+03  0.90381778186E+03  0.79976267163E+03 0.  0.
         22    1    5    5    0    0 -0.35201846137E+03  0.59436270901E+02  0.36142723949E+03  0.50801507545E+03  0.00000000000E+00 0.  1.
         22    1    5    5    0    0  0.35604392851E+03 -0.16675180414E+03  0.45676462056E+02  0.39580270641E+03  0.00000000000E+00 0.  1.
          5    1    4    4  502    0 -0.18683218143E+02  0.11331218392E+03  0.24531843039E+02  0.11752708194E+03  0.47000000000E+01 0. -1.
         -5    1    4    4    0  502  0.14657750998E+02 -0.59966506802E+01 -0.45767508391E+02  0.48657623329E+02  0.47000000000E+01 0. -1.
<mgrwt>
<rscale>  0 0.99800360E+03</rscale>
<asrwt>0</asrwt>
<pdfrwt beam="1">  1        2 0.11199004E+00 0.99800360E+03</pdfrwt>
<pdfrwt beam="2">  1       -2 0.52625727E-01 0.99800360E+03</pdfrwt>
<totfact> 0.16069570E+02</totfact>
</mgrwt>
</event>
<event>
 9    1  0.4296086E-036  0.1000321E+04  0.7818608E-02  0.8680732E-01
          1   -1    0    0  501    0  0.00000000000E+00  0.00000000000E+00  0.21221046203E+04  0.21221046203E+04  0.00000000000E+00 0. -1.
         -1   -1    0    0    0  501 -0.00000000000E+00 -0.00000000000E+00 -0.11788328156E+03  0.11788328156E+03  0.00000000000E+00 0. -1.
         36    2    1    2    0    0 -0.35527136788E-13  0.00000000000E+00  0.20042213387E+04  0.22399879018E+04  0.10003212613E+04 0.  0.
         25    2    3    3    0    0 -0.34545208895E+02  0.36852921014E+02  0.83855857051E+02  0.15906414682E+03  0.12537180224E+03 0.  0.
         35    2    3    3    0    0  0.34545208895E+02 -0.36852921014E+02  0.19203654817E+04  0.20809237550E+04  0.79993036057E+03 0.  0.
         22    1    5    5    0    0  0.37312026071E+03  0.16199347445E+03  0.90168165715E+03  0.98918674958E+03  0.00000000000E+00 0.  1.
         22    1    5    5    0    0 -0.33857505181E+03 -0.19884639546E+03  0.10186838245E+04  0.10917370054E+04  0.00000000000E+00 0.  1.
          5    1    4    4  502    0 -0.55036553129E+02  0.23871453570E+02  0.10856150351E+03  0.12412315868E+03  0.47000000000E+01 0.  1.
         -5    1    4    4    0  502  0.20491344234E+02  0.12981467444E+02 -0.24705646459E+02  0.34940988144E+02  0.47000000000E+01 0.  1.
<mgrwt>
<rscale>  0 0.10003213E+04</rscale>
<asrwt>0</asrwt>
<pdfrwt beam="1">  1        1 0.32647760E+00 0.10003213E+04</pdfrwt>
<pdfrwt beam="2">  1       -1 0.18135891E-01 0.10003213E+04</pdfrwt>
<totfact> 0.61436796E+01</totfact>
</mgrwt>
</event>
<event>
 9    1  0.4296086E-036  0.9998933E+03  0.7818608E-02  0.8681140E-01
          1   -1    0    0  501    0  0.00000000000E+00  0.00000000000E+00  0.40505566009E+04  0.40505566009E+04  0.00000000000E+00 0. -1.
         -1   -1    0    0    0  501 -0.00000000000E+00 -0.00000000000E+00 -0.61706745755E+02  0.61706745755E+02  0.00000000000E+00 0. -1.
         36    2    1    2    0    0  0.00000000000E+00  0.00000000000E+00  0.39888498551E+04  0.41122633467E+04  0.99989332698E+03 0.  0.
         25    2    3    3    0    0 -0.10471741750E+02 -0.55354931351E+02  0.22552810240E+03  0.26436947706E+03  0.12591453304E+03 0.  0.
         35    2    3    3    0    0  0.10471741750E+02  0.55354931351E+02  0.37633217527E+04  0.38478938696E+04  0.80032667776E+03 0.  0.
         22    1    5    5    0    0  0.10677678569E+03  0.41561780116E+03  0.20640800122E+04  0.21082138733E+04  0.00000000000E+00 0.  1.
         22    1    5    5    0    0 -0.96305043944E+02 -0.36026286981E+03  0.16992417405E+04  0.17396799963E+04  0.00000000000E+00 0.  1.
          5    1    4    4  502    0 -0.59167922897E+02 -0.23516303037E+02  0.55476548225E+02  0.84578939527E+02  0.47000000000E+01 0.  1.
         -5    1    4    4    0  502  0.48696181148E+02 -0.31838628314E+02  0.17005155417E+03  0.17979053754E+03  0.47000000000E+01 0.  1.
<mgrwt>
<rscale>  0 0.99989333E+03</rscale>
<asrwt>0</asrwt>
<pdfrwt beam="1">  1        1 0.62316235E+00 0.99989333E+03</pdfrwt>
<pdfrwt beam="2">  1       -1 0.94933487E-02 0.99989333E+03</pdfrwt>
<totfact> 0.69134668E+00</totfact>
</mgrwt>
</event>
<event>
 9    1  0.4296086E-036  0.1000687E+04  0.7818608E-02  0.8680384E-01
          1   -1    0    0  501    0  0.00000000000E+00  0.00000000000E+00  0.77789402821E+03  0.77789402821E+03  0.00000000000E+00 0.  1.
         -1   -1    0    0    0  501 -0.00000000000E+00 -0.00000000000E+00 -0.32182224029E+03  0.32182224029E+03  0.00000000000E+00 0.  1.
         36    2    1    2    0    0  0.14210854715E-13  0.14210854715E-13  0.45607178792E+03  0.10997162685E+04  0.10006869618E+04 0.  0.
         25    2    3    3    0    0 -0.83781139547E+02 -0.10377297874E+03  0.14028134408E+03  0.23048414618E+03  0.12512384139E+03 0.  0.
         35    2    3    3    0    0  0.83781139547E+02  0.10377297874E+03  0.31579044384E+03  0.86923212231E+03  0.79878205261E+03 0.  0.
         22    1    5    5    0    0 -0.24954620144E+03  0.16482347905E+03  0.41918888819E+03  0.51493631634E+03  0.00000000000E+00 0. -1.
         22    1    5    5    0    0  0.33332734099E+03 -0.61050500309E+02 -0.10339844435E+03  0.35429580598E+03  0.00000000000E+00 0. -1.
          5    1    4    4  502    0 -0.78100210415E+02 -0.13179408231E+03  0.11061865474E+03  0.18901825249E+03  0.47000000000E+01 0. -1.
         -5    1    4    4    0  502 -0.56809291317E+01  0.28021103565E+02  0.29662689341E+02  0.41465893693E+02  0.47000000000E+01 0. -1.
<mgrwt>
<rscale>  0 0.10006870E+04</rscale>
<asrwt>0</asrwt>
<pdfrwt beam="1">  1        1 0.11967600E+00 0.10006870E+04</pdfrwt>
<pdfrwt beam="2">  1       -1 0.49511114E-01 0.10006870E+04</pdfrwt>
<totfact> 0.10792454E+02</totfact>
</mgrwt>
</event>
<event>
 9    1  0.4296086E-036  0.9997582E+03  0.7818608E-02  0.8681268E-01
         -2   -1    0    0    0  501 -0.00000000000E+00  0.00000000000E+00  0.31248134020E+03  0.31248134020E+03  0.00000000000E+00 0.  1.
          2   -1    0    0  501    0  0.00000000000E+00 -0.00000000000E+00 -0.79966089613E+03  0.79966089613E+03  0.00000000000E+00 0.  1.
         36    2    1    2    0    0  0.00000000000E+00  0.00000000000E+00 -0.48717955592E+03  0.11121422363E+04  0.99975818782E+03 0.  0.
         25    2    3    3    0    0 -0.32989718372E+02  0.13213886606E+03 -0.12383383991E+03  0.22265912698E+03  0.12527276432E+03 0.  0.
         35    2    3    3    0    0  0.32989718372E+02 -0.13213886606E+03 -0.36334571601E+03  0.88948310935E+03  0.80038184077E+03 0.  0.
         22    1    5    5    0    0  0.30704339951E+03 -0.33513710731E+03 -0.29439280406E+03  0.54153453533E+03  0.00000000000E+00 0.  1.
         22    1    5    5    0    0 -0.27405368113E+03  0.20299824125E+03 -0.68952911952E+02  0.34794857402E+03  0.00000000000E+00 0.  1.
          5    1    4    4  502    0 -0.49587632608E+02  0.91154627203E+02 -0.14088150499E+03  0.17503653280E+03  0.47000000000E+01 0.  1.
         -5    1    4    4    0  502  0.16597914236E+02  0.40984238853E+02  0.17047665079E+02  0.47622594175E+02  0.47000000000E+01 0.  1.
<mgrwt>
<rscale>  0 0.99975819E+03</rscale>
<asrwt>0</asrwt>
<pdfrwt beam="1">  1        2 0.12302475E+00 0.99975819E+03</pdfrwt>
<pdfrwt beam="2">  1       -2 0.48074052E-01 0.99975819E+03</pdfrwt>
<totfact> 0.17099425E+02</totfact>
</mgrwt>
</event>
<event>
 9    1  0.4296086E-036  0.9994395E+03  0.7818608E-02  0.8681572E-01
          2   -1    0    0  501    0  0.00000000000E+00  0.00000000000E+00  0.20621540818E+03  0.20621540818E+03  0.00000000000E+00 0.  1.
         -2   -1    0    0    0  501 -0.00000000000E+00 -0.00000000000E+00 -0.12109660026E+04  0.12109660026E+04  0.00000000000E+00 0.  1.
         36    2    1    2    0    0  0.00000000000E+00 -0.14210854715E-13 -0.10047505944E+04  0.14171814108E+04  0.99943953998E+03 0.  0.
         25    2    3    3    0    0  0.57777123140E+01 -0.83158348447E+02 -0.34324152578E+03  0.37468047743E+03  0.12498808853E+03 0.  0.
         35    2    3    3    0    0 -0.57777123140E+01  0.83158348447E+02 -0.66150906866E+03  0.10425009334E+04  0.80141453398E+03 0.  0.
         22    1    5    5    0    0 -0.12132201445E+03  0.34493748839E+02  0.16435482765E+03  0.20717470712E+03  0.00000000000E+00 0.  1.
         22    1    5    5    0    0  0.11554430213E+03  0.48664599608E+02 -0.82586389631E+03  0.83532622624E+03  0.00000000000E+00 0.  1.
          5    1    4    4  502    0 -0.38552402907E+02 -0.96140663798E+02 -0.24378609936E+03  0.26492086979E+03  0.47000000000E+01 0. -1.
         -5    1    4    4    0  502  0.44330115221E+02  0.12982315351E+02 -0.99455426414E+02  0.10975960765E+03  0.47000000000E+01 0. -1.
<mgrwt>
<rscale>  0 0.99943954E+03</rscale>
<asrwt>0</asrwt>
<pdfrwt beam="1">  1        2 0.31725447E-01 0.99943954E+03</pdfrwt>
<pdfrwt beam="2">  1       -2 0.18630247E+00 0.99943954E+03</pdfrwt>
<totfact> 0.30154910E+01</totfact>
</mgrwt>
</event>
<event>
 9    1  0.4296086E-036  0.1000055E+04  0.7818608E-02  0.8680985E-01
          2   -1    0    0  501    0  0.00000000000E+00  0.00000000000E+00  0.38725037355E+03  0.38725037355E+03  0.00000000000E+00 0. -1.
         -2   -1    0    0    0  501 -0.00000000000E+00 -0.00000000000E+00 -0.64564869773E+03  0.64564869773E+03  0.00000000000E+00 0. -1.
         36    2    1    2    0    0  0.00000000000E+00 -0.42632564146E-13 -0.25839832418E+03  0.10328990713E+04  0.10000553972E+04 0.  0.
         25    2    3    3    0    0  0.10677752083E+03 -0.90001573917E+02 -0.49388259055E+02  0.19379703106E+03  0.12496546265E+03 0.  0.
         35    2    3    3    0    0 -0.10677752083E+03  0.90001573917E+02 -0.20901006512E+03  0.83910204021E+03  0.80056561524E+03 0.  0.
         22    1    5    5    0    0  0.11532191353E+02  0.40085957333E+03  0.67374770792E+02  0.40664572875E+03  0.00000000000E+00 0.  1.
         22    1    5    5    0    0 -0.11830971218E+03 -0.31085799942E+03 -0.27638483591E+03  0.43245631146E+03  0.00000000000E+00 0.  1.
          5    1    4    4  502    0  0.24265674151E+02  0.13310908817E+02 -0.54598258653E+02  0.61392695685E+02  0.47000000000E+01 0.  1.
         -5    1    4    4    0  502  0.82511846680E+02 -0.10331248273E+03  0.52099995975E+01  0.13240433538E+03  0.47000000000E+01 0.  1.
<mgrwt>
<rscale>  0 0.10000554E+04</rscale>
<asrwt>0</asrwt>
<pdfrwt beam="1">  1        2 0.59576981E-01 0.10000554E+04</pdfrwt>
<pdfrwt beam="2">  1       -2 0.99330569E-01 0.10000554E+04</pdfrwt>
<totfact> 0.82271600E+01</totfact>
</mgrwt>
</event>
<event>
 9    1  0.4296086E-036  0.9979274E+03  0.7818608E-02  0.8683014E-01
         -2   -1    0    0    0  501 -0.00000000000E+00  0.00000000000E+00  0.40574091766E+03  0.40574091766E+03  0.00000000000E+00 0. -1.
          2   -1    0    0  501    0  0.00000000000E+00 -0.00000000000E+00 -0.61360532072E+03  0.61360532072E+03  0.00000000000E+00 0. -1.
         36    2    1    2    0    0 -0.56843418861E-13 -0.21316282073E-13 -0.20786440306E+03  0.10193462384E+04  0.99792742403E+03 0.  0.
         25    2    3    3    0    0 -0.13315018788E+03 -0.34954369817E+02 -0.20577431822E+02  0.18698996980E+03  0.12486407652E+03 0.  0.
         35    2    3    3    0    0  0.13315018788E+03  0.34954369817E+02 -0.18728697124E+03  0.83235626858E+03  0.79924324692E+03 0.  0.
         22    1    5    5    0    0 -0.27999960576E+03  0.17817158744E+03  0.48760114599E+02  0.33544365037E+03  0.00000000000E+00 0. -1.
         22    1    5    5    0    0  0.41314979363E+03 -0.14321721763E+03 -0.23604708584E+03  0.49691261821E+03  0.00000000000E+00 0. -1.
          5    1    4    4  502    0  0.11537517016E+02  0.19169882204E+02 -0.22986324509E+02  0.32420052391E+02  0.47000000000E+01 0.  1.
         -5    1    4    4    0  502 -0.14468770489E+03 -0.54124252021E+02  0.24088926870E+01  0.15456991741E+03  0.47000000000E+01 0.  1.
<mgrwt>
<rscale>  0 0.99792742E+03</rscale>
<asrwt>0</asrwt>
<pdfrwt beam="1">  1        2 0.94400818E-01 0.99792742E+03</pdfrwt>
<pdfrwt beam="2">  1       -2 0.62421680E-01 0.99792742E+03</pdfrwt>
<totfact> 0.13902984E+02</totfact>
</mgrwt>
</event>
<event>
 9    1  0.4296086E-036  0.9996300E+03  0.7818608E-02  0.8681390E-01
         -2   -1    0    0    0  501 -0.00000000000E+00  0.00000000000E+00  0.93159921355E+02  0.93159921355E+02  0.00000000000E+00 0.  1.
          2   -1    0    0  501    0  0.00000000000E+00 -0.00000000000E+00 -0.26815719913E+04  0.26815719913E+04  0.00000000000E+00 0.  1.
         36    2    1    2    0    0 -0.28421709430E-13 -0.14210854715E-13 -0.25884120700E+04  0.27747319127E+04  0.99963000319E+03 0.  0.
         25    2    3    3    0    0 -0.75582355065E+02  0.10630304897E+03 -0.61777146860E+03  0.64360934563E+03  0.12481334768E+03 0.  0.
         35    2    3    3    0    0  0.75582355065E+02 -0.10630304897E+03 -0.19706406014E+04  0.21311225670E+04  0.80077836220E+03 0.  0.
         22    1    5    5    0    0  0.38730832816E+03  0.30938699064E+02 -0.57114077412E+03  0.69077255882E+03  0.00000000000E+00 0.  1.
         22    1    5    5    0    0 -0.31172597309E+03 -0.13724174803E+03 -0.13994998273E+04  0.14403500082E+04  0.00000000000E+00 0.  1.
          5    1    4    4  502    0  0.28854076818E+02  0.23955772314E+02 -0.24276919278E+03  0.24569372752E+03  0.47000000000E+01 0.  1.
         -5    1    4    4    0  502 -0.10443643188E+03  0.82347276655E+02 -0.37500227581E+03  0.39791561812E+03  0.47000000000E+01 0.  1.
<mgrwt>
<rscale>  0 0.99963000E+03</rscale>
<asrwt>0</asrwt>
<pdfrwt beam="1">  1        2 0.41254950E+00 0.99963000E+03</pdfrwt>
<pdfrwt beam="2">  1       -2 0.14332297E-01 0.99963000E+03</pdfrwt>
<totfact> 0.11605589E+02</totfact>
</mgrwt>
</event>
<event>
 9    1  0.4296086E-036  0.9927263E+03  0.7818608E-02  0.8687996E-01
         -2   -1    0    0    0  501 -0.00000000000E+00  0.00000000000E+00  0.11915815990E+03  0.11915815990E+03  0.00000000000E+00 0.  1.
          2   -1    0    0  501    0  0.00000000000E+00 -0.00000000000E+00 -0.20676418064E+04  0.20676418064E+04  0.00000000000E+00 0.  1.
         36    2    1    2    0    0 -0.39079850467E-13  0.14210854715E-13 -0.19484836465E+04  0.21867999663E+04  0.99272633286E+03 0.  0.
         25    2    3    3    0    0 -0.23020356045E+02  0.10668818570E+03 -0.50112438977E+03  0.52976196526E+03  0.13270184644E+03 0.  0.
         35    2    3    3    0    0  0.23020356045E+02 -0.10668818570E+03 -0.14473592567E+04  0.16570380011E+04  0.79938339558E+03 0.  0.
         22    1    5    5    0    0  0.37327057936E+03 -0.76394220732E+02 -0.10945774824E+04  0.11589939030E+04  0.00000000000E+00 0. -1.
         22    1    5    5    0    0 -0.35025022331E+03 -0.30293964968E+02 -0.35278177437E+03  0.49804409802E+03  0.00000000000E+00 0. -1.
          5    1    4    4  502    0  0.15656661309E+02  0.74769511062E+02 -0.10225642256E+03  0.12772657039E+03  0.47000000000E+01 0. -1.
         -5    1    4    4    0  502 -0.38677017354E+02  0.31918674637E+02 -0.39886796721E+03  0.40203539487E+03  0.47000000000E+01 0. -1.
<mgrwt>
<rscale>  0 0.99272633E+03</rscale>
<asrwt>0</asrwt>
<pdfrwt beam="1">  1        2 0.31809875E+00 0.99272633E+03</pdfrwt>
<pdfrwt beam="2">  1       -2 0.18332024E-01 0.99272633E+03</pdfrwt>
<totfact> 0.17817886E+02</totfact>
</mgrwt>
</event>
<event>
 9    1  0.4296086E-036  0.1000179E+04  0.7818608E-02  0.8680868E-01
         -2   -1    0    0    0  501 -0.00000000000E+00  0.00000000000E+00  0.47654826033E+03  0.47654826033E+03  0.00000000000E+00 0.  1.
          2   -1    0    0  501    0  0.00000000000E+00 -0.00000000000E+00 -0.52479329051E+03  0.52479329051E+03  0.00000000000E+00 0.  1.
         36    2    1    2    0    0  0.00000000000E+00  0.00000000000E+00 -0.48245030178E+02  0.10013415508E+04  0.10001786433E+04 0.  0.
         25    2    3    3    0    0 -0.31394015583E+02  0.12950563603E+03 -0.58195378069E+02  0.19112723156E+03  0.12403879489E+03 0.  0.
         35    2    3    3    0    0  0.31394015583E+02 -0.12950563603E+03  0.99503478915E+01  0.81021431928E+03  0.79911885209E+03 0.  0.
         22    1    5    5    0    0  0.16674327477E+03 -0.35285146553E+03 -0.23215769419E+03  0.45409764520E+03  0.00000000000E+00 0.  1.
         22    1    5    5    0    0 -0.13534925919E+03  0.22334582950E+03  0.24210804208E+03  0.35611667408E+03  0.00000000000E+00 0.  1.
          5    1    4    4  502    0 -0.74382280396E+02  0.63808715339E+02 -0.54847560387E+02  0.11240382854E+03  0.47000000000E+01 0. -1.
         -5    1    4    4    0  502  0.42988264813E+02  0.65696920688E+02 -0.33478176823E+01  0.78723403018E+02  0.47000000000E+01 0. -1.
<mgrwt>
<rscale>  0 0.10001786E+04</rscale>
<asrwt>0</asrwt>
<pdfrwt beam="1">  1        2 0.80737429E-01 0.10001786E+04</pdfrwt>
<pdfrwt beam="2">  1       -2 0.73315117E-01 0.10001786E+04</pdfrwt>
<totfact> 0.11810530E+02</totfact>
</mgrwt>
</event>
<event>
 9    1  0.4296086E-036  0.9997285E+03  0.7818608E-02  0.8681297E-01
         -2   -1    0    0    0  501 -0.00000000000E+00  0.00000000000E+00  0.15472356607E+03  0.15472356607E+03  0.00000000000E+00 0.  1.
          2   -1    0    0  501    0  0.00000000000E+00 -0.00000000000E+00 -0.16149075401E+04  0.16149075401E+04  0.00000000000E+00 0.  1.
         36    2    1    2    0    0  0.21316282073E-13  0.00000000000E+00 -0.14601839740E+04  0.17696311062E+04  0.99972847010E+03 0.  0.
         25    2    3    3    0    0  0.19877497702E+02 -0.12844483099E+03 -0.17970288397E+03  0.25417421488E+03  0.12417010702E+03 0.  0.
         35    2    3    3    0    0 -0.19877497702E+02  0.12844483099E+03 -0.12804810900E+04  0.15154568913E+04  0.80005285941E+03 0.  0.
         22    1    5    5    0    0 -0.21663962081E+03 -0.27982569418E+03 -0.49285760549E+03  0.60674851769E+03  0.00000000000E+00 0. -1.
         22    1    5    5    0    0  0.19676212311E+03  0.40827052517E+03 -0.78762348455E+03  0.90870837359E+03  0.00000000000E+00 0. -1.
          5    1    4    4  502    0 -0.13802108317E+02 -0.13547375623E+03 -0.10576320760E+03  0.17248647165E+03  0.47000000000E+01 0.  1.
         -5    1    4    4    0  502  0.33679606020E+02  0.70289252356E+01 -0.73939676374E+02  0.81687743229E+02  0.47000000000E+01 0.  1.
<mgrwt>
<rscale>  0 0.99972847E+03</rscale>
<asrwt>0</asrwt>
<pdfrwt beam="1">  1        2 0.24844732E+00 0.99972847E+03</pdfrwt>
<pdfrwt beam="2">  1       -2 0.23803625E-01 0.99972847E+03</pdfrwt>
<totfact> 0.20413373E+02</totfact>
</mgrwt>
</event>
<event>
 9    1  0.4296086E-036  0.9953806E+03  0.7818608E-02  0.8685449E-01
          3   -1    0    0  501    0  0.00000000000E+00  0.00000000000E+00  0.38892467418E+03  0.38892467418E+03  0.00000000000E+00 0.  1.
         -3   -1    0    0    0  501 -0.00000000000E+00 -0.00000000000E+00 -0.63687301818E+03  0.63687301818E+03  0.00000000000E+00 0.  1.
         36    2    1    2    0    0  0.28421709430E-13  0.14210854715E-13 -0.24794834399E+03  0.10257976924E+04  0.99538059272E+03 0.  0.
         25    2    3    3    0    0 -0.49798596597E+02 -0.98455484390E+02  0.30510172211E+02  0.16949706405E+03  0.12500000593E+03 0.  0.
         35    2    3    3    0    0  0.49798596597E+02  0.98455484390E+02 -0.27845851621E+03  0.85630062832E+03  0.80220835085E+03 0.  0.
         22    1    5    5    0    0 -0.33358039238E+03 -0.43487239249E+02  0.39064515498E+02  0.33866363036E+03  0.00000000000E+00 0. -1.
         22    1    5    5    0    0  0.38337898898E+03  0.14194272364E+03 -0.31752303170E+03  0.51763699795E+03  0.00000000000E+00 0. -1.
          5    1    4    4  502    0 -0.32727913394E+02 -0.48000642377E+02  0.78415485287E+02  0.97704945200E+02  0.47000000000E+01 0. -1.
         -5    1    4    4    0  502 -0.17070683203E+02 -0.50454842013E+02 -0.47905313076E+02  0.71792118847E+02  0.47000000000E+01 0. -1.
<mgrwt>
<rscale>  0 0.99538059E+03</rscale>
<asrwt>0</asrwt>
<pdfrwt beam="1">  1        3 0.59834566E-01 0.99538059E+03</pdfrwt>
<pdfrwt beam="2">  1       -3 0.97980464E-01 0.99538059E+03</pdfrwt>
<totfact> 0.93244148E+00</totfact>
</mgrwt>
</event>
<event>
 9    1  0.4296086E-036  0.1001003E+04  0.7818608E-02  0.8680083E-01
         -2   -1    0    0    0  501 -0.00000000000E+00  0.00000000000E+00  0.14759841028E+03  0.14759841028E+03  0.00000000000E+00 0. -1.
          2   -1    0    0  501    0  0.00000000000E+00 -0.00000000000E+00 -0.16971861723E+04  0.16971861723E+04  0.00000000000E+00 0. -1.
         36    2    1    2    0    0  0.21316282073E-13 -0.28421709430E-13 -0.15495877621E+04  0.18447845826E+04  0.10010034585E+04 0.  0.
         25    2    3    3    0    0  0.27255097911E+02 -0.13800343457E+03 -0.28797069542E+03  0.34402899218E+03  0.12506413445E+03 0.  0.
         35    2    3    3    0    0 -0.27255097911E+02  0.13800343457E+03 -0.12616170666E+04  0.15007555904E+04  0.80050105003E+03 0.  0.
         22    1    5    5    0    0 -0.30246093201E+03  0.27102220255E+03 -0.10585516115E+04  0.11337844433E+04  0.00000000000E+00 0.  1.
         22    1    5    5    0    0  0.27520583410E+03 -0.13301876798E+03 -0.20306545512E+03  0.36697114712E+03  0.00000000000E+00 0.  1.
          5    1    4    4  502    0  0.16364125479E+02 -0.69445455207E+02 -0.31224736123E+02  0.78022624908E+02  0.47000000000E+01 0.  1.
         -5    1    4    4    0  502  0.10890972432E+02 -0.68557979365E+02 -0.25674595929E+03  0.26600636727E+03  0.47000000000E+01 0.  1.
<mgrwt>
<rscale>  0 0.10010035E+04</rscale>
<asrwt>0</asrwt>
<pdfrwt beam="1">  1        2 0.26110557E+00 0.10010035E+04</pdfrwt>
<pdfrwt beam="2">  1       -2 0.22707447E-01 0.10010035E+04</pdfrwt>
<totfact> 0.19932249E+02</totfact>
</mgrwt>
</event>
<event>
 9    1  0.4296086E-036  0.9958999E+03  0.7818608E-02  0.8684952E-01
          2   -1    0    0  501    0  0.00000000000E+00  0.00000000000E+00  0.98803604170E+03  0.98803604170E+03  0.00000000000E+00 0. -1.
         -2   -1    0    0    0  501 -0.00000000000E+00 -0.00000000000E+00 -0.25095657239E+03  0.25095657239E+03  0.00000000000E+00 0. -1.
         36    2    1    2    0    0  0.28421709430E-13  0.00000000000E+00  0.73707946931E+03  0.12389926141E+04  0.99589987131E+03 0.  0.
         25    2    3    3    0    0 -0.15371151809E+02  0.11617930901E+03  0.77690735088E+02  0.19553792594E+03  0.13588718120E+03 0.  0.
         35    2    3    3    0    0  0.15371151809E+02 -0.11617930901E+03  0.65938873423E+03  0.10434546881E+04  0.80016890669E+03 0.  0.
         22    1    5    5    0    0 -0.30636506917E+03 -0.28497969813E+03  0.48468202793E+03  0.64030434338E+03  0.00000000000E+00 0. -1.
         22    1    5    5    0    0  0.32173622097E+03  0.16880038913E+03  0.17470670629E+03  0.40315034476E+03  0.00000000000E+00 0. -1.
          5    1    4    4  502    0 -0.18468290992E+02  0.14693883556E+03  0.64473604345E+02  0.16158909253E+03  0.47000000000E+01 0. -1.
         -5    1    4    4    0  502  0.30971391833E+01 -0.30759526555E+02  0.13217130743E+02  0.33948833412E+02  0.47000000000E+01 0. -1.
<mgrwt>
<rscale>  0 0.99589987E+03</rscale>
<asrwt>0</asrwt>
<pdfrwt beam="1">  1        2 0.15200554E+00 0.99589987E+03</pdfrwt>
<pdfrwt beam="2">  1       -2 0.38608704E-01 0.99589987E+03</pdfrwt>
<totfact> 0.19637382E+02</totfact>
</mgrwt>
</event>
<event>
 9    1  0.4296086E-036  0.9999556E+03  0.7818608E-02  0.8681080E-01
          1   -1    0    0  501    0  0.00000000000E+00  0.00000000000E+00  0.31570618161E+03  0.31570618161E+03  0.00000000000E+00 0. -1.
         -1   -1    0    0    0  501 -0.00000000000E+00 -0.00000000000E+00 -0.79180514823E+03  0.79180514823E+03  0.00000000000E+00 0. -1.
         36    2    1    2    0    0  0.21316282073E-13 -0.28421709430E-13 -0.47609896662E+03  0.11075113298E+04  0.99995555886E+03 0.  0.
         25    2    3    3    0    0 -0.39042012378E+01  0.11212563510E+03  0.12859884531E+02  0.16852682648E+03  0.12509401976E+03 0.  0.
         35    2    3    3    0    0  0.39042012378E+01 -0.11212563510E+03 -0.48895885115E+03  0.93898450336E+03  0.79374034708E+03 0.  0.
         22    1    5    5    0    0  0.15373152490E+03  0.22639443661E+03 -0.49849221797E+03  0.56866713819E+03  0.00000000000E+00 0.  1.
         22    1    5    5    0    0 -0.14982732366E+03 -0.33852007170E+03  0.95333668242E+01  0.37031736517E+03  0.00000000000E+00 0.  1.
          5    1    4    4  502    0  0.30747748247E+02  0.13330774888E+02 -0.38967405646E+02  0.51610873701E+02  0.47000000000E+01 0.  1.
         -5    1    4    4    0  502 -0.34651949485E+02  0.98794860208E+02  0.51827290178E+02  0.11691595278E+03  0.47000000000E+01 0.  1.
<mgrwt>
<rscale>  0 0.99995556E+03</rscale>
<asrwt>0</asrwt>
<pdfrwt beam="1">  1        1 0.48570182E-01 0.99995556E+03</pdfrwt>
<pdfrwt beam="2">  1       -1 0.12181618E+00 0.99995556E+03</pdfrwt>
<totfact> 0.58789152E+01</totfact>
</mgrwt>
</event>
<event>
 9    1  0.4296086E-036  0.1001492E+04  0.7818608E-02  0.8679619E-01
         -2   -1    0    0    0  501 -0.00000000000E+00  0.00000000000E+00  0.51156068275E+04  0.51156068275E+04  0.00000000000E+00 0. -1.
          2   -1    0    0  501    0  0.00000000000E+00 -0.00000000000E+00 -0.49015978153E+02  0.49015978153E+02  0.00000000000E+00 0. -1.
         36    2    1    2    0    0  0.00000000000E+00 -0.21316282073E-13  0.50665908493E+04  0.51646228056E+04  0.10014918322E+04 0.  0.
         25    2    3    3    0    0 -0.14124401302E+03 -0.32031580993E+01  0.10924094780E+04  0.11084869965E+04  0.12419670847E+03 0.  0.
         35    2    3    3    0    0  0.14124401302E+03  0.32031580993E+01  0.39741813713E+04  0.40561358091E+04  0.79884917119E+03 0.  0.
         22    1    5    5    0    0  0.59727565189E+02  0.36231311979E+03  0.11288061553E+04  0.11870305451E+04  0.00000000000E+00 0. -1.
         22    1    5    5    0    0  0.81516447835E+02 -0.35910996169E+03  0.28453752160E+04  0.28691052640E+04  0.00000000000E+00 0. -1.
          5    1    4    4  502    0 -0.67738628251E+02  0.20781763568E+02  0.87153366072E+03  0.87442176049E+03  0.47000000000E+01 0. -1.
         -5    1    4    4    0  502 -0.73505384773E+02 -0.23984921668E+02  0.22087581727E+03  0.23406523602E+03  0.47000000000E+01 0. -1.
<mgrwt>
<rscale>  0 0.10014918E+04</rscale>
<asrwt>0</asrwt>
<pdfrwt beam="1">  1        2 0.75409238E-02 0.10014918E+04</pdfrwt>
<pdfrwt beam="2">  1       -2 0.78701601E+00 0.10014918E+04</pdfrwt>
<totfact> 0.30382391E-01</totfact>
</mgrwt>
</event>
<event>
 9    1  0.4296086E-036  0.9994529E+03  0.7818608E-02  0.8681559E-01
          1   -1    0    0  501    0  0.00000000000E+00  0.00000000000E+00  0.27565822865E+03  0.27565822865E+03  0.00000000000E+00 0.  1.
         -1   -1    0    0    0  501 -0.00000000000E+00 -0.00000000000E+00 -0.90592814733E+03  0.90592814733E+03  0.00000000000E+00 0.  1.
         36    2    1    2    0    0  0.14210854715E-13  0.00000000000E+00 -0.63026991868E+03  0.11815863760E+04  0.99945294712E+03 0.  0.
         25    2    3    3    0    0  0.83308871012E+02 -0.10513055073E+03 -0.16679988494E+03  0.24777411087E+03  0.12480788323E+03 0.  0.
         35    2    3    3    0    0 -0.83308871012E+02  0.10513055073E+03 -0.46347003374E+03  0.93381226511E+03  0.79950489280E+03 0.  0.
         22    1    5    5    0    0 -0.11694736568E+03  0.39968997858E+03 -0.42066618055E+02  0.41856703844E+03  0.00000000000E+00 0.  1.
         22    1    5    5    0    0  0.33638494668E+02 -0.29455942785E+03 -0.42140341568E+03  0.51524522667E+03  0.00000000000E+00 0.  1.
          5    1    4    4  502    0  0.34828440650E+02  0.20514524533E+02 -0.11764966958E+02  0.42360009943E+02  0.47000000000E+01 0. -1.
         -5    1    4    4    0  502  0.48480430362E+02 -0.12564507526E+03 -0.15503491798E+03  0.20541410093E+03  0.47000000000E+01 0. -1.
<mgrwt>
<rscale>  0 0.99945295E+03</rscale>
<asrwt>0</asrwt>
<pdfrwt beam="1">  1        1 0.42408958E-01 0.99945295E+03</pdfrwt>
<pdfrwt beam="2">  1       -1 0.13937356E+00 0.99945295E+03</pdfrwt>
<totfact> 0.49373362E+01</totfact>
</mgrwt>
</event>
<event>
 9    1  0.4296086E-036  0.1000004E+04  0.7818608E-02  0.8681035E-01
         -3   -1    0    0    0  501 -0.00000000000E+00  0.00000000000E+00  0.31720238649E+03  0.31720238649E+03  0.00000000000E+00 0. -1.
          3   -1    0    0  501    0  0.00000000000E+00 -0.00000000000E+00 -0.78814599643E+03  0.78814599643E+03  0.00000000000E+00 0. -1.
         36    2    1    2    0    0  0.00000000000E+00  0.00000000000E+00 -0.47094360994E+03  0.11053483829E+04  0.10000035819E+04 0.  0.
         25    2    3    3    0    0  0.26255934100E+02  0.10710475840E+03 -0.18344587632E+03  0.24755070951E+03  0.12437106133E+03 0.  0.
         35    2    3    3    0    0 -0.26255934100E+02 -0.10710475840E+03 -0.28749773362E+03  0.85779767340E+03  0.80062544196E+03 0.  0.
         22    1    5    5    0    0  0.86822230208E+02 -0.31666145330E+03  0.14900037146E+03  0.36057410662E+03  0.00000000000E+00 0. -1.
         22    1    5    5    0    0 -0.11307816431E+03  0.20955669491E+03 -0.43649810509E+03  0.49722356679E+03  0.00000000000E+00 0. -1.
          5    1    4    4  502    0 -0.14352760200E+02 -0.24185845916E+02 -0.27090958214E+02  0.39331499908E+02  0.47000000000E+01 0.  1.
         -5    1    4    4    0  502  0.40608694299E+02  0.13129060431E+03 -0.15635491810E+03  0.20821920960E+03  0.47000000000E+01 0.  1.
<mgrwt>
<rscale>  0 0.10000036E+04</rscale>
<asrwt>0</asrwt>
<pdfrwt beam="1">  1        3 0.12125323E+00 0.10000036E+04</pdfrwt>
<pdfrwt beam="2">  1       -3 0.48800367E-01 0.10000036E+04</pdfrwt>
<totfact> 0.96483794E+00</totfact>
</mgrwt>
</event>
<event>
 9    1  0.4296086E-036  0.1000474E+04  0.7818608E-02  0.8680586E-01
          2   -1    0    0  501    0  0.00000000000E+00  0.00000000000E+00  0.85235758475E+03  0.85235758475E+03  0.00000000000E+00 0. -1.
         -2   -1    0    0    0  501 -0.00000000000E+00 -0.00000000000E+00 -0.29358246238E+03  0.29358246238E+03  0.00000000000E+00 0. -1.
         36    2    1    2    0    0  0.00000000000E+00 -0.24868995752E-13  0.55877512236E+03  0.11459400471E+04  0.10004743646E+04 0.  0.
         25    2    3    3    0    0 -0.51237859047E+02  0.29843150368E+01 -0.41491425907E+02  0.14242769647E+03  0.12621365204E+03 0.  0.
         35    2    3    3    0    0  0.51237859047E+02 -0.29843150368E+01  0.60026654827E+03  0.10035123507E+04  0.80254774600E+03 0.  0.
         22    1    5    5    0    0  0.35997886618E+03  0.22015663730E+03  0.28709045673E+03  0.51036718095E+03  0.00000000000E+00 0.  1.
         22    1    5    5    0    0 -0.30874100714E+03 -0.22314095233E+03  0.31317609154E+03  0.49314516971E+03  0.00000000000E+00 0.  1.
          5    1    4    4  502    0  0.37629146547E+02  0.64405231919E+01 -0.36820062059E+02  0.53246971546E+02  0.47000000000E+01 0. -1.
         -5    1    4    4    0  502 -0.88867005594E+02 -0.34562081550E+01 -0.46713638477E+01  0.89180724926E+02  0.47000000000E+01 0. -1.
<mgrwt>
<rscale>  0 0.10004744E+04</rscale>
<asrwt>0</asrwt>
<pdfrwt beam="1">  1        2 0.13113193E+00 0.10004744E+04</pdfrwt>
<pdfrwt beam="2">  1       -2 0.45166533E-01 0.10004744E+04</pdfrwt>
<totfact> 0.17787099E+02</totfact>
</mgrwt>
</event>
<event>
 9    1  0.4296086E-036  0.9995624E+03  0.7818608E-02  0.8681455E-01
          2   -1    0    0  501    0  0.00000000000E+00  0.00000000000E+00  0.34131933752E+04  0.34131933752E+04  0.00000000000E+00 0. -1.
         -2   -1    0    0    0  501 -0.00000000000E+00 -0.00000000000E+00 -0.73181097186E+02  0.73181097186E+02  0.00000000000E+00 0. -1.
         36    2    1    2    0    0  0.00000000000E+00 -0.21316282073E-13  0.33400122780E+04  0.34863744724E+04  0.99956237646E+03 0.  0.
         25    2    3    3    0    0  0.48797177716E+02 -0.40672253127E+02  0.10557058929E+04  0.10651831968E+04  0.12674744046E+03 0.  0.
         35    2    3    3    0    0 -0.48797177716E+02  0.40672253127E+02  0.22843063851E+04  0.24211912756E+04  0.80004758314E+03 0.  0.
         22    1    5    5    0    0 -0.27776385446E+03 -0.27285319765E+03  0.84406536106E+03  0.92954180113E+03  0.00000000000E+00 0. -1.
         22    1    5    5    0    0  0.22896667674E+03  0.31352545078E+03  0.14402410240E+04  0.14916494745E+04  0.00000000000E+00 0. -1.
          5    1    4    4  502    0  0.64999872566E+02 -0.74061242471E+02  0.61167477571E+03  0.61957902830E+03  0.47000000000E+01 0. -1.
         -5    1    4    4    0  502 -0.16202694849E+02  0.33388989345E+02  0.44403111722E+03  0.44560416851E+03  0.47000000000E+01 0. -1.
<mgrwt>
<rscale>  0 0.99956238E+03</rscale>
<asrwt>0</asrwt>
<pdfrwt beam="1">  1        2 0.52510655E+00 0.99956238E+03</pdfrwt>
<pdfrwt beam="2">  1       -2 0.11258633E-01 0.99956238E+03</pdfrwt>
<totfact> 0.55232349E+01</totfact>
</mgrwt>
</event>
<event>
 9    1  0.4296086E-036  0.1001571E+04  0.7818608E-02  0.8679543E-01
         -2   -1    0    0    0  501 -0.00000000000E+00  0.00000000000E+00  0.22821913338E+03  0.22821913338E+03  0.00000000000E+00 0. -1.
          2   -1    0    0  501    0  0.00000000000E+00 -0.00000000000E+00 -0.10988839210E+04  0.10988839210E+04  0.00000000000E+00 0. -1.
         36    2    1    2    0    0  0.00000000000E+00 -0.56843418861E-13 -0.87066478766E+03  0.13271030544E+04  0.10015714376E+04 0.  0.
         25    2    3    3    0    0 -0.86821771894E+01 -0.13968813611E+03 -0.13211249696E+03  0.22929587883E+03  0.12463840750E+03 0.  0.
         35    2    3    3    0    0  0.86821771894E+01  0.13968813611E+03 -0.73855229070E+03  0.10978071756E+04  0.80008309136E+03 0.  0.
         22    1    5    5    0    0  0.49300990788E+02  0.27334726854E+03 -0.86554300529E+03  0.90901815764E+03  0.00000000000E+00 0. -1.
         22    1    5    5    0    0 -0.40618813599E+02 -0.13365913242E+03  0.12699071460E+03  0.18878901793E+03  0.00000000000E+00 0. -1.
          5    1    4    4  502    0  0.53554195889E+02 -0.31371288494E+02 -0.39555973551E+02  0.73749404626E+02  0.47000000000E+01 0.  1.
         -5    1    4    4    0  502 -0.62236373079E+02 -0.10831684762E+03 -0.92556523411E+02  0.15554647421E+03  0.47000000000E+01 0.  1.
<mgrwt>
<rscale>  0 0.10015714E+04</rscale>
<asrwt>0</asrwt>
<pdfrwt beam="1">  1        2 0.16905906E+00 0.10015714E+04</pdfrwt>
<pdfrwt beam="2">  1       -2 0.35110636E-01 0.10015714E+04</pdfrwt>
<totfact> 0.20054372E+02</totfact>
</mgrwt>
</event>
<event>
 9    1  0.4296086E-036  0.9979150E+03  0.7818608E-02  0.8683026E-01
         -4   -1    0    0    0  501 -0.00000000000E+00  0.00000000000E+00  0.16116447575E+03  0.16116447575E+03  0.00000000000E+00 0.  1.
          4   -1    0    0  501    0  0.00000000000E+00 -0.00000000000E+00 -0.15447486416E+04  0.15447486416E+04  0.00000000000E+00 0.  1.
         36    2    1    2    0    0  0.35527136788E-14  0.00000000000E+00 -0.13835841658E+04  0.17059131173E+04  0.99791503643E+03 0.  0.
         25    2    3    3    0    0 -0.17268740699E+02 -0.12687318955E+03 -0.17783648314E+03  0.25295376103E+03  0.12635179006E+03 0.  0.
         35    2    3    3    0    0  0.17268740699E+02  0.12687318955E+03 -0.12057476827E+04  0.14529593563E+04  0.80054256670E+03 0.  0.
         22    1    5    5    0    0  0.36787557082E+03 -0.39376933289E+02 -0.33270150378E+03  0.49756735131E+03  0.00000000000E+00 0.  1.
         22    1    5    5    0    0 -0.35060683012E+03  0.16625012284E+03 -0.87304617890E+03  0.95539200497E+03  0.00000000000E+00 0.  1.
          5    1    4    4  502    0  0.31586671007E+02 -0.59070216117E+02 -0.13449424836E+02  0.68483466953E+02  0.47000000000E+01 0.  1.
         -5    1    4    4    0  502 -0.48855411706E+02 -0.67802973437E+02 -0.16438705831E+03  0.18447029408E+03  0.47000000000E+01 0.  1.
<mgrwt>
<rscale>  0 0.99791504E+03</rscale>
<asrwt>0</asrwt>
<pdfrwt beam="1">  1        4 0.23765364E+00 0.99791504E+03</pdfrwt>
<pdfrwt beam="2">  1       -4 0.24794535E-01 0.99791504E+03</pdfrwt>
<totfact> 0.19165509E+00</totfact>
</mgrwt>
</event>
<event>
 9    1  0.4296086E-036  0.9994863E+03  0.7818608E-02  0.8681527E-01
         -1   -1    0    0    0  501 -0.00000000000E+00  0.00000000000E+00  0.20520963036E+03  0.20520963036E+03  0.00000000000E+00 0.  1.
          1   -1    0    0  501    0  0.00000000000E+00 -0.00000000000E+00 -0.12170149844E+04  0.12170149844E+04  0.00000000000E+00 0.  1.
         36    2    1    2    0    0  0.14210854715E-13  0.00000000000E+00 -0.10118053541E+04  0.14222246148E+04  0.99948625823E+03 0.  0.
         25    2    3    3    0    0  0.15337958376E+02 -0.13889716194E+03 -0.16791623107E+03  0.25152888928E+03  0.12467255881E+03 0.  0.
         35    2    3    3    0    0 -0.15337958376E+02  0.13889716194E+03 -0.84388912299E+03  0.11706957255E+04  0.79928214996E+03 0.  0.
         22    1    5    5    0    0  0.38820074076E+03  0.10237439482E+03 -0.48323510998E+03  0.62824875914E+03  0.00000000000E+00 0. -1.
         22    1    5    5    0    0 -0.40353869914E+03  0.36522767122E+02 -0.36065401301E+03  0.54244696637E+03  0.00000000000E+00 0. -1.
          5    1    4    4  502    0  0.35651664736E+02 -0.53395632206E+00 -0.42695028647E+01  0.36216639304E+02  0.47000000000E+01 0.  1.
         -5    1    4    4    0  502 -0.20313706360E+02 -0.13836320562E+03 -0.16364672820E+03  0.21531224997E+03  0.47000000000E+01 0.  1.
<mgrwt>
<rscale>  0 0.99948626E+03</rscale>
<asrwt>0</asrwt>
<pdfrwt beam="1">  1        1 0.18723308E+00 0.99948626E+03</pdfrwt>
<pdfrwt beam="2">  1       -1 0.31570712E-01 0.99948626E+03</pdfrwt>
<totfact> 0.10661520E+02</totfact>
</mgrwt>
</event>
<event>
 9    1  0.4296086E-036  0.1003011E+04  0.7818608E-02  0.8678176E-01
         -1   -1    0    0    0  501 -0.00000000000E+00  0.00000000000E+00  0.35537087494E+03  0.35537087494E+03  0.00000000000E+00 0.  1.
          1   -1    0    0  501    0  0.00000000000E+00 -0.00000000000E+00 -0.70773306530E+03  0.70773306530E+03  0.00000000000E+00 0.  1.
         36    2    1    2    0    0 -0.71054273576E-14  0.14210854715E-13 -0.35236219037E+03  0.10631039402E+04  0.10030109045E+04 0.  0.
         25    2    3    3    0    0 -0.25654899182E+02 -0.72524087853E+02  0.55593829747E+02  0.16161503734E+03  0.13080836830E+03 0.  0.
         35    2    3    3    0    0  0.25654899182E+02  0.72524087853E+02 -0.40795602011E+03  0.90148890290E+03  0.80021010400E+03 0.  0.
         22    1    5    5    0    0  0.24907133498E+03 -0.11674586415E+03 -0.51975800906E+03  0.58805995841E+03  0.00000000000E+00 0. -1.
         22    1    5    5    0    0 -0.22341643579E+03  0.18926995200E+03  0.11180198895E+03  0.31342894449E+03  0.00000000000E+00 0. -1.
          5    1    4    4  502    0 -0.59224910942E+02 -0.93545147604E+02  0.32314350461E+02  0.11543219638E+03  0.47000000000E+01 0. -1.
         -5    1    4    4    0  502  0.33570011760E+02  0.21021059751E+02  0.23279479286E+02  0.46182840953E+02  0.47000000000E+01 0. -1.
<mgrwt>
<rscale>  0 0.10030109E+04</rscale>
<asrwt>0</asrwt>
<pdfrwt beam="1">  1        1 0.10888201E+00 0.10030109E+04</pdfrwt>
<pdfrwt beam="2">  1       -1 0.54672443E-01 0.10030109E+04</pdfrwt>
<totfact> 0.10408387E+02</totfact>
</mgrwt>
</event>
<event>
 9    1  0.4296086E-036  0.1000228E+04  0.7818608E-02  0.8680821E-01
          1   -1    0    0  501    0  0.00000000000E+00  0.00000000000E+00  0.77922744038E+03  0.77922744038E+03  0.00000000000E+00 0. -1.
         -1   -1    0    0    0  501 -0.00000000000E+00 -0.00000000000E+00 -0.32097699712E+03  0.32097699712E+03  0.00000000000E+00 0. -1.
         36    2    1    2    0    0  0.00000000000E+00 -0.14210854715E-13  0.45825044326E+03  0.11002044375E+04  0.10002281418E+04 0.  0.
         25    2    3    3    0    0  0.74328371962E+02  0.11113506721E+03  0.35058490859E+02  0.18505201939E+03  0.12304244006E+03 0.  0.
         35    2    3    3    0    0 -0.74328371962E+02 -0.11113506721E+03  0.42319195240E+03  0.91515241811E+03  0.80033543577E+03 0.  0.
         22    1    5    5    0    0  0.19905735423E+03  0.27387428063E+03  0.15864408197E+03  0.37389690639E+03  0.00000000000E+00 0.  1.
         22    1    5    5    0    0 -0.27338572620E+03 -0.38500934784E+03  0.26454787043E+03  0.54125551172E+03  0.00000000000E+00 0.  1.
          5    1    4    4  502    0 -0.18723063182E+02  0.72287152987E+02  0.38304099062E+02  0.84055217488E+02  0.47000000000E+01 0.  1.
         -5    1    4    4    0  502  0.93051435144E+02  0.38847914223E+02 -0.32456082036E+01  0.10099680190E+03  0.47000000000E+01 0.  1.
<mgrwt>
<rscale>  0 0.10002281E+04</rscale>
<asrwt>0</asrwt>
<pdfrwt beam="1">  1        1 0.11988114E+00 0.10002281E+04</pdfrwt>
<pdfrwt beam="2">  1       -1 0.49381077E-01 0.10002281E+04</pdfrwt>
<totfact> 0.10815584E+02</totfact>
</mgrwt>
</event>
<event>
 9    1  0.4296086E-036  0.9996444E+03  0.7818608E-02  0.8681377E-01
         -1   -1    0    0    0  501 -0.00000000000E+00  0.00000000000E+00  0.17402104189E+03  0.17402104189E+03  0.00000000000E+00 0. -1.
          1   -1    0    0  501    0  0.00000000000E+00 -0.00000000000E+00 -0.14355864520E+04  0.14355864520E+04  0.00000000000E+00 0. -1.
         36    2    1    2    0    0  0.00000000000E+00 -0.71054273576E-14 -0.12615654101E+04  0.16096074939E+04  0.99964443700E+03 0.  0.
         25    2    3    3    0    0 -0.54681161432E+02 -0.10581925386E+02 -0.29594341873E+02  0.13990218486E+03  0.12487910033E+03 0.  0.
         35    2    3    3    0    0  0.54681161432E+02  0.10581925386E+02 -0.12319710683E+04  0.14697053091E+04  0.79948669524E+03 0.  0.
         22    1    5    5    0    0 -0.14934715766E+03  0.18216472406E+03 -0.28752946004E+02  0.23730843242E+03  0.00000000000E+00 0.  1.
         22    1    5    5    0    0  0.20402831910E+03 -0.17158279867E+03 -0.12032181223E+04  0.12323968766E+04  0.00000000000E+00 0.  1.
          5    1    4    4  502    0 -0.24360617808E+02 -0.57913181864E+02 -0.49461513625E+02  0.80099361194E+02  0.47000000000E+01 0. -1.
         -5    1    4    4    0  502 -0.30320543625E+02  0.47331256478E+02  0.19867171752E+02  0.59802823670E+02  0.47000000000E+01 0. -1.
<mgrwt>
<rscale>  0 0.99964444E+03</rscale>
<asrwt>0</asrwt>
<pdfrwt beam="1">  1        1 0.22085945E+00 0.99964444E+03</pdfrwt>
<pdfrwt beam="2">  1       -1 0.26772468E-01 0.99964444E+03</pdfrwt>
<totfact> 0.97898527E+01</totfact>
</mgrwt>
</event>
<event>
 9    1  0.4296086E-036  0.9983483E+03  0.7818608E-02  0.8682613E-01
         -2   -1    0    0    0  501 -0.00000000000E+00  0.00000000000E+00  0.27621274269E+03  0.27621274269E+03  0.00000000000E+00 0. -1.
          2   -1    0    0  501    0  0.00000000000E+00 -0.00000000000E+00 -0.90211191842E+03  0.90211191842E+03  0.00000000000E+00 0. -1.
         36    2    1    2    0    0  0.00000000000E+00  0.35527136788E-13 -0.62589917573E+03  0.11783246611E+04  0.99834825026E+03 0.  0.
         25    2    3    3    0    0  0.38843302943E+02 -0.48722777967E+02  0.28632128456E+02  0.14231965722E+03  0.12470916075E+03 0.  0.
         35    2    3    3    0    0 -0.38843302943E+02  0.48722777967E+02 -0.65453130418E+03  0.10360050039E+04  0.80063251786E+03 0.  0.
         22    1    5    5    0    0 -0.25345668700E+02  0.31485764685E+03 -0.69786809684E+03  0.76602716746E+03  0.00000000000E+00 0.  1.
         22    1    5    5    0    0 -0.13497634243E+02 -0.26613486888E+03  0.43336792658E+02  0.26997783643E+03  0.00000000000E+00 0.  1.
          5    1    4    4  502    0 -0.13133271687E+02  0.28304800240E+02 -0.19974434247E+02  0.37345850711E+02  0.47000000000E+01 0. -1.
         -5    1    4    4    0  502  0.51976574630E+02 -0.77027578207E+02  0.48606562703E+02  0.10497380651E+03  0.47000000000E+01 0. -1.
<mgrwt>
<rscale>  0 0.99834825E+03</rscale>
<asrwt>0</asrwt>
<pdfrwt beam="1">  1        2 0.13878645E+00 0.99834825E+03</pdfrwt>
<pdfrwt beam="2">  1       -2 0.42494269E-01 0.99834825E+03</pdfrwt>
<totfact> 0.18557187E+02</totfact>
</mgrwt>
</event>
<event>
 9    1  0.4296086E-036  0.9998964E+03  0.7818608E-02  0.8681137E-01
         -2   -1    0    0    0  501 -0.00000000000E+00  0.00000000000E+00  0.17899185477E+03  0.17899185477E+03  0.00000000000E+00 0. -1.
          2   -1    0    0  501    0  0.00000000000E+00 -0.00000000000E+00 -0.13964222214E+04  0.13964222214E+04  0.00000000000E+00 0. -1.
         36    2    1    2    0    0  0.35527136788E-14  0.00000000000E+00 -0.12174303666E+04  0.15754140762E+04  0.99989640154E+03 0.  0.
         25    2    3    3    0    0 -0.30560866637E+02  0.18256764185E+01 -0.44237059407E+03  0.46055988649E+03  0.12444423203E+03 0.  0.
         35    2    3    3    0    0  0.30560866637E+02 -0.18256764185E+01 -0.77505977258E+03  0.11148541897E+04  0.80077769297E+03 0.  0.
         22    1    5    5    0    0  0.19263756411E+03 -0.40223913136E+02  0.10232072050E+03  0.22180334564E+03  0.00000000000E+00 0.  1.
         22    1    5    5    0    0 -0.16207669747E+03  0.38398236717E+02 -0.87738049308E+03  0.89305084406E+03  0.00000000000E+00 0.  1.
          5    1    4    4  502    0 -0.42733512639E+02  0.44956640045E+02 -0.12107178862E+03  0.13611656985E+03  0.47000000000E+01 0. -1.
         -5    1    4    4    0  502  0.12172646003E+02 -0.43130963626E+02 -0.32129880545E+03  0.32444331664E+03  0.47000000000E+01 0. -1.
<mgrwt>
<rscale>  0 0.99989640E+03</rscale>
<asrwt>0</asrwt>
<pdfrwt beam="1">  1        2 0.21483419E+00 0.99989640E+03</pdfrwt>
<pdfrwt beam="2">  1       -2 0.27537208E-01 0.99989640E+03</pdfrwt>
<totfact> 0.20943999E+02</totfact>
</mgrwt>
</event>
<event>
 9    1  0.4296086E-036  0.1000144E+04  0.7818608E-02  0.8680901E-01
          2   -1    0    0  501    0  0.00000000000E+00  0.00000000000E+00  0.17487586380E+04  0.17487586380E+04  0.00000000000E+00 0.  1.
         -2   -1    0    0    0  501 -0.00000000000E+00 -0.00000000000E+00 -0.14299980973E+03  0.14299980973E+03  0.00000000000E+00 0.  1.
         36    2    1    2    0    0  0.14210854715E-13 -0.14210854715E-13  0.16057588283E+04  0.18917584477E+04  0.10001442946E+04 0.  0.
         25    2    3    3    0    0 -0.11040464525E+02 -0.12389444498E+03  0.17942816604E+03  0.25109658381E+03  0.12402944117E+03 0.  0.
         35    2    3    3    0    0  0.11040464525E+02  0.12389444498E+03  0.14263306622E+04  0.16406618639E+04  0.80117443066E+03 0.  0.
         22    1    5    5    0    0  0.25305235466E+03 -0.12550049909E+03  0.15398246733E+03  0.32170867212E+03  0.00000000000E+00 0. -1.
         22    1    5    5    0    0 -0.24201189014E+03  0.24939494407E+03  0.12723481949E+04  0.13189531918E+04  0.00000000000E+00 0. -1.
          5    1    4    4  502    0 -0.49417408825E+02 -0.24005537049E+02  0.11114719184E+03  0.12407310086E+03  0.47000000000E+01 0. -1.
         -5    1    4    4    0  502  0.38376944300E+02 -0.99888907934E+02  0.68280974199E+02  0.12702348295E+03  0.47000000000E+01 0. -1.
<mgrwt>
<rscale>  0 0.10001443E+04</rscale>
<asrwt>0</asrwt>
<pdfrwt beam="1">  1        2 0.26903978E+00 0.10001443E+04</pdfrwt>
<pdfrwt beam="2">  1       -2 0.21999972E-01 0.10001443E+04</pdfrwt>
<totfact> 0.19705468E+02</totfact>
</mgrwt>
</event>
<event>
 9    1  0.4296086E-036  0.1000412E+04  0.7818608E-02  0.8680646E-01
          2   -1    0    0  501    0  0.00000000000E+00  0.00000000000E+00  0.10712506025E+04  0.10712506025E+04  0.00000000000E+00 0. -1.
         -2   -1    0    0    0  501 -0.00000000000E+00 -0.00000000000E+00 -0.23356449967E+03  0.23356449967E+03  0.00000000000E+00 0. -1.
         36    2    1    2    0    0  0.00000000000E+00 -0.14210854715E-13  0.83768610284E+03  0.13048151022E+04  0.10004121371E+04 0.  0.
         25    2    3    3    0    0 -0.94327444074E+02  0.10179742281E+03  0.98928660361E+02  0.21137060860E+03  0.12502108758E+03 0.  0.
         35    2    3    3    0    0  0.94327444074E+02 -0.10179742281E+03  0.73875744248E+03  0.10934444936E+04  0.79410195801E+03 0.  0.
         22    1    5    5    0    0 -0.28132094881E+03 -0.24756536109E+03  0.50081062594E+03  0.62549289949E+03  0.00000000000E+00 0. -1.
         22    1    5    5    0    0  0.37564839289E+03  0.14576793828E+03  0.23794681654E+03  0.46795159409E+03  0.00000000000E+00 0. -1.
          5    1    4    4  502    0 -0.11963440787E+03  0.10173983435E+03  0.68183099484E+02  0.17127291232E+03  0.47000000000E+01 0.  1.
         -5    1    4    4    0  502  0.25306963793E+02  0.57588459665E-01  0.30745560878E+02  0.40097696275E+02  0.47000000000E+01 0.  1.
<mgrwt>
<rscale>  0 0.10004121E+04</rscale>
<asrwt>0</asrwt>
<pdfrwt beam="1">  1        2 0.16480778E+00 0.10004121E+04</pdfrwt>
<pdfrwt beam="2">  1       -2 0.35933001E-01 0.10004121E+04</pdfrwt>
<totfact> 0.19963711E+02</totfact>
</mgrwt>
</event>
<event>
 9    1  0.4296086E-036  0.1000487E+04  0.7818608E-02  0.8680575E-01
         -2   -1    0    0    0  501 -0.00000000000E+00  0.00000000000E+00  0.14910660706E+04  0.14910660706E+04  0.00000000000E+00 0.  1.
          2   -1    0    0  501    0  0.00000000000E+00 -0.00000000000E+00 -0.16782855390E+03  0.16782855390E+03  0.00000000000E+00 0.  1.
         36    2    1    2    0    0  0.00000000000E+00  0.00000000000E+00  0.13232375167E+04  0.16588946245E+04  0.10004868063E+04 0.  0.
         25    2    3    3    0    0  0.50611853588E+02  0.12940481270E+03  0.20713630681E+03  0.27890185328E+03  0.12479434640E+03 0.  0.
         35    2    3    3    0    0 -0.50611853588E+02 -0.12940481270E+03  0.11161012099E+04  0.13799927712E+04  0.79961926728E+03 0.  0.
         22    1    5    5    0    0 -0.24480720449E+02 -0.92803359874E+02  0.12423093952E+04  0.12460113975E+04  0.00000000000E+00 0. -1.
         22    1    5    5    0    0 -0.26131133139E+02 -0.36601452827E+02 -0.12620818530E+03  0.13398137372E+03  0.00000000000E+00 0. -1.
          5    1    4    4  502    0  0.90907309456E+02  0.76614913804E+02  0.14763206086E+03  0.18960827862E+03  0.47000000000E+01 0.  1.
         -5    1    4    4    0  502 -0.40295455867E+02  0.52789898897E+02  0.59504245952E+02  0.89293574659E+02  0.47000000000E+01 0.  1.
<mgrwt>
<rscale>  0 0.10004868E+04</rscale>
<asrwt>0</asrwt>
<pdfrwt beam="1">  1        2 0.25819778E-01 0.10004868E+04</pdfrwt>
<pdfrwt beam="2">  1       -2 0.22939477E+00 0.10004868E+04</pdfrwt>
<totfact> 0.19598334E+01</totfact>
</mgrwt>
</event>
<event>
 9    1  0.4296086E-036  0.1001151E+04  0.7818608E-02  0.8679943E-01
          1   -1    0    0  501    0  0.00000000000E+00  0.00000000000E+00  0.29254517444E+04  0.29254517444E+04  0.00000000000E+00 0. -1.
         -1   -1    0    0    0  501 -0.00000000000E+00 -0.00000000000E+00 -0.85653654999E+02  0.85653654999E+02  0.00000000000E+00 0. -1.
         36    2    1    2    0    0  0.14210854715E-13  0.28421709430E-13  0.28397980894E+04  0.30111053994E+04  0.10011506069E+04 0.  0.
         25    2    3    3    0    0  0.43830612672E+02  0.26992568586E+02  0.14171911054E+03  0.19590925071E+03  0.12508559812E+03 0.  0.
         35    2    3    3    0    0 -0.43830612672E+02 -0.26992568586E+02  0.26980789789E+04  0.28151961487E+04  0.80190364636E+03 0.  0.
         22    1    5    5    0    0 -0.15764599262E+03 -0.27277696412E+03  0.23649774790E+04  0.23858704926E+04  0.00000000000E+00 0.  1.
         22    1    5    5    0    0  0.11381537995E+03  0.24578439554E+03  0.33310149993E+03  0.42932565619E+03  0.00000000000E+00 0.  1.
          5    1    4    4  502    0  0.65244425137E+02  0.55633443460E+02  0.13379345709E+03  0.15898016921E+03  0.47000000000E+01 0. -1.
         -5    1    4    4    0  502 -0.21413812465E+02 -0.28640874874E+02  0.79256534498E+01  0.36929081500E+02  0.47000000000E+01 0. -1.
<mgrwt>
<rscale>  0 0.10011506E+04</rscale>
<asrwt>0</asrwt>
<pdfrwt beam="1">  1        1 0.45006942E+00 0.10011506E+04</pdfrwt>
<pdfrwt beam="2">  1       -1 0.13177488E-01 0.10011506E+04</pdfrwt>
<totfact> 0.27924954E+01</totfact>
</mgrwt>
</event>
<event>
 9    1  0.4296086E-036  0.1000307E+04  0.7818608E-02  0.8680745E-01
          2   -1    0    0  501    0  0.00000000000E+00  0.00000000000E+00  0.68510627735E+03  0.68510627735E+03  0.00000000000E+00 0. -1.
         -2   -1    0    0    0  501 -0.00000000000E+00 -0.00000000000E+00 -0.36513124160E+03  0.36513124160E+03  0.00000000000E+00 0. -1.
         36    2    1    2    0    0  0.00000000000E+00  0.00000000000E+00  0.31997503575E+03  0.10502375190E+04  0.10003073641E+04 0.  0.
         25    2    3    3    0    0 -0.10604749243E+03 -0.95790573036E+02  0.42842838522E+02  0.19143935047E+03  0.11996504309E+03 0.  0.
         35    2    3    3    0    0  0.10604749243E+03  0.95790573036E+02  0.27713219722E+03  0.85879816848E+03  0.80019381085E+03 0.  0.
         22    1    5    5    0    0 -0.14422430687E+03 -0.23853452515E+03 -0.99951840866E+02  0.29612453609E+03  0.00000000000E+00 0. -1.
         22    1    5    5    0    0  0.25027179930E+03  0.33432509819E+03  0.37708403809E+03  0.56267363239E+03  0.00000000000E+00 0. -1.
          5    1    4    4  502    0 -0.24908885133E+02 -0.27195729040E+02 -0.41489177449E+02  0.55709084376E+02  0.47000000000E+01 0.  1.
         -5    1    4    4    0  502 -0.81138607293E+02 -0.68594843996E+02  0.84332015971E+02  0.13573026609E+03  0.47000000000E+01 0.  1.
<mgrwt>
<rscale>  0 0.10003074E+04</rscale>
<asrwt>0</asrwt>
<pdfrwt beam="1">  1        2 0.10540097E+00 0.10003074E+04</pdfrwt>
<pdfrwt beam="2">  1       -2 0.56174037E-01 0.10003074E+04</pdfrwt>
<totfact> 0.15157555E+02</totfact>
</mgrwt>
</event>
<event>
 9    1  0.4296086E-036  0.1000412E+04  0.7818608E-02  0.8680646E-01
          2   -1    0    0  501    0  0.00000000000E+00  0.00000000000E+00  0.20021297502E+03  0.20021297502E+03  0.00000000000E+00 0.  1.
         -2   -1    0    0    0  501 -0.00000000000E+00 -0.00000000000E+00 -0.12496992431E+04  0.12496992431E+04  0.00000000000E+00 0.  1.
         36    2    1    2    0    0  0.14210854715E-13  0.00000000000E+00 -0.10494862681E+04  0.14499122181E+04  0.10004119218E+04 0.  0.
         25    2    3    3    0    0 -0.11791045375E+03  0.11902051380E+02 -0.84303844570E+02  0.19160950598E+03  0.12474987232E+03 0.  0.
         35    2    3    3    0    0  0.11791045375E+03 -0.11902051380E+02 -0.96518242349E+03  0.12583027121E+04  0.79856375500E+03 0.  0.
         22    1    5    5    0    0  0.36381888060E+03 -0.29269028021E+02 -0.94254071474E+03  0.10107442074E+04  0.00000000000E+00 0.  1.
         22    1    5    5    0    0 -0.24590842686E+03  0.17366976641E+02 -0.22641708745E+02  0.24755850470E+03  0.00000000000E+00 0.  1.
          5    1    4    4  502    0 -0.55413694088E+02 -0.53008173812E+02 -0.61844027599E+02  0.98627165289E+02  0.47000000000E+01 0.  1.
         -5    1    4    4    0  502 -0.62496759660E+02  0.64910225192E+02 -0.22459816971E+02  0.92982340693E+02  0.47000000000E+01 0.  1.
<mgrwt>
<rscale>  0 0.10004119E+04</rscale>
<asrwt>0</asrwt>
<pdfrwt beam="1">  1        2 0.30801996E-01 0.10004119E+04</pdfrwt>
<pdfrwt beam="2">  1       -2 0.19226142E+00 0.10004119E+04</pdfrwt>
<totfact> 0.28307401E+01</totfact>
</mgrwt>
</event>
<event>
 9    1  0.4296086E-036  0.9983694E+03  0.7818608E-02  0.8682592E-01
         -2   -1    0    0    0  501 -0.00000000000E+00  0.00000000000E+00  0.76769394603E+02  0.76769394603E+02  0.00000000000E+00 0.  1.
          2   -1    0    0  501    0  0.00000000000E+00 -0.00000000000E+00 -0.32458943462E+04  0.32458943462E+04  0.00000000000E+00 0.  1.
         36    2    1    2    0    0  0.00000000000E+00  0.00000000000E+00 -0.31691249516E+04  0.33226637408E+04  0.99836935831E+03 0.  0.
         25    2    3    3    0    0  0.13375770409E+03 -0.28754817232E+02 -0.52680127077E+03  0.55848206068E+03  0.12515858058E+03 0.  0.
         35    2    3    3    0    0 -0.13375770409E+03  0.28754817232E+02 -0.26423236808E+04  0.27641816802E+04  0.80006747439E+03 0.  0.
         22    1    5    5    0    0 -0.41854037392E+03 -0.59067453703E+02 -0.87311739523E+03  0.97005102677E+03  0.00000000000E+00 0.  1.
         22    1    5    5    0    0  0.28478266984E+03  0.87822270935E+02 -0.17692062856E+04  0.17941306534E+04  0.00000000000E+00 0.  1.
          5    1    4    4  502    0  0.14555132310E+03 -0.29894261726E+02 -0.52495863317E+03  0.54560288771E+03  0.47000000000E+01 0.  1.
         -5    1    4    4    0  502 -0.11793619008E+02  0.11394444939E+01 -0.18426376068E+01  0.12879172970E+02  0.47000000000E+01 0.  1.
<mgrwt>
<rscale>  0 0.99836936E+03</rscale>
<asrwt>0</asrwt>
<pdfrwt beam="1">  1        2 0.49936837E+00 0.99836936E+03</pdfrwt>
<pdfrwt beam="2">  1       -2 0.11810676E-01 0.99836936E+03</pdfrwt>
<totfact> 0.67451076E+01</totfact>
</mgrwt>
</event>
<event>
 9    1  0.4296086E-036  0.1000359E+04  0.7818608E-02  0.8680696E-01
          2   -1    0    0  501    0  0.00000000000E+00  0.00000000000E+00  0.13275156010E+03  0.13275156010E+03  0.00000000000E+00 0. -1.
         -2   -1    0    0    0  501 -0.00000000000E+00 -0.00000000000E+00 -0.18845710227E+04  0.18845710227E+04  0.00000000000E+00 0. -1.
         36    2    1    2    0    0  0.00000000000E+00  0.00000000000E+00 -0.17518194626E+04  0.20173225828E+04  0.10003594222E+04 0.  0.
         25    2    3    3    0    0  0.96183488759E+02 -0.72806219468E+02 -0.47657944787E+03  0.50731899248E+03  0.12527003193E+03 0.  0.
         35    2    3    3    0    0 -0.96183488759E+02  0.72806219468E+02 -0.12752400148E+04  0.15100035903E+04  0.79957597420E+03 0.  0.
         22    1    5    5    0    0 -0.37708096166E+03  0.24661109521E+03 -0.53529862680E+03  0.69967971514E+03  0.00000000000E+00 0. -1.
         22    1    5    5    0    0  0.28089747290E+03 -0.17380487574E+03 -0.73994138796E+03  0.81032387521E+03  0.00000000000E+00 0. -1.
          5    1    4    4  502    0  0.85282259682E+02  0.64220870675E+01 -0.32220179442E+03  0.33339225148E+03  0.47000000000E+01 0.  1.
         -5    1    4    4    0  502  0.10901229078E+02 -0.79228306535E+02 -0.15437765345E+03  0.17392674100E+03  0.47000000000E+01 0.  1.
<mgrwt>
<rscale>  0 0.10003594E+04</rscale>
<asrwt>0</asrwt>
<pdfrwt beam="1">  1        2 0.20423316E-01 0.10003594E+04</pdfrwt>
<pdfrwt beam="2">  1       -2 0.28993402E+00 0.10003594E+04</pdfrwt>
<totfact> 0.11020894E+01</totfact>
</mgrwt>
</event>
<event>
 9    1  0.4296086E-036  0.9999869E+03  0.7818608E-02  0.8681050E-01
          2   -1    0    0  501    0  0.00000000000E+00  0.00000000000E+00  0.56022342883E+03  0.56022342883E+03  0.00000000000E+00 0. -1.
         -2   -1    0    0    0  501 -0.00000000000E+00 -0.00000000000E+00 -0.44623886144E+03  0.44623886144E+03  0.00000000000E+00 0. -1.
         36    2    1    2    0    0  0.00000000000E+00  0.00000000000E+00  0.11398456739E+03  0.10064622903E+04  0.99998692998E+03 0.  0.
         25    2    3    3    0    0 -0.47955370778E+02  0.12515188848E+03  0.73958947466E+02  0.19749591669E+03  0.12478781359E+03 0.  0.
         35    2    3    3    0    0  0.47955370778E+02 -0.12515188848E+03  0.40025619923E+02  0.80896637359E+03  0.79678217260E+03 0.  0.
         22    1    5    5    0    0  0.41622444568E+03 -0.66952038575E+02  0.94861657481E+02  0.43211583946E+03  0.00000000000E+00 0. -1.
         22    1    5    5    0    0 -0.36826907490E+03 -0.58199849906E+02 -0.54836037558E+02  0.37685053413E+03  0.00000000000E+00 0. -1.
          5    1    4    4  502    0 -0.37349581566E+02  0.10895667625E+03 -0.56672055964E+01  0.11541557851E+03  0.47000000000E+01 0.  1.
         -5    1    4    4    0  502 -0.10605789213E+02  0.16195212228E+02  0.79626153062E+02  0.82080338178E+02  0.47000000000E+01 0.  1.
<mgrwt>
<rscale>  0 0.99998693E+03</rscale>
<asrwt>0</asrwt>
<pdfrwt beam="1">  1        2 0.86188220E-01 0.99998693E+03</pdfrwt>
<pdfrwt beam="2">  1       -2 0.68652132E-01 0.99998693E+03</pdfrwt>
<totfact> 0.12636020E+02</totfact>
</mgrwt>
</event>
<event>
 9    1  0.4296086E-036  0.9996004E+03  0.7818608E-02  0.8681419E-01
         -1   -1    0    0    0  501 -0.00000000000E+00  0.00000000000E+00  0.34600485636E+03  0.34600485636E+03  0.00000000000E+00 0. -1.
          1   -1    0    0  501    0  0.00000000000E+00 -0.00000000000E+00 -0.72195590240E+03  0.72195590240E+03  0.00000000000E+00 0. -1.
         36    2    1    2    0    0 -0.14210854715E-13 -0.35527136788E-13 -0.37595104604E+03  0.10679607588E+04  0.99960041677E+03 0.  0.
         25    2    3    3    0    0 -0.10136411572E+03 -0.15473040357E+01 -0.16730384066E+03  0.23611105682E+03  0.13221489306E+03 0.  0.
         35    2    3    3    0    0  0.10136411572E+03  0.15473040357E+01 -0.20864720538E+03  0.83184970193E+03  0.79885117024E+03 0.  0.
         22    1    5    5    0    0  0.13205440990E+03  0.36185093527E+03 -0.26266813593E+03  0.46622850209E+03  0.00000000000E+00 0. -1.
         22    1    5    5    0    0 -0.30690294177E+02 -0.36030363123E+03  0.54020930547E+02  0.36562119984E+03  0.00000000000E+00 0. -1.
          5    1    4    4  502    0 -0.94357591279E+01  0.54504384881E+02 -0.35667000051E+02  0.65984743799E+02  0.47000000000E+01 0.  1.
         -5    1    4    4    0  502 -0.91928356594E+02 -0.56051688917E+02 -0.13163684061E+03  0.17012631302E+03  0.47000000000E+01 0.  1.
<mgrwt>
<rscale>  0 0.99960042E+03</rscale>
<asrwt>0</asrwt>
<pdfrwt beam="1">  1        1 0.11107014E+00 0.99960042E+03</pdfrwt>
<pdfrwt beam="2">  1       -1 0.53231517E-01 0.99960042E+03</pdfrwt>
<totfact> 0.10614510E+02</totfact>
</mgrwt>
</event>
<event>
 9    1  0.4296086E-036  0.1007130E+04  0.7818608E-02  0.8674277E-01
          1   -1    0    0  501    0  0.00000000000E+00  0.00000000000E+00  0.45438936494E+03  0.45438936494E+03  0.00000000000E+00 0.  1.
         -1   -1    0    0    0  501 -0.00000000000E+00 -0.00000000000E+00 -0.55806309318E+03  0.55806309318E+03  0.00000000000E+00 0.  1.
         36    2    1    2    0    0  0.00000000000E+00 -0.28421709430E-13 -0.10367372824E+03  0.10124524581E+04  0.10071304474E+04 0.  0.
         25    2    3    3    0    0  0.24694211266E+02  0.97343030654E+02  0.88348266033E+02  0.18339398703E+03  0.12546899490E+03 0.  0.
         35    2    3    3    0    0 -0.24694211266E+02 -0.97343030654E+02 -0.19202199428E+03  0.82905847109E+03  0.80023748507E+03 0.  0.
         22    1    5    5    0    0  0.89589171860E+02  0.33938446283E+03 -0.12539312496E+03  0.37273511924E+03  0.00000000000E+00 0.  1.
         22    1    5    5    0    0 -0.11428338313E+03 -0.43672749348E+03 -0.66628869312E+02  0.45632335185E+03  0.00000000000E+00 0.  1.
          5    1    4    4  502    0 -0.41738315999E+02  0.52973745954E+01  0.45024196825E+02  0.61801436066E+02  0.47000000000E+01 0.  1.
         -5    1    4    4    0  502  0.66432527265E+02  0.92045656059E+02  0.43324069207E+02  0.12159255097E+03  0.47000000000E+01 0.  1.
<mgrwt>
<rscale>  0 0.10071304E+04</rscale>
<asrwt>0</asrwt>
<pdfrwt beam="1">  1        1 0.69906056E-01 0.10071304E+04</pdfrwt>
<pdfrwt beam="2">  1       -1 0.85855860E-01 0.10071304E+04</pdfrwt>
<totfact> 0.80273280E+01</totfact>
</mgrwt>
</event>
<event>
 9    1  0.4296086E-036  0.9989998E+03  0.7818608E-02  0.8681991E-01
          1   -1    0    0  501    0  0.00000000000E+00  0.00000000000E+00  0.72775592730E+03  0.72775592730E+03  0.00000000000E+00 0. -1.
         -1   -1    0    0    0  501 -0.00000000000E+00 -0.00000000000E+00 -0.34283495768E+03  0.34283495768E+03  0.00000000000E+00 0. -1.
         36    2    1    2    0    0 -0.71054273576E-14  0.00000000000E+00  0.38492096962E+03  0.10705908850E+04  0.99899984491E+03 0.  0.
         25    2    3    3    0    0  0.49165088311E+02 -0.96156204135E+02 -0.22701959330E+02  0.16729649786E+03  0.12573590473E+03 0.  0.
         35    2    3    3    0    0 -0.49165088311E+02  0.96156204135E+02  0.40762292895E+03  0.90329438711E+03  0.79882480938E+03 0.  0.
         22    1    5    5    0    0  0.13568076721E+02  0.60023650812E+02  0.64868443465E+03  0.65159682866E+03  0.00000000000E+00 0. -1.
         22    1    5    5    0    0 -0.62733165031E+02  0.36132553322E+02 -0.24106150570E+03  0.25169755846E+03  0.00000000000E+00 0. -1.
          5    1    4    4  502    0  0.11597638525E+02 -0.52304605423E+02  0.50614893003E+02  0.73852788448E+02  0.47000000000E+01 0.  1.
         -5    1    4    4    0  502  0.37567449786E+02 -0.43851598712E+02 -0.73316852334E+02  0.93443709414E+02  0.47000000000E+01 0.  1.
<mgrwt>
<rscale>  0 0.99899984E+03</rscale>
<asrwt>0</asrwt>
<pdfrwt beam="1">  1        1 0.11196245E+00 0.99899984E+03</pdfrwt>
<pdfrwt beam="2">  1       -1 0.52743840E-01 0.99899984E+03</pdfrwt>
<totfact> 0.10665534E+02</totfact>
</mgrwt>
</event>
<event>
 9    1  0.4296086E-036  0.1000258E+04  0.7818608E-02  0.8680793E-01
          2   -1    0    0  501    0  0.00000000000E+00  0.00000000000E+00  0.17576605833E+04  0.17576605833E+04  0.00000000000E+00 0.  1.
         -2   -1    0    0    0  501 -0.00000000000E+00 -0.00000000000E+00 -0.14230779541E+03  0.14230779541E+03  0.00000000000E+00 0.  1.
         36    2    1    2    0    0  0.00000000000E+00  0.00000000000E+00  0.16153527879E+04  0.18999683787E+04  0.10002575722E+04 0.  0.
         25    2    3    3    0    0 -0.65303097832E+02  0.10197754983E+03  0.16702734654E+03  0.24175386612E+03  0.12602730670E+03 0.  0.
         35    2    3    3    0    0  0.65303097832E+02 -0.10197754983E+03  0.14483254413E+04  0.16582145126E+04  0.79835134524E+03 0.  0.
         22    1    5    5    0    0  0.22097410777E+02 -0.32992805621E+03  0.19560400651E+03  0.38418972552E+03  0.00000000000E+00 0. -1.
         22    1    5    5    0    0  0.43205687055E+02  0.22795050638E+03  0.12527214348E+04  0.12740247870E+04  0.00000000000E+00 0. -1.
          5    1    4    4  502    0 -0.15719577510E+01  0.15869233343E+02  0.12576388381E+03  0.12685798394E+03  0.47000000000E+01 0.  1.
         -5    1    4    4    0  502 -0.63731140081E+02  0.86108316490E+02  0.41263462732E+02  0.11489588218E+03  0.47000000000E+01 0.  1.
<mgrwt>
<rscale>  0 0.10002576E+04</rscale>
<asrwt>0</asrwt>
<pdfrwt beam="1">  1        2 0.27040931E+00 0.10002576E+04</pdfrwt>
<pdfrwt beam="2">  1       -2 0.21893508E-01 0.10002576E+04</pdfrwt>
<totfact> 0.19644948E+02</totfact>
</mgrwt>
</event>
<event>
 9    1  0.4296086E-036  0.1002383E+04  0.7818608E-02  0.8678772E-01
         -2   -1    0    0    0  501 -0.00000000000E+00  0.00000000000E+00  0.12842523041E+03  0.12842523041E+03  0.00000000000E+00 0. -1.
          2   -1    0    0  501    0  0.00000000000E+00 -0.00000000000E+00 -0.19559465907E+04  0.19559465907E+04  0.00000000000E+00 0. -1.
         36    2    1    2    0    0  0.14210854715E-13  0.28421709430E-13 -0.18275213603E+04  0.20843718212E+04  0.10023829440E+04 0.  0.
         25    2    3    3    0    0 -0.70272774034E+02 -0.12323116226E+03 -0.33436718953E+03  0.38411665867E+03  0.12498003003E+03 0.  0.
         35    2    3    3    0    0  0.70272774034E+02  0.12323116226E+03 -0.14931541708E+04  0.17002551625E+04  0.80077091460E+03 0.  0.
         22    1    5    5    0    0  0.27107132292E+03  0.35243241185E+03 -0.11903163953E+04  0.12706460514E+04  0.00000000000E+00 0.  1.
         22    1    5    5    0    0 -0.20079854889E+03 -0.22920124959E+03 -0.30283777547E+03  0.42960911105E+03  0.00000000000E+00 0.  1.
          5    1    4    4  502    0 -0.49246509286E+02 -0.13303148628E+03 -0.33107976045E+03  0.36022006163E+03  0.47000000000E+01 0.  1.
         -5    1    4    4    0  502 -0.21026264749E+02  0.98003240217E+01 -0.32874290861E+01  0.23896597043E+02  0.47000000000E+01 0.  1.
<mgrwt>
<rscale>  0 0.10023829E+04</rscale>
<asrwt>0</asrwt>
<pdfrwt beam="1">  1        2 0.30091487E+00 0.10023829E+04</pdfrwt>
<pdfrwt beam="2">  1       -2 0.19757727E-01 0.10023829E+04</pdfrwt>
<totfact> 0.18136666E+02</totfact>
</mgrwt>
</event>
<event>
 9    1  0.4296086E-036  0.9999004E+03  0.7818608E-02  0.8681133E-01
         -2   -1    0    0    0  501 -0.00000000000E+00  0.00000000000E+00  0.92253696085E+02  0.92253696085E+02  0.00000000000E+00 0.  1.
          2   -1    0    0  501    0  0.00000000000E+00 -0.00000000000E+00 -0.27093789473E+04  0.27093789473E+04  0.00000000000E+00 0.  1.
         36    2    1    2    0    0  0.14210854715E-13  0.00000000000E+00 -0.26171252512E+04  0.28016326433E+04  0.99990043900E+03 0.  0.
         25    2    3    3    0    0  0.39517931252E+02 -0.65355282846E+02 -0.82333042767E+03  0.83626221485E+03  0.12501407514E+03 0.  0.
         35    2    3    3    0    0 -0.39517931252E+02  0.65355282846E+02 -0.17937948235E+04  0.19653704285E+04  0.79946736798E+03 0.  0.
         22    1    5    5    0    0  0.11020047829E+03  0.15580632511E+03 -0.17796789544E+04  0.17898818221E+04  0.00000000000E+00 0.  1.
         22    1    5    5    0    0 -0.14971840954E+03 -0.90451042264E+02 -0.14115869075E+02  0.17548860636E+03  0.00000000000E+00 0.  1.
          5    1    4    4  502    0  0.25277327806E+02 -0.33603140741E+02 -0.67818581241E+02  0.79934750454E+02  0.47000000000E+01 0. -1.
         -5    1    4    4    0  502  0.14240603445E+02 -0.31752142105E+02 -0.75551184642E+03  0.75632746440E+03  0.47000000000E+01 0. -1.
<mgrwt>
<rscale>  0 0.99990044E+03</rscale>
<asrwt>0</asrwt>
<pdfrwt beam="1">  1        2 0.41682750E+00 0.99990044E+03</pdfrwt>
<pdfrwt beam="2">  1       -2 0.14192878E-01 0.99990044E+03</pdfrwt>
<totfact> 0.11330542E+02</totfact>
</mgrwt>
</event>
<event>
 9    1  0.4296086E-036  0.9999992E+03  0.7818608E-02  0.8681039E-01
          2   -1    0    0  501    0  0.00000000000E+00  0.00000000000E+00  0.29293120982E+04  0.29293120982E+04  0.00000000000E+00 0. -1.
         -2   -1    0    0    0  501 -0.00000000000E+00 -0.00000000000E+00 -0.85344125859E+02  0.85344125859E+02  0.00000000000E+00 0. -1.
         36    2    1    2    0    0 -0.31974423109E-13  0.00000000000E+00  0.28439679723E+04  0.30146562240E+04  0.99999916078E+03 0.  0.
         25    2    3    3    0    0 -0.82762885667E+01  0.12588311387E+03  0.72219542594E+03  0.74374619846E+03  0.12520830307E+03 0.  0.
         35    2    3    3    0    0  0.82762885667E+01 -0.12588311387E+03  0.21217725464E+04  0.22709100256E+04  0.79949893709E+03 0.  0.
         22    1    5    5    0    0  0.36606496851E+03  0.62851887932E+02  0.69650742448E+03  0.78935195784E+03  0.00000000000E+00 0.  1.
         22    1    5    5    0    0 -0.35778867994E+03 -0.18873500180E+03  0.14252651219E+04  0.14815580678E+04  0.00000000000E+00 0.  1.
          5    1    4    4  502    0  0.14890149943E+01  0.47252208819E+02  0.58685275608E+02  0.75505231456E+02  0.47000000000E+01 0. -1.
         -5    1    4    4    0  502 -0.97653035610E+01  0.78630905051E+02  0.66351015034E+03  0.66824096700E+03  0.47000000000E+01 0. -1.
<mgrwt>
<rscale>  0 0.99999916E+03</rscale>
<asrwt>0</asrwt>
<pdfrwt beam="1">  1        2 0.45066332E+00 0.99999916E+03</pdfrwt>
<pdfrwt beam="2">  1       -2 0.13129868E-01 0.99999916E+03</pdfrwt>
<totfact> 0.93068145E+01</totfact>
</mgrwt>
</event>
<event>
 9    1  0.4296086E-036  0.9992702E+03  0.7818608E-02  0.8681733E-01
          2   -1    0    0  501    0  0.00000000000E+00  0.00000000000E+00  0.71494516609E+03  0.71494516609E+03  0.00000000000E+00 0.  1.
         -2   -1    0    0    0  501 -0.00000000000E+00 -0.00000000000E+00 -0.34916698913E+03  0.34916698913E+03  0.00000000000E+00 0.  1.
         36    2    1    2    0    0 -0.10658141036E-13  0.56843418861E-13  0.36577817696E+03  0.10641121552E+04  0.99927023579E+03 0.  0.
         25    2    3    3    0    0  0.19299949491E+02  0.12949493272E+03  0.24578228245E+02  0.18366681105E+03  0.12644359425E+03 0.  0.
         35    2    3    3    0    0 -0.19299949491E+02 -0.12949493272E+03  0.34119994872E+03  0.88044534417E+03  0.80101508938E+03 0.  0.
         22    1    5    5    0    0  0.27184302510E+03  0.21619793152E+03  0.73073578982E+02  0.35493650676E+03  0.00000000000E+00 0. -1.
         22    1    5    5    0    0 -0.29114297459E+03 -0.34569286424E+03  0.26812636974E+03  0.52550883740E+03  0.00000000000E+00 0. -1.
          5    1    4    4  502    0  0.13470517229E+02 -0.24167773726E+02  0.15459700556E+01  0.28107225845E+02  0.47000000000E+01 0. -1.
         -5    1    4    4    0  502  0.58294322618E+01  0.15366270645E+03  0.23032258190E+02  0.15555958521E+03  0.47000000000E+01 0. -1.
<mgrwt>
<rscale>  0 0.99927024E+03</rscale>
<asrwt>0</asrwt>
<pdfrwt beam="1">  1        2 0.10999156E+00 0.99927024E+03</pdfrwt>
<pdfrwt beam="2">  1       -2 0.53717999E-01 0.99927024E+03</pdfrwt>
<totfact> 0.15761233E+02</totfact>
</mgrwt>
</event>
<event>
 9    1  0.4296086E-036  0.9998914E+03  0.7818608E-02  0.8681141E-01
         -1   -1    0    0    0  501 -0.00000000000E+00  0.00000000000E+00  0.89467478110E+03  0.89467478110E+03  0.00000000000E+00 0. -1.
          1   -1    0    0  501    0  0.00000000000E+00 -0.00000000000E+00 -0.27937044217E+03  0.27937044217E+03  0.00000000000E+00 0. -1.
         36    2    1    2    0    0  0.28421709430E-13 -0.17763568394E-13  0.61530433893E+03  0.11740452233E+04  0.99989137249E+03 0.  0.
         25    2    3    3    0    0 -0.13178767329E+03 -0.27178650937E+02  0.73138252527E+02  0.19613341999E+03  0.12252528130E+03 0.  0.
         35    2    3    3    0    0  0.13178767329E+03  0.27178650937E+02  0.54216608640E+03  0.97791180328E+03  0.80265855745E+03 0.  0.
         22    1    5    5    0    0  0.22903442960E+03  0.33303564784E+03  0.74947740111E+02  0.41107989056E+03  0.00000000000E+00 0. -1.
         22    1    5    5    0    0 -0.97246756309E+02 -0.30585699690E+03  0.46721834629E+03  0.56683191272E+03  0.00000000000E+00 0. -1.
          5    1    4    4  502    0 -0.13906727468E+03 -0.52051166116E+02  0.80248614464E+02  0.16885189044E+03  0.47000000000E+01 0.  1.
         -5    1    4    4    0  502  0.72796013940E+01  0.24872515179E+02 -0.71103619375E+01  0.27281529552E+02  0.47000000000E+01 0.  1.
<mgrwt>
<rscale>  0 0.99989137E+03</rscale>
<asrwt>0</asrwt>
<pdfrwt beam="1">  1        1 0.42980069E-01 0.99989137E+03</pdfrwt>
<pdfrwt beam="2">  1       -1 0.13764227E+00 0.99989137E+03</pdfrwt>
<totfact> 0.50200575E+01</totfact>
</mgrwt>
</event>
<event>
 9    1  0.4296086E-036  0.9904807E+03  0.7818608E-02  0.8690156E-01
          1   -1    0    0  501    0  0.00000000000E+00  0.00000000000E+00  0.12323214002E+04  0.12323214002E+04  0.00000000000E+00 0.  1.
         -1   -1    0    0    0  501 -0.00000000000E+00 -0.00000000000E+00 -0.19902518584E+03  0.19902518584E+03  0.00000000000E+00 0.  1.
         36    2    1    2    0    0 -0.14210854715E-13 -0.21316282073E-13  0.10332962144E+04  0.14313465861E+04  0.99048068270E+03 0.  0.
         25    2    3    3    0    0 -0.43868814546E+02 -0.27421291203E+02  0.35528212097E+03  0.38028108511E+03  0.12534719026E+03 0.  0.
         35    2    3    3    0    0  0.43868814546E+02  0.27421291203E+02  0.67801409343E+03  0.10510655010E+04  0.80147312891E+03 0.  0.
         22    1    5    5    0    0  0.24114424484E+03 -0.27388455363E+03  0.11479470586E+03  0.38254557902E+03  0.00000000000E+00 0.  1.
         22    1    5    5    0    0 -0.19727543029E+03  0.30130584483E+03  0.56321938757E+03  0.66851992196E+03  0.00000000000E+00 0.  1.
          5    1    4    4  502    0 -0.29900995828E+02 -0.39159061421E+02  0.37893734801E+02  0.62333993776E+02  0.47000000000E+01 0.  1.
         -5    1    4    4    0  502 -0.13967818718E+02  0.11737770218E+02  0.31738838617E+03  0.31794709133E+03  0.47000000000E+01 0.  1.
<mgrwt>
<rscale>  0 0.99048068E+03</rscale>
<asrwt>0</asrwt>
<pdfrwt beam="1">  1        1 0.18958790E+00 0.99048068E+03</pdfrwt>
<pdfrwt beam="2">  1       -1 0.30619260E-01 0.99048068E+03</pdfrwt>
<totfact> 0.10955515E+02</totfact>
</mgrwt>
</event>
<event>
 9    1  0.4296086E-036  0.9996171E+03  0.7818608E-02  0.8681403E-01
          1   -1    0    0  501    0  0.00000000000E+00  0.00000000000E+00  0.26052873476E+03  0.26052873476E+03  0.00000000000E+00 0.  1.
         -1   -1    0    0    0  501 -0.00000000000E+00 -0.00000000000E+00 -0.95885233912E+03  0.95885233912E+03  0.00000000000E+00 0.  1.
         36    2    1    2    0    0 -0.35527136788E-14 -0.28421709430E-13 -0.69832360436E+03  0.12193810739E+04  0.99961710016E+03 0.  0.
         25    2    3    3    0    0  0.31849735564E+02  0.10027567528E+03 -0.23526653879E+03  0.28899025607E+03  0.13074940583E+03 0.  0.
         35    2    3    3    0    0 -0.31849735564E+02 -0.10027567528E+03 -0.46305706557E+03  0.93039081781E+03  0.80008475250E+03 0.  0.
         22    1    5    5    0    0  0.16917220430E+01  0.30549975779E+03  0.10724634306E+02  0.30569262620E+03  0.00000000000E+00 0. -1.
         22    1    5    5    0    0 -0.33541457607E+02 -0.40577543307E+03 -0.47378169988E+03  0.62469819161E+03  0.00000000000E+00 0. -1.
          5    1    4    4  502    0 -0.29067526246E+02  0.61974792781E+02 -0.36864905059E+02  0.77890354007E+02  0.47000000000E+01 0. -1.
         -5    1    4    4    0  502  0.60917261810E+02  0.38300882496E+02 -0.19840163373E+03  0.21109990207E+03  0.47000000000E+01 0. -1.
<mgrwt>
<rscale>  0 0.99961710E+03</rscale>
<asrwt>0</asrwt>
<pdfrwt beam="1">  1        1 0.40081344E-01 0.99961710E+03</pdfrwt>
<pdfrwt beam="2">  1       -1 0.14751574E+00 0.99961710E+03</pdfrwt>
<totfact> 0.45327398E+01</totfact>
</mgrwt>
</event>
<event>
 9    1  0.4296086E-036  0.1000054E+04  0.7818608E-02  0.8680987E-01
         -2   -1    0    0    0  501 -0.00000000000E+00  0.00000000000E+00  0.10881948973E+03  0.10881948973E+03  0.00000000000E+00 0.  1.
          2   -1    0    0  501    0  0.00000000000E+00 -0.00000000000E+00 -0.22976294595E+04  0.22976294595E+04  0.00000000000E+00 0.  1.
         36    2    1    2    0    0 -0.71054273576E-14  0.28421709430E-13 -0.21888099698E+04  0.24064489493E+04  0.10000537293E+04 0.  0.
         25    2    3    3    0    0 -0.45980036953E+02 -0.12832470234E+03 -0.49141386396E+03  0.52494745338E+03  0.12450240997E+03 0.  0.
         35    2    3    3    0    0  0.45980036953E+02  0.12832470234E+03 -0.16973961058E+04  0.18815014959E+04  0.80019556726E+03 0.  0.
         22    1    5    5    0    0  0.11263940030E+03 -0.17133096599E+03 -0.15056719112E+04  0.15195689647E+04  0.00000000000E+00 0.  1.
         22    1    5    5    0    0 -0.66659363347E+02  0.29965566833E+03 -0.19172419462E+03  0.36193253113E+03  0.00000000000E+00 0.  1.
          5    1    4    4  502    0 -0.47528272252E+01 -0.86081935892E+02 -0.11447049933E+03  0.14338156879E+03  0.47000000000E+01 0. -1.
         -5    1    4    4    0  502 -0.41227209728E+02 -0.42242766451E+02 -0.37694336463E+03  0.38156588459E+03  0.47000000000E+01 0. -1.
<mgrwt>
<rscale>  0 0.10000537E+04</rscale>
<asrwt>0</asrwt>
<pdfrwt beam="1">  1        2 0.35348147E+00 0.10000537E+04</pdfrwt>
<pdfrwt beam="2">  1       -2 0.16741459E-01 0.10000537E+04</pdfrwt>
<totfact> 0.15293105E+02</totfact>
</mgrwt>
</event>
<event>
 9    1  0.4296086E-036  0.1000841E+04  0.7818608E-02  0.8680238E-01
         -1   -1    0    0    0  501 -0.00000000000E+00  0.00000000000E+00  0.97939767252E+03  0.97939767252E+03  0.00000000000E+00 0. -1.
          1   -1    0    0  501    0  0.00000000000E+00 -0.00000000000E+00 -0.25568843514E+03  0.25568843514E+03  0.00000000000E+00 0. -1.
         36    2    1    2    0    0  0.00000000000E+00 -0.14210854715E-13  0.72370923737E+03  0.12350861077E+04  0.10008409629E+04 0.  0.
         25    2    3    3    0    0  0.13279954333E+03  0.43643451075E+02  0.11161542982E+03  0.21818740927E+03  0.12492906732E+03 0.  0.
         35    2    3    3    0    0 -0.13279954333E+03 -0.43643451075E+02  0.61209380755E+03  0.10168986984E+04  0.79992728670E+03 0.  0.
         22    1    5    5    0    0  0.73704238970E+02 -0.32401832212E+03  0.23639252795E+02  0.33313511100E+03  0.00000000000E+00 0.  1.
         22    1    5    5    0    0 -0.20650378230E+03  0.28037487104E+03  0.58845455476E+03  0.68376358738E+03  0.00000000000E+00 0. -1.
          5    1    4    4  502    0  0.26278278224E+02  0.63585853302E+02  0.79108816921E+02  0.10494762294E+03  0.47000000000E+01 0. -1.
         -5    1    4    4    0  502  0.10652126511E+03 -0.19942402227E+02  0.32506612897E+02  0.11323978633E+03  0.47000000000E+01 0. -1.
<mgrwt>
<rscale>  0 0.10008410E+04</rscale>
<asrwt>0</asrwt>
<pdfrwt beam="1">  1        1 0.39336683E-01 0.10008410E+04</pdfrwt>
<pdfrwt beam="2">  1       -1 0.15067656E+00 0.10008410E+04</pdfrwt>
<totfact> 0.43681365E+01</totfact>
</mgrwt>
</event>
<event>
 9    1  0.4296086E-036  0.9995795E+03  0.7818608E-02  0.8681438E-01
          2   -1    0    0  501    0  0.00000000000E+00  0.00000000000E+00  0.10665050425E+04  0.10665050425E+04  0.00000000000E+00 0.  1.
         -2   -1    0    0    0  501 -0.00000000000E+00 -0.00000000000E+00 -0.23421342589E+03  0.23421342589E+03  0.00000000000E+00 0.  1.
         36    2    1    2    0    0  0.00000000000E+00  0.28421709430E-13  0.83229161658E+03  0.13007184684E+04  0.99957951105E+03 0.  0.
         25    2    3    3    0    0 -0.69644675395E+02 -0.66385529480E+02  0.27677341632E+03  0.32342496379E+03  0.13690421429E+03 0.  0.
         35    2    3    3    0    0  0.69644675395E+02  0.66385529480E+02  0.55551820026E+03  0.97729350457E+03  0.79827608251E+03 0.  0.
         22    1    5    5    0    0  0.28325761858E+01  0.42706378690E+03  0.37555294730E+03  0.56871039888E+03  0.00000000000E+00 0. -1.
         22    1    5    5    0    0  0.66812099210E+02 -0.36067825742E+03  0.17996525296E+03  0.40858310568E+03  0.00000000000E+00 0. -1.
          5    1    4    4  502    0  0.32717714784E+02 -0.31221651849E+02  0.31564486251E+02  0.55350223100E+02  0.47000000000E+01 0. -1.
         -5    1    4    4    0  502 -0.10236239018E+03 -0.35163877631E+02  0.24520893007E+03  0.26807474069E+03  0.47000000000E+01 0. -1.
<mgrwt>
<rscale>  0 0.99957951E+03</rscale>
<asrwt>0</asrwt>
<pdfrwt beam="1">  1        2 0.16407770E+00 0.99957951E+03</pdfrwt>
<pdfrwt beam="2">  1       -2 0.36032835E-01 0.99957951E+03</pdfrwt>
<totfact> 0.19993666E+02</totfact>
</mgrwt>
</event>
<event>
 9    1  0.4296086E-036  0.9993875E+03  0.7818608E-02  0.8681621E-01
          2   -1    0    0  501    0  0.00000000000E+00  0.00000000000E+00  0.35743343569E+04  0.35743343569E+04  0.00000000000E+00 0.  1.
         -2   -1    0    0    0  501 -0.00000000000E+00 -0.00000000000E+00 -0.69857432583E+02  0.69857432583E+02  0.00000000000E+00 0.  1.
         36    2    1    2    0    0 -0.42632564146E-13  0.00000000000E+00  0.35044769244E+04  0.36441917895E+04  0.99938745513E+03 0.  0.
         25    2    3    3    0    0 -0.62118381887E+02  0.11916480731E+03  0.79750773834E+03  0.81835687996E+03  0.12502178045E+03 0.  0.
         35    2    3    3    0    0  0.62118381887E+02 -0.11916480731E+03  0.27069691860E+04  0.28258349096E+04  0.79975109717E+03 0.  0.
         22    1    5    5    0    0 -0.32987081287E+03  0.88452619493E+02  0.15397514870E+04  0.15771725526E+04  0.00000000000E+00 0.  1.
         22    1    5    5    0    0  0.39198919475E+03 -0.20761742680E+03  0.11672176990E+04  0.12486623569E+04  0.00000000000E+00 0.  1.
          5    1    4    4  502    0 -0.12248362978E+02  0.13079742202E+03  0.54057300913E+03  0.55632657334E+03  0.47000000000E+01 0. -1.
         -5    1    4    4    0  502 -0.49870018909E+02 -0.11632614708E+02  0.25693472921E+03  0.26203030662E+03  0.47000000000E+01 0. -1.
<mgrwt>
<rscale>  0 0.99938746E+03</rscale>
<asrwt>0</asrwt>
<pdfrwt beam="1">  1        2 0.54989745E+00 0.99938746E+03</pdfrwt>
<pdfrwt beam="2">  1       -2 0.10747300E-01 0.99938746E+03</pdfrwt>
<totfact> 0.45033135E+01</totfact>
</mgrwt>
</event>
<event>
 9    1  0.4296086E-036  0.9995730E+03  0.7818608E-02  0.8681445E-01
         -2   -1    0    0    0  501 -0.00000000000E+00  0.00000000000E+00  0.85564888514E+02  0.85564888514E+02  0.00000000000E+00 0. -1.
          2   -1    0    0  501    0  0.00000000000E+00 -0.00000000000E+00 -0.29192643011E+04  0.29192643011E+04  0.00000000000E+00 0. -1.
         36    2    1    2    0    0 -0.28421709430E-13  0.28421709430E-13 -0.28336994126E+04  0.30048291896E+04  0.99957295774E+03 0.  0.
         25    2    3    3    0    0 -0.62469086481E+02  0.96343861546E+02 -0.77483239827E+03  0.79312957832E+03  0.12451809576E+03 0.  0.
         35    2    3    3    0    0  0.62469086481E+02 -0.96343861546E+02 -0.20588670143E+04  0.22116996113E+04  0.79968572673E+03 0.  0.
         22    1    5    5    0    0  0.27669626135E+03  0.41992839324E+02 -0.22201971307E+03  0.35723517827E+03  0.00000000000E+00 0. -1.
         22    1    5    5    0    0 -0.21422717487E+03 -0.13833670087E+03 -0.18368473012E+04  0.18544644330E+04  0.00000000000E+00 0. -1.
          5    1    4    4  502    0  0.30105584313E+02  0.48952538199E+02 -0.17291579002E+03  0.18227632222E+03  0.47000000000E+01 0.  1.
         -5    1    4    4    0  502 -0.92574670794E+02  0.47391323346E+02 -0.60191660825E+03  0.61085325610E+03  0.47000000000E+01 0.  1.
<mgrwt>
<rscale>  0 0.99957296E+03</rscale>
<asrwt>0</asrwt>
<pdfrwt beam="1">  1        2 0.44911753E+00 0.99957296E+03</pdfrwt>
<pdfrwt beam="2">  1       -2 0.13163831E-01 0.99957296E+03</pdfrwt>
<totfact> 0.94091506E+01</totfact>
</mgrwt>
</event>
<event>
 9    1  0.4296086E-036  0.1005643E+04  0.7818608E-02  0.8675682E-01
          2   -1    0    0  501    0  0.00000000000E+00  0.00000000000E+00  0.49188107737E+03  0.49188107737E+03  0.00000000000E+00 0. -1.
         -2   -1    0    0    0  501 -0.00000000000E+00 -0.00000000000E+00 -0.51400548730E+03  0.51400548730E+03  0.00000000000E+00 0. -1.
         36    2    1    2    0    0 -0.14210854715E-13  0.00000000000E+00 -0.22124409931E+02  0.10058865647E+04  0.10056432228E+04 0.  0.
         25    2    3    3    0    0  0.56960416390E+02 -0.10586986090E+03  0.82896987955E+02  0.19246822766E+03  0.12537620015E+03 0.  0.
         35    2    3    3    0    0 -0.56960416390E+02  0.10586986090E+03 -0.10502139789E+03  0.81341833702E+03  0.79760076511E+03 0.  0.
         22    1    5    5    0    0 -0.25131011142E+03  0.38811810240E+03 -0.85161738387E+02  0.47015418237E+03  0.00000000000E+00 0. -1.
         22    1    5    5    0    0  0.19434969503E+03 -0.28224824150E+03 -0.19859659498E+02  0.34326415465E+03  0.00000000000E+00 0. -1.
          5    1    4    4  502    0 -0.13101688398E+02 -0.17492461121E+02 -0.26915113175E+02  0.34987908657E+02  0.47000000000E+01 0.  1.
         -5    1    4    4    0  502  0.70062104788E+02 -0.88377399781E+02  0.10981210113E+03  0.15748031900E+03  0.47000000000E+01 0.  1.
<mgrwt>
<rscale>  0 0.10056432E+04</rscale>
<asrwt>0</asrwt>
<pdfrwt beam="1">  1        2 0.75674012E-01 0.10056432E+04</pdfrwt>
<pdfrwt beam="2">  1       -2 0.79077767E-01 0.10056432E+04</pdfrwt>
<totfact> 0.10734796E+02</totfact>
</mgrwt>
</event>
<event>
 9    1  0.4296086E-036  0.1000726E+04  0.7818608E-02  0.8680347E-01
          1   -1    0    0  501    0  0.00000000000E+00  0.00000000000E+00  0.11352891233E+04  0.11352891233E+04  0.00000000000E+00 0.  1.
         -1   -1    0    0    0  501 -0.00000000000E+00 -0.00000000000E+00 -0.22052805964E+03  0.22052805964E+03  0.00000000000E+00 0.  1.
         36    2    1    2    0    0 -0.21316282073E-13  0.00000000000E+00  0.91476106363E+03  0.13558171829E+04  0.10007259515E+04 0.  0.
         25    2    3    3    0    0  0.62357569787E+02 -0.94452853513E+02  0.28135838309E+03  0.32814380095E+03  0.12532360640E+03 0.  0.
         35    2    3    3    0    0 -0.62357569787E+02  0.94452853513E+02  0.63340268055E+03  0.10276733820E+04  0.80131380635E+03 0.  0.
         22    1    5    5    0    0 -0.23159335801E+03  0.16247952570E+03 -0.77838001483E+02  0.29341750837E+03  0.00000000000E+00 0.  1.
         22    1    5    5    0    0  0.16923578822E+03 -0.68026672183E+02  0.71124068203E+03  0.73425587360E+03  0.00000000000E+00 0.  1.
          5    1    4    4  502    0  0.88690765879E+02 -0.72255780464E+02  0.13173992939E+03  0.17454067938E+03  0.47000000000E+01 0.  1.
         -5    1    4    4    0  502 -0.26333196092E+02 -0.22197073049E+02  0.14961845370E+03  0.15360312157E+03  0.47000000000E+01 0.  1.
<mgrwt>
<rscale>  0 0.10007260E+04</rscale>
<asrwt>0</asrwt>
<pdfrwt beam="1">  1        1 0.17465986E+00 0.10007260E+04</pdfrwt>
<pdfrwt beam="2">  1       -1 0.33927394E-01 0.10007260E+04</pdfrwt>
<totfact> 0.10842375E+02</totfact>
</mgrwt>
</event>
<event>
 9    1  0.4296086E-036  0.1000562E+04  0.7818608E-02  0.8680503E-01
         -1   -1    0    0    0  501 -0.00000000000E+00  0.00000000000E+00  0.10326246837E+04  0.10326246837E+04  0.00000000000E+00 0.  1.
          1   -1    0    0  501    0  0.00000000000E+00 -0.00000000000E+00 -0.24237348491E+03  0.24237348491E+03  0.00000000000E+00 0.  1.
         36    2    1    2    0    0 -0.14210854715E-13  0.71054273576E-14  0.79025119876E+03  0.12749981686E+04  0.10005615287E+04 0.  0.
         25    2    3    3    0    0  0.51535683303E+02 -0.49339746101E+02  0.31363650707E+03  0.34322166630E+03  0.11976191571E+03 0.  0.
         35    2    3    3    0    0 -0.51535683303E+02  0.49339746101E+02  0.47661469169E+03  0.93177650228E+03  0.79746821169E+03 0.  0.
         22    1    5    5    0    0  0.21240346054E+03 -0.60530698708E+02  0.58556062866E+03  0.62582780809E+03  0.00000000000E+00 0. -1.
         22    1    5    5    0    0 -0.26393914384E+03  0.10987044481E+03 -0.10894593697E+03  0.30594869419E+03  0.00000000000E+00 0. -1.
          5    1    4    4  502    0  0.32873174372E+02 -0.76355089609E+02  0.11581846636E+03  0.14264204308E+03  0.47000000000E+01 0.  1.
         -5    1    4    4    0  502  0.18662508930E+02  0.27015343508E+02  0.19781804070E+03  0.20057962322E+03  0.47000000000E+01 0.  1.
<mgrwt>
<rscale>  0 0.10005615E+04</rscale>
<asrwt>0</asrwt>
<pdfrwt beam="1">  1        1 0.37288229E-01 0.10005615E+04</pdfrwt>
<pdfrwt beam="2">  1       -1 0.15886533E+00 0.10005615E+04</pdfrwt>
<totfact> 0.39981916E+01</totfact>
</mgrwt>
</event>
<event>
 9    1  0.4296086E-036  0.1000234E+04  0.7818608E-02  0.8680815E-01
          1   -1    0    0  501    0  0.00000000000E+00  0.00000000000E+00  0.15786311451E+04  0.15786311451E+04  0.00000000000E+00 0. -1.
         -1   -1    0    0    0  501 -0.00000000000E+00 -0.00000000000E+00 -0.15843914572E+03  0.15843914572E+03  0.00000000000E+00 0. -1.
         36    2    1    2    0    0 -0.14210854715E-13  0.00000000000E+00  0.14201919994E+04  0.17370702908E+04  0.10002339127E+04 0.  0.
         25    2    3    3    0    0 -0.43038147867E+02 -0.28984467810E+02  0.49446131606E+03  0.51274786229E+03  0.12540333194E+03 0.  0.
         35    2    3    3    0    0  0.43038147867E+02  0.28984467810E+02  0.92573068332E+03  0.12243224285E+04  0.79955970973E+03 0.  0.
         22    1    5    5    0    0 -0.11345274753E+03  0.19732575377E+03 -0.40447514098E+02  0.23118170433E+03  0.00000000000E+00 0.  1.
         22    1    5    5    0    0  0.15649089539E+03 -0.16834128596E+03  0.96617819741E+03  0.99314072420E+03  0.00000000000E+00 0.  1.
          5    1    4    4  502    0  0.41960874936E+02  0.45778001953E+01  0.12091566169E+03  0.12815755351E+03  0.47000000000E+01 0.  1.
         -5    1    4    4    0  502 -0.84999022803E+02 -0.33562268006E+02  0.37354565437E+03  0.38459030878E+03  0.47000000000E+01 0.  1.
<mgrwt>
<rscale>  0 0.10002339E+04</rscale>
<asrwt>0</asrwt>
<pdfrwt beam="1">  1        1 0.24286632E+00 0.10002339E+04</pdfrwt>
<pdfrwt beam="2">  1       -1 0.24375254E-01 0.10002339E+04</pdfrwt>
<totfact> 0.90668958E+01</totfact>
</mgrwt>
</event>
<event>
 9    1  0.4296086E-036  0.1001126E+04  0.7818608E-02  0.8679966E-01
         -2   -1    0    0    0  501 -0.00000000000E+00  0.00000000000E+00  0.29632325379E+03  0.29632325379E+03  0.00000000000E+00 0. -1.
          2   -1    0    0  501    0  0.00000000000E+00 -0.00000000000E+00 -0.84557434026E+03  0.84557434026E+03  0.00000000000E+00 0. -1.
         36    2    1    2    0    0 -0.14210854715E-13 -0.28421709430E-13 -0.54925108647E+03  0.11418975940E+04  0.10011260457E+04 0.  0.
         25    2    3    3    0    0  0.94444926898E+02  0.10949501257E+03 -0.96370836396E+02  0.21390931314E+03  0.12474315270E+03 0.  0.
         35    2    3    3    0    0 -0.94444926898E+02 -0.10949501257E+03 -0.45288025007E+03  0.92798828091E+03  0.79696469596E+03 0.  0.
         22    1    5    5    0    0  0.13137984502E+03 -0.13258429389E+03 -0.61910719754E+03  0.64663202883E+03  0.00000000000E+00 0.  1.
         22    1    5    5    0    0 -0.22582477191E+03  0.23089281312E+02  0.16622694747E+03  0.28135625208E+03  0.00000000000E+00 0.  1.
          5    1    4    4  502    0 -0.26586877563E+02  0.46732286453E+02 -0.34969568509E+02  0.64309636738E+02  0.47000000000E+01 0.  1.
         -5    1    4    4    0  502  0.12103180446E+03  0.62762726121E+02 -0.61401267886E+02  0.14959967640E+03  0.47000000000E+01 0.  1.
<mgrwt>
<rscale>  0 0.10011260E+04</rscale>
<asrwt>0</asrwt>
<pdfrwt beam="1">  1        2 0.13008836E+00 0.10011260E+04</pdfrwt>
<pdfrwt beam="2">  1       -2 0.45588194E-01 0.10011260E+04</pdfrwt>
<totfact> 0.17651709E+02</totfact>
</mgrwt>
</event>
<event>
 9    1  0.4296086E-036  0.9997757E+03  0.7818608E-02  0.8681252E-01
          2   -1    0    0  501    0  0.00000000000E+00  0.00000000000E+00  0.49203687501E+03  0.49203687501E+03  0.00000000000E+00 0.  1.
         -2   -1    0    0    0  501 -0.00000000000E+00 -0.00000000000E+00 -0.50786407581E+03  0.50786407581E+03  0.00000000000E+00 0.  1.
         36    2    1    2    0    0  0.00000000000E+00 -0.14210854715E-13 -0.15827200801E+02  0.99990095081E+03  0.99977568042E+03 0.  0.
         25    2    3    3    0    0 -0.11970102430E+03 -0.14024349877E+02 -0.52432657391E+02  0.18805519073E+03  0.13450112858E+03 0.  0.
         35    2    3    3    0    0  0.11970102430E+03  0.14024349877E+02  0.36605456590E+02  0.81184576009E+03  0.80201531227E+03 0.  0.
         22    1    5    5    0    0  0.32158434939E+03  0.29733061112E+03  0.11998906491E+03  0.45411382029E+03  0.00000000000E+00 0.  1.
         22    1    5    5    0    0 -0.20188332509E+03 -0.28330626125E+03 -0.83383608324E+02  0.35773193979E+03  0.00000000000E+00 0.  1.
          5    1    4    4  502    0 -0.30353584504E+02  0.56464230568E+02 -0.33853387201E+02  0.72647720205E+02  0.47000000000E+01 0.  1.
         -5    1    4    4    0  502 -0.89347439798E+02 -0.70488580446E+02 -0.18579270190E+02  0.11540747052E+03  0.47000000000E+01 0.  1.
<mgrwt>
<rscale>  0 0.99977568E+03</rscale>
<asrwt>0</asrwt>
<pdfrwt beam="1">  1        2 0.75697981E-01 0.99977568E+03</pdfrwt>
<pdfrwt beam="2">  1       -2 0.78132935E-01 0.99977568E+03</pdfrwt>
<totfact> 0.11031007E+02</totfact>
</mgrwt>
</event>
<event>
 9    1  0.4296086E-036  0.1000201E+04  0.7818608E-02  0.8680847E-01
          2   -1    0    0  501    0  0.00000000000E+00  0.00000000000E+00  0.17173391605E+04  0.17173391605E+04  0.00000000000E+00 0. -1.
         -2   -1    0    0    0  501 -0.00000000000E+00 -0.00000000000E+00 -0.14563257263E+03  0.14563257263E+03  0.00000000000E+00 0. -1.
         36    2    1    2    0    0  0.00000000000E+00  0.28421709430E-13  0.15717065878E+04  0.18629717331E+04  0.10002010198E+04 0.  0.
         25    2    3    3    0    0 -0.13258757792E+03  0.12778882544E+02  0.38195237291E+03  0.42312761558E+03  0.12412331868E+03 0.  0.
         35    2    3    3    0    0  0.13258757792E+03 -0.12778882544E+02  0.11897542149E+04  0.14398441175E+04  0.79993326293E+03 0.  0.
         22    1    5    5    0    0 -0.44426951379E+02  0.36215189961E+03  0.75801375696E+03  0.84125656499E+03  0.00000000000E+00 0.  1.
         22    1    5    5    0    0  0.17701452930E+03 -0.37493078215E+03  0.43174045798E+03  0.59858755254E+03  0.00000000000E+00 0.  1.
          5    1    4    4  502    0 -0.34973383348E+01 -0.40505779519E+02  0.11019632782E+03  0.11755113872E+03  0.47000000000E+01 0.  1.
         -5    1    4    4    0  502 -0.12909023959E+03  0.53284662063E+02  0.27175604509E+03  0.30557647686E+03  0.47000000000E+01 0.  1.
<mgrwt>
<rscale>  0 0.10002010E+04</rscale>
<asrwt>0</asrwt>
<pdfrwt beam="1">  1        2 0.26420601E+00 0.10002010E+04</pdfrwt>
<pdfrwt beam="2">  1       -2 0.22405012E-01 0.10002010E+04</pdfrwt>
<totfact> 0.19879920E+02</totfact>
</mgrwt>
</event>
<event>
 9    1  0.4296086E-036  0.9997097E+03  0.7818608E-02  0.8681314E-01
         -1   -1    0    0    0  501 -0.00000000000E+00  0.00000000000E+00  0.25867836086E+03  0.25867836086E+03  0.00000000000E+00 0. -1.
          1   -1    0    0  501    0  0.00000000000E+00 -0.00000000000E+00 -0.96589004652E+03  0.96589004652E+03  0.00000000000E+00 0. -1.
         36    2    1    2    0    0  0.17763568394E-13  0.56843418861E-13 -0.70721168566E+03  0.12245684074E+04  0.99970966586E+03 0.  0.
         25    2    3    3    0    0  0.51946083504E+01 -0.14052676959E+03 -0.14026932093E+03  0.23459769296E+03  0.12484325460E+03 0.  0.
         35    2    3    3    0    0 -0.51946083504E+01  0.14052676959E+03 -0.56694236473E+03  0.98997071441E+03  0.79927693170E+03 0.  0.
         22    1    5    5    0    0  0.17704273476E+03  0.40229571964E+03 -0.14873365521E+03  0.46401258191E+03  0.00000000000E+00 0. -1.
         22    1    5    5    0    0 -0.18223734311E+03 -0.26176895005E+03 -0.41820870952E+03  0.52595813251E+03  0.00000000000E+00 0. -1.
          5    1    4    4  502    0  0.10964538557E+02 -0.14557314341E+03 -0.15772179343E+03  0.21496514906E+03  0.47000000000E+01 0. -1.
         -5    1    4    4    0  502 -0.57699302062E+01  0.50463738200E+01  0.17452472503E+02  0.19632543895E+02  0.47000000000E+01 0. -1.
<mgrwt>
<rscale>  0 0.99970967E+03</rscale>
<asrwt>0</asrwt>
<pdfrwt beam="1">  1        1 0.14859847E+00 0.99970967E+03</pdfrwt>
<pdfrwt beam="2">  1       -1 0.39796670E-01 0.99970967E+03</pdfrwt>
<totfact> 0.11107886E+02</totfact>
</mgrwt>
</event>
<event>
 9    1  0.4296086E-036  0.9995443E+03  0.7818608E-02  0.8681472E-01
         -2   -1    0    0    0  501 -0.00000000000E+00  0.00000000000E+00  0.13184346763E+03  0.13184346763E+03  0.00000000000E+00 0. -1.
          2   -1    0    0  501    0  0.00000000000E+00 -0.00000000000E+00 -0.18944602590E+04  0.18944602590E+04  0.00000000000E+00 0. -1.
         36    2    1    2    0    0 -0.14210854715E-13  0.00000000000E+00 -0.17626167914E+04  0.20263037267E+04  0.99954431587E+03 0.  0.
         25    2    3    3    0    0 -0.89787714690E+02 -0.75400168493E+02 -0.17831048324E+03  0.24762389297E+03  0.12560232809E+03 0.  0.
         35    2    3    3    0    0  0.89787714690E+02  0.75400168493E+02 -0.15843063082E+04  0.17786798337E+04  0.79995528224E+03 0.  0.
         22    1    5    5    0    0  0.21903552257E+03  0.27768088613E+02 -0.16211309994E+04  0.16360969849E+04  0.00000000000E+00 0.  1.
         22    1    5    5    0    0 -0.12924780788E+03  0.47632079879E+02  0.36824691242E+02  0.14258284876E+03  0.00000000000E+00 0.  1.
          5    1    4    4  502    0 -0.78236797940E+02 -0.87275988716E+02 -0.19242303028E+03  0.22535928501E+03  0.47000000000E+01 0.  1.
         -5    1    4    4    0  502 -0.11550916749E+02  0.11875820224E+02  0.14112547042E+02  0.22264607963E+02  0.47000000000E+01 0.  1.
<mgrwt>
<rscale>  0 0.99954432E+03</rscale>
<asrwt>0</asrwt>
<pdfrwt beam="1">  1        2 0.29145542E+00 0.99954432E+03</pdfrwt>
<pdfrwt beam="2">  1       -2 0.20283611E-01 0.99954432E+03</pdfrwt>
<totfact> 0.18780369E+02</totfact>
</mgrwt>
</event>
<event>
 9    1  0.4296086E-036  0.9998373E+03  0.7818608E-02  0.8681193E-01
          2   -1    0    0  501    0  0.00000000000E+00  0.00000000000E+00  0.13467552156E+04  0.13467552156E+04  0.00000000000E+00 0.  1.
         -2   -1    0    0    0  501 -0.00000000000E+00 -0.00000000000E+00 -0.18557097084E+03  0.18557097084E+03  0.00000000000E+00 0.  1.
         36    2    1    2    0    0 -0.14210854715E-13  0.00000000000E+00  0.11611842447E+04  0.15323261864E+04  0.99983733246E+03 0.  0.
         25    2    3    3    0    0  0.11463809512E+03  0.78478819065E+02  0.19792399611E+03  0.27209342632E+03  0.12474015599E+03 0.  0.
         35    2    3    3    0    0 -0.11463809512E+03 -0.78478819065E+02  0.96326024864E+03  0.12602327601E+04  0.80063442667E+03 0.  0.
         22    1    5    5    0    0 -0.35153529150E+02  0.11324224324E+03  0.10341423401E+04  0.10409178430E+04  0.00000000000E+00 0. -1.
         22    1    5    5    0    0 -0.79484565966E+02 -0.19172106231E+03 -0.70882091503E+02  0.21931491708E+03  0.00000000000E+00 0. -1.
          5    1    4    4  502    0  0.95065201926E+02  0.41645245761E+02  0.44484726740E+02  0.11301637061E+03  0.47000000000E+01 0. -1.
         -5    1    4    4    0  502  0.19572893189E+02  0.36833573304E+02  0.15343926937E+03  0.15907705571E+03  0.47000000000E+01 0. -1.
<mgrwt>
<rscale>  0 0.99983733E+03</rscale>
<asrwt>0</asrwt>
<pdfrwt beam="1">  1        2 0.20719310E+00 0.99983733E+03</pdfrwt>
<pdfrwt beam="2">  1       -2 0.28549381E-01 0.99983733E+03</pdfrwt>
<totfact> 0.20953020E+02</totfact>
</mgrwt>
</event>
<event>
 9    1  0.4296086E-036  0.9984021E+03  0.7818608E-02  0.8682561E-01
          2   -1    0    0  501    0  0.00000000000E+00  0.00000000000E+00  0.33969122287E+04  0.33969122287E+04  0.00000000000E+00 0.  1.
         -2   -1    0    0    0  501 -0.00000000000E+00 -0.00000000000E+00 -0.73361241817E+02  0.73361241817E+02  0.00000000000E+00 0.  1.
         36    2    1    2    0    0  0.00000000000E+00  0.00000000000E+00  0.33235509869E+04  0.34702734705E+04  0.99840212227E+03 0.  0.
         25    2    3    3    0    0  0.10841360304E+03 -0.46195723287E+02  0.88199162289E+03  0.89848139876E+03  0.12438668298E+03 0.  0.
         35    2    3    3    0    0 -0.10841360304E+03  0.46195723287E+02  0.24415593640E+04  0.25717920717E+04  0.79938399924E+03 0.  0.
         22    1    5    5    0    0  0.17973724401E+03 -0.17169655644E+03  0.25690828118E+03  0.35747314489E+03  0.00000000000E+00 0. -1.
         22    1    5    5    0    0 -0.28815084705E+03  0.21789227972E+03  0.21846510828E+04  0.22143189269E+04  0.00000000000E+00 0. -1.
          5    1    4    4  502    0  0.10641823300E+03  0.49017864416E+01  0.73679219054E+03  0.74446872994E+03  0.47000000000E+01 0.  1.
         -5    1    4    4    0  502  0.19953700376E+01 -0.51097509729E+02  0.14519943235E+03  0.15401266882E+03  0.47000000000E+01 0.  1.
<mgrwt>
<rscale>  0 0.99840212E+03</rscale>
<asrwt>0</asrwt>
<pdfrwt beam="1">  1        2 0.52260176E+00 0.99840212E+03</pdfrwt>
<pdfrwt beam="2">  1       -2 0.11286348E-01 0.99840212E+03</pdfrwt>
<totfact> 0.56554540E+01</totfact>
</mgrwt>
</event>
<event>
 9    1  0.4296086E-036  0.9994747E+03  0.7818608E-02  0.8681538E-01
          2   -1    0    0  501    0  0.00000000000E+00  0.00000000000E+00  0.19595427547E+04  0.19595427547E+04  0.00000000000E+00 0.  1.
         -2   -1    0    0    0  501 -0.00000000000E+00 -0.00000000000E+00 -0.12744677132E+03  0.12744677132E+03  0.00000000000E+00 0.  1.
         36    2    1    2    0    0  0.00000000000E+00 -0.14210854715E-13  0.18320959833E+04  0.20869895260E+04  0.99947465670E+03 0.  0.
         25    2    3    3    0    0 -0.48160168963E+02 -0.12511426155E+03  0.43937372174E+03  0.47609297871E+03  0.12506908769E+03 0.  0.
         35    2    3    3    0    0  0.48160168963E+02  0.12511426155E+03  0.13927222616E+04  0.16108965473E+04  0.79833539804E+03 0.  0.
         22    1    5    5    0    0  0.36538237699E+03 -0.76254995521E+02  0.38881020426E+03  0.53897354359E+03  0.00000000000E+00 0.  1.
         22    1    5    5    0    0 -0.31722220803E+03  0.20136925707E+03  0.10039120573E+04  0.10719230037E+04  0.00000000000E+00 0.  1.
          5    1    4    4  502    0 -0.62202060194E+02 -0.98967829751E+02  0.42842821959E+03  0.44411322538E+03  0.47000000000E+01 0. -1.
         -5    1    4    4    0  502  0.14041891231E+02 -0.26146431803E+02  0.10945502154E+02  0.31979753326E+02  0.47000000000E+01 0. -1.
<mgrwt>
<rscale>  0 0.99947466E+03</rscale>
<asrwt>0</asrwt>
<pdfrwt beam="1">  1        2 0.30146809E+00 0.99947466E+03</pdfrwt>
<pdfrwt beam="2">  1       -2 0.19607197E-01 0.99947466E+03</pdfrwt>
<totfact> 0.18291892E+02</totfact>
</mgrwt>
</event>
<event>
 9    1  0.4296086E-036  0.1004169E+04  0.7818608E-02  0.8677078E-01
         -1   -1    0    0    0  501 -0.00000000000E+00  0.00000000000E+00  0.73727662642E+03  0.73727662642E+03  0.00000000000E+00 0. -1.
          1   -1    0    0  501    0  0.00000000000E+00 -0.00000000000E+00 -0.34191920089E+03  0.34191920089E+03  0.00000000000E+00 0. -1.
         36    2    1    2    0    0  0.14210854715E-13  0.28421709430E-13  0.39535742553E+03  0.10791958273E+04  0.10041693780E+04 0.  0.
         25    2    3    3    0    0 -0.89805861460E+02  0.78871323016E+02  0.16309111020E+03  0.23769136576E+03  0.12495077745E+03 0.  0.
         35    2    3    3    0    0  0.89805861460E+02 -0.78871323016E+02  0.23226631533E+03  0.84150446154E+03  0.79993520938E+03 0.  0.
         22    1    5    5    0    0  0.23091772404E+03  0.30301060310E+03  0.17885902572E+02  0.38138999249E+03  0.00000000000E+00 0.  1.
         22    1    5    5    0    0 -0.14111186258E+03 -0.38188192611E+03  0.21438041276E+03  0.46011446905E+03  0.00000000000E+00 0.  1.
          5    1    4    4  502    0  0.11864820541E+02 -0.11228896823E+02 -0.83193811654E+01  0.18925226374E+02  0.47000000000E+01 0. -1.
         -5    1    4    4    0  502 -0.10167068200E+03  0.90100219839E+02  0.17141049136E+03  0.21876613939E+03  0.47000000000E+01 0. -1.
<mgrwt>
<rscale>  0 0.10041694E+04</rscale>
<asrwt>0</asrwt>
<pdfrwt beam="1">  1        1 0.52602954E-01 0.10041694E+04</pdfrwt>
<pdfrwt beam="2">  1       -1 0.11342717E+00 0.10041694E+04</pdfrwt>
<totfact> 0.63005990E+01</totfact>
</mgrwt>
</event>
<event>
 9    1  0.4296086E-036  0.9996539E+03  0.7818608E-02  0.8681368E-01
          2   -1    0    0  501    0  0.00000000000E+00  0.00000000000E+00  0.12715638330E+04  0.12715638330E+04  0.00000000000E+00 0.  1.
         -2   -1    0    0    0  501 -0.00000000000E+00 -0.00000000000E+00 -0.19647222127E+03  0.19647222127E+03  0.00000000000E+00 0.  1.
         36    2    1    2    0    0  0.28421709430E-13  0.00000000000E+00  0.10750916117E+04  0.14680360542E+04  0.99965388158E+03 0.  0.
         25    2    3    3    0    0  0.83571240385E+02  0.10658863737E+03  0.25486083987E+03  0.31466671022E+03  0.12536267780E+03 0.  0.
         35    2    3    3    0    0 -0.83571240385E+02 -0.10658863737E+03  0.82023077181E+03  0.11533693440E+04  0.79946046482E+03 0.  0.
         22    1    5    5    0    0  0.29947404179E+03 -0.72824043652E+02  0.78738623781E+02  0.31810032052E+03  0.00000000000E+00 0.  1.
         22    1    5    5    0    0 -0.38304528218E+03 -0.33764593717E+02  0.74149214803E+03  0.83526902348E+03  0.00000000000E+00 0.  1.
          5    1    4    4  502    0  0.70494110280E+02  0.79027378669E+02  0.26230564912E+03  0.28291534021E+03  0.47000000000E+01 0.  1.
         -5    1    4    4    0  502  0.13077130105E+02  0.27561258699E+02 -0.74448092504E+01  0.31751370012E+02  0.47000000000E+01 0.  1.
<mgrwt>
<rscale>  0 0.99965388E+03</rscale>
<asrwt>0</asrwt>
<pdfrwt beam="1">  1        2 0.19562520E+00 0.99965388E+03</pdfrwt>
<pdfrwt beam="2">  1       -2 0.30226496E-01 0.99965388E+03</pdfrwt>
<totfact> 0.20881231E+02</totfact>
</mgrwt>
</event>
<event>
 9    1  0.4296086E-036  0.1001606E+04  0.7818608E-02  0.8679510E-01
         -2   -1    0    0    0  501 -0.00000000000E+00  0.00000000000E+00  0.15393152267E+03  0.15393152267E+03  0.00000000000E+00 0. -1.
          2   -1    0    0  501    0  0.00000000000E+00 -0.00000000000E+00 -0.16293205507E+04  0.16293205507E+04  0.00000000000E+00 0. -1.
         36    2    1    2    0    0  0.00000000000E+00  0.00000000000E+00 -0.14753890280E+04  0.17832520734E+04  0.10016062965E+04 0.  0.
         25    2    3    3    0    0 -0.85147884510E+02  0.11033789496E+03 -0.22827991480E+03  0.29527145115E+03  0.12509555173E+03 0.  0.
         35    2    3    3    0    0  0.85147884510E+02 -0.11033789496E+03 -0.12471091132E+04  0.14879806222E+04  0.79961276783E+03 0.  0.
         22    1    5    5    0    0 -0.92333181221E+02 -0.34208199054E+03 -0.21289788460E+03  0.41336547252E+03  0.00000000000E+00 0. -1.
         22    1    5    5    0    0  0.17748106573E+03  0.23174409558E+03 -0.10342112286E+04  0.10746151497E+04  0.00000000000E+00 0. -1.
          5    1    4    4  502    0 -0.12958196003E+02  0.81103353960E+02 -0.40023290503E+02  0.91485641769E+02  0.47000000000E+01 0.  1.
         -5    1    4    4    0  502 -0.72189688507E+02  0.29234541000E+02 -0.18825662430E+03  0.20378580938E+03  0.47000000000E+01 0.  1.
<mgrwt>
<rscale>  0 0.10016063E+04</rscale>
<asrwt>0</asrwt>
<pdfrwt beam="1">  1        2 0.25066468E+00 0.10016063E+04</pdfrwt>
<pdfrwt beam="2">  1       -2 0.23681775E-01 0.10016063E+04</pdfrwt>
<totfact> 0.20217268E+02</totfact>
</mgrwt>
</event>
<event>
 9    1  0.4296086E-036  0.1009196E+04  0.7818608E-02  0.8672330E-01
          2   -1    0    0  501    0  0.00000000000E+00  0.00000000000E+00  0.48340765988E+03  0.48340765988E+03  0.00000000000E+00 0.  1.
         -2   -1    0    0    0  501 -0.00000000000E+00 -0.00000000000E+00 -0.52671723091E+03  0.52671723091E+03  0.00000000000E+00 0.  1.
         36    2    1    2    0    0  0.00000000000E+00 -0.71054273576E-14 -0.43309571033E+02  0.10101248908E+04  0.10091960048E+04 0.  0.
         25    2    3    3    0    0  0.94913716443E+02 -0.13424060268E+02 -0.12394637315E+03  0.20017404326E+03  0.12457176733E+03 0.  0.
         35    2    3    3    0    0 -0.94913716443E+02  0.13424060268E+02  0.80636802113E+02  0.80995084753E+03  0.80020576266E+03 0.  0.
         22    1    5    5    0    0 -0.17599462962E+03 -0.15811115250E+03 -0.30153641095E+03  0.38327203567E+03  0.00000000000E+00 0.  1.
         22    1    5    5    0    0  0.81080913173E+02  0.17153521276E+03  0.38217321307E+03  0.42667881185E+03  0.00000000000E+00 0.  1.
          5    1    4    4  502    0  0.62134059149E+02 -0.36777185357E+02 -0.13919600832E+03  0.15687836499E+03  0.47000000000E+01 0. -1.
         -5    1    4    4    0  502  0.32779657293E+02  0.23353125090E+02  0.15249635177E+02  0.43295678269E+02  0.47000000000E+01 0. -1.
<mgrwt>
<rscale>  0 0.10091960E+04</rscale>
<asrwt>0</asrwt>
<pdfrwt beam="1">  1        2 0.74370409E-01 0.10091960E+04</pdfrwt>
<pdfrwt beam="2">  1       -2 0.81033420E-01 0.10091960E+04</pdfrwt>
<totfact> 0.10351431E+02</totfact>
</mgrwt>
</event>
<event>
 9    1  0.4296086E-036  0.9992158E+03  0.7818608E-02  0.8681785E-01
          2   -1    0    0  501    0  0.00000000000E+00  0.00000000000E+00  0.21235286688E+04  0.21235286688E+04  0.00000000000E+00 0.  1.
         -2   -1    0    0    0  501 -0.00000000000E+00 -0.00000000000E+00 -0.11754399408E+03  0.11754399408E+03  0.00000000000E+00 0.  1.
         36    2    1    2    0    0 -0.14210854715E-13  0.00000000000E+00  0.20059846747E+04  0.22410726629E+04  0.99921577503E+03 0.  0.
         25    2    3    3    0    0 -0.11098837029E+03 -0.84395092021E+02  0.39261431245E+03  0.43511719632E+03  0.12545926150E+03 0.  0.
         35    2    3    3    0    0  0.11098837029E+03  0.84395092021E+02  0.16133703623E+04  0.18059554665E+04  0.79941870846E+03 0.  0.
         22    1    5    5    0    0 -0.10078805533E+03 -0.50156338750E+02  0.15406039009E+04  0.15447117109E+04  0.00000000000E+00 0. -1.
         22    1    5    5    0    0  0.21177642561E+03  0.13455143077E+03  0.72766461409E+02  0.26124375567E+03  0.00000000000E+00 0. -1.
          5    1    4    4  502    0 -0.10485876903E+03 -0.28687706574E+01  0.20215997698E+03  0.22780328703E+03  0.47000000000E+01 0. -1.
         -5    1    4    4    0  502 -0.61296012574E+01 -0.81526321364E+02  0.19045433546E+03  0.20731390929E+03  0.47000000000E+01 0. -1.
<mgrwt>
<rscale>  0 0.99921578E+03</rscale>
<asrwt>0</asrwt>
<pdfrwt beam="1">  1        2 0.32669669E+00 0.99921578E+03</pdfrwt>
<pdfrwt beam="2">  1       -2 0.18083693E-01 0.99921578E+03</pdfrwt>
<totfact> 0.16938394E+02</totfact>
</mgrwt>
</event>
<event>
 9    1  0.4296086E-036  0.9985736E+03  0.7818608E-02  0.8682397E-01
          4   -1    0    0  501    0  0.00000000000E+00  0.00000000000E+00  0.36308132102E+03  0.36308132102E+03  0.00000000000E+00 0.  1.
         -4   -1    0    0    0  501 -0.00000000000E+00 -0.00000000000E+00 -0.68658814097E+03  0.68658814097E+03  0.00000000000E+00 0.  1.
         36    2    1    2    0    0  0.00000000000E+00  0.14210854715E-13 -0.32350681994E+03  0.10496694620E+04  0.99857364119E+03 0.  0.
         25    2    3    3    0    0 -0.11370113243E+03  0.49447948003E+02  0.42315364847E+01  0.17559823127E+03  0.12427302944E+03 0.  0.
         35    2    3    3    0    0  0.11370113243E+03 -0.49447948003E+02 -0.32773835642E+03  0.87407123072E+03  0.80075903930E+03 0.  0.
         22    1    5    5    0    0 -0.51205113423E+02 -0.22394974075E+03 -0.51869950922E+03  0.56729589359E+03  0.00000000000E+00 0. -1.
         22    1    5    5    0    0  0.16490624585E+03  0.17450179275E+03  0.19096115280E+03  0.30677533713E+03  0.00000000000E+00 0. -1.
          5    1    4    4  502    0 -0.90057529622E+02  0.90482455692E+02  0.68816447638E+01  0.12793310934E+03  0.47000000000E+01 0. -1.
         -5    1    4    4    0  502 -0.23643602805E+02 -0.41034507690E+02 -0.26501082791E+01  0.47665121932E+02  0.47000000000E+01 0. -1.
<mgrwt>
<rscale>  0 0.99857364E+03</rscale>
<asrwt>0</asrwt>
<pdfrwt beam="1">  1        4 0.55858665E-01 0.99857364E+03</pdfrwt>
<pdfrwt beam="2">  1       -4 0.10562894E+00 0.99857364E+03</pdfrwt>
<totfact> 0.49198564E+00</totfact>
</mgrwt>
</event>
<event>
 9    1  0.4296086E-036  0.1000659E+04  0.7818608E-02  0.8680411E-01
          2   -1    0    0  501    0  0.00000000000E+00  0.00000000000E+00  0.93408154202E+03  0.93408154202E+03  0.00000000000E+00 0. -1.
         -2   -1    0    0    0  501 -0.00000000000E+00 -0.00000000000E+00 -0.26799527117E+03  0.26799527117E+03  0.00000000000E+00 0. -1.
         36    2    1    2    0    0 -0.14210854715E-13 -0.17763568394E-13  0.66608627085E+03  0.12020768132E+04  0.10006586554E+04 0.  0.
         25    2    3    3    0    0  0.90499174509E+02  0.80167254291E+01  0.11077727402E+01  0.15595708539E+03  0.12675573694E+03 0.  0.
         35    2    3    3    0    0 -0.90499174509E+02 -0.80167254291E+01  0.66497849811E+03  0.10461197278E+04  0.80244358898E+03 0.  0.
         22    1    5    5    0    0 -0.41077179180E+03  0.15099867632E+03  0.45562346351E+03  0.63176483416E+03  0.00000000000E+00 0. -1.
         22    1    5    5    0    0  0.32027261729E+03 -0.15901540175E+03  0.20935503460E+03  0.41435489365E+03  0.00000000000E+00 0. -1.
          5    1    4    4  502    0  0.11511572695E+03  0.12882737074E+02 -0.25905804152E+02  0.11878887235E+03  0.47000000000E+01 0.  1.
         -5    1    4    4    0  502 -0.24616552444E+02 -0.48660116451E+01  0.27013576892E+02  0.37168213033E+02  0.47000000000E+01 0.  1.
<mgrwt>
<rscale>  0 0.10006587E+04</rscale>
<asrwt>0</asrwt>
<pdfrwt beam="1">  1        2 0.14370485E+00 0.10006587E+04</pdfrwt>
<pdfrwt beam="2">  1       -2 0.41230042E-01 0.10006587E+04</pdfrwt>
<totfact> 0.18748342E+02</totfact>
</mgrwt>
</event>
<event>
 9    1  0.4296086E-036  0.1000409E+04  0.7818608E-02  0.8680649E-01
         -2   -1    0    0    0  501 -0.00000000000E+00  0.00000000000E+00  0.16575074333E+03  0.16575074333E+03  0.00000000000E+00 0.  1.
          2   -1    0    0  501    0  0.00000000000E+00 -0.00000000000E+00 -0.15095219653E+04  0.15095219653E+04  0.00000000000E+00 0.  1.
         36    2    1    2    0    0  0.00000000000E+00  0.00000000000E+00 -0.13437712219E+04  0.16752727086E+04  0.10004086921E+04 0.  0.
         25    2    3    3    0    0 -0.74111588264E+02 -0.77173080081E+02 -0.10000835389E+03  0.19247174352E+03  0.12488190182E+03 0.  0.
         35    2    3    3    0    0  0.74111588264E+02  0.77173080081E+02 -0.12437628680E+04  0.14828009651E+04  0.80019023879E+03 0.  0.
         22    1    5    5    0    0 -0.45047677386E+02  0.11975012569E+03 -0.13258246443E+04  0.13319836235E+04  0.00000000000E+00 0. -1.
         22    1    5    5    0    0  0.11915926565E+03 -0.42577045610E+02  0.82061776234E+02  0.15081734158E+03  0.00000000000E+00 0. -1.
          5    1    4    4  502    0 -0.73537247871E+02 -0.30969319687E+02  0.24600009400E+01  0.79968538757E+02  0.47000000000E+01 0.  1.
         -5    1    4    4    0  502 -0.57434039265E+00 -0.46203760394E+02 -0.10246835483E+03  0.11250320477E+03  0.47000000000E+01 0.  1.
<mgrwt>
<rscale>  0 0.10004087E+04</rscale>
<asrwt>0</asrwt>
<pdfrwt beam="1">  1        2 0.23223414E+00 0.10004087E+04</pdfrwt>
<pdfrwt beam="2">  1       -2 0.25500116E-01 0.10004087E+04</pdfrwt>
<totfact> 0.20723863E+02</totfact>
</mgrwt>
</event>
<event>
 9    1  0.4296086E-036  0.1000270E+04  0.7818608E-02  0.8680781E-01
         -2   -1    0    0    0  501 -0.00000000000E+00  0.00000000000E+00  0.65032025332E+03  0.65032025332E+03  0.00000000000E+00 0. -1.
          2   -1    0    0  501    0  0.00000000000E+00 -0.00000000000E+00 -0.38463330653E+03  0.38463330653E+03  0.00000000000E+00 0. -1.
         36    2    1    2    0    0  0.14210854715E-13 -0.14210854715E-13  0.26568694679E+03  0.10349535599E+04  0.10002696223E+04 0.  0.
         25    2    3    3    0    0 -0.83579839420E+02 -0.10084865529E+03  0.25300772387E+01  0.18280007020E+03  0.12748891537E+03 0.  0.
         35    2    3    3    0    0  0.83579839420E+02  0.10084865529E+03  0.26315686955E+03  0.85215348966E+03  0.79984873014E+03 0.  0.
         22    1    5    5    0    0  0.78510794318E+02 -0.25745566536E+03 -0.14766808149E+03  0.30700688386E+03  0.00000000000E+00 0. -1.
         22    1    5    5    0    0  0.50690451024E+01  0.35830432065E+03  0.41082495104E+03  0.54514660580E+03  0.00000000000E+00 0. -1.
          5    1    4    4  502    0 -0.11270840798E+03 -0.97904135697E+02  0.16020398417E+02  0.15022366052E+03  0.47000000000E+01 0. -1.
         -5    1    4    4    0  502  0.29128568558E+02 -0.29445195949E+01 -0.13490321179E+02  0.32576409676E+02  0.47000000000E+01 0. -1.
<mgrwt>
<rscale>  0 0.10002696E+04</rscale>
<asrwt>0</asrwt>
<pdfrwt beam="1">  1        2 0.59174355E-01 0.10002696E+04</pdfrwt>
<pdfrwt beam="2">  1       -2 0.10004927E+00 0.10002696E+04</pdfrwt>
<totfact> 0.81452881E+01</totfact>
</mgrwt>
</event>
<event>
 9    1  0.4296086E-036  0.9988776E+03  0.7818608E-02  0.8682108E-01
         -2   -1    0    0    0  501 -0.00000000000E+00  0.00000000000E+00  0.80489083661E+02  0.80489083661E+02  0.00000000000E+00 0. -1.
          2   -1    0    0  501    0  0.00000000000E+00 -0.00000000000E+00 -0.30990428430E+04  0.30990428430E+04  0.00000000000E+00 0. -1.
         36    2    1    2    0    0 -0.35527136788E-14 -0.14210854715E-13 -0.30185537593E+04  0.31795319267E+04  0.99887760744E+03 0.  0.
         25    2    3    3    0    0  0.10210903603E+02  0.34392629603E+02 -0.99307721343E+03  0.10014658569E+04  0.12427548118E+03 0.  0.
         35    2    3    3    0    0 -0.10210903603E+02 -0.34392629603E+02 -0.20254765459E+04  0.21780660697E+04  0.80008090254E+03 0.  0.
         22    1    5    5    0    0 -0.67566037739E+02 -0.24202484279E+03 -0.15502624406E+03  0.29525299377E+03  0.00000000000E+00 0. -1.
         22    1    5    5    0    0  0.57355134136E+02  0.20763221318E+03 -0.18704503019E+04  0.18828130760E+04  0.00000000000E+00 0. -1.
          5    1    4    4  502    0  0.10785840473E+02 -0.29325878578E+02 -0.77950501111E+02  0.84111307994E+02  0.47000000000E+01 0. -1.
         -5    1    4    4    0  502 -0.57493687009E+00  0.63718508181E+02 -0.91512671232E+03  0.91735454892E+03  0.47000000000E+01 0. -1.
<mgrwt>
<rscale>  0 0.99887761E+03</rscale>
<asrwt>0</asrwt>
<pdfrwt beam="1">  1        2 0.47677574E+00 0.99887761E+03</pdfrwt>
<pdfrwt beam="2">  1       -2 0.12382938E-01 0.99887761E+03</pdfrwt>
<totfact> 0.78916042E+01</totfact>
</mgrwt>
</event>
<event>
 9    1  0.4296086E-036  0.9998059E+03  0.7818608E-02  0.8681223E-01
          1   -1    0    0  501    0  0.00000000000E+00  0.00000000000E+00  0.74266694200E+03  0.74266694200E+03  0.00000000000E+00 0.  1.
         -1   -1    0    0    0  501 -0.00000000000E+00 -0.00000000000E+00 -0.33649401501E+03  0.33649401501E+03  0.00000000000E+00 0.  1.
         36    2    1    2    0    0 -0.14210854715E-13  0.28421709430E-13  0.40617292698E+03  0.10791609570E+04  0.99980594343E+03 0.  0.
         25    2    3    3    0    0 -0.67434421145E+02 -0.73016177426E+02  0.18118141992E+03  0.24172306666E+03  0.12539765034E+03 0.  0.
         35    2    3    3    0    0  0.67434421145E+02  0.73016177426E+02  0.22499150706E+03  0.83743789035E+03  0.80050126709E+03 0.  0.
         22    1    5    5    0    0  0.41676901116E+02 -0.24114865241E+03 -0.19457827623E+03  0.31265051131E+03  0.00000000000E+00 0.  1.
         22    1    5    5    0    0  0.25757520029E+02  0.31416482983E+03  0.41956978329E+03  0.52478737903E+03  0.00000000000E+00 0.  1.
          5    1    4    4  502    0 -0.92809417529E+02 -0.88729712026E+02  0.15795370107E+03  0.20361240497E+03  0.47000000000E+01 0. -1.
         -5    1    4    4    0  502  0.25374996384E+02  0.15713534601E+02  0.23227718855E+02  0.38110661689E+02  0.47000000000E+01 0. -1.
<mgrwt>
<rscale>  0 0.99980594E+03</rscale>
<asrwt>0</asrwt>
<pdfrwt beam="1">  1        1 0.11425645E+00 0.99980594E+03</pdfrwt>
<pdfrwt beam="2">  1       -1 0.51768310E-01 0.99980594E+03</pdfrwt>
<totfact> 0.10697050E+02</totfact>
</mgrwt>
</event>
<event>
 9    1  0.4296086E-036  0.9997393E+03  0.7818608E-02  0.8681286E-01
         -2   -1    0    0    0  501 -0.00000000000E+00  0.00000000000E+00  0.31216165543E+03  0.31216165543E+03  0.00000000000E+00 0.  1.
          2   -1    0    0  501    0  0.00000000000E+00 -0.00000000000E+00 -0.80044953478E+03  0.80044953478E+03  0.00000000000E+00 0.  1.
         36    2    1    2    0    0  0.00000000000E+00  0.00000000000E+00 -0.48828787936E+03  0.11126111902E+04  0.99973926973E+03 0.  0.
         25    2    3    3    0    0 -0.90482521858E+00  0.81081438139E+02 -0.21897774377E+03  0.26487724128E+03  0.12503472462E+03 0.  0.
         35    2    3    3    0    0  0.90482521858E+00 -0.81081438139E+02 -0.26931013559E+03  0.84773394893E+03  0.79971862597E+03 0.  0.
         22    1    5    5    0    0 -0.23429127935E+03  0.52446467921E+02 -0.45858000711E+03  0.51762791511E+03  0.00000000000E+00 0.  1.
         22    1    5    5    0    0  0.23519610457E+03 -0.13352790606E+03  0.18926987152E+03  0.33010603382E+03  0.00000000000E+00 0.  1.
          5    1    4    4  502    0  0.20813398163E+02  0.10844476535E+03 -0.13983629693E+03  0.17824069293E+03  0.47000000000E+01 0. -1.
         -5    1    4    4    0  502 -0.21718223381E+02 -0.27363327211E+02 -0.79141446836E+02  0.86636548351E+02  0.47000000000E+01 0. -1.
<mgrwt>
<rscale>  0 0.99973927E+03</rscale>
<asrwt>0</asrwt>
<pdfrwt beam="1">  1        2 0.12314608E+00 0.99973927E+03</pdfrwt>
<pdfrwt beam="2">  1       -2 0.48024870E-01 0.99973927E+03</pdfrwt>
<totfact> 0.17112393E+02</totfact>
</mgrwt>
</event>
<event>
 9    1  0.4296086E-036  0.9989332E+03  0.7818608E-02  0.8682055E-01
         -2   -1    0    0    0  501 -0.00000000000E+00  0.00000000000E+00  0.16317272057E+03  0.16317272057E+03  0.00000000000E+00 0. -1.
          2   -1    0    0  501    0  0.00000000000E+00 -0.00000000000E+00 -0.15288515785E+04  0.15288515785E+04  0.00000000000E+00 0. -1.
         36    2    1    2    0    0  0.56843418861E-13 -0.14210854715E-13 -0.13656788579E+04  0.16920242991E+04  0.99893317376E+03 0.  0.
         25    2    3    3    0    0 -0.53684954564E+02  0.11035530911E+03 -0.36537686657E+03  0.40526536035E+03  0.12521736731E+03 0.  0.
         35    2    3    3    0    0  0.53684954564E+02 -0.11035530911E+03 -0.10003019914E+04  0.12867589387E+04  0.80005257569E+03 0.  0.
         22    1    5    5    0    0 -0.32795178332E+03  0.64017347614E+02 -0.21778842491E+03  0.39885133948E+03  0.00000000000E+00 0.  1.
         22    1    5    5    0    0  0.38163673789E+03 -0.17437265672E+03 -0.78251356646E+03  0.88790759926E+03  0.00000000000E+00 0.  1.
          5    1    4    4  502    0 -0.67635090180E+01  0.12006955145E+03 -0.20396001866E+03  0.23682107476E+03  0.47000000000E+01 0. -1.
         -5    1    4    4    0  502 -0.46921445546E+02 -0.97142423399E+01 -0.16141684792E+03  0.16844428559E+03  0.47000000000E+01 0. -1.
<mgrwt>
<rscale>  0 0.99893317E+03</rscale>
<asrwt>0</asrwt>
<pdfrwt beam="1">  1        2 0.23520793E+00 0.99893317E+03</pdfrwt>
<pdfrwt beam="2">  1       -2 0.25103496E-01 0.99893317E+03</pdfrwt>
<totfact> 0.20779414E+02</totfact>
</mgrwt>
</event>
<event>
 9    1  0.4296086E-036  0.9995949E+03  0.7818608E-02  0.8681424E-01
         -2   -1    0    0    0  501 -0.00000000000E+00  0.00000000000E+00  0.15626167645E+04  0.15626167645E+04  0.00000000000E+00 0.  1.
          2   -1    0    0  501    0  0.00000000000E+00 -0.00000000000E+00 -0.15985846206E+03  0.15985846206E+03  0.00000000000E+00 0.  1.
         36    2    1    2    0    0 -0.14210854715E-13  0.00000000000E+00  0.14027583024E+04  0.17224752265E+04  0.99959494348E+03 0.  0.
         25    2    3    3    0    0  0.57660361675E+02  0.11014263475E+03  0.36261684107E+03  0.40337803159E+03  0.12556570249E+03 0.  0.
         35    2    3    3    0    0 -0.57660361675E+02 -0.11014263475E+03  0.10401414613E+04  0.13190971949E+04  0.80166516252E+03 0.  0.
         22    1    5    5    0    0 -0.20733301617E+03 -0.18965511107E+03  0.16451493711E+02  0.28147236524E+03  0.00000000000E+00 0. -1.
         22    1    5    5    0    0  0.14967265449E+03  0.79512476325E+02  0.10236899676E+04  0.10376248297E+04  0.00000000000E+00 0. -1.
          5    1    4    4  502    0 -0.32100322780E+02  0.50813100837E+02  0.19532130279E+03  0.20441355939E+03  0.47000000000E+01 0.  1.
         -5    1    4    4    0  502  0.89760684456E+02  0.59329533909E+02  0.16729553828E+03  0.19896447220E+03  0.47000000000E+01 0.  1.
<mgrwt>
<rscale>  0 0.99959494E+03</rscale>
<asrwt>0</asrwt>
<pdfrwt beam="1">  1        2 0.24593611E-01 0.99959494E+03</pdfrwt>
<pdfrwt beam="2">  1       -2 0.24040257E+00 0.99959494E+03</pdfrwt>
<totfact> 0.17654754E+01</totfact>
</mgrwt>
</event>
<event>
 9    1  0.4296086E-036  0.1014517E+04  0.7818608E-02  0.8667335E-01
          2   -1    0    0  501    0  0.00000000000E+00  0.00000000000E+00  0.36206257327E+03  0.36206257327E+03  0.00000000000E+00 0. -1.
         -2   -1    0    0    0  501 -0.00000000000E+00 -0.00000000000E+00 -0.71068106334E+03  0.71068106334E+03  0.00000000000E+00 0. -1.
         36    2    1    2    0    0  0.00000000000E+00  0.00000000000E+00 -0.34861849007E+03  0.10727436366E+04  0.10145166624E+04 0.  0.
         25    2    3    3    0    0  0.11722470143E+03 -0.44335195815E+02 -0.16468284482E+03  0.24180547175E+03  0.12506880737E+03 0.  0.
         35    2    3    3    0    0 -0.11722470143E+03  0.44335195815E+02 -0.18393564525E+03  0.83093816486E+03  0.80057396411E+03 0.  0.
         22    1    5    5    0    0  0.12194375586E+03  0.35040247509E+03  0.54749949653E+02  0.37503297338E+03  0.00000000000E+00 0.  1.
         22    1    5    5    0    0 -0.23916845728E+03 -0.30606727927E+03 -0.23868559490E+03  0.45590519148E+03  0.00000000000E+00 0.  1.
          5    1    4    4  502    0  0.50894436228E+02  0.19578638105E+02 -0.19675614064E+01  0.54767946894E+02  0.47000000000E+01 0. -1.
         -5    1    4    4    0  502  0.66330265198E+02 -0.63913833920E+02 -0.16271528341E+03  0.18703752485E+03  0.47000000000E+01 0. -1.
<mgrwt>
<rscale>  0 0.10145167E+04</rscale>
<asrwt>0</asrwt>
<pdfrwt beam="1">  1        2 0.55701935E-01 0.10145167E+04</pdfrwt>
<pdfrwt beam="2">  1       -2 0.10933555E+00 0.10145167E+04</pdfrwt>
<totfact> 0.69877810E+01</totfact>
</mgrwt>
</event>
<event>
 9    1  0.4296086E-036  0.1000474E+04  0.7818608E-02  0.8680587E-01
         -1   -1    0    0    0  501 -0.00000000000E+00  0.00000000000E+00  0.12369644902E+03  0.12369644902E+03  0.00000000000E+00 0.  1.
          1   -1    0    0  501    0  0.00000000000E+00 -0.00000000000E+00 -0.20229937845E+04  0.20229937845E+04  0.00000000000E+00 0.  1.
         36    2    1    2    0    0  0.00000000000E+00 -0.14210854715E-13 -0.18992973355E+04  0.21466902335E+04  0.10004741826E+04 0.  0.
         25    2    3    3    0    0  0.64011529540E+02 -0.11625095126E+03 -0.25098546267E+03  0.31014803644E+03  0.12484527405E+03 0.  0.
         35    2    3    3    0    0 -0.64011529540E+02  0.11625095126E+03 -0.16483118728E+04  0.18365421971E+04  0.79896398667E+03 0.  0.
         22    1    5    5    0    0  0.22619833131E+03  0.28316697666E+03 -0.38135943341E+03  0.52610287892E+03  0.00000000000E+00 0.  1.
         22    1    5    5    0    0 -0.29020986085E+03 -0.16691602539E+03 -0.12669524394E+04  0.13104393181E+04  0.00000000000E+00 0.  1.
          5    1    4    4  502    0  0.50186262308E+02 -0.39138811034E+02 -0.21413979480E+03  0.22344674795E+03  0.47000000000E+01 0.  1.
         -5    1    4    4    0  502  0.13825267232E+02 -0.77112140228E+02 -0.36845667870E+02  0.86701288488E+02  0.47000000000E+01 0.  1.
<mgrwt>
<rscale>  0 0.10004742E+04</rscale>
<asrwt>0</asrwt>
<pdfrwt beam="1">  1        1 0.31122980E+00 0.10004742E+04</pdfrwt>
<pdfrwt beam="2">  1       -1 0.19030223E-01 0.10004742E+04</pdfrwt>
<totfact> 0.66615637E+01</totfact>
</mgrwt>
</event>
<event>
 9    1  0.4296086E-036  0.1002470E+04  0.7818608E-02  0.8678689E-01
         -4   -1    0    0    0  501 -0.00000000000E+00  0.00000000000E+00  0.65403426608E+03  0.65403426608E+03  0.00000000000E+00 0.  1.
          4   -1    0    0  501    0  0.00000000000E+00 -0.00000000000E+00 -0.38413348512E+03  0.38413348512E+03  0.00000000000E+00 0.  1.
         36    2    1    2    0    0  0.00000000000E+00 -0.14210854715E-13  0.26990078096E+03  0.10381677512E+04  0.10024698739E+04 0.  0.
         25    2    3    3    0    0  0.75652974337E+02  0.80442424100E+02  0.14347410930E+03  0.22050129325E+03  0.12586359348E+03 0.  0.
         35    2    3    3    0    0 -0.75652974337E+02 -0.80442424100E+02  0.12642667166E+03  0.81766645795E+03  0.80025019652E+03 0.  0.
         22    1    5    5    0    0 -0.66225447498E+02  0.26410268437E+03  0.32174940754E+03  0.42149581141E+03  0.00000000000E+00 0. -1.
         22    1    5    5    0    0 -0.94275268385E+01 -0.34454510847E+03 -0.19532273588E+03  0.39617064654E+03  0.00000000000E+00 0. -1.
          5    1    4    4  502    0  0.10831030107E+02 -0.17757638894E+02  0.87601326989E+02  0.90159455646E+02  0.47000000000E+01 0.  1.
         -5    1    4    4    0  502  0.64821944230E+02  0.98200062994E+02  0.55872782314E+02  0.13034183760E+03  0.47000000000E+01 0.  1.
<mgrwt>
<rscale>  0 0.10024699E+04</rscale>
<asrwt>0</asrwt>
<pdfrwt beam="1">  1        4 0.59097459E-01 0.10024699E+04</pdfrwt>
<pdfrwt beam="2">  1       -4 0.10062066E+00 0.10024699E+04</pdfrwt>
<totfact> 0.49369928E+00</totfact>
</mgrwt>
</event>
<event>
 9    1  0.4296086E-036  0.9997583E+03  0.7818608E-02  0.8681268E-01
          2   -1    0    0  501    0  0.00000000000E+00  0.00000000000E+00  0.11980373414E+04  0.11980373414E+04  0.00000000000E+00 0.  1.
         -2   -1    0    0    0  501 -0.00000000000E+00 -0.00000000000E+00 -0.20857378710E+03  0.20857378710E+03  0.00000000000E+00 0.  1.
         36    2    1    2    0    0  0.14210854715E-13 -0.10658141036E-13  0.98946355433E+03  0.14066111285E+04  0.99975834157E+03 0.  0.
         25    2    3    3    0    0  0.97335305354E+02 -0.13494300352E+02  0.46726922204E+02  0.16528372380E+03  0.12441481537E+03 0.  0.
         35    2    3    3    0    0 -0.97335305354E+02  0.13494300352E+02  0.94273663213E+03  0.12413274047E+04  0.80155168913E+03 0.  0.
         22    1    5    5    0    0  0.94252137362E+01  0.17256692708E+03  0.10201608745E+04  0.10346962785E+04  0.00000000000E+00 0.  1.
         22    1    5    5    0    0 -0.10676051909E+03 -0.15907262673E+03 -0.77424242353E+02  0.20663112620E+03  0.00000000000E+00 0.  1.
          5    1    4    4  502    0  0.50821133962E+02  0.12286992497E+01 -0.40541985222E+02  0.65192330260E+02  0.47000000000E+01 0. -1.
         -5    1    4    4    0  502  0.46514171392E+02 -0.14722999602E+02  0.87268907426E+02  0.10009139354E+03  0.47000000000E+01 0. -1.
<mgrwt>
<rscale>  0 0.99975834E+03</rscale>
<asrwt>0</asrwt>
<pdfrwt beam="1">  1        2 0.18431343E+00 0.99975834E+03</pdfrwt>
<pdfrwt beam="2">  1       -2 0.32088276E-01 0.99975834E+03</pdfrwt>
<totfact> 0.20669260E+02</totfact>
</mgrwt>
</event>
<event>
 9    1  0.4296086E-036  0.1000025E+04  0.7818608E-02  0.8681014E-01
         -1   -1    0    0    0  501 -0.00000000000E+00  0.00000000000E+00  0.19656880713E+03  0.19656880713E+03  0.00000000000E+00 0. -1.
          1   -1    0    0  501    0  0.00000000000E+00 -0.00000000000E+00 -0.12718829071E+04  0.12718829071E+04  0.00000000000E+00 0. -1.
         36    2    1    2    0    0  0.00000000000E+00  0.56843418861E-13 -0.10753141000E+04  0.14684517142E+04  0.10000250114E+04 0.  0.
         25    2    3    3    0    0 -0.10431761034E+03  0.84855526959E+02 -0.27674027865E+03  0.33205376302E+03  0.12486751149E+03 0.  0.
         35    2    3    3    0    0  0.10431761034E+03 -0.84855526959E+02 -0.79857382132E+03  0.11363979512E+04  0.79724370875E+03 0.  0.
         22    1    5    5    0    0  0.35484089164E+03  0.18830433813E+03 -0.58182085678E+03  0.70702623114E+03  0.00000000000E+00 0.  1.
         22    1    5    5    0    0 -0.25052328129E+03 -0.27315986509E+03 -0.21675296454E+03  0.42937172008E+03  0.00000000000E+00 0.  1.
          5    1    4    4  502    0 -0.28489939380E+02 -0.41294283047E+01  0.25149934040E+01  0.29277021977E+02  0.47000000000E+01 0. -1.
         -5    1    4    4    0  502 -0.75827670964E+02  0.88984955264E+02 -0.27925527205E+03  0.30277674104E+03  0.47000000000E+01 0. -1.
<mgrwt>
<rscale>  0 0.10000250E+04</rscale>
<asrwt>0</asrwt>
<pdfrwt beam="1">  1        1 0.19567429E+00 0.10000250E+04</pdfrwt>
<pdfrwt beam="2">  1       -1 0.30241355E-01 0.10000250E+04</pdfrwt>
<totfact> 0.10455580E+02</totfact>
</mgrwt>
</event>
<event>
 9    1  0.4296086E-036  0.9998791E+03  0.7818608E-02  0.8681153E-01
          2   -1    0    0  501    0  0.00000000000E+00  0.00000000000E+00  0.12176179577E+04  0.12176179577E+04  0.00000000000E+00 0. -1.
         -2   -1    0    0    0  501 -0.00000000000E+00 -0.00000000000E+00 -0.20526928901E+03  0.20526928901E+03  0.00000000000E+00 0. -1.
         36    2    1    2    0    0  0.00000000000E+00 -0.14210854715E-13  0.10123486687E+04  0.14228872467E+04  0.99987913761E+03 0.  0.
         25    2    3    3    0    0  0.11993358595E+02  0.96742815279E+02  0.45788439820E+02  0.16491361631E+03  0.12488757610E+03 0.  0.
         35    2    3    3    0    0 -0.11993358595E+02 -0.96742815279E+02  0.96656022886E+03  0.12579736304E+04  0.79922210041E+03 0.  0.
         22    1    5    5    0    0  0.12218781551E+03  0.69175025923E+01  0.10581879255E+04  0.10652414749E+04  0.00000000000E+00 0.  1.
         22    1    5    5    0    0 -0.13418117411E+03 -0.10366031787E+03 -0.91627696631E+02  0.19273215553E+03  0.00000000000E+00 0.  1.
          5    1    4    4  502    0 -0.55984773380E+02  0.54357179749E+02  0.21734883669E+02  0.81138726936E+02  0.47000000000E+01 0.  1.
         -5    1    4    4    0  502  0.67978131974E+02  0.42385635530E+02  0.24053556151E+02  0.83774889374E+02  0.47000000000E+01 0.  1.
<mgrwt>
<rscale>  0 0.99987914E+03</rscale>
<asrwt>0</asrwt>
<pdfrwt beam="1">  1        2 0.18732583E+00 0.99987914E+03</pdfrwt>
<pdfrwt beam="2">  1       -2 0.31579891E-01 0.99987914E+03</pdfrwt>
<totfact> 0.20726140E+02</totfact>
</mgrwt>
</event>
<event>
 9    1  0.4296086E-036  0.9998603E+03  0.7818608E-02  0.8681171E-01
          2   -1    0    0  501    0  0.00000000000E+00  0.00000000000E+00  0.16039041847E+04  0.16039041847E+04  0.00000000000E+00 0. -1.
         -2   -1    0    0    0  501 -0.00000000000E+00 -0.00000000000E+00 -0.15582609856E+03  0.15582609856E+03  0.00000000000E+00 0. -1.
         36    2    1    2    0    0 -0.14210854715E-13  0.00000000000E+00  0.14480780861E+04  0.17597302832E+04  0.99986025336E+03 0.  0.
         25    2    3    3    0    0 -0.59480621329E+02  0.16853971128E+02  0.46827158581E+02  0.14442843811E+03  0.12183919853E+03 0.  0.
         35    2    3    3    0    0  0.59480621329E+02 -0.16853971128E+02  0.14012509276E+04  0.16153018451E+04  0.80117032414E+03 0.  0.
         22    1    5    5    0    0 -0.26600647161E+03  0.24674056456E+03  0.83990441494E+03  0.91492063884E+03  0.00000000000E+00 0. -1.
         22    1    5    5    0    0  0.32548709294E+03 -0.26359453569E+03  0.56134651261E+03  0.70038120630E+03  0.00000000000E+00 0. -1.
          5    1    4    4  502    0 -0.21573222119E+02 -0.48098849430E+02  0.44326355597E+02  0.69034911672E+02  0.47000000000E+01 0.  1.
         -5    1    4    4    0  502 -0.37907399210E+02  0.64952820558E+02  0.25008029842E+01  0.75393526438E+02  0.47000000000E+01 0.  1.
<mgrwt>
<rscale>  0 0.99986025E+03</rscale>
<asrwt>0</asrwt>
<pdfrwt beam="1">  1        2 0.24675448E+00 0.99986025E+03</pdfrwt>
<pdfrwt beam="2">  1       -2 0.23973247E-01 0.99986025E+03</pdfrwt>
<totfact> 0.20448981E+02</totfact>
</mgrwt>
</event>
<event>
 9    1  0.4296086E-036  0.1004069E+04  0.7818608E-02  0.8677172E-01
         -2   -1    0    0    0  501 -0.00000000000E+00  0.00000000000E+00  0.44951464680E+03  0.44951464680E+03  0.00000000000E+00 0.  1.
          2   -1    0    0  501    0  0.00000000000E+00 -0.00000000000E+00 -0.56069112614E+03  0.56069112614E+03  0.00000000000E+00 0.  1.
         36    2    1    2    0    0 -0.21316282073E-13  0.14210854715E-13 -0.11117647934E+03  0.10102057729E+04  0.10040694668E+04 0.  0.
         25    2    3    3    0    0  0.27422001262E+02  0.11992451351E+03  0.54873787792E+02  0.18428445797E+03  0.12576077993E+03 0.  0.
         35    2    3    3    0    0 -0.27422001262E+02 -0.11992451351E+03 -0.16605026713E+03  0.82592131497E+03  0.79964959340E+03 0.  0.
         22    1    5    5    0    0  0.17018094618E+03  0.30949418688E+02  0.27193956666E+03  0.32228954199E+03  0.00000000000E+00 0.  1.
         22    1    5    5    0    0 -0.19760294745E+03 -0.15087393220E+03 -0.43798983379E+03  0.50363177299E+03  0.00000000000E+00 0.  1.
          5    1    4    4  502    0 -0.21774832097E+02  0.90660675318E+02  0.78699875039E+02  0.12210348764E+03  0.47000000000E+01 0. -1.
         -5    1    4    4    0  502  0.49196833359E+02  0.29263838193E+02 -0.23826087246E+02  0.62180970335E+02  0.47000000000E+01 0. -1.
<mgrwt>
<rscale>  0 0.10040695E+04</rscale>
<asrwt>0</asrwt>
<pdfrwt beam="1">  1        2 0.86260173E-01 0.10040695E+04</pdfrwt>
<pdfrwt beam="2">  1       -2 0.69156100E-01 0.10040695E+04</pdfrwt>
<totfact> 0.12424031E+02</totfact>
</mgrwt>
</event>
<event>
 9    1  0.4296086E-036  0.1000036E+04  0.7818608E-02  0.8681003E-01
         -2   -1    0    0    0  501 -0.00000000000E+00  0.00000000000E+00  0.11249930427E+03  0.11249930427E+03  0.00000000000E+00 0. -1.
          2   -1    0    0  501    0  0.00000000000E+00 -0.00000000000E+00 -0.22223971975E+04  0.22223971975E+04  0.00000000000E+00 0. -1.
         36    2    1    2    0    0  0.14210854715E-13  0.00000000000E+00 -0.21098978933E+04  0.23348965018E+04  0.10000362764E+04 0.  0.
         25    2    3    3    0    0  0.76858373811E+02 -0.82544859479E+02 -0.59216031805E+03  0.61535405244E+03  0.12363617646E+03 0.  0.
         35    2    3    3    0    0 -0.76858373811E+02  0.82544859479E+02 -0.15177375752E+04  0.17195424494E+04  0.80036118379E+03 0.  0.
         22    1    5    5    0    0 -0.35122640860E+03  0.52124301019E+02 -0.13513627313E+04  0.13972323230E+04  0.00000000000E+00 0.  1.
         22    1    5    5    0    0  0.27436803479E+03  0.30420558460E+02 -0.16637484395E+03  0.32231012642E+03  0.00000000000E+00 0.  1.
          5    1    4    4  502    0  0.10724025077E+03 -0.43549260894E+02 -0.36992175298E+03  0.38763539936E+03  0.47000000000E+01 0. -1.
         -5    1    4    4    0  502 -0.30381876954E+02 -0.38995598585E+02 -0.22223856507E+03  0.22771865308E+03  0.47000000000E+01 0. -1.
<mgrwt>
<rscale>  0 0.10000363E+04</rscale>
<asrwt>0</asrwt>
<pdfrwt beam="1">  1        2 0.34190727E+00 0.10000363E+04</pdfrwt>
<pdfrwt beam="2">  1       -2 0.17307585E-01 0.10000363E+04</pdfrwt>
<totfact> 0.15998119E+02</totfact>
</mgrwt>
</event>
<event>
 9    1  0.4296086E-036  0.1000146E+04  0.7818608E-02  0.8680899E-01
          3   -1    0    0  501    0  0.00000000000E+00  0.00000000000E+00  0.36669211232E+03  0.36669211232E+03  0.00000000000E+00 0.  1.
         -3   -1    0    0    0  501 -0.00000000000E+00 -0.00000000000E+00 -0.68196954547E+03  0.68196954547E+03  0.00000000000E+00 0.  1.
         36    2    1    2    0    0 -0.14210854715E-13 -0.42632564146E-13 -0.31527743315E+03  0.10486616578E+04  0.10001456957E+04 0.  0.
         25    2    3    3    0    0  0.94185280397E+02  0.80355811909E+02 -0.12973847145E+03  0.21812625582E+03  0.12417354369E+03 0.  0.
         35    2    3    3    0    0 -0.94185280397E+02 -0.80355811909E+02 -0.18553896170E+03  0.83053540197E+03  0.80002276472E+03 0.  0.
         22    1    5    5    0    0 -0.28146763029E+03 -0.33306239873E+03 -0.25946954909E+03  0.50742392066E+03  0.00000000000E+00 0.  1.
         22    1    5    5    0    0  0.18728234990E+03  0.25270658682E+03  0.73930587385E+02  0.32311148131E+03  0.00000000000E+00 0.  1.
          5    1    4    4  502    0  0.87506722448E+02  0.10648504658E+03 -0.75141472119E+02  0.15705038189E+03  0.47000000000E+01 0.  1.
         -5    1    4    4    0  502  0.66785579491E+01 -0.26129234669E+02 -0.54596999329E+02  0.61075873931E+02  0.47000000000E+01 0.  1.
<mgrwt>
<rscale>  0 0.10001457E+04</rscale>
<asrwt>0</asrwt>
<pdfrwt beam="1">  1        3 0.56414172E-01 0.10001457E+04</pdfrwt>
<pdfrwt beam="2">  1       -3 0.10491839E+00 0.10001457E+04</pdfrwt>
<totfact> 0.88203839E+00</totfact>
</mgrwt>
</event>
<event>
 9    1  0.4296086E-036  0.1014498E+04  0.7818608E-02  0.8667353E-01
          2   -1    0    0  501    0  0.00000000000E+00  0.00000000000E+00  0.49244646852E+03  0.49244646852E+03  0.00000000000E+00 0. -1.
         -2   -1    0    0    0  501 -0.00000000000E+00 -0.00000000000E+00 -0.52249638213E+03  0.52249638213E+03  0.00000000000E+00 0. -1.
         36    2    1    2    0    0 -0.56843418861E-13  0.00000000000E+00 -0.30049913616E+02  0.10149428507E+04  0.10144979018E+04 0.  0.
         25    2    3    3    0    0 -0.13164513484E+03  0.67812218484E+02  0.15523473242E+02  0.20088742119E+03  0.13485488226E+03 0.  0.
         35    2    3    3    0    0  0.13164513484E+03 -0.67812218484E+02 -0.45573386857E+02  0.81405542946E+03  0.79917480574E+03 0.  0.
         22    1    5    5    0    0  0.27469669859E+03  0.28952626424E+03  0.84142774566E+02  0.40787711435E+03  0.00000000000E+00 0.  1.
         22    1    5    5    0    0 -0.14305156375E+03 -0.35733848272E+03 -0.12971616142E+03  0.40617831510E+03  0.00000000000E+00 0.  1.
          5    1    4    4  502    0 -0.70109355565E+02  0.72531751124E+02 -0.48332871992E+02  0.11195683621E+03  0.47000000000E+01 0. -1.
         -5    1    4    4    0  502 -0.61535779275E+02 -0.47195326401E+01  0.63856345233E+02  0.88930584985E+02  0.47000000000E+01 0. -1.
<mgrwt>
<rscale>  0 0.10144979E+04</rscale>
<asrwt>0</asrwt>
<pdfrwt beam="1">  1        2 0.75760996E-01 0.10144979E+04</pdfrwt>
<pdfrwt beam="2">  1       -2 0.80384058E-01 0.10144979E+04</pdfrwt>
<totfact> 0.10321969E+02</totfact>
</mgrwt>
</event>
<event>
 9    1  0.4296086E-036  0.9999996E+03  0.7818608E-02  0.8681038E-01
         -2   -1    0    0    0  501 -0.00000000000E+00  0.00000000000E+00  0.22483060253E+03  0.22483060253E+03  0.00000000000E+00 0. -1.
          2   -1    0    0  501    0  0.00000000000E+00 -0.00000000000E+00 -0.11119472946E+04  0.11119472946E+04  0.00000000000E+00 0. -1.
         36    2    1    2    0    0 -0.14210854715E-13  0.00000000000E+00 -0.88711669202E+03  0.13367778971E+04  0.99999956044E+03 0.  0.
         25    2    3    3    0    0 -0.93955932715E+02 -0.10542088206E+03 -0.16467981191E+03  0.25030350173E+03  0.12486441791E+03 0.  0.
         35    2    3    3    0    0  0.93955932715E+02  0.10542088206E+03 -0.72243688011E+03  0.10864743954E+04  0.79910592937E+03 0.  0.
         22    1    5    5    0    0  0.18214997076E+02  0.42856325246E+03 -0.58925948746E+03  0.72885183064E+03  0.00000000000E+00 0.  1.
         22    1    5    5    0    0  0.75740935640E+02 -0.32314237039E+03 -0.13317739265E+03  0.35762256471E+03  0.00000000000E+00 0.  1.
          5    1    4    4  502    0  0.17460570863E+02  0.15624337619E+02 -0.19686337955E+02  0.30961804905E+02  0.47000000000E+01 0. -1.
         -5    1    4    4    0  502 -0.11141650358E+03 -0.12104521968E+03 -0.14499347396E+03  0.21934169683E+03  0.47000000000E+01 0. -1.
<mgrwt>
<rscale>  0 0.99999956E+03</rscale>
<asrwt>0</asrwt>
<pdfrwt beam="1">  1        2 0.17106882E+00 0.99999956E+03</pdfrwt>
<pdfrwt beam="2">  1       -2 0.34589323E-01 0.99999956E+03</pdfrwt>
<totfact> 0.20249812E+02</totfact>
</mgrwt>
</event>
<event>
 9    1  0.4296086E-036  0.9990713E+03  0.7818608E-02  0.8681923E-01
         -1   -1    0    0    0  501 -0.00000000000E+00  0.00000000000E+00  0.83334688586E+03  0.83334688586E+03  0.00000000000E+00 0. -1.
          1   -1    0    0  501    0  0.00000000000E+00 -0.00000000000E+00 -0.29943815259E+03  0.29943815259E+03  0.00000000000E+00 0. -1.
         36    2    1    2    0    0 -0.28421709430E-13  0.14210854715E-13  0.53390873327E+03  0.11327850384E+04  0.99907127266E+03 0.  0.
         25    2    3    3    0    0 -0.90230400317E+02 -0.54161207411E+02  0.20175371081E+03  0.26036761846E+03  0.12653764415E+03 0.  0.
         35    2    3    3    0    0  0.90230400317E+02  0.54161207411E+02  0.33215502246E+03  0.87241741998E+03  0.79981887588E+03 0.  0.
         22    1    5    5    0    0  0.38800015126E+03  0.87025411233E+02 -0.34272413172E+02  0.39911419154E+03  0.00000000000E+00 0.  1.
         22    1    5    5    0    0 -0.29776975095E+03 -0.32864203822E+02  0.36642743564E+03  0.47330322845E+03  0.00000000000E+00 0.  1.
          5    1    4    4  502    0 -0.13196728899E+02  0.61239438937E+01 -0.15678485386E+02  0.21898886877E+02  0.47000000000E+01 0.  1.
         -5    1    4    4    0  502 -0.77033671419E+02 -0.60285151305E+02  0.21743219619E+03  0.23846873158E+03  0.47000000000E+01 0.  1.
<mgrwt>
<rscale>  0 0.99907127E+03</rscale>
<asrwt>0</asrwt>
<pdfrwt beam="1">  1        1 0.46067408E-01 0.99907127E+03</pdfrwt>
<pdfrwt beam="2">  1       -1 0.12820721E+00 0.99907127E+03</pdfrwt>
<totfact> 0.55339069E+01</totfact>
</mgrwt>
</event>
<event>
 9    1  0.4296086E-036  0.1000170E+04  0.7818608E-02  0.8680876E-01
         -2   -1    0    0    0  501 -0.00000000000E+00  0.00000000000E+00  0.75045155024E+02  0.75045155024E+02  0.00000000000E+00 0.  1.
          2   -1    0    0  501    0  0.00000000000E+00 -0.00000000000E+00 -0.33324623586E+04  0.33324623586E+04  0.00000000000E+00 0.  1.
         36    2    1    2    0    0  0.00000000000E+00 -0.14210854715E-13 -0.32574172036E+04  0.34075075137E+04  0.10001702941E+04 0.  0.
         25    2    3    3    0    0  0.23235076892E+02 -0.25273878548E+02 -0.10746419617E+04  0.10825283857E+04  0.12583211956E+03 0.  0.
         35    2    3    3    0    0 -0.23235076892E+02  0.25273878548E+02 -0.21827752419E+04  0.23249791279E+04  0.79990096319E+03 0.  0.
         22    1    5    5    0    0  0.16997887502E+03  0.14604783227E+03 -0.12895441706E+03  0.25855759308E+03  0.00000000000E+00 0.  1.
         22    1    5    5    0    0 -0.19321395191E+03 -0.12077395372E+03 -0.20538208248E+04  0.20664215348E+04  0.00000000000E+00 0.  1.
          5    1    4    4  502    0  0.17276985970E+01 -0.73907167478E+02 -0.73403287959E+03  0.73776121657E+03  0.47000000000E+01 0.  1.
         -5    1    4    4    0  502  0.21507378295E+02  0.48633288929E+02 -0.34060908212E+03  0.34476716916E+03  0.47000000000E+01 0.  1.
<mgrwt>
<rscale>  0 0.10001703E+04</rscale>
<asrwt>0</asrwt>
<pdfrwt beam="1">  1        2 0.51268656E+00 0.10001703E+04</pdfrwt>
<pdfrwt beam="2">  1       -2 0.11545407E-01 0.10001703E+04</pdfrwt>
<totfact> 0.60710297E+01</totfact>
</mgrwt>
</event>
<event>
 9    1  0.4296086E-036  0.9962573E+03  0.7818608E-02  0.8684610E-01
          3   -1    0    0  501    0  0.00000000000E+00  0.00000000000E+00  0.23863811433E+03  0.23863811433E+03  0.00000000000E+00 0.  1.
         -3   -1    0    0    0  501 -0.00000000000E+00 -0.00000000000E+00 -0.10397841800E+04  0.10397841800E+04  0.00000000000E+00 0.  1.
         36    2    1    2    0    0 -0.14210854715E-13  0.00000000000E+00 -0.80114606565E+03  0.12784222943E+04  0.99625726802E+03 0.  0.
         25    2    3    3    0    0 -0.11754131430E+03  0.65777417705E+02 -0.13524086774E+03  0.22831048671E+03  0.12527153223E+03 0.  0.
         35    2    3    3    0    0  0.11754131430E+03 -0.65777417705E+02 -0.66590519791E+03  0.10501118076E+04  0.80072619953E+03 0.  0.
         22    1    5    5    0    0  0.85386878729E+02  0.36164889753E+03 -0.39867999355E+03  0.54500145082E+03  0.00000000000E+00 0.  1.
         22    1    5    5    0    0  0.32154435567E+02 -0.42742631523E+03 -0.26722520436E+03  0.50511035678E+03  0.00000000000E+00 0.  1.
          5    1    4    4  502    0  0.30289514934E+01 -0.28491142278E+02 -0.34174763168E+02  0.44843329192E+02  0.47000000000E+01 0. -1.
         -5    1    4    4    0  502 -0.12057026579E+03  0.94268559983E+02 -0.10106610457E+03  0.18346715752E+03  0.47000000000E+01 0. -1.
<mgrwt>
<rscale>  0 0.99625727E+03</rscale>
<asrwt>0</asrwt>
<pdfrwt beam="1">  1        3 0.36713556E-01 0.99625727E+03</pdfrwt>
<pdfrwt beam="2">  1       -3 0.15996680E+00 0.99625727E+03</pdfrwt>
<totfact> 0.62419845E+00</totfact>
</mgrwt>
</event>
<event>
 9    1  0.4296086E-036  0.1000339E+04  0.7818608E-02  0.8680715E-01
         -2   -1    0    0    0  501 -0.00000000000E+00  0.00000000000E+00  0.20113717175E+03  0.20113717175E+03  0.00000000000E+00 0.  1.
          2   -1    0    0  501    0  0.00000000000E+00 -0.00000000000E+00 -0.12437768481E+04  0.12437768481E+04  0.00000000000E+00 0.  1.
         36    2    1    2    0    0  0.71054273576E-14  0.00000000000E+00 -0.10426396763E+04  0.14449140198E+04  0.10003394574E+04 0.  0.
         25    2    3    3    0    0 -0.34828877528E+02 -0.13372523022E+03 -0.22672855482E+03  0.29343528980E+03  0.12491174413E+03 0.  0.
         35    2    3    3    0    0  0.34828877528E+02  0.13372523022E+03 -0.81591112149E+03  0.11514787300E+04  0.80068521880E+03 0.  0.
         22    1    5    5    0    0  0.22561132046E+03 -0.25983633937E+03 -0.20634849643E+03  0.40124193843E+03  0.00000000000E+00 0. -1.
         22    1    5    5    0    0 -0.19078244294E+03  0.39356156958E+03 -0.60956262505E+03  0.75023679158E+03  0.00000000000E+00 0. -1.
          5    1    4    4  502    0  0.20838877936E+00 -0.42097495008E+02  0.41244857723E+01  0.42559885981E+02  0.47000000000E+01 0.  1.
         -5    1    4    4    0  502 -0.35037266307E+02 -0.91627735207E+02 -0.23085304059E+03  0.25087540381E+03  0.47000000000E+01 0.  1.
<mgrwt>
<rscale>  0 0.10003395E+04</rscale>
<asrwt>0</asrwt>
<pdfrwt beam="1">  1        2 0.19135028E+00 0.10003395E+04</pdfrwt>
<pdfrwt beam="2">  1       -2 0.30944180E-01 0.10003395E+04</pdfrwt>
<totfact> 0.20766073E+02</totfact>
</mgrwt>
</event>
<event>
 9    1  0.4296086E-036  0.9991511E+03  0.7818608E-02  0.8681847E-01
          2   -1    0    0  501    0  0.00000000000E+00  0.00000000000E+00  0.19330556598E+04  0.19330556598E+04  0.00000000000E+00 0.  1.
         -2   -1    0    0    0  501 -0.00000000000E+00 -0.00000000000E+00 -0.12910943345E+03  0.12910943345E+03  0.00000000000E+00 0.  1.
         36    2    1    2    0    0 -0.28421709430E-13  0.14210854715E-13  0.18039462263E+04  0.20621650932E+04  0.99915108181E+03 0.  0.
         25    2    3    3    0    0 -0.68893354709E+02  0.90911020653E+02  0.17182980056E+03  0.24111672279E+03  0.12490270473E+03 0.  0.
         35    2    3    3    0    0  0.68893354709E+02 -0.90911020653E+02  0.16321164258E+04  0.18210483704E+04  0.79962618282E+03 0.  0.
         22    1    5    5    0    0 -0.25158562173E+03 -0.19391289964E+03  0.26673592445E+03  0.41478378838E+03  0.00000000000E+00 0. -1.
         22    1    5    5    0    0  0.32047897644E+03  0.10300187899E+03  0.13653805013E+04  0.14062645821E+04  0.00000000000E+00 0. -1.
          5    1    4    4  502    0 -0.74690703692E+02  0.11556173485E+03  0.11754082671E+03  0.18102804126E+03  0.47000000000E+01 0.  1.
         -5    1    4    4    0  502  0.57973489834E+01 -0.24650714198E+02  0.54288973850E+02  0.60088681525E+02  0.47000000000E+01 0.  1.
<mgrwt>
<rscale>  0 0.99915108E+03</rscale>
<asrwt>0</asrwt>
<pdfrwt beam="1">  1        2 0.29739316E+00 0.99915108E+03</pdfrwt>
<pdfrwt beam="2">  1       -2 0.19862991E-01 0.99915108E+03</pdfrwt>
<totfact> 0.18516949E+02</totfact>
</mgrwt>
</event>
<event>
 9    1  0.4296086E-036  0.1000826E+04  0.7818608E-02  0.8680252E-01
         -1   -1    0    0    0  501 -0.00000000000E+00  0.00000000000E+00  0.62091021983E+03  0.62091021983E+03  0.00000000000E+00 0.  1.
          1   -1    0    0  501    0  0.00000000000E+00 -0.00000000000E+00 -0.40329992171E+03  0.40329992171E+03  0.00000000000E+00 0.  1.
         36    2    1    2    0    0  0.14210854715E-13  0.14210854715E-13  0.21761029813E+03  0.10242101415E+04  0.10008257452E+04 0.  0.
         25    2    3    3    0    0 -0.77519566337E+02 -0.68099473459E+02  0.13530804063E+03  0.21186394980E+03  0.12621903944E+03 0.  0.
         35    2    3    3    0    0  0.77519566337E+02  0.68099473459E+02  0.82302257502E+02  0.81234619173E+03  0.80155215188E+03 0.  0.
         22    1    5    5    0    0  0.10800630271E+03  0.27106989537E+03  0.36229038268E+03  0.46518659802E+03  0.00000000000E+00 0. -1.
         22    1    5    5    0    0 -0.30486736372E+02 -0.20297042191E+03 -0.27998812518E+03  0.34715959371E+03  0.00000000000E+00 0. -1.
          5    1    4    4  502    0 -0.73901124629E+02 -0.86840042464E+02  0.14916341725E+03  0.18781476045E+03  0.47000000000E+01 0.  1.
         -5    1    4    4    0  502 -0.36184417087E+01  0.18740569004E+02 -0.13855376629E+02  0.24049189353E+02  0.47000000000E+01 0.  1.
<mgrwt>
<rscale>  0 0.10008257E+04</rscale>
<asrwt>0</asrwt>
<pdfrwt beam="1">  1        1 0.62046142E-01 0.10008257E+04</pdfrwt>
<pdfrwt beam="2">  1       -1 0.95524649E-01 0.10008257E+04</pdfrwt>
<totfact> 0.74985480E+01</totfact>
</mgrwt>
</event>
<event>
 9    1  0.4296086E-036  0.1000295E+04  0.7818608E-02  0.8680757E-01
         -1   -1    0    0    0  501 -0.00000000000E+00  0.00000000000E+00  0.48261640493E+03  0.48261640493E+03  0.00000000000E+00 0.  1.
          1   -1    0    0  501    0  0.00000000000E+00 -0.00000000000E+00 -0.51831548100E+03  0.51831548100E+03  0.00000000000E+00 0.  1.
         36    2    1    2    0    0 -0.14210854715E-13 -0.71054273576E-14 -0.35699076072E+02  0.10009318859E+04  0.10002950646E+04 0.  0.
         25    2    3    3    0    0  0.86775963493E+02  0.37929966807E+02  0.91635284971E+02  0.18316855285E+03  0.12722005769E+03 0.  0.
         35    2    3    3    0    0 -0.86775963493E+02 -0.37929966807E+02 -0.12733436104E+03  0.81776333309E+03  0.80221822419E+03 0.  0.
         22    1    5    5    0    0  0.30841811695E+03  0.57593708363E+02 -0.24096910612E+03  0.39560697695E+03  0.00000000000E+00 0. -1.
         22    1    5    5    0    0 -0.39519408045E+03 -0.95523675170E+02  0.11363474508E+03  0.42215635614E+03  0.00000000000E+00 0. -1.
          5    1    4    4  502    0  0.12194351852E+02  0.60528596554E+02  0.84515258723E+02  0.10477276447E+03  0.47000000000E+01 0.  1.
         -5    1    4    4    0  502  0.74581611641E+02 -0.22598629747E+02  0.71200262480E+01  0.78395788377E+02  0.47000000000E+01 0.  1.
<mgrwt>
<rscale>  0 0.10002951E+04</rscale>
<asrwt>0</asrwt>
<pdfrwt beam="1">  1        1 0.79740842E-01 0.10002951E+04</pdfrwt>
<pdfrwt beam="2">  1       -1 0.74248679E-01 0.10002951E+04</pdfrwt>
<totfact> 0.90645178E+01</totfact>
</mgrwt>
</event>
<event>
 9    1  0.4296086E-036  0.9999235E+03  0.7818608E-02  0.8681111E-01
         -2   -1    0    0    0  501 -0.00000000000E+00  0.00000000000E+00  0.21379828529E+03  0.21379828529E+03  0.00000000000E+00 0.  1.
          2   -1    0    0  501    0  0.00000000000E+00 -0.00000000000E+00 -0.11691475502E+04  0.11691475502E+04  0.00000000000E+00 0.  1.
         36    2    1    2    0    0  0.00000000000E+00  0.14210854715E-13 -0.95534926489E+03  0.13829458355E+04  0.99992348003E+03 0.  0.
         25    2    3    3    0    0 -0.13526838665E+03 -0.21265710078E+02 -0.22504631384E+03  0.29133475978E+03  0.12441998245E+03 0.  0.
         35    2    3    3    0    0  0.13526838665E+03  0.21265710078E+02 -0.73030295105E+03  0.10916110757E+04  0.79970155270E+03 0.  0.
         22    1    5    5    0    0  0.64009623746E+02  0.41002861479E+03 -0.40250271380E+03  0.57812553265E+03  0.00000000000E+00 0.  1.
         22    1    5    5    0    0  0.71258762907E+02 -0.38876290471E+03 -0.32780023725E+03  0.51348554304E+03  0.00000000000E+00 0.  1.
          5    1    4    4  502    0 -0.36486949535E+02  0.37910250275E+02 -0.13536044559E+03  0.14530321673E+03  0.47000000000E+01 0. -1.
         -5    1    4    4    0  502 -0.98781437118E+02 -0.59175960353E+02 -0.89685868252E+02  0.14603154305E+03  0.47000000000E+01 0. -1.
<mgrwt>
<rscale>  0 0.99992348E+03</rscale>
<asrwt>0</asrwt>
<pdfrwt beam="1">  1        2 0.17986885E+00 0.99992348E+03</pdfrwt>
<pdfrwt beam="2">  1       -2 0.32892045E-01 0.99992348E+03</pdfrwt>
<totfact> 0.20542796E+02</totfact>
</mgrwt>
</event>
<event>
 9    1  0.4296086E-036  0.1000202E+04  0.7818608E-02  0.8680845E-01
          2   -1    0    0  501    0  0.00000000000E+00  0.00000000000E+00  0.32697980864E+04  0.32697980864E+04  0.00000000000E+00 0. -1.
         -2   -1    0    0    0  501 -0.00000000000E+00 -0.00000000000E+00 -0.76488231462E+02  0.76488231462E+02  0.00000000000E+00 0. -1.
         36    2    1    2    0    0  0.00000000000E+00  0.28421709430E-13  0.31933098550E+04  0.33462863179E+04  0.10002021253E+04 0.  0.
         25    2    3    3    0    0  0.88044828919E+02 -0.10791225218E+03  0.68303555203E+03  0.70815876659E+03  0.12471698879E+03 0.  0.
         35    2    3    3    0    0 -0.88044828919E+02  0.10791225218E+03  0.25102743029E+04  0.26381275513E+04  0.79927651966E+03 0.  0.
         22    1    5    5    0    0 -0.33215166436E+03 -0.22273901714E+03  0.12794889048E+04  0.13405331982E+04  0.00000000000E+00 0.  1.
         22    1    5    5    0    0  0.24410683544E+03  0.33065126931E+03  0.12307853981E+04  0.12975943531E+04  0.00000000000E+00 0.  1.
          5    1    4    4  502    0  0.79910515838E+02 -0.82817365314E+01  0.21556950641E+03  0.23010123814E+03  0.47000000000E+01 0. -1.
         -5    1    4    4    0  502  0.81343130807E+01 -0.99630515645E+02  0.46746604562E+03  0.47805752845E+03  0.47000000000E+01 0. -1.
<mgrwt>
<rscale>  0 0.10002021E+04</rscale>
<asrwt>0</asrwt>
<pdfrwt beam="1">  1        2 0.50304575E+00 0.10002021E+04</pdfrwt>
<pdfrwt beam="2">  1       -2 0.11767423E-01 0.10002021E+04</pdfrwt>
<totfact> 0.65255471E+01</totfact>
</mgrwt>
</event>
<event>
 9    1  0.4296086E-036  0.1000566E+04  0.7818608E-02  0.8680499E-01
         -2   -1    0    0    0  501 -0.00000000000E+00  0.00000000000E+00  0.18472504707E+03  0.18472504707E+03  0.00000000000E+00 0.  1.
          2   -1    0    0  501    0  0.00000000000E+00 -0.00000000000E+00 -0.13548958436E+04  0.13548958436E+04  0.00000000000E+00 0.  1.
         36    2    1    2    0    0  0.42632564146E-13 -0.14210854715E-13 -0.11701707965E+04  0.15396208907E+04  0.10005662367E+04 0.  0.
         25    2    3    3    0    0 -0.91757168827E+02 -0.99600313924E+02 -0.27183029587E+03  0.32811854248E+03  0.12421943327E+03 0.  0.
         35    2    3    3    0    0  0.91757168827E+02  0.99600313924E+02 -0.89834050068E+03  0.12115023482E+04  0.80148779404E+03 0.  0.
         22    1    5    5    0    0 -0.28464632098E+03  0.15664033985E+03 -0.72242567872E+03  0.79212283478E+03  0.00000000000E+00 0.  1.
         22    1    5    5    0    0  0.37640348981E+03 -0.57040025921E+02 -0.17591482196E+03  0.41937951343E+03  0.00000000000E+00 0.  1.
          5    1    4    4  502    0 -0.79300221068E+00  0.15305307718E+02 -0.10412609765E+03  0.10535281443E+03  0.47000000000E+01 0. -1.
         -5    1    4    4    0  502 -0.90964166616E+02 -0.11490562164E+03 -0.16770419822E+03  0.22276572805E+03  0.47000000000E+01 0. -1.
<mgrwt>
<rscale>  0 0.10005662E+04</rscale>
<asrwt>0</asrwt>
<pdfrwt beam="1">  1        2 0.20844551E+00 0.10005662E+04</pdfrwt>
<pdfrwt beam="2">  1       -2 0.28419239E-01 0.10005662E+04</pdfrwt>
<totfact> 0.20900345E+02</totfact>
</mgrwt>
</event>
<event>
 9    1  0.4296086E-036  0.1001047E+04  0.7818608E-02  0.8680042E-01
          1   -1    0    0  501    0  0.00000000000E+00  0.00000000000E+00  0.99598866287E+03  0.99598866287E+03  0.00000000000E+00 0.  1.
         -1   -1    0    0    0  501 -0.00000000000E+00 -0.00000000000E+00 -0.25153253032E+03  0.25153253032E+03  0.00000000000E+00 0.  1.
         36    2    1    2    0    0  0.00000000000E+00  0.00000000000E+00  0.74445613255E+03  0.12475211932E+04  0.10010465494E+04 0.  0.
         25    2    3    3    0    0  0.18396136238E+02  0.88545736692E+02  0.15083993662E+01  0.15431221688E+03  0.12502487631E+03 0.  0.
         35    2    3    3    0    0 -0.18396136238E+02 -0.88545736692E+02  0.74294773319E+03  0.10932089763E+04  0.79684111736E+03 0.  0.
         22    1    5    5    0    0 -0.11129446589E+02  0.91111789524E+02  0.86886415886E+03  0.87369911831E+03  0.00000000000E+00 0.  1.
         22    1    5    5    0    0 -0.72666896484E+01 -0.17965752622E+03 -0.12591642568E+03  0.21950985800E+03  0.00000000000E+00 0.  1.
          5    1    4    4  502    0  0.70734544032E+02  0.56830843455E+02  0.13256585246E+02  0.91820191350E+02  0.47000000000E+01 0.  1.
         -5    1    4    4    0  502 -0.52338407794E+02  0.31714893237E+02 -0.11748185880E+02  0.62492025531E+02  0.47000000000E+01 0.  1.
<mgrwt>
<rscale>  0 0.10010465E+04</rscale>
<asrwt>0</asrwt>
<pdfrwt beam="1">  1        1 0.15322902E+00 0.10010465E+04</pdfrwt>
<pdfrwt beam="2">  1       -1 0.38697313E-01 0.10010465E+04</pdfrwt>
<totfact> 0.11042558E+02</totfact>
</mgrwt>
</event>
<event>
 9    1  0.4296086E-036  0.1008287E+04  0.7818608E-02  0.8673186E-01
         -3   -1    0    0    0  501 -0.00000000000E+00  0.00000000000E+00  0.18263983327E+04  0.18263983327E+04  0.00000000000E+00 0.  1.
          3   -1    0    0  501    0  0.00000000000E+00 -0.00000000000E+00 -0.13915956154E+03  0.13915956154E+03  0.00000000000E+00 0.  1.
         36    2    1    2    0    0  0.00000000000E+00  0.28421709430E-13  0.16872387712E+04  0.19655578943E+04  0.10082872432E+04 0.  0.
         25    2    3    3    0    0 -0.11905904328E+03  0.80722417400E+02  0.23246423013E+03  0.29859604582E+03  0.12012000595E+03 0.  0.
         35    2    3    3    0    0  0.11905904328E+03 -0.80722417400E+02  0.14547745410E+04  0.16669618484E+04  0.80106284050E+03 0.  0.
         22    1    5    5    0    0  0.11985130652E+03 -0.35394343571E+03  0.29685836772E+03  0.47724750585E+03  0.00000000000E+00 0. -1.
         22    1    5    5    0    0 -0.79226324160E+00  0.27322101831E+03  0.11579161733E+04  0.11897143426E+04  0.00000000000E+00 0. -1.
          5    1    4    4  502    0  0.20890481832E+02  0.32599349215E+02  0.41467321873E+02  0.56927660972E+02  0.47000000000E+01 0. -1.
         -5    1    4    4    0  502 -0.13994952511E+03  0.48123068185E+02  0.19099690825E+03  0.24166838484E+03  0.47000000000E+01 0. -1.
<mgrwt>
<rscale>  0 0.10082872E+04</rscale>
<asrwt>0</asrwt>
<pdfrwt beam="1">  1        3 0.21409165E-01 0.10082872E+04</pdfrwt>
<pdfrwt beam="2">  1       -3 0.28098434E+00 0.10082872E+04</pdfrwt>
<totfact> 0.19621454E+00</totfact>
</mgrwt>
</event>
<event>
 9    1  0.4296086E-036  0.9995528E+03  0.7818608E-02  0.8681464E-01
         -2   -1    0    0    0  501 -0.00000000000E+00  0.00000000000E+00  0.32485080641E+03  0.32485080641E+03  0.00000000000E+00 0. -1.
          2   -1    0    0  501    0  0.00000000000E+00 -0.00000000000E+00 -0.76889586775E+03  0.76889586775E+03  0.00000000000E+00 0. -1.
         36    2    1    2    0    0 -0.12434497876E-13 -0.14210854715E-13 -0.44404506134E+03  0.10937466742E+04  0.99955278537E+03 0.  0.
         25    2    3    3    0    0 -0.62140874111E+01  0.57241110517E+02  0.55977360130E+02  0.14863222182E+03  0.12507163107E+03 0.  0.
         35    2    3    3    0    0  0.62140874111E+01 -0.57241110517E+02 -0.50002242147E+03  0.94511445235E+03  0.79993983927E+03 0.  0.
         22    1    5    5    0    0 -0.36173428515E+03 -0.19274888468E+03 -0.25880463451E+03  0.48475113661E+03  0.00000000000E+00 0. -1.
         22    1    5    5    0    0  0.36794837257E+03  0.13550777416E+03 -0.24121778697E+03  0.46036331574E+03  0.00000000000E+00 0. -1.
          5    1    4    4  502    0 -0.20656011204E+02 -0.60387581431E+01  0.77122157233E+02  0.80206324782E+02  0.47000000000E+01 0.  1.
         -5    1    4    4    0  502  0.14441923792E+02  0.63279868660E+02 -0.21144797103E+02  0.68425897035E+02  0.47000000000E+01 0.  1.
<mgrwt>
<rscale>  0 0.99955279E+03</rscale>
<asrwt>0</asrwt>
<pdfrwt beam="1">  1        2 0.11829167E+00 0.99955279E+03</pdfrwt>
<pdfrwt beam="2">  1       -2 0.49977048E-01 0.99955279E+03</pdfrwt>
<totfact> 0.16642580E+02</totfact>
</mgrwt>
</event>
<event>
 9    1  0.4296086E-036  0.1000199E+04  0.7818608E-02  0.8680848E-01
          2   -1    0    0  501    0  0.00000000000E+00  0.00000000000E+00  0.12305913476E+04  0.12305913476E+04  0.00000000000E+00 0.  1.
         -2   -1    0    0    0  501 -0.00000000000E+00 -0.00000000000E+00 -0.20323523049E+03  0.20323523049E+03  0.00000000000E+00 0.  1.
         36    2    1    2    0    0  0.28421709430E-13  0.00000000000E+00  0.10273561171E+04  0.14338265781E+04  0.10001990125E+04 0.  0.
         25    2    3    3    0    0 -0.64691623846E+02  0.11806771619E+03  0.13803154201E+03  0.22995063885E+03  0.12529803637E+03 0.  0.
         35    2    3    3    0    0  0.64691623846E+02 -0.11806771619E+03  0.88932457511E+03  0.12038759392E+04  0.80018378225E+03 0.  0.
         22    1    5    5    0    0  0.15990476670E+03 -0.24377505798E+03 -0.91336882787E+01  0.29168345440E+03  0.00000000000E+00 0.  1.
         22    1    5    5    0    0 -0.95213142850E+02  0.12570734180E+03  0.89845826339E+03  0.91219248484E+03  0.00000000000E+00 0.  1.
          5    1    4    4  502    0  0.25385880810E+01  0.26060147892E+02  0.10908891787E+03  0.11228560789E+03  0.47000000000E+01 0. -1.
         -5    1    4    4    0  502 -0.67230211927E+02  0.92007568296E+02  0.28942624145E+02  0.11766503096E+03  0.47000000000E+01 0. -1.
<mgrwt>
<rscale>  0 0.10001990E+04</rscale>
<asrwt>0</asrwt>
<pdfrwt beam="1">  1        2 0.18932174E+00 0.10001990E+04</pdfrwt>
<pdfrwt beam="2">  1       -2 0.31266959E-01 0.10001990E+04</pdfrwt>
<totfact> 0.20740824E+02</totfact>
</mgrwt>
</event>
<event>
 9    1  0.4296086E-036  0.9986004E+03  0.7818608E-02  0.8682372E-01
         -1   -1    0    0    0  501 -0.00000000000E+00  0.00000000000E+00  0.90066561346E+03  0.90066561346E+03  0.00000000000E+00 0.  1.
          1   -1    0    0  501    0  0.00000000000E+00 -0.00000000000E+00 -0.27679602851E+03  0.27679602851E+03  0.00000000000E+00 0.  1.
         36    2    1    2    0    0  0.14210854715E-13 -0.53290705182E-14  0.62386958495E+03  0.11774616420E+04  0.99860035013E+03 0.  0.
         25    2    3    3    0    0  0.36957764810E+02  0.41400967606E+01 -0.39699146545E+02  0.13727395737E+03  0.12603610735E+03 0.  0.
         35    2    3    3    0    0 -0.36957764810E+02 -0.41400967606E+01  0.66356873149E+03  0.10401876846E+04  0.80017744344E+03 0.  0.
         22    1    5    5    0    0 -0.33883544051E+03  0.21573263890E+03  0.21200629802E+03  0.45419896261E+03  0.00000000000E+00 0.  1.
         22    1    5    5    0    0  0.30187767570E+03 -0.21987273566E+03  0.45156243347E+03  0.58598872199E+03  0.00000000000E+00 0.  1.
          5    1    4    4  502    0 -0.25138774609E+02  0.17744354808E+02  0.29714159143E+02  0.43033026502E+02  0.47000000000E+01 0.  1.
         -5    1    4    4    0  502  0.62096539419E+02 -0.13604258047E+02 -0.69413305688E+02  0.94240930871E+02  0.47000000000E+01 0.  1.
<mgrwt>
<rscale>  0 0.99860035E+03</rscale>
<asrwt>0</asrwt>
<pdfrwt beam="1">  1        1 0.42584005E-01 0.99860035E+03</pdfrwt>
<pdfrwt beam="2">  1       -1 0.13856394E+00 0.99860035E+03</pdfrwt>
<totfact> 0.49902894E+01</totfact>
</mgrwt>
</event>
<event>
 9    1  0.4296086E-036  0.9992651E+03  0.7818608E-02  0.8681738E-01
         -1   -1    0    0    0  501 -0.00000000000E+00  0.00000000000E+00  0.69862711113E+03  0.69862711113E+03  0.00000000000E+00 0. -1.
          1   -1    0    0  501    0  0.00000000000E+00 -0.00000000000E+00 -0.35731888644E+03  0.35731888644E+03  0.00000000000E+00 0. -1.
         36    2    1    2    0    0  0.00000000000E+00  0.00000000000E+00  0.34130822469E+03  0.10559459976E+04  0.99926505269E+03 0.  0.
         25    2    3    3    0    0 -0.11969762763E+03 -0.98861258489E+01 -0.12759085816E+02  0.17382563154E+03  0.12500919312E+03 0.  0.
         35    2    3    3    0    0  0.11969762763E+03  0.98861258489E+01  0.35406731050E+03  0.88212036602E+03  0.79896647129E+03 0.  0.
         22    1    5    5    0    0 -0.35714519124E+02 -0.37611146230E+03  0.25053440585E+03  0.45332421893E+03  0.00000000000E+00 0.  1.
         22    1    5    5    0    0  0.15541214676E+03  0.38599758815E+03  0.10353290466E+03  0.42879614710E+03  0.00000000000E+00 0.  1.
          5    1    4    4  502    0 -0.50492912486E+02 -0.64419214116E+02  0.10298059128E+02  0.82628744275E+02  0.47000000000E+01 0. -1.
         -5    1    4    4    0  502 -0.69204715147E+02  0.54533088267E+02 -0.23057144944E+02  0.91196887269E+02  0.47000000000E+01 0. -1.
<mgrwt>
<rscale>  0 0.99926505E+03</rscale>
<asrwt>0</asrwt>
<pdfrwt beam="1">  1        1 0.54972136E-01 0.99926505E+03</pdfrwt>
<pdfrwt beam="2">  1       -1 0.10748109E+00 0.99926505E+03</pdfrwt>
<totfact> 0.67521475E+01</totfact>
</mgrwt>
</event>
<event>
 9    1  0.4296086E-036  0.9994207E+03  0.7818608E-02  0.8681590E-01
         -2   -1    0    0    0  501 -0.00000000000E+00  0.00000000000E+00  0.16762698109E+03  0.16762698109E+03  0.00000000000E+00 0.  1.
          2   -1    0    0  501    0  0.00000000000E+00 -0.00000000000E+00 -0.14896793831E+04  0.14896793831E+04  0.00000000000E+00 0.  1.
         36    2    1    2    0    0  0.42632564146E-13  0.00000000000E+00 -0.13220524020E+04  0.16573063642E+04  0.99942074781E+03 0.  0.
         25    2    3    3    0    0 -0.22122582811E+02 -0.11182873958E+03 -0.37898558691E+03  0.41538020283E+03  0.12615689497E+03 0.  0.
         35    2    3    3    0    0  0.22122582811E+02  0.11182873958E+03 -0.94306681510E+03  0.12419261614E+04  0.80000656053E+03 0.  0.
         22    1    5    5    0    0 -0.29455380613E+03  0.27113432808E+03 -0.71786431297E+03  0.82195190882E+03  0.00000000000E+00 0. -1.
         22    1    5    5    0    0  0.31667638894E+03 -0.15930558850E+03 -0.22520250213E+03  0.41997425255E+03  0.00000000000E+00 0. -1.
          5    1    4    4  502    0 -0.49921824455E+02 -0.12732479431E+03 -0.28757104468E+03  0.31846975923E+03  0.47000000000E+01 0. -1.
         -5    1    4    4    0  502  0.27799241644E+02  0.15496054725E+02 -0.91414542228E+02  0.96910443600E+02  0.47000000000E+01 0. -1.
<mgrwt>
<rscale>  0 0.99942075E+03</rscale>
<asrwt>0</asrwt>
<pdfrwt beam="1">  1        2 0.22918145E+00 0.99942075E+03</pdfrwt>
<pdfrwt beam="2">  1       -2 0.25788766E-01 0.99942075E+03</pdfrwt>
<totfact> 0.20845052E+02</totfact>
</mgrwt>
</event>
<event>
 9    1  0.4296086E-036  0.9953580E+03  0.7818608E-02  0.8685471E-01
         -2   -1    0    0    0  501 -0.00000000000E+00  0.00000000000E+00  0.10110272827E+03  0.10110272827E+03  0.00000000000E+00 0. -1.
          2   -1    0    0  501    0  0.00000000000E+00 -0.00000000000E+00 -0.24498290958E+04  0.24498290958E+04  0.00000000000E+00 0. -1.
         36    2    1    2    0    0 -0.23092638912E-13  0.00000000000E+00 -0.23487263676E+04  0.25509318241E+04  0.99535803684E+03 0.  0.
         25    2    3    3    0    0  0.13984647508E+02 -0.12298129986E+03 -0.29402924926E+03  0.34253383272E+03  0.12472472351E+03 0.  0.
         35    2    3    3    0    0 -0.13984647508E+02  0.12298129986E+03 -0.20546971183E+04  0.22083979914E+04  0.79995091716E+03 0.  0.
         22    1    5    5    0    0  0.31244202177E+03  0.19921313200E+03 -0.52621352349E+03  0.64358881379E+03  0.00000000000E+00 0.  1.
         22    1    5    5    0    0 -0.32642666928E+03 -0.76231832132E+02 -0.15284835948E+04  0.15648091776E+04  0.00000000000E+00 0.  1.
          5    1    4    4  502    0  0.23058783698E+02 -0.16631414798E+02 -0.19415553748E+03  0.19628238382E+03  0.47000000000E+01 0.  1.
         -5    1    4    4    0  502 -0.90741361899E+01 -0.10634988506E+03 -0.99873711784E+02  0.14625144890E+03  0.47000000000E+01 0.  1.
<mgrwt>
<rscale>  0 0.99535804E+03</rscale>
<asrwt>0</asrwt>
<pdfrwt beam="1">  1        2 0.37689677E+00 0.99535804E+03</pdfrwt>
<pdfrwt beam="2">  1       -2 0.15554267E-01 0.99535804E+03</pdfrwt>
<totfact> 0.14053385E+02</totfact>
</mgrwt>
</event>
<event>
 9    1  0.4296086E-036  0.9999019E+03  0.7818608E-02  0.8681131E-01
          2   -1    0    0  501    0  0.00000000000E+00  0.00000000000E+00  0.70008534479E+03  0.70008534479E+03  0.00000000000E+00 0.  1.
         -2   -1    0    0    0  501 -0.00000000000E+00 -0.00000000000E+00 -0.35702927747E+03  0.35702927747E+03  0.00000000000E+00 0.  1.
         36    2    1    2    0    0  0.14210854715E-13 -0.21316282073E-13  0.34305606732E+03  0.10571146223E+04  0.99990192482E+03 0.  0.
         25    2    3    3    0    0  0.49630900036E+02  0.29480778530E+02 -0.66422651537E+02  0.15259596220E+03  0.12466441554E+03 0.  0.
         35    2    3    3    0    0 -0.49630900036E+02 -0.29480778530E+02  0.40947871886E+03  0.90451866005E+03  0.80445561881E+03 0.  0.
         22    1    5    5    0    0  0.13366077656E+03 -0.28185588622E+03  0.49138033708E+03  0.58203314292E+03  0.00000000000E+00 0. -1.
         22    1    5    5    0    0 -0.18329167660E+03  0.25237510769E+03 -0.81901618220E+02  0.32248551713E+03  0.00000000000E+00 0. -1.
          5    1    4    4  502    0 -0.21385833582E+02  0.55900976825E+02 -0.40307077542E+02  0.72311987858E+02  0.47000000000E+01 0.  1.
         -5    1    4    4    0  502  0.71016733618E+02 -0.26420198296E+02 -0.26115573994E+02  0.80283974346E+02  0.47000000000E+01 0.  1.
<mgrwt>
<rscale>  0 0.99990192E+03</rscale>
<asrwt>0</asrwt>
<pdfrwt beam="1">  1        2 0.10770544E+00 0.99990192E+03</pdfrwt>
<pdfrwt beam="2">  1       -2 0.54927581E-01 0.99990192E+03</pdfrwt>
<totfact> 0.15456370E+02</totfact>
</mgrwt>
</event>
<event>
 9    1  0.4296086E-036  0.9999042E+03  0.7818608E-02  0.8681129E-01
          2   -1    0    0  501    0  0.00000000000E+00  0.00000000000E+00  0.31122439084E+03  0.31122439084E+03  0.00000000000E+00 0.  1.
         -2   -1    0    0    0  501 -0.00000000000E+00 -0.00000000000E+00 -0.80312496757E+03  0.80312496757E+03  0.00000000000E+00 0.  1.
         36    2    1    2    0    0  0.28421709430E-13  0.88817841970E-14 -0.49190057673E+03  0.11143493584E+04  0.99990415301E+03 0.  0.
         25    2    3    3    0    0 -0.84715984762E+02  0.56375820667E+01 -0.21708191758E+03  0.26362545007E+03  0.12314722319E+03 0.  0.
         35    2    3    3    0    0  0.84715984762E+02 -0.56375820667E+01 -0.27481865915E+03  0.85072390834E+03  0.80062306511E+03 0.  0.
         22    1    5    5    0    0  0.35409794526E+03  0.14615995478E+03  0.67993592715E+02  0.38906453947E+03  0.00000000000E+00 0.  1.
         22    1    5    5    0    0 -0.26938196050E+03 -0.15179753685E+03 -0.34281225187E+03  0.46165936887E+03  0.00000000000E+00 0.  1.
          5    1    4    4  502    0 -0.68010879818E+02 -0.32155148702E+00 -0.28072394081E+02  0.73727420126E+02  0.47000000000E+01 0. -1.
         -5    1    4    4    0  502 -0.16705104944E+02  0.59591335538E+01 -0.18900952350E+03  0.18989802995E+03  0.47000000000E+01 0. -1.
<mgrwt>
<rscale>  0 0.99990415E+03</rscale>
<asrwt>0</asrwt>
<pdfrwt beam="1">  1        2 0.47880676E-01 0.99990415E+03</pdfrwt>
<pdfrwt beam="2">  1       -2 0.12355769E+00 0.99990415E+03</pdfrwt>
<totfact> 0.60446673E+01</totfact>
</mgrwt>
</event>
<event>
 9    1  0.4296086E-036  0.1000938E+04  0.7818608E-02  0.8680146E-01
         -1   -1    0    0    0  501 -0.00000000000E+00  0.00000000000E+00  0.35920936873E+03  0.35920936873E+03  0.00000000000E+00 0. -1.
          1   -1    0    0  501    0  0.00000000000E+00 -0.00000000000E+00 -0.69727876642E+03  0.69727876642E+03  0.00000000000E+00 0. -1.
         36    2    1    2    0    0  0.00000000000E+00  0.71054273576E-14 -0.33806939769E+03  0.10564881351E+04  0.10009376914E+04 0.  0.
         25    2    3    3    0    0 -0.13070470301E+03  0.30940987176E+02 -0.43225241998E+02  0.18851914351E+03  0.12501992580E+03 0.  0.
         35    2    3    3    0    0  0.13070470301E+03 -0.30940987176E+02 -0.29484415569E+03  0.86796899164E+03  0.80523042058E+03 0.  0.
         22    1    5    5    0    0  0.40361857343E+03 -0.12082992791E+03 -0.38095282769E+03  0.56800781793E+03  0.00000000000E+00 0. -1.
         22    1    5    5    0    0 -0.27291387043E+03  0.89888940736E+02  0.86108672004E+02  0.29996117371E+03  0.00000000000E+00 0. -1.
          5    1    4    4  502    0 -0.79661253302E+02 -0.26501207189E+02  0.22773069450E+02  0.87114476136E+02  0.47000000000E+01 0.  1.
         -5    1    4    4    0  502 -0.51043449704E+02  0.57442194365E+02 -0.65998311447E+02  0.10140466737E+03  0.47000000000E+01 0.  1.
<mgrwt>
<rscale>  0 0.10009377E+04</rscale>
<asrwt>0</asrwt>
<pdfrwt beam="1">  1        1 0.10727366E+00 0.10009377E+04</pdfrwt>
<pdfrwt beam="2">  1       -1 0.55262980E-01 0.10009377E+04</pdfrwt>
<totfact> 0.10438076E+02</totfact>
</mgrwt>
</event>
<event>
 9    1  0.4296086E-036  0.9998906E+03  0.7818608E-02  0.8681142E-01
          2   -1    0    0  501    0  0.00000000000E+00  0.00000000000E+00  0.21407771334E+04  0.21407771334E+04  0.00000000000E+00 0.  1.
         -2   -1    0    0    0  501 -0.00000000000E+00 -0.00000000000E+00 -0.11675447781E+03  0.11675447781E+03  0.00000000000E+00 0.  1.
         36    2    1    2    0    0  0.00000000000E+00 -0.71054273576E-14  0.20240226556E+04  0.22575316113E+04  0.99989062667E+03 0.  0.
         25    2    3    3    0    0 -0.12389233173E+03  0.59639899450E+02  0.43163421161E+03  0.47010589233E+03  0.12563928486E+03 0.  0.
         35    2    3    3    0    0  0.12389233173E+03 -0.59639899450E+02  0.15923884440E+04  0.17874257189E+04  0.80017717823E+03 0.  0.
         22    1    5    5    0    0  0.28905017661E+03  0.36747459466E+02  0.14137004196E+03  0.32386087930E+03  0.00000000000E+00 0.  1.
         22    1    5    5    0    0 -0.16515784488E+03 -0.96387358916E+02  0.14510184021E+04  0.14635648396E+04  0.00000000000E+00 0.  1.
          5    1    4    4  502    0 -0.87826584360E+01  0.69544743891E+02  0.14895619400E+03  0.16469257488E+03  0.47000000000E+01 0.  1.
         -5    1    4    4    0  502 -0.11510967330E+03 -0.99048444403E+01  0.28267801762E+03  0.30541331745E+03  0.47000000000E+01 0.  1.
<mgrwt>
<rscale>  0 0.99989063E+03</rscale>
<asrwt>0</asrwt>
<pdfrwt beam="1">  1        2 0.32935030E+00 0.99989063E+03</pdfrwt>
<pdfrwt beam="2">  1       -2 0.17962229E-01 0.99989063E+03</pdfrwt>
<totfact> 0.16746356E+02</totfact>
</mgrwt>
</event>
<event>
 9    1  0.4296086E-036  0.9995654E+03  0.7818608E-02  0.8681452E-01
         -2   -1    0    0    0  501 -0.00000000000E+00  0.00000000000E+00  0.19218452633E+03  0.19218452633E+03  0.00000000000E+00 0. -1.
          2   -1    0    0  501    0  0.00000000000E+00 -0.00000000000E+00 -0.12997028011E+04  0.12997028011E+04  0.00000000000E+00 0. -1.
         36    2    1    2    0    0 -0.28421709430E-13  0.71054273576E-14 -0.11075182748E+04  0.14918873274E+04  0.99956543998E+03 0.  0.
         25    2    3    3    0    0 -0.11899890471E+03  0.48406236381E+01 -0.10147559635E+03  0.20055081779E+03  0.12545582051E+03 0.  0.
         35    2    3    3    0    0  0.11899890471E+03 -0.48406236381E+01 -0.10060426784E+04  0.12913365097E+04  0.80077708470E+03 0.  0.
         22    1    5    5    0    0  0.12157967132E+03 -0.59418604836E+02 -0.11393020851E+04  0.11473105195E+04  0.00000000000E+00 0.  1.
         22    1    5    5    0    0 -0.25807666065E+01  0.54577981197E+02  0.13325940663E+03  0.14402599017E+03  0.00000000000E+00 0.  1.
          5    1    4    4  502    0 -0.46979474793E+02 -0.57901693789E+02 -0.62020262255E+02  0.97099331232E+02  0.47000000000E+01 0. -1.
         -5    1    4    4    0  502 -0.72019429917E+02  0.62742317427E+02 -0.39455334096E+02  0.10345148656E+03  0.47000000000E+01 0. -1.
<mgrwt>
<rscale>  0 0.99956544E+03</rscale>
<asrwt>0</asrwt>
<pdfrwt beam="1">  1        2 0.19995428E+00 0.99956544E+03</pdfrwt>
<pdfrwt beam="2">  1       -2 0.29566850E-01 0.99956544E+03</pdfrwt>
<totfact> 0.20933866E+02</totfact>
</mgrwt>
</event>
<event>
 9    1  0.4296086E-036  0.9996190E+03  0.7818608E-02  0.8681401E-01
          2   -1    0    0  501    0  0.00000000000E+00  0.00000000000E+00  0.51084726174E+03  0.51084726174E+03  0.00000000000E+00 0. -1.
         -2   -1    0    0    0  501 -0.00000000000E+00 -0.00000000000E+00 -0.48901018400E+03  0.48901018400E+03  0.00000000000E+00 0. -1.
         36    2    1    2    0    0  0.35527136788E-14 -0.28421709430E-13  0.21837077735E+02  0.99985744574E+03  0.99961895432E+03 0.  0.
         25    2    3    3    0    0  0.20656915099E+02  0.13748076559E+03  0.13692254887E+02  0.18757596799E+03  0.12517826039E+03 0.  0.
         35    2    3    3    0    0 -0.20656915099E+02 -0.13748076559E+03  0.81448228483E+01  0.81228147775E+03  0.80025445448E+03 0.  0.
         22    1    5    5    0    0 -0.27081785411E+03  0.21239467965E+03 -0.11836047670E+03  0.36395468466E+03  0.00000000000E+00 0. -1.
         22    1    5    5    0    0  0.25016093901E+03 -0.34987544524E+03  0.12650529955E+03  0.44832679309E+03  0.00000000000E+00 0. -1.
          5    1    4    4  502    0 -0.11203340374E+02  0.36599195321E+02 -0.50653421572E+02  0.63662194830E+02  0.47000000000E+01 0.  1.
         -5    1    4    4    0  502  0.31860255474E+02  0.10088157027E+03  0.64345676458E+02  0.12391377316E+03  0.47000000000E+01 0.  1.
<mgrwt>
<rscale>  0 0.99961895E+03</rscale>
<asrwt>0</asrwt>
<pdfrwt beam="1">  1        2 0.78591886E-01 0.99961895E+03</pdfrwt>
<pdfrwt beam="2">  1       -2 0.75232336E-01 0.99961895E+03</pdfrwt>
<totfact> 0.11504818E+02</totfact>
</mgrwt>
</event>
<event>
 9    1  0.4296086E-036  0.9992104E+03  0.7818608E-02  0.8681790E-01
         -2   -1    0    0    0  501 -0.00000000000E+00  0.00000000000E+00  0.87558968967E+03  0.87558968967E+03  0.00000000000E+00 0. -1.
          2   -1    0    0  501    0  0.00000000000E+00 -0.00000000000E+00 -0.28507114888E+03  0.28507114888E+03  0.00000000000E+00 0. -1.
         36    2    1    2    0    0 -0.14210854715E-13  0.71054273576E-14  0.59051854079E+03  0.11606608386E+04  0.99921040584E+03 0.  0.
         25    2    3    3    0    0 -0.10490665453E+03 -0.29009738005E+02  0.21549132103E+03  0.27179662839E+03  0.12485962799E+03 0.  0.
         35    2    3    3    0    0  0.10490665453E+03  0.29009738005E+02  0.37502721976E+03  0.88886421016E+03  0.79849057445E+03 0.  0.
         22    1    5    5    0    0 -0.35547930432E+02  0.17988896889E+03  0.57387051972E+03  0.60245420564E+03  0.00000000000E+00 0.  1.
         22    1    5    5    0    0  0.14045458496E+03 -0.15087923089E+03 -0.19884329996E+03  0.28641000452E+03  0.00000000000E+00 0.  1.
          5    1    4    4  502    0  0.12919445145E+02  0.58907226229E+01  0.10627942283E+03  0.10732669003E+03  0.47000000000E+01 0.  1.
         -5    1    4    4    0  502 -0.11782609968E+03 -0.34900460628E+02  0.10921189820E+03  0.16446993836E+03  0.47000000000E+01 0.  1.
<mgrwt>
<rscale>  0 0.99921041E+03</rscale>
<asrwt>0</asrwt>
<pdfrwt beam="1">  1        2 0.43857100E-01 0.99921041E+03</pdfrwt>
<pdfrwt beam="2">  1       -2 0.13470610E+00 0.99921041E+03</pdfrwt>
<totfact> 0.52985576E+01</totfact>
</mgrwt>
</event>
<event>
 9    1  0.4296086E-036  0.9997902E+03  0.7818608E-02  0.8681238E-01
         -1   -1    0    0    0  501 -0.00000000000E+00  0.00000000000E+00  0.28362085908E+03  0.28362085908E+03  0.00000000000E+00 0. -1.
          1   -1    0    0  501    0  0.00000000000E+00 -0.00000000000E+00 -0.88108854720E+03  0.88108854720E+03  0.00000000000E+00 0. -1.
         36    2    1    2    0    0  0.00000000000E+00 -0.71054273576E-14 -0.59746768812E+03  0.11647094063E+04  0.99979015935E+03 0.  0.
         25    2    3    3    0    0 -0.70207092877E+02  0.37959515218E+02 -0.24665891734E+03  0.28774068148E+03  0.12483636325E+03 0.  0.
         35    2    3    3    0    0  0.70207092877E+02 -0.37959515218E+02 -0.35080877077E+03  0.87696872480E+03  0.79977333660E+03 0.  0.
         22    1    5    5    0    0  0.26956450321E+03  0.91370158752E+02  0.15066106871E+03  0.32204391770E+03  0.00000000000E+00 0.  1.
         22    1    5    5    0    0 -0.19935741033E+03 -0.12932967397E+03 -0.50146983949E+03  0.55492480710E+03  0.00000000000E+00 0.  1.
          5    1    4    4  502    0 -0.47098147966E+02  0.76608834669E+02 -0.21321701067E+03  0.23145352175E+03  0.47000000000E+01 0. -1.
         -5    1    4    4    0  502 -0.23108944911E+02 -0.38649319451E+02 -0.33441906668E+02  0.56287159731E+02  0.47000000000E+01 0. -1.
<mgrwt>
<rscale>  0 0.99979016E+03</rscale>
<asrwt>0</asrwt>
<pdfrwt beam="1">  1        1 0.13555208E+00 0.99979016E+03</pdfrwt>
<pdfrwt beam="2">  1       -1 0.43633979E-01 0.99979016E+03</pdfrwt>
<totfact> 0.11060461E+02</totfact>
</mgrwt>
</event>
<event>
 9    1  0.4296086E-036  0.9991778E+03  0.7818608E-02  0.8681821E-01
         -1   -1    0    0    0  501 -0.00000000000E+00  0.00000000000E+00  0.10377349465E+04  0.10377349465E+04  0.00000000000E+00 0. -1.
          1   -1    0    0  501    0  0.00000000000E+00 -0.00000000000E+00 -0.24051331763E+03  0.24051331763E+03  0.00000000000E+00 0. -1.
         36    2    1    2    0    0  0.00000000000E+00 -0.28421709430E-13  0.79722162890E+03  0.12782482642E+04  0.99917781162E+03 0.  0.
         25    2    3    3    0    0 -0.13011056339E+03 -0.42386911776E+02  0.89148628875E+02  0.20532613124E+03  0.12444248930E+03 0.  0.
         35    2    3    3    0    0  0.13011056339E+03  0.42386911776E+02  0.70807300002E+03  0.10729221329E+04  0.79439859073E+03 0.  0.
         22    1    5    5    0    0  0.76303619225E+02  0.35548286633E+03  0.84773840741E+02  0.37333217733E+03  0.00000000000E+00 0.  1.
         22    1    5    5    0    0  0.53806944164E+02 -0.31309595455E+03  0.62329915928E+03  0.69958995559E+03  0.00000000000E+00 0.  1.
          5    1    4    4  502    0 -0.14793046462E+03 -0.14866898572E+02  0.57382977666E+02  0.15943444785E+03  0.47000000000E+01 0. -1.
         -5    1    4    4    0  502  0.17819901235E+02 -0.27520013204E+02  0.31765651209E+02  0.45891683380E+02  0.47000000000E+01 0. -1.
<mgrwt>
<rscale>  0 0.99917781E+03</rscale>
<asrwt>0</asrwt>
<pdfrwt beam="1">  1        1 0.37002050E-01 0.99917781E+03</pdfrwt>
<pdfrwt beam="2">  1       -1 0.15965153E+00 0.99917781E+03</pdfrwt>
<totfact> 0.39784190E+01</totfact>
</mgrwt>
</event>
<event>
 9    1  0.4296086E-036  0.9994513E+03  0.7818608E-02  0.8681561E-01
         -1   -1    0    0    0  501 -0.00000000000E+00  0.00000000000E+00  0.12520951897E+03  0.12520951897E+03  0.00000000000E+00 0.  1.
          1   -1    0    0  501    0  0.00000000000E+00 -0.00000000000E+00 -0.19944626615E+04  0.19944626615E+04  0.00000000000E+00 0.  1.
         36    2    1    2    0    0  0.00000000000E+00  0.00000000000E+00 -0.18692531426E+04  0.21196721805E+04  0.99945127035E+03 0.  0.
         25    2    3    3    0    0 -0.11118510888E+03 -0.89748259869E+02 -0.34417324999E+03  0.39320414190E+03  0.12544876488E+03 0.  0.
         35    2    3    3    0    0  0.11118510888E+03  0.89748259869E+02 -0.15250798926E+04  0.17264680386E+04  0.79649628436E+03 0.  0.
         22    1    5    5    0    0  0.25699225254E+03 -0.27073338270E+03 -0.10387983527E+04  0.11038313277E+04  0.00000000000E+00 0.  1.
         22    1    5    5    0    0 -0.14580714366E+03  0.36048164257E+03 -0.48628153982E+03  0.62263671089E+03  0.00000000000E+00 0.  1.
          5    1    4    4  502    0 -0.12390562083E+03 -0.30499338572E+02 -0.25645457933E+03  0.28648534655E+03  0.47000000000E+01 0.  1.
         -5    1    4    4    0  502  0.12720511945E+02 -0.59248921296E+02 -0.87718670660E+02  0.10671879535E+03  0.47000000000E+01 0.  1.
<mgrwt>
<rscale>  0 0.99945127E+03</rscale>
<asrwt>0</asrwt>
<pdfrwt beam="1">  1        1 0.30684038E+00 0.99945127E+03</pdfrwt>
<pdfrwt beam="2">  1       -1 0.19263005E-01 0.99945127E+03</pdfrwt>
<totfact> 0.68377121E+01</totfact>
</mgrwt>
</event>
<event>
 9    1  0.4296086E-036  0.1000007E+04  0.7818608E-02  0.8681031E-01
         -2   -1    0    0    0  501 -0.00000000000E+00  0.00000000000E+00  0.16352697711E+03  0.16352697711E+03  0.00000000000E+00 0. -1.
          2   -1    0    0  501    0  0.00000000000E+00 -0.00000000000E+00 -0.15288209631E+04  0.15288209631E+04  0.00000000000E+00 0. -1.
         36    2    1    2    0    0  0.10658141036E-13  0.00000000000E+00 -0.13652939859E+04  0.16923479402E+04  0.10000069413E+04 0.  0.
         25    2    3    3    0    0 -0.54464655060E+01 -0.17007930928E+01 -0.20139738541E+02  0.12733751801E+03  0.12560524567E+03 0.  0.
         35    2    3    3    0    0  0.54464655060E+01  0.17007930928E+01 -0.13451542474E+04  0.15650104222E+04  0.79986568591E+03 0.  0.
         22    1    5    5    0    0  0.29081071753E+03  0.45875477991E+02 -0.14047009208E+03  0.32620128706E+03  0.00000000000E+00 0. -1.
         22    1    5    5    0    0 -0.28536425203E+03 -0.44174684899E+02 -0.12046841553E+04  0.12388091351E+04  0.00000000000E+00 0. -1.
          5    1    4    4  502    0 -0.34600980305E+02  0.51821254374E+02  0.14600853171E+01  0.62505136525E+02  0.47000000000E+01 0. -1.
         -5    1    4    4    0  502  0.29154514799E+02 -0.53522047466E+02 -0.21599823858E+02  0.64832381484E+02  0.47000000000E+01 0. -1.
<mgrwt>
<rscale>  0 0.10000069E+04</rscale>
<asrwt>0</asrwt>
<pdfrwt beam="1">  1        2 0.23520322E+00 0.10000069E+04</pdfrwt>
<pdfrwt beam="2">  1       -2 0.25157997E-01 0.10000069E+04</pdfrwt>
<totfact> 0.20700310E+02</totfact>
</mgrwt>
</event>
<event>
 9    1  0.4296086E-036  0.1000653E+04  0.7818608E-02  0.8680416E-01
          2   -1    0    0  501    0  0.00000000000E+00  0.00000000000E+00  0.12256912699E+04  0.12256912699E+04  0.00000000000E+00 0. -1.
         -2   -1    0    0    0  501 -0.00000000000E+00 -0.00000000000E+00 -0.20423300012E+03  0.20423300012E+03  0.00000000000E+00 0. -1.
         36    2    1    2    0    0  0.00000000000E+00  0.21316282073E-13  0.10214582698E+04  0.14299242700E+04  0.10006529974E+04 0.  0.
         25    2    3    3    0    0  0.13228062556E+03  0.39169317120E+02  0.20016568751E+03  0.27272266046E+03  0.12360804088E+03 0.  0.
         35    2    3    3    0    0 -0.13228062556E+03 -0.39169317120E+02  0.82129258228E+03  0.11572016096E+04  0.80346851849E+03 0.  0.
         22    1    5    5    0    0 -0.25136789379E+01  0.37807863401E+03  0.36893966156E+03  0.52826721074E+03  0.00000000000E+00 0. -1.
         22    1    5    5    0    0 -0.12976694662E+03 -0.41724795113E+03  0.45235292072E+03  0.62893439884E+03  0.00000000000E+00 0. -1.
          5    1    4    4  502    0  0.12086794320E+03  0.74173378254E+02  0.18370118982E+03  0.23211843286E+03  0.47000000000E+01 0.  1.
         -5    1    4    4    0  502  0.11412682361E+02 -0.35004061134E+02  0.16464497694E+02  0.40604227598E+02  0.47000000000E+01 0.  1.
<mgrwt>
<rscale>  0 0.10006530E+04</rscale>
<asrwt>0</asrwt>
<pdfrwt beam="1">  1        2 0.18856788E+00 0.10006530E+04</pdfrwt>
<pdfrwt beam="2">  1       -2 0.31420462E-01 0.10006530E+04</pdfrwt>
<totfact> 0.20691996E+02</totfact>
</mgrwt>
</event>
<event>
 9    1  0.4296086E-036  0.9991010E+03  0.7818608E-02  0.8681895E-01
          2   -1    0    0  501    0  0.00000000000E+00  0.00000000000E+00  0.21516568234E+03  0.21516568234E+03  0.00000000000E+00 0.  1.
         -2   -1    0    0    0  501 -0.00000000000E+00 -0.00000000000E+00 -0.11598070940E+04  0.11598070940E+04  0.00000000000E+00 0.  1.
         36    2    1    2    0    0 -0.28421709430E-13 -0.71054273576E-14 -0.94464141161E+03  0.13749727763E+04  0.99910096538E+03 0.  0.
         25    2    3    3    0    0  0.13392052069E+03  0.82332562782E+01 -0.17095476902E+03  0.25446494059E+03  0.13237968338E+03 0.  0.
         35    2    3    3    0    0 -0.13392052069E+03 -0.82332562782E+01 -0.77368664260E+03  0.11205078357E+04  0.79933991303E+03 0.  0.
         22    1    5    5    0    0 -0.38882458620E+03  0.21854250487E+03 -0.30317222832E+03  0.53931325340E+03  0.00000000000E+00 0.  1.
         22    1    5    5    0    0  0.25490406551E+03 -0.22677576115E+03 -0.47051441427E+03  0.58119458230E+03  0.00000000000E+00 0.  1.
          5    1    4    4  502    0  0.15541280139E+03  0.19548142865E+02 -0.11849636315E+03  0.19646563772E+03  0.47000000000E+01 0.  1.
         -5    1    4    4    0  502 -0.21492280696E+02 -0.11314886587E+02 -0.52458405867E+02  0.57999302876E+02  0.47000000000E+01 0.  1.
<mgrwt>
<rscale>  0 0.99910097E+03</rscale>
<asrwt>0</asrwt>
<pdfrwt beam="1">  1        2 0.33102413E-01 0.99910097E+03</pdfrwt>
<pdfrwt beam="2">  1       -2 0.17843186E+00 0.99910097E+03</pdfrwt>
<totfact> 0.32730895E+01</totfact>
</mgrwt>
</event>
<event>
 9    1  0.4296086E-036  0.1000856E+04  0.7818608E-02  0.8680223E-01
         -1   -1    0    0    0  501 -0.00000000000E+00  0.00000000000E+00  0.11491328932E+04  0.11491328932E+04  0.00000000000E+00 0. -1.
          1   -1    0    0  501    0  0.00000000000E+00 -0.00000000000E+00 -0.21792791460E+03  0.21792791460E+03  0.00000000000E+00 0. -1.
         36    2    1    2    0    0 -0.12434497876E-13  0.00000000000E+00  0.93120497862E+03  0.13670608078E+04  0.10008559037E+04 0.  0.
         25    2    3    3    0    0 -0.13209672192E+02 -0.69255169748E+02  0.34342680026E+03  0.37236158819E+03  0.12546079564E+03 0.  0.
         35    2    3    3    0    0  0.13209672192E+02  0.69255169748E+02  0.58777817835E+03  0.99469921962E+03  0.79935760245E+03 0.  0.
         22    1    5    5    0    0 -0.37057649022E+03  0.16056853276E+03  0.34747010769E+03  0.53277074296E+03  0.00000000000E+00 0.  1.
         22    1    5    5    0    0  0.38378616241E+03 -0.91313363008E+02  0.24030807066E+03  0.46192847666E+03  0.00000000000E+00 0.  1.
          5    1    4    4  502    0 -0.96280160746E+00  0.63297808526E+01  0.25570025969E+03  0.25582358358E+03  0.47000000000E+01 0.  1.
         -5    1    4    4    0  502 -0.12246870584E+02 -0.75584950601E+02  0.87726540574E+02  0.11653800461E+03  0.47000000000E+01 0.  1.
<mgrwt>
<rscale>  0 0.10008559E+04</rscale>
<asrwt>0</asrwt>
<pdfrwt beam="1">  1        1 0.33527372E-01 0.10008559E+04</pdfrwt>
<pdfrwt beam="2">  1       -1 0.17678967E+00 0.10008559E+04</pdfrwt>
<totfact> 0.32502108E+01</totfact>
</mgrwt>
</event>
<event>
 9    1  0.4296086E-036  0.1001128E+04  0.7818608E-02  0.8679965E-01
         -2   -1    0    0    0  501 -0.00000000000E+00  0.00000000000E+00  0.17042727806E+03  0.17042727806E+03  0.00000000000E+00 0.  1.
          2   -1    0    0  501    0  0.00000000000E+00 -0.00000000000E+00 -0.14702114126E+04  0.14702114126E+04  0.00000000000E+00 0.  1.
         36    2    1    2    0    0  0.00000000000E+00 -0.28421709430E-13 -0.12997841346E+04  0.16406386907E+04  0.10011276227E+04 0.  0.
         25    2    3    3    0    0  0.81103367548E+02 -0.10131968014E+03 -0.33618076718E+03  0.38160816953E+03  0.12555418361E+03 0.  0.
         35    2    3    3    0    0 -0.81103367548E+02  0.10131968014E+03 -0.96360336741E+03  0.12590305212E+04  0.79986434461E+03 0.  0.
         22    1    5    5    0    0 -0.35980667014E+02  0.45224911404E+03 -0.59311790973E+03  0.74673470817E+03  0.00000000000E+00 0.  1.
         22    1    5    5    0    0 -0.45122700534E+02 -0.35092943390E+03 -0.37048545768E+03  0.51229581301E+03  0.00000000000E+00 0.  1.
          5    1    4    4  502    0  0.10661260185E+03 -0.42566724981E+02 -0.23810426036E+03  0.26437454823E+03  0.47000000000E+01 0. -1.
         -5    1    4    4    0  502 -0.25509234301E+02 -0.58752955156E+02 -0.98076506817E+02  0.11723362130E+03  0.47000000000E+01 0. -1.
<mgrwt>
<rscale>  0 0.10011276E+04</rscale>
<asrwt>0</asrwt>
<pdfrwt beam="1">  1        2 0.22618638E+00 0.10011276E+04</pdfrwt>
<pdfrwt beam="2">  1       -2 0.26219580E-01 0.10011276E+04</pdfrwt>
<totfact> 0.20758533E+02</totfact>
</mgrwt>
</event>
<event>
 9    1  0.4296086E-036  0.1000521E+04  0.7818608E-02  0.8680542E-01
          1   -1    0    0  501    0  0.00000000000E+00  0.00000000000E+00  0.94950944671E+03  0.94950944671E+03  0.00000000000E+00 0.  1.
         -1   -1    0    0    0  501 -0.00000000000E+00 -0.00000000000E+00 -0.26356845768E+03  0.26356845768E+03  0.00000000000E+00 0.  1.
         36    2    1    2    0    0 -0.14210854715E-13  0.14210854715E-13  0.68594098903E+03  0.12130779044E+04  0.10005213450E+04 0.  0.
         25    2    3    3    0    0 -0.12952339778E+02 -0.68235752760E+02  0.27776621025E+03  0.31261357872E+03  0.12549621900E+03 0.  0.
         35    2    3    3    0    0  0.12952339778E+02  0.68235752760E+02  0.40817477877E+03  0.90046432567E+03  0.79962833287E+03 0.  0.
         22    1    5    5    0    0 -0.99069445687E+02  0.22719188276E+03  0.58643462752E+03  0.63666041107E+03  0.00000000000E+00 0. -1.
         22    1    5    5    0    0  0.11202178547E+03 -0.15895613000E+03 -0.17825984875E+03  0.26380391461E+03  0.00000000000E+00 0. -1.
          5    1    4    4  502    0 -0.63717361884E+02 -0.64657141645E+02  0.15589441869E+03  0.18045943575E+03  0.47000000000E+01 0.  1.
         -5    1    4    4    0  502  0.50765022106E+02 -0.35786111146E+01  0.12187179156E+03  0.13215414297E+03  0.47000000000E+01 0.  1.
<mgrwt>
<rscale>  0 0.10005213E+04</rscale>
<asrwt>0</asrwt>
<pdfrwt beam="1">  1        1 0.14607837E+00 0.10005213E+04</pdfrwt>
<pdfrwt beam="2">  1       -1 0.40548994E-01 0.10005213E+04</pdfrwt>
<totfact> 0.11075664E+02</totfact>
</mgrwt>
</event>
<event>
 9    1  0.4296086E-036  0.1000014E+04  0.7818608E-02  0.8681025E-01
         -4   -1    0    0    0  501 -0.00000000000E+00  0.00000000000E+00  0.21440377309E+03  0.21440377309E+03  0.00000000000E+00 0. -1.
          4   -1    0    0  501    0  0.00000000000E+00 -0.00000000000E+00 -0.11660566833E+04  0.11660566833E+04  0.00000000000E+00 0. -1.
         36    2    1    2    0    0 -0.28421709430E-13  0.14210854715E-13 -0.95165291024E+03  0.13804604564E+04  0.10000139050E+04 0.  0.
         25    2    3    3    0    0 -0.13724217881E+03  0.33275063821E+02 -0.18696437580E+03  0.26532483728E+03  0.12449476271E+03 0.  0.
         35    2    3    3    0    0  0.13724217881E+03 -0.33275063821E+02 -0.76468853444E+03  0.11151356191E+04  0.79927232458E+03 0.  0.
         22    1    5    5    0    0 -0.10293735226E+03 -0.29318680344E+03 -0.68528670873E+03  0.75244433241E+03  0.00000000000E+00 0. -1.
         22    1    5    5    0    0  0.24017953108E+03  0.25991173962E+03 -0.79401825703E+02  0.36269128672E+03  0.00000000000E+00 0. -1.
          5    1    4    4  502    0 -0.35940862824E+02  0.16459971554E+02 -0.15140835554E+03  0.15655432415E+03  0.47000000000E+01 0.  1.
         -5    1    4    4    0  502 -0.10130131599E+03  0.16815092266E+02 -0.35556020264E+02  0.10877051313E+03  0.47000000000E+01 0.  1.
<mgrwt>
<rscale>  0 0.10000139E+04</rscale>
<asrwt>0</asrwt>
<pdfrwt beam="1">  1        4 0.17939334E+00 0.10000139E+04</pdfrwt>
<pdfrwt beam="2">  1       -4 0.32985196E-01 0.10000139E+04</pdfrwt>
<totfact> 0.30067848E+00</totfact>
</mgrwt>
</event>
<event>
 9    1  0.4296086E-036  0.9993974E+03  0.7818608E-02  0.8681612E-01
          1   -1    0    0  501    0  0.00000000000E+00  0.00000000000E+00  0.27049247293E+04  0.27049247293E+04  0.00000000000E+00 0. -1.
         -1   -1    0    0    0  501 -0.00000000000E+00 -0.00000000000E+00 -0.92312663623E+02  0.92312663623E+02  0.00000000000E+00 0. -1.
         36    2    1    2    0    0  0.00000000000E+00  0.10658141036E-13  0.26126120656E+04  0.27972373929E+04  0.99939743177E+03 0.  0.
         25    2    3    3    0    0 -0.12914372256E+03 -0.31060158329E+02  0.37687242983E+03  0.41868377655E+03  0.12498176614E+03 0.  0.
         35    2    3    3    0    0  0.12914372256E+03  0.31060158329E+02  0.22357396358E+04  0.23785536163E+04  0.80083878036E+03 0.  0.
         22    1    5    5    0    0  0.61746268159E+02  0.28727586364E+03  0.28311142601E+03  0.40803443850E+03  0.00000000000E+00 0. -1.
         22    1    5    5    0    0  0.67397454406E+02 -0.25621570531E+03  0.19526282098E+04  0.19705191778E+04  0.00000000000E+00 0. -1.
          5    1    4    4  502    0 -0.13886587176E+03 -0.31114884514E+02  0.22395893446E+03  0.26538945100E+03  0.47000000000E+01 0.  1.
         -5    1    4    4    0  502  0.97221491945E+01  0.54726184651E-01  0.15291349537E+03  0.15329432555E+03  0.47000000000E+01 0.  1.
<mgrwt>
<rscale>  0 0.99939743E+03</rscale>
<asrwt>0</asrwt>
<pdfrwt beam="1">  1        1 0.41614221E+00 0.99939743E+03</pdfrwt>
<pdfrwt beam="2">  1       -1 0.14201950E-01 0.99939743E+03</pdfrwt>
<totfact> 0.35583901E+01</totfact>
</mgrwt>
</event>
<event>
 9    1  0.4296086E-036  0.1000125E+04  0.7818608E-02  0.8680919E-01
         -1   -1    0    0    0  501 -0.00000000000E+00  0.00000000000E+00  0.22588556755E+03  0.22588556755E+03  0.00000000000E+00 0.  1.
          1   -1    0    0  501    0  0.00000000000E+00 -0.00000000000E+00 -0.11070311829E+04  0.11070311829E+04  0.00000000000E+00 0.  1.
         36    2    1    2    0    0 -0.14210854715E-13  0.28421709430E-13 -0.88114561537E+03  0.13329167505E+04  0.10001247263E+04 0.  0.
         25    2    3    3    0    0 -0.60175682492E+02  0.12836076218E+03 -0.20575270783E+03  0.27764508252E+03  0.12105790779E+03 0.  0.
         35    2    3    3    0    0  0.60175682492E+02 -0.12836076218E+03 -0.67539290755E+03  0.10552716680E+04  0.79833897286E+03 0.  0.
         22    1    5    5    0    0  0.24742627449E+03  0.23968406695E+03 -0.12341107385E+03  0.36592144841E+03  0.00000000000E+00 0. -1.
         22    1    5    5    0    0 -0.18725059200E+03 -0.36804482913E+03 -0.55198183370E+03  0.68935021954E+03  0.00000000000E+00 0. -1.
          5    1    4    4  502    0 -0.50685308355E+01 -0.17156998329E+02  0.13640285360E+01  0.18547322457E+02  0.47000000000E+01 0. -1.
         -5    1    4    4    0  502 -0.55107151656E+02  0.14551776051E+03 -0.20711673636E+03  0.25909776006E+03  0.47000000000E+01 0. -1.
<mgrwt>
<rscale>  0 0.10001247E+04</rscale>
<asrwt>0</asrwt>
<pdfrwt beam="1">  1        1 0.17031249E+00 0.10001247E+04</pdfrwt>
<pdfrwt beam="2">  1       -1 0.34751626E-01 0.10001247E+04</pdfrwt>
<totfact> 0.10927895E+02</totfact>
</mgrwt>
</event>
<event>
 9    1  0.4296086E-036  0.1003934E+04  0.7818608E-02  0.8677301E-01
          2   -1    0    0  501    0  0.00000000000E+00  0.00000000000E+00  0.14599711484E+04  0.14599711484E+04  0.00000000000E+00 0.  1.
         -2   -1    0    0    0  501 -0.00000000000E+00 -0.00000000000E+00 -0.17258623747E+03  0.17258623747E+03  0.00000000000E+00 0.  1.
         36    2    1    2    0    0  0.00000000000E+00  0.14210854715E-13  0.12873849109E+04  0.16325573859E+04  0.10039341160E+04 0.  0.
         25    2    3    3    0    0  0.47454013028E+02 -0.10310828049E+03  0.10149803258E+03  0.19670845999E+03  0.12453580512E+03 0.  0.
         35    2    3    3    0    0 -0.47454013028E+02  0.10310828049E+03  0.11858868784E+04  0.14358489259E+04  0.80153056639E+03 0.  0.
         22    1    5    5    0    0  0.79172027896E+02 -0.52653015493E+02 -0.97893805527E+02  0.13646885067E+03  0.00000000000E+00 0.  1.
         22    1    5    5    0    0 -0.12662604092E+03  0.15576129598E+03  0.12837806839E+04  0.12993800752E+04  0.00000000000E+00 0.  1.
          5    1    4    4  502    0  0.51779994531E+02 -0.13030371321E+03  0.80378467255E+02  0.16168801288E+03  0.47000000000E+01 0.  1.
         -5    1    4    4    0  502 -0.43259815022E+01  0.27195432720E+02  0.21119565321E+02  0.35020447115E+02  0.47000000000E+01 0.  1.
<mgrwt>
<rscale>  0 0.10039341E+04</rscale>
<asrwt>0</asrwt>
<pdfrwt beam="1">  1        2 0.22461094E+00 0.10039341E+04</pdfrwt>
<pdfrwt beam="2">  1       -2 0.26551730E-01 0.10039341E+04</pdfrwt>
<totfact> 0.20569780E+02</totfact>
</mgrwt>
</event>
<event>
 9    1  0.4296086E-036  0.1001644E+04  0.7818608E-02  0.8679474E-01
          1   -1    0    0  501    0  0.00000000000E+00  0.00000000000E+00  0.22866246731E+04  0.22866246731E+04  0.00000000000E+00 0.  1.
         -1   -1    0    0    0  501 -0.00000000000E+00 -0.00000000000E+00 -0.10969129828E+03  0.10969129828E+03  0.00000000000E+00 0.  1.
         36    2    1    2    0    0  0.14210854715E-13 -0.56843418861E-13  0.21769333748E+04  0.23963159714E+04  0.10016443063E+04 0.  0.
         25    2    3    3    0    0  0.32361524377E+02 -0.13717096443E+03  0.44878002154E+03  0.48669372302E+03  0.12491649432E+03 0.  0.
         35    2    3    3    0    0 -0.32361524377E+02  0.13717096443E+03  0.17281533532E+04  0.19096222483E+04  0.80017496664E+03 0.  0.
         22    1    5    5    0    0 -0.11293036414E+03  0.34083583162E+03  0.30913427719E+03  0.47379988666E+03  0.00000000000E+00 0.  1.
         22    1    5    5    0    0  0.80568839766E+02 -0.20366486719E+03  0.14190190761E+04  0.14358223617E+04  0.00000000000E+00 0.  1.
          5    1    4    4  502    0 -0.32064578858E+02 -0.28215827638E+02  0.22925356402E+03  0.23324570041E+03  0.47000000000E+01 0. -1.
         -5    1    4    4    0  502  0.64426103236E+02 -0.10895513680E+03  0.21952645752E+03  0.25344802261E+03  0.47000000000E+01 0. -1.
<mgrwt>
<rscale>  0 0.10016443E+04</rscale>
<asrwt>0</asrwt>
<pdfrwt beam="1">  1        1 0.35178838E+00 0.10016443E+04</pdfrwt>
<pdfrwt beam="2">  1       -1 0.16875586E-01 0.10016443E+04</pdfrwt>
<totfact> 0.52963472E+01</totfact>
</mgrwt>
</event>
<event>
 9    1  0.4296086E-036  0.9998118E+03  0.7818608E-02  0.8681217E-01
         -1   -1    0    0    0  501 -0.00000000000E+00  0.00000000000E+00  0.41102333491E+03  0.41102333491E+03  0.00000000000E+00 0.  1.
          1   -1    0    0  501    0  0.00000000000E+00 -0.00000000000E+00 -0.60800900493E+03  0.60800900493E+03  0.00000000000E+00 0.  1.
         36    2    1    2    0    0 -0.42632564146E-13  0.71054273576E-14 -0.19698567002E+03  0.10190323398E+04  0.99981176001E+03 0.  0.
         25    2    3    3    0    0  0.96710992826E+02  0.91796491658E+01  0.65972431478E+02  0.17139170226E+03  0.12484178706E+03 0.  0.
         35    2    3    3    0    0 -0.96710992826E+02 -0.91796491658E+01 -0.26295810150E+03  0.84764063758E+03  0.79994400132E+03 0.  0.
         22    1    5    5    0    0  0.27682884923E+03 -0.12655416417E+03  0.93208162862E+02  0.31833618999E+03  0.00000000000E+00 0. -1.
         22    1    5    5    0    0 -0.37353984205E+03  0.11737451500E+03 -0.35616626436E+03  0.52930444759E+03  0.00000000000E+00 0. -1.
          5    1    4    4  502    0  0.89888606073E+01  0.33277293605E+02 -0.24854012213E+02  0.42754997460E+02  0.47000000000E+01 0.  1.
         -5    1    4    4    0  502  0.87722132219E+02 -0.24097644440E+02  0.90826443691E+02  0.12863670480E+03  0.47000000000E+01 0.  1.
<mgrwt>
<rscale>  0 0.99981176E+03</rscale>
<asrwt>0</asrwt>
<pdfrwt beam="1">  1        1 0.93539847E-01 0.99981176E+03</pdfrwt>
<pdfrwt beam="2">  1       -1 0.63234359E-01 0.99981176E+03</pdfrwt>
<totfact> 0.99067719E+01</totfact>
</mgrwt>
</event>
<event>
 9    1  0.4296086E-036  0.9993650E+03  0.7818608E-02  0.8681643E-01
          2   -1    0    0  501    0  0.00000000000E+00  0.00000000000E+00  0.40858232270E+03  0.40858232270E+03  0.00000000000E+00 0. -1.
         -2   -1    0    0    0  501 -0.00000000000E+00 -0.00000000000E+00 -0.61109494763E+03  0.61109494763E+03  0.00000000000E+00 0. -1.
         36    2    1    2    0    0  0.00000000000E+00  0.46629367034E-13 -0.20251262493E+03  0.10196772703E+04  0.99936498456E+03 0.  0.
         25    2    3    3    0    0  0.64696135772E+02 -0.34192566830E+01 -0.15408270386E+03  0.20814761346E+03  0.12404300892E+03 0.  0.
         35    2    3    3    0    0 -0.64696135772E+02  0.34192566830E+01 -0.48429921068E+02  0.81152965686E+03  0.80748848005E+03 0.  0.
         22    1    5    5    0    0 -0.23259324359E+03  0.33637668144E+03 -0.13133210516E+03  0.42953115210E+03  0.00000000000E+00 0. -1.
         22    1    5    5    0    0  0.16789710782E+03 -0.33295742475E+03  0.82902184094E+02  0.38199850476E+03  0.00000000000E+00 0. -1.
          5    1    4    4  502    0  0.10146510013E+03 -0.60420892782E+01 -0.12351186593E+03  0.16002794885E+03  0.47000000000E+01 0.  1.
         -5    1    4    4    0  502 -0.36768964358E+02  0.26228325952E+01 -0.30570837931E+02  0.48119664614E+02  0.47000000000E+01 0.  1.
<mgrwt>
<rscale>  0 0.99936498E+03</rscale>
<asrwt>0</asrwt>
<pdfrwt beam="1">  1        2 0.62858819E-01 0.99936498E+03</pdfrwt>
<pdfrwt beam="2">  1       -2 0.94014607E-01 0.99936498E+03</pdfrwt>
<totfact> 0.88414624E+01</totfact>
</mgrwt>
</event>
<event>
 9    1  0.4296086E-036  0.1000851E+04  0.7818608E-02  0.8680228E-01
         -2   -1    0    0    0  501 -0.00000000000E+00  0.00000000000E+00  0.41196381246E+03  0.41196381246E+03  0.00000000000E+00 0. -1.
          2   -1    0    0  501    0  0.00000000000E+00 -0.00000000000E+00 -0.60788310888E+03  0.60788310888E+03  0.00000000000E+00 0. -1.
         36    2    1    2    0    0  0.00000000000E+00  0.00000000000E+00 -0.19591929642E+03  0.10198469213E+04  0.10008513238E+04 0.  0.
         25    2    3    3    0    0  0.12049729607E+03  0.39296850323E+02 -0.98207673983E+02  0.20323792486E+03  0.12488821428E+03 0.  0.
         35    2    3    3    0    0 -0.12049729607E+03 -0.39296850323E+02 -0.97711622435E+02  0.81660899648E+03  0.80077390765E+03 0.  0.
         22    1    5    5    0    0  0.32553478865E+03 -0.26117124574E+02 -0.16406565554E+03  0.36547577505E+03  0.00000000000E+00 0. -1.
         22    1    5    5    0    0 -0.44603208472E+03 -0.13179725749E+02  0.66354033108E+02  0.45113322143E+03  0.00000000000E+00 0. -1.
          5    1    4    4  502    0  0.23000221424E+02 -0.20726011750E+02 -0.81662681396E+02  0.87461198720E+02  0.47000000000E+01 0. -1.
         -5    1    4    4    0  502  0.97497074645E+02  0.60022862073E+02 -0.16544992587E+02  0.11577672614E+03  0.47000000000E+01 0. -1.
<mgrwt>
<rscale>  0 0.10008513E+04</rscale>
<asrwt>0</asrwt>
<pdfrwt beam="1">  1        2 0.93520478E-01 0.10008513E+04</pdfrwt>
<pdfrwt beam="2">  1       -2 0.63379048E-01 0.10008513E+04</pdfrwt>
<totfact> 0.13613509E+02</totfact>
</mgrwt>
</event>
<event>
 9    1  0.4296086E-036  0.9998760E+03  0.7818608E-02  0.8681156E-01
         -2   -1    0    0    0  501 -0.00000000000E+00  0.00000000000E+00  0.10777056978E+03  0.10777056978E+03  0.00000000000E+00 0.  1.
          2   -1    0    0  501    0  0.00000000000E+00 -0.00000000000E+00 -0.23191675284E+04  0.23191675284E+04  0.00000000000E+00 0.  1.
         36    2    1    2    0    0  0.28421709430E-13  0.00000000000E+00 -0.22113969587E+04  0.24269380982E+04  0.99987600421E+03 0.  0.
         25    2    3    3    0    0 -0.11572540439E+03  0.50035530168E+02 -0.56302913855E+03  0.59033554418E+03  0.12489323589E+03 0.  0.
         35    2    3    3    0    0  0.11572540439E+03 -0.50035530168E+02 -0.16483678201E+04  0.18366025540E+04  0.80006033997E+03 0.  0.
         22    1    5    5    0    0 -0.20091640304E+03 -0.21298951492E+03 -0.22472972160E+03  0.36910077519E+03  0.00000000000E+00 0. -1.
         22    1    5    5    0    0  0.31664180743E+03  0.16295398475E+03 -0.14236380985E+04  0.14675017788E+04  0.00000000000E+00 0. -1.
          5    1    4    4  502    0 -0.16810765837E+02  0.64190067915E+02 -0.13155017520E+03  0.14741270387E+03  0.47000000000E+01 0. -1.
         -5    1    4    4    0  502 -0.98914638558E+02 -0.14154537746E+02 -0.43147896334E+03  0.44292284031E+03  0.47000000000E+01 0. -1.
<mgrwt>
<rscale>  0 0.99987600E+03</rscale>
<asrwt>0</asrwt>
<pdfrwt beam="1">  1        2 0.35679500E+00 0.99987600E+03</pdfrwt>
<pdfrwt beam="2">  1       -2 0.16580088E-01 0.99987600E+03</pdfrwt>
<totfact> 0.15098071E+02</totfact>
</mgrwt>
</event>
<event>
 9    1  0.4296086E-036  0.9997858E+03  0.7818608E-02  0.8681242E-01
         -1   -1    0    0    0  501 -0.00000000000E+00  0.00000000000E+00  0.85077996439E+02  0.85077996439E+02  0.00000000000E+00 0.  1.
          1   -1    0    0  501    0  0.00000000000E+00 -0.00000000000E+00 -0.29372211445E+04  0.29372211445E+04  0.00000000000E+00 0.  1.
         36    2    1    2    0    0 -0.14210854715E-13 -0.35527136788E-14 -0.28521431481E+04  0.30222991410E+04  0.99978575720E+03 0.  0.
         25    2    3    3    0    0 -0.30240363415E+02 -0.30495459687E+02 -0.13408531584E+03  0.18870504794E+03  0.12564342623E+03 0.  0.
         35    2    3    3    0    0  0.30240363415E+02  0.30495459687E+02 -0.27180578322E+04  0.28335940930E+04  0.79973286284E+03 0.  0.
         22    1    5    5    0    0  0.30954840854E+03  0.17205263966E+03 -0.63455965508E+03  0.72669683081E+03  0.00000000000E+00 0. -1.
         22    1    5    5    0    0 -0.27930804513E+03 -0.14155717997E+03 -0.20834981772E+04  0.21068972622E+04  0.00000000000E+00 0. -1.
          5    1    4    4  502    0 -0.76374559573E+02 -0.48656167870E+01 -0.58706223834E+02  0.96567376963E+02  0.47000000000E+01 0. -1.
         -5    1    4    4    0  502  0.46134196159E+02 -0.25629842899E+02 -0.75379092002E+02  0.92137670978E+02  0.47000000000E+01 0. -1.
<mgrwt>
<rscale>  0 0.99978576E+03</rscale>
<asrwt>0</asrwt>
<pdfrwt beam="1">  1        1 0.45188018E+00 0.99978576E+03</pdfrwt>
<pdfrwt beam="2">  1       -1 0.13088923E-01 0.99978576E+03</pdfrwt>
<totfact> 0.27684390E+01</totfact>
</mgrwt>
</event>
<event>
 9    1  0.4296086E-036  0.9999975E+03  0.7818608E-02  0.8681040E-01
         -2   -1    0    0    0  501 -0.00000000000E+00  0.00000000000E+00  0.28125250087E+03  0.28125250087E+03  0.00000000000E+00 0.  1.
          2   -1    0    0  501    0  0.00000000000E+00 -0.00000000000E+00 -0.88887658822E+03  0.88887658822E+03  0.00000000000E+00 0.  1.
         36    2    1    2    0    0 -0.14210854715E-13  0.00000000000E+00 -0.60762408735E+03  0.11701290891E+04  0.99999752681E+03 0.  0.
         25    2    3    3    0    0 -0.64008925033E+02  0.12410899347E+03 -0.13352953956E+03  0.22983274659E+03  0.12446995110E+03 0.  0.
         35    2    3    3    0    0  0.64008925033E+02 -0.12410899347E+03 -0.47409454779E+03  0.94029634251E+03  0.79993211383E+03 0.  0.
         22    1    5    5    0    0 -0.11506319707E+03 -0.15987162104E+03 -0.65456306213E+03  0.68355780798E+03  0.00000000000E+00 0.  1.
         22    1    5    5    0    0  0.17907212210E+03  0.35762627568E+02  0.18046851434E+03  0.25673853453E+03  0.00000000000E+00 0.  1.
          5    1    4    4  502    0 -0.76093429460E+02  0.65923181561E+02 -0.21686436637E+02  0.10309445867E+03  0.47000000000E+01 0.  1.
         -5    1    4    4    0  502  0.12084504426E+02  0.58185811911E+02 -0.11184310292E+03  0.12673828792E+03  0.47000000000E+01 0.  1.
<mgrwt>
<rscale>  0 0.99999753E+03</rscale>
<asrwt>0</asrwt>
<pdfrwt beam="1">  1        2 0.13675025E+00 0.99999753E+03</pdfrwt>
<pdfrwt beam="2">  1       -2 0.43269615E-01 0.99999753E+03</pdfrwt>
<totfact> 0.18281458E+02</totfact>
</mgrwt>
</event>
<event>
 9    1  0.4296086E-036  0.1000010E+04  0.7818608E-02  0.8681028E-01
          2   -1    0    0  501    0  0.00000000000E+00  0.00000000000E+00  0.25890968742E+04  0.25890968742E+04  0.00000000000E+00 0.  1.
         -2   -1    0    0    0  501 -0.00000000000E+00 -0.00000000000E+00 -0.96560720272E+02  0.96560720272E+02  0.00000000000E+00 0.  1.
         36    2    1    2    0    0  0.71054273576E-14  0.00000000000E+00  0.24925361539E+04  0.26856575944E+04  0.10000101180E+04 0.  0.
         25    2    3    3    0    0 -0.59287830159E+02  0.61123973939E+02  0.16866848773E+03  0.22640035031E+03  0.12472719379E+03 0.  0.
         35    2    3    3    0    0  0.59287830159E+02 -0.61123973939E+02  0.23238676662E+04  0.24592572441E+04  0.80020877025E+03 0.  0.
         22    1    5    5    0    0 -0.81602958855E+02 -0.14650724593E+03  0.22834870292E+04  0.22896367459E+04  0.00000000000E+00 0. -1.
         22    1    5    5    0    0  0.14089078901E+03  0.85383271994E+02  0.40380637013E+02  0.16962049820E+03  0.00000000000E+00 0. -1.
          5    1    4    4  502    0  0.14260775245E+02 -0.15842534965E+01 -0.13417324792E+02  0.20198865669E+02  0.47000000000E+01 0. -1.
         -5    1    4    4    0  502 -0.73548605404E+02  0.62708227436E+02  0.18208581252E+03  0.20620148464E+03  0.47000000000E+01 0. -1.
<mgrwt>
<rscale>  0 0.10000101E+04</rscale>
<asrwt>0</asrwt>
<pdfrwt beam="1">  1        2 0.39832254E+00 0.10000101E+04</pdfrwt>
<pdfrwt beam="2">  1       -2 0.14855497E-01 0.10000101E+04</pdfrwt>
<totfact> 0.12480731E+02</totfact>
</mgrwt>
</event>
<event>
 9    1  0.4296086E-036  0.9997925E+03  0.7818608E-02  0.8681236E-01
         -2   -1    0    0    0  501 -0.00000000000E+00  0.00000000000E+00  0.76681997019E+03  0.76681997019E+03  0.00000000000E+00 0. -1.
          2   -1    0    0  501    0  0.00000000000E+00 -0.00000000000E+00 -0.32588645056E+03  0.32588645056E+03  0.00000000000E+00 0. -1.
         36    2    1    2    0    0  0.28421709430E-13  0.00000000000E+00  0.44093351963E+03  0.10927064207E+04  0.99979245507E+03 0.  0.
         25    2    3    3    0    0 -0.76504382527E+02  0.91213533928E+02  0.16417433477E+03  0.23821366786E+03  0.12497883837E+03 0.  0.
         35    2    3    3    0    0  0.76504382527E+02 -0.91213533928E+02  0.27675918485E+03  0.85449275289E+03  0.79961827707E+03 0.  0.
         22    1    5    5    0    0 -0.31640759597E+03  0.11303027849E+03  0.71862689252E+01  0.33606733418E+03  0.00000000000E+00 0. -1.
         22    1    5    5    0    0  0.39291197850E+03 -0.20424381242E+03  0.26957291593E+03  0.51842541871E+03  0.00000000000E+00 0. -1.
          5    1    4    4  502    0 -0.69912268716E+02  0.12096450108E+03  0.11936503166E+03  0.18382120830E+03  0.47000000000E+01 0.  1.
         -5    1    4    4    0  502 -0.65921138111E+01 -0.29750967153E+02  0.44809303116E+02  0.54392459558E+02  0.47000000000E+01 0.  1.
<mgrwt>
<rscale>  0 0.99979246E+03</rscale>
<asrwt>0</asrwt>
<pdfrwt beam="1">  1        2 0.50136377E-01 0.99979246E+03</pdfrwt>
<pdfrwt beam="2">  1       -2 0.11797230E+00 0.99979246E+03</pdfrwt>
<totfact> 0.64788802E+01</totfact>
</mgrwt>
</event>
<event>
 9    1  0.4296086E-036  0.1000149E+04  0.7818608E-02  0.8680896E-01
         -2   -1    0    0    0  501 -0.00000000000E+00  0.00000000000E+00  0.60200912611E+03  0.60200912611E+03  0.00000000000E+00 0. -1.
          2   -1    0    0  501    0  0.00000000000E+00 -0.00000000000E+00 -0.41539998973E+03  0.41539998973E+03  0.00000000000E+00 0. -1.
         36    2    1    2    0    0  0.00000000000E+00  0.00000000000E+00  0.18660913639E+03  0.10174091158E+04  0.10001491585E+04 0.  0.
         25    2    3    3    0    0 -0.68867533654E+02 -0.11713132631E+03  0.74285672822E+02  0.19865600089E+03  0.12443215304E+03 0.  0.
         35    2    3    3    0    0  0.68867533654E+02  0.11713132631E+03  0.11232346356E+03  0.81875311495E+03  0.79954838376E+03 0.  0.
         22    1    5    5    0    0  0.11073902361E+02 -0.81493859173E+01  0.45195682051E+03  0.45216591137E+03  0.00000000000E+00 0.  1.
         22    1    5    5    0    0  0.57793631293E+02  0.12528071223E+03 -0.33963335694E+03  0.36658720357E+03  0.00000000000E+00 0.  1.
          5    1    4    4  502    0 -0.93110059699E+02 -0.39034053664E+02  0.52536884100E+02  0.11390941468E+03  0.47000000000E+01 0. -1.
         -5    1    4    4    0  502  0.24242526045E+02 -0.78097272644E+02  0.21748788723E+02  0.84746586211E+02  0.47000000000E+01 0. -1.
<mgrwt>
<rscale>  0 0.10001492E+04</rscale>
<asrwt>0</asrwt>
<pdfrwt beam="1">  1        2 0.63907691E-01 0.10001492E+04</pdfrwt>
<pdfrwt beam="2">  1       -2 0.92616789E-01 0.10001492E+04</pdfrwt>
<totfact> 0.89917852E+01</totfact>
</mgrwt>
</event>
<event>
 9    1  0.4296086E-036  0.1000091E+04  0.7818608E-02  0.8680951E-01
          2   -1    0    0  501    0  0.00000000000E+00  0.00000000000E+00  0.63041265197E+03  0.63041265197E+03  0.00000000000E+00 0. -1.
         -2   -1    0    0    0  501 -0.00000000000E+00 -0.00000000000E+00 -0.39663774184E+03  0.39663774184E+03  0.00000000000E+00 0. -1.
         36    2    1    2    0    0 -0.14210854715E-13  0.35527136788E-13  0.23377491013E+03  0.10270503938E+04  0.10000908973E+04 0.  0.
         25    2    3    3    0    0  0.12220807285E+03  0.47232656030E+02  0.90164942050E+02  0.20467039728E+03  0.12881971077E+03 0.  0.
         35    2    3    3    0    0 -0.12220807285E+03 -0.47232656030E+02  0.14360996808E+03  0.82237999653E+03  0.79907402591E+03 0.  0.
         22    1    5    5    0    0 -0.99013278344E+02 -0.41488944972E+03  0.15496238294E+03  0.45381739158E+03  0.00000000000E+00 0.  1.
         22    1    5    5    0    0 -0.23194794503E+02  0.36765679369E+03 -0.11352414860E+02  0.36856260494E+03  0.00000000000E+00 0.  1.
          5    1    4    4  502    0  0.10473054577E+03  0.48078608602E+02  0.27186991332E+01  0.11536689797E+03  0.47000000000E+01 0. -1.
         -5    1    4    4    0  502  0.17477527077E+02 -0.84595257196E+00  0.87446242917E+02  0.89303499309E+02  0.47000000000E+01 0. -1.
<mgrwt>
<rscale>  0 0.10000909E+04</rscale>
<asrwt>0</asrwt>
<pdfrwt beam="1">  1        2 0.96986562E-01 0.10000909E+04</pdfrwt>
<pdfrwt beam="2">  1       -2 0.61021191E-01 0.10000909E+04</pdfrwt>
<totfact> 0.14117539E+02</totfact>
</mgrwt>
</event>
<event>
 9    1  0.4296086E-036  0.1000503E+04  0.7818608E-02  0.8680559E-01
          1   -1    0    0  501    0  0.00000000000E+00  0.00000000000E+00  0.24508897842E+03  0.24508897842E+03  0.00000000000E+00 0. -1.
         -1   -1    0    0    0  501 -0.00000000000E+00 -0.00000000000E+00 -0.10210650684E+04  0.10210650684E+04  0.00000000000E+00 0. -1.
         36    2    1    2    0    0 -0.14210854715E-13 -0.44408920985E-13 -0.77597608994E+03  0.12661540468E+04  0.10005034623E+04 0.  0.
         25    2    3    3    0    0 -0.86857635997E+02 -0.11222468271E+02 -0.28682715872E+03  0.32449574625E+03  0.12392529050E+03 0.  0.
         35    2    3    3    0    0  0.86857635997E+02  0.11222468271E+02 -0.48914893122E+03  0.94165830054E+03  0.79986466689E+03 0.  0.
         22    1    5    5    0    0  0.17941074327E+03  0.30121808474E+03  0.17011748786E+02  0.35101274759E+03  0.00000000000E+00 0. -1.
         22    1    5    5    0    0 -0.92553107274E+02 -0.28999561647E+03 -0.50616068000E+03  0.59064555295E+03  0.00000000000E+00 0. -1.
          5    1    4    4  502    0  0.25610521256E+02 -0.30618583732E+01 -0.15083548632E+02  0.30246937284E+02  0.47000000000E+01 0.  1.
         -5    1    4    4    0  502 -0.11246815725E+03 -0.81606098976E+01 -0.27174361009E+03  0.29424880896E+03  0.47000000000E+01 0.  1.
<mgrwt>
<rscale>  0 0.10005035E+04</rscale>
<asrwt>0</asrwt>
<pdfrwt beam="1">  1        1 0.37705997E-01 0.10005035E+04</pdfrwt>
<pdfrwt beam="2">  1       -1 0.15708693E+00 0.10005035E+04</pdfrwt>
<totfact> 0.40782003E+01</totfact>
</mgrwt>
</event>
<event>
 9    1  0.4296086E-036  0.1000141E+04  0.7818608E-02  0.8680904E-01
          2   -1    0    0  501    0  0.00000000000E+00  0.00000000000E+00  0.21569200205E+04  0.21569200205E+04  0.00000000000E+00 0.  1.
         -2   -1    0    0    0  501 -0.00000000000E+00 -0.00000000000E+00 -0.11593864194E+03  0.11593864194E+03  0.00000000000E+00 0.  1.
         36    2    1    2    0    0  0.28421709430E-13  0.00000000000E+00  0.20409813785E+04  0.22728586624E+04  0.10001407460E+04 0.  0.
         25    2    3    3    0    0 -0.85028190384E+02  0.97867712301E+02  0.26527989763E+03  0.32077307057E+03  0.12535571962E+03 0.  0.
         35    2    3    3    0    0  0.85028190384E+02 -0.97867712301E+02  0.17757014809E+04  0.19520855919E+04  0.80044645438E+03 0.  0.
         22    1    5    5    0    0 -0.14071691152E+03 -0.35868452710E+03  0.50385155701E+03  0.63428875969E+03  0.00000000000E+00 0. -1.
         22    1    5    5    0    0  0.22574510190E+03  0.26081681480E+03  0.12718499239E+04  0.13177968322E+04  0.00000000000E+00 0. -1.
          5    1    4    4  502    0 -0.44886098023E+02 -0.23164222008E+02  0.55140472382E+02  0.74925994631E+02  0.47000000000E+01 0.  1.
         -5    1    4    4    0  502 -0.40142092361E+02  0.12103193431E+03  0.21013942525E+03  0.24584707594E+03  0.47000000000E+01 0.  1.
<mgrwt>
<rscale>  0 0.10001407E+04</rscale>
<asrwt>0</asrwt>
<pdfrwt beam="1">  1        2 0.33183382E+00 0.10001407E+04</pdfrwt>
<pdfrwt beam="2">  1       -2 0.17836716E-01 0.10001407E+04</pdfrwt>
<totfact> 0.16587789E+02</totfact>
</mgrwt>
</event>
<event>
 9    1  0.4296086E-036  0.1000244E+04  0.7818608E-02  0.8680805E-01
         -3   -1    0    0    0  501 -0.00000000000E+00  0.00000000000E+00  0.21703085812E+03  0.21703085812E+03  0.00000000000E+00 0. -1.
          3   -1    0    0  501    0  0.00000000000E+00 -0.00000000000E+00 -0.11524724871E+04  0.11524724871E+04  0.00000000000E+00 0. -1.
         36    2    1    2    0    0  0.00000000000E+00 -0.28421709430E-13 -0.93544162894E+03  0.13695033452E+04  0.10002441559E+04 0.  0.
         25    2    3    3    0    0 -0.16975302423E+02 -0.13216374096E+03 -0.11123131082E+03  0.21420698976E+03  0.12552615121E+03 0.  0.
         35    2    3    3    0    0  0.16975302423E+02  0.13216374096E+03 -0.82421031812E+03  0.11552963554E+04  0.79851838116E+03 0.  0.
         22    1    5    5    0    0 -0.44369413843E+02  0.43622894765E+03 -0.68950630907E+03  0.81711889582E+03  0.00000000000E+00 0.  1.
         22    1    5    5    0    0  0.61344716266E+02 -0.30406520669E+03 -0.13470400905E+03  0.33817745961E+03  0.00000000000E+00 0.  1.
          5    1    4    4  502    0  0.11893484271E+02 -0.15312618623E+02 -0.89637236407E+02  0.91830579917E+02  0.47000000000E+01 0. -1.
         -5    1    4    4    0  502 -0.28868786695E+02 -0.11685112233E+03 -0.21594074410E+02  0.12237640984E+03  0.47000000000E+01 0. -1.
<mgrwt>
<rscale>  0 0.10002442E+04</rscale>
<asrwt>0</asrwt>
<pdfrwt beam="1">  1        3 0.17730346E+00 0.10002442E+04</pdfrwt>
<pdfrwt beam="2">  1       -3 0.33389363E-01 0.10002442E+04</pdfrwt>
<totfact> 0.74640006E+00</totfact>
</mgrwt>
</event>
<event>
 9    1  0.4296086E-036  0.9994897E+03  0.7818608E-02  0.8681524E-01
         -2   -1    0    0    0  501 -0.00000000000E+00  0.00000000000E+00  0.33995258743E+03  0.33995258743E+03  0.00000000000E+00 0. -1.
          2   -1    0    0  501    0  0.00000000000E+00 -0.00000000000E+00 -0.73464635506E+03  0.73464635506E+03  0.00000000000E+00 0. -1.
         36    2    1    2    0    0  0.35527136788E-14  0.28421709430E-13 -0.39469376763E+03  0.10745989425E+04  0.99948972831E+03 0.  0.
         25    2    3    3    0    0  0.16543803008E+02 -0.10792338115E+03 -0.16917402058E+03  0.23711410207E+03  0.12522816995E+03 0.  0.
         35    2    3    3    0    0 -0.16543803008E+02  0.10792338115E+03 -0.22551974706E+03  0.83748484042E+03  0.79912486384E+03 0.  0.
         22    1    5    5    0    0 -0.11392342296E+02  0.41565859669E+03 -0.30961571860E+03  0.51842429309E+03  0.00000000000E+00 0. -1.
         22    1    5    5    0    0 -0.51514607123E+01 -0.30773521554E+03  0.84095971542E+02  0.31906054733E+03  0.00000000000E+00 0. -1.
          5    1    4    4  502    0 -0.27099896253E+02 -0.88883717413E+02 -0.43634765816E+02  0.10276576466E+03  0.47000000000E+01 0.  1.
         -5    1    4    4    0  502  0.43643699261E+02 -0.19039663732E+02 -0.12553925476E+03  0.13434833741E+03  0.47000000000E+01 0.  1.
<mgrwt>
<rscale>  0 0.99948973E+03</rscale>
<asrwt>0</asrwt>
<pdfrwt beam="1">  1        2 0.11302251E+00 0.99948973E+03</pdfrwt>
<pdfrwt beam="2">  1       -2 0.52300399E-01 0.99948973E+03</pdfrwt>
<totfact> 0.16086664E+02</totfact>
</mgrwt>
</event>
<event>
 9    1  0.4296086E-036  0.9980611E+03  0.7818608E-02  0.8682887E-01
          1   -1    0    0  501    0  0.00000000000E+00  0.00000000000E+00  0.32665197799E+03  0.32665197799E+03  0.00000000000E+00 0. -1.
         -1   -1    0    0    0  501 -0.00000000000E+00 -0.00000000000E+00 -0.76237553868E+03  0.76237553868E+03  0.00000000000E+00 0. -1.
         36    2    1    2    0    0 -0.17763568394E-14 -0.14210854715E-13 -0.43572356068E+03  0.10890275167E+04  0.99806107565E+03 0.  0.
         25    2    3    3    0    0 -0.10581276917E+02  0.73329831319E+02  0.47582727206E+02  0.15125444654E+03  0.12298196652E+03 0.  0.
         35    2    3    3    0    0  0.10581276917E+02 -0.73329831319E+02 -0.48330628789E+03  0.93777307012E+03  0.80021505581E+03 0.  0.
         22    1    5    5    0    0  0.95878003689E+02 -0.28533762451E+03  0.95245251651E+02  0.31572426184E+03  0.00000000000E+00 0. -1.
         22    1    5    5    0    0 -0.85296726772E+02  0.21200779320E+03 -0.57855153954E+03  0.62204880828E+03  0.00000000000E+00 0. -1.
          5    1    4    4  502    0  0.83895123244E+01  0.81403272077E+02 -0.16638882313E+02  0.83641012825E+02  0.47000000000E+01 0.  1.
         -5    1    4    4    0  502 -0.18970789242E+02 -0.80734407572E+01  0.64221609519E+02  0.67613433719E+02  0.47000000000E+01 0.  1.
<mgrwt>
<rscale>  0 0.99806108E+03</rscale>
<asrwt>0</asrwt>
<pdfrwt beam="1">  1        1 0.50254151E-01 0.99806108E+03</pdfrwt>
<pdfrwt beam="2">  1       -1 0.11728854E+00 0.99806108E+03</pdfrwt>
<totfact> 0.61749217E+01</totfact>
</mgrwt>
</event>
<event>
 9    1  0.4296086E-036  0.9996882E+03  0.7818608E-02  0.8681335E-01
          2   -1    0    0  501    0  0.00000000000E+00  0.00000000000E+00  0.28308792080E+04  0.28308792080E+04  0.00000000000E+00 0.  1.
         -2   -1    0    0    0  501 -0.00000000000E+00 -0.00000000000E+00 -0.88256725977E+02  0.88256725977E+02  0.00000000000E+00 0.  1.
         36    2    1    2    0    0 -0.28421709430E-13  0.14210854715E-13  0.27426224820E+04  0.29191359340E+04  0.99968821247E+03 0.  0.
         25    2    3    3    0    0  0.12868577080E+03 -0.42066013154E+02  0.63132797724E+03  0.65773562816E+03  0.12534578031E+03 0.  0.
         35    2    3    3    0    0 -0.12868577080E+03  0.42066013154E+02  0.21112945048E+04  0.22614003058E+04  0.79877235815E+03 0.  0.
         22    1    5    5    0    0  0.33224915894E+03  0.46621222194E+02  0.10995297293E+04  0.11495776040E+04  0.00000000000E+00 0.  1.
         22    1    5    5    0    0 -0.46093492974E+03 -0.45552090397E+01  0.10117647755E+04  0.11118227018E+04  0.00000000000E+00 0.  1.
          5    1    4    4  502    0  0.13444045455E+02 -0.37006014345E+02  0.44261725428E+02  0.59425396875E+02  0.47000000000E+01 0. -1.
         -5    1    4    4    0  502  0.11524172534E+03 -0.50599988094E+01  0.58706625181E+03  0.59831023129E+03  0.47000000000E+01 0. -1.
<mgrwt>
<rscale>  0 0.99968821E+03</rscale>
<asrwt>0</asrwt>
<pdfrwt beam="1">  1        2 0.43551981E+00 0.99968821E+03</pdfrwt>
<pdfrwt beam="2">  1       -2 0.13577960E-01 0.99968821E+03</pdfrwt>
<totfact> 0.10203631E+02</totfact>
</mgrwt>
</event>
<event>
 9    1  0.4296086E-036  0.9998211E+03  0.7818608E-02  0.8681208E-01
          1   -1    0    0  501    0  0.00000000000E+00  0.00000000000E+00  0.25079061896E+03  0.25079061896E+03  0.00000000000E+00 0.  1.
         -1   -1    0    0    0  501 -0.00000000000E+00 -0.00000000000E+00 -0.99649086439E+03  0.99649086439E+03  0.00000000000E+00 0.  1.
         36    2    1    2    0    0  0.71054273576E-14  0.28421709430E-13 -0.74570024543E+03  0.12472814833E+04  0.99982110534E+03 0.  0.
         25    2    3    3    0    0 -0.79747045616E+01 -0.13904518695E+03 -0.15673745181E+03  0.24421244213E+03  0.12520354694E+03 0.  0.
         35    2    3    3    0    0  0.79747045616E+01  0.13904518695E+03 -0.58896279362E+03  0.10030690412E+04  0.79992072685E+03 0.  0.
         22    1    5    5    0    0 -0.16308392524E+03  0.41831668654E+03 -0.19163801732E+03  0.48817040733E+03  0.00000000000E+00 0. -1.
         22    1    5    5    0    0  0.17105862980E+03 -0.27927149959E+03 -0.39732477629E+03  0.51489863388E+03  0.00000000000E+00 0. -1.
          5    1    4    4  502    0  0.39545167987E+02 -0.69938447804E+02 -0.18699972401E+02  0.82625575702E+02  0.47000000000E+01 0. -1.
         -5    1    4    4    0  502 -0.47519872548E+02 -0.69106739146E+02 -0.13803747941E+03  0.16158686643E+03  0.47000000000E+01 0. -1.
<mgrwt>
<rscale>  0 0.99982111E+03</rscale>
<asrwt>0</asrwt>
<pdfrwt beam="1">  1        1 0.38583171E-01 0.99982111E+03</pdfrwt>
<pdfrwt beam="2">  1       -1 0.15330629E+00 0.99982111E+03</pdfrwt>
<totfact> 0.42580382E+01</totfact>
</mgrwt>
</event>
<event>
 9    1  0.4296086E-036  0.1001140E+04  0.7818608E-02  0.8679954E-01
         -2   -1    0    0    0  501 -0.00000000000E+00  0.00000000000E+00  0.13243919115E+03  0.13243919115E+03  0.00000000000E+00 0. -1.
          2   -1    0    0  501    0  0.00000000000E+00 -0.00000000000E+00 -0.18919634260E+04  0.18919634260E+04  0.00000000000E+00 0. -1.
         36    2    1    2    0    0  0.00000000000E+00 -0.35527136788E-14 -0.17595242349E+04  0.20244026172E+04  0.10011395624E+04 0.  0.
         25    2    3    3    0    0  0.43770845212E+02 -0.80830951895E+01 -0.60042868891E+03  0.61488887220E+03  0.12486989780E+03 0.  0.
         35    2    3    3    0    0 -0.43770845212E+02  0.80830951895E+01 -0.11590955460E+04  0.14095137450E+04  0.80077792756E+03 0.  0.
         22    1    5    5    0    0  0.33601263741E+02  0.51583017005E+02 -0.12677322530E+04  0.12692261099E+04  0.00000000000E+00 0.  1.
         22    1    5    5    0    0 -0.77372108953E+02 -0.43499921816E+02  0.10863670707E+03  0.14028763511E+03  0.00000000000E+00 0.  1.
          5    1    4    4  502    0  0.47503187685E+02  0.17151950048E+02 -0.86272904369E+02  0.10007919993E+03  0.47000000000E+01 0. -1.
         -5    1    4    4    0  502 -0.37323424721E+01 -0.25235045238E+02 -0.51415578454E+03  0.51480967227E+03  0.47000000000E+01 0. -1.
<mgrwt>
<rscale>  0 0.10011396E+04</rscale>
<asrwt>0</asrwt>
<pdfrwt beam="1">  1        2 0.29107130E+00 0.10011396E+04</pdfrwt>
<pdfrwt beam="2">  1       -2 0.20375260E-01 0.10011396E+04</pdfrwt>
<totfact> 0.18694917E+02</totfact>
</mgrwt>
</event>
<event>
 9    1  0.4296086E-036  0.9996043E+03  0.7818608E-02  0.8681415E-01
          2   -1    0    0  501    0  0.00000000000E+00  0.00000000000E+00  0.11099321640E+04  0.11099321640E+04  0.00000000000E+00 0.  1.
         -2   -1    0    0    0  501 -0.00000000000E+00 -0.00000000000E+00 -0.22506075520E+03  0.22506075520E+03  0.00000000000E+00 0.  1.
         36    2    1    2    0    0  0.00000000000E+00  0.00000000000E+00  0.88487140880E+03  0.13349929192E+04  0.99960426380E+03 0.  0.
         25    2    3    3    0    0 -0.51599092142E+02 -0.13457750412E+03  0.16527920962E+03  0.25215986804E+03  0.12447413784E+03 0.  0.
         35    2    3    3    0    0  0.51599092142E+02  0.13457750412E+03  0.71959219917E+03  0.10828330512E+04  0.79620406470E+03 0.  0.
         22    1    5    5    0    0 -0.15001822042E+03 -0.11093805629E+03  0.74128186724E+03  0.76440272467E+03  0.00000000000E+00 0. -1.
         22    1    5    5    0    0  0.20161731257E+03  0.24551556040E+03 -0.21689668062E+02  0.31843032649E+03  0.00000000000E+00 0. -1.
          5    1    4    4  502    0  0.36707782340E+02 -0.59103436016E+02  0.89183932432E+02  0.11321016402E+03  0.47000000000E+01 0.  1.
         -5    1    4    4    0  502 -0.88306874481E+02 -0.75474068100E+02  0.76095277193E+02  0.13894970402E+03  0.47000000000E+01 0.  1.
<mgrwt>
<rscale>  0 0.99960426E+03</rscale>
<asrwt>0</asrwt>
<pdfrwt beam="1">  1        2 0.17075879E+00 0.99960426E+03</pdfrwt>
<pdfrwt beam="2">  1       -2 0.34624732E-01 0.99960426E+03</pdfrwt>
<totfact> 0.20268068E+02</totfact>
</mgrwt>
</event>
<event>
 9    1  0.4296086E-036  0.1000136E+04  0.7818608E-02  0.8680908E-01
          2   -1    0    0  501    0  0.00000000000E+00  0.00000000000E+00  0.91002894895E+03  0.91002894895E+03  0.00000000000E+00 0.  1.
         -2   -1    0    0    0  501 -0.00000000000E+00 -0.00000000000E+00 -0.27479140039E+03  0.27479140039E+03  0.00000000000E+00 0.  1.
         36    2    1    2    0    0  0.00000000000E+00 -0.28421709430E-13  0.63523754856E+03  0.11848203493E+04  0.10001362493E+04 0.  0.
         25    2    3    3    0    0  0.85322123633E+02  0.10808581510E+03  0.14781011292E+03  0.23794907397E+03  0.12573593008E+03 0.  0.
         35    2    3    3    0    0 -0.85322123633E+02 -0.10808581510E+03  0.48742743564E+03  0.94687127536E+03  0.80001081173E+03 0.  0.
         22    1    5    5    0    0  0.15296681975E+03  0.17611431551E+03  0.52460816401E+03  0.57413310810E+03  0.00000000000E+00 0.  1.
         22    1    5    5    0    0 -0.23828894339E+03 -0.28420013060E+03 -0.37180728366E+02  0.37273816727E+03  0.00000000000E+00 0.  1.
          5    1    4    4  502    0  0.21193330915E+01  0.10247452024E+03  0.74266972691E+02  0.12666172312E+03  0.47000000000E+01 0. -1.
         -5    1    4    4    0  502  0.83202790542E+02  0.56112948605E+01  0.73543140230E+02  0.11128735085E+03  0.47000000000E+01 0. -1.
<mgrwt>
<rscale>  0 0.10001362E+04</rscale>
<asrwt>0</asrwt>
<pdfrwt beam="1">  1        2 0.14000445E+00 0.10001362E+04</pdfrwt>
<pdfrwt beam="2">  1       -2 0.42275600E-01 0.10001362E+04</pdfrwt>
<totfact> 0.18519955E+02</totfact>
</mgrwt>
</event>
<event>
 9    1  0.4296086E-036  0.1002578E+04  0.7818608E-02  0.8678587E-01
          2   -1    0    0  501    0  0.00000000000E+00  0.00000000000E+00  0.67180181460E+03  0.67180181460E+03  0.00000000000E+00 0. -1.
         -2   -1    0    0    0  501 -0.00000000000E+00 -0.00000000000E+00 -0.37405453098E+03  0.37405453098E+03  0.00000000000E+00 0. -1.
         36    2    1    2    0    0  0.71054273576E-14  0.00000000000E+00  0.29774728362E+03  0.10458563456E+04  0.10025777031E+04 0.  0.
         25    2    3    3    0    0 -0.47633322980E+02  0.13538723212E+03  0.59609023816E+02  0.19952382045E+03  0.12513146338E+03 0.  0.
         35    2    3    3    0    0  0.47633322980E+02 -0.13538723212E+03  0.23813825981E+03  0.84633252513E+03  0.79935616357E+03 0.  0.
         22    1    5    5    0    0 -0.16414895169E+03 -0.19533156694E+03  0.46490271648E+03  0.53031484533E+03  0.00000000000E+00 0.  1.
         22    1    5    5    0    0  0.21178227467E+03  0.59944334823E+02 -0.22676445667E+03  0.31601767981E+03  0.00000000000E+00 0.  1.
          5    1    4    4  502    0 -0.46683512188E+02  0.10518699665E+02  0.56950684330E+02  0.74534983723E+02  0.47000000000E+01 0.  1.
         -5    1    4    4    0  502 -0.94981079222E+00  0.12486853245E+03  0.26583394855E+01  0.12498883672E+03  0.47000000000E+01 0.  1.
<mgrwt>
<rscale>  0 0.10025777E+04</rscale>
<asrwt>0</asrwt>
<pdfrwt beam="1">  1        2 0.10335413E+00 0.10025777E+04</pdfrwt>
<pdfrwt beam="2">  1       -2 0.57546851E-01 0.10025777E+04</pdfrwt>
<totfact> 0.14769083E+02</totfact>
</mgrwt>
</event>
<event>
 9    1  0.4296086E-036  0.9999250E+03  0.7818608E-02  0.8681109E-01
          1   -1    0    0  501    0  0.00000000000E+00  0.00000000000E+00  0.53688570194E+03  0.53688570194E+03  0.00000000000E+00 0. -1.
         -1   -1    0    0    0  501 -0.00000000000E+00 -0.00000000000E+00 -0.46557862105E+03  0.46557862105E+03  0.00000000000E+00 0. -1.
         36    2    1    2    0    0  0.00000000000E+00  0.00000000000E+00  0.71307080890E+02  0.10024643230E+04  0.99992500673E+03 0.  0.
         25    2    3    3    0    0 -0.86685298407E+02 -0.10120458954E+03  0.59191967264E+02  0.19144136960E+03  0.12405401687E+03 0.  0.
         35    2    3    3    0    0  0.86685298407E+02  0.10120458954E+03  0.12115113626E+02  0.81102295339E+03  0.79990921051E+03 0.  0.
         22    1    5    5    0    0 -0.32648536743E+03  0.16387655853E+03  0.11059381986E+03  0.38167946575E+03  0.00000000000E+00 0.  1.
         22    1    5    5    0    0  0.41317066584E+03 -0.62671968994E+02 -0.98478706236E+02  0.42934348765E+03  0.00000000000E+00 0.  1.
          5    1    4    4  502    0 -0.32016901638E+02  0.25728085109E+02  0.84110374013E+00  0.41349894913E+02  0.47000000000E+01 0.  1.
         -5    1    4    4    0  502 -0.54668396769E+02 -0.12693267465E+03  0.58350863524E+02  0.15009147468E+03  0.47000000000E+01 0.  1.
<mgrwt>
<rscale>  0 0.99992501E+03</rscale>
<asrwt>0</asrwt>
<pdfrwt beam="1">  1        1 0.82597801E-01 0.99992501E+03</pdfrwt>
<pdfrwt beam="2">  1       -1 0.71627480E-01 0.99992501E+03</pdfrwt>
<totfact> 0.92736248E+01</totfact>
</mgrwt>
</event>
<event>
 9    1  0.4296086E-036  0.1010463E+04  0.7818608E-02  0.8671137E-01
          2   -1    0    0  501    0  0.00000000000E+00  0.00000000000E+00  0.72611998890E+03  0.72611998890E+03  0.00000000000E+00 0.  1.
         -2   -1    0    0    0  501 -0.00000000000E+00 -0.00000000000E+00 -0.35153818955E+03  0.35153818955E+03  0.00000000000E+00 0.  1.
         36    2    1    2    0    0 -0.71054273576E-14 -0.42632564146E-13  0.37458179935E+03  0.10776581784E+04  0.10104630746E+04 0.  0.
         25    2    3    3    0    0  0.52644066151E+02  0.53505596060E+02  0.21303752841E+03  0.25822121733E+03  0.12513577449E+03 0.  0.
         35    2    3    3    0    0 -0.52644066151E+02 -0.53505596060E+02  0.16154427094E+03  0.81943696112E+03  0.79984131880E+03 0.  0.
         22    1    5    5    0    0 -0.12309487064E+03 -0.40505295493E+03 -0.66786470481E+01  0.42339679710E+03  0.00000000000E+00 0. -1.
         22    1    5    5    0    0  0.70450804489E+02  0.35154735887E+03  0.16822291798E+03  0.39604016402E+03  0.00000000000E+00 0. -1.
          5    1    4    4  502    0  0.17875206120E+02 -0.33525308523E+02  0.12048594801E+03  0.12642160801E+03  0.47000000000E+01 0. -1.
         -5    1    4    4    0  502  0.34768860031E+02  0.87030904583E+02  0.92551580407E+02  0.13179960932E+03  0.47000000000E+01 0. -1.
<mgrwt>
<rscale>  0 0.10104631E+04</rscale>
<asrwt>0</asrwt>
<pdfrwt beam="1">  1        2 0.11171077E+00 0.10104631E+04</pdfrwt>
<pdfrwt beam="2">  1       -2 0.54082799E-01 0.10104631E+04</pdfrwt>
<totfact> 0.15244657E+02</totfact>
</mgrwt>
</event>
<event>
 9    1  0.4296086E-036  0.9990995E+03  0.7818608E-02  0.8681896E-01
          2   -1    0    0  501    0  0.00000000000E+00  0.00000000000E+00  0.40832594825E+04  0.40832594825E+04  0.00000000000E+00 0. -1.
         -2   -1    0    0    0  501 -0.00000000000E+00 -0.00000000000E+00 -0.61115384566E+02  0.61115384566E+02  0.00000000000E+00 0. -1.
         36    2    1    2    0    0 -0.14210854715E-13 -0.14210854715E-13  0.40221440979E+04  0.41443748670E+04  0.99909954170E+03 0.  0.
         25    2    3    3    0    0 -0.21846197964E+02 -0.66126582670E+02  0.25665620906E+03  0.29394012525E+03  0.12521344289E+03 0.  0.
         35    2    3    3    0    0  0.21846197964E+02  0.66126582670E+02  0.37654878888E+04  0.38504347418E+04  0.80131060048E+03 0.  0.
         22    1    5    5    0    0  0.19933575191E+03  0.15301941971E+03  0.35467764637E+04  0.35556677247E+04  0.00000000000E+00 0.  1.
         22    1    5    5    0    0 -0.17748955395E+03 -0.86892837042E+02  0.21871142513E+03  0.29476701710E+03  0.00000000000E+00 0.  1.
          5    1    4    4  502    0 -0.16380933056E+01 -0.33061620825E+02 -0.89638950579E+00  0.33446190147E+02  0.47000000000E+01 0. -1.
         -5    1    4    4    0  502 -0.20208104658E+02 -0.33064961845E+02  0.25755259856E+03  0.26049393510E+03  0.47000000000E+01 0. -1.
<mgrwt>
<rscale>  0 0.99909954E+03</rscale>
<asrwt>0</asrwt>
<pdfrwt beam="1">  1        2 0.62819355E+00 0.99909954E+03</pdfrwt>
<pdfrwt beam="2">  1       -2 0.94023701E-02 0.99909954E+03</pdfrwt>
<totfact> 0.21203607E+01</totfact>
</mgrwt>
</event>
<event>
 9    1  0.4296086E-036  0.9981679E+03  0.7818608E-02  0.8682785E-01
          2   -1    0    0  501    0  0.00000000000E+00  0.00000000000E+00  0.13178313345E+04  0.13178313345E+04  0.00000000000E+00 0. -1.
         -2   -1    0    0    0  501 -0.00000000000E+00 -0.00000000000E+00 -0.18901112179E+03  0.18901112179E+03  0.00000000000E+00 0. -1.
         36    2    1    2    0    0  0.21316282073E-13 -0.71054273576E-14  0.11288202127E+04  0.15068424562E+04  0.99816787938E+03 0.  0.
         25    2    3    3    0    0 -0.84747583167E+01  0.43372383460E+02  0.40820137174E+03  0.42907488049E+03  0.12459497580E+03 0.  0.
         35    2    3    3    0    0  0.84747583167E+01 -0.43372383460E+02  0.72061884092E+03  0.10777675758E+04  0.80021150223E+03 0.  0.
         22    1    5    5    0    0  0.32976875725E+03  0.20968461730E+03  0.38679669368E+03  0.54984248129E+03  0.00000000000E+00 0.  1.
         22    1    5    5    0    0 -0.32129399893E+03 -0.25305700076E+03  0.33382214724E+03  0.52792509447E+03  0.00000000000E+00 0.  1.
          5    1    4    4  502    0 -0.56581353719E+02  0.55605391712E+02  0.20548870867E+03  0.22032046788E+03  0.47000000000E+01 0. -1.
         -5    1    4    4    0  502  0.48106595403E+02 -0.12233008252E+02  0.20271266307E+03  0.20875441260E+03  0.47000000000E+01 0. -1.
<mgrwt>
<rscale>  0 0.99816788E+03</rscale>
<asrwt>0</asrwt>
<pdfrwt beam="1">  1        2 0.20274328E+00 0.99816788E+03</pdfrwt>
<pdfrwt beam="2">  1       -2 0.29078635E-01 0.99816788E+03</pdfrwt>
<totfact> 0.21061212E+02</totfact>
</mgrwt>
</event>
<event>
 9    1  0.4296086E-036  0.1000961E+04  0.7818608E-02  0.8680123E-01
         -2   -1    0    0    0  501 -0.00000000000E+00  0.00000000000E+00  0.66231984299E+03  0.66231984299E+03  0.00000000000E+00 0.  1.
          2   -1    0    0  501    0  0.00000000000E+00 -0.00000000000E+00 -0.37818694598E+03  0.37818694598E+03  0.00000000000E+00 0.  1.
         36    2    1    2    0    0  0.28421709430E-13  0.00000000000E+00  0.28413289700E+03  0.10405067890E+04  0.10009609756E+04 0.  0.
         25    2    3    3    0    0  0.83643058521E+02 -0.71214671000E+02  0.14596848260E+03  0.22183557220E+03  0.12584328578E+03 0.  0.
         35    2    3    3    0    0 -0.83643058521E+02  0.71214671000E+02  0.13816441440E+03  0.81867121677E+03  0.79941570235E+03 0.  0.
         22    1    5    5    0    0 -0.35795250595E+03 -0.17651535864E+03  0.19586399665E+03  0.44457887212E+03  0.00000000000E+00 0. -1.
         22    1    5    5    0    0  0.27430944743E+03  0.24773002964E+03 -0.57699582248E+02  0.37409234465E+03  0.00000000000E+00 0. -1.
          5    1    4    4  502    0  0.52195534415E+02 -0.36412263195E+01 -0.56366727206E+01  0.52834594930E+02  0.47000000000E+01 0.  1.
         -5    1    4    4    0  502  0.31447524106E+02 -0.67573444680E+02  0.15160515532E+03  0.16900097727E+03  0.47000000000E+01 0.  1.
<mgrwt>
<rscale>  0 0.10009610E+04</rscale>
<asrwt>0</asrwt>
<pdfrwt beam="1">  1        2 0.58182607E-01 0.10009610E+04</pdfrwt>
<pdfrwt beam="2">  1       -2 0.10189536E+00 0.10009610E+04</pdfrwt>
<totfact> 0.79369194E+01</totfact>
</mgrwt>
</event>
<event>
 9    1  0.4296086E-036  0.1000233E+04  0.7818608E-02  0.8680816E-01
         -2   -1    0    0    0  501 -0.00000000000E+00  0.00000000000E+00  0.30880397250E+03  0.30880397250E+03  0.00000000000E+00 0. -1.
          2   -1    0    0  501    0  0.00000000000E+00 -0.00000000000E+00 -0.80995317226E+03  0.80995317226E+03  0.00000000000E+00 0. -1.
         36    2    1    2    0    0  0.14210854715E-13  0.28421709430E-13 -0.50114919976E+03  0.11187571448E+04  0.10002334870E+04 0.  0.
         25    2    3    3    0    0  0.96237975177E+02 -0.15691171701E+02 -0.20794541365E+03  0.26162369541E+03  0.12529047133E+03 0.  0.
         35    2    3    3    0    0 -0.96237975177E+02  0.15691171701E+02 -0.29320378611E+03  0.85713344935E+03  0.79950067484E+03 0.  0.
         22    1    5    5    0    0 -0.19901149597E+03 -0.24555140083E+03  0.13614941156E+03  0.34414782906E+03  0.00000000000E+00 0. -1.
         22    1    5    5    0    0  0.10277352079E+03  0.26124257253E+03 -0.42935319767E+03  0.51298562029E+03  0.00000000000E+00 0. -1.
          5    1    4    4  502    0  0.15526604792E+02 -0.38638487824E+02 -0.52965733191E+01  0.42239222136E+02  0.47000000000E+01 0.  1.
         -5    1    4    4    0  502  0.80711370385E+02  0.22947316123E+02 -0.20264884033E+03  0.21938447328E+03  0.47000000000E+01 0.  1.
<mgrwt>
<rscale>  0 0.10002335E+04</rscale>
<asrwt>0</asrwt>
<pdfrwt beam="1">  1        2 0.12460818E+00 0.10002335E+04</pdfrwt>
<pdfrwt beam="2">  1       -2 0.47508304E-01 0.10002335E+04</pdfrwt>
<totfact> 0.17217697E+02</totfact>
</mgrwt>
</event>
<event>
 9    1  0.4296086E-036  0.9994804E+03  0.7818608E-02  0.8681533E-01
          2   -1    0    0  501    0  0.00000000000E+00  0.00000000000E+00  0.37684994787E+03  0.37684994787E+03  0.00000000000E+00 0.  1.
         -2   -1    0    0    0  501 -0.00000000000E+00 -0.00000000000E+00 -0.66270475965E+03  0.66270475965E+03  0.00000000000E+00 0.  1.
         36    2    1    2    0    0 -0.28421709430E-13 -0.14210854715E-13 -0.28585481179E+03  0.10395547075E+04  0.99948037325E+03 0.  0.
         25    2    3    3    0    0  0.10913106886E+03  0.62285547534E+02  0.53098672330E+01  0.17714672697E+03  0.12475451320E+03 0.  0.
         35    2    3    3    0    0 -0.10913106886E+03 -0.62285547534E+02 -0.29116467902E+03  0.86240798055E+03  0.80198601920E+03 0.  0.
         22    1    5    5    0    0 -0.36301966404E+03 -0.27563428338E+03 -0.63622253790E+02  0.46022312613E+03  0.00000000000E+00 0.  1.
         22    1    5    5    0    0  0.25388859518E+03  0.21334873584E+03 -0.22754242523E+03  0.40218485442E+03  0.00000000000E+00 0.  1.
          5    1    4    4  502    0  0.10309515698E+02 -0.33889069353E+02  0.15168281320E+02  0.38819091871E+02  0.47000000000E+01 0. -1.
         -5    1    4    4    0  502  0.98821553162E+02  0.96174616886E+02 -0.98584140867E+01  0.13832763509E+03  0.47000000000E+01 0. -1.
<mgrwt>
<rscale>  0 0.99948037E+03</rscale>
<asrwt>0</asrwt>
<pdfrwt beam="1">  1        2 0.57976916E-01 0.99948037E+03</pdfrwt>
<pdfrwt beam="2">  1       -2 0.10195458E+00 0.99948037E+03</pdfrwt>
<totfact> 0.79579739E+01</totfact>
</mgrwt>
</event>
<event>
 9    1  0.4296086E-036  0.9953461E+03  0.7818608E-02  0.8685483E-01
         -1   -1    0    0    0  501 -0.00000000000E+00  0.00000000000E+00  0.68044350668E+03  0.68044350668E+03  0.00000000000E+00 0. -1.
          1   -1    0    0  501    0  0.00000000000E+00 -0.00000000000E+00 -0.36399559808E+03  0.36399559808E+03  0.00000000000E+00 0. -1.
         36    2    1    2    0    0  0.00000000000E+00  0.28421709430E-13  0.31644790860E+03  0.10444391048E+04  0.99534605273E+03 0.  0.
         25    2    3    3    0    0 -0.37334090114E+02 -0.66987692489E+02  0.17370399120E+03  0.22788652240E+03  0.12600795730E+03 0.  0.
         35    2    3    3    0    0  0.37334090114E+02  0.66987692489E+02  0.14274391740E+03  0.81655258236E+03  0.80031313157E+03 0.  0.
         22    1    5    5    0    0  0.22420166299E+03  0.30835968165E+03  0.28867431448E+03  0.47821014083E+03  0.00000000000E+00 0. -1.
         22    1    5    5    0    0 -0.18686757288E+03 -0.24137198916E+03 -0.14593039707E+03  0.33834244152E+03  0.00000000000E+00 0. -1.
          5    1    4    4  502    0  0.39824000300E+02 -0.37687896470E+02  0.31524592112E+02  0.63420962213E+02  0.47000000000E+01 0. -1.
         -5    1    4    4    0  502 -0.77158090414E+02 -0.29299796020E+02  0.14217939908E+03  0.16446556019E+03  0.47000000000E+01 0. -1.
<mgrwt>
<rscale>  0 0.99534605E+03</rscale>
<asrwt>0</asrwt>
<pdfrwt beam="1">  1        1 0.55999323E-01 0.99534605E+03</pdfrwt>
<pdfrwt beam="2">  1       -1 0.10468362E+00 0.99534605E+03</pdfrwt>
<totfact> 0.70049176E+01</totfact>
</mgrwt>
</event>
<event>
 9    1  0.4296086E-036  0.1001179E+04  0.7818608E-02  0.8679916E-01
          2   -1    0    0  501    0  0.00000000000E+00  0.00000000000E+00  0.23654569956E+04  0.23654569956E+04  0.00000000000E+00 0.  1.
         -2   -1    0    0    0  501 -0.00000000000E+00 -0.00000000000E+00 -0.10593711227E+03  0.10593711227E+03  0.00000000000E+00 0.  1.
         36    2    1    2    0    0 -0.14210854715E-13 -0.28421709430E-13  0.22595198833E+04  0.24713941079E+04  0.10011786720E+04 0.  0.
         25    2    3    3    0    0 -0.73854766454E+02 -0.11339590894E+03  0.52484721576E+03  0.55636712487E+03  0.12556519840E+03 0.  0.
         35    2    3    3    0    0  0.73854766454E+02  0.11339590894E+03  0.17346726675E+04  0.19150269830E+04  0.79995370076E+03 0.  0.
         22    1    5    5    0    0  0.24192567446E+03  0.40037033652E+03  0.85525066519E+03  0.97482210615E+03  0.00000000000E+00 0.  1.
         22    1    5    5    0    0 -0.16807090801E+03 -0.28697442759E+03  0.87942200234E+03  0.94020487683E+03  0.00000000000E+00 0.  1.
          5    1    4    4  502    0 -0.14150374590E+02 -0.90512447340E+02  0.14813129136E+03  0.17423462832E+03  0.47000000000E+01 0.  1.
         -5    1    4    4    0  502 -0.59704391864E+02 -0.22883461597E+02  0.37671592440E+03  0.38213249655E+03  0.47000000000E+01 0.  1.
<mgrwt>
<rscale>  0 0.10011787E+04</rscale>
<asrwt>0</asrwt>
<pdfrwt beam="1">  1        2 0.36391642E+00 0.10011787E+04</pdfrwt>
<pdfrwt beam="2">  1       -2 0.16298019E-01 0.10011787E+04</pdfrwt>
<totfact> 0.14590700E+02</totfact>
</mgrwt>
</event>
<event>
 9    1  0.4296086E-036  0.1001296E+04  0.7818608E-02  0.8679805E-01
         -1   -1    0    0    0  501 -0.00000000000E+00  0.00000000000E+00  0.35588126796E+03  0.35588126796E+03  0.00000000000E+00 0.  1.
          1   -1    0    0  501    0  0.00000000000E+00 -0.00000000000E+00 -0.70430305212E+03  0.70430305212E+03  0.00000000000E+00 0.  1.
         36    2    1    2    0    0 -0.14210854715E-13 -0.14210854715E-13 -0.34842178416E+03  0.10601843201E+04  0.10012956870E+04 0.  0.
         25    2    3    3    0    0  0.62340229328E+01  0.12374152905E+03 -0.13655853294E+03  0.22379757778E+03  0.12683175410E+03 0.  0.
         35    2    3    3    0    0 -0.62340229328E+01 -0.12374152905E+03 -0.21186325122E+03  0.83638674230E+03  0.79956608009E+03 0.  0.
         22    1    5    5    0    0 -0.24184747869E+03 -0.35953774207E+03  0.14336207393E+02  0.43354713441E+03  0.00000000000E+00 0.  1.
         22    1    5    5    0    0  0.23561345575E+03  0.23579621301E+03 -0.22619945862E+03  0.40283960789E+03  0.00000000000E+00 0.  1.
          5    1    4    4  502    0 -0.36908273770E+02  0.82074010282E+02 -0.19523056282E+02  0.92204140705E+02  0.47000000000E+01 0. -1.
         -5    1    4    4    0  502  0.43142296703E+02  0.41667518769E+02 -0.11703547666E+03  0.13159343708E+03  0.47000000000E+01 0. -1.
<mgrwt>
<rscale>  0 0.10012957E+04</rscale>
<asrwt>0</asrwt>
<pdfrwt beam="1">  1        1 0.10835431E+00 0.10012957E+04</pdfrwt>
<pdfrwt beam="2">  1       -1 0.54750965E-01 0.10012957E+04</pdfrwt>
<totfact> 0.10460005E+02</totfact>
</mgrwt>
</event>
<event>
 9    1  0.4296086E-036  0.9991357E+03  0.7818608E-02  0.8681861E-01
          2   -1    0    0  501    0  0.00000000000E+00  0.00000000000E+00  0.38680780166E+03  0.38680780166E+03  0.00000000000E+00 0.  1.
         -2   -1    0    0    0  501 -0.00000000000E+00 -0.00000000000E+00 -0.64519902980E+03  0.64519902980E+03  0.00000000000E+00 0.  1.
         36    2    1    2    0    0  0.42632564146E-13  0.14210854715E-13 -0.25839122814E+03  0.10320068315E+04  0.99913566316E+03 0.  0.
         25    2    3    3    0    0 -0.67047932046E+02 -0.18409234673E+02  0.74532185560E+02  0.16063853021E+03  0.12415863076E+03 0.  0.
         35    2    3    3    0    0  0.67047932046E+02  0.18409234673E+02 -0.33292341370E+03  0.87136830125E+03  0.80225332154E+03 0.  0.
         22    1    5    5    0    0  0.38997248880E+03  0.19610431482E+03 -0.18943848786E+03  0.47583861234E+03  0.00000000000E+00 0.  1.
         22    1    5    5    0    0 -0.32292455675E+03 -0.17769508015E+03 -0.14348492584E+03  0.39552968891E+03  0.00000000000E+00 0.  1.
          5    1    4    4  502    0 -0.74508884936E+01  0.37174642984E+02 -0.13560511069E+02  0.40539453385E+02  0.47000000000E+01 0.  1.
         -5    1    4    4    0  502 -0.59597043552E+02 -0.55583877657E+02  0.88092696630E+02  0.12009907683E+03  0.47000000000E+01 0.  1.
<mgrwt>
<rscale>  0 0.99913566E+03</rscale>
<asrwt>0</asrwt>
<pdfrwt beam="1">  1        2 0.59508893E-01 0.99913566E+03</pdfrwt>
<pdfrwt beam="2">  1       -2 0.99261388E-01 0.99913566E+03</pdfrwt>
<totfact> 0.82522221E+01</totfact>
</mgrwt>
</event>
<event>
 9    1  0.4296086E-036  0.9991110E+03  0.7818608E-02  0.8681885E-01
         -2   -1    0    0    0  501 -0.00000000000E+00  0.00000000000E+00  0.43219152439E+03  0.43219152439E+03  0.00000000000E+00 0. -1.
          2   -1    0    0  501    0  0.00000000000E+00 -0.00000000000E+00 -0.57741928687E+03  0.57741928687E+03  0.00000000000E+00 0. -1.
         36    2    1    2    0    0  0.00000000000E+00 -0.28421709430E-13 -0.14522776249E+03  0.10096108113E+04  0.99911104849E+03 0.  0.
         25    2    3    3    0    0  0.37106837133E+02 -0.11989620877E+03  0.35460468690E+02  0.18059929018E+03  0.12492654056E+03 0.  0.
         35    2    3    3    0    0 -0.37106837133E+02  0.11989620877E+03 -0.18068823118E+03  0.82901152107E+03  0.79928708669E+03 0.  0.
         22    1    5    5    0    0  0.14437618822E+03  0.42732724039E+03 -0.80148416620E+02  0.45812315242E+03  0.00000000000E+00 0. -1.
         22    1    5    5    0    0 -0.18148302535E+03 -0.30743103161E+03 -0.10053981456E+03  0.37088836865E+03  0.00000000000E+00 0. -1.
          5    1    4    4  502    0  0.17957853184E+02 -0.13869872715E+03  0.51349495608E+02  0.14905932411E+03  0.47000000000E+01 0.  1.
         -5    1    4    4    0  502  0.19148983949E+02  0.18802518380E+02 -0.15889026918E+02  0.31539966077E+02  0.47000000000E+01 0.  1.
<mgrwt>
<rscale>  0 0.99911105E+03</rscale>
<asrwt>0</asrwt>
<pdfrwt beam="1">  1        2 0.88833736E-01 0.99911105E+03</pdfrwt>
<pdfrwt beam="2">  1       -2 0.66491004E-01 0.99911105E+03</pdfrwt>
<totfact> 0.13064778E+02</totfact>
</mgrwt>
</event>
<event>
 9    1  0.4296086E-036  0.9995709E+03  0.7818608E-02  0.8681447E-01
         -2   -1    0    0    0  501 -0.00000000000E+00  0.00000000000E+00  0.55027157783E+03  0.55027157783E+03  0.00000000000E+00 0.  1.
          2   -1    0    0  501    0  0.00000000000E+00 -0.00000000000E+00 -0.45393131837E+03  0.45393131837E+03  0.00000000000E+00 0.  1.
         36    2    1    2    0    0  0.00000000000E+00  0.00000000000E+00  0.96340259462E+02  0.10042028962E+04  0.99957091351E+03 0.  0.
         25    2    3    3    0    0 -0.11088948904E+03  0.50951941666E+02  0.89826824665E+02  0.19507113564E+03  0.12284669467E+03 0.  0.
         35    2    3    3    0    0  0.11088948904E+03 -0.50951941666E+02  0.65134347967E+01  0.80913176056E+03  0.79984948707E+03 0.  0.
         22    1    5    5    0    0 -0.30573457961E+03 -0.45299608714E+02  0.18014379802E+03  0.35773939633E+03  0.00000000000E+00 0.  1.
         22    1    5    5    0    0  0.41662406865E+03 -0.56523329517E+01 -0.17363036323E+03  0.45139236423E+03  0.00000000000E+00 0.  1.
          5    1    4    4  502    0 -0.22500964864E+02 -0.29434644963E+02  0.61885394530E+02  0.72281282502E+02  0.47000000000E+01 0. -1.
         -5    1    4    4    0  502 -0.88388524177E+02  0.80386586629E+02  0.27941430135E+02  0.12278985314E+03  0.47000000000E+01 0. -1.
<mgrwt>
<rscale>  0 0.99957091E+03</rscale>
<asrwt>0</asrwt>
<pdfrwt beam="1">  1        2 0.69835588E-01 0.99957091E+03</pdfrwt>
<pdfrwt beam="2">  1       -2 0.84657165E-01 0.99957091E+03</pdfrwt>
<totfact> 0.10045736E+02</totfact>
</mgrwt>
</event>
<event>
 9    1  0.4296086E-036  0.9998443E+03  0.7818608E-02  0.8681186E-01
          1   -1    0    0  501    0  0.00000000000E+00  0.00000000000E+00  0.88954565606E+03  0.88954565606E+03  0.00000000000E+00 0. -1.
         -1   -1    0    0    0  501 -0.00000000000E+00 -0.00000000000E+00 -0.28095484337E+03  0.28095484337E+03  0.00000000000E+00 0. -1.
         36    2    1    2    0    0  0.00000000000E+00 -0.14210854715E-13  0.60859081270E+03  0.11705004994E+04  0.99984430881E+03 0.  0.
         25    2    3    3    0    0 -0.10521859961E+03 -0.23087808271E+02  0.21802473681E+03  0.27337140540E+03  0.12487249030E+03 0.  0.
         35    2    3    3    0    0  0.10521859961E+03  0.23087808271E+02  0.39056607589E+03  0.89712909403E+03  0.80043410168E+03 0.  0.
         22    1    5    5    0    0 -0.17992374204E+03 -0.21936902451E+03 -0.81023150352E+02  0.29505943936E+03  0.00000000000E+00 0. -1.
         22    1    5    5    0    0  0.28514234166E+03  0.24245683278E+03  0.47158922624E+03  0.60206965467E+03  0.00000000000E+00 0. -1.
          5    1    4    4  502    0  0.98209632248E+01 -0.23143468913E+02 -0.13568019404E+01  0.25612543479E+02  0.47000000000E+01 0.  1.
         -5    1    4    4    0  502 -0.11503956284E+03  0.55660641613E-01  0.21938153875E+03  0.24775886192E+03  0.47000000000E+01 0.  1.
<mgrwt>
<rscale>  0 0.99984431E+03</rscale>
<asrwt>0</asrwt>
<pdfrwt beam="1">  1        1 0.13685318E+00 0.99984431E+03</pdfrwt>
<pdfrwt beam="2">  1       -1 0.43223822E-01 0.99984431E+03</pdfrwt>
<totfact> 0.11068296E+02</totfact>
</mgrwt>
</event>
<event>
 9    1  0.4296086E-036  0.9882133E+03  0.7818608E-02  0.8692344E-01
         -1   -1    0    0    0  501 -0.00000000000E+00  0.00000000000E+00  0.22367500196E+03  0.22367500196E+03  0.00000000000E+00 0.  1.
          1   -1    0    0  501    0  0.00000000000E+00 -0.00000000000E+00 -0.10915005616E+04  0.10915005616E+04  0.00000000000E+00 0.  1.
         36    2    1    2    0    0  0.00000000000E+00 -0.35527136788E-14 -0.86782555966E+03  0.13151755636E+04  0.98821331757E+03 0.  0.
         25    2    3    3    0    0  0.95359643828E+02 -0.14670203496E+02 -0.27300437224E+03  0.31414673397E+03  0.12185280735E+03 0.  0.
         35    2    3    3    0    0 -0.95359643828E+02  0.14670203496E+02 -0.59482118742E+03  0.10010288296E+04  0.79933584691E+03 0.  0.
         22    1    5    5    0    0 -0.40294447988E+03  0.94867251736E+02 -0.53685089304E+03  0.67791808552E+03  0.00000000000E+00 0.  1.
         22    1    5    5    0    0  0.30758483605E+03 -0.80197048240E+02 -0.57970294386E+02  0.32311074409E+03  0.00000000000E+00 0.  1.
          5    1    4    4  502    0  0.12577094137E+02 -0.43894766616E+02 -0.18165245029E+03  0.18736231353E+03  0.47000000000E+01 0. -1.
         -5    1    4    4    0  502  0.82782549691E+02  0.29224563120E+02 -0.91351921948E+02  0.12678442044E+03  0.47000000000E+01 0. -1.
<mgrwt>
<rscale>  0 0.98821332E+03</rscale>
<asrwt>0</asrwt>
<pdfrwt beam="1">  1        1 0.16792316E+00 0.98821332E+03</pdfrwt>
<pdfrwt beam="2">  1       -1 0.34411539E-01 0.98821332E+03</pdfrwt>
<totfact> 0.11438102E+02</totfact>
</mgrwt>
</event>
<event>
 9    1  0.4296086E-036  0.1000733E+04  0.7818608E-02  0.8680340E-01
         -2   -1    0    0    0  501 -0.00000000000E+00  0.00000000000E+00  0.20134716287E+03  0.20134716287E+03  0.00000000000E+00 0.  1.
          2   -1    0    0  501    0  0.00000000000E+00 -0.00000000000E+00 -0.12434582996E+04  0.12434582996E+04  0.00000000000E+00 0.  1.
         36    2    1    2    0    0  0.71054273576E-14  0.00000000000E+00 -0.10421111367E+04  0.14448054624E+04  0.10007333326E+04 0.  0.
         25    2    3    3    0    0  0.10416809446E+02 -0.76091305379E+02 -0.25782421639E+02  0.14899123339E+03  0.12504102402E+03 0.  0.
         35    2    3    3    0    0 -0.10416809446E+02  0.76091305379E+02 -0.10163287151E+04  0.12958142290E+04  0.80019501527E+03 0.  0.
         22    1    5    5    0    0 -0.18279316456E+03  0.29700164467E+03 -0.14003292776E+03  0.37580917871E+03  0.00000000000E+00 0. -1.
         22    1    5    5    0    0  0.17237635511E+03 -0.22091033929E+03 -0.87629578730E+03  0.92000505033E+03  0.00000000000E+00 0. -1.
          5    1    4    4  502    0  0.44708398896E+02 -0.17422913139E-01  0.24757059917E+02  0.51320982562E+02  0.47000000000E+01 0.  1.
         -5    1    4    4    0  502 -0.34291589450E+02 -0.76073882466E+02 -0.50539481556E+02  0.97670250826E+02  0.47000000000E+01 0.  1.
<mgrwt>
<rscale>  0 0.10007333E+04</rscale>
<asrwt>0</asrwt>
<pdfrwt beam="1">  1        2 0.19130128E+00 0.10007333E+04</pdfrwt>
<pdfrwt beam="2">  1       -2 0.30976487E-01 0.10007333E+04</pdfrwt>
<totfact> 0.20735311E+02</totfact>
</mgrwt>
</event>
<event>
 9    1  0.4296086E-036  0.9996166E+03  0.7818608E-02  0.8681403E-01
         -2   -1    0    0    0  501 -0.00000000000E+00  0.00000000000E+00  0.99411147781E+03  0.99411147781E+03  0.00000000000E+00 0. -1.
          2   -1    0    0  501    0  0.00000000000E+00 -0.00000000000E+00 -0.25128802812E+03  0.25128802812E+03  0.00000000000E+00 0. -1.
         36    2    1    2    0    0  0.00000000000E+00  0.00000000000E+00  0.74282344969E+03  0.12453995059E+04  0.99961655247E+03 0.  0.
         25    2    3    3    0    0  0.78637073177E+02 -0.11621247428E+03  0.99652726244E+02  0.21267977439E+03  0.12495155913E+03 0.  0.
         35    2    3    3    0    0 -0.78637073177E+02  0.11621247428E+03  0.64317072345E+03  0.10327197315E+04  0.79570870044E+03 0.  0.
         22    1    5    5    0    0 -0.20185469775E+03 -0.18970822087E+03 -0.34408858707E+02  0.27913885009E+03  0.00000000000E+00 0. -1.
         22    1    5    5    0    0  0.12321762458E+03  0.30592069516E+03  0.67757958216E+03  0.75358088145E+03  0.00000000000E+00 0. -1.
          5    1    4    4  502    0  0.85024158458E+02 -0.20647240348E+02  0.70471377064E+02  0.11244430195E+03  0.47000000000E+01 0.  1.
         -5    1    4    4    0  502 -0.63870852818E+01 -0.95565233936E+02  0.29181349180E+02  0.10023547244E+03  0.47000000000E+01 0.  1.
<mgrwt>
<rscale>  0 0.99961655E+03</rscale>
<asrwt>0</asrwt>
<pdfrwt beam="1">  1        2 0.38659697E-01 0.99961655E+03</pdfrwt>
<pdfrwt beam="2">  1       -2 0.15294023E+00 0.99961655E+03</pdfrwt>
<totfact> 0.42999441E+01</totfact>
</mgrwt>
</event>
<event>
 9    1  0.4296086E-036  0.9998108E+03  0.7818608E-02  0.8681218E-01
         -1   -1    0    0    0  501 -0.00000000000E+00  0.00000000000E+00  0.97531614411E+02  0.97531614411E+02  0.00000000000E+00 0.  1.
          1   -1    0    0  501    0  0.00000000000E+00 -0.00000000000E+00 -0.25623016330E+04  0.25623016330E+04  0.00000000000E+00 0.  1.
         36    2    1    2    0    0 -0.28421709430E-13 -0.21316282073E-13 -0.24647700186E+04  0.26598332474E+04  0.99981081186E+03 0.  0.
         25    2    3    3    0    0 -0.11719605578E+03 -0.26052942651E+02 -0.66122924216E+03  0.68336141862E+03  0.12387512447E+03 0.  0.
         35    2    3    3    0    0  0.11719605578E+03  0.26052942651E+02 -0.18035407765E+04  0.19764718288E+04  0.79954229810E+03 0.  0.
         22    1    5    5    0    0  0.33115398776E+03 -0.24791338902E+03 -0.13028163093E+04  0.13669141699E+04  0.00000000000E+00 0. -1.
         22    1    5    5    0    0 -0.21395793198E+03  0.27396633167E+03 -0.50072446712E+03  0.60955765889E+03  0.00000000000E+00 0. -1.
          5    1    4    4  502    0 -0.77893728990E+02 -0.28421107351E+02 -0.15733106468E+03  0.17790544194E+03  0.47000000000E+01 0. -1.
         -5    1    4    4    0  502 -0.39302326786E+02  0.23681646998E+01 -0.50389817747E+03  0.50545597667E+03  0.47000000000E+01 0. -1.
<mgrwt>
<rscale>  0 0.99981081E+03</rscale>
<asrwt>0</asrwt>
<pdfrwt beam="1">  1        1 0.39420024E+00 0.99981081E+03</pdfrwt>
<pdfrwt beam="2">  1       -1 0.15004864E-01 0.99981081E+03</pdfrwt>
<totfact> 0.41033027E+01</totfact>
</mgrwt>
</event>
<event>
 9    1  0.4296086E-036  0.9993247E+03  0.7818608E-02  0.8681681E-01
          1   -1    0    0  501    0  0.00000000000E+00  0.00000000000E+00  0.99560197303E+03  0.99560197303E+03  0.00000000000E+00 0.  1.
         -1   -1    0    0    0  501 -0.00000000000E+00 -0.00000000000E+00 -0.25076533902E+03  0.25076533902E+03  0.00000000000E+00 0.  1.
         36    2    1    2    0    0  0.28421709430E-13  0.00000000000E+00  0.74483663401E+03  0.12463673120E+04  0.99932470458E+03 0.  0.
         25    2    3    3    0    0 -0.16644166357E+02 -0.77566728449E+02  0.28033864686E+03  0.31668315597E+03  0.12411623066E+03 0.  0.
         35    2    3    3    0    0  0.16644166357E+02  0.77566728449E+02  0.46449798714E+03  0.92968415608E+03  0.80141164477E+03 0.  0.
         22    1    5    5    0    0  0.37011990972E+03  0.20224958256E+03  0.31379801008E+03  0.52570222783E+03  0.00000000000E+00 0. -1.
         22    1    5    5    0    0 -0.35347574337E+03 -0.12468285412E+03  0.15069997706E+03  0.40398192824E+03  0.00000000000E+00 0. -1.
          5    1    4    4  502    0 -0.63494901818E+02 -0.36460480894E+02  0.88716583514E+02  0.11512467769E+03  0.47000000000E+01 0.  1.
         -5    1    4    4    0  502  0.46850735461E+02 -0.41106247555E+02  0.19162206335E+03  0.20155847827E+03  0.47000000000E+01 0.  1.
<mgrwt>
<rscale>  0 0.99932470E+03</rscale>
<asrwt>0</asrwt>
<pdfrwt beam="1">  1        1 0.15316953E+00 0.99932470E+03</pdfrwt>
<pdfrwt beam="2">  1       -1 0.38579283E-01 0.99932470E+03</pdfrwt>
<totfact> 0.11112065E+02</totfact>
</mgrwt>
</event>
<event>
 9    1  0.4296086E-036  0.1001224E+04  0.7818608E-02  0.8679873E-01
         -2   -1    0    0    0  501 -0.00000000000E+00  0.00000000000E+00  0.81973434025E+03  0.81973434025E+03  0.00000000000E+00 0. -1.
          2   -1    0    0  501    0  0.00000000000E+00 -0.00000000000E+00 -0.30572411304E+03  0.30572411304E+03  0.00000000000E+00 0. -1.
         36    2    1    2    0    0  0.00000000000E+00 -0.49737991503E-13  0.51401022721E+03  0.11254584533E+04  0.10012243587E+04 0.  0.
         25    2    3    3    0    0  0.13428864073E+03 -0.55976515173E+01  0.40713676874E+02  0.18755806577E+03  0.12432076182E+03 0.  0.
         35    2    3    3    0    0 -0.13428864073E+03  0.55976515173E+01  0.47329655033E+03  0.93790038752E+03  0.79848778302E+03 0.  0.
         22    1    5    5    0    0 -0.30707945105E+02  0.33570971351E+03 -0.17325748084E+02  0.33755617486E+03  0.00000000000E+00 0.  1.
         22    1    5    5    0    0 -0.10358069562E+03 -0.33011206199E+03  0.49062229842E+03  0.60034421267E+03  0.00000000000E+00 0.  1.
          5    1    4    4  502    0 -0.15547249235E+02  0.11213115738E+02  0.30544729454E+02  0.36366487605E+02  0.47000000000E+01 0.  1.
         -5    1    4    4    0  502  0.14983588996E+03 -0.16810767256E+02  0.10168947420E+02  0.15119157817E+03  0.47000000000E+01 0.  1.
<mgrwt>
<rscale>  0 0.10012244E+04</rscale>
<asrwt>0</asrwt>
<pdfrwt beam="1">  1        2 0.47034479E-01 0.10012244E+04</pdfrwt>
<pdfrwt beam="2">  1       -2 0.12611297E+00 0.10012244E+04</pdfrwt>
<totfact> 0.58423208E+01</totfact>
</mgrwt>
</event>
<event>
 9    1  0.4296086E-036  0.1000340E+04  0.7818608E-02  0.8680715E-01
          1   -1    0    0  501    0  0.00000000000E+00  0.00000000000E+00  0.18296567944E+04  0.18296567944E+04  0.00000000000E+00 0.  1.
         -1   -1    0    0    0  501 -0.00000000000E+00 -0.00000000000E+00 -0.13673046013E+03  0.13673046013E+03  0.00000000000E+00 0.  1.
         36    2    1    2    0    0  0.14210854715E-13  0.71054273576E-14  0.16929263343E+04  0.19663872546E+04  0.10003395731E+04 0.  0.
         25    2    3    3    0    0  0.78663914524E+02  0.51612372098E+02  0.52369672449E+03  0.54662225816E+03  0.12524290584E+03 0.  0.
         35    2    3    3    0    0 -0.78663914524E+02 -0.51612372098E+02  0.11692296098E+04  0.14197649964E+04  0.79986431111E+03 0.  0.
         22    1    5    5    0    0 -0.31861767180E+03  0.23049864533E+03  0.82592646784E+03  0.91476848250E+03  0.00000000000E+00 0. -1.
         22    1    5    5    0    0  0.23995375728E+03 -0.28211101742E+03  0.34330314195E+03  0.50499651391E+03  0.00000000000E+00 0. -1.
          5    1    4    4  502    0  0.57553868396E+02 -0.28681826678E+02  0.14170114666E+03  0.15568044166E+03  0.47000000000E+01 0. -1.
         -5    1    4    4    0  502  0.21110046128E+02  0.80294198776E+02  0.38199557783E+03  0.39094181650E+03  0.47000000000E+01 0. -1.
<mgrwt>
<rscale>  0 0.10003396E+04</rscale>
<asrwt>0</asrwt>
<pdfrwt beam="1">  1        1 0.28148564E+00 0.10003396E+04</pdfrwt>
<pdfrwt beam="2">  1       -1 0.21035457E-01 0.10003396E+04</pdfrwt>
<totfact> 0.77132660E+01</totfact>
</mgrwt>
</event>
<event>
 9    1  0.4296086E-036  0.9997624E+03  0.7818608E-02  0.8681264E-01
         -1   -1    0    0    0  501 -0.00000000000E+00  0.00000000000E+00  0.88666978142E+03  0.88666978142E+03  0.00000000000E+00 0. -1.
          1   -1    0    0  501    0  0.00000000000E+00 -0.00000000000E+00 -0.28181992518E+03  0.28181992518E+03  0.00000000000E+00 0. -1.
         36    2    1    2    0    0  0.00000000000E+00 -0.14210854715E-13  0.60484985624E+03  0.11684897066E+04  0.99976239469E+03 0.  0.
         25    2    3    3    0    0 -0.11824880202E+03 -0.69598983223E+02  0.92670506206E+02  0.20740045330E+03  0.12490127166E+03 0.  0.
         35    2    3    3    0    0  0.11824880202E+03  0.69598983223E+02  0.51217935004E+03  0.96108925330E+03  0.80158472326E+03 0.  0.
         22    1    5    5    0    0  0.30560779862E+03 -0.14592381906E+03  0.57626658832E+03  0.66841085297E+03  0.00000000000E+00 0. -1.
         22    1    5    5    0    0 -0.18735899660E+03  0.21552280228E+03 -0.64087238288E+02  0.29267840033E+03  0.00000000000E+00 0. -1.
          5    1    4    4  502    0  0.10499628429E+02 -0.34440954046E+02 -0.11437424735E+02  0.38070017038E+02  0.47000000000E+01 0. -1.
         -5    1    4    4    0  502 -0.12874843045E+03 -0.35158029177E+02  0.10410793094E+03  0.16933043626E+03  0.47000000000E+01 0. -1.
<mgrwt>
<rscale>  0 0.99976239E+03</rscale>
<asrwt>0</asrwt>
<pdfrwt beam="1">  1        1 0.43356912E-01 0.99976239E+03</pdfrwt>
<pdfrwt beam="2">  1       -1 0.13641073E+00 0.99976239E+03</pdfrwt>
<totfact> 0.50855753E+01</totfact>
</mgrwt>
</event>
<event>
 9    1  0.4296086E-036  0.9998411E+03  0.7818608E-02  0.8681189E-01
         -2   -1    0    0    0  501 -0.00000000000E+00  0.00000000000E+00  0.76216427503E+03  0.76216427503E+03  0.00000000000E+00 0.  1.
          2   -1    0    0  501    0  0.00000000000E+00 -0.00000000000E+00 -0.32790903894E+03  0.32790903894E+03  0.00000000000E+00 0.  1.
         36    2    1    2    0    0  0.00000000000E+00  0.28421709430E-13  0.43425523609E+03  0.10900733140E+04  0.99984109726E+03 0.  0.
         25    2    3    3    0    0  0.53430067360E+02  0.11134530786E+03  0.12717978129E+02  0.17576051254E+03  0.12440844472E+03 0.  0.
         35    2    3    3    0    0 -0.53430067360E+02 -0.11134530786E+03  0.42153725796E+03  0.91431280144E+03  0.80188633193E+03 0.  0.
         22    1    5    5    0    0 -0.11767599450E+02  0.21594060442E+03  0.52560929190E+03  0.56836075583E+03  0.00000000000E+00 0. -1.
         22    1    5    5    0    0 -0.41662467910E+02 -0.32728591229E+03 -0.10407203394E+03  0.34595204561E+03  0.00000000000E+00 0. -1.
          5    1    4    4  502    0  0.19213368223E+02  0.11974804250E+03 -0.25015067696E+02  0.12392171243E+03  0.47000000000E+01 0. -1.
         -5    1    4    4    0  502  0.34216699137E+02 -0.84027346333E+01  0.37733045825E+02  0.51838800106E+02  0.47000000000E+01 0. -1.
<mgrwt>
<rscale>  0 0.99984110E+03</rscale>
<asrwt>0</asrwt>
<pdfrwt beam="1">  1        2 0.50447545E-01 0.99984110E+03</pdfrwt>
<pdfrwt beam="2">  1       -2 0.11725604E+00 0.99984110E+03</pdfrwt>
<totfact> 0.65366669E+01</totfact>
</mgrwt>
</event>
<event>
 9    1  0.4296086E-036  0.9995897E+03  0.7818608E-02  0.8681429E-01
         -3   -1    0    0    0  501 -0.00000000000E+00  0.00000000000E+00  0.10514980399E+03  0.10514980399E+03  0.00000000000E+00 0. -1.
          3   -1    0    0  501    0  0.00000000000E+00 -0.00000000000E+00 -0.23756096580E+04  0.23756096580E+04  0.00000000000E+00 0. -1.
         36    2    1    2    0    0  0.00000000000E+00  0.00000000000E+00 -0.22704598540E+04  0.24807594620E+04  0.99958969563E+03 0.  0.
         25    2    3    3    0    0  0.11924017468E+03 -0.59372029464E+02 -0.53134755308E+03  0.56172424024E+03  0.12434083308E+03 0.  0.
         35    2    3    3    0    0 -0.11924017468E+03  0.59372029464E+02 -0.17391123009E+04  0.19190352217E+04  0.80027578368E+03 0.  0.
         22    1    5    5    0    0 -0.12802166047E+03 -0.12099548473E+03 -0.57019292803E+01  0.17624404918E+03  0.00000000000E+00 0.  1.
         22    1    5    5    0    0  0.87814857907E+01  0.18036751419E+03 -0.17334103716E+04  0.17427911726E+04  0.00000000000E+00 0.  1.
          5    1    4    4  502    0  0.74747253822E+02  0.19252921331E+02 -0.13880046069E+03  0.15888827780E+03  0.47000000000E+01 0. -1.
         -5    1    4    4    0  502  0.44492920856E+02 -0.78624950795E+02 -0.39254709239E+03  0.40283596245E+03  0.47000000000E+01 0. -1.
<mgrwt>
<rscale>  0 0.99958970E+03</rscale>
<asrwt>0</asrwt>
<pdfrwt beam="1">  1        3 0.36547838E+00 0.99958970E+03</pdfrwt>
<pdfrwt beam="2">  1       -3 0.16176894E-01 0.99958970E+03</pdfrwt>
<totfact> 0.35819031E+00</totfact>
</mgrwt>
</event>
<event>
 9    1  0.4296086E-036  0.1000052E+04  0.7818608E-02  0.8680989E-01
          2   -1    0    0  501    0  0.00000000000E+00  0.00000000000E+00  0.16196580256E+04  0.16196580256E+04  0.00000000000E+00 0. -1.
         -2   -1    0    0    0  501 -0.00000000000E+00 -0.00000000000E+00 -0.15436960081E+03  0.15436960081E+03  0.00000000000E+00 0. -1.
         36    2    1    2    0    0  0.00000000000E+00  0.14210854715E-13  0.14652884248E+04  0.17740276264E+04  0.10000519244E+04 0.  0.
         25    2    3    3    0    0 -0.55403756604E+02  0.42357768333E+02  0.49260472704E+03  0.51291870884E+03  0.12474946092E+03 0.  0.
         35    2    3    3    0    0  0.55403756604E+02 -0.42357768333E+02  0.97268369777E+03  0.12611089176E+04  0.79963639821E+03 0.  0.
         22    1    5    5    0    0  0.11488540569E+03 -0.38243124432E+03  0.28169712832E+03  0.48867738354E+03  0.00000000000E+00 0.  1.
         22    1    5    5    0    0 -0.59481649090E+02  0.34007347599E+03  0.69098656944E+03  0.77243153405E+03  0.00000000000E+00 0.  1.
          5    1    4    4  502    0  0.26905494427E+02 -0.15373245296E+02  0.49972193163E+02  0.58987730850E+02  0.47000000000E+01 0.  1.
         -5    1    4    4    0  502 -0.82309251031E+02  0.57731013629E+02  0.44263253387E+03  0.45393097799E+03  0.47000000000E+01 0.  1.
<mgrwt>
<rscale>  0 0.10000519E+04</rscale>
<asrwt>0</asrwt>
<pdfrwt beam="1">  1        2 0.24917815E+00 0.10000519E+04</pdfrwt>
<pdfrwt beam="2">  1       -2 0.23749170E-01 0.10000519E+04</pdfrwt>
<totfact> 0.20370056E+02</totfact>
</mgrwt>
</event>
<event>
 9    1  0.4296086E-036  0.9980422E+03  0.7818608E-02  0.8682905E-01
         -3   -1    0    0    0  501 -0.00000000000E+00  0.00000000000E+00  0.10280547586E+04  0.10280547586E+04  0.00000000000E+00 0. -1.
          3   -1    0    0  501    0  0.00000000000E+00 -0.00000000000E+00 -0.24222643970E+03  0.24222643970E+03  0.00000000000E+00 0. -1.
         36    2    1    2    0    0  0.00000000000E+00  0.00000000000E+00  0.78582831893E+03  0.12702811983E+04  0.99804217145E+03 0.  0.
         25    2    3    3    0    0 -0.12070299501E+03  0.16979274288E+02  0.21217254212E+03  0.27882062061E+03  0.13366466282E+03 0.  0.
         35    2    3    3    0    0  0.12070299501E+03 -0.16979274288E+02  0.57365577681E+03  0.99146057772E+03  0.79940954344E+03 0.  0.
         22    1    5    5    0    0  0.44580367829E+03  0.11037699194E+03  0.31420850328E+03  0.55646292191E+03  0.00000000000E+00 0.  1.
         22    1    5    5    0    0 -0.32510068328E+03 -0.12735626623E+03  0.25944727354E+03  0.43499765581E+03  0.00000000000E+00 0.  1.
          5    1    4    4  502    0 -0.14756457546E+03  0.16956976001E+02  0.15108913596E+03  0.21192654381E+03  0.47000000000E+01 0. -1.
         -5    1    4    4    0  502  0.26861580458E+02  0.22298287179E-01  0.61083406163E+02  0.66894076796E+02  0.47000000000E+01 0. -1.
<mgrwt>
<rscale>  0 0.99804217E+03</rscale>
<asrwt>0</asrwt>
<pdfrwt beam="1">  1        3 0.37265607E-01 0.99804217E+03</pdfrwt>
<pdfrwt beam="2">  1       -3 0.15816227E+00 0.99804217E+03</pdfrwt>
<totfact> 0.62801792E+00</totfact>
</mgrwt>
</event>
<event>
 9    1  0.4296086E-036  0.1001278E+04  0.7818608E-02  0.8679821E-01
          2   -1    0    0  501    0  0.00000000000E+00  0.00000000000E+00  0.12805583846E+04  0.12805583846E+04  0.00000000000E+00 0.  1.
         -2   -1    0    0    0  501 -0.00000000000E+00 -0.00000000000E+00 -0.19572684576E+03  0.19572684576E+03  0.00000000000E+00 0.  1.
         36    2    1    2    0    0  0.14210854715E-13  0.28421709430E-13  0.10848315388E+04  0.14762852303E+04  0.10012784896E+04 0.  0.
         25    2    3    3    0    0  0.10056416283E+03 -0.26752462683E+02  0.34665626722E+03  0.38278741147E+03  0.12460653943E+03 0.  0.
         35    2    3    3    0    0 -0.10056416283E+03  0.26752462683E+02  0.73817527158E+03  0.10934978189E+04  0.80000368948E+03 0.  0.
         22    1    5    5    0    0 -0.22416323373E+02  0.39503304682E+03  0.21914375308E+03  0.45230253608E+03  0.00000000000E+00 0. -1.
         22    1    5    5    0    0 -0.78147839455E+02 -0.36828058414E+03  0.51903151851E+03  0.64119528278E+03  0.00000000000E+00 0. -1.
          5    1    4    4  502    0  0.50238253807E+02 -0.11940377369E+02  0.31921184456E+03  0.32339565004E+03  0.47000000000E+01 0. -1.
         -5    1    4    4    0  502  0.50325909021E+02 -0.14812085315E+02  0.27444422660E+02  0.59391761426E+02  0.47000000000E+01 0. -1.
<mgrwt>
<rscale>  0 0.10012785E+04</rscale>
<asrwt>0</asrwt>
<pdfrwt beam="1">  1        2 0.19700898E+00 0.10012785E+04</pdfrwt>
<pdfrwt beam="2">  1       -2 0.30111823E-01 0.10012785E+04</pdfrwt>
<totfact> 0.20774346E+02</totfact>
</mgrwt>
</event>
<event>
 9    1  0.4296086E-036  0.9997765E+03  0.7818608E-02  0.8681251E-01
         -1   -1    0    0    0  501 -0.00000000000E+00  0.00000000000E+00  0.52712911503E+03  0.52712911503E+03  0.00000000000E+00 0.  1.
          1   -1    0    0  501    0  0.00000000000E+00 -0.00000000000E+00 -0.47405509187E+03  0.47405509187E+03  0.00000000000E+00 0.  1.
         36    2    1    2    0    0 -0.14210854715E-13  0.00000000000E+00  0.53074023159E+02  0.10011842069E+04  0.99977645713E+03 0.  0.
         25    2    3    3    0    0  0.12702174021E+03 -0.39336163536E+01 -0.15819242739E+02  0.17844759704E+03  0.12427107719E+03 0.  0.
         35    2    3    3    0    0 -0.12702174021E+03  0.39336163536E+01  0.68893265899E+02  0.82273660987E+03  0.80993780707E+03 0.  0.
         22    1    5    5    0    0  0.18269328701E+03  0.23800378272E+03 -0.19089346271E+03  0.35561629857E+03  0.00000000000E+00 0. -1.
         22    1    5    5    0    0 -0.30971502722E+03 -0.23407016636E+03  0.25978672861E+03  0.46712031130E+03  0.00000000000E+00 0. -1.
          5    1    4    4  502    0  0.40866016661E+02 -0.48455268881E+02  0.30928435445E+02  0.70686650219E+02  0.47000000000E+01 0. -1.
         -5    1    4    4    0  502  0.86155723544E+02  0.44521652528E+02 -0.46747678185E+02  0.10776094682E+03  0.47000000000E+01 0. -1.
<mgrwt>
<rscale>  0 0.99977646E+03</rscale>
<asrwt>0</asrwt>
<pdfrwt beam="1">  1        1 0.72931553E-01 0.99977646E+03</pdfrwt>
<pdfrwt beam="2">  1       -1 0.81096787E-01 0.99977646E+03</pdfrwt>
<totfact> 0.85548390E+01</totfact>
</mgrwt>
</event>
<event>
 9    1  0.4296086E-036  0.1003289E+04  0.7818608E-02  0.8677912E-01
         -2   -1    0    0    0  501 -0.00000000000E+00  0.00000000000E+00  0.23149012353E+03  0.23149012353E+03  0.00000000000E+00 0. -1.
          2   -1    0    0  501    0  0.00000000000E+00 -0.00000000000E+00 -0.10870749052E+04  0.10870749052E+04  0.00000000000E+00 0. -1.
         36    2    1    2    0    0 -0.35527136788E-14 -0.14210854715E-13 -0.85558478170E+03  0.13185650288E+04  0.10032888001E+04 0.  0.
         25    2    3    3    0    0 -0.23045257957E+02  0.99807543108E+02 -0.29487620487E+03  0.33618103385E+03  0.12479215417E+03 0.  0.
         35    2    3    3    0    0  0.23045257957E+02 -0.99807543108E+02 -0.56070857683E+03  0.98238399492E+03  0.80011972590E+03 0.  0.
         22    1    5    5    0    0  0.96950941947E+02  0.29541297923E+03 -0.24091176368E+02  0.31184723539E+03  0.00000000000E+00 0.  1.
         22    1    5    5    0    0 -0.73905683991E+02 -0.39522052234E+03 -0.53661740046E+03  0.67053675953E+03  0.00000000000E+00 0.  1.
          5    1    4    4  502    0  0.19602124081E+02 -0.23454643502E+02 -0.55345209100E+02  0.63399887544E+02  0.47000000000E+01 0. -1.
         -5    1    4    4    0  502 -0.42647382038E+02  0.12326218661E+03 -0.23953099577E+03  0.27278114630E+03  0.47000000000E+01 0. -1.
<mgrwt>
<rscale>  0 0.10032888E+04</rscale>
<asrwt>0</asrwt>
<pdfrwt beam="1">  1        2 0.16724230E+00 0.10032888E+04</pdfrwt>
<pdfrwt beam="2">  1       -2 0.35613864E-01 0.10032888E+04</pdfrwt>
<totfact> 0.19853000E+02</totfact>
</mgrwt>
</event>
<event>
 9    1  0.4296086E-036  0.9944107E+03  0.7818608E-02  0.8686379E-01
         -2   -1    0    0    0  501 -0.00000000000E+00  0.00000000000E+00  0.17131748237E+03  0.17131748237E+03  0.00000000000E+00 0. -1.
          2   -1    0    0  501    0  0.00000000000E+00 -0.00000000000E+00 -0.14430119245E+04  0.14430119245E+04  0.00000000000E+00 0. -1.
         36    2    1    2    0    0  0.00000000000E+00 -0.28421709430E-13 -0.12716944421E+04  0.16143294069E+04  0.99441071985E+03 0.  0.
         25    2    3    3    0    0  0.59054442252E+02 -0.11987657160E+03 -0.25457263962E+03  0.31349949565E+03  0.12496753723E+03 0.  0.
         35    2    3    3    0    0 -0.59054442252E+02  0.11987657160E+03 -0.10171218025E+04  0.13008299112E+04  0.79985240964E+03 0.  0.
         22    1    5    5    0    0  0.34246199408E+03  0.11734717838E+03 -0.26636807278E+03  0.44944691328E+03  0.00000000000E+00 0. -1.
         22    1    5    5    0    0 -0.40151643633E+03  0.25293932206E+01 -0.75075372972E+03  0.85138299793E+03  0.00000000000E+00 0. -1.
          5    1    4    4  502    0  0.23540366722E+01 -0.61377210459E+02 -0.21336820154E+03  0.22208282888E+03  0.47000000000E+01 0.  1.
         -5    1    4    4    0  502  0.56700405579E+02 -0.58499361145E+02 -0.41204438080E+02  0.91416666777E+02  0.47000000000E+01 0.  1.
<mgrwt>
<rscale>  0 0.99441072E+03</rscale>
<asrwt>0</asrwt>
<pdfrwt beam="1">  1        2 0.22200184E+00 0.99441072E+03</pdfrwt>
<pdfrwt beam="2">  1       -2 0.26356535E-01 0.99441072E+03</pdfrwt>
<totfact> 0.21312024E+02</totfact>
</mgrwt>
</event>
<event>
 9    1  0.4296086E-036  0.9997883E+03  0.7818608E-02  0.8681240E-01
         -2   -1    0    0    0  501 -0.00000000000E+00  0.00000000000E+00  0.27677008841E+03  0.27677008841E+03  0.00000000000E+00 0.  1.
          2   -1    0    0  501    0  0.00000000000E+00 -0.00000000000E+00 -0.90289435039E+03  0.90289435039E+03  0.00000000000E+00 0.  1.
         36    2    1    2    0    0 -0.14210854715E-13  0.00000000000E+00 -0.62612426198E+03  0.11796644388E+04  0.99978827595E+03 0.  0.
         25    2    3    3    0    0 -0.91268494268E+02 -0.97355348781E+02 -0.14667243716E+03  0.23590243955E+03  0.12778558284E+03 0.  0.
         35    2    3    3    0    0  0.91268494268E+02  0.97355348781E+02 -0.47945182482E+03  0.94376199924E+03  0.80187571163E+03 0.  0.
         22    1    5    5    0    0  0.14457617839E+03 -0.34067669569E+03 -0.18971383475E+03  0.41587765200E+03  0.00000000000E+00 0. -1.
         22    1    5    5    0    0 -0.53307684121E+02  0.43803204447E+03 -0.28973799008E+03  0.52788434724E+03  0.00000000000E+00 0. -1.
          5    1    4    4  502    0 -0.11746223502E+03 -0.65103057666E+02 -0.13910036087E+03  0.19340833789E+03  0.47000000000E+01 0. -1.
         -5    1    4    4    0  502  0.26193740748E+02 -0.32252291115E+02 -0.75720762872E+01  0.42494101659E+02  0.47000000000E+01 0. -1.
<mgrwt>
<rscale>  0 0.99978828E+03</rscale>
<asrwt>0</asrwt>
<pdfrwt beam="1">  1        2 0.13890682E+00 0.99978828E+03</pdfrwt>
<pdfrwt beam="2">  1       -2 0.42580013E-01 0.99978828E+03</pdfrwt>
<totfact> 0.18462638E+02</totfact>
</mgrwt>
</event>
<event>
 9    1  0.4296086E-036  0.1000801E+04  0.7818608E-02  0.8680276E-01
          2   -1    0    0  501    0  0.00000000000E+00  0.00000000000E+00  0.32377990801E+04  0.32377990801E+04  0.00000000000E+00 0. -1.
         -2   -1    0    0    0  501 -0.00000000000E+00 -0.00000000000E+00 -0.77336675834E+02  0.77336675834E+02  0.00000000000E+00 0. -1.
         36    2    1    2    0    0  0.14210854715E-13 -0.28421709430E-13  0.31604624043E+04  0.33151357560E+04  0.10008009150E+04 0.  0.
         25    2    3    3    0    0 -0.78727981492E+02  0.11707513678E+03  0.64479480474E+03  0.67170359162E+03  0.12458206954E+03 0.  0.
         35    2    3    3    0    0  0.78727981492E+02 -0.11707513678E+03  0.25156675996E+04  0.26434321643E+04  0.79952826925E+03 0.  0.
         22    1    5    5    0    0  0.11856800117E+03  0.28152907087E+03  0.17776330564E+04  0.18036896274E+04  0.00000000000E+00 0. -1.
         22    1    5    5    0    0 -0.39840019681E+02 -0.39860420765E+03  0.73803454313E+03  0.83974253696E+03  0.00000000000E+00 0. -1.
          5    1    4    4  502    0 -0.91857965605E+02  0.36584860179E+02  0.44454805573E+03  0.45543539793E+03  0.47000000000E+01 0.  1.
         -5    1    4    4    0  502  0.13129984112E+02  0.80490276598E+02  0.20024674901E+03  0.21626819368E+03  0.47000000000E+01 0.  1.
<mgrwt>
<rscale>  0 0.10008009E+04</rscale>
<asrwt>0</asrwt>
<pdfrwt beam="1">  1        2 0.49812283E+00 0.10008009E+04</pdfrwt>
<pdfrwt beam="2">  1       -2 0.11897953E-01 0.10008009E+04</pdfrwt>
<totfact> 0.67515670E+01</totfact>
</mgrwt>
</event>
<event>
 9    1  0.4296086E-036  0.1006614E+04  0.7818608E-02  0.8674765E-01
         -1   -1    0    0    0  501 -0.00000000000E+00  0.00000000000E+00  0.10313131560E+04  0.10313131560E+04  0.00000000000E+00 0. -1.
          1   -1    0    0  501    0  0.00000000000E+00 -0.00000000000E+00 -0.24562648399E+03  0.24562648399E+03  0.00000000000E+00 0. -1.
         36    2    1    2    0    0  0.00000000000E+00 -0.14210854715E-13  0.78568667202E+03  0.12769396400E+04  0.10066137778E+04 0.  0.
         25    2    3    3    0    0 -0.69759907638E+02  0.10348100377E+03  0.24790346062E+03  0.30458824055E+03  0.12547154114E+03 0.  0.
         35    2    3    3    0    0  0.69759907638E+02 -0.10348100377E+03  0.53778321140E+03  0.97235139946E+03  0.80042594830E+03 0.  0.
         22    1    5    5    0    0 -0.28859550418E+02 -0.24243219024E+03  0.69738535772E+03  0.73888603835E+03  0.00000000000E+00 0.  1.
         22    1    5    5    0    0  0.98619458056E+02  0.13895118647E+03 -0.15960214631E+03  0.23346536111E+03  0.00000000000E+00 0.  1.
          5    1    4    4  502    0  0.34204196008E+02  0.47693991718E+02  0.80972231570E+02  0.10011611337E+03  0.47000000000E+01 0.  1.
         -5    1    4    4    0  502 -0.10396410365E+03  0.55787012055E+02  0.16693122905E+03  0.20447212718E+03  0.47000000000E+01 0.  1.
<mgrwt>
<rscale>  0 0.10066138E+04</rscale>
<asrwt>0</asrwt>
<pdfrwt beam="1">  1        1 0.37788690E-01 0.10066138E+04</pdfrwt>
<pdfrwt beam="2">  1       -1 0.15866356E+00 0.10066138E+04</pdfrwt>
<totfact> 0.39416607E+01</totfact>
</mgrwt>
</event>
<event>
 9    1  0.4296086E-036  0.1000196E+04  0.7818608E-02  0.8680851E-01
          2   -1    0    0  501    0  0.00000000000E+00  0.00000000000E+00  0.25189106263E+04  0.25189106263E+04  0.00000000000E+00 0.  1.
         -2   -1    0    0    0  501 -0.00000000000E+00 -0.00000000000E+00 -0.99288144349E+02  0.99288144349E+02  0.00000000000E+00 0.  1.
         36    2    1    2    0    0  0.28421709430E-13  0.00000000000E+00  0.24196224819E+04  0.26181987706E+04  0.10001959045E+04 0.  0.
         25    2    3    3    0    0  0.18896079273E+02 -0.93438572050E+02  0.20747528324E+03  0.26052030517E+03  0.12544723072E+03 0.  0.
         35    2    3    3    0    0 -0.18896079273E+02  0.93438572050E+02  0.22121471987E+04  0.23576784654E+04  0.80991647052E+03 0.  0.
         22    1    5    5    0    0  0.32037469664E+03 -0.84432396174E+02  0.16120037679E+04  0.16456989164E+04  0.00000000000E+00 0. -1.
         22    1    5    5    0    0 -0.33927077591E+03  0.17787096822E+03  0.60014343080E+03  0.71197954905E+03  0.00000000000E+00 0. -1.
          5    1    4    4  502    0  0.27207189390E+02 -0.41504369788E+02  0.20127127148E+03  0.20735249839E+03  0.47000000000E+01 0. -1.
         -5    1    4    4    0  502 -0.83111101165E+01 -0.51934202261E+02  0.62040117561E+01  0.53167806780E+02  0.47000000000E+01 0. -1.
<mgrwt>
<rscale>  0 0.10001959E+04</rscale>
<asrwt>0</asrwt>
<pdfrwt beam="1">  1        2 0.38752466E+00 0.10001959E+04</pdfrwt>
<pdfrwt beam="2">  1       -2 0.15275101E-01 0.10001959E+04</pdfrwt>
<totfact> 0.13153382E+02</totfact>
</mgrwt>
</event>
<event>
 9    1  0.4296086E-036  0.9997398E+03  0.7818608E-02  0.8681286E-01
         -1   -1    0    0    0  501 -0.00000000000E+00  0.00000000000E+00  0.27717066090E+03  0.27717066090E+03  0.00000000000E+00 0.  1.
          1   -1    0    0  501    0  0.00000000000E+00 -0.00000000000E+00 -0.90150209778E+03  0.90150209778E+03  0.00000000000E+00 0.  1.
         36    2    1    2    0    0  0.00000000000E+00 -0.42632564146E-13 -0.62433143688E+03  0.11786727587E+04  0.99973983064E+03 0.  0.
         25    2    3    3    0    0 -0.83567821629E+02  0.10616128480E+03 -0.15845758997E+03  0.24275888984E+03  0.12477688718E+03 0.  0.
         35    2    3    3    0    0  0.83567821629E+02 -0.10616128480E+03 -0.46587384691E+03  0.93591386884E+03  0.80040148017E+03 0.  0.
         22    1    5    5    0    0  0.18482171501E+03  0.25797977393E+03 -0.45883632421E+03  0.55789192727E+03  0.00000000000E+00 0. -1.
         22    1    5    5    0    0 -0.10125389338E+03 -0.36414105873E+03 -0.70375226944E+01  0.37802194157E+03  0.00000000000E+00 0. -1.
          5    1    4    4  502    0  0.30877492276E+02  0.71270417996E+01 -0.34423143537E+02  0.47024005200E+02  0.47000000000E+01 0.  1.
         -5    1    4    4    0  502 -0.11444531391E+03  0.99034243001E+02 -0.12403444644E+03  0.19573488464E+03  0.47000000000E+01 0.  1.
<mgrwt>
<rscale>  0 0.99973983E+03</rscale>
<asrwt>0</asrwt>
<pdfrwt beam="1">  1        1 0.13869263E+00 0.99973983E+03</pdfrwt>
<pdfrwt beam="2">  1       -1 0.42641640E-01 0.99973983E+03</pdfrwt>
<totfact> 0.11084553E+02</totfact>
</mgrwt>
</event>
<event>
 9    1  0.4296086E-036  0.1001677E+04  0.7818608E-02  0.8679442E-01
          1   -1    0    0  501    0  0.00000000000E+00  0.00000000000E+00  0.10886666858E+04  0.10886666858E+04  0.00000000000E+00 0.  1.
         -1   -1    0    0    0  501 -0.00000000000E+00 -0.00000000000E+00 -0.23040961965E+03  0.23040961965E+03  0.00000000000E+00 0.  1.
         36    2    1    2    0    0 -0.14210854715E-13 -0.42632564146E-13  0.85825706613E+03  0.13190763054E+04  0.10016771476E+04 0.  0.
         25    2    3    3    0    0  0.74463411329E+02  0.82423359468E+01 -0.72266623748E+00  0.14306524571E+03  0.12187865505E+03 0.  0.
         35    2    3    3    0    0 -0.74463411329E+02 -0.82423359468E+01  0.85897973237E+03  0.11760110597E+04  0.79971438417E+03 0.  0.
         22    1    5    5    0    0 -0.15790990114E+03 -0.31013080417E+03  0.11130621127E+03  0.36538435275E+03  0.00000000000E+00 0.  1.
         22    1    5    5    0    0  0.83446489810E+02  0.30188846822E+03  0.74767352110E+03  0.81062670697E+03  0.00000000000E+00 0.  1.
          5    1    4    4  502    0  0.40173451608E+02 -0.33170317317E+02 -0.48239761149E+02  0.71157155092E+02  0.47000000000E+01 0. -1.
         -5    1    4    4    0  502  0.34289959721E+02  0.41412653264E+02  0.47517094912E+02  0.71908090622E+02  0.47000000000E+01 0. -1.
<mgrwt>
<rscale>  0 0.10016771E+04</rscale>
<asrwt>0</asrwt>
<pdfrwt beam="1">  1        1 0.16748718E+00 0.10016771E+04</pdfrwt>
<pdfrwt beam="2">  1       -1 0.35447634E-01 0.10016771E+04</pdfrwt>
<totfact> 0.10903025E+02</totfact>
</mgrwt>
</event>
<event>
 9    1  0.4296086E-036  0.9989661E+03  0.7818608E-02  0.8682023E-01
         -2   -1    0    0    0  501 -0.00000000000E+00  0.00000000000E+00  0.10465950324E+04  0.10465950324E+04  0.00000000000E+00 0. -1.
          2   -1    0    0  501    0  0.00000000000E+00 -0.00000000000E+00 -0.23837619524E+03  0.23837619524E+03  0.00000000000E+00 0. -1.
         36    2    1    2    0    0  0.00000000000E+00 -0.71054273576E-14  0.80821883715E+03  0.12849712276E+04  0.99896614914E+03 0.  0.
         25    2    3    3    0    0  0.10421184692E+03  0.48459947511E+02  0.25121903175E+03  0.30317768915E+03  0.12488888553E+03 0.  0.
         35    2    3    3    0    0 -0.10421184692E+03 -0.48459947511E+02  0.55699980540E+03  0.98179353849E+03  0.80028825648E+03 0.  0.
         22    1    5    5    0    0  0.28537241883E+03 -0.23793134113E+03  0.21036684196E+03  0.42696949389E+03  0.00000000000E+00 0.  1.
         22    1    5    5    0    0 -0.38958426575E+03  0.18947139362E+03  0.34663296344E+03  0.55482404460E+03  0.00000000000E+00 0.  1.
          5    1    4    4  502    0  0.81073508465E+02  0.88287443850E+02  0.15155262433E+03  0.19328185238E+03  0.47000000000E+01 0. -1.
         -5    1    4    4    0  502  0.23138338457E+02 -0.39827496339E+02  0.99666407423E+02  0.10989583677E+03  0.47000000000E+01 0. -1.
<mgrwt>
<rscale>  0 0.99896615E+03</rscale>
<asrwt>0</asrwt>
<pdfrwt beam="1">  1        2 0.36673261E-01 0.99896615E+03</pdfrwt>
<pdfrwt beam="2">  1       -2 0.16101462E+00 0.99896615E+03</pdfrwt>
<totfact> 0.39405355E+01</totfact>
</mgrwt>
</event>
<event>
 9    1  0.4296086E-036  0.9990751E+03  0.7818608E-02  0.8681919E-01
          1   -1    0    0  501    0  0.00000000000E+00  0.00000000000E+00  0.21333980732E+03  0.21333980732E+03  0.00000000000E+00 0.  1.
         -1   -1    0    0    0  501 -0.00000000000E+00 -0.00000000000E+00 -0.11696727513E+04  0.11696727513E+04  0.00000000000E+00 0.  1.
         36    2    1    2    0    0  0.00000000000E+00  0.00000000000E+00 -0.95633294394E+03  0.13830125586E+04  0.99907509103E+03 0.  0.
         25    2    3    3    0    0  0.15616794266E+02  0.10509342396E+03 -0.29381829536E+03  0.33588648916E+03  0.12329651612E+03 0.  0.
         35    2    3    3    0    0 -0.15616794266E+02 -0.10509342396E+03 -0.66251464858E+03  0.10471260694E+04  0.80390225379E+03 0.  0.
         22    1    5    5    0    0 -0.51035652507E+02  0.77195681394E+02  0.17032163494E+03  0.19383825830E+03  0.00000000000E+00 0.  1.
         22    1    5    5    0    0  0.35418858242E+02 -0.18228910535E+03 -0.83283628352E+03  0.85328781111E+03  0.00000000000E+00 0.  1.
          5    1    4    4  502    0 -0.39850372990E+02  0.19201919238E+02 -0.32073357011E+02  0.54841190357E+02  0.47000000000E+01 0.  1.
         -5    1    4    4    0  502  0.55467167256E+02  0.85891504722E+02 -0.26174493835E+03  0.28104529880E+03  0.47000000000E+01 0.  1.
<mgrwt>
<rscale>  0 0.99907509E+03</rscale>
<asrwt>0</asrwt>
<pdfrwt beam="1">  1        1 0.32821508E-01 0.99907509E+03</pdfrwt>
<pdfrwt beam="2">  1       -1 0.17994966E+00 0.99907509E+03</pdfrwt>
<totfact> 0.31443629E+01</totfact>
</mgrwt>
</event>
<event>
 9    1  0.4296086E-036  0.1000125E+04  0.7818608E-02  0.8680919E-01
          2   -1    0    0  501    0  0.00000000000E+00  0.00000000000E+00  0.15557357938E+04  0.15557357938E+04  0.00000000000E+00 0. -1.
         -2   -1    0    0    0  501 -0.00000000000E+00 -0.00000000000E+00 -0.16073582167E+03  0.16073582167E+03  0.00000000000E+00 0. -1.
         36    2    1    2    0    0 -0.28421709430E-13  0.00000000000E+00  0.13949999722E+04  0.17164716155E+04  0.10001249344E+04 0.  0.
         25    2    3    3    0    0  0.14072253717E+03 -0.34108094265E+01  0.25634562958E+03  0.31779266611E+03  0.12435686847E+03 0.  0.
         35    2    3    3    0    0 -0.14072253717E+03  0.34108094265E+01  0.11386543426E+04  0.13986789494E+04  0.79997164045E+03 0.  0.
         22    1    5    5    0    0  0.85498821495E+02  0.22763021706E+03  0.29789476942E+02  0.24497546231E+03  0.00000000000E+00 0. -1.
         22    1    5    5    0    0 -0.22622135867E+03 -0.22421940763E+03  0.11088648656E+04  0.11537034871E+04  0.00000000000E+00 0. -1.
          5    1    4    4  502    0  0.87370207250E+02  0.37076277479E+02  0.65322486427E+02  0.11531400912E+03  0.47000000000E+01 0. -1.
         -5    1    4    4    0  502  0.53352329924E+02 -0.40487086906E+02  0.19102314316E+03  0.20247865699E+03  0.47000000000E+01 0. -1.
<mgrwt>
<rscale>  0 0.10001249E+04</rscale>
<asrwt>0</asrwt>
<pdfrwt beam="1">  1        2 0.23934396E+00 0.10001249E+04</pdfrwt>
<pdfrwt beam="2">  1       -2 0.24728589E-01 0.10001249E+04</pdfrwt>
<totfact> 0.20607340E+02</totfact>
</mgrwt>
</event>
<event>
 9    1  0.4296086E-036  0.1001330E+04  0.7818608E-02  0.8679773E-01
          2   -1    0    0  501    0  0.00000000000E+00  0.00000000000E+00  0.73806160173E+03  0.73806160173E+03  0.00000000000E+00 0. -1.
         -2   -1    0    0    0  501 -0.00000000000E+00 -0.00000000000E+00 -0.33962659065E+03  0.33962659065E+03  0.00000000000E+00 0. -1.
         36    2    1    2    0    0 -0.28421709430E-13  0.00000000000E+00  0.39843501108E+03  0.10776881924E+04  0.10013298068E+04 0.  0.
         25    2    3    3    0    0  0.13090805529E+03  0.56626796692E+02  0.76533672651E+02  0.20400685977E+03  0.12416876717E+03 0.  0.
         35    2    3    3    0    0 -0.13090805529E+03 -0.56626796692E+02  0.32190133843E+03  0.87368133261E+03  0.79959682729E+03 0.  0.
         22    1    5    5    0    0 -0.41415968684E+02  0.36713692456E+03  0.21539449520E+03  0.42766761907E+03  0.00000000000E+00 0. -1.
         22    1    5    5    0    0 -0.89492086606E+02 -0.42376372125E+03  0.10650684323E+03  0.44601371354E+03  0.00000000000E+00 0. -1.
          5    1    4    4  502    0  0.10124434965E+03  0.13689984377E+01 -0.44616942092E+01  0.10146077670E+03  0.47000000000E+01 0. -1.
         -5    1    4    4    0  502  0.29663705635E+02  0.55257798254E+02  0.80995366860E+02  0.10254608307E+03  0.47000000000E+01 0. -1.
<mgrwt>
<rscale>  0 0.10013298E+04</rscale>
<asrwt>0</asrwt>
<pdfrwt beam="1">  1        2 0.11354794E+00 0.10013298E+04</pdfrwt>
<pdfrwt beam="2">  1       -2 0.52250245E-01 0.10013298E+04</pdfrwt>
<totfact> 0.16023955E+02</totfact>
</mgrwt>
</event>
<event>
 9    1  0.4296086E-036  0.1000066E+04  0.7818608E-02  0.8680975E-01
          4   -1    0    0  501    0  0.00000000000E+00  0.00000000000E+00  0.33711578139E+03  0.33711578139E+03  0.00000000000E+00 0.  1.
         -4   -1    0    0    0  501 -0.00000000000E+00 -0.00000000000E+00 -0.74168244535E+03  0.74168244535E+03  0.00000000000E+00 0.  1.
         36    2    1    2    0    0  0.00000000000E+00 -0.14210854715E-13 -0.40456666396E+03  0.10787982267E+04  0.10000657121E+04 0.  0.
         25    2    3    3    0    0  0.28445916964E+02 -0.10829198841E+03 -0.16368506270E+03  0.23504801362E+03  0.12616831619E+03 0.  0.
         35    2    3    3    0    0 -0.28445916964E+02  0.10829198841E+03 -0.24088160125E+03  0.84375021312E+03  0.80084589740E+03 0.  0.
         22    1    5    5    0    0  0.25303668779E+03 -0.64856677998E+02 -0.39939095159E+03  0.47722854719E+03  0.00000000000E+00 0.  1.
         22    1    5    5    0    0 -0.28148260475E+03  0.17314866640E+03  0.15850935033E+03  0.36652166593E+03  0.00000000000E+00 0.  1.
          5    1    4    4  502    0 -0.10544418868E+01  0.10833592798E+02 -0.92170177196E+02  0.92929597788E+02  0.47000000000E+01 0.  1.
         -5    1    4    4    0  502  0.29500358851E+02 -0.11912558120E+03 -0.71514885508E+02  0.14211841583E+03  0.47000000000E+01 0.  1.
<mgrwt>
<rscale>  0 0.10000657E+04</rscale>
<asrwt>0</asrwt>
<pdfrwt beam="1">  1        4 0.51863967E-01 0.10000657E+04</pdfrwt>
<pdfrwt beam="2">  1       -4 0.11410499E+00 0.10000657E+04</pdfrwt>
<totfact> 0.46888850E+00</totfact>
</mgrwt>
</event>
<event>
 9    1  0.4296086E-036  0.9998593E+03  0.7818608E-02  0.8681172E-01
          2   -1    0    0  501    0  0.00000000000E+00  0.00000000000E+00  0.29978088143E+03  0.29978088143E+03  0.00000000000E+00 0.  1.
         -2   -1    0    0    0  501 -0.00000000000E+00 -0.00000000000E+00 -0.83370783899E+03  0.83370783899E+03  0.00000000000E+00 0.  1.
         36    2    1    2    0    0 -0.17763568394E-14  0.00000000000E+00 -0.53392695756E+03  0.11334887204E+04  0.99985933177E+03 0.  0.
         25    2    3    3    0    0 -0.34385182998E+01 -0.12567773855E+03 -0.17787896470E+03  0.25186670209E+03  0.12644837747E+03 0.  0.
         35    2    3    3    0    0  0.34385182998E+01  0.12567773855E+03 -0.35604799286E+03  0.88162201833E+03  0.79666837054E+03 0.  0.
         22    1    5    5    0    0 -0.53552736163E+02 -0.27105993747E+02  0.24840800638E+03  0.25555658489E+03  0.00000000000E+00 0. -1.
         22    1    5    5    0    0  0.56991254463E+02  0.15278373230E+03 -0.60445599924E+03  0.62606543344E+03  0.00000000000E+00 0. -1.
          5    1    4    4  502    0  0.11082104380E+02 -0.12458462192E+03 -0.19320802699E+03  0.23020767308E+03  0.47000000000E+01 0. -1.
         -5    1    4    4    0  502 -0.14520622680E+02 -0.10931166353E+01  0.15329062284E+02  0.21659029007E+02  0.47000000000E+01 0. -1.
<mgrwt>
<rscale>  0 0.99985933E+03</rscale>
<asrwt>0</asrwt>
<pdfrwt beam="1">  1        2 0.46120136E-01 0.99985933E+03</pdfrwt>
<pdfrwt beam="2">  1       -2 0.12826274E+00 0.99985933E+03</pdfrwt>
<totfact> 0.57111883E+01</totfact>
</mgrwt>
</event>
<event>
 9    1  0.4296086E-036  0.9992395E+03  0.7818608E-02  0.8681763E-01
          2   -1    0    0  501    0  0.00000000000E+00  0.00000000000E+00  0.12357927710E+03  0.12357927710E+03  0.00000000000E+00 0.  1.
         -2   -1    0    0    0  501 -0.00000000000E+00 -0.00000000000E+00 -0.20199170955E+04  0.20199170955E+04  0.00000000000E+00 0.  1.
         36    2    1    2    0    0  0.28421709430E-13 -0.28421709430E-13 -0.18963378184E+04  0.21434963726E+04  0.99923949975E+03 0.  0.
         25    2    3    3    0    0  0.79190188499E+02 -0.11423766796E+03 -0.29483863816E+03  0.34882696256E+03  0.12421391436E+03 0.  0.
         35    2    3    3    0    0 -0.79190188499E+02  0.11423766796E+03 -0.16014991803E+04  0.17946694101E+04  0.79794569758E+03 0.  0.
         22    1    5    5    0    0 -0.35643318483E+03  0.29321217297E+03 -0.74003241077E+03  0.87216166083E+03  0.00000000000E+00 0. -1.
         22    1    5    5    0    0  0.27724299633E+03 -0.17897450501E+03 -0.86146676948E+03  0.92250774922E+03  0.00000000000E+00 0. -1.
          5    1    4    4  502    0  0.98882591418E+02 -0.68494948180E+02 -0.13279068319E+03  0.17923387055E+03  0.47000000000E+01 0. -1.
         -5    1    4    4    0  502 -0.19692402919E+02 -0.45742719782E+02 -0.16204795497E+03  0.16959309201E+03  0.47000000000E+01 0. -1.
<mgrwt>
<rscale>  0 0.99923950E+03</rscale>
<asrwt>0</asrwt>
<pdfrwt beam="1">  1        2 0.19012196E-01 0.99923950E+03</pdfrwt>
<pdfrwt beam="2">  1       -2 0.31075648E+00 0.99923950E+03</pdfrwt>
<totfact> 0.91788075E+00</totfact>
</mgrwt>
</event>
<event>
 9    1  0.4296086E-036  0.1001488E+04  0.7818608E-02  0.8679622E-01
          1   -1    0    0  501    0  0.00000000000E+00  0.00000000000E+00  0.27945166382E+03  0.27945166382E+03  0.00000000000E+00 0. -1.
         -1   -1    0    0    0  501 -0.00000000000E+00 -0.00000000000E+00 -0.89727360744E+03  0.89727360744E+03  0.00000000000E+00 0. -1.
         36    2    1    2    0    0  0.00000000000E+00  0.10658141036E-13 -0.61782194362E+03  0.11767252713E+04  0.10014880978E+04 0.  0.
         25    2    3    3    0    0 -0.18325082003E+02  0.18930408921E+02 -0.28492323714E+03  0.30823069859E+03  0.11458945623E+03 0.  0.
         35    2    3    3    0    0  0.18325082003E+02 -0.18930408921E+02 -0.33289870648E+03  0.86849457267E+03  0.80172757529E+03 0.  0.
         22    1    5    5    0    0 -0.77913020200E+02  0.13059366119E+03  0.23137036148E+03  0.27687070490E+03  0.00000000000E+00 0. -1.
         22    1    5    5    0    0  0.96238102203E+02 -0.14952407011E+03 -0.56426906796E+03  0.59162386777E+03  0.00000000000E+00 0. -1.
          5    1    4    4  502    0 -0.51288257743E+02  0.49700098734E+02 -0.15805830214E+03  0.17350821904E+03  0.47000000000E+01 0. -1.
         -5    1    4    4    0  502  0.32963175739E+02 -0.30769689813E+02 -0.12686493499E+03  0.13472247955E+03  0.47000000000E+01 0. -1.
<mgrwt>
<rscale>  0 0.10014881E+04</rscale>
<asrwt>0</asrwt>
<pdfrwt beam="1">  1        1 0.42992564E-01 0.10014881E+04</pdfrwt>
<pdfrwt beam="2">  1       -1 0.13804209E+00 0.10014881E+04</pdfrwt>
<totfact> 0.49777842E+01</totfact>
</mgrwt>
</event>
<event>
 9    1  0.4296086E-036  0.1000415E+04  0.7818608E-02  0.8680643E-01
          1   -1    0    0  501    0  0.00000000000E+00  0.00000000000E+00  0.21857819099E+04  0.21857819099E+04  0.00000000000E+00 0. -1.
         -1   -1    0    0    0  501 -0.00000000000E+00 -0.00000000000E+00 -0.11447053790E+03  0.11447053790E+03  0.00000000000E+00 0. -1.
         36    2    1    2    0    0 -0.14210854715E-13  0.14210854715E-13  0.20713113720E+04  0.23002524478E+04  0.10004151757E+04 0.  0.
         25    2    3    3    0    0 -0.41453557677E+02  0.76447621101E+02  0.13537184452E+03  0.20373969137E+03  0.12498675665E+03 0.  0.
         35    2    3    3    0    0  0.41453557677E+02 -0.76447621101E+02  0.19359395275E+04  0.20965127564E+04  0.79996327889E+03 0.  0.
         22    1    5    5    0    0 -0.16340465335E+03  0.24588398371E+03  0.31721125362E+03  0.43333935155E+03  0.00000000000E+00 0. -1.
         22    1    5    5    0    0  0.20485821103E+03 -0.32233160481E+03  0.16187282738E+04  0.16631734048E+04  0.00000000000E+00 0. -1.
          5    1    4    4  502    0 -0.39392370069E+02  0.78785207167E+02  0.22909680831E+02  0.91136223116E+02  0.47000000000E+01 0. -1.
         -5    1    4    4    0  502 -0.20611876079E+01 -0.23375860666E+01  0.11246216368E+03  0.11260346826E+03  0.47000000000E+01 0. -1.
<mgrwt>
<rscale>  0 0.10004152E+04</rscale>
<asrwt>0</asrwt>
<pdfrwt beam="1">  1        1 0.33627411E+00 0.10004152E+04</pdfrwt>
<pdfrwt beam="2">  1       -1 0.17610854E-01 0.10004152E+04</pdfrwt>
<totfact> 0.58157911E+01</totfact>
</mgrwt>
</event>
<event>
 9    1  0.4296086E-036  0.9999596E+03  0.7818608E-02  0.8681076E-01
          1   -1    0    0  501    0  0.00000000000E+00  0.00000000000E+00  0.22771312327E+04  0.22771312327E+04  0.00000000000E+00 0.  1.
         -1   -1    0    0    0  501 -0.00000000000E+00 -0.00000000000E+00 -0.10977839836E+03  0.10977839836E+03  0.00000000000E+00 0.  1.
         36    2    1    2    0    0  0.00000000000E+00  0.00000000000E+00  0.21673528343E+04  0.23869096311E+04  0.99995963836E+03 0.  0.
         25    2    3    3    0    0 -0.39451191088E+02  0.13513736588E+03  0.40306537701E+03  0.44486994949E+03  0.12501627767E+03 0.  0.
         35    2    3    3    0    0  0.39451191088E+02 -0.13513736588E+03  0.17642874573E+04  0.19420396816E+04  0.79936811832E+03 0.  0.
         22    1    5    5    0    0 -0.29712352043E+03 -0.37427484615E+02  0.25726647159E+03  0.39480278672E+03  0.00000000000E+00 0.  1.
         22    1    5    5    0    0  0.33657471152E+03 -0.97709881264E+02  0.15070209857E+04  0.15472368948E+04  0.00000000000E+00 0.  1.
          5    1    4    4  502    0 -0.51885400978E+02  0.14762270009E+03  0.28286840320E+03  0.32329735530E+03  0.47000000000E+01 0. -1.
         -5    1    4    4    0  502  0.12434209891E+02 -0.12485334206E+02  0.12019697381E+03  0.12157259419E+03  0.47000000000E+01 0. -1.
<mgrwt>
<rscale>  0 0.99995964E+03</rscale>
<asrwt>0</asrwt>
<pdfrwt beam="1">  1        1 0.35032785E+00 0.99995964E+03</pdfrwt>
<pdfrwt beam="2">  1       -1 0.16888986E-01 0.99995964E+03</pdfrwt>
<totfact> 0.53719299E+01</totfact>
</mgrwt>
</event>
<event>
 9    1  0.4296086E-036  0.9995378E+03  0.7818608E-02  0.8681478E-01
         -2   -1    0    0    0  501 -0.00000000000E+00  0.00000000000E+00  0.75825060485E+03  0.75825060485E+03  0.00000000000E+00 0.  1.
          2   -1    0    0  501    0  0.00000000000E+00 -0.00000000000E+00 -0.32940161473E+03  0.32940161473E+03  0.00000000000E+00 0.  1.
         36    2    1    2    0    0 -0.21316282073E-13 -0.14210854715E-13  0.42884899012E+03  0.10876522196E+04  0.99953784041E+03 0.  0.
         25    2    3    3    0    0 -0.32777795857E+02 -0.58492400361E+02 -0.55483708229E+02  0.14949084489E+03  0.12154557181E+03 0.  0.
         35    2    3    3    0    0  0.32777795857E+02  0.58492400361E+02  0.48433269835E+03  0.93816137468E+03  0.80067025514E+03 0.  0.
         22    1    5    5    0    0  0.37030746230E+03  0.14186075092E+03  0.79347364713E+02  0.40441079804E+03  0.00000000000E+00 0.  1.
         22    1    5    5    0    0 -0.33752966644E+03 -0.83368350556E+02  0.40498533364E+03  0.53375057664E+03  0.00000000000E+00 0.  1.
          5    1    4    4  502    0 -0.63826399531E+02 -0.52516432126E+01  0.31525996405E+01  0.64291662897E+02  0.47000000000E+01 0.  1.
         -5    1    4    4    0  502  0.31048603674E+02 -0.53240757149E+02 -0.58636307870E+02  0.85199181994E+02  0.47000000000E+01 0.  1.
<mgrwt>
<rscale>  0 0.99953784E+03</rscale>
<asrwt>0</asrwt>
<pdfrwt beam="1">  1        2 0.50677172E-01 0.99953784E+03</pdfrwt>
<pdfrwt beam="2">  1       -2 0.11665394E+00 0.99953784E+03</pdfrwt>
<totfact> 0.65909288E+01</totfact>
</mgrwt>
</event>
<event>
 9    1  0.4296086E-036  0.9998862E+03  0.7818608E-02  0.8681146E-01
         -2   -1    0    0    0  501 -0.00000000000E+00  0.00000000000E+00  0.15242898379E+03  0.15242898379E+03  0.00000000000E+00 0.  1.
          2   -1    0    0  501    0  0.00000000000E+00 -0.00000000000E+00 -0.16397346697E+04  0.16397346697E+04  0.00000000000E+00 0.  1.
         36    2    1    2    0    0 -0.28421709430E-13 -0.28421709430E-13 -0.14873056859E+04  0.17921636535E+04  0.99988617232E+03 0.  0.
         25    2    3    3    0    0  0.11410929599E+03  0.78129453278E+02 -0.26484303505E+03  0.32373479486E+03  0.12464847086E+03 0.  0.
         35    2    3    3    0    0 -0.11410929599E+03 -0.78129453278E+02 -0.12224626509E+04  0.14684288587E+04  0.80171268997E+03 0.  0.
         22    1    5    5    0    0 -0.98638750678E+02  0.35121139247E+03 -0.72147094977E+03  0.80845493177E+03  0.00000000000E+00 0. -1.
         22    1    5    5    0    0 -0.15470545307E+02 -0.42934084575E+03 -0.50099170112E+03  0.65997392690E+03  0.00000000000E+00 0. -1.
          5    1    4    4  502    0  0.24884605995E+02  0.72443764657E+02 -0.19695197497E+03  0.21137528971E+03  0.47000000000E+01 0.  1.
         -5    1    4    4    0  502  0.89224689990E+02  0.56856886209E+01 -0.67891060077E+02  0.11235950515E+03  0.47000000000E+01 0.  1.
<mgrwt>
<rscale>  0 0.99988617E+03</rscale>
<asrwt>0</asrwt>
<pdfrwt beam="1">  1        2 0.25226686E+00 0.99988617E+03</pdfrwt>
<pdfrwt beam="2">  1       -2 0.23450614E-01 0.99988617E+03</pdfrwt>
<totfact> 0.20293549E+02</totfact>
</mgrwt>
</event>
<event>
 9    1  0.4296086E-036  0.1000659E+04  0.7818608E-02  0.8680410E-01
          2   -1    0    0  501    0  0.00000000000E+00  0.00000000000E+00  0.12827545794E+04  0.12827545794E+04  0.00000000000E+00 0.  1.
         -2   -1    0    0    0  501 -0.00000000000E+00 -0.00000000000E+00 -0.19515012326E+03  0.19515012326E+03  0.00000000000E+00 0.  1.
         36    2    1    2    0    0  0.71054273576E-14  0.14210854715E-13  0.10876044562E+04  0.14779047027E+04  0.10006592113E+04 0.  0.
         25    2    3    3    0    0 -0.47078078320E+02 -0.95346881837E+02  0.68870543483E+02  0.17811402748E+03  0.12519617283E+03 0.  0.
         35    2    3    3    0    0  0.47078078320E+02  0.95346881837E+02  0.10187339127E+04  0.12997906752E+04  0.80020599923E+03 0.  0.
         22    1    5    5    0    0  0.24684200818E+02 -0.55205582869E+02 -0.12875593023E+03  0.14224997616E+03  0.00000000000E+00 0. -1.
         22    1    5    5    0    0  0.22393877502E+02  0.15055246471E+03  0.11474898429E+04  0.11575406991E+04  0.00000000000E+00 0. -1.
          5    1    4    4  502    0 -0.37987142224E+02  0.15797346531E+02 -0.85433793125E+01  0.42280710281E+02  0.47000000000E+01 0. -1.
         -5    1    4    4    0  502 -0.90909360960E+01 -0.11114422837E+03  0.77413922795E+02  0.13583331720E+03  0.47000000000E+01 0. -1.
<mgrwt>
<rscale>  0 0.10006592E+04</rscale>
<asrwt>0</asrwt>
<pdfrwt beam="1">  1        2 0.19734685E+00 0.10006592E+04</pdfrwt>
<pdfrwt beam="2">  1       -2 0.30023097E-01 0.10006592E+04</pdfrwt>
<totfact> 0.20825078E+02</totfact>
</mgrwt>
</event>
<event>
 9    1  0.4296086E-036  0.9999064E+03  0.7818608E-02  0.8681127E-01
         -2   -1    0    0    0  501 -0.00000000000E+00  0.00000000000E+00  0.62930250564E+03  0.62930250564E+03  0.00000000000E+00 0. -1.
          2   -1    0    0  501    0  0.00000000000E+00 -0.00000000000E+00 -0.39719082785E+03  0.39719082785E+03  0.00000000000E+00 0. -1.
         36    2    1    2    0    0 -0.28421709430E-13  0.57731597281E-14  0.23211167779E+03  0.10264933335E+04  0.99990636198E+03 0.  0.
         25    2    3    3    0    0  0.81163267538E+02  0.34977496941E+01  0.16126640089E+03  0.21971315036E+03  0.12516911015E+03 0.  0.
         35    2    3    3    0    0 -0.81163267538E+02 -0.34977496941E+01  0.70845276897E+02  0.80678018313E+03  0.79954705951E+03 0.  0.
         22    1    5    5    0    0  0.17868969380E+03  0.33085908714E+03 -0.76503875188E+01  0.37610672773E+03  0.00000000000E+00 0.  1.
         22    1    5    5    0    0 -0.25985296133E+03 -0.33435683684E+03  0.78495664415E+02  0.43067345540E+03  0.00000000000E+00 0.  1.
          5    1    4    4  502    0  0.10905217788E+03  0.68010183885E+01  0.85647389655E+02  0.13891075087E+03  0.47000000000E+01 0.  1.
         -5    1    4    4    0  502 -0.27888910342E+02 -0.33032686944E+01  0.75619011238E+02  0.80802399498E+02  0.47000000000E+01 0.  1.
<mgrwt>
<rscale>  0 0.99990636E+03</rscale>
<asrwt>0</asrwt>
<pdfrwt beam="1">  1        2 0.61106281E-01 0.99990636E+03</pdfrwt>
<pdfrwt beam="2">  1       -2 0.96815770E-01 0.99990636E+03</pdfrwt>
<totfact> 0.85082279E+01</totfact>
</mgrwt>
</event>
<event>
 9    1  0.4296086E-036  0.9999183E+03  0.7818608E-02  0.8681116E-01
         -2   -1    0    0    0  501 -0.00000000000E+00  0.00000000000E+00  0.22793971726E+03  0.22793971726E+03  0.00000000000E+00 0.  1.
          2   -1    0    0  501    0  0.00000000000E+00 -0.00000000000E+00 -0.10966019029E+04  0.10966019029E+04  0.00000000000E+00 0.  1.
         36    2    1    2    0    0  0.00000000000E+00  0.00000000000E+00 -0.86866218562E+03  0.13245416201E+04  0.99991825204E+03 0.  0.
         25    2    3    3    0    0 -0.11031266234E+03 -0.86913251564E+02 -0.18114696993E+03  0.26060784418E+03  0.12401381763E+03 0.  0.
         35    2    3    3    0    0  0.11031266234E+03  0.86913251564E+02 -0.68751521569E+03  0.10639337760E+04  0.79972189608E+03 0.  0.
         22    1    5    5    0    0 -0.33681249619E+03  0.13113964127E+03 -0.27774994838E+03  0.45583472545E+03  0.00000000000E+00 0. -1.
         22    1    5    5    0    0  0.44712515853E+03 -0.44226389711E+02 -0.40976526731E+03  0.60809905051E+03  0.00000000000E+00 0. -1.
          5    1    4    4  502    0 -0.52757846254E+02 -0.10741462990E+03 -0.86027037881E+02  0.14745858505E+03  0.47000000000E+01 0. -1.
         -5    1    4    4    0  502 -0.57554816086E+02  0.20501378336E+02 -0.95119932054E+02  0.11314925913E+03  0.47000000000E+01 0. -1.
<mgrwt>
<rscale>  0 0.99991825E+03</rscale>
<asrwt>0</asrwt>
<pdfrwt beam="1">  1        2 0.16870798E+00 0.99991825E+03</pdfrwt>
<pdfrwt beam="2">  1       -2 0.35067649E-01 0.99991825E+03</pdfrwt>
<totfact> 0.20164754E+02</totfact>
</mgrwt>
</event>
<event>
 9    1  0.4296086E-036  0.1001588E+04  0.7818608E-02  0.8679527E-01
         -2   -1    0    0    0  501 -0.00000000000E+00  0.00000000000E+00  0.93111536487E+02  0.93111536487E+02  0.00000000000E+00 0. -1.
          2   -1    0    0  501    0  0.00000000000E+00 -0.00000000000E+00 -0.26934865613E+04  0.26934865613E+04  0.00000000000E+00 0. -1.
         36    2    1    2    0    0 -0.14210854715E-13  0.14210854715E-13 -0.26003750249E+04  0.27865980978E+04  0.10015880835E+04 0.  0.
         25    2    3    3    0    0  0.80488400442E+02  0.44361989541E+02 -0.19353810279E+03  0.24855937246E+03  0.12600950632E+03 0.  0.
         35    2    3    3    0    0 -0.80488400442E+02 -0.44361989541E+02 -0.24068369221E+04  0.25380387254E+04  0.80020636922E+03 0.  0.
         22    1    5    5    0    0 -0.53612643216E+02 -0.38442204558E+03 -0.18049034162E+04  0.18461665598E+04  0.00000000000E+00 0. -1.
         22    1    5    5    0    0 -0.26875757226E+02  0.34006005604E+03 -0.60193350587E+03  0.69187216559E+03  0.00000000000E+00 0. -1.
          5    1    4    4  502    0  0.47280078703E+02  0.75483794446E+02 -0.17993132964E+03  0.20082475558E+03  0.47000000000E+01 0.  1.
         -5    1    4    4    0  502  0.33208321739E+02 -0.31121804905E+02 -0.13606773150E+02  0.47734616881E+02  0.47000000000E+01 0.  1.
<mgrwt>
<rscale>  0 0.10015881E+04</rscale>
<asrwt>0</asrwt>
<pdfrwt beam="1">  1        2 0.41438259E+00 0.10015881E+04</pdfrwt>
<pdfrwt beam="2">  1       -2 0.14324850E-01 0.10015881E+04</pdfrwt>
<totfact> 0.11416526E+02</totfact>
</mgrwt>
</event>
<event>
 9    1  0.4296086E-036  0.9999525E+03  0.7818608E-02  0.8681083E-01
         -2   -1    0    0    0  501 -0.00000000000E+00  0.00000000000E+00  0.16448258179E+03  0.16448258179E+03  0.00000000000E+00 0. -1.
          2   -1    0    0  501    0  0.00000000000E+00 -0.00000000000E+00 -0.15197734556E+04  0.15197734556E+04  0.00000000000E+00 0. -1.
         36    2    1    2    0    0  0.17763568394E-13  0.00000000000E+00 -0.13552908739E+04  0.16842560374E+04  0.99995252231E+03 0.  0.
         25    2    3    3    0    0  0.32216120518E+01 -0.12764157115E+03 -0.35918979691E+03  0.40059375425E+03  0.12310684898E+03 0.  0.
         35    2    3    3    0    0 -0.32216120518E+01  0.12764157115E+03 -0.99610107695E+03  0.12836622832E+04  0.79954283958E+03 0.  0.
         22    1    5    5    0    0 -0.40037558265E+03  0.78339128472E+02 -0.54191315744E+03  0.67831224111E+03  0.00000000000E+00 0. -1.
         22    1    5    5    0    0  0.39715397060E+03  0.49302442680E+02 -0.45418791951E+03  0.60535004208E+03  0.00000000000E+00 0. -1.
          5    1    4    4  502    0 -0.31749242386E+02 -0.42460077246E+02 -0.35376088011E+02  0.63909546663E+02  0.47000000000E+01 0. -1.
         -5    1    4    4    0  502  0.34970854438E+02 -0.85181493906E+02 -0.32381370890E+03  0.33668420758E+03  0.47000000000E+01 0. -1.
<mgrwt>
<rscale>  0 0.99995252E+03</rscale>
<asrwt>0</asrwt>
<pdfrwt beam="1">  1        2 0.23381131E+00 0.99995252E+03</pdfrwt>
<pdfrwt beam="2">  1       -2 0.25305012E-01 0.99995252E+03</pdfrwt>
<totfact> 0.20730057E+02</totfact>
</mgrwt>
</event>
<event>
 9    1  0.4296086E-036  0.1001341E+04  0.7818608E-02  0.8679762E-01
          2   -1    0    0  501    0  0.00000000000E+00  0.00000000000E+00  0.12087580140E+04  0.12087580140E+04  0.00000000000E+00 0. -1.
         -2   -1    0    0    0  501 -0.00000000000E+00 -0.00000000000E+00 -0.20737903491E+03  0.20737903491E+03  0.00000000000E+00 0. -1.
         36    2    1    2    0    0  0.24868995752E-13  0.00000000000E+00  0.10013789791E+04  0.14161370489E+04  0.10013412413E+04 0.  0.
         25    2    3    3    0    0  0.26799954774E+02 -0.13853701942E+03  0.19895693831E+03  0.27410949004E+03  0.12506560641E+03 0.  0.
         35    2    3    3    0    0 -0.26799954774E+02  0.13853701942E+03  0.80242204074E+03  0.11420275588E+04  0.80027187276E+03 0.  0.
         22    1    5    5    0    0 -0.32482348215E+03 -0.13706830854E+03  0.58109562379E+03  0.67968385280E+03  0.00000000000E+00 0. -1.
         22    1    5    5    0    0  0.29802352738E+03  0.27560532796E+03  0.22132641695E+03  0.46234370603E+03  0.00000000000E+00 0. -1.
          5    1    4    4  502    0 -0.21043437482E+02 -0.21157752804E+02 -0.81123044932E+01  0.31279006521E+02  0.47000000000E+01 0.  1.
         -5    1    4    4    0  502  0.47843392256E+02 -0.11737926662E+03  0.20706924280E+03  0.24283048352E+03  0.47000000000E+01 0.  1.
<mgrwt>
<rscale>  0 0.10013412E+04</rscale>
<asrwt>0</asrwt>
<pdfrwt beam="1">  1        2 0.18596277E+00 0.10013412E+04</pdfrwt>
<pdfrwt beam="2">  1       -2 0.31904468E-01 0.10013412E+04</pdfrwt>
<totfact> 0.20586289E+02</totfact>
</mgrwt>
</event>
<event>
 9    1  0.4296086E-036  0.1000501E+04  0.7818608E-02  0.8680561E-01
         -2   -1    0    0    0  501 -0.00000000000E+00  0.00000000000E+00  0.29995013515E+03  0.29995013515E+03  0.00000000000E+00 0. -1.
          2   -1    0    0  501    0  0.00000000000E+00 -0.00000000000E+00 -0.83430779220E+03  0.83430779220E+03  0.00000000000E+00 0. -1.
         36    2    1    2    0    0  0.14210854715E-13 -0.28421709430E-13 -0.53435765705E+03  0.11342579274E+04  0.10005013444E+04 0.  0.
         25    2    3    3    0    0  0.26846750820E+02 -0.12337362589E+02  0.55188407404E+02  0.14017060178E+03  0.12541562401E+03 0.  0.
         35    2    3    3    0    0 -0.26846750820E+02  0.12337362589E+02 -0.58954606446E+03  0.99408732558E+03  0.79985754371E+03 0.  0.
         22    1    5    5    0    0  0.24921522504E+03  0.30195855367E+03 -0.36501854932E+03  0.53528098965E+03  0.00000000000E+00 0. -1.
         22    1    5    5    0    0 -0.27606197586E+03 -0.28962119108E+03 -0.22452751513E+03  0.45880633593E+03  0.00000000000E+00 0. -1.
          5    1    4    4  502    0  0.54558708381E+02  0.20582562787E+02  0.72839064553E+02  0.93423304780E+02  0.47000000000E+01 0. -1.
         -5    1    4    4    0  502 -0.27711957561E+02 -0.32919925377E+02 -0.17650657149E+02  0.46747296996E+02  0.47000000000E+01 0. -1.
<mgrwt>
<rscale>  0 0.10005013E+04</rscale>
<asrwt>0</asrwt>
<pdfrwt beam="1">  1        2 0.12835504E+00 0.10005013E+04</pdfrwt>
<pdfrwt beam="2">  1       -2 0.46146176E-01 0.10005013E+04</pdfrwt>
<totfact> 0.17542605E+02</totfact>
</mgrwt>
</event>
<event>
 9    1  0.4296086E-036  0.9998403E+03  0.7818608E-02  0.8681190E-01
          2   -1    0    0  501    0  0.00000000000E+00  0.00000000000E+00  0.70517305146E+03  0.70517305146E+03  0.00000000000E+00 0. -1.
         -2   -1    0    0    0  501 -0.00000000000E+00 -0.00000000000E+00 -0.35440968416E+03  0.35440968416E+03  0.00000000000E+00 0. -1.
         36    2    1    2    0    0  0.71054273576E-14  0.28421709430E-13  0.35076336730E+03  0.10595827356E+04  0.99984030414E+03 0.  0.
         25    2    3    3    0    0 -0.25734361909E+02 -0.94909576462E+02  0.16883251789E+03  0.23226278127E+03  0.12558461442E+03 0.  0.
         35    2    3    3    0    0  0.25734361909E+02  0.94909576462E+02  0.18193084941E+03  0.82731995435E+03  0.80105517152E+03 0.  0.
         22    1    5    5    0    0 -0.10491517160E+03 -0.33191243283E+03  0.77972246558E+01  0.34818652044E+03  0.00000000000E+00 0. -1.
         22    1    5    5    0    0  0.13064953351E+03  0.42682200930E+03  0.17413362476E+03  0.47913343392E+03  0.00000000000E+00 0. -1.
          5    1    4    4  502    0 -0.29259105782E+02 -0.20244937503E+02 -0.10934494141E+02  0.37518074681E+02  0.47000000000E+01 0.  1.
         -5    1    4    4    0  502  0.35247438731E+01 -0.74664638959E+02  0.17976701203E+03  0.19474470659E+03  0.47000000000E+01 0.  1.
<mgrwt>
<rscale>  0 0.99984030E+03</rscale>
<asrwt>0</asrwt>
<pdfrwt beam="1">  1        2 0.10848816E+00 0.99984030E+03</pdfrwt>
<pdfrwt beam="2">  1       -2 0.54524567E-01 0.99984030E+03</pdfrwt>
<totfact> 0.15551533E+02</totfact>
</mgrwt>
</event>
<event>
 9    1  0.4296086E-036  0.9998231E+03  0.7818608E-02  0.8681206E-01
          1   -1    0    0  501    0  0.00000000000E+00  0.00000000000E+00  0.98698799222E+03  0.98698799222E+03  0.00000000000E+00 0.  1.
         -1   -1    0    0    0  501 -0.00000000000E+00 -0.00000000000E+00 -0.25320628990E+03  0.25320628990E+03  0.00000000000E+00 0.  1.
         36    2    1    2    0    0 -0.14210854715E-13  0.71054273576E-14  0.73378170233E+03  0.12401942821E+04  0.99982311972E+03 0.  0.
         25    2    3    3    0    0 -0.12558227658E+03 -0.33253311682E+02  0.73113737819E+02  0.19389438142E+03  0.12398677978E+03 0.  0.
         35    2    3    3    0    0  0.12558227658E+03  0.33253311682E+02  0.66066796451E+03  0.10462999007E+04  0.80086492740E+03 0.  0.
         22    1    5    5    0    0 -0.19366318502E+02 -0.23382258212E+03 -0.78258462859E+02  0.24733063137E+03  0.00000000000E+00 0. -1.
         22    1    5    5    0    0  0.14494859509E+03  0.26707589381E+03  0.73892642737E+03  0.79896926933E+03  0.00000000000E+00 0. -1.
          5    1    4    4  502    0 -0.79359772399E+02 -0.66298950875E+02  0.30460185594E+01  0.10356105731E+03  0.47000000000E+01 0.  1.
         -5    1    4    4    0  502 -0.46222504185E+02  0.33045639193E+02  0.70067719260E+02  0.90333324112E+02  0.47000000000E+01 0.  1.
<mgrwt>
<rscale>  0 0.99982312E+03</rscale>
<asrwt>0</asrwt>
<pdfrwt beam="1">  1        1 0.15184430E+00 0.99982312E+03</pdfrwt>
<pdfrwt beam="2">  1       -1 0.38954814E-01 0.99982312E+03</pdfrwt>
<totfact> 0.11096556E+02</totfact>
</mgrwt>
</event>
<event>
 9    1  0.4296086E-036  0.9997785E+03  0.7818608E-02  0.8681249E-01
          1   -1    0    0  501    0  0.00000000000E+00  0.00000000000E+00  0.29443051239E+03  0.29443051239E+03  0.00000000000E+00 0.  1.
         -1   -1    0    0    0  501 -0.00000000000E+00 -0.00000000000E+00 -0.84872066280E+03  0.84872066280E+03  0.00000000000E+00 0.  1.
         36    2    1    2    0    0  0.14210854715E-13  0.00000000000E+00 -0.55429015041E+03  0.11431511752E+04  0.99977849472E+03 0.  0.
         25    2    3    3    0    0 -0.10017002299E+03  0.77732767866E+02 -0.17287505706E+03  0.24812016164E+03  0.12490561458E+03 0.  0.
         35    2    3    3    0    0  0.10017002299E+03 -0.77732767866E+02 -0.38141509334E+03  0.89503101355E+03  0.79970408594E+03 0.  0.
         22    1    5    5    0    0 -0.34865798967E+03 -0.87354837080E+02 -0.14420543988E+03  0.38728344944E+03  0.00000000000E+00 0. -1.
         22    1    5    5    0    0  0.44882801265E+03  0.96220692140E+01 -0.23720965347E+03  0.50774756411E+03  0.00000000000E+00 0. -1.
          5    1    4    4  502    0 -0.99286367823E+02  0.58407810488E+02 -0.18974636652E+03  0.22202483818E+03  0.47000000000E+01 0. -1.
         -5    1    4    4    0  502 -0.88365516516E+00  0.19324957377E+02  0.16871309453E+02  0.26095323465E+02  0.47000000000E+01 0. -1.
<mgrwt>
<rscale>  0 0.99977849E+03</rscale>
<asrwt>0</asrwt>
<pdfrwt beam="1">  1        1 0.45297002E-01 0.99977849E+03</pdfrwt>
<pdfrwt beam="2">  1       -1 0.13057241E+00 0.99977849E+03</pdfrwt>
<totfact> 0.53945537E+01</totfact>
</mgrwt>
</event>
<event>
 9    1  0.4296086E-036  0.9931680E+03  0.7818608E-02  0.8687571E-01
         -1   -1    0    0    0  501 -0.00000000000E+00  0.00000000000E+00  0.48641464166E+03  0.48641464166E+03  0.00000000000E+00 0.  1.
          1   -1    0    0  501    0  0.00000000000E+00 -0.00000000000E+00 -0.50696592910E+03  0.50696592910E+03  0.00000000000E+00 0.  1.
         36    2    1    2    0    0  0.00000000000E+00 -0.28421709430E-13 -0.20551287446E+02  0.99338057076E+03  0.99316796311E+03 0.  0.
         25    2    3    3    0    0  0.11559692026E+03  0.79289800540E+01 -0.67208912652E+02  0.18297177245E+03  0.12464395242E+03 0.  0.
         35    2    3    3    0    0 -0.11559692026E+03 -0.79289800540E+01  0.46657625207E+02  0.81040879831E+03  0.80072465286E+03 0.  0.
         22    1    5    5    0    0 -0.21804188863E+03  0.20505235615E+03  0.32728901855E+03  0.44351644346E+03  0.00000000000E+00 0. -1.
         22    1    5    5    0    0  0.10244496837E+03 -0.21298133621E+03 -0.28063139334E+03  0.36689235485E+03  0.00000000000E+00 0. -1.
          5    1    4    4  502    0  0.37720554183E+02 -0.46115746050E+02  0.10038651753E+02  0.60600055863E+02  0.47000000000E+01 0. -1.
         -5    1    4    4    0  502  0.77876366077E+02  0.54044726104E+02 -0.77247564405E+02  0.12237171658E+03  0.47000000000E+01 0. -1.
<mgrwt>
<rscale>  0 0.99316796E+03</rscale>
<asrwt>0</asrwt>
<pdfrwt beam="1">  1        1 0.77994758E-01 0.99316796E+03</pdfrwt>
<pdfrwt beam="2">  1       -1 0.74833022E-01 0.99316796E+03</pdfrwt>
<totfact> 0.92081524E+01</totfact>
</mgrwt>
</event>
<event>
 9    1  0.4296086E-036  0.9998682E+03  0.7818608E-02  0.8681163E-01
         -2   -1    0    0    0  501 -0.00000000000E+00  0.00000000000E+00  0.36679190925E+03  0.36679190925E+03  0.00000000000E+00 0.  1.
          2   -1    0    0  501    0  0.00000000000E+00 -0.00000000000E+00 -0.68140574773E+03  0.68140574773E+03  0.00000000000E+00 0.  1.
         36    2    1    2    0    0 -0.28421709430E-13  0.28421709430E-13 -0.31461383848E+03  0.10481976570E+04  0.99986822168E+03 0.  0.
         25    2    3    3    0    0  0.10770106569E+03 -0.81937591872E+02 -0.19843764025E+02  0.18515781446E+03  0.12480525940E+03 0.  0.
         35    2    3    3    0    0 -0.10770106569E+03  0.81937591872E+02 -0.29477007446E+03  0.86303984252E+03  0.79977189527E+03 0.  0.
         22    1    5    5    0    0 -0.15188794994E+03  0.26163770165E+03  0.18100486468E+03  0.35254361050E+03  0.00000000000E+00 0.  1.
         22    1    5    5    0    0  0.44186884253E+02 -0.17970010978E+03 -0.47577493914E+03  0.51049623202E+03  0.00000000000E+00 0.  1.
          5    1    4    4  502    0 -0.59992450385E+01 -0.18414361349E+02 -0.47869079230E+02  0.51851888984E+02  0.47000000000E+01 0.  1.
         -5    1    4    4    0  502  0.11370031073E+03 -0.63523230523E+02  0.28025315204E+02  0.13330592548E+03  0.47000000000E+01 0.  1.
<mgrwt>
<rscale>  0 0.99986822E+03</rscale>
<asrwt>0</asrwt>
<pdfrwt beam="1">  1        2 0.10483165E+00 0.99986822E+03</pdfrwt>
<pdfrwt beam="2">  1       -2 0.56429525E-01 0.99986822E+03</pdfrwt>
<totfact> 0.15116512E+02</totfact>
</mgrwt>
</event>
<event>
 9    1  0.4296086E-036  0.9993098E+03  0.7818608E-02  0.8681696E-01
         -1   -1    0    0    0  501 -0.00000000000E+00  0.00000000000E+00  0.37064062028E+03  0.37064062028E+03  0.00000000000E+00 0. -1.
          1   -1    0    0  501    0  0.00000000000E+00 -0.00000000000E+00 -0.67357703707E+03  0.67357703707E+03  0.00000000000E+00 0. -1.
         36    2    1    2    0    0 -0.14210854715E-13  0.14210854715E-13 -0.30293641680E+03  0.10442176574E+04  0.99930978345E+03 0.  0.
         25    2    3    3    0    0 -0.33417353356E+02 -0.62879921685E+02 -0.17652504977E+03  0.23229670050E+03  0.13315427072E+03 0.  0.
         35    2    3    3    0    0  0.33417353356E+02  0.62879921685E+02 -0.12641136702E+03  0.81192095685E+03  0.79885242843E+03 0.  0.
         22    1    5    5    0    0 -0.27819087676E+03 -0.23654669853E+03 -0.14209655544E+02  0.36544003449E+03  0.00000000000E+00 0.  1.
         22    1    5    5    0    0  0.31160823012E+03  0.29942662021E+03 -0.11220171148E+03  0.44648092236E+03  0.00000000000E+00 0.  1.
          5    1    4    4  502    0 -0.49956844800E+02 -0.36160512526E+02 -0.98606728289E+01  0.62630598569E+02  0.47000000000E+01 0. -1.
         -5    1    4    4    0  502  0.16539491444E+02 -0.26719409159E+02 -0.16666437694E+03  0.16966610193E+03  0.47000000000E+01 0. -1.
<mgrwt>
<rscale>  0 0.99930978E+03</rscale>
<asrwt>0</asrwt>
<pdfrwt beam="1">  1        1 0.10362724E+00 0.99930978E+03</pdfrwt>
<pdfrwt beam="2">  1       -1 0.57021634E-01 0.99930978E+03</pdfrwt>
<totfact> 0.10371142E+02</totfact>
</mgrwt>
</event>
<event>
 9    1  0.4296086E-036  0.9998153E+03  0.7818608E-02  0.8681214E-01
         -2   -1    0    0    0  501 -0.00000000000E+00  0.00000000000E+00  0.12350544128E+03  0.12350544128E+03  0.00000000000E+00 0.  1.
          2   -1    0    0  501    0  0.00000000000E+00 -0.00000000000E+00 -0.20234546714E+04  0.20234546714E+04  0.00000000000E+00 0.  1.
         36    2    1    2    0    0  0.00000000000E+00 -0.14210854715E-13 -0.18999492301E+04  0.21469601127E+04  0.99981530716E+03 0.  0.
         25    2    3    3    0    0 -0.18696734527E+02  0.25535652412E+02 -0.60955342614E+03  0.62309215984E+03  0.12524704752E+03 0.  0.
         35    2    3    3    0    0  0.18696734527E+02 -0.25535652412E+02 -0.12903958040E+04  0.15238679528E+04  0.80996948668E+03 0.  0.
         22    1    5    5    0    0  0.11362543080E+03  0.24299296730E+03 -0.79285327827E+02  0.27971857981E+03  0.00000000000E+00 0.  1.
         22    1    5    5    0    0 -0.94928696273E+02 -0.26852861971E+03 -0.12111104761E+04  0.12441493730E+04  0.00000000000E+00 0.  1.
          5    1    4    4  502    0 -0.67007509952E+02  0.93351259108E+01 -0.22065521168E+03  0.23084185801E+03  0.47000000000E+01 0.  1.
         -5    1    4    4    0  502  0.48310775424E+02  0.16200526502E+02 -0.38889821446E+03  0.39225030183E+03  0.47000000000E+01 0.  1.
<mgrwt>
<rscale>  0 0.99981531E+03</rscale>
<asrwt>0</asrwt>
<pdfrwt beam="1">  1        2 0.31130073E+00 0.99981531E+03</pdfrwt>
<pdfrwt beam="2">  1       -2 0.19000837E-01 0.99981531E+03</pdfrwt>
<totfact> 0.17757374E+02</totfact>
</mgrwt>
</event>
<event>
 9    1  0.4296086E-036  0.1000033E+04  0.7818608E-02  0.8681006E-01
         -2   -1    0    0    0  501 -0.00000000000E+00  0.00000000000E+00  0.17816035165E+03  0.17816035165E+03  0.00000000000E+00 0.  1.
          2   -1    0    0  501    0  0.00000000000E+00 -0.00000000000E+00 -0.14033238595E+04  0.14033238595E+04  0.00000000000E+00 0.  1.
         36    2    1    2    0    0  0.00000000000E+00  0.00000000000E+00 -0.12251635078E+04  0.15814842111E+04  0.10000333440E+04 0.  0.
         25    2    3    3    0    0 -0.60791721065E+02  0.97169025537E+02 -0.10298329461E+03  0.19770122608E+03  0.12386590714E+03 0.  0.
         35    2    3    3    0    0  0.60791721065E+02 -0.97169025537E+02 -0.11221802132E+04  0.13837829850E+04  0.80151697792E+03 0.  0.
         22    1    5    5    0    0  0.13601442616E+03  0.24164999508E+03 -0.96267289571E+03  0.10018152267E+04  0.00000000000E+00 0. -1.
         22    1    5    5    0    0 -0.75222705099E+02 -0.33881902062E+03 -0.15950731749E+03  0.38196775837E+03  0.00000000000E+00 0. -1.
          5    1    4    4  502    0  0.35787520680E+02  0.91441685881E+01 -0.30918089713E+02  0.48398147972E+02  0.47000000000E+01 0.  1.
         -5    1    4    4    0  502 -0.96579241745E+02  0.88024856949E+02 -0.72065204899E+02  0.14930307811E+03  0.47000000000E+01 0.  1.
<mgrwt>
<rscale>  0 0.10000333E+04</rscale>
<asrwt>0</asrwt>
<pdfrwt beam="1">  1        2 0.21589598E+00 0.10000333E+04</pdfrwt>
<pdfrwt beam="2">  1       -2 0.27409284E-01 0.10000333E+04</pdfrwt>
<totfact> 0.20929163E+02</totfact>
</mgrwt>
</event>
<event>
 9    1  0.4296086E-036  0.9980991E+03  0.7818608E-02  0.8682850E-01
          1   -1    0    0  501    0  0.00000000000E+00  0.00000000000E+00  0.37213922784E+03  0.37213922784E+03  0.00000000000E+00 0.  1.
         -1   -1    0    0    0  501 -0.00000000000E+00 -0.00000000000E+00 -0.66924001591E+03  0.66924001591E+03  0.00000000000E+00 0.  1.
         36    2    1    2    0    0 -0.21316282073E-13  0.00000000000E+00 -0.29710078806E+03  0.10413792437E+04  0.99809911885E+03 0.  0.
         25    2    3    3    0    0 -0.39401402650E+01 -0.10540947379E+03  0.34962421140E+02  0.16743464602E+03  0.12524099938E+03 0.  0.
         35    2    3    3    0    0  0.39401402650E+01  0.10540947379E+03 -0.33206320920E+03  0.87394459773E+03  0.80149017656E+03 0.  0.
         22    1    5    5    0    0 -0.37551351903E+03  0.13945889284E+03 -0.58271706105E+02  0.40478979421E+03  0.00000000000E+00 0. -1.
         22    1    5    5    0    0  0.37945365930E+03 -0.34049419049E+02 -0.27379150310E+03  0.46915480351E+03  0.00000000000E+00 0. -1.
          5    1    4    4  502    0 -0.45365042127E+02 -0.17361035044E+02  0.48827074589E+02  0.69033077564E+02  0.47000000000E+01 0.  1.
         -5    1    4    4    0  502  0.41424901862E+02 -0.88048438744E+02 -0.13864653449E+02  0.98401568458E+02  0.47000000000E+01 0.  1.
<mgrwt>
<rscale>  0 0.99809912E+03</rscale>
<asrwt>0</asrwt>
<pdfrwt beam="1">  1        1 0.57252189E-01 0.99809912E+03</pdfrwt>
<pdfrwt beam="2">  1       -1 0.10296000E+00 0.99809912E+03</pdfrwt>
<totfact> 0.70624853E+01</totfact>
</mgrwt>
</event>
<event>
 9    1  0.4296086E-036  0.9995251E+03  0.7818608E-02  0.8681490E-01
         -2   -1    0    0    0  501 -0.00000000000E+00  0.00000000000E+00  0.16432218168E+03  0.16432218168E+03  0.00000000000E+00 0. -1.
          2   -1    0    0  501    0  0.00000000000E+00 -0.00000000000E+00 -0.15199565997E+04  0.15199565997E+04  0.00000000000E+00 0. -1.
         36    2    1    2    0    0  0.71054273576E-14  0.00000000000E+00 -0.13556344180E+04  0.16842787814E+04  0.99952505628E+03 0.  0.
         25    2    3    3    0    0 -0.69256046735E+01 -0.11933179793E+03 -0.13444429183E+03  0.21885850829E+03  0.12464243679E+03 0.  0.
         35    2    3    3    0    0  0.69256046735E+01  0.11933179793E+03 -0.12211901262E+04  0.14654202731E+04  0.80116366025E+03 0.  0.
         22    1    5    5    0    0 -0.64339788667E+02 -0.26093597985E+03 -0.11282810130E+03  0.29147448332E+03  0.00000000000E+00 0.  1.
         22    1    5    5    0    0  0.71265393341E+02  0.38026777778E+03 -0.11083620249E+04  0.11739457898E+04  0.00000000000E+00 0.  1.
          5    1    4    4  502    0  0.31502786349E+02 -0.12831996675E+03 -0.11159322475E+03  0.17301322847E+03  0.47000000000E+01 0. -1.
         -5    1    4    4    0  502 -0.38428391022E+02  0.89881688229E+01 -0.22851067072E+02  0.45845279819E+02  0.47000000000E+01 0. -1.
<mgrwt>
<rscale>  0 0.99952506E+03</rscale>
<asrwt>0</asrwt>
<pdfrwt beam="1">  1        2 0.23383948E+00 0.99952506E+03</pdfrwt>
<pdfrwt beam="2">  1       -2 0.25280336E-01 0.99952506E+03</pdfrwt>
<totfact> 0.20761106E+02</totfact>
</mgrwt>
</event>
<event>
 9    1  0.4296086E-036  0.1000212E+04  0.7818608E-02  0.8680836E-01
          4   -1    0    0  501    0  0.00000000000E+00  0.00000000000E+00  0.44447414579E+03  0.44447414579E+03  0.00000000000E+00 0. -1.
         -4   -1    0    0    0  501 -0.00000000000E+00 -0.00000000000E+00 -0.56270124204E+03  0.56270124204E+03  0.00000000000E+00 0. -1.
         36    2    1    2    0    0  0.00000000000E+00  0.42632564146E-13 -0.11822709625E+03  0.10071753878E+04  0.10002122852E+04 0.  0.
         25    2    3    3    0    0  0.79055633429E+02 -0.86869993194E+02  0.61682339134E+02  0.18251568990E+03  0.12534383593E+03 0.  0.
         35    2    3    3    0    0 -0.79055633429E+02  0.86869993194E+02 -0.17990943538E+03  0.82465969792E+03  0.79617838676E+03 0.  0.
         22    1    5    5    0    0 -0.53375674978E+02 -0.32869229069E+03 -0.23086384823E+03  0.40519834780E+03  0.00000000000E+00 0.  1.
         22    1    5    5    0    0 -0.25679958451E+02  0.41556228389E+03  0.50954412851E+02  0.41946135012E+03  0.00000000000E+00 0.  1.
          5    1    4    4  502    0  0.33289523857E+02 -0.50735379281E+02 -0.34483737039E+02  0.69953479039E+02  0.47000000000E+01 0. -1.
         -5    1    4    4    0  502  0.45766109572E+02 -0.36134613913E+02  0.96166076173E+02  0.11256221086E+03  0.47000000000E+01 0. -1.
<mgrwt>
<rscale>  0 0.10002123E+04</rscale>
<asrwt>0</asrwt>
<pdfrwt beam="1">  1        4 0.68380638E-01 0.10002123E+04</pdfrwt>
<pdfrwt beam="2">  1       -4 0.86569422E-01 0.10002123E+04</pdfrwt>
<totfact> 0.52163212E+00</totfact>
</mgrwt>
</event>
<event>
 9    1  0.4296086E-036  0.9998691E+03  0.7818608E-02  0.8681163E-01
          2   -1    0    0  501    0  0.00000000000E+00  0.00000000000E+00  0.38892913264E+03  0.38892913264E+03  0.00000000000E+00 0.  1.
         -2   -1    0    0    0  501 -0.00000000000E+00 -0.00000000000E+00 -0.64262233582E+03  0.64262233582E+03  0.00000000000E+00 0.  1.
         36    2    1    2    0    0  0.00000000000E+00  0.14210854715E-13 -0.25369320318E+03  0.10315514685E+04  0.99986908679E+03 0.  0.
         25    2    3    3    0    0 -0.49613780679E+02 -0.12372767888E+03 -0.46074197603E+01  0.18274074566E+03  0.12491151290E+03 0.  0.
         35    2    3    3    0    0  0.49613780679E+02  0.12372767888E+03 -0.24908578342E+03  0.84881072279E+03  0.80041604798E+03 0.  0.
         22    1    5    5    0    0 -0.31248307167E+03  0.26772208303E+03 -0.19515577926E+03  0.45541910588E+03  0.00000000000E+00 0. -1.
         22    1    5    5    0    0  0.36209685234E+03 -0.14399440415E+03 -0.53930004164E+02  0.39339161691E+03  0.00000000000E+00 0. -1.
          5    1    4    4  502    0 -0.78887153641E+02 -0.13022742321E+03 -0.39392867414E+01  0.15238101176E+03  0.47000000000E+01 0.  1.
         -5    1    4    4    0  502  0.29273372963E+02  0.64997443282E+01 -0.66813301890E+00  0.30359733903E+02  0.47000000000E+01 0.  1.
<mgrwt>
<rscale>  0 0.99986909E+03</rscale>
<asrwt>0</asrwt>
<pdfrwt beam="1">  1        2 0.59835252E-01 0.99986909E+03</pdfrwt>
<pdfrwt beam="2">  1       -2 0.98864974E-01 0.99986909E+03</pdfrwt>
<totfact> 0.82815226E+01</totfact>
</mgrwt>
</event>
<event>
 9    1  0.4296086E-036  0.1000700E+04  0.7818608E-02  0.8680372E-01
          3   -1    0    0  501    0  0.00000000000E+00  0.00000000000E+00  0.26792873398E+03  0.26792873398E+03  0.00000000000E+00 0.  1.
         -3   -1    0    0    0  501 -0.00000000000E+00 -0.00000000000E+00 -0.93438988470E+03  0.93438988470E+03  0.00000000000E+00 0.  1.
         36    2    1    2    0    0 -0.42632564146E-13  0.17763568394E-14 -0.66646115072E+03  0.12023186187E+04  0.10006995530E+04 0.  0.
         25    2    3    3    0    0 -0.75106000899E+02 -0.10947274825E+02 -0.26856191051E+03  0.30570573487E+03  0.12477877366E+03 0.  0.
         35    2    3    3    0    0  0.75106000899E+02  0.10947274825E+02 -0.39789924021E+03  0.89661288382E+03  0.79989380787E+03 0.  0.
         22    1    5    5    0    0 -0.32307409168E+03  0.10629392824E+03 -0.22050746122E+02  0.34082473986E+03  0.00000000000E+00 0. -1.
         22    1    5    5    0    0  0.39818009258E+03 -0.95346653416E+02 -0.37584849409E+03  0.55578814395E+03  0.00000000000E+00 0. -1.
          5    1    4    4  502    0 -0.19024683306E+02  0.14665029780E+02 -0.23319022017E+03  0.23447125721E+03  0.47000000000E+01 0.  1.
         -5    1    4    4    0  502 -0.56081317593E+02 -0.25612304605E+02 -0.35371690340E+02  0.71234477661E+02  0.47000000000E+01 0.  1.
<mgrwt>
<rscale>  0 0.10006996E+04</rscale>
<asrwt>0</asrwt>
<pdfrwt beam="1">  1        3 0.41219805E-01 0.10006996E+04</pdfrwt>
<pdfrwt beam="2">  1       -3 0.14375229E+00 0.10006996E+04</pdfrwt>
<totfact> 0.68874485E+00</totfact>
</mgrwt>
</event>
<event>
 9    1  0.4296086E-036  0.9996721E+03  0.7818608E-02  0.8681350E-01
          3   -1    0    0  501    0  0.00000000000E+00  0.00000000000E+00  0.57665862824E+03  0.57665862824E+03  0.00000000000E+00 0.  1.
         -3   -1    0    0    0  501 -0.00000000000E+00 -0.00000000000E+00 -0.43324780345E+03  0.43324780345E+03  0.00000000000E+00 0.  1.
         36    2    1    2    0    0  0.14210854715E-13  0.00000000000E+00  0.14341082479E+03  0.10099064317E+04  0.99967211429E+03 0.  0.
         25    2    3    3    0    0 -0.95214622207E+02 -0.10371439297E+03  0.51583780726E+02  0.19538447501E+03  0.12526654402E+03 0.  0.
         35    2    3    3    0    0  0.95214622207E+02  0.10371439297E+03  0.91827044064E+02  0.81452195667E+03  0.79698890349E+03 0.  0.
         22    1    5    5    0    0 -0.34765521740E+03  0.25719175154E+02  0.10676669285E+03  0.36458847055E+03  0.00000000000E+00 0.  1.
         22    1    5    5    0    0  0.44286983960E+03  0.77995217815E+02 -0.14939648788E+02  0.44993348613E+03  0.00000000000E+00 0.  1.
          5    1    4    4  502    0 -0.54414722622E+02 -0.12467028303E+03  0.15805468307E+02  0.13702388236E+03  0.47000000000E+01 0. -1.
         -5    1    4    4    0  502 -0.40799899586E+02  0.20955890063E+02  0.35778312419E+02  0.58360592647E+02  0.47000000000E+01 0. -1.
<mgrwt>
<rscale>  0 0.99967211E+03</rscale>
<asrwt>0</asrwt>
<pdfrwt beam="1">  1        3 0.88716713E-01 0.99967211E+03</pdfrwt>
<pdfrwt beam="2">  1       -3 0.66653508E-01 0.99967211E+03</pdfrwt>
<totfact> 0.10176245E+01</totfact>
</mgrwt>
</event>
<event>
 9    1  0.4296086E-036  0.9986979E+03  0.7818608E-02  0.8682279E-01
          2   -1    0    0  501    0  0.00000000000E+00  0.00000000000E+00  0.29520234792E+04  0.29520234792E+04  0.00000000000E+00 0. -1.
         -2   -1    0    0    0  501 -0.00000000000E+00 -0.00000000000E+00 -0.84467278846E+02  0.84467278846E+02  0.00000000000E+00 0. -1.
         36    2    1    2    0    0  0.00000000000E+00  0.00000000000E+00  0.28675562004E+04  0.30364907581E+04  0.99869793307E+03 0.  0.
         25    2    3    3    0    0  0.13532771364E+03 -0.34599072193E+02  0.54511221091E+03  0.57661271255E+03  0.12579432390E+03 0.  0.
         35    2    3    3    0    0 -0.13532771364E+03  0.34599072193E+02  0.23224439895E+04  0.24598780455E+04  0.79858827233E+03 0.  0.
         22    1    5    5    0    0  0.77645870746E+02  0.23785679162E+03  0.20896321480E+03  0.32599134912E+03  0.00000000000E+00 0. -1.
         22    1    5    5    0    0 -0.21297358439E+03 -0.20325771942E+03  0.21134807747E+04  0.21338866964E+04  0.00000000000E+00 0. -1.
          5    1    4    4  502    0  0.10002058138E+03  0.35664614594E+02  0.36179934755E+03  0.37709009444E+03  0.47000000000E+01 0. -1.
         -5    1    4    4    0  502  0.35307132256E+02 -0.70263686787E+02  0.18331286335E+03  0.19952261812E+03  0.47000000000E+01 0. -1.
<mgrwt>
<rscale>  0 0.99869793E+03</rscale>
<asrwt>0</asrwt>
<pdfrwt beam="1">  1        2 0.45415738E+00 0.99869793E+03</pdfrwt>
<pdfrwt beam="2">  1       -2 0.12994968E-01 0.99869793E+03</pdfrwt>
<totfact> 0.91470209E+01</totfact>
</mgrwt>
</event>
<event>
 9    1  0.4296086E-036  0.1000565E+04  0.7818608E-02  0.8680500E-01
          1   -1    0    0  501    0  0.00000000000E+00  0.00000000000E+00  0.25163976393E+03  0.25163976393E+03  0.00000000000E+00 0. -1.
         -1   -1    0    0    0  501 -0.00000000000E+00 -0.00000000000E+00 -0.99460635948E+03  0.99460635948E+03  0.00000000000E+00 0. -1.
         36    2    1    2    0    0  0.35527136788E-14 -0.56843418861E-13 -0.74296659554E+03  0.12462461234E+04  0.10005648595E+04 0.  0.
         25    2    3    3    0    0 -0.13119065417E+02  0.12931039426E+03 -0.72784484754E+02  0.19465099399E+03  0.12529221962E+03 0.  0.
         35    2    3    3    0    0  0.13119065417E+02 -0.12931039426E+03 -0.67018211079E+03  0.10515951294E+04  0.79988434581E+03 0.  0.
         22    1    5    5    0    0  0.52388643047E+02 -0.45262929157E+03 -0.52456928569E+03  0.69483147669E+03  0.00000000000E+00 0.  1.
         22    1    5    5    0    0 -0.39269577630E+02  0.32331889730E+03 -0.14561282509E+03  0.35676365274E+03  0.00000000000E+00 0.  1.
          5    1    4    4  502    0 -0.35801473699E+02  0.13689782879E+03 -0.28971152054E+02  0.14451359347E+03  0.47000000000E+01 0. -1.
         -5    1    4    4    0  502  0.22682408281E+02 -0.75874345263E+01 -0.43813332701E+02  0.50137400516E+02  0.47000000000E+01 0. -1.
<mgrwt>
<rscale>  0 0.10005649E+04</rscale>
<asrwt>0</asrwt>
<pdfrwt beam="1">  1        1 0.38713809E-01 0.10005649E+04</pdfrwt>
<pdfrwt beam="2">  1       -1 0.15301636E+00 0.10005649E+04</pdfrwt>
<totfact> 0.42627434E+01</totfact>
</mgrwt>
</event>
<event>
 9    1  0.4296086E-036  0.9996128E+03  0.7818608E-02  0.8681407E-01
         -1   -1    0    0    0  501 -0.00000000000E+00  0.00000000000E+00  0.14228231786E+03  0.14228231786E+03  0.00000000000E+00 0.  1.
          1   -1    0    0  501    0  0.00000000000E+00 -0.00000000000E+00 -0.17557097676E+04  0.17557097676E+04  0.00000000000E+00 0.  1.
         36    2    1    2    0    0 -0.71054273576E-14  0.00000000000E+00 -0.16134274498E+04  0.18979920855E+04  0.99961283552E+03 0.  0.
         25    2    3    3    0    0 -0.24285732603E+02  0.56632652092E+02 -0.54527113565E+03  0.56249777857E+03  0.12363690967E+03 0.  0.
         35    2    3    3    0    0  0.24285732603E+02 -0.56632652092E+02 -0.10681563141E+04  0.13354943069E+04  0.79924344122E+03 0.  0.
         22    1    5    5    0    0  0.14453204428E+03 -0.32639904221E+03 -0.95443392432E+03  0.10190043977E+04  0.00000000000E+00 0. -1.
         22    1    5    5    0    0 -0.12024631167E+03  0.26976639012E+03 -0.11372238978E+03  0.31648990923E+03  0.00000000000E+00 0. -1.
          5    1    4    4  502    0 -0.40669797649E+02  0.75462381883E+02 -0.51863674885E+03  0.52569456035E+03  0.47000000000E+01 0. -1.
         -5    1    4    4    0  502  0.16384065047E+02 -0.18829729791E+02 -0.26634386799E+02  0.36803218224E+02  0.47000000000E+01 0. -1.
<mgrwt>
<rscale>  0 0.99961284E+03</rscale>
<asrwt>0</asrwt>
<pdfrwt beam="1">  1        1 0.27010921E+00 0.99961284E+03</pdfrwt>
<pdfrwt beam="2">  1       -1 0.21889586E-01 0.99961284E+03</pdfrwt>
<totfact> 0.81377823E+01</totfact>
</mgrwt>
</event>
<event>
 9    1  0.4296086E-036  0.1001453E+04  0.7818608E-02  0.8679656E-01
         -1   -1    0    0    0  501 -0.00000000000E+00  0.00000000000E+00  0.49344384637E+03  0.49344384637E+03  0.00000000000E+00 0. -1.
          1   -1    0    0  501    0  0.00000000000E+00 -0.00000000000E+00 -0.50811631357E+03  0.50811631357E+03  0.00000000000E+00 0. -1.
         36    2    1    2    0    0 -0.28421709430E-13  0.00000000000E+00 -0.14672467204E+02  0.10015601599E+04  0.10014526812E+04 0.  0.
         25    2    3    3    0    0  0.10120365783E+03 -0.94484352796E+02 -0.80132044435E+01  0.18901777568E+03  0.12842910416E+03 0.  0.
         35    2    3    3    0    0 -0.10120365783E+03  0.94484352796E+02 -0.66592627604E+01  0.81254238426E+03  0.80063181748E+03 0.  0.
         22    1    5    5    0    0 -0.29235256552E+03 -0.24727508540E+03  0.11953389975E+03  0.40112759020E+03  0.00000000000E+00 0. -1.
         22    1    5    5    0    0  0.19114890769E+03  0.34175943820E+03 -0.12619316251E+03  0.41141479407E+03  0.00000000000E+00 0. -1.
          5    1    4    4  502    0  0.53718125161E+02 -0.82923832723E+02  0.51781339272E+02  0.11164853828E+03  0.47000000000E+01 0. -1.
         -5    1    4    4    0  502  0.47485532665E+02 -0.11560520073E+02 -0.59794543715E+02  0.77369237395E+02  0.47000000000E+01 0. -1.
<mgrwt>
<rscale>  0 0.10014527E+04</rscale>
<asrwt>0</asrwt>
<pdfrwt beam="1">  1        1 0.78171740E-01 0.10014527E+04</pdfrwt>
<pdfrwt beam="2">  1       -1 0.75914438E-01 0.10014527E+04</pdfrwt>
<totfact> 0.89079007E+01</totfact>
</mgrwt>
</event>
<event>
 9    1  0.4296086E-036  0.1000257E+04  0.7818608E-02  0.8680793E-01
          1   -1    0    0  501    0  0.00000000000E+00  0.00000000000E+00  0.10747726132E+04  0.10747726132E+04  0.00000000000E+00 0. -1.
         -1   -1    0    0    0  501 -0.00000000000E+00 -0.00000000000E+00 -0.23272698408E+03  0.23272698408E+03  0.00000000000E+00 0. -1.
         36    2    1    2    0    0  0.00000000000E+00  0.21316282073E-13  0.84204562917E+03  0.13074995973E+04  0.10002571446E+04 0.  0.
         25    2    3    3    0    0  0.65041537912E+02 -0.25391749733E+02 -0.74356776210E+00  0.14332430461E+03  0.12516453488E+03 0.  0.
         35    2    3    3    0    0 -0.65041537912E+02  0.25391749733E+02  0.84278919693E+03  0.11641752927E+04  0.80008458246E+03 0.  0.
         22    1    5    5    0    0 -0.19123635396E+03  0.36970330975E+03  0.57615017787E+03  0.71077486434E+03  0.00000000000E+00 0.  1.
         22    1    5    5    0    0  0.12619481605E+03 -0.34431156002E+03  0.26663901906E+03  0.45340042837E+03  0.00000000000E+00 0.  1.
          5    1    4    4  502    0  0.64816339935E+02 -0.58597528630E+02  0.35060322628E+02  0.94266348751E+02  0.47000000000E+01 0. -1.
         -5    1    4    4    0  502  0.22519797715E+00  0.33205778897E+02 -0.35803890390E+02  0.49057955862E+02  0.47000000000E+01 0. -1.
<mgrwt>
<rscale>  0 0.10002571E+04</rscale>
<asrwt>0</asrwt>
<pdfrwt beam="1">  1        1 0.16534963E+00 0.10002571E+04</pdfrwt>
<pdfrwt beam="2">  1       -1 0.35804152E-01 0.10002571E+04</pdfrwt>
<totfact> 0.10983190E+02</totfact>
</mgrwt>
</event>
<event>
 9    1  0.4296086E-036  0.9945100E+03  0.7818608E-02  0.8686284E-01
         -1   -1    0    0    0  501 -0.00000000000E+00  0.00000000000E+00  0.45608020389E+03  0.45608020389E+03  0.00000000000E+00 0. -1.
          1   -1    0    0  501    0  0.00000000000E+00 -0.00000000000E+00 -0.54214709988E+03  0.54214709988E+03  0.00000000000E+00 0. -1.
         36    2    1    2    0    0  0.26645352591E-14 -0.14210854715E-13 -0.86066895992E+02  0.99822730376E+03  0.99451004992E+03 0.  0.
         25    2    3    3    0    0 -0.64916272763E+01 -0.10901649329E+03 -0.93339111471E+02  0.19100005730E+03  0.12586538494E+03 0.  0.
         35    2    3    3    0    0  0.64916272763E+01  0.10901649329E+03  0.72722154791E+01  0.80722724646E+03  0.79977259598E+03 0.  0.
         22    1    5    5    0    0  0.20580043099E+03 -0.10155118660E+03  0.31153889270E+03  0.38694048969E+03  0.00000000000E+00 0.  1.
         22    1    5    5    0    0 -0.19930880371E+03  0.21056767989E+03 -0.30426667722E+03  0.42028675677E+03  0.00000000000E+00 0.  1.
          5    1    4    4  502    0  0.59856410001E+01 -0.77752527658E+02 -0.12311715362E+03  0.14581223190E+03  0.47000000000E+01 0.  1.
         -5    1    4    4    0  502 -0.12477268276E+02 -0.31263965629E+02  0.29778042150E+02  0.45187825404E+02  0.47000000000E+01 0.  1.
<mgrwt>
<rscale>  0 0.99451005E+03</rscale>
<asrwt>0</asrwt>
<pdfrwt beam="1">  1        1 0.83407246E-01 0.99451005E+03</pdfrwt>
<pdfrwt beam="2">  1       -1 0.70166185E-01 0.99451005E+03</pdfrwt>
<totfact> 0.95349507E+01</totfact>
</mgrwt>
</event>
<event>
 9    1  0.4296086E-036  0.9997583E+03  0.7818608E-02  0.8681268E-01
          2   -1    0    0  501    0  0.00000000000E+00  0.00000000000E+00  0.71353194548E+03  0.71353194548E+03  0.00000000000E+00 0.  1.
         -2   -1    0    0    0  501 -0.00000000000E+00 -0.00000000000E+00 -0.35020040119E+03  0.35020040119E+03  0.00000000000E+00 0.  1.
         36    2    1    2    0    0  0.14210854715E-13  0.00000000000E+00  0.36333154429E+03  0.10637323467E+04  0.99975831794E+03 0.  0.
         25    2    3    3    0    0  0.13121475047E+02  0.13725743016E+03  0.87270859061E+02  0.20674838365E+03  0.12695241651E+03 0.  0.
         35    2    3    3    0    0 -0.13121475047E+02 -0.13725743016E+03  0.27606068523E+03  0.85698396302E+03  0.79949999106E+03 0.  0.
         22    1    5    5    0    0  0.22416229521E+03 -0.95095179702E+02 -0.20540836349E+03  0.31856619969E+03  0.00000000000E+00 0.  1.
         22    1    5    5    0    0 -0.23728377026E+03 -0.42162250462E+02  0.48146904872E+03  0.53841776333E+03  0.00000000000E+00 0.  1.
          5    1    4    4  502    0  0.24621341012E+02  0.15429330293E+03  0.96531198445E+02  0.18371988471E+03  0.47000000000E+01 0.  1.
         -5    1    4    4    0  502 -0.11499865965E+02 -0.17035872769E+02 -0.92603393837E+01  0.23028498946E+02  0.47000000000E+01 0.  1.
<mgrwt>
<rscale>  0 0.99975832E+03</rscale>
<asrwt>0</asrwt>
<pdfrwt beam="1">  1        2 0.10977414E+00 0.99975832E+03</pdfrwt>
<pdfrwt beam="2">  1       -2 0.53876985E-01 0.99975832E+03</pdfrwt>
<totfact> 0.15704917E+02</totfact>
</mgrwt>
</event>
<event>
 9    1  0.4296086E-036  0.9996227E+03  0.7818608E-02  0.8681397E-01
          2   -1    0    0  501    0  0.00000000000E+00  0.00000000000E+00  0.14303834795E+04  0.14303834795E+04  0.00000000000E+00 0.  1.
         -2   -1    0    0    0  501 -0.00000000000E+00 -0.00000000000E+00 -0.17464643926E+03  0.17464643926E+03  0.00000000000E+00 0.  1.
         36    2    1    2    0    0  0.00000000000E+00 -0.14210854715E-13  0.12557370402E+04  0.16050299187E+04  0.99962269176E+03 0.  0.
         25    2    3    3    0    0  0.79345830871E+02 -0.34919378283E+02  0.41347185789E+03  0.44082259699E+03  0.12589861354E+03 0.  0.
         35    2    3    3    0    0 -0.79345830871E+02  0.34919378283E+02  0.84226518231E+03  0.11642073217E+04  0.79903249421E+03 0.  0.
         22    1    5    5    0    0 -0.79924908717E+02  0.16077333661E+03 -0.10541761470E+03  0.20820405925E+03  0.00000000000E+00 0.  1.
         22    1    5    5    0    0  0.57907784513E+00 -0.12585395833E+03  0.94768279701E+03  0.95600326249E+03  0.00000000000E+00 0.  1.
          5    1    4    4  502    0 -0.12344975646E+02 -0.14497380333E+02  0.31563692740E+01  0.19865173727E+02  0.47000000000E+01 0.  1.
         -5    1    4    4    0  502  0.91690806517E+02 -0.20421997950E+02  0.41031548862E+03  0.42095742326E+03  0.47000000000E+01 0.  1.
<mgrwt>
<rscale>  0 0.99962269E+03</rscale>
<asrwt>0</asrwt>
<pdfrwt beam="1">  1        2 0.22005899E+00 0.99962269E+03</pdfrwt>
<pdfrwt beam="2">  1       -2 0.26868684E-01 0.99962269E+03</pdfrwt>
<totfact> 0.20933653E+02</totfact>
</mgrwt>
</event>
<event>
 9    1  0.4296086E-036  0.9992315E+03  0.7818608E-02  0.8681770E-01
          2   -1    0    0  501    0  0.00000000000E+00  0.00000000000E+00  0.21187184036E+04  0.21187184036E+04  0.00000000000E+00 0.  1.
         -2   -1    0    0    0  501 -0.00000000000E+00 -0.00000000000E+00 -0.11781456484E+03  0.11781456484E+03  0.00000000000E+00 0.  1.
         36    2    1    2    0    0 -0.42632564146E-13  0.00000000000E+00  0.20009038387E+04  0.22365329684E+04  0.99923147817E+03 0.  0.
         25    2    3    3    0    0 -0.81447632967E+02 -0.82102248771E+02  0.55418747768E+03  0.57955779589E+03  0.12405233650E+03 0.  0.
         35    2    3    3    0    0  0.81447632967E+02  0.82102248771E+02  0.14467163610E+04  0.16569751725E+04  0.79950234325E+03 0.  0.
         22    1    5    5    0    0  0.27324806001E+03  0.27478499706E+03  0.12815655610E+04  0.13388732516E+04  0.00000000000E+00 0.  1.
         22    1    5    5    0    0 -0.19180042704E+03 -0.19268274829E+03  0.16515080008E+03  0.31810192088E+03  0.00000000000E+00 0.  1.
          5    1    4    4  502    0 -0.22989184849E+02 -0.51560904071E+02  0.46549614699E+03  0.46893046639E+03  0.47000000000E+01 0.  1.
         -5    1    4    4    0  502 -0.58458448118E+02 -0.30541344700E+02  0.88691330694E+02  0.11062732950E+03  0.47000000000E+01 0.  1.
<mgrwt>
<rscale>  0 0.99923148E+03</rscale>
<asrwt>0</asrwt>
<pdfrwt beam="1">  1        2 0.32595665E+00 0.99923148E+03</pdfrwt>
<pdfrwt beam="2">  1       -2 0.18125319E-01 0.99923148E+03</pdfrwt>
<totfact> 0.16979934E+02</totfact>
</mgrwt>
</event>
<event>
 9    1  0.4296086E-036  0.1000855E+04  0.7818608E-02  0.8680224E-01
          2   -1    0    0  501    0  0.00000000000E+00  0.00000000000E+00  0.31989132633E+03  0.31989132633E+03  0.00000000000E+00 0.  1.
         -2   -1    0    0    0  501 -0.00000000000E+00 -0.00000000000E+00 -0.78285187446E+03  0.78285187446E+03  0.00000000000E+00 0.  1.
         36    2    1    2    0    0 -0.28421709430E-13 -0.71054273576E-14 -0.46296054814E+03  0.11027432008E+04  0.10008546836E+04 0.  0.
         25    2    3    3    0    0 -0.67123584331E+02  0.20927054903E+01 -0.22440553342E+03  0.26562609318E+03  0.12525742675E+03 0.  0.
         35    2    3    3    0    0  0.67123584331E+02 -0.20927054903E+01 -0.23855501472E+03  0.83711710761E+03  0.79959152185E+03 0.  0.
         22    1    5    5    0    0 -0.20148772205E+03  0.19195370892E+03 -0.38482202343E+03  0.47490158793E+03  0.00000000000E+00 0.  1.
         22    1    5    5    0    0  0.26861130638E+03 -0.19404641441E+03  0.14626700871E+03  0.36221551968E+03  0.00000000000E+00 0.  1.
          5    1    4    4  502    0 -0.37875210431E+02 -0.45088821060E+02 -0.19264397442E+03  0.20149770279E+03  0.47000000000E+01 0. -1.
         -5    1    4    4    0  502 -0.29248373900E+02  0.47181526550E+02 -0.31761559005E+02  0.64128390389E+02  0.47000000000E+01 0. -1.
<mgrwt>
<rscale>  0 0.10008547E+04</rscale>
<asrwt>0</asrwt>
<pdfrwt beam="1">  1        2 0.49214051E-01 0.10008547E+04</pdfrwt>
<pdfrwt beam="2">  1       -2 0.12043875E+00 0.10008547E+04</pdfrwt>
<totfact> 0.62672274E+01</totfact>
</mgrwt>
</event>
<event>
 9    1  0.4296086E-036  0.9977886E+03  0.7818608E-02  0.8683147E-01
         -2   -1    0    0    0  501 -0.00000000000E+00  0.00000000000E+00  0.25451558091E+03  0.25451558091E+03  0.00000000000E+00 0. -1.
          2   -1    0    0  501    0  0.00000000000E+00 -0.00000000000E+00 -0.97791853029E+03  0.97791853029E+03  0.00000000000E+00 0. -1.
         36    2    1    2    0    0 -0.15987211555E-13  0.00000000000E+00 -0.72340294937E+03  0.12324341112E+04  0.99778856041E+03 0.  0.
         25    2    3    3    0    0 -0.38934918582E+01  0.67928652815E+02 -0.28515638988E+03  0.31820596381E+03  0.12373927253E+03 0.  0.
         35    2    3    3    0    0  0.38934918582E+01 -0.67928652815E+02 -0.43824655950E+03  0.91422814738E+03  0.79945206073E+03 0.  0.
         22    1    5    5    0    0 -0.29817458445E+03 -0.10741960096E+03  0.67289380191E+02  0.32399832433E+03  0.00000000000E+00 0.  1.
         22    1    5    5    0    0  0.30206807631E+03  0.39490948143E+02 -0.50553593969E+03  0.59022982306E+03  0.00000000000E+00 0.  1.
          5    1    4    4  502    0 -0.10407812379E+02 -0.69962351876E+01  0.79457927520E+01  0.15572266623E+02  0.47000000000E+01 0.  1.
         -5    1    4    4    0  502  0.65143205208E+01  0.74924888003E+02 -0.29310218263E+03  0.30263369719E+03  0.47000000000E+01 0.  1.
<mgrwt>
<rscale>  0 0.99778856E+03</rscale>
<asrwt>0</asrwt>
<pdfrwt beam="1">  1        2 0.15044900E+00 0.99778856E+03</pdfrwt>
<pdfrwt beam="2">  1       -2 0.39156243E-01 0.99778856E+03</pdfrwt>
<totfact> 0.19401510E+02</totfact>
</mgrwt>
</event>
<event>
 9    1  0.4296086E-036  0.9997482E+03  0.7818608E-02  0.8681278E-01
         -2   -1    0    0    0  501 -0.00000000000E+00  0.00000000000E+00  0.49797143148E+03  0.49797143148E+03  0.00000000000E+00 0.  1.
          2   -1    0    0  501    0  0.00000000000E+00 -0.00000000000E+00 -0.50178400715E+03  0.50178400715E+03  0.00000000000E+00 0.  1.
         36    2    1    2    0    0 -0.14210854715E-13  0.14210854715E-13 -0.38125756690E+01  0.99975543863E+03  0.99974816896E+03 0.  0.
         25    2    3    3    0    0  0.78246365645E+02  0.85466173574E+02  0.80750636212E+02  0.18825529215E+03  0.12446858725E+03 0.  0.
         35    2    3    3    0    0 -0.78246365645E+02 -0.85466173574E+02 -0.84563211881E+02  0.81150014648E+03  0.79872059593E+03 0.  0.
         22    1    5    5    0    0 -0.27249348727E+03  0.13633981075E+03 -0.31427968922E+03  0.43773618500E+03  0.00000000000E+00 0.  1.
         22    1    5    5    0    0  0.19424712163E+03 -0.22180598432E+03  0.22971647734E+03  0.37376396148E+03  0.00000000000E+00 0.  1.
          5    1    4    4  502    0  0.94447120766E+02  0.45687939052E+02  0.10188666877E+02  0.10551561651E+03  0.47000000000E+01 0. -1.
         -5    1    4    4    0  502 -0.16200755121E+02  0.39778234522E+02  0.70561969335E+02  0.82739675638E+02  0.47000000000E+01 0. -1.
<mgrwt>
<rscale>  0 0.99974817E+03</rscale>
<asrwt>0</asrwt>
<pdfrwt beam="1">  1        2 0.77197539E-01 0.99974817E+03</pdfrwt>
<pdfrwt beam="2">  1       -2 0.76610990E-01 0.99974817E+03</pdfrwt>
<totfact> 0.11275773E+02</totfact>
</mgrwt>
</event>
<event>
 9    1  0.4296086E-036  0.9999346E+03  0.7818608E-02  0.8681100E-01
         -2   -1    0    0    0  501 -0.00000000000E+00  0.00000000000E+00  0.37690878994E+03  0.37690878994E+03  0.00000000000E+00 0.  1.
          2   -1    0    0  501    0  0.00000000000E+00 -0.00000000000E+00 -0.66320368002E+03  0.66320368002E+03  0.00000000000E+00 0.  1.
         36    2    1    2    0    0  0.00000000000E+00  0.28421709430E-13 -0.28629489008E+03  0.10401124700E+04  0.99993459089E+03 0.  0.
         25    2    3    3    0    0 -0.10543689072E+03  0.89093265876E+02 -0.37291771338E+02  0.19116563362E+03  0.12688213159E+03 0.  0.
         35    2    3    3    0    0  0.10543689072E+03 -0.89093265876E+02 -0.24900311874E+03  0.84894683634E+03  0.79978348935E+03 0.  0.
         22    1    5    5    0    0 -0.14935041740E+03  0.22292779486E+03  0.12792750327E+03  0.29726721143E+03  0.00000000000E+00 0.  1.
         22    1    5    5    0    0  0.25478730812E+03 -0.31202106074E+03 -0.37693062201E+03  0.55167962490E+03  0.00000000000E+00 0.  1.
          5    1    4    4  502    0 -0.51141360536E+02  0.81412655678E+01 -0.70925727849E+02  0.87944686215E+02  0.47000000000E+01 0.  1.
         -5    1    4    4    0  502 -0.54295530182E+02  0.80952000309E+02  0.33633956511E+02  0.10322094740E+03  0.47000000000E+01 0.  1.
<mgrwt>
<rscale>  0 0.99993459E+03</rscale>
<asrwt>0</asrwt>
<pdfrwt beam="1">  1        2 0.10203134E+00 0.99993459E+03</pdfrwt>
<pdfrwt beam="2">  1       -2 0.57985968E-01 0.99993459E+03</pdfrwt>
<totfact> 0.14768832E+02</totfact>
</mgrwt>
</event>
<event>
 9    1  0.4296086E-036  0.1002711E+04  0.7818608E-02  0.8678461E-01
         -2   -1    0    0    0  501 -0.00000000000E+00  0.00000000000E+00  0.21284254671E+03  0.21284254671E+03  0.00000000000E+00 0.  1.
          2   -1    0    0  501    0  0.00000000000E+00 -0.00000000000E+00 -0.11809534193E+04  0.11809534193E+04  0.00000000000E+00 0.  1.
         36    2    1    2    0    0  0.00000000000E+00  0.35527136788E-14 -0.96811087258E+03  0.13937959660E+04  0.10027105929E+04 0.  0.
         25    2    3    3    0    0 -0.13826313009E+03 -0.10555462553E+01 -0.13252335103E+03  0.22871193688E+03  0.12501561576E+03 0.  0.
         35    2    3    3    0    0  0.13826313009E+03  0.10555462553E+01 -0.83558752155E+03  0.11650840291E+04  0.80006029861E+03 0.  0.
         22    1    5    5    0    0  0.45445594826E+03 -0.11016061507E+03 -0.57108409705E+03  0.73810745554E+03  0.00000000000E+00 0.  1.
         22    1    5    5    0    0 -0.31619281818E+03  0.11121616132E+03 -0.26450342450E+03  0.42697657357E+03  0.00000000000E+00 0.  1.
          5    1    4    4  502    0  0.10286825165E+02  0.31135671790E+02 -0.14246272938E+02  0.36059605134E+02  0.47000000000E+01 0.  1.
         -5    1    4    4    0  502 -0.14854995525E+03 -0.32191218045E+02 -0.11827707809E+03  0.19265233174E+03  0.47000000000E+01 0.  1.
<mgrwt>
<rscale>  0 0.10027106E+04</rscale>
<asrwt>0</asrwt>
<pdfrwt beam="1">  1        2 0.18168514E+00 0.10027106E+04</pdfrwt>
<pdfrwt beam="2">  1       -2 0.32745007E-01 0.10027106E+04</pdfrwt>
<totfact> 0.20381005E+02</totfact>
</mgrwt>
</event>
<event>
 9    1  0.4296086E-036  0.9984431E+03  0.7818608E-02  0.8682522E-01
          1   -1    0    0  501    0  0.00000000000E+00  0.00000000000E+00  0.85568654918E+03  0.85568654918E+03  0.00000000000E+00 0.  1.
         -1   -1    0    0    0  501 -0.00000000000E+00 -0.00000000000E+00 -0.29125404975E+03  0.29125404975E+03  0.00000000000E+00 0.  1.
         36    2    1    2    0    0  0.00000000000E+00  0.35527136788E-14  0.56443249943E+03  0.11469405989E+04  0.99844313362E+03 0.  0.
         25    2    3    3    0    0 -0.91945181078E+02  0.24583324232E+02 -0.98586672871E+01  0.15729528287E+03  0.12484533047E+03 0.  0.
         35    2    3    3    0    0  0.91945181078E+02 -0.24583324232E+02  0.57429116672E+03  0.98964531606E+03  0.80033071369E+03 0.  0.
         22    1    5    5    0    0 -0.11049613500E+03 -0.15500613100E+03 -0.13971089633E+03  0.23612587967E+03  0.00000000000E+00 0. -1.
         22    1    5    5    0    0  0.20244131607E+03  0.13042280677E+03  0.71400206305E+03  0.75351943639E+03  0.00000000000E+00 0. -1.
          5    1    4    4  502    0 -0.11246949053E+03  0.12907468812E+02 -0.38694014798E+02  0.11973013753E+03  0.47000000000E+01 0. -1.
         -5    1    4    4    0  502  0.20524309457E+02  0.11675855421E+02  0.28835347511E+02  0.37565145342E+02  0.47000000000E+01 0. -1.
<mgrwt>
<rscale>  0 0.99844313E+03</rscale>
<asrwt>0</asrwt>
<pdfrwt beam="1">  1        1 0.13164408E+00 0.99844313E+03</pdfrwt>
<pdfrwt beam="2">  1       -1 0.44808316E-01 0.99844313E+03</pdfrwt>
<totfact> 0.11078087E+02</totfact>
</mgrwt>
</event>
<event>
 9    1  0.4296086E-036  0.1000433E+04  0.7818608E-02  0.8680626E-01
         -2   -1    0    0    0  501 -0.00000000000E+00  0.00000000000E+00  0.28140103380E+03  0.28140103380E+03  0.00000000000E+00 0.  1.
          2   -1    0    0  501    0  0.00000000000E+00 -0.00000000000E+00 -0.88918072108E+03  0.88918072108E+03  0.00000000000E+00 0.  1.
         36    2    1    2    0    0  0.56843418861E-13  0.14210854715E-13 -0.60777968728E+03  0.11705817549E+04  0.10004326547E+04 0.  0.
         25    2    3    3    0    0 -0.70780596485E+02 -0.10050728614E+03 -0.19479150209E+03  0.26180734539E+03  0.12444978670E+03 0.  0.
         35    2    3    3    0    0  0.70780596485E+02  0.10050728614E+03 -0.41298818519E+03  0.90877440949E+03  0.80012503950E+03 0.  0.
         22    1    5    5    0    0 -0.34037665365E+03  0.15382893451E+03 -0.92663457208E+02  0.38484558428E+03  0.00000000000E+00 0.  1.
         22    1    5    5    0    0  0.41115725013E+03 -0.53321648369E+02 -0.32032472798E+03  0.52392882520E+03  0.00000000000E+00 0.  1.
          5    1    4    4  502    0 -0.45558723992E+02 -0.24259751099E+02 -0.84253699748E+00  0.51835631796E+02  0.47000000000E+01 0.  1.
         -5    1    4    4    0  502 -0.25221872494E+02 -0.76247535043E+02 -0.19394896509E+03  0.20997171360E+03  0.47000000000E+01 0.  1.
<mgrwt>
<rscale>  0 0.10004327E+04</rscale>
<asrwt>0</asrwt>
<pdfrwt beam="1">  1        2 0.13679704E+00 0.10004327E+04</pdfrwt>
<pdfrwt beam="2">  1       -2 0.43292466E-01 0.10004327E+04</pdfrwt>
<totfact> 0.18254126E+02</totfact>
</mgrwt>
</event>
<event>
 9    1  0.4296086E-036  0.9989339E+03  0.7818608E-02  0.8682054E-01
          2   -1    0    0  501    0  0.00000000000E+00  0.00000000000E+00  0.23942819261E+04  0.23942819261E+04  0.00000000000E+00 0. -1.
         -2   -1    0    0    0  501 -0.00000000000E+00 -0.00000000000E+00 -0.10419292740E+03  0.10419292740E+03  0.00000000000E+00 0. -1.
         36    2    1    2    0    0  0.71054273576E-14  0.00000000000E+00  0.22900889987E+04  0.24984748535E+04  0.99893391753E+03 0.  0.
         25    2    3    3    0    0  0.12179138307E+02 -0.11947030966E+03  0.25393631219E+03  0.30755111405E+03  0.12522999164E+03 0.  0.
         35    2    3    3    0    0 -0.12179138307E+02  0.11947030966E+03  0.20361526865E+04  0.21909237394E+04  0.79987973031E+03 0.  0.
         22    1    5    5    0    0  0.79270867727E+02 -0.64617370438E+01 -0.53261966392E+02  0.95720747906E+02  0.00000000000E+00 0.  1.
         22    1    5    5    0    0 -0.91450006033E+02  0.12593204671E+03  0.20894146529E+04  0.20952029915E+04  0.00000000000E+00 0.  1.
          5    1    4    4  502    0 -0.55794738205E+02 -0.50150768464E+02  0.93513707841E+02  0.11997939799E+03  0.47000000000E+01 0.  1.
         -5    1    4    4    0  502  0.67973876512E+02 -0.69319541199E+02  0.16042260434E+03  0.18757171606E+03  0.47000000000E+01 0.  1.
<mgrwt>
<rscale>  0 0.99893392E+03</rscale>
<asrwt>0</asrwt>
<pdfrwt beam="1">  1        2 0.36835103E+00 0.99893392E+03</pdfrwt>
<pdfrwt beam="2">  1       -2 0.16029683E-01 0.99893392E+03</pdfrwt>
<totfact> 0.14423408E+02</totfact>
</mgrwt>
</event>
<event>
 9    1  0.4296086E-036  0.9999070E+03  0.7818608E-02  0.8681127E-01
         -2   -1    0    0    0  501 -0.00000000000E+00  0.00000000000E+00  0.34576347518E+03  0.34576347518E+03  0.00000000000E+00 0. -1.
          2   -1    0    0  501    0  0.00000000000E+00 -0.00000000000E+00 -0.72290314731E+03  0.72290314731E+03  0.00000000000E+00 0. -1.
         36    2    1    2    0    0 -0.71054273576E-14  0.28421709430E-13 -0.37713967213E+03  0.10686666225E+04  0.99990700454E+03 0.  0.
         25    2    3    3    0    0  0.43929333661E+02 -0.10451597357E+03 -0.15809771987E+03  0.23137028865E+03  0.12523556345E+03 0.  0.
         35    2    3    3    0    0 -0.43929333661E+02  0.10451597357E+03 -0.21904195225E+03  0.83729633384E+03  0.80014523603E+03 0.  0.
         22    1    5    5    0    0  0.18208959741E+03  0.15428002338E+03  0.23042548143E+03  0.33174515760E+03  0.00000000000E+00 0. -1.
         22    1    5    5    0    0 -0.22601893107E+03 -0.49764049812E+02 -0.44946743369E+03  0.50555117624E+03  0.00000000000E+00 0. -1.
          5    1    4    4  502    0 -0.38986826898E+02 -0.69243669015E+01 -0.48186699499E+02  0.62545723572E+02  0.47000000000E+01 0. -1.
         -5    1    4    4    0  502  0.82916160559E+02 -0.97591606665E+02 -0.10991102037E+03  0.16882456507E+03  0.47000000000E+01 0. -1.
<mgrwt>
<rscale>  0 0.99990700E+03</rscale>
<asrwt>0</asrwt>
<pdfrwt beam="1">  1        2 0.11121587E+00 0.99990700E+03</pdfrwt>
<pdfrwt beam="2">  1       -2 0.53194381E-01 0.99990700E+03</pdfrwt>
<totfact> 0.15858690E+02</totfact>
</mgrwt>
</event>
<event>
 9    1  0.4296086E-036  0.9997835E+03  0.7818608E-02  0.8681244E-01
         -1   -1    0    0    0  501 -0.00000000000E+00  0.00000000000E+00  0.35536241997E+03  0.35536241997E+03  0.00000000000E+00 0.  1.
          1   -1    0    0  501    0  0.00000000000E+00 -0.00000000000E+00 -0.70320258433E+03  0.70320258433E+03  0.00000000000E+00 0.  1.
         36    2    1    2    0    0  0.00000000000E+00  0.71054273576E-14 -0.34784016435E+03  0.10585650043E+04  0.99978352077E+03 0.  0.
         25    2    3    3    0    0  0.14061359737E+02 -0.39711155146E+02  0.77226550875E+02  0.15152096815E+03  0.12336922610E+03 0.  0.
         35    2    3    3    0    0 -0.14061359737E+02  0.39711155146E+02 -0.42506671523E+03  0.90704403615E+03  0.80017027778E+03 0.  0.
         22    1    5    5    0    0 -0.11866960762E+02 -0.17309315983E+03  0.18934794110E+03  0.25681649000E+03  0.00000000000E+00 0.  1.
         22    1    5    5    0    0 -0.21943989747E+01  0.21280431498E+03 -0.61441465633E+03  0.65022754615E+03  0.00000000000E+00 0.  1.
          5    1    4    4  502    0 -0.42658971074E+02  0.77197030579E+01  0.62139158234E+02  0.75912756598E+02  0.47000000000E+01 0. -1.
         -5    1    4    4    0  502  0.56720330811E+02 -0.47430858204E+02  0.15087392641E+02  0.75608211551E+02  0.47000000000E+01 0. -1.
<mgrwt>
<rscale>  0 0.99978352E+03</rscale>
<asrwt>0</asrwt>
<pdfrwt beam="1">  1        1 0.10818501E+00 0.99978352E+03</pdfrwt>
<pdfrwt beam="2">  1       -1 0.54671142E-01 0.99978352E+03</pdfrwt>
<totfact> 0.10515521E+02</totfact>
</mgrwt>
</event>
<event>
 9    1  0.4296086E-036  0.1002575E+04  0.7818608E-02  0.8678590E-01
          1   -1    0    0  501    0  0.00000000000E+00  0.00000000000E+00  0.29271509328E+04  0.29271509328E+04  0.00000000000E+00 0. -1.
         -1   -1    0    0    0  501 -0.00000000000E+00 -0.00000000000E+00 -0.85847634306E+02  0.85847634306E+02  0.00000000000E+00 0. -1.
         36    2    1    2    0    0  0.14210854715E-13  0.00000000000E+00  0.28413032985E+04  0.30129985671E+04  0.10025746513E+04 0.  0.
         25    2    3    3    0    0  0.12334220833E+03 -0.68700069090E+02  0.49065334525E+03  0.52565979940E+03  0.12507805422E+03 0.  0.
         35    2    3    3    0    0 -0.12334220833E+03  0.68700069090E+02  0.23506499533E+04  0.24873387677E+04  0.80085325922E+03 0.  0.
         22    1    5    5    0    0 -0.43517845694E+03 -0.60243624111E+02  0.16811552474E+04  0.17376111618E+04  0.00000000000E+00 0.  1.
         22    1    5    5    0    0  0.31183624861E+03  0.12894369320E+03  0.66949470585E+03  0.74972760595E+03  0.00000000000E+00 0.  1.
          5    1    4    4  502    0  0.41992513441E+02  0.28839274783E+02  0.23063697394E+03  0.23624262677E+03  0.47000000000E+01 0.  1.
         -5    1    4    4    0  502  0.81349694891E+02 -0.97539343873E+02  0.26001637131E+03  0.28941717263E+03  0.47000000000E+01 0.  1.
<mgrwt>
<rscale>  0 0.10025747E+04</rscale>
<asrwt>0</asrwt>
<pdfrwt beam="1">  1        1 0.45033084E+00 0.10025747E+04</pdfrwt>
<pdfrwt beam="2">  1       -1 0.13207331E-01 0.10025747E+04</pdfrwt>
<totfact> 0.27742684E+01</totfact>
</mgrwt>
</event>
<event>
 9    1  0.4296086E-036  0.9965554E+03  0.7818608E-02  0.8684325E-01
          2   -1    0    0  501    0  0.00000000000E+00  0.00000000000E+00  0.43421336835E+03  0.43421336835E+03  0.00000000000E+00 0.  1.
         -2   -1    0    0    0  501 -0.00000000000E+00 -0.00000000000E+00 -0.57179420026E+03  0.57179420026E+03  0.00000000000E+00 0.  1.
         36    2    1    2    0    0 -0.14210854715E-13  0.14210854715E-13 -0.13758083191E+03  0.10060075686E+04  0.99655543889E+03 0.  0.
         25    2    3    3    0    0  0.64713258574E+02 -0.96746188252E+02  0.46292387919E+02  0.17720070486E+03  0.12533743993E+03 0.  0.
         35    2    3    3    0    0 -0.64713258574E+02  0.96746188252E+02 -0.18387321983E+03  0.82880686375E+03  0.79972734456E+03 0.  0.
         22    1    5    5    0    0  0.34208624315E+03 -0.10159245432E-01 -0.22374851351E+03  0.40876202753E+03  0.00000000000E+00 0.  1.
         22    1    5    5    0    0 -0.40679950172E+03  0.96756347498E+02  0.39875293676E+02  0.42004483621E+03  0.00000000000E+00 0.  1.
          5    1    4    4  502    0  0.14227908897E+02  0.21223950005E+02  0.41184361823E+02  0.48694261512E+02  0.47000000000E+01 0.  1.
         -5    1    4    4    0  502  0.50485349677E+02 -0.11797013826E+03  0.51080260954E+01  0.12850644335E+03  0.47000000000E+01 0.  1.
<mgrwt>
<rscale>  0 0.99655544E+03</rscale>
<asrwt>0</asrwt>
<pdfrwt beam="1">  1        2 0.66802056E-01 0.99655544E+03</pdfrwt>
<pdfrwt beam="2">  1       -2 0.87968339E-01 0.99655544E+03</pdfrwt>
<totfact> 0.96576391E+01</totfact>
</mgrwt>
</event>
<event>
 9    1  0.4296086E-036  0.1000347E+04  0.7818608E-02  0.8680707E-01
         -1   -1    0    0    0  501 -0.00000000000E+00  0.00000000000E+00  0.46894912484E+03  0.46894912484E+03  0.00000000000E+00 0. -1.
          1   -1    0    0  501    0  0.00000000000E+00 -0.00000000000E+00 -0.53347704793E+03  0.53347704793E+03  0.00000000000E+00 0. -1.
         36    2    1    2    0    0  0.14210854715E-13  0.35527136788E-14 -0.64527923099E+02  0.10024261728E+04  0.10003471292E+04 0.  0.
         25    2    3    3    0    0 -0.17877394760E+02 -0.31671943820E+02  0.12411646009E+03  0.17941093394E+03  0.12434095979E+03 0.  0.
         35    2    3    3    0    0  0.17877394760E+02  0.31671943820E+02 -0.18864438319E+03  0.82301523883E+03  0.80027786848E+03 0.  0.
         22    1    5    5    0    0  0.27578164381E+03  0.19967843053E+03 -0.33898991617E+03  0.48045931560E+03  0.00000000000E+00 0.  1.
         22    1    5    5    0    0 -0.25790424905E+03 -0.16800648671E+03  0.15034553298E+03  0.34255592323E+03  0.00000000000E+00 0.  1.
          5    1    4    4  502    0  0.45232727206E+02  0.43239076444E+00  0.12531910665E+02  0.47173354313E+02  0.47000000000E+01 0.  1.
         -5    1    4    4    0  502 -0.63110121966E+02 -0.32104334584E+02  0.11158454943E+03  0.13223757962E+03  0.47000000000E+01 0.  1.
<mgrwt>
<rscale>  0 0.10003471E+04</rscale>
<asrwt>0</asrwt>
<pdfrwt beam="1">  1        1 0.82073392E-01 0.10003471E+04</pdfrwt>
<pdfrwt beam="2">  1       -1 0.72146019E-01 0.10003471E+04</pdfrwt>
<totfact> 0.92228892E+01</totfact>
</mgrwt>
</event>
<event>
 9    1  0.4296086E-036  0.9992172E+03  0.7818608E-02  0.8681784E-01
         -2   -1    0    0    0  501 -0.00000000000E+00  0.00000000000E+00  0.31105166363E+03  0.31105166363E+03  0.00000000000E+00 0. -1.
          2   -1    0    0  501    0  0.00000000000E+00 -0.00000000000E+00 -0.80246713924E+03  0.80246713924E+03  0.00000000000E+00 0. -1.
         36    2    1    2    0    0 -0.71054273576E-14  0.00000000000E+00 -0.49141547561E+03  0.11135188029E+04  0.99921717093E+03 0.  0.
         25    2    3    3    0    0 -0.28747216142E+02 -0.11903977822E+03 -0.17178813672E+03  0.24490731372E+03  0.12438471433E+03 0.  0.
         35    2    3    3    0    0  0.28747216142E+02  0.11903977822E+03 -0.31962733888E+03  0.86861148915E+03  0.79832788508E+03 0.  0.
         22    1    5    5    0    0 -0.21691297225E+03  0.28403282554E+03  0.84963050345E+02  0.36734806851E+03  0.00000000000E+00 0. -1.
         22    1    5    5    0    0  0.24566018839E+03 -0.16499304732E+03 -0.40459038923E+03  0.50126342065E+03  0.00000000000E+00 0. -1.
          5    1    4    4  502    0 -0.69034693015E+01 -0.65722274984E+02 -0.28060589905E+01  0.66310174819E+02  0.47000000000E+01 0. -1.
         -5    1    4    4    0  502 -0.21843746841E+02 -0.53317503237E+02 -0.16898207773E+03  0.17859713890E+03  0.47000000000E+01 0. -1.
<mgrwt>
<rscale>  0 0.99921717E+03</rscale>
<asrwt>0</asrwt>
<pdfrwt beam="1">  1        2 0.12345648E+00 0.99921717E+03</pdfrwt>
<pdfrwt beam="2">  1       -2 0.47854102E-01 0.99921717E+03</pdfrwt>
<totfact> 0.17177914E+02</totfact>
</mgrwt>
</event>
<event>
 9    1  0.4296086E-036  0.1000218E+04  0.7818608E-02  0.8680830E-01
         -2   -1    0    0    0  501 -0.00000000000E+00  0.00000000000E+00  0.30062443716E+03  0.30062443716E+03  0.00000000000E+00 0. -1.
          2   -1    0    0  501    0  0.00000000000E+00 -0.00000000000E+00 -0.83196520927E+03  0.83196520927E+03  0.00000000000E+00 0. -1.
         36    2    1    2    0    0 -0.14210854715E-13  0.00000000000E+00 -0.53134077211E+03  0.11325896464E+04  0.10002181218E+04 0.  0.
         25    2    3    3    0    0 -0.39071619250E+02  0.76300601856E+02 -0.21410115759E+03  0.26176868519E+03  0.12383523566E+03 0.  0.
         35    2    3    3    0    0  0.39071619250E+02 -0.76300601856E+02 -0.31723961452E+03  0.87082096123E+03  0.80643648245E+03 0.  0.
         22    1    5    5    0    0 -0.30247799175E+03 -0.11570586336E+03 -0.40248114545E+03  0.51659641380E+03  0.00000000000E+00 0.  1.
         22    1    5    5    0    0  0.34154961100E+03  0.39405261509E+02  0.85241530928E+02  0.35422454743E+03  0.00000000000E+00 0.  1.
          5    1    4    4  502    0  0.99656799604E+01  0.75981092312E+02 -0.19385970366E+03  0.20850927046E+03  0.47000000000E+01 0.  1.
         -5    1    4    4    0  502 -0.49037299211E+02  0.31950954346E+00 -0.20241453937E+02  0.53259414733E+02  0.47000000000E+01 0.  1.
<mgrwt>
<rscale>  0 0.10002181E+04</rscale>
<asrwt>0</asrwt>
<pdfrwt beam="1">  1        2 0.12799465E+00 0.10002181E+04</pdfrwt>
<pdfrwt beam="2">  1       -2 0.46249913E-01 0.10002181E+04</pdfrwt>
<totfact> 0.17530011E+02</totfact>
</mgrwt>
</event>
<event>
 9    1  0.4296086E-036  0.9955502E+03  0.7818608E-02  0.8685287E-01
          1   -1    0    0  501    0  0.00000000000E+00  0.00000000000E+00  0.14092161315E+04  0.14092161315E+04  0.00000000000E+00 0. -1.
         -1   -1    0    0    0  501 -0.00000000000E+00 -0.00000000000E+00 -0.17582829174E+03  0.17582829174E+03  0.00000000000E+00 0. -1.
         36    2    1    2    0    0  0.14210854715E-13  0.71054273576E-14  0.12333878397E+04  0.15850444232E+04  0.99555022994E+03 0.  0.
         25    2    3    3    0    0  0.11133077411E+03 -0.22844636303E+02  0.10918854229E+03  0.20082971918E+03  0.12447497607E+03 0.  0.
         35    2    3    3    0    0 -0.11133077411E+03  0.22844636303E+02  0.11241992975E+04  0.13842147040E+04  0.79956855103E+03 0.  0.
         22    1    5    5    0    0  0.27372637198E+03  0.23192503029E+03  0.61919835196E+03  0.71562695971E+03  0.00000000000E+00 0.  1.
         22    1    5    5    0    0 -0.38505714609E+03 -0.20908039399E+03  0.50500094549E+03  0.66858774432E+03  0.00000000000E+00 0.  1.
          5    1    4    4  502    0  0.11851593476E+03 -0.19124097592E+02  0.33720097293E+02  0.12478338375E+03  0.47000000000E+01 0. -1.
         -5    1    4    4    0  502 -0.71851606445E+01 -0.37205387113E+01  0.75468444997E+02  0.76046335428E+02  0.47000000000E+01 0. -1.
<mgrwt>
<rscale>  0 0.99555023E+03</rscale>
<asrwt>0</asrwt>
<pdfrwt beam="1">  1        1 0.21680247E+00 0.99555023E+03</pdfrwt>
<pdfrwt beam="2">  1       -1 0.27050507E-01 0.99555023E+03</pdfrwt>
<totfact> 0.10052294E+02</totfact>
</mgrwt>
</event>
<event>
 9    1  0.4296086E-036  0.1000286E+04  0.7818608E-02  0.8680766E-01
         -2   -1    0    0    0  501 -0.00000000000E+00  0.00000000000E+00  0.18353394288E+03  0.18353394288E+03  0.00000000000E+00 0. -1.
          2   -1    0    0  501    0  0.00000000000E+00 -0.00000000000E+00 -0.13629245968E+04  0.13629245968E+04  0.00000000000E+00 0. -1.
         36    2    1    2    0    0  0.14210854715E-13 -0.21316282073E-13 -0.11793906539E+04  0.15464585396E+04  0.10002858093E+04 0.  0.
         25    2    3    3    0    0 -0.45861705090E+02 -0.27767200985E+02 -0.20370759948E+02  0.13737617696E+03  0.12483161736E+03 0.  0.
         35    2    3    3    0    0  0.45861705090E+02  0.27767200985E+02 -0.11590198939E+04  0.14090823627E+04  0.79956968228E+03 0.  0.
         22    1    5    5    0    0 -0.18321899590E+03 -0.30876277222E+03 -0.75251833701E+03  0.83377904597E+03  0.00000000000E+00 0. -1.
         22    1    5    5    0    0  0.22908070099E+03  0.33652997320E+03 -0.40650155693E+03  0.57530331671E+03  0.00000000000E+00 0. -1.
          5    1    4    4  502    0  0.33009684133E+02 -0.81288273886E+01 -0.40921088640E+02  0.53407326995E+02  0.47000000000E+01 0. -1.
         -5    1    4    4    0  502 -0.78871389223E+02 -0.19638373596E+02  0.20550328693E+02  0.83968849967E+02  0.47000000000E+01 0. -1.
<mgrwt>
<rscale>  0 0.10002858E+04</rscale>
<asrwt>0</asrwt>
<pdfrwt beam="1">  1        2 0.20968070E+00 0.10002858E+04</pdfrwt>
<pdfrwt beam="2">  1       -2 0.28235992E-01 0.10002858E+04</pdfrwt>
<totfact> 0.20922876E+02</totfact>
</mgrwt>
</event>
<event>
 9    1  0.4296086E-036  0.9993714E+03  0.7818608E-02  0.8681637E-01
         -2   -1    0    0    0  501 -0.00000000000E+00  0.00000000000E+00  0.18991894516E+03  0.18991894516E+03  0.00000000000E+00 0. -1.
          2   -1    0    0  501    0  0.00000000000E+00 -0.00000000000E+00 -0.13146966880E+04  0.13146966880E+04  0.00000000000E+00 0. -1.
         36    2    1    2    0    0  0.00000000000E+00 -0.28421709430E-13 -0.11247777428E+04  0.15046156332E+04  0.99937141882E+03 0.  0.
         25    2    3    3    0    0  0.53385671461E+02 -0.10415166674E+03 -0.32756026464E+03  0.36942257317E+03  0.12441748667E+03 0.  0.
         35    2    3    3    0    0 -0.53385671461E+02  0.10415166674E+03 -0.79721747821E+03  0.11351930600E+04  0.79963115016E+03 0.  0.
         22    1    5    5    0    0  0.73705620962E+02  0.30386253959E+03 -0.83849916696E+03  0.89489989078E+03  0.00000000000E+00 0.  1.
         22    1    5    5    0    0 -0.12709129242E+03 -0.19971087285E+03  0.41281688758E+02  0.24029316921E+03  0.00000000000E+00 0.  1.
          5    1    4    4  502    0  0.29592087266E+02 -0.61670826823E+01 -0.21922534564E+03  0.22134942220E+03  0.47000000000E+01 0. -1.
         -5    1    4    4    0  502  0.23793584195E+02 -0.97984584057E+02 -0.10833491901E+03  0.14807315097E+03  0.47000000000E+01 0. -1.
<mgrwt>
<rscale>  0 0.99937142E+03</rscale>
<asrwt>0</asrwt>
<pdfrwt beam="1">  1        2 0.20226102E+00 0.99937142E+03</pdfrwt>
<pdfrwt beam="2">  1       -2 0.29218300E-01 0.99937142E+03</pdfrwt>
<totfact> 0.20966174E+02</totfact>
</mgrwt>
</event>
<event>
 9    1  0.4296086E-036  0.9998498E+03  0.7818608E-02  0.8681181E-01
          2   -1    0    0  501    0  0.00000000000E+00  0.00000000000E+00  0.23580932626E+04  0.23580932626E+04  0.00000000000E+00 0. -1.
         -2   -1    0    0    0  501 -0.00000000000E+00 -0.00000000000E+00 -0.10598600456E+03  0.10598600456E+03  0.00000000000E+00 0. -1.
         36    2    1    2    0    0  0.42632564146E-13  0.14210854715E-13  0.22521072581E+04  0.24640792672E+04  0.99984975528E+03 0.  0.
         25    2    3    3    0    0 -0.64208436297E+02 -0.96693259134E+02  0.22545846662E+03  0.28281198719E+03  0.12521497624E+03 0.  0.
         35    2    3    3    0    0  0.64208436297E+02  0.96693259134E+02  0.20266487915E+04  0.21812672800E+04  0.79821633236E+03 0.  0.
         22    1    5    5    0    0 -0.30548393305E+03  0.12397282723E+03  0.42828134547E+03  0.54047627711E+03  0.00000000000E+00 0. -1.
         22    1    5    5    0    0  0.36969236934E+03 -0.27279568097E+02  0.15983674460E+04  0.16407910029E+04  0.00000000000E+00 0. -1.
          5    1    4    4  502    0  0.11078222850E+02 -0.66955570362E+02  0.17387977185E+03  0.18671379297E+03  0.47000000000E+01 0. -1.
         -5    1    4    4    0  502 -0.75286659148E+02 -0.29737688772E+02  0.51578694766E+02  0.96098194223E+02  0.47000000000E+01 0. -1.
<mgrwt>
<rscale>  0 0.99984976E+03</rscale>
<asrwt>0</asrwt>
<pdfrwt beam="1">  1        2 0.36278354E+00 0.99984976E+03</pdfrwt>
<pdfrwt beam="2">  1       -2 0.16305541E-01 0.99984976E+03</pdfrwt>
<totfact> 0.14727453E+02</totfact>
</mgrwt>
</event>
<event>
 9    1  0.4296086E-036  0.9995405E+03  0.7818608E-02  0.8681476E-01
         -1   -1    0    0    0  501 -0.00000000000E+00  0.00000000000E+00  0.45052002327E+03  0.45052002327E+03  0.00000000000E+00 0. -1.
          1   -1    0    0  501    0  0.00000000000E+00 -0.00000000000E+00 -0.55440446475E+03  0.55440446475E+03  0.00000000000E+00 0. -1.
         36    2    1    2    0    0  0.10658141036E-13  0.00000000000E+00 -0.10388444147E+03  0.10049244880E+04  0.99954051916E+03 0.  0.
         25    2    3    3    0    0 -0.84983510743E+01 -0.11969489701E+03 -0.92060638552E+02  0.19567861220E+03  0.12416065303E+03 0.  0.
         35    2    3    3    0    0  0.84983510743E+01  0.11969489701E+03 -0.11823802923E+02  0.80924587582E+03  0.80021246858E+03 0.  0.
         22    1    5    5    0    0 -0.31345286395E+03 -0.27767075422E+02  0.22181415356E+03  0.38500029496E+03  0.00000000000E+00 0.  1.
         22    1    5    5    0    0  0.32195121503E+03  0.14746197243E+03 -0.23363795648E+03  0.42424558086E+03  0.00000000000E+00 0.  1.
          5    1    4    4  502    0  0.10626815656E+02 -0.30492027391E+02 -0.98829481660E+02  0.10407713193E+03  0.47000000000E+01 0. -1.
         -5    1    4    4    0  502 -0.19125166730E+02 -0.89202869618E+02  0.67688431084E+01  0.91601480270E+02  0.47000000000E+01 0. -1.
<mgrwt>
<rscale>  0 0.99954052E+03</rscale>
<asrwt>0</asrwt>
<pdfrwt beam="1">  1        1 0.85292994E-01 0.99954052E+03</pdfrwt>
<pdfrwt beam="2">  1       -1 0.69310773E-01 0.99954052E+03</pdfrwt>
<totfact> 0.94597562E+01</totfact>
</mgrwt>
</event>
<event>
 9    1  0.4296086E-036  0.9994807E+03  0.7818608E-02  0.8681533E-01
         -2   -1    0    0    0  501 -0.00000000000E+00  0.00000000000E+00  0.17327682808E+03  0.17327682808E+03  0.00000000000E+00 0.  1.
          2   -1    0    0  501    0  0.00000000000E+00 -0.00000000000E+00 -0.14412799302E+04  0.14412799302E+04  0.00000000000E+00 0.  1.
         36    2    1    2    0    0 -0.14210854715E-13 -0.14210854715E-13 -0.12680031021E+04  0.16145567583E+04  0.99948069454E+03 0.  0.
         25    2    3    3    0    0 -0.10617064673E+03 -0.93585359913E+02 -0.23670313195E+03  0.30289678240E+03  0.12525039840E+03 0.  0.
         35    2    3    3    0    0  0.10617064673E+03  0.93585359913E+02 -0.10312999702E+04  0.13116599759E+04  0.79802370770E+03 0.  0.
         22    1    5    5    0    0 -0.12312803597E+03 -0.31608977603E+03 -0.47573836838E+03  0.58429466445E+03  0.00000000000E+00 0.  1.
         22    1    5    5    0    0  0.22929868270E+03  0.40967513595E+03 -0.55556160180E+03  0.72736531145E+03  0.00000000000E+00 0.  1.
          5    1    4    4  502    0 -0.65039852059E+02 -0.27190200988E+02 -0.20780457822E+03  0.21948649643E+03  0.47000000000E+01 0. -1.
         -5    1    4    4    0  502 -0.41130794667E+02 -0.66395158925E+02 -0.28898553732E+02  0.83410285975E+02  0.47000000000E+01 0. -1.
<mgrwt>
<rscale>  0 0.99948069E+03</rscale>
<asrwt>0</asrwt>
<pdfrwt beam="1">  1        2 0.22173537E+00 0.99948069E+03</pdfrwt>
<pdfrwt beam="2">  1       -2 0.26657974E-01 0.99948069E+03</pdfrwt>
<totfact> 0.20929794E+02</totfact>
</mgrwt>
</event>
<event>
 9    1  0.4296086E-036  0.1000071E+04  0.7818608E-02  0.8680971E-01
          2   -1    0    0  501    0  0.00000000000E+00  0.00000000000E+00  0.22610571702E+04  0.22610571702E+04  0.00000000000E+00 0. -1.
         -2   -1    0    0    0  501 -0.00000000000E+00 -0.00000000000E+00 -0.11058338836E+03  0.11058338836E+03  0.00000000000E+00 0. -1.
         36    2    1    2    0    0  0.14210854715E-13  0.00000000000E+00  0.21504737818E+04  0.23716405585E+04  0.10000707238E+04 0.  0.
         25    2    3    3    0    0  0.10743211841E+03  0.63339552301E+02  0.56320835060E+03  0.59007709677E+03  0.12423274523E+03 0.  0.
         35    2    3    3    0    0 -0.10743211841E+03 -0.63339552301E+02  0.15872654312E+04  0.17815634618E+04  0.79937679491E+03 0.  0.
         22    1    5    5    0    0  0.33600834472E+03 -0.10992874147E+03  0.84027318295E+03  0.91161667268E+03  0.00000000000E+00 0.  1.
         22    1    5    5    0    0 -0.44344046313E+03  0.46589189165E+02  0.74699224827E+03  0.86994678910E+03  0.00000000000E+00 0.  1.
          5    1    4    4  502    0 -0.23031600062E+02  0.35150719137E+02  0.14744010914E+03  0.15338416946E+03  0.47000000000E+01 0.  1.
         -5    1    4    4    0  502  0.13046371847E+03  0.28188833164E+02  0.41576824146E+03  0.43669292731E+03  0.47000000000E+01 0.  1.
<mgrwt>
<rscale>  0 0.10000707E+04</rscale>
<asrwt>0</asrwt>
<pdfrwt beam="1">  1        2 0.34785491E+00 0.10000707E+04</pdfrwt>
<pdfrwt beam="2">  1       -2 0.17012831E-01 0.10000707E+04</pdfrwt>
<totfact> 0.15636646E+02</totfact>
</mgrwt>
</event>
<event>
 9    1  0.4296086E-036  0.9996468E+03  0.7818608E-02  0.8681374E-01
         -1   -1    0    0    0  501 -0.00000000000E+00  0.00000000000E+00  0.53414639730E+03  0.53414639730E+03  0.00000000000E+00 0.  1.
          1   -1    0    0  501    0  0.00000000000E+00 -0.00000000000E+00 -0.46770587395E+03  0.46770587395E+03  0.00000000000E+00 0.  1.
         36    2    1    2    0    0  0.00000000000E+00  0.00000000000E+00  0.66440523350E+02  0.10018522712E+04  0.99964675273E+03 0.  0.
         25    2    3    3    0    0 -0.28050818608E+01 -0.85643388899E+02 -0.94963357859E+02  0.18086747666E+03  0.12787629269E+03 0.  0.
         35    2    3    3    0    0  0.28050818608E+01  0.85643388899E+02  0.16140388121E+03  0.82098479458E+03  0.80038875649E+03 0.  0.
         22    1    5    5    0    0  0.11845932916E+03 -0.32735415041E+03  0.17957410006E+03  0.39171444940E+03  0.00000000000E+00 0.  1.
         22    1    5    5    0    0 -0.11565424730E+03  0.41299753931E+03 -0.18170218850E+02  0.42927034518E+03  0.00000000000E+00 0.  1.
          5    1    4    4  502    0 -0.62911839505E+02 -0.61614418122E+02 -0.45263777711E+02  0.99121822235E+02  0.47000000000E+01 0. -1.
         -5    1    4    4    0  502  0.60106757645E+02 -0.24028970778E+02 -0.49699580148E+02  0.81745654429E+02  0.47000000000E+01 0. -1.
<mgrwt>
<rscale>  0 0.99964675E+03</rscale>
<asrwt>0</asrwt>
<pdfrwt beam="1">  1        1 0.71954750E-01 0.99964675E+03</pdfrwt>
<pdfrwt beam="2">  1       -1 0.82176369E-01 0.99964675E+03</pdfrwt>
<totfact> 0.84753808E+01</totfact>
</mgrwt>
</event>
<event>
 9    1  0.4296086E-036  0.9996166E+03  0.7818608E-02  0.8681403E-01
          2   -1    0    0  501    0  0.00000000000E+00  0.00000000000E+00  0.39014927274E+04  0.39014927274E+04  0.00000000000E+00 0.  1.
         -2   -1    0    0    0  501 -0.00000000000E+00 -0.00000000000E+00 -0.64028908439E+02  0.64028908439E+02  0.00000000000E+00 0.  1.
         36    2    1    2    0    0  0.00000000000E+00 -0.71054273576E-14  0.38374638190E+04  0.39655216359E+04  0.99961656773E+03 0.  0.
         25    2    3    3    0    0 -0.13256697276E+03 -0.45369299097E+02  0.74588968378E+03  0.76917485285E+03  0.12508460468E+03 0.  0.
         35    2    3    3    0    0  0.13256697276E+03  0.45369299097E+02  0.30915741352E+04  0.31963467830E+04  0.79948092424E+03 0.  0.
         22    1    5    5    0    0 -0.25848256364E+03 -0.16959438269E+03  0.72649698976E+03  0.78953997142E+03  0.00000000000E+00 0.  1.
         22    1    5    5    0    0  0.39104953639E+03  0.21496368178E+03  0.23650771455E+04  0.24068068116E+04  0.00000000000E+00 0.  1.
          5    1    4    4  502    0 -0.14558729895E+03 -0.36068460644E+02  0.48340987320E+03  0.50616577420E+03  0.47000000000E+01 0.  1.
         -5    1    4    4    0  502  0.13020326192E+02 -0.93008384521E+01  0.26247981058E+03  0.26300907865E+03  0.47000000000E+01 0.  1.
<mgrwt>
<rscale>  0 0.99961657E+03</rscale>
<asrwt>0</asrwt>
<pdfrwt beam="1">  1        2 0.60022946E+00 0.99961657E+03</pdfrwt>
<pdfrwt beam="2">  1       -2 0.98506044E-02 0.99961657E+03</pdfrwt>
<totfact> 0.28254443E+01</totfact>
</mgrwt>
</event>
<event>
 9    1  0.4296086E-036  0.9999621E+03  0.7818608E-02  0.8681074E-01
          2   -1    0    0  501    0  0.00000000000E+00  0.00000000000E+00  0.42108031659E+03  0.42108031659E+03  0.00000000000E+00 0.  1.
         -2   -1    0    0    0  501 -0.00000000000E+00 -0.00000000000E+00 -0.59366595369E+03  0.59366595369E+03  0.00000000000E+00 0.  1.
         36    2    1    2    0    0  0.35527136788E-13 -0.35527136788E-14 -0.17258563710E+03  0.10147462703E+04  0.99996209474E+03 0.  0.
         25    2    3    3    0    0 -0.22206886721E+02 -0.25985586753E+02  0.11059071027E+03  0.16638241764E+03  0.11951739273E+03 0.  0.
         35    2    3    3    0    0  0.22206886721E+02  0.25985586753E+02 -0.28317634737E+03  0.84836385264E+03  0.79897683710E+03 0.  0.
         22    1    5    5    0    0 -0.29319052251E+03  0.12242516383E+03  0.10903543788E+03  0.33591268202E+03  0.00000000000E+00 0.  1.
         22    1    5    5    0    0  0.31539740924E+03 -0.96439577075E+02 -0.39221178525E+03  0.51245117062E+03  0.00000000000E+00 0.  1.
          5    1    4    4  502    0  0.49405005581E+02 -0.11060678462E+02  0.49497475194E+02  0.70959729672E+02  0.47000000000E+01 0. -1.
         -5    1    4    4    0  502 -0.71611892302E+02 -0.14924908291E+02  0.61093235078E+02  0.95422687967E+02  0.47000000000E+01 0. -1.
<mgrwt>
<rscale>  0 0.99996209E+03</rscale>
<asrwt>0</asrwt>
<pdfrwt beam="1">  1        2 0.64781587E-01 0.99996209E+03</pdfrwt>
<pdfrwt beam="2">  1       -2 0.91333224E-01 0.99996209E+03</pdfrwt>
<totfact> 0.91521894E+01</totfact>
</mgrwt>
</event>
<event>
 9    1  0.4296086E-036  0.9994274E+03  0.7818608E-02  0.8681583E-01
         -1   -1    0    0    0  501 -0.00000000000E+00  0.00000000000E+00  0.13798792571E+03  0.13798792571E+03  0.00000000000E+00 0.  1.
          1   -1    0    0  501    0  0.00000000000E+00 -0.00000000000E+00 -0.18096783299E+04  0.18096783299E+04  0.00000000000E+00 0.  1.
         36    2    1    2    0    0  0.14210854715E-13  0.00000000000E+00 -0.16716904042E+04  0.19476662556E+04  0.99942735393E+03 0.  0.
         25    2    3    3    0    0 -0.21319838506E+02 -0.41388826742E+02 -0.57401743280E+02  0.14510652207E+03  0.12487342441E+03 0.  0.
         35    2    3    3    0    0  0.21319838506E+02  0.41388826742E+02 -0.16142886609E+04  0.18025597336E+04  0.80070352923E+03 0.  0.
         22    1    5    5    0    0 -0.12542314247E+03  0.32034461969E+03 -0.13440341108E+04  0.13873641667E+04  0.00000000000E+00 0. -1.
         22    1    5    5    0    0  0.14674298097E+03 -0.27895579295E+03 -0.27025455018E+03  0.41519556691E+03  0.00000000000E+00 0. -1.
          5    1    4    4  502    0 -0.43531957581E+02  0.25832978742E+01  0.23883321762E+02  0.49942044583E+02  0.47000000000E+01 0.  1.
         -5    1    4    4    0  502  0.22212119074E+02 -0.43972124616E+02 -0.81285065042E+02  0.95164477490E+02  0.47000000000E+01 0.  1.
<mgrwt>
<rscale>  0 0.99942735E+03</rscale>
<asrwt>0</asrwt>
<pdfrwt beam="1">  1        1 0.27841205E+00 0.99942735E+03</pdfrwt>
<pdfrwt beam="2">  1       -1 0.21228912E-01 0.99942735E+03</pdfrwt>
<totfact> 0.78467975E+01</totfact>
</mgrwt>
</event>
<event>
 9    1  0.4296086E-036  0.9998623E+03  0.7818608E-02  0.8681169E-01
          2   -1    0    0  501    0  0.00000000000E+00  0.00000000000E+00  0.13199370636E+03  0.13199370636E+03  0.00000000000E+00 0. -1.
         -2   -1    0    0    0  501 -0.00000000000E+00 -0.00000000000E+00 -0.18935081736E+04  0.18935081736E+04  0.00000000000E+00 0. -1.
         36    2    1    2    0    0 -0.14210854715E-13  0.14210854715E-13 -0.17615144672E+04  0.20255018799E+04  0.99986231421E+03 0.  0.
         25    2    3    3    0    0 -0.49596238469E+02  0.12468272295E+03 -0.45425098357E+03  0.48990207916E+03  0.12511803554E+03 0.  0.
         35    2    3    3    0    0  0.49596238469E+02 -0.12468272295E+03 -0.13072634836E+04  0.15355998008E+04  0.79443273106E+03 0.  0.
         22    1    5    5    0    0  0.16386451806E+03 -0.28897671674E+03 -0.12929711522E+04  0.13349657387E+04  0.00000000000E+00 0. -1.
         22    1    5    5    0    0 -0.11426827960E+03  0.16429399379E+03 -0.14292331430E+02  0.20063406205E+03  0.00000000000E+00 0. -1.
          5    1    4    4  502    0 -0.22960804696E+02 -0.76043169558E+01 -0.20458312059E+03  0.20606156221E+03  0.47000000000E+01 0.  1.
         -5    1    4    4    0  502 -0.26635433773E+02  0.13228703991E+03 -0.24966786298E+03  0.28384051695E+03  0.47000000000E+01 0.  1.
<mgrwt>
<rscale>  0 0.99986231E+03</rscale>
<asrwt>0</asrwt>
<pdfrwt beam="1">  1        2 0.20306728E-01 0.99986231E+03</pdfrwt>
<pdfrwt beam="2">  1       -2 0.29130890E+00 0.99986231E+03</pdfrwt>
<totfact> 0.10896397E+01</totfact>
</mgrwt>
</event>
<event>
 9    1  0.4296086E-036  0.1001518E+04  0.7818608E-02  0.8679594E-01
          1   -1    0    0  501    0  0.00000000000E+00  0.00000000000E+00  0.60485446840E+03  0.60485446840E+03  0.00000000000E+00 0. -1.
         -1   -1    0    0    0  501 -0.00000000000E+00 -0.00000000000E+00 -0.41457808634E+03  0.41457808634E+03  0.00000000000E+00 0. -1.
         36    2    1    2    0    0  0.42632564146E-13  0.14210854715E-13  0.19027638206E+03  0.10194325547E+04  0.10015176644E+04 0.  0.
         25    2    3    3    0    0  0.10052372454E+03  0.92113424372E+02  0.76001992183E+02  0.20003619446E+03  0.12509306189E+03 0.  0.
         35    2    3    3    0    0 -0.10052372454E+03 -0.92113424372E+02  0.11427438988E+03  0.81939636028E+03  0.79985114672E+03 0.  0.
         22    1    5    5    0    0  0.27277385063E+03  0.73919772268E+02 -0.16242142756E+03  0.32596077441E+03  0.00000000000E+00 0. -1.
         22    1    5    5    0    0 -0.37329757517E+03 -0.16603319664E+03  0.27669581744E+03  0.49343558587E+03  0.00000000000E+00 0. -1.
          5    1    4    4  502    0  0.11606020305E+03  0.10132615106E+03  0.39626361287E+02  0.15915180844E+03  0.47000000000E+01 0. -1.
         -5    1    4    4    0  502 -0.15536478512E+02 -0.92127266836E+01  0.36375630896E+02  0.40884386025E+02  0.47000000000E+01 0. -1.
<mgrwt>
<rscale>  0 0.10015177E+04</rscale>
<asrwt>0</asrwt>
<pdfrwt beam="1">  1        1 0.93054534E-01 0.10015177E+04</pdfrwt>
<pdfrwt beam="2">  1       -1 0.63781244E-01 0.10015177E+04</pdfrwt>
<totfact> 0.98157545E+01</totfact>
</mgrwt>
</event>
<event>
 9    1  0.4296086E-036  0.9998750E+03  0.7818608E-02  0.8681157E-01
         -2   -1    0    0    0  501 -0.00000000000E+00  0.00000000000E+00  0.27996139996E+03  0.27996139996E+03  0.00000000000E+00 0.  1.
          2   -1    0    0  501    0  0.00000000000E+00 -0.00000000000E+00 -0.89275704653E+03  0.89275704653E+03  0.00000000000E+00 0.  1.
         36    2    1    2    0    0  0.00000000000E+00  0.28421709430E-13 -0.61279564657E+03  0.11727184465E+04  0.99987501734E+03 0.  0.
         25    2    3    3    0    0 -0.89750735006E+02 -0.44466720491E+02 -0.22977168811E+03  0.27985044880E+03  0.12445385238E+03 0.  0.
         35    2    3    3    0    0  0.89750735006E+02  0.44466720491E+02 -0.38302395845E+03  0.89286799769E+03  0.80029583585E+03 0.  0.
         22    1    5    5    0    0 -0.15673271990E+03  0.26140964801E+03 -0.46355275604E+03  0.55478041350E+03  0.00000000000E+00 0. -1.
         22    1    5    5    0    0  0.24648345491E+03 -0.21694292752E+03  0.80528797589E+02  0.33808758419E+03  0.00000000000E+00 0. -1.
          5    1    4    4  502    0 -0.72135020341E+01 -0.40134749654E+02 -0.17695251440E+03  0.18165108063E+03  0.47000000000E+01 0.  1.
         -5    1    4    4    0  502 -0.82537232972E+02 -0.43319708368E+01 -0.52819173712E+02  0.98199368173E+02  0.47000000000E+01 0.  1.
<mgrwt>
<rscale>  0 0.99987502E+03</rscale>
<asrwt>0</asrwt>
<pdfrwt beam="1">  1        2 0.13734724E+00 0.99987502E+03</pdfrwt>
<pdfrwt beam="2">  1       -2 0.43070985E-01 0.99987502E+03</pdfrwt>
<totfact> 0.18336802E+02</totfact>
</mgrwt>
</event>
<event>
 9    1  0.4296086E-036  0.9996509E+03  0.7818608E-02  0.8681370E-01
          2   -1    0    0  501    0  0.00000000000E+00  0.00000000000E+00  0.16282675843E+04  0.16282675843E+04  0.00000000000E+00 0.  1.
         -2   -1    0    0    0  501 -0.00000000000E+00 -0.00000000000E+00 -0.15343023621E+03  0.15343023621E+03  0.00000000000E+00 0.  1.
         36    2    1    2    0    0 -0.71054273576E-14  0.00000000000E+00  0.14748373481E+04  0.17816978205E+04  0.99965089919E+03 0.  0.
         25    2    3    3    0    0 -0.18682549925E+02  0.11185665565E+03  0.42186326170E+03  0.45445370312E+03  0.12529408454E+03 0.  0.
         35    2    3    3    0    0  0.18682549925E+02 -0.11185665565E+03  0.10529740864E+04  0.13272441174E+04  0.79997598178E+03 0.  0.
         22    1    5    5    0    0  0.30562521423E+03 -0.30675233983E+03  0.75312721959E+03  0.86873723211E+03  0.00000000000E+00 0. -1.
         22    1    5    5    0    0 -0.28694266430E+03  0.19489568418E+03  0.29984686679E+03  0.45850688527E+03  0.00000000000E+00 0. -1.
          5    1    4    4  502    0  0.30893965303E+02  0.10520184564E+03  0.34975449410E+03  0.36656808585E+03  0.47000000000E+01 0.  1.
         -5    1    4    4    0  502 -0.49576515228E+02  0.66548100075E+01  0.72108767605E+02  0.87885617276E+02  0.47000000000E+01 0.  1.
<mgrwt>
<rscale>  0 0.99965090E+03</rscale>
<asrwt>0</asrwt>
<pdfrwt beam="1">  1        2 0.25050269E+00 0.99965090E+03</pdfrwt>
<pdfrwt beam="2">  1       -2 0.23604653E-01 0.99965090E+03</pdfrwt>
<totfact> 0.20361655E+02</totfact>
</mgrwt>
</event>
<event>
 9    1  0.4296086E-036  0.1000276E+04  0.7818608E-02  0.8680775E-01
         -2   -1    0    0    0  501 -0.00000000000E+00  0.00000000000E+00  0.10007965244E+03  0.10007965244E+03  0.00000000000E+00 0. -1.
          2   -1    0    0  501    0  0.00000000000E+00 -0.00000000000E+00 -0.24993903530E+04  0.24993903530E+04  0.00000000000E+00 0. -1.
         36    2    1    2    0    0 -0.21316282073E-13  0.14210854715E-13 -0.23993107006E+04  0.25994700055E+04  0.10002761975E+04 0.  0.
         25    2    3    3    0    0  0.18450571616E+02  0.13558593828E+02 -0.92504327568E+02  0.15761447654E+03  0.12554287529E+03 0.  0.
         35    2    3    3    0    0 -0.18450571616E+02 -0.13558593828E+02 -0.23068063730E+04  0.24418555289E+04  0.80048642867E+03 0.  0.
         22    1    5    5    0    0 -0.24305490393E+03  0.88389035803E+02 -0.21717769480E+03  0.33771949765E+03  0.00000000000E+00 0.  1.
         22    1    5    5    0    0  0.22460433231E+03 -0.10194762963E+03 -0.20896286782E+04  0.21041360313E+04  0.00000000000E+00 0.  1.
          5    1    4    4  502    0  0.28954619233E+02 -0.47396152472E+02 -0.74460524904E+02  0.93011961666E+02  0.47000000000E+01 0. -1.
         -5    1    4    4    0  502 -0.10504047617E+02  0.60954746300E+02 -0.18043802665E+02  0.64602514870E+02  0.47000000000E+01 0. -1.
<mgrwt>
<rscale>  0 0.10002762E+04</rscale>
<asrwt>0</asrwt>
<pdfrwt beam="1">  1        2 0.38452155E+00 0.10002762E+04</pdfrwt>
<pdfrwt beam="2">  1       -2 0.15396871E-01 0.10002762E+04</pdfrwt>
<totfact> 0.13339606E+02</totfact>
</mgrwt>
</event>
<event>
 9    1  0.4296086E-036  0.1000322E+04  0.7818608E-02  0.8680731E-01
         -2   -1    0    0    0  501 -0.00000000000E+00  0.00000000000E+00  0.14504992379E+03  0.14504992379E+03  0.00000000000E+00 0. -1.
          2   -1    0    0  501    0  0.00000000000E+00 -0.00000000000E+00 -0.17246554161E+04  0.17246554161E+04  0.00000000000E+00 0. -1.
         36    2    1    2    0    0  0.00000000000E+00  0.35527136788E-14 -0.15796054923E+04  0.18697053399E+04  0.10003222214E+04 0.  0.
         25    2    3    3    0    0 -0.12343502781E+03  0.23519392204E+02 -0.43186243892E+03  0.46610191846E+03  0.12229662441E+03 0.  0.
         35    2    3    3    0    0  0.12343502781E+03 -0.23519392204E+02 -0.11477430534E+04  0.14036034214E+04  0.79812222131E+03 0.  0.
         22    1    5    5    0    0  0.59626603583E+01 -0.23051826719E+03 -0.11424978691E+04  0.11655366171E+04  0.00000000000E+00 0.  1.
         22    1    5    5    0    0  0.11747236746E+03  0.20699887499E+03 -0.52451842447E+01  0.23806680432E+03  0.00000000000E+00 0.  1.
          5    1    4    4  502    0 -0.34842567158E+02 -0.25091114425E+02 -0.32306536711E+02  0.53938583811E+02  0.47000000000E+01 0.  1.
         -5    1    4    4    0  502 -0.88592460657E+02  0.48610506629E+02 -0.39955590220E+03  0.41216333465E+03  0.47000000000E+01 0.  1.
<mgrwt>
<rscale>  0 0.10003222E+04</rscale>
<asrwt>0</asrwt>
<pdfrwt beam="1">  1        2 0.26533160E+00 0.10003222E+04</pdfrwt>
<pdfrwt beam="2">  1       -2 0.22315373E-01 0.10003222E+04</pdfrwt>
<totfact> 0.19831050E+02</totfact>
</mgrwt>
</event>
<event>
 9    1  0.4296086E-036  0.9905672E+03  0.7818608E-02  0.8690073E-01
         -2   -1    0    0    0  501 -0.00000000000E+00  0.00000000000E+00  0.47771623929E+03  0.47771623929E+03  0.00000000000E+00 0.  1.
          2   -1    0    0  501    0  0.00000000000E+00 -0.00000000000E+00 -0.51349697122E+03  0.51349697122E+03  0.00000000000E+00 0.  1.
         36    2    1    2    0    0  0.00000000000E+00  0.71054273576E-14 -0.35780731930E+02  0.99121321052E+03  0.99056719506E+03 0.  0.
         25    2    3    3    0    0  0.35414381490E+02  0.43260022599E+02 -0.12248915146E+03  0.18390075108E+03  0.12526087199E+03 0.  0.
         35    2    3    3    0    0 -0.35414381490E+02 -0.43260022599E+02  0.86708419530E+02  0.80731245943E+03  0.80069310548E+03 0.  0.
         22    1    5    5    0    0 -0.36697437128E+02 -0.36052382744E+03 -0.16897158800E+03  0.39984438173E+03  0.00000000000E+00 0. -1.
         22    1    5    5    0    0  0.12830556380E+01  0.31726380485E+03  0.25568000753E+03  0.40746807771E+03  0.00000000000E+00 0. -1.
          5    1    4    4  502    0  0.32913651907E+02 -0.29346856445E+02 -0.36005388886E+01  0.44492699911E+02  0.47000000000E+01 0.  1.
         -5    1    4    4    0  502  0.25007295826E+01  0.72606879044E+02 -0.11888861257E+03  0.13940805117E+03  0.47000000000E+01 0.  1.
<mgrwt>
<rscale>  0 0.99056720E+03</rscale>
<asrwt>0</asrwt>
<pdfrwt beam="1">  1        2 0.78999534E-01 0.99056720E+03</pdfrwt>
<pdfrwt beam="2">  1       -2 0.73494806E-01 0.99056720E+03</pdfrwt>
<totfact> 0.12049594E+02</totfact>
</mgrwt>
</event>
<event>
 9    1  0.4296086E-036  0.9997132E+03  0.7818608E-02  0.8681311E-01
          2   -1    0    0  501    0  0.00000000000E+00  0.00000000000E+00  0.30876488647E+03  0.30876488647E+03  0.00000000000E+00 0. -1.
         -2   -1    0    0    0  501 -0.00000000000E+00 -0.00000000000E+00 -0.80921321241E+03  0.80921321241E+03  0.00000000000E+00 0. -1.
         36    2    1    2    0    0  0.00000000000E+00  0.00000000000E+00 -0.50044832594E+03  0.11179780989E+04  0.99971321019E+03 0.  0.
         25    2    3    3    0    0  0.11379088826E+02  0.11546452054E+03 -0.18337931873E+03  0.25019533800E+03  0.12453189732E+03 0.  0.
         35    2    3    3    0    0 -0.11379088826E+02 -0.11546452054E+03 -0.31706900721E+03  0.86778276088E+03  0.79940767170E+03 0.  0.
         22    1    5    5    0    0 -0.61399657396E+02  0.72847560245E+02 -0.55337046081E+03  0.56151184481E+03  0.00000000000E+00 0.  1.
         22    1    5    5    0    0  0.50020568570E+02 -0.18831208079E+03  0.23630145361E+03  0.30627091607E+03  0.00000000000E+00 0.  1.
          5    1    4    4  502    0 -0.18274048835E+02  0.49466714797E+02  0.63495081059E-01  0.52943278755E+02  0.47000000000E+01 0. -1.
         -5    1    4    4    0  502  0.29653137660E+02  0.65997805747E+02 -0.18344281381E+03  0.19725205924E+03  0.47000000000E+01 0. -1.
<mgrwt>
<rscale>  0 0.99971321E+03</rscale>
<asrwt>0</asrwt>
<pdfrwt beam="1">  1        2 0.47502291E-01 0.99971321E+03</pdfrwt>
<pdfrwt beam="2">  1       -2 0.12449434E+00 0.99971321E+03</pdfrwt>
<totfact> 0.59787488E+01</totfact>
</mgrwt>
</event>
<event>
 9    1  0.4296086E-036  0.1000225E+04  0.7818608E-02  0.8680824E-01
          2   -1    0    0  501    0  0.00000000000E+00  0.00000000000E+00  0.13154604472E+04  0.13154604472E+04  0.00000000000E+00 0.  1.
         -2   -1    0    0    0  501 -0.00000000000E+00 -0.00000000000E+00 -0.19013301322E+03  0.19013301322E+03  0.00000000000E+00 0.  1.
         36    2    1    2    0    0 -0.14210854715E-13  0.00000000000E+00  0.11253274339E+04  0.15055934604E+04  0.10002248919E+04 0.  0.
         25    2    3    3    0    0 -0.79487807205E+02  0.10764410367E+03  0.18982804376E+03  0.26640826832E+03  0.13051097533E+03 0.  0.
         35    2    3    3    0    0  0.79487807205E+02 -0.10764410367E+03  0.93549939018E+03  0.12391851921E+04  0.80157050012E+03 0.  0.
         22    1    5    5    0    0 -0.34885378014E+02 -0.45493238057E+02 -0.14237270755E+03  0.15348163462E+03  0.00000000000E+00 0.  1.
         22    1    5    5    0    0  0.11437318522E+03 -0.62150865612E+02  0.10778720977E+04  0.10857035575E+04  0.00000000000E+00 0.  1.
          5    1    4    4  502    0 -0.19629982428E+02 -0.28523160290E+02  0.18730099719E+02  0.39646103447E+02  0.47000000000E+01 0.  1.
         -5    1    4    4    0  502 -0.59857824777E+02  0.13616726396E+03  0.17109794404E+03  0.22676216487E+03  0.47000000000E+01 0.  1.
<mgrwt>
<rscale>  0 0.10002249E+04</rscale>
<asrwt>0</asrwt>
<pdfrwt beam="1">  1        2 0.20237852E+00 0.10002249E+04</pdfrwt>
<pdfrwt beam="2">  1       -2 0.29251234E-01 0.10002249E+04</pdfrwt>
<totfact> 0.20902006E+02</totfact>
</mgrwt>
</event>
<event>
 9    1  0.4296086E-036  0.1000715E+04  0.7818608E-02  0.8680357E-01
         -2   -1    0    0    0  501 -0.00000000000E+00  0.00000000000E+00  0.50284474750E+03  0.50284474750E+03  0.00000000000E+00 0.  1.
          2   -1    0    0  501    0  0.00000000000E+00 -0.00000000000E+00 -0.49788298443E+03  0.49788298443E+03  0.00000000000E+00 0.  1.
         36    2    1    2    0    0 -0.42632564146E-13  0.00000000000E+00  0.49617630772E+01  0.10007277319E+04  0.10007154313E+04 0.  0.
         25    2    3    3    0    0  0.80614036260E+02 -0.92012618620E+02 -0.63815320447E+02  0.18587598696E+03  0.12454935800E+03 0.  0.
         35    2    3    3    0    0 -0.80614036260E+02  0.92012618620E+02  0.68777083524E+02  0.81485174497E+03  0.80267560959E+03 0.  0.
         22    1    5    5    0    0  0.35891372651E+03  0.99122084722E+02  0.33465301381E+02  0.37385047432E+03  0.00000000000E+00 0. -1.
         22    1    5    5    0    0 -0.43952776277E+03 -0.71094661014E+01  0.35311782143E+02  0.44100127064E+03  0.00000000000E+00 0. -1.
          5    1    4    4  502    0  0.93873266558E+02 -0.37275591303E+02 -0.77889176137E+02  0.12763413979E+03  0.47000000000E+01 0.  1.
         -5    1    4    4    0  502 -0.13259230298E+02 -0.54737027317E+02  0.14073855689E+02  0.58241847168E+02  0.47000000000E+01 0.  1.
<mgrwt>
<rscale>  0 0.10007154E+04</rscale>
<asrwt>0</asrwt>
<pdfrwt beam="1">  1        2 0.76597383E-01 0.10007154E+04</pdfrwt>
<pdfrwt beam="2">  1       -2 0.77360730E-01 0.10007154E+04</pdfrwt>
<totfact> 0.11129787E+02</totfact>
</mgrwt>
</event>
<event>
 9    1  0.4296086E-036  0.1000889E+04  0.7818608E-02  0.8680192E-01
         -1   -1    0    0    0  501 -0.00000000000E+00  0.00000000000E+00  0.37207657995E+03  0.37207657995E+03  0.00000000000E+00 0.  1.
          1   -1    0    0  501    0  0.00000000000E+00 -0.00000000000E+00 -0.67310004973E+03  0.67310004973E+03  0.00000000000E+00 0.  1.
         36    2    1    2    0    0  0.00000000000E+00  0.00000000000E+00 -0.30102346978E+03  0.10451766297E+04  0.10008891337E+04 0.  0.
         25    2    3    3    0    0  0.27132225747E+02 -0.13374161102E+03 -0.26642861322E+02  0.18731973589E+03  0.12552236933E+03 0.  0.
         35    2    3    3    0    0 -0.27132225747E+02  0.13374161102E+03 -0.27438060846E+03  0.85785689378E+03  0.80125573678E+03 0.  0.
         22    1    5    5    0    0  0.76592131693E+02  0.79851872480E+02  0.27487108578E+03  0.29630523109E+03  0.00000000000E+00 0.  1.
         22    1    5    5    0    0 -0.10372435744E+03  0.53889738543E+02 -0.54925169424E+03  0.56155166269E+03  0.00000000000E+00 0.  1.
          5    1    4    4  502    0  0.20562531316E+02 -0.11133527958E+03 -0.73284633216E+02  0.13494847031E+03  0.47000000000E+01 0. -1.
         -5    1    4    4    0  502  0.65696944315E+01 -0.22406331447E+02  0.46641771894E+02  0.52371265588E+02  0.47000000000E+01 0. -1.
<mgrwt>
<rscale>  0 0.10008891E+04</rscale>
<asrwt>0</asrwt>
<pdfrwt beam="1">  1        1 0.10355385E+00 0.10008891E+04</pdfrwt>
<pdfrwt beam="2">  1       -1 0.57242551E-01 0.10008891E+04</pdfrwt>
<totfact> 0.10304729E+02</totfact>
</mgrwt>
</event>
<event>
 9    1  0.4296086E-036  0.1000033E+04  0.7818608E-02  0.8681006E-01
          2   -1    0    0  501    0  0.00000000000E+00  0.00000000000E+00  0.71348672456E+03  0.71348672456E+03  0.00000000000E+00 0.  1.
         -2   -1    0    0    0  501 -0.00000000000E+00 -0.00000000000E+00 -0.35041529822E+03  0.35041529822E+03  0.00000000000E+00 0.  1.
         36    2    1    2    0    0  0.14210854715E-13 -0.14210854715E-13  0.36307142634E+03  0.10639020228E+04  0.10000333262E+04 0.  0.
         25    2    3    3    0    0  0.46572180330E+02 -0.74511928601E+02  0.18339325803E+03  0.23862828446E+03  0.12485742096E+03 0.  0.
         35    2    3    3    0    0 -0.46572180330E+02  0.74511928601E+02  0.17967816831E+03  0.82527373831E+03  0.80066940962E+03 0.  0.
         22    1    5    5    0    0 -0.64775865369E+02  0.16995838334E+03  0.47804853821E+03  0.51148037078E+03  0.00000000000E+00 0.  1.
         22    1    5    5    0    0  0.18203685038E+02 -0.95446454735E+02 -0.29837036991E+03  0.31379336753E+03  0.00000000000E+00 0.  1.
          5    1    4    4  502    0  0.89602699346E+02 -0.50160916419E+02  0.11760711191E+03  0.15619950076E+03  0.47000000000E+01 0. -1.
         -5    1    4    4    0  502 -0.43030519016E+02 -0.24351012182E+02  0.65786146125E+02  0.82428783705E+02  0.47000000000E+01 0. -1.
<mgrwt>
<rscale>  0 0.10000333E+04</rscale>
<asrwt>0</asrwt>
<pdfrwt beam="1">  1        2 0.10976719E+00 0.10000333E+04</pdfrwt>
<pdfrwt beam="2">  1       -2 0.53910046E-01 0.10000333E+04</pdfrwt>
<totfact> 0.15686429E+02</totfact>
</mgrwt>
</event>
<event>
 9    1  0.4296086E-036  0.9999382E+03  0.7818608E-02  0.8681097E-01
          1   -1    0    0  501    0  0.00000000000E+00  0.00000000000E+00  0.10294223522E+04  0.10294223522E+04  0.00000000000E+00 0.  1.
         -1   -1    0    0    0  501 -0.00000000000E+00 -0.00000000000E+00 -0.24282462044E+03  0.24282462044E+03  0.00000000000E+00 0.  1.
         36    2    1    2    0    0  0.00000000000E+00  0.71054273576E-14  0.78659773175E+03  0.12722469726E+04  0.99993818198E+03 0.  0.
         25    2    3    3    0    0 -0.93160585836E+02  0.34466438243E+02  0.27427451994E+03  0.31830348995E+03  0.12737256106E+03 0.  0.
         35    2    3    3    0    0  0.93160585836E+02 -0.34466438243E+02  0.51232321182E+03  0.95394348268E+03  0.79854008332E+03 0.  0.
         22    1    5    5    0    0  0.23362215908E+01 -0.23408121743E+03  0.65280006816E+03  0.69350371540E+03  0.00000000000E+00 0. -1.
         22    1    5    5    0    0  0.90824364245E+02  0.19961477919E+03 -0.14047685635E+03  0.26043976728E+03  0.00000000000E+00 0. -1.
          5    1    4    4  502    0 -0.53829456334E+02  0.75286932831E+02  0.10662822316E+03  0.14127066432E+03  0.47000000000E+01 0. -1.
         -5    1    4    4    0  502 -0.39331129502E+02 -0.40820494588E+02  0.16764629678E+03  0.17703282563E+03  0.47000000000E+01 0. -1.
<mgrwt>
<rscale>  0 0.99993818E+03</rscale>
<asrwt>0</asrwt>
<pdfrwt beam="1">  1        1 0.15837267E+00 0.99993818E+03</pdfrwt>
<pdfrwt beam="2">  1       -1 0.37357634E-01 0.99993818E+03</pdfrwt>
<totfact> 0.11059098E+02</totfact>
</mgrwt>
</event>
<event>
 9    1  0.4296086E-036  0.1000337E+04  0.7818608E-02  0.8680717E-01
         -3   -1    0    0    0  501 -0.00000000000E+00  0.00000000000E+00  0.40787844013E+03  0.40787844013E+03  0.00000000000E+00 0.  1.
          3   -1    0    0  501    0  0.00000000000E+00 -0.00000000000E+00 -0.61334094835E+03  0.61334094835E+03  0.00000000000E+00 0.  1.
         36    2    1    2    0    0 -0.71054273576E-14 -0.53290705182E-14 -0.20546250822E+03  0.10212193885E+04  0.10003370418E+04 0.  0.
         25    2    3    3    0    0 -0.39000588296E+02 -0.12179267586E+02 -0.17547118175E+03  0.21935253893E+03  0.12512401953E+03 0.  0.
         35    2    3    3    0    0  0.39000588296E+02  0.12179267586E+02 -0.29991326469E+02  0.80186684956E+03  0.80026344682E+03 0.  0.
         22    1    5    5    0    0 -0.10353351930E+03  0.10378258602E+03 -0.38311257523E+03  0.41020148717E+03  0.00000000000E+00 0.  1.
         22    1    5    5    0    0  0.14253410759E+03 -0.91603318431E+02  0.35312124876E+03  0.39166536239E+03  0.00000000000E+00 0.  1.
          5    1    4    4  502    0  0.23781773517E+02  0.14163586177E+02  0.30400135361E+01  0.28240248003E+02  0.47000000000E+01 0.  1.
         -5    1    4    4    0  502 -0.62782361812E+02 -0.26342853764E+02 -0.17851119529E+03  0.19111229092E+03  0.47000000000E+01 0.  1.
<mgrwt>
<rscale>  0 0.10003370E+04</rscale>
<asrwt>0</asrwt>
<pdfrwt beam="1">  1        3 0.94360145E-01 0.10003370E+04</pdfrwt>
<pdfrwt beam="2">  1       -3 0.62750530E-01 0.10003370E+04</pdfrwt>
<totfact> 0.10141633E+01</totfact>
</mgrwt>
</event>
<event>
 9    1  0.4296086E-036  0.9969917E+03  0.7818608E-02  0.8683908E-01
         -3   -1    0    0    0  501 -0.00000000000E+00  0.00000000000E+00  0.75322714854E+03  0.75322714854E+03  0.00000000000E+00 0.  1.
          3   -1    0    0  501    0  0.00000000000E+00 -0.00000000000E+00 -0.32991125185E+03  0.32991125185E+03  0.00000000000E+00 0.  1.
         36    2    1    2    0    0  0.71054273576E-14 -0.28421709430E-13  0.42331589669E+03  0.10831384004E+04  0.99699169806E+03 0.  0.
         25    2    3    3    0    0  0.22359549029E+02 -0.12195733299E+03  0.14261736822E+03  0.22632491686E+03  0.12453800131E+03 0.  0.
         35    2    3    3    0    0 -0.22359549029E+02  0.12195733299E+03  0.28069852847E+03  0.85681348353E+03  0.79997758792E+03 0.  0.
         22    1    5    5    0    0  0.99676481804E+02 -0.24727837279E+03  0.37169699944E+03  0.45742830483E+03  0.00000000000E+00 0. -1.
         22    1    5    5    0    0 -0.12203603083E+03  0.36923570578E+03 -0.90998470970E+02  0.39938517870E+03  0.00000000000E+00 0. -1.
          5    1    4    4  502    0  0.61513011064E+02 -0.11422697909E+03  0.81843962521E+02  0.15346718700E+03  0.47000000000E+01 0.  1.
         -5    1    4    4    0  502 -0.39153462035E+02 -0.77303538965E+01  0.60773405698E+02  0.72857729863E+02  0.47000000000E+01 0.  1.
<mgrwt>
<rscale>  0 0.99699170E+03</rscale>
<asrwt>0</asrwt>
<pdfrwt beam="1">  1        3 0.50755577E-01 0.99699170E+03</pdfrwt>
<pdfrwt beam="2">  1       -3 0.11588110E+00 0.99699170E+03</pdfrwt>
<totfact> 0.84015413E+00</totfact>
</mgrwt>
</event>
<event>
 9    1  0.4296086E-036  0.1000204E+04  0.7818608E-02  0.8680843E-01
         -2   -1    0    0    0  501 -0.00000000000E+00  0.00000000000E+00  0.46626568225E+03  0.46626568225E+03  0.00000000000E+00 0. -1.
          2   -1    0    0  501    0  0.00000000000E+00 -0.00000000000E+00 -0.53639421084E+03  0.53639421084E+03  0.00000000000E+00 0. -1.
         36    2    1    2    0    0  0.00000000000E+00  0.71054273576E-14 -0.70128528587E+02  0.10026598931E+04  0.10002044044E+04 0.  0.
         25    2    3    3    0    0  0.13166183122E+03 -0.43020379512E+02 -0.30849055676E+02  0.18896356511E+03  0.12477970128E+03 0.  0.
         35    2    3    3    0    0 -0.13166183122E+03  0.43020379512E+02 -0.39279472911E+02  0.81369632797E+03  0.80085781904E+03 0.  0.
         22    1    5    5    0    0  0.10145082614E+03  0.75045317807E+02  0.34262405151E+03  0.36512369209E+03  0.00000000000E+00 0. -1.
         22    1    5    5    0    0 -0.23311265736E+03 -0.32024938295E+02 -0.38190352442E+03  0.44857263588E+03  0.00000000000E+00 0. -1.
          5    1    4    4  502    0  0.11373360626E+03 -0.83438751219E+02 -0.15786583911E+02  0.14201642380E+03  0.47000000000E+01 0. -1.
         -5    1    4    4    0  502  0.17928224958E+02  0.40418371706E+02 -0.15062471765E+02  0.46947141310E+02  0.47000000000E+01 0. -1.
<mgrwt>
<rscale>  0 0.10002044E+04</rscale>
<asrwt>0</asrwt>
<pdfrwt beam="1">  1        2 0.82522187E-01 0.10002044E+04</pdfrwt>
<pdfrwt beam="2">  1       -2 0.71733182E-01 0.10002044E+04</pdfrwt>
<totfact> 0.12081298E+02</totfact>
</mgrwt>
</event>
<event>
 9    1  0.4296086E-036  0.1000637E+04  0.7818608E-02  0.8680432E-01
         -2   -1    0    0    0  501 -0.00000000000E+00  0.00000000000E+00  0.47064008652E+03  0.47064008652E+03  0.00000000000E+00 0. -1.
          2   -1    0    0  501    0  0.00000000000E+00 -0.00000000000E+00 -0.53186844998E+03  0.53186844998E+03  0.00000000000E+00 0. -1.
         36    2    1    2    0    0  0.00000000000E+00 -0.14210854715E-13 -0.61228363458E+02  0.10025085365E+04  0.10006370237E+04 0.  0.
         25    2    3    3    0    0  0.10094280691E+03  0.64439962596E+02 -0.85096119515E+02  0.19305981040E+03  0.12525486732E+03 0.  0.
         35    2    3    3    0    0 -0.10094280691E+03 -0.64439962596E+02  0.23867756057E+02  0.80944872611E+03  0.80018473578E+03 0.  0.
         22    1    5    5    0    0 -0.39872692008E+03  0.15105871782E+03  0.90493130945E+02  0.43587945556E+03  0.00000000000E+00 0. -1.
         22    1    5    5    0    0  0.29778411317E+03 -0.21549868042E+03 -0.66625374888E+02  0.37356927055E+03  0.00000000000E+00 0. -1.
          5    1    4    4  502    0  0.64340939134E+02  0.10188193572E+03 -0.55748248627E+02  0.13285195708E+03  0.47000000000E+01 0.  1.
         -5    1    4    4    0  502  0.36601867778E+02 -0.37441973120E+02 -0.29347870888E+02  0.60207853322E+02  0.47000000000E+01 0.  1.
<mgrwt>
<rscale>  0 0.10006370E+04</rscale>
<asrwt>0</asrwt>
<pdfrwt beam="1">  1        2 0.81825915E-01 0.10006370E+04</pdfrwt>
<pdfrwt beam="2">  1       -2 0.72406167E-01 0.10006370E+04</pdfrwt>
<totfact> 0.11952868E+02</totfact>
</mgrwt>
</event>
<event>
 9    1  0.4296086E-036  0.9998578E+03  0.7818608E-02  0.8681173E-01
          2   -1    0    0  501    0  0.00000000000E+00  0.00000000000E+00  0.16476124462E+04  0.16476124462E+04  0.00000000000E+00 0.  1.
         -2   -1    0    0    0  501 -0.00000000000E+00 -0.00000000000E+00 -0.15169157643E+03  0.15169157643E+03  0.00000000000E+00 0.  1.
         36    2    1    2    0    0  0.00000000000E+00 -0.14210854715E-13  0.14959208698E+04  0.17993040227E+04  0.99985784852E+03 0.  0.
         25    2    3    3    0    0 -0.11988164011E+03  0.72689595931E+02  0.31152698066E+03  0.36348320648E+03  0.12415956155E+03 0.  0.
         35    2    3    3    0    0  0.11988164011E+03 -0.72689595931E+02  0.11843938891E+04  0.14358208162E+04  0.79946053469E+03 0.  0.
         22    1    5    5    0    0  0.19193235911E+03  0.33366874167E+03  0.43945523087E+03  0.58420352582E+03  0.00000000000E+00 0.  1.
         22    1    5    5    0    0 -0.72050718997E+02 -0.40635833760E+03  0.74493865827E+03  0.85161729035E+03  0.00000000000E+00 0.  1.
          5    1    4    4  502    0 -0.97447319626E+02  0.96457863446E+02  0.17154031913E+03  0.21965488980E+03  0.47000000000E+01 0.  1.
         -5    1    4    4    0  502 -0.22434320486E+02 -0.23768267515E+02  0.13998666152E+03  0.14382831669E+03  0.47000000000E+01 0.  1.
<mgrwt>
<rscale>  0 0.99985785E+03</rscale>
<asrwt>0</asrwt>
<pdfrwt beam="1">  1        2 0.25347883E+00 0.99985785E+03</pdfrwt>
<pdfrwt beam="2">  1       -2 0.23337167E-01 0.99985785E+03</pdfrwt>
<totfact> 0.20259300E+02</totfact>
</mgrwt>
</event>
<event>
 9    1  0.4296086E-036  0.9945047E+03  0.7818608E-02  0.8686289E-01
         -1   -1    0    0    0  501 -0.00000000000E+00  0.00000000000E+00  0.27163346686E+03  0.27163346686E+03  0.00000000000E+00 0.  1.
          1   -1    0    0  501    0  0.00000000000E+00 -0.00000000000E+00 -0.91027045192E+03  0.91027045192E+03  0.00000000000E+00 0.  1.
         36    2    1    2    0    0 -0.14210854715E-13 -0.28421709430E-13 -0.63863698506E+03  0.11819039188E+04  0.99450473831E+03 0.  0.
         25    2    3    3    0    0  0.90872687880E+02  0.98459477885E+02 -0.97075715904E+02  0.20673990469E+03  0.12395797428E+03 0.  0.
         35    2    3    3    0    0 -0.90872687880E+02 -0.98459477885E+02 -0.54156126916E+03  0.97516401408E+03  0.79981506107E+03 0.  0.
         22    1    5    5    0    0 -0.16139805318E+03 -0.22034859210E+03 -0.70698858168E+03  0.75791535691E+03  0.00000000000E+00 0.  1.
         22    1    5    5    0    0  0.70525365304E+02  0.12188911422E+03  0.16542731252E+03  0.21724865717E+03  0.00000000000E+00 0.  1.
          5    1    4    4  502    0  0.21158938820E+02  0.10227554066E+03 -0.87061867073E+02  0.13605089344E+03  0.47000000000E+01 0. -1.
         -5    1    4    4    0  502  0.69713749060E+02 -0.38160627725E+01 -0.10013848830E+02  0.70689011250E+02  0.47000000000E+01 0. -1.
<mgrwt>
<rscale>  0 0.99450474E+03</rscale>
<asrwt>0</asrwt>
<pdfrwt beam="1">  1        1 0.14004161E+00 0.99450474E+03</pdfrwt>
<pdfrwt beam="2">  1       -1 0.41789764E-01 0.99450474E+03</pdfrwt>
<totfact> 0.11307897E+02</totfact>
</mgrwt>
</event>
<event>
 9    1  0.4296086E-036  0.9996902E+03  0.7818608E-02  0.8681333E-01
          2   -1    0    0  501    0  0.00000000000E+00  0.00000000000E+00  0.90802239769E+03  0.90802239769E+03  0.00000000000E+00 0. -1.
         -2   -1    0    0    0  501 -0.00000000000E+00 -0.00000000000E+00 -0.27515305798E+03  0.27515305798E+03  0.00000000000E+00 0. -1.
         36    2    1    2    0    0 -0.56843418861E-13  0.00000000000E+00  0.63286933970E+03  0.11831754557E+04  0.99969023091E+03 0.  0.
         25    2    3    3    0    0 -0.12398443397E+03 -0.59162178171E+02  0.13637381570E+03  0.23127296680E+03  0.12655854127E+03 0.  0.
         35    2    3    3    0    0  0.12398443397E+03  0.59162178171E+02  0.49649552400E+03  0.95190248888E+03  0.80046126688E+03 0.  0.
         22    1    5    5    0    0  0.27326422317E+03  0.56903118621E+02 -0.12996349392E+03  0.30789902619E+03  0.00000000000E+00 0. -1.
         22    1    5    5    0    0 -0.14927978920E+03  0.22590595495E+01  0.62645901793E+03  0.64400346269E+03  0.00000000000E+00 0. -1.
          5    1    4    4  502    0 -0.85903201704E+02 -0.61517292640E+02  0.18602842705E+02  0.10738665240E+03  0.47000000000E+01 0.  1.
         -5    1    4    4    0  502 -0.38081232270E+02  0.23551144698E+01  0.11777097299E+03  0.12388631440E+03  0.47000000000E+01 0.  1.
<mgrwt>
<rscale>  0 0.99969023E+03</rscale>
<asrwt>0</asrwt>
<pdfrwt beam="1">  1        2 0.13969575E+00 0.99969023E+03</pdfrwt>
<pdfrwt beam="2">  1       -2 0.42331240E-01 0.99969023E+03</pdfrwt>
<totfact> 0.18529035E+02</totfact>
</mgrwt>
</event>
<event>
 9    1  0.4296086E-036  0.1000526E+04  0.7818608E-02  0.8680537E-01
          1   -1    0    0  501    0  0.00000000000E+00  0.00000000000E+00  0.43191352994E+03  0.43191352994E+03  0.00000000000E+00 0. -1.
         -1   -1    0    0    0  501 -0.00000000000E+00 -0.00000000000E+00 -0.57942881483E+03  0.57942881483E+03  0.00000000000E+00 0. -1.
         36    2    1    2    0    0 -0.14210854715E-13 -0.14210854715E-13 -0.14751528488E+03  0.10113423448E+04  0.10005261511E+04 0.  0.
         25    2    3    3    0    0 -0.11709780193E+03  0.36188410860E+02 -0.89311888379E+02  0.19755422136E+03  0.12660790131E+03 0.  0.
         35    2    3    3    0    0  0.11709780193E+03 -0.36188410860E+02 -0.58203396506E+02  0.81378812341E+03  0.80239764341E+03 0.  0.
         22    1    5    5    0    0  0.28979963243E+02  0.20942603580E+03 -0.35835071057E+03  0.41607010768E+03  0.00000000000E+00 0. -1.
         22    1    5    5    0    0  0.88117838686E+02 -0.24561444666E+03  0.30014731406E+03  0.39771801573E+03  0.00000000000E+00 0. -1.
          5    1    4    4  502    0 -0.42460002858E+01  0.27957662615E+02 -0.78759973938E+02  0.83814574580E+02  0.47000000000E+01 0.  1.
         -5    1    4    4    0  502 -0.11285180164E+03  0.82307482453E+01 -0.10551914440E+02  0.11373964678E+03  0.47000000000E+01 0.  1.
<mgrwt>
<rscale>  0 0.10005262E+04</rscale>
<asrwt>0</asrwt>
<pdfrwt beam="1">  1        1 0.66448235E-01 0.10005262E+04</pdfrwt>
<pdfrwt beam="2">  1       -1 0.89142895E-01 0.10005262E+04</pdfrwt>
<totfact> 0.79420926E+01</totfact>
</mgrwt>
</event>
<event>
 9    1  0.4296086E-036  0.1000963E+04  0.7818608E-02  0.8680121E-01
          2   -1    0    0  501    0  0.00000000000E+00  0.00000000000E+00  0.97433372801E+03  0.97433372801E+03  0.00000000000E+00 0.  1.
         -2   -1    0    0    0  501 -0.00000000000E+00 -0.00000000000E+00 -0.25708012593E+03  0.25708012593E+03  0.00000000000E+00 0.  1.
         36    2    1    2    0    0  0.14210854715E-13  0.00000000000E+00  0.71725360208E+03  0.12314138539E+04  0.10009632111E+04 0.  0.
         25    2    3    3    0    0  0.12134675970E+03 -0.12687364182E+02  0.22337460587E+03  0.28250617629E+03  0.12258678475E+03 0.  0.
         35    2    3    3    0    0 -0.12134675970E+03  0.12687364182E+02  0.49387899621E+03  0.94890767764E+03  0.80101392778E+03 0.  0.
         22    1    5    5    0    0 -0.20918127568E+03  0.35166662929E+03  0.42886582592E+03  0.59274962750E+03  0.00000000000E+00 0. -1.
         22    1    5    5    0    0  0.87834515985E+02 -0.33897926511E+03  0.65013170285E+02  0.35615805014E+03  0.00000000000E+00 0. -1.
          5    1    4    4  502    0  0.11094952905E+03 -0.42035664048E+02  0.22106223466E+03  0.25093305211E+03  0.47000000000E+01 0. -1.
         -5    1    4    4    0  502  0.10397230647E+02  0.29348299866E+02  0.23123712172E+01  0.31573124185E+02  0.47000000000E+01 0. -1.
<mgrwt>
<rscale>  0 0.10009632E+04</rscale>
<asrwt>0</asrwt>
<pdfrwt beam="1">  1        2 0.14989749E+00 0.10009632E+04</pdfrwt>
<pdfrwt beam="2">  1       -2 0.39550789E-01 0.10009632E+04</pdfrwt>
<totfact> 0.19133223E+02</totfact>
</mgrwt>
</event>
<event>
 9    1  0.4296086E-036  0.1000624E+04  0.7818608E-02  0.8680444E-01
         -1   -1    0    0    0  501 -0.00000000000E+00  0.00000000000E+00  0.27110395613E+03  0.27110395613E+03  0.00000000000E+00 0.  1.
          1   -1    0    0  501    0  0.00000000000E+00 -0.00000000000E+00 -0.92330633498E+03  0.92330633498E+03  0.00000000000E+00 0.  1.
         36    2    1    2    0    0 -0.28421709430E-13  0.00000000000E+00 -0.65220237885E+03  0.11944102911E+04  0.10006238057E+04 0.  0.
         25    2    3    3    0    0 -0.13113760892E+03 -0.40824758562E+02 -0.15351050361E+03  0.24203161526E+03  0.12708302280E+03 0.  0.
         35    2    3    3    0    0  0.13113760892E+03  0.40824758562E+02 -0.49869187524E+03  0.95237867584E+03  0.79966731981E+03 0.  0.
         22    1    5    5    0    0 -0.15533020174E+03 -0.12526702494E+03  0.13254729134E+03  0.23955810058E+03  0.00000000000E+00 0. -1.
         22    1    5    5    0    0  0.28646781067E+03  0.16609178350E+03 -0.63123916658E+03  0.71282057526E+03  0.00000000000E+00 0. -1.
          5    1    4    4  502    0 -0.14260805301E+03 -0.20674755588E+02 -0.16202901938E+03  0.21688705684E+03  0.47000000000E+01 0. -1.
         -5    1    4    4    0  502  0.11470444087E+02 -0.20150002974E+02  0.85185157737E+01  0.25144558425E+02  0.47000000000E+01 0. -1.
<mgrwt>
<rscale>  0 0.10006238E+04</rscale>
<asrwt>0</asrwt>
<pdfrwt beam="1">  1        1 0.14204713E+00 0.10006238E+04</pdfrwt>
<pdfrwt beam="2">  1       -1 0.41708300E-01 0.10006238E+04</pdfrwt>
<totfact> 0.11063771E+02</totfact>
</mgrwt>
</event>
<event>
 9    1  0.4296086E-036  0.9982953E+03  0.7818608E-02  0.8682663E-01
          1   -1    0    0  501    0  0.00000000000E+00  0.00000000000E+00  0.18069823395E+03  0.18069823395E+03  0.00000000000E+00 0. -1.
         -1   -1    0    0    0  501 -0.00000000000E+00 -0.00000000000E+00 -0.13788092416E+04  0.13788092416E+04  0.00000000000E+00 0. -1.
         36    2    1    2    0    0  0.56843418861E-13  0.14210854715E-13 -0.11981110077E+04  0.15595074756E+04  0.99829533689E+03 0.  0.
         25    2    3    3    0    0 -0.10921040423E+03 -0.43763074470E+02 -0.12480102010E+03  0.21594081739E+03  0.13119841049E+03 0.  0.
         35    2    3    3    0    0  0.10921040423E+03  0.43763074470E+02 -0.10733099876E+04  0.13435666582E+04  0.79958421476E+03 0.  0.
         22    1    5    5    0    0 -0.26799181794E+03 -0.20389501734E+03 -0.61033821036E+03  0.69706923874E+03  0.00000000000E+00 0. -1.
         22    1    5    5    0    0  0.37720222218E+03  0.24765809181E+03 -0.46297177720E+03  0.64649741944E+03  0.00000000000E+00 0. -1.
          5    1    4    4  502    0  0.25070669224E+02 -0.22387257474E+01  0.31660918988E+01  0.25800474535E+02  0.47000000000E+01 0. -1.
         -5    1    4    4    0  502 -0.13428107346E+03 -0.41524348722E+02 -0.12796711200E+03  0.19014034285E+03  0.47000000000E+01 0. -1.
<mgrwt>
<rscale>  0 0.99829534E+03</rscale>
<asrwt>0</asrwt>
<pdfrwt beam="1">  1        1 0.27799728E-01 0.99829534E+03</pdfrwt>
<pdfrwt beam="2">  1       -1 0.21212450E+00 0.99829534E+03</pdfrwt>
<totfact> 0.20836149E+01</totfact>
</mgrwt>
</event>
<event>
 9    1  0.4296086E-036  0.1000442E+04  0.7818608E-02  0.8680617E-01
         -1   -1    0    0    0  501 -0.00000000000E+00  0.00000000000E+00  0.99900181668E+02  0.99900181668E+02  0.00000000000E+00 0. -1.
          1   -1    0    0  501    0  0.00000000000E+00 -0.00000000000E+00 -0.25047106310E+04  0.25047106310E+04  0.00000000000E+00 0. -1.
         36    2    1    2    0    0  0.00000000000E+00  0.56843418861E-13 -0.24048104493E+04  0.26046108127E+04  0.10004419964E+04 0.  0.
         25    2    3    3    0    0 -0.10777498364E+02 -0.12842016115E+03 -0.30219513539E+03  0.35131901717E+03  0.12447995707E+03 0.  0.
         35    2    3    3    0    0  0.10777498364E+02  0.12842016115E+03 -0.21026153139E+04  0.22532917955E+04  0.79982802212E+03 0.  0.
         22    1    5    5    0    0 -0.14113058670E+01  0.41987983754E+03 -0.17291542126E+04  0.17794030912E+04  0.00000000000E+00 0. -1.
         22    1    5    5    0    0  0.12188804231E+02 -0.29145967639E+03 -0.37346110130E+03  0.47388870433E+03  0.00000000000E+00 0. -1.
          5    1    4    4  502    0 -0.51918144098E+02 -0.24104978206E+02 -0.53584663071E+02  0.78549027858E+02  0.47000000000E+01 0. -1.
         -5    1    4    4    0  502  0.41140645734E+02 -0.10431518294E+03 -0.24861047232E+03  0.27276998931E+03  0.47000000000E+01 0. -1.
<mgrwt>
<rscale>  0 0.10004420E+04</rscale>
<asrwt>0</asrwt>
<pdfrwt beam="1">  1        1 0.38534014E+00 0.10004420E+04</pdfrwt>
<pdfrwt beam="2">  1       -1 0.15369257E-01 0.10004420E+04</pdfrwt>
<totfact> 0.43322177E+01</totfact>
</mgrwt>
</event>
<event>
 9    1 -0.4296086E-036  0.1003294E+04  0.7818608E-02  0.8677908E-01
          1   -1    0    0  501    0  0.00000000000E+00  0.00000000000E+00  0.71370042392E+02  0.71370042392E+02  0.00000000000E+00 0. -1.
         -1   -1    0    0    0  501 -0.00000000000E+00 -0.00000000000E+00 -0.35259818435E+04  0.35259818435E+04  0.00000000000E+00 0. -1.
         36    2    1    2    0    0  0.71054273576E-14  0.00000000000E+00 -0.34546118011E+04  0.35973518859E+04  0.10032935236E+04 0.  0.
         25    2    3    3    0    0  0.48425733722E+02 -0.33269943120E+02 -0.18565261990E+03  0.23140057743E+03  0.12500956426E+03 0.  0.
         35    2    3    3    0    0 -0.48425733722E+02  0.33269943120E+02 -0.32689591812E+04  0.33659513085E+04  0.80005133695E+03 0.  0.
         22    1    5    5    0    0 -0.26820661723E+03  0.21393606610E+03 -0.68236576462E+03  0.76375812050E+03  0.00000000000E+00 0. -1.
         22    1    5    5    0    0  0.21978088351E+03 -0.18066612298E+03 -0.25865934166E+04  0.26021931879E+04  0.00000000000E+00 0. -1.
          5    1    4    4  502    0  0.85778019551E+02 -0.86363234253E+01 -0.15345354204E+03  0.17607536535E+03  0.47000000000E+01 0.  1.
         -5    1    4    4    0  502 -0.37352285828E+02 -0.24633619695E+02 -0.32199077867E+02  0.55325212076E+02  0.47000000000E+01 0.  1.
<mgrwt>
<rscale>  0 0.10032935E+04</rscale>
<asrwt>0</asrwt>
<pdfrwt beam="1">  1        1 0.10980007E-01 0.10032935E+04</pdfrwt>
<pdfrwt beam="2">  1       -1 0.54245871E+00 0.10032935E+04</pdfrwt>
<totfact>-0.26951424E+00</totfact>
</mgrwt>
</event>
<event>
 9    1  0.4296086E-036  0.1000591E+04  0.7818608E-02  0.8680475E-01
         -2   -1    0    0    0  501 -0.00000000000E+00  0.00000000000E+00  0.20289775443E+03  0.20289775443E+03  0.00000000000E+00 0.  1.
          2   -1    0    0  501    0  0.00000000000E+00 -0.00000000000E+00 -0.12336046016E+04  0.12336046016E+04  0.00000000000E+00 0.  1.
         36    2    1    2    0    0 -0.14210854715E-13  0.42632564146E-13 -0.10307068471E+04  0.14365023560E+04  0.10005910324E+04 0.  0.
         25    2    3    3    0    0 -0.53901502478E+02 -0.37577557797E+02 -0.37245394625E+03  0.39812280698E+03  0.12434782888E+03 0.  0.
         35    2    3    3    0    0  0.53901502478E+02  0.37577557797E+02 -0.65825290090E+03  0.10383795490E+04  0.80038600779E+03 0.  0.
         22    1    5    5    0    0  0.27725364576E+03 -0.29341423062E+03 -0.32305931123E+03  0.51703850282E+03  0.00000000000E+00 0. -1.
         22    1    5    5    0    0 -0.22335214329E+03  0.33099178841E+03 -0.33519358966E+03  0.52134104621E+03  0.00000000000E+00 0. -1.
          5    1    4    4  502    0 -0.32878458321E+02 -0.40229413072E+02 -0.37278315412E+03  0.37641568603E+03  0.47000000000E+01 0.  1.
         -5    1    4    4    0  502 -0.21023044157E+02  0.26518552755E+01  0.32920787427E+00  0.21707120948E+02  0.47000000000E+01 0.  1.
<mgrwt>
<rscale>  0 0.10005910E+04</rscale>
<asrwt>0</asrwt>
<pdfrwt beam="1">  1        2 0.18978533E+00 0.10005910E+04</pdfrwt>
<pdfrwt beam="2">  1       -2 0.31215039E-01 0.10005910E+04</pdfrwt>
<totfact> 0.20719553E+02</totfact>
</mgrwt>
</event>
<event>
 9    1  0.4296086E-036  0.9998933E+03  0.7818608E-02  0.8681140E-01
          2   -1    0    0  501    0  0.00000000000E+00  0.00000000000E+00  0.27720058756E+04  0.27720058756E+04  0.00000000000E+00 0. -1.
         -2   -1    0    0    0  501 -0.00000000000E+00 -0.00000000000E+00 -0.90168151407E+02  0.90168151407E+02  0.00000000000E+00 0. -1.
         36    2    1    2    0    0 -0.14210854715E-13  0.71054273576E-14  0.26818377242E+04  0.28621740271E+04  0.99989328530E+03 0.  0.
         25    2    3    3    0    0 -0.46157397704E+02  0.19893315899E+02  0.12024403960E+03  0.18093125479E+03  0.12550394624E+03 0.  0.
         35    2    3    3    0    0  0.46157397704E+02 -0.19893315899E+02  0.25615936846E+04  0.26812427723E+04  0.79042668809E+03 0.  0.
         22    1    5    5    0    0 -0.84679615258E+02  0.37055218746E+03  0.12048912986E+04  0.12634249493E+04  0.00000000000E+00 0. -1.
         22    1    5    5    0    0  0.13083701296E+03 -0.39044550336E+03  0.13567023860E+04  0.14178178230E+04  0.00000000000E+00 0. -1.
          5    1    4    4  502    0  0.13872082691E+02  0.44921591711E+02  0.37107510577E+01  0.47394554048E+02  0.47000000000E+01 0.  1.
         -5    1    4    4    0  502 -0.60029480394E+02 -0.25028275812E+02  0.11653328855E+03  0.13353670075E+03  0.47000000000E+01 0.  1.
<mgrwt>
<rscale>  0 0.99989329E+03</rscale>
<asrwt>0</asrwt>
<pdfrwt beam="1">  1        2 0.42646238E+00 0.99989329E+03</pdfrwt>
<pdfrwt beam="2">  1       -2 0.13872025E-01 0.99989329E+03</pdfrwt>
<totfact> 0.10741038E+02</totfact>
</mgrwt>
</event>
<event>
 9    1  0.4296086E-036  0.9998569E+03  0.7818608E-02  0.8681174E-01
         -2   -1    0    0    0  501 -0.00000000000E+00  0.00000000000E+00  0.19501358469E+03  0.19501358469E+03  0.00000000000E+00 0.  1.
          2   -1    0    0  501    0  0.00000000000E+00 -0.00000000000E+00 -0.12815950878E+04  0.12815950878E+04  0.00000000000E+00 0.  1.
         36    2    1    2    0    0 -0.28421709430E-13  0.28421709430E-13 -0.10865815031E+04  0.14766086725E+04  0.99985689413E+03 0.  0.
         25    2    3    3    0    0 -0.70884968652E+02  0.77988048612E+02 -0.68484647988E+02  0.17767007216E+03  0.12557743836E+03 0.  0.
         35    2    3    3    0    0  0.70884968652E+02 -0.77988048612E+02 -0.10180968551E+04  0.12989386003E+04  0.79975838006E+03 0.  0.
         22    1    5    5    0    0 -0.79574169130E+02  0.27455010737E+03 -0.81809013140E+03  0.86659175679E+03  0.00000000000E+00 0. -1.
         22    1    5    5    0    0  0.15045913778E+03 -0.35253815599E+03 -0.20000672371E+03  0.43234684352E+03  0.00000000000E+00 0. -1.
          5    1    4    4  502    0 -0.29847510967E+02  0.14912594577E+02  0.35684036421E+02  0.49078506938E+02  0.47000000000E+01 0.  1.
         -5    1    4    4    0  502 -0.41037457685E+02  0.63075454034E+02 -0.10416868441E+03  0.12859156522E+03  0.47000000000E+01 0.  1.
<mgrwt>
<rscale>  0 0.99985689E+03</rscale>
<asrwt>0</asrwt>
<pdfrwt beam="1">  1        2 0.19716847E+00 0.99985689E+03</pdfrwt>
<pdfrwt beam="2">  1       -2 0.30002091E-01 0.99985689E+03</pdfrwt>
<totfact> 0.20884117E+02</totfact>
</mgrwt>
</event>
<event>
 9    1  0.4296086E-036  0.1003112E+04  0.7818608E-02  0.8678080E-01
         -2   -1    0    0    0  501 -0.00000000000E+00  0.00000000000E+00  0.12179620578E+03  0.12179620578E+03  0.00000000000E+00 0.  1.
          2   -1    0    0  501    0  0.00000000000E+00 -0.00000000000E+00 -0.20654060203E+04  0.20654060203E+04  0.00000000000E+00 0.  1.
         36    2    1    2    0    0  0.14210854715E-13  0.00000000000E+00 -0.19436098145E+04  0.21872022261E+04  0.10031123899E+04 0.  0.
         25    2    3    3    0    0  0.11769191256E+03 -0.82111564604E+02 -0.38457809500E+03  0.42926234491E+03  0.12558723774E+03 0.  0.
         35    2    3    3    0    0 -0.11769191256E+03  0.82111564604E+02 -0.15590317195E+04  0.17579398812E+04  0.79948672786E+03 0.  0.
         22    1    5    5    0    0  0.95684950278E+02  0.26646704496E+03 -0.14890617424E+03  0.31989583381E+03  0.00000000000E+00 0. -1.
         22    1    5    5    0    0 -0.21337686284E+03 -0.18435548035E+03 -0.14101255453E+04  0.14380440474E+04  0.00000000000E+00 0. -1.
          5    1    4    4  502    0  0.12607481892E+03 -0.70106188620E+02 -0.21478856956E+03  0.25877781447E+03  0.47000000000E+01 0.  1.
         -5    1    4    4    0  502 -0.83829063580E+01 -0.12005375984E+02 -0.16978952544E+03  0.17048453044E+03  0.47000000000E+01 0.  1.
<mgrwt>
<rscale>  0 0.10031124E+04</rscale>
<asrwt>0</asrwt>
<pdfrwt beam="1">  1        2 0.31775477E+00 0.10031124E+04</pdfrwt>
<pdfrwt beam="2">  1       -2 0.18737878E-01 0.10031124E+04</pdfrwt>
<totfact> 0.17209948E+02</totfact>
</mgrwt>
</event>
<event>
 9    1  0.4296086E-036  0.9998004E+03  0.7818608E-02  0.8681228E-01
         -2   -1    0    0    0  501 -0.00000000000E+00  0.00000000000E+00  0.13708969632E+03  0.13708969632E+03  0.00000000000E+00 0.  1.
          2   -1    0    0  501    0  0.00000000000E+00 -0.00000000000E+00 -0.18228956744E+04  0.18228956744E+04  0.00000000000E+00 0.  1.
         36    2    1    2    0    0 -0.21316282073E-13  0.14210854715E-13 -0.16858059781E+04  0.19599853707E+04  0.99980040892E+03 0.  0.
         25    2    3    3    0    0  0.39254839234E+02 -0.40761011949E+02 -0.66489243418E+02  0.15287682241E+03  0.12549143732E+03 0.  0.
         35    2    3    3    0    0 -0.39254839234E+02  0.40761011949E+02 -0.16193167347E+04  0.18071085483E+04  0.80015761928E+03 0.  0.
         22    1    5    5    0    0  0.34142546070E+03  0.33966748515E+02 -0.38643890115E+03  0.51677858851E+03  0.00000000000E+00 0.  1.
         22    1    5    5    0    0 -0.38068029993E+03  0.67942634342E+01 -0.12328778335E+04  0.12903299598E+04  0.00000000000E+00 0.  1.
          5    1    4    4  502    0  0.64702254811E+02 -0.64168809326E+02 -0.73642157641E+02  0.11725730361E+03  0.47000000000E+01 0. -1.
         -5    1    4    4    0  502 -0.25447415577E+02  0.23407797377E+02  0.71529142233E+01  0.35619518799E+02  0.47000000000E+01 0. -1.
<mgrwt>
<rscale>  0 0.99980041E+03</rscale>
<asrwt>0</asrwt>
<pdfrwt beam="1">  1        2 0.28044547E+00 0.99980041E+03</pdfrwt>
<pdfrwt beam="2">  1       -2 0.21090724E-01 0.99980041E+03</pdfrwt>
<totfact> 0.19263201E+02</totfact>
</mgrwt>
</event>
<event>
 9    1  0.4296086E-036  0.1000050E+04  0.7818608E-02  0.8680990E-01
          2   -1    0    0  501    0  0.00000000000E+00  0.00000000000E+00  0.19976798983E+04  0.19976798983E+04  0.00000000000E+00 0.  1.
         -2   -1    0    0    0  501 -0.00000000000E+00 -0.00000000000E+00 -0.12515765107E+03  0.12515765107E+03  0.00000000000E+00 0.  1.
         36    2    1    2    0    0  0.00000000000E+00  0.14210854715E-13  0.18725222472E+04  0.21228375493E+04  0.10000498461E+04 0.  0.
         25    2    3    3    0    0  0.13373929034E+03 -0.27517731477E+02  0.29102561529E+03  0.34487860687E+03  0.12490765149E+03 0.  0.
         35    2    3    3    0    0 -0.13373929034E+03  0.27517731477E+02  0.15814966319E+04  0.17779589425E+04  0.80085141006E+03 0.  0.
         22    1    5    5    0    0  0.33552727350E+02  0.37725323703E+03  0.48772941090E+03  0.61751580435E+03  0.00000000000E+00 0. -1.
         22    1    5    5    0    0 -0.16729201768E+03 -0.34973550556E+03  0.10937672210E+04  0.11604431381E+04  0.00000000000E+00 0. -1.
          5    1    4    4  502    0  0.41673314763E+02  0.24857285543E+02  0.17963745796E+02  0.51955134211E+02  0.47000000000E+01 0. -1.
         -5    1    4    4    0  502  0.92065975572E+02 -0.52375017020E+02  0.27306186949E+03  0.29292347266E+03  0.47000000000E+01 0. -1.
<mgrwt>
<rscale>  0 0.10000498E+04</rscale>
<asrwt>0</asrwt>
<pdfrwt beam="1">  1        2 0.30733534E+00 0.10000498E+04</pdfrwt>
<pdfrwt beam="2">  1       -2 0.19255025E-01 0.10000498E+04</pdfrwt>
<totfact> 0.17953286E+02</totfact>
</mgrwt>
</event>
<event>
 9    1  0.4296086E-036  0.1000328E+04  0.7818608E-02  0.8680726E-01
         -2   -1    0    0    0  501 -0.00000000000E+00  0.00000000000E+00  0.56321649049E+03  0.56321649049E+03  0.00000000000E+00 0.  1.
          2   -1    0    0  501    0  0.00000000000E+00 -0.00000000000E+00 -0.44416984221E+03  0.44416984221E+03  0.00000000000E+00 0.  1.
         36    2    1    2    0    0  0.14210854715E-13 -0.10658141036E-13  0.11904664828E+03  0.10073863327E+04  0.10003275058E+04 0.  0.
         25    2    3    3    0    0 -0.71937939701E+02 -0.11483683251E+02 -0.95752957512E+02  0.17375858246E+03  0.12536536186E+03 0.  0.
         35    2    3    3    0    0  0.71937939701E+02  0.11483683251E+02  0.21479960579E+03  0.83362775024E+03  0.80217791865E+03 0.  0.
         22    1    5    5    0    0 -0.57795460812E+02  0.37116475110E+03  0.24753945244E+03  0.44986594477E+03  0.00000000000E+00 0.  1.
         22    1    5    5    0    0  0.12973340051E+03 -0.35968106785E+03 -0.32739846649E+02  0.38376180547E+03  0.00000000000E+00 0.  1.
          5    1    4    4  502    0 -0.55462415613E+02  0.31886456290E+02 -0.10793841115E+03  0.12556120516E+03  0.47000000000E+01 0.  1.
         -5    1    4    4    0  502 -0.16475524088E+02 -0.43370139541E+02  0.12185453637E+02  0.48197377295E+02  0.47000000000E+01 0.  1.
<mgrwt>
<rscale>  0 0.10003275E+04</rscale>
<asrwt>0</asrwt>
<pdfrwt beam="1">  1        2 0.68333821E-01 0.10003275E+04</pdfrwt>
<pdfrwt beam="2">  1       -2 0.86648692E-01 0.10003275E+04</pdfrwt>
<totfact> 0.97506448E+01</totfact>
</mgrwt>
</event>
<event>
 9    1  0.4296086E-036  0.9996093E+03  0.7818608E-02  0.8681410E-01
          2   -1    0    0  501    0  0.00000000000E+00  0.00000000000E+00  0.51873700322E+03  0.51873700322E+03  0.00000000000E+00 0. -1.
         -2   -1    0    0    0  501 -0.00000000000E+00 -0.00000000000E+00 -0.48156329953E+03  0.48156329953E+03  0.00000000000E+00 0. -1.
         36    2    1    2    0    0  0.00000000000E+00 -0.14210854715E-13  0.37173703691E+02  0.10003003028E+04  0.99960932941E+03 0.  0.
         25    2    3    3    0    0 -0.40765744177E+02  0.77403570147E+02 -0.10451338306E+03  0.18362225477E+03  0.12304847271E+03 0.  0.
         35    2    3    3    0    0  0.40765744177E+02 -0.77403570147E+02  0.14168708675E+03  0.81667804798E+03  0.79952150999E+03 0.  0.
         22    1    5    5    0    0 -0.26137599955E+03  0.76369978292E+02 -0.19805976692E+03  0.33671569313E+03  0.00000000000E+00 0. -1.
         22    1    5    5    0    0  0.30214174373E+03 -0.15377354844E+03  0.33974685367E+03  0.47996235486E+03  0.00000000000E+00 0. -1.
          5    1    4    4  502    0 -0.21800440623E+01  0.94468680654E+02 -0.10477436187E+03  0.14116954743E+03  0.47000000000E+01 0.  1.
         -5    1    4    4    0  502 -0.38585700115E+02 -0.17065110507E+02  0.26097881204E+00  0.42452707333E+02  0.47000000000E+01 0.  1.
<mgrwt>
<rscale>  0 0.99960933E+03</rscale>
<asrwt>0</asrwt>
<pdfrwt beam="1">  1        2 0.79805693E-01 0.99960933E+03</pdfrwt>
<pdfrwt beam="2">  1       -2 0.74086662E-01 0.99960933E+03</pdfrwt>
<totfact> 0.11695976E+02</totfact>
</mgrwt>
</event>
<event>
 9    1  0.4296086E-036  0.1000095E+04  0.7818608E-02  0.8680947E-01
          2   -1    0    0  501    0  0.00000000000E+00  0.00000000000E+00  0.14984914813E+04  0.14984914813E+04  0.00000000000E+00 0. -1.
         -2   -1    0    0    0  501 -0.00000000000E+00 -0.00000000000E+00 -0.16686615213E+03  0.16686615213E+03  0.00000000000E+00 0. -1.
         36    2    1    2    0    0  0.00000000000E+00  0.14210854715E-13  0.13316253291E+04  0.16653576334E+04  0.10000950105E+04 0.  0.
         25    2    3    3    0    0 -0.72056786917E+02 -0.11141865060E+03  0.17311452675E+03  0.25120457698E+03  0.12461462147E+03 0.  0.
         35    2    3    3    0    0  0.72056786917E+02  0.11141865060E+03  0.11585108024E+04  0.14141530564E+04  0.80004705580E+03 0.  0.
         22    1    5    5    0    0  0.20463375272E+03 -0.99295564955E+02 -0.17757689766E+01  0.22745930478E+03  0.00000000000E+00 0. -1.
         22    1    5    5    0    0 -0.13257696581E+03  0.21071421556E+03  0.11602865714E+04  0.11866937517E+04  0.00000000000E+00 0. -1.
          5    1    4    4  502    0 -0.84982650871E+02 -0.17320052369E+02  0.79035497472E+02  0.11743396027E+03  0.47000000000E+01 0.  1.
         -5    1    4    4    0  502  0.12925863954E+02 -0.94098598231E+02  0.94079029274E+02  0.13377061672E+03  0.47000000000E+01 0.  1.
<mgrwt>
<rscale>  0 0.10000950E+04</rscale>
<asrwt>0</asrwt>
<pdfrwt beam="1">  1        2 0.23053714E+00 0.10000950E+04</pdfrwt>
<pdfrwt beam="2">  1       -2 0.25671717E-01 0.10000950E+04</pdfrwt>
<totfact> 0.20774539E+02</totfact>
</mgrwt>
</event>
<event>
 9    1  0.4296086E-036  0.1000653E+04  0.7818608E-02  0.8680416E-01
          2   -1    0    0  501    0  0.00000000000E+00  0.00000000000E+00  0.68469422408E+03  0.68469422408E+03  0.00000000000E+00 0. -1.
         -2   -1    0    0    0  501 -0.00000000000E+00 -0.00000000000E+00 -0.36560341388E+03  0.36560341388E+03  0.00000000000E+00 0. -1.
         36    2    1    2    0    0  0.00000000000E+00  0.00000000000E+00  0.31909081020E+03  0.10502976380E+04  0.10006528785E+04 0.  0.
         25    2    3    3    0    0 -0.51434430835E+02 -0.10081605412E+03  0.14820758567E+03  0.22352963335E+03  0.12325027826E+03 0.  0.
         35    2    3    3    0    0  0.51434430835E+02  0.10081605412E+03  0.17088322453E+03  0.82676800461E+03  0.80095872527E+03 0.  0.
         22    1    5    5    0    0 -0.35898198090E+03  0.56138993492E+02 -0.35755486370E+02  0.36510012874E+03  0.00000000000E+00 0.  1.
         22    1    5    5    0    0  0.41041641174E+03  0.44677060630E+02  0.20663871090E+03  0.46166787587E+03  0.00000000000E+00 0.  1.
          5    1    4    4  502    0  0.22995922299E+02 -0.88354207796E+02  0.87759359310E+02  0.12672440027E+03  0.47000000000E+01 0.  1.
         -5    1    4    4    0  502 -0.74430353135E+02 -0.12461846326E+02  0.60448226361E+02  0.96805233081E+02  0.47000000000E+01 0.  1.
<mgrwt>
<rscale>  0 0.10006529E+04</rscale>
<asrwt>0</asrwt>
<pdfrwt beam="1">  1        2 0.10533757E+00 0.10006529E+04</pdfrwt>
<pdfrwt beam="2">  1       -2 0.56246679E-01 0.10006529E+04</pdfrwt>
<totfact> 0.15128289E+02</totfact>
</mgrwt>
</event>
<event>
 9    1  0.4296086E-036  0.9985425E+03  0.7818608E-02  0.8682427E-01
          2   -1    0    0  501    0  0.00000000000E+00  0.00000000000E+00  0.17168671057E+04  0.17168671057E+04  0.00000000000E+00 0.  1.
         -2   -1    0    0    0  501 -0.00000000000E+00 -0.00000000000E+00 -0.14518991067E+03  0.14518991067E+03  0.00000000000E+00 0.  1.
         36    2    1    2    0    0  0.00000000000E+00 -0.71054273576E-14  0.15716771951E+04  0.18620570164E+04  0.99854250128E+03 0.  0.
         25    2    3    3    0    0  0.10752817332E+03  0.49902189132E+02  0.15851040808E+03  0.23386918120E+03  0.12456607846E+03 0.  0.
         35    2    3    3    0    0 -0.10752817332E+03 -0.49902189132E+02  0.14131667870E+04  0.16281878352E+04  0.79993919917E+03 0.  0.
         22    1    5    5    0    0  0.13536051407E+03  0.18737751629E+02  0.13642665971E+04  0.13710933302E+04  0.00000000000E+00 0. -1.
         22    1    5    5    0    0 -0.24288868739E+03 -0.68639940761E+02  0.48900189844E+02  0.25709450499E+03  0.00000000000E+00 0. -1.
          5    1    4    4  502    0  0.16931983989E+02  0.14668680695E+02 -0.20102319689E+02  0.30464003874E+02  0.47000000000E+01 0. -1.
         -5    1    4    4    0  502  0.90596189335E+02  0.35233508437E+02  0.17861272777E+03  0.20340517732E+03  0.47000000000E+01 0. -1.
<mgrwt>
<rscale>  0 0.99854250E+03</rscale>
<asrwt>0</asrwt>
<pdfrwt beam="1">  1        2 0.26413339E+00 0.99854250E+03</pdfrwt>
<pdfrwt beam="2">  1       -2 0.22336911E-01 0.99854250E+03</pdfrwt>
<totfact> 0.19998407E+02</totfact>
</mgrwt>
</event>
<event>
 9    1  0.4296086E-036  0.9979282E+03  0.7818608E-02  0.8683013E-01
          2   -1    0    0  501    0  0.00000000000E+00  0.00000000000E+00  0.11456095223E+04  0.11456095223E+04  0.00000000000E+00 0.  1.
         -2   -1    0    0    0  501 -0.00000000000E+00 -0.00000000000E+00 -0.21732113164E+03  0.21732113164E+03  0.00000000000E+00 0.  1.
         36    2    1    2    0    0  0.28421709430E-13  0.00000000000E+00  0.92828839061E+03  0.13629306539E+04  0.99792816935E+03 0.  0.
         25    2    3    3    0    0 -0.92946603557E+02 -0.97483967945E+02  0.13349281967E+03  0.22735403224E+03  0.12540864384E+03 0.  0.
         35    2    3    3    0    0  0.92946603557E+02  0.97483967945E+02  0.79479557094E+03  0.11355766217E+04  0.79980751994E+03 0.  0.
         22    1    5    5    0    0 -0.33664494600E+03 -0.48829302565E+00  0.50944700131E+03  0.61062779600E+03  0.00000000000E+00 0. -1.
         22    1    5    5    0    0  0.42959154956E+03  0.97972260971E+02  0.28534856963E+03  0.52494882566E+03  0.00000000000E+00 0. -1.
          5    1    4    4  502    0 -0.50182906003E+02  0.18550455929E+02  0.70099566831E+02  0.88309018452E+02  0.47000000000E+01 0. -1.
         -5    1    4    4    0  502 -0.42763697554E+02 -0.11603442387E+03  0.63393252842E+02  0.13904501378E+03  0.47000000000E+01 0. -1.
<mgrwt>
<rscale>  0 0.99792817E+03</rscale>
<asrwt>0</asrwt>
<pdfrwt beam="1">  1        2 0.17624762E+00 0.99792817E+03</pdfrwt>
<pdfrwt beam="2">  1       -2 0.33434021E-01 0.99792817E+03</pdfrwt>
<totfact> 0.20586870E+02</totfact>
</mgrwt>
</event>
<event>
 9    1  0.4296086E-036  0.9992121E+03  0.7818608E-02  0.8681789E-01
          2   -1    0    0  501    0  0.00000000000E+00  0.00000000000E+00  0.22304584645E+03  0.22304584645E+03  0.00000000000E+00 0.  1.
         -2   -1    0    0    0  501 -0.00000000000E+00 -0.00000000000E+00 -0.11190803531E+04  0.11190803531E+04  0.00000000000E+00 0.  1.
         36    2    1    2    0    0 -0.14210854715E-13  0.35527136788E-14 -0.89603450667E+03  0.13421261996E+04  0.99921213885E+03 0.  0.
         25    2    3    3    0    0 -0.12298042753E+03 -0.50683020039E+01 -0.87872288801E+02  0.19775017308E+03  0.12741161083E+03 0.  0.
         35    2    3    3    0    0  0.12298042753E+03  0.50683020039E+01 -0.80816221787E+03  0.11443760265E+04  0.80082485374E+03 0.  0.
         22    1    5    5    0    0  0.35722918193E+02  0.33690705656E+03 -0.71127217323E+03  0.78783919429E+03  0.00000000000E+00 0.  1.
         22    1    5    5    0    0  0.87257509338E+02 -0.33183875456E+03 -0.96890044636E+02  0.35653683220E+03  0.00000000000E+00 0.  1.
          5    1    4    4  502    0  0.83841334646E+01 -0.33000969674E+02  0.45219853869E+01  0.34668372405E+02  0.47000000000E+01 0. -1.
         -5    1    4    4    0  502 -0.13136456100E+03  0.27932667671E+02 -0.92394274188E+02  0.16308180068E+03  0.47000000000E+01 0. -1.
<mgrwt>
<rscale>  0 0.99921214E+03</rscale>
<asrwt>0</asrwt>
<pdfrwt beam="1">  1        2 0.34314746E-01 0.99921214E+03</pdfrwt>
<pdfrwt beam="2">  1       -2 0.17216620E+00 0.99921214E+03</pdfrwt>
<totfact> 0.34953922E+01</totfact>
</mgrwt>
</event>
<event>
 9    1  0.4296086E-036  0.1000173E+04  0.7818608E-02  0.8680873E-01
         -2   -1    0    0    0  501 -0.00000000000E+00  0.00000000000E+00  0.10368568919E+03  0.10368568919E+03  0.00000000000E+00 0. -1.
          2   -1    0    0  501    0  0.00000000000E+00 -0.00000000000E+00 -0.24119678874E+04  0.24119678874E+04  0.00000000000E+00 0. -1.
         36    2    1    2    0    0  0.28421709430E-13  0.00000000000E+00 -0.23082821982E+04  0.25156535765E+04  0.10001730904E+04 0.  0.
         25    2    3    3    0    0 -0.80193216341E+02 -0.10678774267E+03 -0.33161718217E+03  0.37867920122E+03  0.12487356804E+03 0.  0.
         35    2    3    3    0    0  0.80193216341E+02  0.10678774267E+03 -0.19766650160E+04  0.21369743753E+04  0.80101206068E+03 0.  0.
         22    1    5    5    0    0  0.13861881676E+03 -0.19907929071E+03 -0.15275707648E+03  0.28667484153E+03  0.00000000000E+00 0. -1.
         22    1    5    5    0    0 -0.58425600424E+02  0.30586703338E+03 -0.18239079395E+04  0.18502995338E+04  0.00000000000E+00 0. -1.
          5    1    4    4  502    0 -0.97067354645E+02 -0.35473391514E+02 -0.23939150887E+03  0.26078883673E+03  0.47000000000E+01 0.  1.
         -5    1    4    4    0  502  0.16874138303E+02 -0.71314351160E+02 -0.92225673300E+02  0.11789036449E+03  0.47000000000E+01 0.  1.
<mgrwt>
<rscale>  0 0.10001731E+04</rscale>
<asrwt>0</asrwt>
<pdfrwt beam="1">  1        2 0.37107196E+00 0.10001731E+04</pdfrwt>
<pdfrwt beam="2">  1       -2 0.15951646E-01 0.10001731E+04</pdfrwt>
<totfact> 0.14192007E+02</totfact>
</mgrwt>
</event>
<event>
 9    1  0.4296086E-036  0.1002544E+04  0.7818608E-02  0.8678619E-01
         -2   -1    0    0    0  501 -0.00000000000E+00  0.00000000000E+00  0.37003003094E+03  0.37003003094E+03  0.00000000000E+00 0.  1.
          2   -1    0    0  501    0  0.00000000000E+00 -0.00000000000E+00 -0.67906339665E+03  0.67906339665E+03  0.00000000000E+00 0.  1.
         36    2    1    2    0    0  0.28421709430E-13  0.00000000000E+00 -0.30903336571E+03  0.10490934276E+04  0.10025444622E+04 0.  0.
         25    2    3    3    0    0 -0.11450531107E+03  0.90564840377E+01  0.30157080285E+02  0.17240176660E+03  0.12497773189E+03 0.  0.
         35    2    3    3    0    0  0.11450531107E+03 -0.90564840377E+01 -0.33919044600E+03  0.87669166099E+03  0.80021536078E+03 0.  0.
         22    1    5    5    0    0  0.19986303279E+02 -0.18793877142E+02  0.26432349530E+03  0.26574343323E+03  0.00000000000E+00 0.  1.
         22    1    5    5    0    0  0.94519007795E+02  0.97373931047E+01 -0.60351394130E+03  0.61094822776E+03  0.00000000000E+00 0.  1.
          5    1    4    4  502    0  0.14560022789E+02 -0.66155441486E+01 -0.25851483993E+02  0.30759533687E+02  0.47000000000E+01 0. -1.
         -5    1    4    4    0  502 -0.12906533386E+03  0.15672028186E+02  0.56008564279E+02  0.14164223291E+03  0.47000000000E+01 0. -1.
<mgrwt>
<rscale>  0 0.10025445E+04</rscale>
<asrwt>0</asrwt>
<pdfrwt beam="1">  1        2 0.10447129E+00 0.10025445E+04</pdfrwt>
<pdfrwt beam="2">  1       -2 0.56927698E-01 0.10025445E+04</pdfrwt>
<totfact> 0.14906477E+02</totfact>
</mgrwt>
</event>
<event>
 9    1  0.4296086E-036  0.1000136E+04  0.7818608E-02  0.8680908E-01
          3   -1    0    0  501    0  0.00000000000E+00  0.00000000000E+00  0.48231601564E+04  0.48231601564E+04  0.00000000000E+00 0.  1.
         -3   -1    0    0    0  501 -0.00000000000E+00 -0.00000000000E+00 -0.51847332961E+02  0.51847332961E+02  0.00000000000E+00 0.  1.
         36    2    1    2    0    0  0.14210854715E-13  0.00000000000E+00  0.47713128234E+04  0.48750074893E+04  0.10001359719E+04 0.  0.
         25    2    3    3    0    0  0.11310131130E+03  0.58767836114E+02  0.11615687022E+04  0.11752062631E+04  0.12498938301E+03 0.  0.
         35    2    3    3    0    0 -0.11310131130E+03 -0.58767836114E+02  0.36097441213E+04  0.36998012262E+04  0.80126832421E+03 0.  0.
         22    1    5    5    0    0  0.31986386227E+03  0.36512830641E+02  0.94256690190E+03  0.99603134576E+03  0.00000000000E+00 0.  1.
         22    1    5    5    0    0 -0.43296517357E+03 -0.95280666755E+02  0.26671772194E+04  0.27037698805E+04  0.00000000000E+00 0.  1.
          5    1    4    4  502    0 -0.18826862905E+02  0.87719928726E+01  0.45396445891E+02  0.50143054607E+02  0.47000000000E+01 0.  1.
         -5    1    4    4    0  502  0.13192817421E+03  0.49995843241E+02  0.11161722563E+04  0.11250632085E+04  0.47000000000E+01 0.  1.
<mgrwt>
<rscale>  0 0.10001360E+04</rscale>
<asrwt>0</asrwt>
<pdfrwt beam="1">  1        3 0.74202428E+00 0.10001360E+04</pdfrwt>
<pdfrwt beam="2">  1       -3 0.79765166E-02 0.10001360E+04</pdfrwt>
<totfact> 0.60949984E-01</totfact>
</mgrwt>
</event>
<event>
 9    1  0.4296086E-036  0.9952627E+03  0.7818608E-02  0.8685562E-01
         -2   -1    0    0    0  501 -0.00000000000E+00  0.00000000000E+00  0.94433503860E+02  0.94433503860E+02  0.00000000000E+00 0.  1.
          2   -1    0    0  501    0  0.00000000000E+00 -0.00000000000E+00 -0.26223420035E+04  0.26223420035E+04  0.00000000000E+00 0.  1.
         36    2    1    2    0    0 -0.14210854715E-13  0.14210854715E-13 -0.25279084996E+04  0.27167755073E+04  0.99526266625E+03 0.  0.
         25    2    3    3    0    0  0.88339919853E+02 -0.52043459339E+02 -0.23157788451E+03  0.28303287720E+03  0.12635992198E+03 0.  0.
         35    2    3    3    0    0 -0.88339919853E+02  0.52043459339E+02 -0.22963306151E+04  0.24337426301E+04  0.79966019831E+03 0.  0.
         22    1    5    5    0    0 -0.15110778344E+03 -0.35788505233E+03 -0.10057418433E+04  0.10781613647E+04  0.00000000000E+00 0. -1.
         22    1    5    5    0    0  0.62767863588E+02  0.40992851167E+03 -0.12905887718E+04  0.13555812655E+04  0.00000000000E+00 0. -1.
          5    1    4    4  502    0  0.92251079343E+02 -0.18165731741E+02 -0.68661995430E+02  0.11651959091E+03  0.47000000000E+01 0. -1.
         -5    1    4    4    0  502 -0.39111594903E+01 -0.33877727599E+02 -0.16291588908E+03  0.16651328629E+03  0.47000000000E+01 0. -1.
<mgrwt>
<rscale>  0 0.99526267E+03</rscale>
<asrwt>0</asrwt>
<pdfrwt beam="1">  1        2 0.40343723E+00 0.99526267E+03</pdfrwt>
<pdfrwt beam="2">  1       -2 0.14528231E-01 0.99526267E+03</pdfrwt>
<totfact> 0.12355773E+02</totfact>
</mgrwt>
</event>
<event>
 9    1  0.4296086E-036  0.1000217E+04  0.7818608E-02  0.8680832E-01
         -2   -1    0    0    0  501 -0.00000000000E+00  0.00000000000E+00  0.11475588443E+03  0.11475588443E+03  0.00000000000E+00 0.  1.
          2   -1    0    0  501    0  0.00000000000E+00 -0.00000000000E+00 -0.21794814423E+04  0.21794814423E+04  0.00000000000E+00 0.  1.
         36    2    1    2    0    0 -0.28421709430E-13  0.00000000000E+00 -0.20647255579E+04  0.22942373268E+04  0.10002166176E+04 0.  0.
         25    2    3    3    0    0  0.94832658236E+02  0.40142064450E+02 -0.16867668143E+03  0.23375716754E+03  0.12484379084E+03 0.  0.
         35    2    3    3    0    0 -0.94832658236E+02 -0.40142064450E+02 -0.18960488765E+04  0.20604801592E+04  0.79998282868E+03 0.  0.
         22    1    5    5    0    0  0.18497826966E+03  0.27726513213E+03 -0.49364501181E+03  0.59563269842E+03  0.00000000000E+00 0.  1.
         22    1    5    5    0    0 -0.27981092789E+03 -0.31740719658E+03 -0.14024038647E+04  0.14648474608E+04  0.00000000000E+00 0.  1.
          5    1    4    4  502    0  0.39144460305E+02  0.17438512290E+01 -0.16070999349E+03  0.16548450621E+03  0.47000000000E+01 0. -1.
         -5    1    4    4    0  502  0.55688197931E+02  0.38398213221E+02 -0.79666879385E+01  0.68272661323E+02  0.47000000000E+01 0. -1.
<mgrwt>
<rscale>  0 0.10002166E+04</rscale>
<asrwt>0</asrwt>
<pdfrwt beam="1">  1        2 0.33530484E+00 0.10002166E+04</pdfrwt>
<pdfrwt beam="2">  1       -2 0.17654751E-01 0.10002166E+04</pdfrwt>
<totfact> 0.16380150E+02</totfact>
</mgrwt>
</event>
<event>
 9    1  0.4296086E-036  0.1000104E+04  0.7818608E-02  0.8680939E-01
          1   -1    0    0  501    0  0.00000000000E+00  0.00000000000E+00  0.18423060636E+04  0.18423060636E+04  0.00000000000E+00 0.  1.
         -1   -1    0    0    0  501 -0.00000000000E+00 -0.00000000000E+00 -0.13572768705E+03  0.13572768705E+03  0.00000000000E+00 0.  1.
         36    2    1    2    0    0  0.28421709430E-13  0.00000000000E+00  0.17065783765E+04  0.19780337506E+04  0.10001038763E+04 0.  0.
         25    2    3    3    0    0 -0.12442249018E+03  0.62846680923E+02  0.32534870753E+03  0.37535986343E+03  0.12495032702E+03 0.  0.
         35    2    3    3    0    0  0.12442249018E+03 -0.62846680923E+02  0.13812296690E+04  0.16026738872E+04  0.80083551918E+03 0.  0.
         22    1    5    5    0    0 -0.34050626291E+03  0.10531545399E+02  0.53195150680E+03  0.63168649987E+03  0.00000000000E+00 0.  1.
         22    1    5    5    0    0  0.46492875309E+03 -0.73378226321E+02  0.84927816222E+03  0.97098738734E+03  0.00000000000E+00 0.  1.
          5    1    4    4  502    0 -0.37942889680E+02 -0.23593285564E+02  0.17922027603E+03  0.18476553613E+03  0.47000000000E+01 0.  1.
         -5    1    4    4    0  502 -0.86479600498E+02  0.86439966486E+02  0.14612843150E+03  0.19059432730E+03  0.47000000000E+01 0.  1.
<mgrwt>
<rscale>  0 0.10001039E+04</rscale>
<asrwt>0</asrwt>
<pdfrwt beam="1">  1        1 0.28343168E+00 0.10001039E+04</pdfrwt>
<pdfrwt beam="2">  1       -1 0.20881184E-01 0.10001039E+04</pdfrwt>
<totfact> 0.76501946E+01</totfact>
</mgrwt>
</event>
<event>
 9    1  0.4296086E-036  0.9983248E+03  0.7818608E-02  0.8682635E-01
          2   -1    0    0  501    0  0.00000000000E+00  0.00000000000E+00  0.33135747892E+04  0.33135747892E+04  0.00000000000E+00 0.  1.
         -2   -1    0    0    0  501 -0.00000000000E+00 -0.00000000000E+00 -0.75194646030E+02  0.75194646030E+02  0.00000000000E+00 0.  1.
         36    2    1    2    0    0  0.14210854715E-13  0.00000000000E+00  0.32383801432E+04  0.33887694353E+04  0.99832476353E+03 0.  0.
         25    2    3    3    0    0 -0.72352487052E+02  0.11207853625E+03  0.66897816638E+03  0.69411903047E+03  0.12834703225E+03 0.  0.
         35    2    3    3    0    0  0.72352487052E+02 -0.11207853625E+03  0.25694019768E+04  0.26946504048E+04  0.80094806630E+03 0.  0.
         22    1    5    5    0    0 -0.20392376496E+03 -0.34529416224E+02  0.22719562689E+04  0.22813510186E+04  0.00000000000E+00 0.  1.
         22    1    5    5    0    0  0.27627625201E+03 -0.77549120027E+02  0.29744570797E+03  0.41329938620E+03  0.00000000000E+00 0.  1.
          5    1    4    4  502    0 -0.13852123150E+02 -0.25825364047E+02  0.59601266635E+02  0.66582518189E+02  0.47000000000E+01 0. -1.
         -5    1    4    4    0  502 -0.58500363902E+02  0.13790390030E+03  0.60937689975E+03  0.62753651228E+03  0.47000000000E+01 0. -1.
<mgrwt>
<rscale>  0 0.99832476E+03</rscale>
<asrwt>0</asrwt>
<pdfrwt beam="1">  1        2 0.50978062E+00 0.99832476E+03</pdfrwt>
<pdfrwt beam="2">  1       -2 0.11568410E-01 0.99832476E+03</pdfrwt>
<totfact> 0.62445735E+01</totfact>
</mgrwt>
</event>
<event>
 9    1  0.4296086E-036  0.1007112E+04  0.7818608E-02  0.8674295E-01
         -2   -1    0    0    0  501 -0.00000000000E+00  0.00000000000E+00  0.59755752994E+03  0.59755752994E+03  0.00000000000E+00 0.  1.
          2   -1    0    0  501    0  0.00000000000E+00 -0.00000000000E+00 -0.42434160773E+03  0.42434160773E+03  0.00000000000E+00 0.  1.
         36    2    1    2    0    0  0.00000000000E+00  0.71054273576E-14  0.17321592221E+03  0.10218991377E+04  0.10071117574E+04 0.  0.
         25    2    3    3    0    0 -0.71891793459E+02  0.63748574408E+02 -0.82365126901E+02  0.17713912460E+03  0.12394331215E+03 0.  0.
         35    2    3    3    0    0  0.71891793459E+02 -0.63748574408E+02  0.25558104911E+03  0.84476001308E+03  0.79941572184E+03 0.  0.
         22    1    5    5    0    0  0.16835727977E+03  0.45423072129E+02  0.51692975208E+03  0.54554907911E+03  0.00000000000E+00 0.  1.
         22    1    5    5    0    0 -0.96465486309E+02 -0.10917164654E+03 -0.26134870297E+03  0.29921093396E+03  0.00000000000E+00 0.  1.
          5    1    4    4  502    0 -0.20383935908E+02  0.22607640132E+02  0.32400627821E+02  0.44704596169E+02  0.47000000000E+01 0.  1.
         -5    1    4    4    0  502 -0.51507857551E+02  0.41140934277E+02 -0.11476575472E+03  0.13243452843E+03  0.47000000000E+01 0.  1.
<mgrwt>
<rscale>  0 0.10071118E+04</rscale>
<asrwt>0</asrwt>
<pdfrwt beam="1">  1        2 0.65283324E-01 0.10071118E+04</pdfrwt>
<pdfrwt beam="2">  1       -2 0.91931928E-01 0.10071118E+04</pdfrwt>
<totfact> 0.89305504E+01</totfact>
</mgrwt>
</event>
<event>
 9    1  0.4296086E-036  0.9987837E+03  0.7818608E-02  0.8682197E-01
         -2   -1    0    0    0  501 -0.00000000000E+00  0.00000000000E+00  0.60543874757E+03  0.60543874757E+03  0.00000000000E+00 0. -1.
          2   -1    0    0  501    0  0.00000000000E+00 -0.00000000000E+00 -0.41191980863E+03  0.41191980863E+03  0.00000000000E+00 0. -1.
         36    2    1    2    0    0  0.00000000000E+00  0.71054273576E-14  0.19351893894E+03  0.10173585562E+04  0.99878368637E+03 0.  0.
         25    2    3    3    0    0 -0.44454306781E+02 -0.11192535483E+02 -0.96466742766E+02  0.16500764023E+03  0.12577849829E+03 0.  0.
         35    2    3    3    0    0  0.44454306781E+02  0.11192535483E+02  0.28998568171E+03  0.85235091598E+03  0.80019305803E+03 0.  0.
         22    1    5    5    0    0 -0.38689120009E+02  0.30692333846E+03  0.41760175990E+03  0.51970185065E+03  0.00000000000E+00 0.  1.
         22    1    5    5    0    0  0.83143426790E+02 -0.29573080298E+03 -0.12761607819E+03  0.33264906533E+03  0.00000000000E+00 0.  1.
          5    1    4    4  502    0  0.33772616477E+02  0.11295493439E+02 -0.71038482439E+02  0.79603604082E+02  0.47000000000E+01 0. -1.
         -5    1    4    4    0  502 -0.78226923258E+02 -0.22488028922E+02 -0.25428260327E+02  0.85404036148E+02  0.47000000000E+01 0. -1.
<mgrwt>
<rscale>  0 0.99878369E+03</rscale>
<asrwt>0</asrwt>
<pdfrwt beam="1">  1        2 0.63372278E-01 0.99878369E+03</pdfrwt>
<pdfrwt beam="2">  1       -2 0.93144423E-01 0.99878369E+03</pdfrwt>
<totfact> 0.89567349E+01</totfact>
</mgrwt>
</event>
<event>
 9    1  0.4296086E-036  0.1000226E+04  0.7818608E-02  0.8680823E-01
          2   -1    0    0  501    0  0.00000000000E+00  0.00000000000E+00  0.17529121500E+04  0.17529121500E+04  0.00000000000E+00 0. -1.
         -2   -1    0    0    0  501 -0.00000000000E+00 -0.00000000000E+00 -0.14268415947E+03  0.14268415947E+03  0.00000000000E+00 0. -1.
         36    2    1    2    0    0  0.14210854715E-13 -0.71054273576E-14  0.16102279906E+04  0.18955963095E+04  0.10002255681E+04 0.  0.
         25    2    3    3    0    0 -0.80562678362E+02  0.96898696989E+01  0.52020188229E+03  0.54120554658E+03  0.12533637377E+03 0.  0.
         35    2    3    3    0    0  0.80562678362E+02 -0.96898696989E+01  0.10900261083E+04  0.13543907629E+04  0.79977070667E+03 0.  0.
         22    1    5    5    0    0  0.71175555907E+02  0.40397422824E+02 -0.11892596779E+03  0.14436515280E+03  0.00000000000E+00 0.  1.
         22    1    5    5    0    0  0.93871224552E+01 -0.50087292523E+02  0.12089520760E+04  0.12100256101E+04  0.00000000000E+00 0.  1.
          5    1    4    4  502    0 -0.17681307425E+02  0.53250535600E+02  0.10653623679E+03  0.12050024034E+03  0.47000000000E+01 0.  1.
         -5    1    4    4    0  502 -0.62881370937E+02 -0.43560665901E+02  0.41366564551E+03  0.42070530624E+03  0.47000000000E+01 0.  1.
<mgrwt>
<rscale>  0 0.10002256E+04</rscale>
<asrwt>0</asrwt>
<pdfrwt beam="1">  1        2 0.26967878E+00 0.10002256E+04</pdfrwt>
<pdfrwt beam="2">  1       -2 0.21951410E-01 0.10002256E+04</pdfrwt>
<totfact> 0.19675386E+02</totfact>
</mgrwt>
</event>
<event>
 9    1  0.4296086E-036  0.1001152E+04  0.7818608E-02  0.8679942E-01
         -2   -1    0    0    0  501 -0.00000000000E+00  0.00000000000E+00  0.17457163415E+03  0.17457163415E+03  0.00000000000E+00 0.  1.
          2   -1    0    0  501    0  0.00000000000E+00 -0.00000000000E+00 -0.14353773877E+04  0.14353773877E+04  0.00000000000E+00 0.  1.
         36    2    1    2    0    0 -0.28421709430E-13  0.00000000000E+00 -0.12608057535E+04  0.16099490218E+04  0.10011516892E+04 0.  0.
         25    2    3    3    0    0  0.84419492740E+02 -0.96979203787E+02 -0.13883677436E+03  0.22598111562E+03  0.12353217386E+03 0.  0.
         35    2    3    3    0    0 -0.84419492740E+02  0.96979203787E+02 -0.11219689792E+04  0.13839679062E+04  0.80001322394E+03 0.  0.
         22    1    5    5    0    0  0.29946177451E+03  0.72493686221E+02 -0.15837251034E+03  0.34643114896E+03  0.00000000000E+00 0. -1.
         22    1    5    5    0    0 -0.38388126725E+03  0.24485517566E+02 -0.96359646881E+03  0.10375367572E+04  0.00000000000E+00 0. -1.
          5    1    4    4  502    0 -0.99733626116E+01 -0.67448474663E+01  0.17799825297E+02  0.21997379611E+02  0.47000000000E+01 0.  1.
         -5    1    4    4    0  502  0.94392855351E+02 -0.90234356321E+02 -0.15663659966E+03  0.20398373601E+03  0.47000000000E+01 0.  1.
<mgrwt>
<rscale>  0 0.10011517E+04</rscale>
<asrwt>0</asrwt>
<pdfrwt beam="1">  1        2 0.22082730E+00 0.10011517E+04</pdfrwt>
<pdfrwt beam="2">  1       -2 0.26857173E-01 0.10011517E+04</pdfrwt>
<totfact> 0.20812752E+02</totfact>
</mgrwt>
</event>
<event>
 9    1  0.4296086E-036  0.9996527E+03  0.7818608E-02  0.8681369E-01
         -2   -1    0    0    0  501 -0.00000000000E+00  0.00000000000E+00  0.10471215975E+03  0.10471215975E+03  0.00000000000E+00 0. -1.
          2   -1    0    0  501    0  0.00000000000E+00 -0.00000000000E+00 -0.23858391682E+04  0.23858391682E+04  0.00000000000E+00 0. -1.
         36    2    1    2    0    0  0.00000000000E+00  0.00000000000E+00 -0.22811270084E+04  0.24905513279E+04  0.99965268394E+03 0.  0.
         25    2    3    3    0    0  0.36768871520E+02  0.12995874115E+03 -0.29468672301E+03  0.34736400892E+03  0.12482093438E+03 0.  0.
         35    2    3    3    0    0 -0.36768871520E+02 -0.12995874115E+03 -0.19864402854E+04  0.21431873190E+04  0.79313659135E+03 0.  0.
         22    1    5    5    0    0 -0.19865539237E+03  0.27616307981E+03 -0.11515978961E+04  0.12007946227E+04  0.00000000000E+00 0.  1.
         22    1    5    5    0    0  0.16188652085E+03 -0.40612182096E+03 -0.83484238927E+03  0.94239269628E+03  0.00000000000E+00 0.  1.
          5    1    4    4  502    0  0.51521496345E+02  0.34856814320E+02 -0.37656065559E+02  0.72866531162E+02  0.47000000000E+01 0. -1.
         -5    1    4    4    0  502 -0.14752624825E+02  0.95101926829E+02 -0.25703065745E+03  0.27449747776E+03  0.47000000000E+01 0. -1.
<mgrwt>
<rscale>  0 0.99965268E+03</rscale>
<asrwt>0</asrwt>
<pdfrwt beam="1">  1        2 0.36705216E+00 0.99965268E+03</pdfrwt>
<pdfrwt beam="2">  1       -2 0.16109564E-01 0.99965268E+03</pdfrwt>
<totfact> 0.14469876E+02</totfact>
</mgrwt>
</event>
<event>
 9    1  0.4296086E-036  0.1002561E+04  0.7818608E-02  0.8678603E-01
          2   -1    0    0  501    0  0.00000000000E+00  0.00000000000E+00  0.57889726141E+03  0.57889726141E+03  0.00000000000E+00 0. -1.
         -2   -1    0    0    0  501 -0.00000000000E+00 -0.00000000000E+00 -0.43407013831E+03  0.43407013831E+03  0.00000000000E+00 0. -1.
         36    2    1    2    0    0  0.00000000000E+00 -0.14210854715E-13  0.14482712310E+03  0.10129673997E+04  0.10025607499E+04 0.  0.
         25    2    3    3    0    0  0.12978162176E+03  0.55652038603E+02  0.14045426004E+02  0.18894559374E+03  0.12475073009E+03 0.  0.
         35    2    3    3    0    0 -0.12978162176E+03 -0.55652038603E+02  0.13078169709E+03  0.82402180598E+03  0.80122884727E+03 0.  0.
         22    1    5    5    0    0  0.13865503708E+03 -0.28097236826E+03  0.30093422939E+03  0.43443308052E+03  0.00000000000E+00 0. -1.
         22    1    5    5    0    0 -0.26843665883E+03  0.22532032965E+03 -0.17015253230E+03  0.38958872546E+03  0.00000000000E+00 0. -1.
          5    1    4    4  502    0  0.14849690853E+03  0.63911165459E+02  0.27440620735E+02  0.16404586730E+03  0.47000000000E+01 0.  1.
         -5    1    4    4    0  502 -0.18715286766E+02 -0.82591268563E+01 -0.13395194731E+02  0.24899726445E+02  0.47000000000E+01 0.  1.
<mgrwt>
<rscale>  0 0.10025607E+04</rscale>
<asrwt>0</asrwt>
<pdfrwt beam="1">  1        2 0.89061117E-01 0.10025607E+04</pdfrwt>
<pdfrwt beam="2">  1       -2 0.66780022E-01 0.10025607E+04</pdfrwt>
<totfact> 0.12903890E+02</totfact>
</mgrwt>
</event>
<event>
 9    1  0.4296086E-036  0.9999350E+03  0.7818608E-02  0.8681100E-01
          1   -1    0    0  501    0  0.00000000000E+00  0.00000000000E+00  0.19897033181E+03  0.19897033181E+03  0.00000000000E+00 0.  1.
         -1   -1    0    0    0  501 -0.00000000000E+00 -0.00000000000E+00 -0.12563052794E+04  0.12563052794E+04  0.00000000000E+00 0.  1.
         36    2    1    2    0    0  0.00000000000E+00 -0.14210854715E-13 -0.10573349476E+04  0.14552756112E+04  0.99993495446E+03 0.  0.
         25    2    3    3    0    0 -0.23128011228E+02  0.26469979618E+02 -0.39874258113E+03  0.41941828468E+03  0.12522175047E+03 0.  0.
         35    2    3    3    0    0  0.23128011228E+02 -0.26469979618E+02 -0.65859236643E+03  0.10358573265E+04  0.79876212418E+03 0.  0.
         22    1    5    5    0    0 -0.27317121827E+02 -0.22816145411E+03 -0.76749548466E+03  0.80115740854E+03  0.00000000000E+00 0. -1.
         22    1    5    5    0    0  0.50445133054E+02  0.20169147449E+03  0.10890311822E+03  0.23469991796E+03  0.00000000000E+00 0. -1.
          5    1    4    4  502    0  0.38734423411E+02  0.41595186926E+02 -0.26689596737E+03  0.27292134862E+03  0.47000000000E+01 0.  1.
         -5    1    4    4    0  502 -0.61862434639E+02 -0.15125207307E+02 -0.13184661376E+03  0.14649693607E+03  0.47000000000E+01 0.  1.
<mgrwt>
<rscale>  0 0.99993495E+03</rscale>
<asrwt>0</asrwt>
<pdfrwt beam="1">  1        1 0.30610820E-01 0.99993495E+03</pdfrwt>
<pdfrwt beam="2">  1       -1 0.19327774E+00 0.99993495E+03</pdfrwt>
<totfact> 0.26588034E+01</totfact>
</mgrwt>
</event>
<event>
 9    1  0.4296086E-036  0.1000022E+04  0.7818608E-02  0.8681017E-01
         -2   -1    0    0    0  501 -0.00000000000E+00  0.00000000000E+00  0.73801217434E+02  0.73801217434E+02  0.00000000000E+00 0. -1.
          2   -1    0    0  501    0  0.00000000000E+00 -0.00000000000E+00 -0.33876284444E+04  0.33876284444E+04  0.00000000000E+00 0. -1.
         36    2    1    2    0    0  0.14210854715E-13  0.00000000000E+00 -0.33138272269E+04  0.34614296618E+04  0.10000222066E+04 0.  0.
         25    2    3    3    0    0  0.99756553969E+02  0.99880394498E+01 -0.97351852488E+03  0.98662330433E+03  0.12504437364E+03 0.  0.
         35    2    3    3    0    0 -0.99756553969E+02 -0.99880394498E+01 -0.23403087021E+04  0.24748063575E+04  0.79848015321E+03 0.  0.
         22    1    5    5    0    0  0.22542917690E+03 -0.27665470852E+03 -0.76194225815E+03  0.84137515194E+03  0.00000000000E+00 0.  1.
         22    1    5    5    0    0 -0.32518573087E+03  0.26666666907E+03 -0.15783664439E+04  0.16334312055E+04  0.00000000000E+00 0.  1.
          5    1    4    4  502    0  0.67985508958E+02  0.66221915950E+02 -0.61623767012E+03  0.62352091196E+03  0.47000000000E+01 0. -1.
         -5    1    4    4    0  502  0.31771045010E+02 -0.56233876500E+02 -0.35728085476E+03  0.36310239237E+03  0.47000000000E+01 0. -1.
<mgrwt>
<rscale>  0 0.10000222E+04</rscale>
<asrwt>0</asrwt>
<pdfrwt beam="1">  1        2 0.52117353E+00 0.10000222E+04</pdfrwt>
<pdfrwt beam="2">  1       -2 0.11354035E-01 0.10000222E+04</pdfrwt>
<totfact> 0.56884895E+01</totfact>
</mgrwt>
</event>
<event>
 9    1  0.4296086E-036  0.9997620E+03  0.7818608E-02  0.8681265E-01
          1   -1    0    0  501    0  0.00000000000E+00  0.00000000000E+00  0.13210499429E+04  0.13210499429E+04  0.00000000000E+00 0. -1.
         -1   -1    0    0    0  501 -0.00000000000E+00 -0.00000000000E+00 -0.18915335612E+03  0.18915335612E+03  0.00000000000E+00 0. -1.
         36    2    1    2    0    0  0.14210854715E-13  0.42632564146E-13  0.11318965868E+04  0.15102032990E+04  0.99976203228E+03 0.  0.
         25    2    3    3    0    0  0.76983800321E+02  0.11420793745E+03  0.17619480675E+03  0.25620328490E+03  0.12500221909E+03 0.  0.
         35    2    3    3    0    0 -0.76983800321E+02 -0.11420793745E+03  0.95570178004E+03  0.12540000141E+04  0.80011260742E+03 0.  0.
         22    1    5    5    0    0 -0.63561095748E+02 -0.39715385450E+03  0.86932218831E+03  0.95785816493E+03  0.00000000000E+00 0.  1.
         22    1    5    5    0    0 -0.13422704573E+02  0.28294591705E+03  0.86379591726E+02  0.29614184919E+03  0.00000000000E+00 0.  1.
          5    1    4    4  502    0  0.86003699917E+02  0.11135662207E+03  0.85109012474E+02  0.16450704448E+03  0.47000000000E+01 0.  1.
         -5    1    4    4    0  502 -0.90198995962E+01  0.28513153773E+01  0.91085794276E+02  0.91696240419E+02  0.47000000000E+01 0.  1.
<mgrwt>
<rscale>  0 0.99976203E+03</rscale>
<asrwt>0</asrwt>
<pdfrwt beam="1">  1        1 0.20323845E+00 0.99976203E+03</pdfrwt>
<pdfrwt beam="2">  1       -1 0.29100517E-01 0.99976203E+03</pdfrwt>
<totfact> 0.10278658E+02</totfact>
</mgrwt>
</event>
<event>
 9    1  0.4296086E-036  0.1000794E+04  0.7818608E-02  0.8680283E-01
          2   -1    0    0  501    0  0.00000000000E+00  0.00000000000E+00  0.30263178005E+03  0.30263178005E+03  0.00000000000E+00 0.  1.
         -2   -1    0    0    0  501 -0.00000000000E+00 -0.00000000000E+00 -0.82739820058E+03  0.82739820058E+03  0.00000000000E+00 0.  1.
         36    2    1    2    0    0  0.28421709430E-13 -0.28421709430E-13 -0.52476642054E+03  0.11300299806E+04  0.10007936655E+04 0.  0.
         25    2    3    3    0    0 -0.12502613143E+03  0.40809898585E+02 -0.30906981895E+02  0.18434397818E+03  0.12542120793E+03 0.  0.
         35    2    3    3    0    0  0.12502613143E+03 -0.40809898585E+02 -0.49385943864E+03  0.94568600246E+03  0.79569333838E+03 0.  0.
         22    1    5    5    0    0 -0.24609487959E+03  0.17726700159E+03 -0.40530570302E+03  0.50622030038E+03  0.00000000000E+00 0. -1.
         22    1    5    5    0    0  0.37112101102E+03 -0.21807690018E+03 -0.88553735623E+02  0.43946570208E+03  0.00000000000E+00 0. -1.
          5    1    4    4  502    0 -0.47590275757E+02  0.46627739832E+02 -0.70446745386E+02  0.97076332872E+02  0.47000000000E+01 0. -1.
         -5    1    4    4    0  502 -0.77435855668E+02 -0.58178412467E+01  0.39539763491E+02  0.87267645303E+02  0.47000000000E+01 0. -1.
<mgrwt>
<rscale>  0 0.10007937E+04</rscale>
<asrwt>0</asrwt>
<pdfrwt beam="1">  1        2 0.46558736E-01 0.10007937E+04</pdfrwt>
<pdfrwt beam="2">  1       -2 0.12729203E+00 0.10007937E+04</pdfrwt>
<totfact> 0.57656562E+01</totfact>
</mgrwt>
</event>
<event>
 9    1  0.4296086E-036  0.9998459E+03  0.7818608E-02  0.8681185E-01
         -3   -1    0    0    0  501 -0.00000000000E+00  0.00000000000E+00  0.54308368592E+03  0.54308368592E+03  0.00000000000E+00 0. -1.
          3   -1    0    0  501    0  0.00000000000E+00 -0.00000000000E+00 -0.46019230658E+03  0.46019230658E+03  0.00000000000E+00 0. -1.
         36    2    1    2    0    0 -0.28421709430E-13  0.71054273576E-14  0.82891379339E+02  0.10032759925E+04  0.99984585630E+03 0.  0.
         25    2    3    3    0    0 -0.13723457429E+03  0.30191355913E+02  0.55551339543E+02  0.19613423639E+03  0.12505135348E+03 0.  0.
         35    2    3    3    0    0  0.13723457429E+03 -0.30191355913E+02  0.27340039795E+02  0.80714175611E+03  0.79434595129E+03 0.  0.
         22    1    5    5    0    0 -0.26034727223E+03 -0.16105427341E+03  0.18748775372E+03  0.35898584783E+03  0.00000000000E+00 0. -1.
         22    1    5    5    0    0  0.39758184652E+03  0.13086291749E+03 -0.16014771393E+03  0.44815590829E+03  0.00000000000E+00 0. -1.
          5    1    4    4  502    0  0.17215090551E+02  0.57344117230E+00 -0.15365775248E+02  0.23556001919E+02  0.47000000000E+01 0.  1.
         -5    1    4    4    0  502 -0.15444966484E+03  0.29617914741E+02  0.70917114791E+02  0.17257823447E+03  0.47000000000E+01 0.  1.
<mgrwt>
<rscale>  0 0.99984586E+03</rscale>
<asrwt>0</asrwt>
<pdfrwt beam="1">  1        3 0.70798816E-01 0.99984586E+03</pdfrwt>
<pdfrwt beam="2">  1       -3 0.83551336E-01 0.99984586E+03</pdfrwt>
<totfact> 0.97705819E+00</totfact>
</mgrwt>
</event>
<event>
 9    1  0.4296086E-036  0.9999320E+03  0.7818608E-02  0.8681103E-01
          2   -1    0    0  501    0  0.00000000000E+00  0.00000000000E+00  0.76782770306E+03  0.76782770306E+03  0.00000000000E+00 0.  1.
         -2   -1    0    0    0  501 -0.00000000000E+00 -0.00000000000E+00 -0.32554957377E+03  0.32554957377E+03  0.00000000000E+00 0.  1.
         36    2    1    2    0    0  0.00000000000E+00  0.00000000000E+00  0.44227812930E+03  0.10933772768E+04  0.99993196061E+03 0.  0.
         25    2    3    3    0    0 -0.10871523566E+03 -0.23133266768E+02  0.17623605271E+03  0.24370973767E+03  0.12641653160E+03 0.  0.
         35    2    3    3    0    0  0.10871523566E+03  0.23133266768E+02  0.26604207658E+03  0.84966753916E+03  0.79925114332E+03 0.  0.
         22    1    5    5    0    0 -0.16030383794E+02  0.77935712560E+02 -0.27782424161E+03  0.28899352540E+03  0.00000000000E+00 0.  1.
         22    1    5    5    0    0  0.12474561945E+03 -0.54802445792E+02  0.54386631820E+03  0.56067401376E+03  0.00000000000E+00 0.  1.
          5    1    4    4  502    0 -0.89020277425E+02 -0.45546764611E+02  0.46273791996E+02  0.11028359527E+03  0.47000000000E+01 0. -1.
         -5    1    4    4    0  502 -0.19694958235E+02  0.22413497844E+02  0.12996226072E+03  0.13342614240E+03  0.47000000000E+01 0. -1.
<mgrwt>
<rscale>  0 0.99993196E+03</rscale>
<asrwt>0</asrwt>
<pdfrwt beam="1">  1        2 0.11812734E+00 0.99993196E+03</pdfrwt>
<pdfrwt beam="2">  1       -2 0.50084550E-01 0.99993196E+03</pdfrwt>
<totfact> 0.16600324E+02</totfact>
</mgrwt>
</event>
<event>
 9    1  0.4296086E-036  0.1002419E+04  0.7818608E-02  0.8678738E-01
          2   -1    0    0  501    0  0.00000000000E+00  0.00000000000E+00  0.10422213262E+03  0.10422213262E+03  0.00000000000E+00 0.  1.
         -2   -1    0    0    0  501 -0.00000000000E+00 -0.00000000000E+00 -0.24103406674E+04  0.24103406674E+04  0.00000000000E+00 0.  1.
         36    2    1    2    0    0  0.49737991503E-13 -0.14210854715E-13 -0.23061185348E+04  0.25145628000E+04  0.10024187642E+04 0.  0.
         25    2    3    3    0    0 -0.78221032270E+01  0.10409720115E+03 -0.18970441542E+03  0.24979002810E+03  0.12453866997E+03 0.  0.
         35    2    3    3    0    0  0.78221032270E+01 -0.10409720115E+03 -0.21164141193E+04  0.22647727719E+04  0.79943077954E+03 0.  0.
         22    1    5    5    0    0 -0.38652591667E+03  0.34810114444E+02 -0.10285630110E+04  0.10993433931E+04  0.00000000000E+00 0. -1.
         22    1    5    5    0    0  0.39434801989E+03 -0.13890731560E+03 -0.10878511083E+04  0.11654293788E+04  0.00000000000E+00 0. -1.
          5    1    4    4  502    0 -0.35280322580E+02 -0.12083637059E+02 -0.20971933549E+02  0.43042158900E+02  0.47000000000E+01 0.  1.
         -5    1    4    4    0  502  0.27458219354E+02  0.11618083821E+03 -0.16873248187E+03  0.20674786920E+03  0.47000000000E+01 0.  1.
<mgrwt>
<rscale>  0 0.10024188E+04</rscale>
<asrwt>0</asrwt>
<pdfrwt beam="1">  1        2 0.16034176E-01 0.10024188E+04</pdfrwt>
<pdfrwt beam="2">  1       -2 0.37082160E+00 0.10024188E+04</pdfrwt>
<totfact> 0.55881705E+00</totfact>
</mgrwt>
</event>
<event>
 9    1  0.4296086E-036  0.9981598E+03  0.7818608E-02  0.8682792E-01
          2   -1    0    0  501    0  0.00000000000E+00  0.00000000000E+00  0.20217895710E+04  0.20217895710E+04  0.00000000000E+00 0.  1.
         -2   -1    0    0    0  501 -0.00000000000E+00 -0.00000000000E+00 -0.12319814634E+03  0.12319814634E+03  0.00000000000E+00 0.  1.
         36    2    1    2    0    0 -0.71054273576E-14  0.00000000000E+00  0.18985914246E+04  0.21449877173E+04  0.99815976162E+03 0.  0.
         25    2    3    3    0    0  0.49704574469E+02 -0.66393432825E+02  0.12533618434E+03  0.19751994271E+03  0.12816526838E+03 0.  0.
         35    2    3    3    0    0 -0.49704574469E+02  0.66393432825E+02  0.17732552403E+04  0.19474677746E+04  0.80082329713E+03 0.  0.
         22    1    5    5    0    0 -0.28284486434E+03  0.24025710963E+03  0.15108274634E+04  0.15557391556E+04  0.00000000000E+00 0.  1.
         22    1    5    5    0    0  0.23314028987E+03 -0.17386367681E+03  0.26242777686E+03  0.39172861900E+03  0.00000000000E+00 0.  1.
          5    1    4    4  502    0  0.38988531354E+01 -0.44149969451E+02 -0.15891908141E+02  0.47318744728E+02  0.47000000000E+01 0. -1.
         -5    1    4    4    0  502  0.45805721334E+02 -0.22243463374E+02  0.14122809248E+03  0.15020119798E+03  0.47000000000E+01 0. -1.
<mgrwt>
<rscale>  0 0.99815976E+03</rscale>
<asrwt>0</asrwt>
<pdfrwt beam="1">  1        2 0.31104453E+00 0.99815976E+03</pdfrwt>
<pdfrwt beam="2">  1       -2 0.18953562E-01 0.99815976E+03</pdfrwt>
<totfact> 0.17872962E+02</totfact>
</mgrwt>
</event>
<event>
 9    1  0.4296086E-036  0.1000009E+04  0.7818608E-02  0.8681029E-01
          2   -1    0    0  501    0  0.00000000000E+00  0.00000000000E+00  0.80023846697E+03  0.80023846697E+03  0.00000000000E+00 0.  1.
         -2   -1    0    0    0  501 -0.00000000000E+00 -0.00000000000E+00 -0.31241273281E+03  0.31241273281E+03  0.00000000000E+00 0.  1.
         36    2    1    2    0    0 -0.71054273576E-14  0.00000000000E+00  0.48782573417E+03  0.11126511998E+04  0.10000093727E+04 0.  0.
         25    2    3    3    0    0 -0.47448226086E+02  0.12687379149E+03  0.55022522281E+02  0.19256828432E+03  0.12532666533E+03 0.  0.
         35    2    3    3    0    0  0.47448226086E+02 -0.12687379149E+03  0.43280321188E+03  0.92008291545E+03  0.80055334486E+03 0.  0.
         22    1    5    5    0    0  0.91877823361E+02 -0.46335854766E+03  0.24319808835E+03  0.53130780936E+03  0.00000000000E+00 0. -1.
         22    1    5    5    0    0 -0.44429597275E+02  0.33648475617E+03  0.18960512353E+03  0.38877510609E+03  0.00000000000E+00 0. -1.
          5    1    4    4  502    0 -0.11690397390E+02  0.50900366385E+02  0.87833407368E+02  0.10229521073E+03  0.47000000000E+01 0.  1.
         -5    1    4    4    0  502 -0.35757828697E+02  0.75973425104E+02 -0.32810885087E+02  0.90273073590E+02  0.47000000000E+01 0.  1.
<mgrwt>
<rscale>  0 0.10000094E+04</rscale>
<asrwt>0</asrwt>
<pdfrwt beam="1">  1        2 0.12311361E+00 0.10000094E+04</pdfrwt>
<pdfrwt beam="2">  1       -2 0.48063498E-01 0.10000094E+04</pdfrwt>
<totfact> 0.17090840E+02</totfact>
</mgrwt>
</event>
<event>
 9    1  0.4296086E-036  0.1000735E+04  0.7818608E-02  0.8680338E-01
         -2   -1    0    0    0  501 -0.00000000000E+00  0.00000000000E+00  0.43820436629E+03  0.43820436629E+03  0.00000000000E+00 0.  1.
          2   -1    0    0  501    0  0.00000000000E+00 -0.00000000000E+00 -0.57134911133E+03  0.57134911133E+03  0.00000000000E+00 0.  1.
         36    2    1    2    0    0  0.00000000000E+00 -0.10658141036E-13 -0.13314474505E+03  0.10095534776E+04  0.10007350803E+04 0.  0.
         25    2    3    3    0    0 -0.13855501094E+03 -0.59936996673E+01 -0.20806069682E+01  0.18659732408E+03  0.12482314264E+03 0.  0.
         35    2    3    3    0    0  0.13855501094E+03  0.59936996673E+01 -0.13106413808E+03  0.82295615353E+03  0.80052832983E+03 0.  0.
         22    1    5    5    0    0  0.43344813632E+03  0.95194100978E+02  0.78067258844E+02  0.45059261051E+03  0.00000000000E+00 0. -1.
         22    1    5    5    0    0 -0.29489312539E+03 -0.89200401311E+02 -0.20913139692E+03  0.37236354302E+03  0.00000000000E+00 0. -1.
          5    1    4    4  502    0 -0.46165074874E+02  0.30636364551E+02  0.49570157617E+02  0.74492224408E+02  0.47000000000E+01 0. -1.
         -5    1    4    4    0  502 -0.92389936064E+02 -0.36630064219E+02 -0.51650764585E+02  0.11210509967E+03  0.47000000000E+01 0. -1.
<mgrwt>
<rscale>  0 0.10007351E+04</rscale>
<asrwt>0</asrwt>
<pdfrwt beam="1">  1        2 0.87899863E-01 0.10007351E+04</pdfrwt>
<pdfrwt beam="2">  1       -2 0.67416056E-01 0.10007351E+04</pdfrwt>
<totfact> 0.12841112E+02</totfact>
</mgrwt>
</event>
<event>
 9    1  0.4296086E-036  0.1000121E+04  0.7818608E-02  0.8680923E-01
          2   -1    0    0  501    0  0.00000000000E+00  0.00000000000E+00  0.27963275359E+04  0.27963275359E+04  0.00000000000E+00 0. -1.
         -2   -1    0    0    0  501 -0.00000000000E+00 -0.00000000000E+00 -0.89424594794E+02  0.89424594794E+02  0.00000000000E+00 0. -1.
         36    2    1    2    0    0  0.00000000000E+00  0.00000000000E+00  0.27069029411E+04  0.28857521307E+04  0.10001209063E+04 0.  0.
         25    2    3    3    0    0 -0.35201098954E+02 -0.12974244382E+03  0.39869278227E+03  0.43895956078E+03  0.12512930220E+03 0.  0.
         35    2    3    3    0    0  0.35201098954E+02  0.12974244382E+03  0.23082101588E+04  0.24467925699E+04  0.80055451015E+03 0.  0.
         22    1    5    5    0    0 -0.16008498085E+02  0.18952523367E+03  0.63232994368E+02  0.20043576972E+03  0.00000000000E+00 0. -1.
         22    1    5    5    0    0  0.51209597039E+02 -0.59782789845E+02  0.22449771644E+04  0.22463568002E+04  0.00000000000E+00 0. -1.
          5    1    4    4  502    0  0.86191755337E+01 -0.55303485920E+02  0.37461941954E+02  0.67514834198E+02  0.47000000000E+01 0. -1.
         -5    1    4    4    0  502 -0.43820274488E+02 -0.74438957901E+02  0.36123084031E+03  0.37144472658E+03  0.47000000000E+01 0. -1.
<mgrwt>
<rscale>  0 0.10001209E+04</rscale>
<asrwt>0</asrwt>
<pdfrwt beam="1">  1        2 0.43020417E+00 0.10001209E+04</pdfrwt>
<pdfrwt beam="2">  1       -2 0.13757632E-01 0.10001209E+04</pdfrwt>
<totfact> 0.10506859E+02</totfact>
</mgrwt>
</event>
<event>
 9    1  0.4296086E-036  0.1000380E+04  0.7818608E-02  0.8680676E-01
          1   -1    0    0  501    0  0.00000000000E+00  0.00000000000E+00  0.35008959148E+03  0.35008959148E+03  0.00000000000E+00 0. -1.
         -1   -1    0    0    0  501 -0.00000000000E+00 -0.00000000000E+00 -0.71464578827E+03  0.71464578827E+03  0.00000000000E+00 0. -1.
         36    2    1    2    0    0 -0.15099033135E-13  0.00000000000E+00 -0.36455619678E+03  0.10647353798E+04  0.10003800319E+04 0.  0.
         25    2    3    3    0    0 -0.51820620121E+01 -0.61381377209E+02 -0.20157347918E+03  0.24494043228E+03  0.12477748444E+03 0.  0.
         35    2    3    3    0    0  0.51820620121E+01  0.61381377209E+02 -0.16298271760E+03  0.81979494747E+03  0.80106545452E+03 0.  0.
         22    1    5    5    0    0 -0.37629356471E+03 -0.69278657047E+02  0.58060524494E+01  0.38266184734E+03  0.00000000000E+00 0.  1.
         22    1    5    5    0    0  0.38147562672E+03  0.13066003426E+03 -0.16878877005E+03  0.43713310013E+03  0.00000000000E+00 0.  1.
          5    1    4    4  502    0  0.12083776520E+01 -0.98449170730E+02 -0.16539900908E+03  0.19254251894E+03  0.47000000000E+01 0. -1.
         -5    1    4    4    0  502 -0.63904396641E+01  0.37067793521E+02 -0.36174470096E+02  0.52397913339E+02  0.47000000000E+01 0. -1.
<mgrwt>
<rscale>  0 0.10003800E+04</rscale>
<asrwt>0</asrwt>
<pdfrwt beam="1">  1        1 0.53859938E-01 0.10003800E+04</pdfrwt>
<pdfrwt beam="2">  1       -1 0.10994550E+00 0.10003800E+04</pdfrwt>
<totfact> 0.65785585E+01</totfact>
</mgrwt>
</event>
<event>
 9    1  0.4296086E-036  0.1000906E+04  0.7818608E-02  0.8680176E-01
          2   -1    0    0  501    0  0.00000000000E+00  0.00000000000E+00  0.20657877135E+04  0.20657877135E+04  0.00000000000E+00 0.  1.
         -2   -1    0    0    0  501 -0.00000000000E+00 -0.00000000000E+00 -0.12123858645E+03  0.12123858645E+03  0.00000000000E+00 0.  1.
         36    2    1    2    0    0 -0.28421709430E-13  0.00000000000E+00  0.19445491271E+04  0.21870263000E+04  0.10009059542E+04 0.  0.
         25    2    3    3    0    0  0.13169144966E+03  0.45173100309E+02  0.39820737027E+03  0.43998281755E+03  0.12503008875E+03 0.  0.
         35    2    3    3    0    0 -0.13169144966E+03 -0.45173100309E+02  0.15463417568E+04  0.17470434824E+04  0.80100240559E+03 0.  0.
         22    1    5    5    0    0 -0.30780251332E+03  0.29641181618E+03  0.76319514805E+03  0.87468233432E+03  0.00000000000E+00 0. -1.
         22    1    5    5    0    0  0.17611106365E+03 -0.34158491649E+03  0.78314660874E+03  0.87236114809E+03  0.00000000000E+00 0. -1.
          5    1    4    4  502    0  0.51908408440E+02 -0.36432502003E+02  0.81939954080E+02  0.10372104967E+03  0.47000000000E+01 0. -1.
         -5    1    4    4    0  502  0.79783041225E+02  0.81605602312E+02  0.31626741619E+03  0.33626176788E+03  0.47000000000E+01 0. -1.
<mgrwt>
<rscale>  0 0.10009060E+04</rscale>
<asrwt>0</asrwt>
<pdfrwt beam="1">  1        2 0.31781347E+00 0.10009060E+04</pdfrwt>
<pdfrwt beam="2">  1       -2 0.18652092E-01 0.10009060E+04</pdfrwt>
<totfact> 0.17337777E+02</totfact>
</mgrwt>
</event>
<event>
 9    1  0.4296086E-036  0.9991634E+03  0.7818608E-02  0.8681835E-01
         -2   -1    0    0    0  501 -0.00000000000E+00  0.00000000000E+00  0.31823097391E+03  0.31823097391E+03  0.00000000000E+00 0. -1.
          2   -1    0    0  501    0  0.00000000000E+00 -0.00000000000E+00 -0.78427904057E+03  0.78427904057E+03  0.00000000000E+00 0. -1.
         36    2    1    2    0    0 -0.35527136788E-14 -0.71054273576E-14 -0.46604806666E+03  0.11025100145E+04  0.99916341586E+03 0.  0.
         25    2    3    3    0    0  0.14849441050E+02  0.41755052104E+02  0.56378538368E+02  0.14579445579E+03  0.12693893601E+03 0.  0.
         35    2    3    3    0    0 -0.14849441050E+02 -0.41755052104E+02 -0.52242660502E+03  0.95671555869E+03  0.80025690395E+03 0.  0.
         22    1    5    5    0    0  0.11247334032E+03  0.48971034786E+02 -0.70543403389E+03  0.71602066360E+03  0.00000000000E+00 0.  1.
         22    1    5    5    0    0 -0.12732278138E+03 -0.90726086890E+02  0.18300742887E+03  0.24069489509E+03  0.00000000000E+00 0.  1.
          5    1    4    4  502    0 -0.28220515754E+02  0.66106964801E+02  0.19080249612E+01  0.72057330396E+02  0.47000000000E+01 0.  1.
         -5    1    4    4    0  502  0.43069956804E+02 -0.24351912697E+02  0.54470513407E+02  0.73737125397E+02  0.47000000000E+01 0.  1.
<mgrwt>
<rscale>  0 0.99916342E+03</rscale>
<asrwt>0</asrwt>
<pdfrwt beam="1">  1        2 0.12065831E+00 0.99916342E+03</pdfrwt>
<pdfrwt beam="2">  1       -2 0.48958612E-01 0.99916342E+03</pdfrwt>
<totfact> 0.16908088E+02</totfact>
</mgrwt>
</event>
<event>
 9    1  0.4296086E-036  0.1000008E+04  0.7818608E-02  0.8681030E-01
         -2   -1    0    0    0  501 -0.00000000000E+00  0.00000000000E+00  0.11513675826E+04  0.11513675826E+04  0.00000000000E+00 0. -1.
          2   -1    0    0  501    0  0.00000000000E+00 -0.00000000000E+00 -0.21713670715E+03  0.21713670715E+03  0.00000000000E+00 0. -1.
         36    2    1    2    0    0  0.00000000000E+00 -0.14210854715E-13  0.93423087549E+03  0.13685042898E+04  0.10000083312E+04 0.  0.
         25    2    3    3    0    0  0.73836864326E+02 -0.11553729935E+03  0.13480742346E+03  0.22963828955E+03  0.12553864955E+03 0.  0.
         35    2    3    3    0    0 -0.73836864326E+02  0.11553729935E+03  0.79942345204E+03  0.11388660002E+04  0.79946054360E+03 0.  0.
         22    1    5    5    0    0 -0.94459326244E+02  0.35770129046E+03  0.78665349187E+02  0.37823407392E+03  0.00000000000E+00 0. -1.
         22    1    5    5    0    0  0.20622461918E+02 -0.24216399111E+03  0.72075810285E+03  0.76063192633E+03  0.00000000000E+00 0. -1.
          5    1    4    4  502    0  0.17912365932E+02 -0.96341857458E+02  0.13904768119E+03  0.17017330577E+03  0.47000000000E+01 0. -1.
         -5    1    4    4    0  502  0.55924498394E+02 -0.19195441894E+02 -0.42402577319E+01  0.59464983778E+02  0.47000000000E+01 0. -1.
<mgrwt>
<rscale>  0 0.10000083E+04</rscale>
<asrwt>0</asrwt>
<pdfrwt beam="1">  1        2 0.33405648E-01 0.10000083E+04</pdfrwt>
<pdfrwt beam="2">  1       -2 0.17713347E+00 0.10000083E+04</pdfrwt>
<totfact> 0.33106510E+01</totfact>
</mgrwt>
</event>
<event>
 9    1  0.4296086E-036  0.1000221E+04  0.7818608E-02  0.8680828E-01
          2   -1    0    0  501    0  0.00000000000E+00  0.00000000000E+00  0.20660475206E+04  0.20660475206E+04  0.00000000000E+00 0. -1.
         -2   -1    0    0    0  501 -0.00000000000E+00 -0.00000000000E+00 -0.12105741320E+03  0.12105741320E+03  0.00000000000E+00 0. -1.
         36    2    1    2    0    0  0.35527136788E-14 -0.71054273576E-14  0.19449901074E+04  0.21871049338E+04  0.10002207124E+04 0.  0.
         25    2    3    3    0    0 -0.13025312200E+02  0.15993645218E+02  0.66907497276E+03  0.68101239581E+03  0.12526415541E+03 0.  0.
         35    2    3    3    0    0  0.13025312200E+02 -0.15993645218E+02  0.12759151346E+04  0.15060925380E+04  0.79995615301E+03 0.  0.
         22    1    5    5    0    0 -0.43710192873E+02  0.38708905971E+03  0.69556356069E+03  0.79721840675E+03  0.00000000000E+00 0.  1.
         22    1    5    5    0    0  0.56735505073E+02 -0.40308270492E+03  0.58035157392E+03  0.70887413121E+03  0.00000000000E+00 0.  1.
          5    1    4    4  502    0  0.20296661057E+02 -0.14078272164E+02  0.25342696778E+02  0.35700062705E+02  0.47000000000E+01 0. -1.
         -5    1    4    4    0  502 -0.33321973257E+02  0.30071917383E+02  0.64373227598E+03  0.64531233311E+03  0.47000000000E+01 0. -1.
<mgrwt>
<rscale>  0 0.10002207E+04</rscale>
<asrwt>0</asrwt>
<pdfrwt beam="1">  1        2 0.31785344E+00 0.10002207E+04</pdfrwt>
<pdfrwt beam="2">  1       -2 0.18624219E-01 0.10002207E+04</pdfrwt>
<totfact> 0.17376510E+02</totfact>
</mgrwt>
</event>
<event>
 9    1  0.4296086E-036  0.9996258E+03  0.7818608E-02  0.8681394E-01
          2   -1    0    0  501    0  0.00000000000E+00  0.00000000000E+00  0.25632321339E+03  0.25632321339E+03  0.00000000000E+00 0. -1.
         -2   -1    0    0    0  501 -0.00000000000E+00 -0.00000000000E+00 -0.97460134905E+03  0.97460134905E+03  0.00000000000E+00 0. -1.
         36    2    1    2    0    0  0.14210854715E-13 -0.35527136788E-14 -0.71827813566E+03  0.12309245624E+04  0.99962582912E+03 0.  0.
         25    2    3    3    0    0 -0.92797896839E+02 -0.30114916894E+02 -0.12837741725E+02  0.15979129593E+03  0.12589715154E+03 0.  0.
         35    2    3    3    0    0  0.92797896839E+02  0.30114916894E+02 -0.70544039393E+03  0.10711332665E+04  0.80010122318E+03 0.  0.
         22    1    5    5    0    0  0.26192478899E+02  0.14446852562E+03 -0.85725435301E+03  0.86973687205E+03  0.00000000000E+00 0. -1.
         22    1    5    5    0    0  0.66605417940E+02 -0.11435360872E+03  0.15181395908E+03  0.20139639445E+03  0.00000000000E+00 0. -1.
          5    1    4    4  502    0 -0.22901504842E+02 -0.52401196825E+02  0.39402741885E+02  0.69606252743E+02  0.47000000000E+01 0.  1.
         -5    1    4    4    0  502 -0.69896391997E+02  0.22286279931E+02 -0.52240483610E+02  0.90185043190E+02  0.47000000000E+01 0.  1.
<mgrwt>
<rscale>  0 0.99962583E+03</rscale>
<asrwt>0</asrwt>
<pdfrwt beam="1">  1        2 0.39434341E-01 0.99962583E+03</pdfrwt>
<pdfrwt beam="2">  1       -2 0.14993867E+00 0.99962583E+03</pdfrwt>
<totfact> 0.44458543E+01</totfact>
</mgrwt>
</event>
<event>
 9    1  0.4296086E-036  0.9999736E+03  0.7818608E-02  0.8681063E-01
         -1   -1    0    0    0  501 -0.00000000000E+00  0.00000000000E+00  0.70833349239E+03  0.70833349239E+03  0.00000000000E+00 0. -1.
          1   -1    0    0  501    0  0.00000000000E+00 -0.00000000000E+00 -0.35292246390E+03  0.35292246390E+03  0.00000000000E+00 0. -1.
         36    2    1    2    0    0  0.28421709430E-13  0.28421709430E-13  0.35541102849E+03  0.10612559563E+04  0.99997360245E+03 0.  0.
         25    2    3    3    0    0  0.11701728053E+03 -0.53435101476E+02  0.12254291833E+03  0.21833023416E+03  0.12689747950E+03 0.  0.
         35    2    3    3    0    0 -0.11701728053E+03  0.53435101476E+02  0.23286811016E+03  0.84292572214E+03  0.79984239842E+03 0.  0.
         22    1    5    5    0    0  0.23835585841E+03 -0.21606299663E+03 -0.33476945465E+02  0.32344619279E+03  0.00000000000E+00 0. -1.
         22    1    5    5    0    0 -0.35537313894E+03  0.26949809811E+03  0.26634505562E+03  0.51947952935E+03  0.00000000000E+00 0. -1.
          5    1    4    4  502    0  0.10744050469E+03 -0.48111424861E+02  0.25480667068E+02  0.12053848201E+03  0.47000000000E+01 0.  1.
         -5    1    4    4    0  502  0.95767758347E+01 -0.53236766148E+01  0.97062251261E+02  0.97791752147E+02  0.47000000000E+01 0.  1.
<mgrwt>
<rscale>  0 0.99997360E+03</rscale>
<asrwt>0</asrwt>
<pdfrwt beam="1">  1        1 0.54295764E-01 0.99997360E+03</pdfrwt>
<pdfrwt beam="2">  1       -1 0.10897438E+00 0.99997360E+03</pdfrwt>
<totfact> 0.66459529E+01</totfact>
</mgrwt>
</event>
<event>
 9    1 -0.4296086E-036  0.1000747E+04  0.7818608E-02  0.8680327E-01
          1   -1    0    0  501    0  0.00000000000E+00  0.00000000000E+00  0.66675701849E+02  0.66675701849E+02  0.00000000000E+00 0.  1.
         -1   -1    0    0    0  501 -0.00000000000E+00 -0.00000000000E+00 -0.37550963773E+04  0.37550963773E+04  0.00000000000E+00 0.  1.
         36    2    1    2    0    0 -0.28421709430E-13  0.00000000000E+00 -0.36884206754E+04  0.38217720791E+04  0.10007470939E+04 0.  0.
         25    2    3    3    0    0 -0.13174170654E+03 -0.15923039573E+02 -0.88177775864E+03  0.90039756317E+03  0.12479717821E+03 0.  0.
         35    2    3    3    0    0  0.13174170654E+03  0.15923039573E+02 -0.28066429168E+04  0.29213745159E+04  0.79973444324E+03 0.  0.
         22    1    5    5    0    0  0.86993682245E+02  0.58499613437E+02 -0.28461327936E+04  0.28480628477E+04  0.00000000000E+00 0. -1.
         22    1    5    5    0    0  0.44748024297E+02 -0.42576573864E+02  0.39489876879E+02  0.73311668214E+02  0.00000000000E+00 0. -1.
          5    1    4    4  502    0 -0.12329297485E+02  0.67750816667E+01 -0.48877953780E+03  0.48900453974E+03  0.47000000000E+01 0. -1.
         -5    1    4    4    0  502 -0.11941240906E+03 -0.22698121240E+02 -0.39299822084E+03  0.41139302343E+03  0.47000000000E+01 0. -1.
<mgrwt>
<rscale>  0 0.10007471E+04</rscale>
<asrwt>0</asrwt>
<pdfrwt beam="1">  1        1 0.10257800E-01 0.10007471E+04</pdfrwt>
<pdfrwt beam="2">  1       -1 0.57770715E+00 0.10007471E+04</pdfrwt>
<totfact>-0.23136844E+00</totfact>
</mgrwt>
</event>
<event>
 9    1  0.4296086E-036  0.1000047E+04  0.7818608E-02  0.8680993E-01
         -1   -1    0    0    0  501 -0.00000000000E+00  0.00000000000E+00  0.28912351177E+03  0.28912351177E+03  0.00000000000E+00 0. -1.
          1   -1    0    0  501    0  0.00000000000E+00 -0.00000000000E+00 -0.86476321320E+03  0.86476321320E+03  0.00000000000E+00 0. -1.
         36    2    1    2    0    0 -0.17763568394E-14 -0.28421709430E-13 -0.57563970144E+03  0.11538867250E+04  0.10000467530E+04 0.  0.
         25    2    3    3    0    0  0.31253979378E+01 -0.13863368543E+03 -0.79110719577E+02  0.20266341555E+03  0.12483944570E+03 0.  0.
         35    2    3    3    0    0 -0.31253979378E+01  0.13863368543E+03 -0.49652898186E+03  0.95122330942E+03  0.79940958695E+03 0.  0.
         22    1    5    5    0    0 -0.87693246075E+01 -0.31292494520E+03 -0.36501570513E+03  0.48086940781E+03  0.00000000000E+00 0.  1.
         22    1    5    5    0    0  0.56439266697E+01  0.45155863062E+03 -0.13151327674E+03  0.47035390161E+03  0.00000000000E+00 0.  1.
          5    1    4    4  502    0  0.39505897201E+02 -0.36207546171E+02  0.18106598245E+02  0.56759503287E+02  0.47000000000E+01 0.  1.
         -5    1    4    4    0  502 -0.36380499264E+02 -0.10242613926E+03 -0.97217317822E+02  0.14590391226E+03  0.47000000000E+01 0.  1.
<mgrwt>
<rscale>  0 0.10000468E+04</rscale>
<asrwt>0</asrwt>
<pdfrwt beam="1">  1        1 0.13304049E+00 0.10000468E+04</pdfrwt>
<pdfrwt beam="2">  1       -1 0.44480541E-01 0.10000468E+04</pdfrwt>
<totfact> 0.11027043E+02</totfact>
</mgrwt>
</event>
<event>
 9    1  0.4296086E-036  0.1000052E+04  0.7818608E-02  0.8680988E-01
         -2   -1    0    0    0  501 -0.00000000000E+00  0.00000000000E+00  0.14614348592E+03  0.14614348592E+03  0.00000000000E+00 0. -1.
          2   -1    0    0  501    0  0.00000000000E+00 -0.00000000000E+00 -0.17108271471E+04  0.17108271471E+04  0.00000000000E+00 0. -1.
         36    2    1    2    0    0  0.00000000000E+00  0.28421709430E-13 -0.15646836612E+04  0.18569706330E+04  0.10000524848E+04 0.  0.
         25    2    3    3    0    0 -0.45194785980E+02 -0.12547763385E+03 -0.22445571667E+03  0.28965111946E+03  0.12542008206E+03 0.  0.
         35    2    3    3    0    0  0.45194785980E+02  0.12547763385E+03 -0.13402279445E+04  0.15673195135E+04  0.80155617960E+03 0.  0.
         22    1    5    5    0    0  0.71829841915E+02 -0.30663939549E+03 -0.88373795459E+03  0.93817909668E+03  0.00000000000E+00 0.  1.
         22    1    5    5    0    0 -0.26635055935E+02  0.43211702934E+03 -0.45648998989E+03  0.62914041686E+03  0.00000000000E+00 0.  1.
          5    1    4    4  502    0  0.20887961667E+02 -0.54941624123E+02 -0.16701283932E+03  0.17711653650E+03  0.47000000000E+01 0.  1.
         -5    1    4    4    0  502 -0.66082747647E+02 -0.70536009723E+02 -0.57442877350E+02  0.11253458296E+03  0.47000000000E+01 0.  1.
<mgrwt>
<rscale>  0 0.10000525E+04</rscale>
<asrwt>0</asrwt>
<pdfrwt beam="1">  1        2 0.26320418E+00 0.10000525E+04</pdfrwt>
<pdfrwt beam="2">  1       -2 0.22483613E-01 0.10000525E+04</pdfrwt>
<totfact> 0.19925823E+02</totfact>
</mgrwt>
</event>
<event>
 9    1  0.4296086E-036  0.1000892E+04  0.7818608E-02  0.8680189E-01
         -2   -1    0    0    0  501 -0.00000000000E+00  0.00000000000E+00  0.91704151566E+02  0.91704151566E+02  0.00000000000E+00 0. -1.
          2   -1    0    0  501    0  0.00000000000E+00 -0.00000000000E+00 -0.27310236211E+04  0.27310236211E+04  0.00000000000E+00 0. -1.
         36    2    1    2    0    0  0.00000000000E+00  0.14210854715E-13 -0.26393194695E+04  0.28227277727E+04  0.10008920103E+04 0.  0.
         25    2    3    3    0    0  0.77997871545E+02 -0.94717857925E+02 -0.30004272644E+03  0.34755117511E+03  0.12534369172E+03 0.  0.
         35    2    3    3    0    0 -0.77997871545E+02  0.94717857925E+02 -0.23392767431E+04  0.24751765975E+04  0.79951758439E+03 0.  0.
         22    1    5    5    0    0 -0.89615700668E+02 -0.34962170096E+03 -0.93554543634E+03  0.10027519988E+04  0.00000000000E+00 0.  1.
         22    1    5    5    0    0  0.11617829123E+02  0.44433955889E+03 -0.14037313067E+04  0.14724245988E+04  0.00000000000E+00 0.  1.
          5    1    4    4  502    0  0.44411402360E+02 -0.33985120130E+02 -0.20921460049E+02  0.59892892236E+02  0.47000000000E+01 0. -1.
         -5    1    4    4    0  502  0.33586469185E+02 -0.60732737795E+02 -0.27912126639E+03  0.28765828287E+03  0.47000000000E+01 0. -1.
<mgrwt>
<rscale>  0 0.10008920E+04</rscale>
<asrwt>0</asrwt>
<pdfrwt beam="1">  1        2 0.42015745E+00 0.10008920E+04</pdfrwt>
<pdfrwt beam="2">  1       -2 0.14108332E-01 0.10008920E+04</pdfrwt>
<totfact> 0.11088612E+02</totfact>
</mgrwt>
</event>
<event>
 9    1  0.4296086E-036  0.9982747E+03  0.7818608E-02  0.8682683E-01
         -2   -1    0    0    0  501 -0.00000000000E+00  0.00000000000E+00  0.97435252146E+02  0.97435252146E+02  0.00000000000E+00 0.  1.
          2   -1    0    0  501    0  0.00000000000E+00 -0.00000000000E+00 -0.25569605443E+04  0.25569605443E+04  0.00000000000E+00 0.  1.
         36    2    1    2    0    0  0.00000000000E+00 -0.19539925233E-13 -0.24595252921E+04  0.26543957964E+04  0.99827470239E+03 0.  0.
         25    2    3    3    0    0  0.13822518976E+03  0.47014965136E+01 -0.47583656484E+03  0.51097324559E+03  0.12467924491E+03 0.  0.
         35    2    3    3    0    0 -0.13822518976E+03 -0.47014965136E+01 -0.19836887273E+04  0.21434225508E+04  0.80006934543E+03 0.  0.
         22    1    5    5    0    0  0.23442342618E+03  0.24679901208E+03 -0.11074451015E+04  0.11585761727E+04  0.00000000000E+00 0.  1.
         22    1    5    5    0    0 -0.37264861595E+03 -0.25150050859E+03 -0.87624362577E+03  0.98484637812E+03  0.00000000000E+00 0.  1.
          5    1    4    4  502    0  0.66947068036E+02  0.90319291649E+01 -0.40377495081E+03  0.40941395502E+03  0.47000000000E+01 0.  1.
         -5    1    4    4    0  502  0.71278121727E+02 -0.43304326513E+01 -0.72061614029E+02  0.10155929057E+03  0.47000000000E+01 0.  1.
<mgrwt>
<rscale>  0 0.99827470E+03</rscale>
<asrwt>0</asrwt>
<pdfrwt beam="1">  1        2 0.39337856E+00 0.99827470E+03</pdfrwt>
<pdfrwt beam="2">  1       -2 0.14990038E-01 0.99827470E+03</pdfrwt>
<totfact> 0.12867280E+02</totfact>
</mgrwt>
</event>
<event>
 9    1  0.4296086E-036  0.9990370E+03  0.7818608E-02  0.8681956E-01
         -2   -1    0    0    0  501 -0.00000000000E+00  0.00000000000E+00  0.34232407187E+03  0.34232407187E+03  0.00000000000E+00 0. -1.
          2   -1    0    0  501    0  0.00000000000E+00 -0.00000000000E+00 -0.72889618081E+03  0.72889618081E+03  0.00000000000E+00 0. -1.
         36    2    1    2    0    0  0.14210854715E-13  0.14210854715E-13 -0.38657210894E+03  0.10712202527E+04  0.99903695344E+03 0.  0.
         25    2    3    3    0    0 -0.94104151650E+02 -0.92709026686E+02 -0.36036942347E+02  0.18550849268E+03  0.12515664048E+03 0.  0.
         35    2    3    3    0    0  0.94104151650E+02  0.92709026686E+02 -0.35053516659E+03  0.88571175999E+03  0.80259570382E+03 0.  0.
         22    1    5    5    0    0  0.26671865872E+03 -0.20562834667E+03  0.67939462244E+02  0.34356604954E+03  0.00000000000E+00 0.  1.
         22    1    5    5    0    0 -0.17261450707E+03  0.29833737335E+03 -0.41847462883E+03  0.54214571046E+03  0.00000000000E+00 0.  1.
          5    1    4    4  502    0 -0.29675751672E+02 -0.10991596172E+03 -0.32812715997E+02  0.11857880590E+03  0.47000000000E+01 0.  1.
         -5    1    4    4    0  502 -0.64428399977E+02  0.17206935035E+02 -0.32242263499E+01  0.66929686780E+02  0.47000000000E+01 0.  1.
<mgrwt>
<rscale>  0 0.99903695E+03</rscale>
<asrwt>0</asrwt>
<pdfrwt beam="1">  1        2 0.11213787E+00 0.99903695E+03</pdfrwt>
<pdfrwt beam="2">  1       -2 0.52665243E-01 0.99903695E+03</pdfrwt>
<totfact> 0.16018404E+02</totfact>
</mgrwt>
</event>
<event>
 9    1  0.4296086E-036  0.9997034E+03  0.7818608E-02  0.8681320E-01
          1   -1    0    0  501    0  0.00000000000E+00  0.00000000000E+00  0.65660272363E+03  0.65660272363E+03  0.00000000000E+00 0.  1.
         -1   -1    0    0    0  501 -0.00000000000E+00 -0.00000000000E+00 -0.38052192836E+03  0.38052192836E+03  0.00000000000E+00 0.  1.
         36    2    1    2    0    0  0.00000000000E+00  0.00000000000E+00  0.27608079528E+03  0.10371246520E+04  0.99970342514E+03 0.  0.
         25    2    3    3    0    0  0.27373055432E+01  0.64238013437E+02  0.18072115161E+03  0.22849716817E+03  0.12416443134E+03 0.  0.
         35    2    3    3    0    0 -0.27373055432E+01 -0.64238013437E+02  0.95359643667E+02  0.80862748382E+03  0.80040672832E+03 0.  0.
         22    1    5    5    0    0  0.41977167110E+02  0.16291370226E+02  0.44489060262E+03  0.44716343724E+03  0.00000000000E+00 0.  1.
         22    1    5    5    0    0 -0.44714472653E+02 -0.80529383663E+02 -0.34953095896E+03  0.36146404658E+03  0.00000000000E+00 0.  1.
          5    1    4    4  502    0  0.34993978971E+02 -0.22065871815E+02  0.28342117083E+02  0.50367120862E+02  0.47000000000E+01 0.  1.
         -5    1    4    4    0  502 -0.32256673427E+02  0.86303885252E+02  0.15237903453E+03  0.17813004731E+03  0.47000000000E+01 0.  1.
<mgrwt>
<rscale>  0 0.99970343E+03</rscale>
<asrwt>0</asrwt>
<pdfrwt beam="1">  1        1 0.10101580E+00 0.99970343E+03</pdfrwt>
<pdfrwt beam="2">  1       -1 0.58541835E-01 0.99970343E+03</pdfrwt>
<totfact> 0.10251033E+02</totfact>
</mgrwt>
</event>
<event>
 9    1  0.4296086E-036  0.9993612E+03  0.7818608E-02  0.8681647E-01
          2   -1    0    0  501    0  0.00000000000E+00  0.00000000000E+00  0.74120956401E+03  0.74120956401E+03  0.00000000000E+00 0. -1.
         -2   -1    0    0    0  501 -0.00000000000E+00 -0.00000000000E+00 -0.33685572131E+03  0.33685572131E+03  0.00000000000E+00 0. -1.
         36    2    1    2    0    0  0.00000000000E+00 -0.28421709430E-13  0.40435384271E+03  0.10780652853E+04  0.99936116059E+03 0.  0.
         25    2    3    3    0    0  0.41787909972E+02 -0.13039460434E+03  0.10468532535E+03  0.21329759938E+03  0.12564977635E+03 0.  0.
         35    2    3    3    0    0 -0.41787909972E+02  0.13039460434E+03  0.29966851735E+03  0.86476768594E+03  0.79954546343E+03 0.  0.
         22    1    5    5    0    0  0.14537062048E+03 -0.85976230337E+02 -0.21652104783E+03  0.27460133582E+03  0.00000000000E+00 0.  1.
         22    1    5    5    0    0 -0.18715853045E+03  0.21637083468E+03  0.51618956518E+03  0.59016635012E+03  0.00000000000E+00 0.  1.
          5    1    4    4  502    0  0.52302333787E+02 -0.11966572046E+03  0.26240785461E+02  0.13328948794E+03  0.47000000000E+01 0. -1.
         -5    1    4    4    0  502 -0.10514423815E+02 -0.10728883879E+02  0.78444539894E+02  0.80008111443E+02  0.47000000000E+01 0. -1.
<mgrwt>
<rscale>  0 0.99936116E+03</rscale>
<asrwt>0</asrwt>
<pdfrwt beam="1">  1        2 0.11403224E+00 0.99936116E+03</pdfrwt>
<pdfrwt beam="2">  1       -2 0.51823957E-01 0.99936116E+03</pdfrwt>
<totfact> 0.16205455E+02</totfact>
</mgrwt>
</event>
<event>
 9    1  0.4296086E-036  0.9999610E+03  0.7818608E-02  0.8681075E-01
         -1   -1    0    0    0  501 -0.00000000000E+00  0.00000000000E+00  0.17624298635E+03  0.17624298635E+03  0.00000000000E+00 0. -1.
          1   -1    0    0  501    0  0.00000000000E+00 -0.00000000000E+00 -0.14183855841E+04  0.14183855841E+04  0.00000000000E+00 0. -1.
         36    2    1    2    0    0  0.00000000000E+00 -0.14210854715E-13 -0.12421425978E+04  0.15946285705E+04  0.99996102153E+03 0.  0.
         25    2    3    3    0    0 -0.12677706644E+02 -0.19514304396E+02 -0.40554946456E+01  0.12505589524E+03  0.12280471316E+03 0.  0.
         35    2    3    3    0    0  0.12677706644E+02  0.19514304396E+02 -0.12380871031E+04  0.14695726752E+04  0.79135493968E+03 0.  0.
         22    1    5    5    0    0 -0.53590208782E+01 -0.14045838313E+03 -0.12921335620E+04  0.12997562920E+04  0.00000000000E+00 0.  1.
         22    1    5    5    0    0  0.18036727522E+02  0.15997268753E+03  0.54046458903E+02  0.16981638323E+03  0.00000000000E+00 0.  1.
          5    1    4    4  502    0 -0.63796969614E+02  0.10345201010E+02 -0.91793747791E+01  0.65447898646E+02  0.47000000000E+01 0. -1.
         -5    1    4    4    0  502  0.51119262970E+02 -0.29859505405E+02  0.51238801335E+01  0.59607996589E+02  0.47000000000E+01 0. -1.
<mgrwt>
<rscale>  0 0.99996102E+03</rscale>
<asrwt>0</asrwt>
<pdfrwt beam="1">  1        1 0.21821316E+00 0.99996102E+03</pdfrwt>
<pdfrwt beam="2">  1       -1 0.27114306E-01 0.99996102E+03</pdfrwt>
<totfact> 0.98578407E+01</totfact>
</mgrwt>
</event>
<event>
 9    1  0.4296086E-036  0.9989462E+03  0.7818608E-02  0.8682042E-01
          1   -1    0    0  501    0  0.00000000000E+00  0.00000000000E+00  0.93872991569E+03  0.93872991569E+03  0.00000000000E+00 0.  1.
         -1   -1    0    0    0  501 -0.00000000000E+00 -0.00000000000E+00 -0.26575628013E+03  0.26575628013E+03  0.00000000000E+00 0.  1.
         36    2    1    2    0    0  0.14210854715E-13  0.00000000000E+00  0.67297363555E+03  0.12044861958E+04  0.99894618562E+03 0.  0.
         25    2    3    3    0    0 -0.54589540476E+02 -0.63672685717E+02 -0.91509897599E+01  0.15011426247E+03  0.12416248365E+03 0.  0.
         35    2    3    3    0    0  0.54589540476E+02  0.63672685717E+02  0.68212462531E+03  0.10543719334E+04  0.79960736649E+03 0.  0.
         22    1    5    5    0    0  0.24865851540E+03  0.20381173950E+03  0.74110000139E+03  0.80783630427E+03  0.00000000000E+00 0. -1.
         22    1    5    5    0    0 -0.19406897492E+03 -0.14013905378E+03 -0.58975376076E+02  0.24653562908E+03  0.00000000000E+00 0. -1.
          5    1    4    4  502    0 -0.94734210338E+01  0.34868882622E+02  0.14274236876E+02  0.39133470582E+02  0.47000000000E+01 0. -1.
         -5    1    4    4    0  502 -0.45116119442E+02 -0.98541568339E+02 -0.23425226636E+02  0.11098079188E+03  0.47000000000E+01 0. -1.
<mgrwt>
<rscale>  0 0.99894619E+03</rscale>
<asrwt>0</asrwt>
<pdfrwt beam="1">  1        1 0.14441999E+00 0.99894619E+03</pdfrwt>
<pdfrwt beam="2">  1       -1 0.40885582E-01 0.99894619E+03</pdfrwt>
<totfact> 0.11137945E+02</totfact>
</mgrwt>
</event>
<event>
 9    1  0.4296086E-036  0.9994914E+03  0.7818608E-02  0.8681522E-01
          2   -1    0    0  501    0  0.00000000000E+00  0.00000000000E+00  0.47959774630E+04  0.47959774630E+04  0.00000000000E+00 0.  1.
         -2   -1    0    0    0  501 -0.00000000000E+00 -0.00000000000E+00 -0.52074005569E+02  0.52074005569E+02  0.00000000000E+00 0.  1.
         36    2    1    2    0    0 -0.14210854715E-13 -0.23980817332E-13  0.47439034574E+04  0.48480514686E+04  0.99949138489E+03 0.  0.
         25    2    3    3    0    0  0.73902158540E+02  0.78176412217E+01  0.14523725031E+04  0.14596228473E+04  0.12486121916E+03 0.  0.
         35    2    3    3    0    0 -0.73902158540E+02 -0.78176412217E+01  0.32915309544E+04  0.33884286213E+04  0.80109291194E+03 0.  0.
         22    1    5    5    0    0 -0.13390919135E+03 -0.30267423792E+03  0.27420621736E+04  0.27619645780E+04  0.00000000000E+00 0. -1.
         22    1    5    5    0    0  0.60007032807E+02  0.29485659670E+03  0.54946878073E+03  0.62646404334E+03  0.00000000000E+00 0. -1.
          5    1    4    4  502    0  0.88602765976E+01  0.13611208684E+02  0.21968297894E+02  0.27721212375E+02  0.47000000000E+01 0.  1.
         -5    1    4    4    0  502  0.65041881942E+02 -0.57935674620E+01  0.14304042052E+04  0.14319016349E+04  0.47000000000E+01 0.  1.
<mgrwt>
<rscale>  0 0.99949138E+03</rscale>
<asrwt>0</asrwt>
<pdfrwt beam="1">  1        2 0.73784234E+00 0.99949138E+03</pdfrwt>
<pdfrwt beam="2">  1       -2 0.80113892E-02 0.99949138E+03</pdfrwt>
<totfact> 0.51010631E+00</totfact>
</mgrwt>
</event>
<event>
 9    1  0.4296086E-036  0.1001606E+04  0.7818608E-02  0.8679510E-01
          1   -1    0    0  501    0  0.00000000000E+00  0.00000000000E+00  0.13546410378E+04  0.13546410378E+04  0.00000000000E+00 0.  1.
         -1   -1    0    0    0  501 -0.00000000000E+00 -0.00000000000E+00 -0.18514413708E+03  0.18514413708E+03  0.00000000000E+00 0.  1.
         36    2    1    2    0    0  0.71054273576E-14  0.42632564146E-13  0.11694969008E+04  0.15397851749E+04  0.10016064017E+04 0.  0.
         25    2    3    3    0    0  0.63331736607E+02 -0.51855536272E+02  0.39817563176E+03  0.42569616514E+03  0.12638625630E+03 0.  0.
         35    2    3    3    0    0 -0.63331736607E+02  0.51855536272E+02  0.77132126899E+03  0.11140890098E+04  0.79972364988E+03 0.  0.
         22    1    5    5    0    0 -0.52429395054E+02  0.40122621434E+03  0.60287335868E+03  0.72607685760E+03  0.00000000000E+00 0.  1.
         22    1    5    5    0    0 -0.10902341553E+02 -0.34937067806E+03  0.16844791031E+03  0.38801215217E+03  0.00000000000E+00 0.  1.
          5    1    4    4  502    0  0.62735880351E+02 -0.10665273891E+02  0.37024689978E+03  0.37570519766E+03  0.47000000000E+01 0.  1.
         -5    1    4    4    0  502  0.59585625604E+00 -0.41190262381E+02  0.27928731984E+02  0.49990967484E+02  0.47000000000E+01 0.  1.
<mgrwt>
<rscale>  0 0.10016064E+04</rscale>
<asrwt>0</asrwt>
<pdfrwt beam="1">  1        1 0.20840631E+00 0.10016064E+04</pdfrwt>
<pdfrwt beam="2">  1       -1 0.28483714E-01 0.10016064E+04</pdfrwt>
<totfact> 0.10077020E+02</totfact>
</mgrwt>
</event>
<event>
 9    1  0.4296086E-036  0.1003459E+04  0.7818608E-02  0.8677750E-01
          2   -1    0    0  501    0  0.00000000000E+00  0.00000000000E+00  0.17362913152E+04  0.17362913152E+04  0.00000000000E+00 0. -1.
         -2   -1    0    0    0  501 -0.00000000000E+00 -0.00000000000E+00 -0.14498300808E+03  0.14498300808E+03  0.00000000000E+00 0. -1.
         36    2    1    2    0    0  0.14210854715E-13  0.00000000000E+00  0.15913083071E+04  0.18812743232E+04  0.10034594915E+04 0.  0.
         25    2    3    3    0    0  0.12051758479E+03 -0.41970509961E+02  0.17772954107E+03  0.25204880020E+03  0.12511912709E+03 0.  0.
         35    2    3    3    0    0 -0.12051758479E+03  0.41970509961E+02  0.14135787660E+04  0.16292255230E+04  0.79992803756E+03 0.  0.
         22    1    5    5    0    0  0.25753365505E+03  0.11920403862E+03  0.17845034358E+03  0.33522785002E+03  0.00000000000E+00 0. -1.
         22    1    5    5    0    0 -0.37805123983E+03 -0.77233528661E+02  0.12351284224E+04  0.12939976730E+04  0.00000000000E+00 0. -1.
          5    1    4    4  502    0 -0.12979654486E+01 -0.16135297904E+02  0.10788992198E+03  0.10919870795E+03  0.47000000000E+01 0. -1.
         -5    1    4    4    0  502  0.12181555024E+03 -0.25835212057E+02  0.69839619086E+02  0.14285009225E+03  0.47000000000E+01 0. -1.
<mgrwt>
<rscale>  0 0.10034595E+04</rscale>
<asrwt>0</asrwt>
<pdfrwt beam="1">  1        2 0.26712173E+00 0.10034595E+04</pdfrwt>
<pdfrwt beam="2">  1       -2 0.22305079E-01 0.10034595E+04</pdfrwt>
<totfact> 0.19549965E+02</totfact>
</mgrwt>
</event>
<event>
 9    1  0.4296086E-036  0.9991792E+03  0.7818608E-02  0.8681820E-01
          2   -1    0    0  501    0  0.00000000000E+00  0.00000000000E+00  0.38240052090E+03  0.38240052090E+03  0.00000000000E+00 0. -1.
         -2   -1    0    0    0  501 -0.00000000000E+00 -0.00000000000E+00 -0.65269202467E+03  0.65269202467E+03  0.00000000000E+00 0. -1.
         36    2    1    2    0    0  0.00000000000E+00  0.35527136788E-14 -0.27029150377E+03  0.10350925456E+04  0.99917920359E+03 0.  0.
         25    2    3    3    0    0  0.10876099259E+03 -0.52815451218E+01 -0.14045745898E+03  0.21794473128E+03  0.12615371529E+03 0.  0.
         35    2    3    3    0    0 -0.10876099259E+03  0.52815451218E+01 -0.12983404479E+03  0.81714781429E+03  0.79938527819E+03 0.  0.
         22    1    5    5    0    0 -0.84728551523E+01  0.34973886436E+03  0.13102839183E+03  0.37357395785E+03  0.00000000000E+00 0. -1.
         22    1    5    5    0    0 -0.10028813744E+03 -0.34445731924E+03 -0.26086243661E+03  0.44357385645E+03  0.00000000000E+00 0. -1.
          5    1    4    4  502    0  0.43818273432E+02  0.18018146398E+02 -0.14096387666E+03  0.14878709355E+03  0.47000000000E+01 0.  1.
         -5    1    4    4    0  502  0.64942719158E+02 -0.23299691519E+02  0.50641767997E+00  0.69157637723E+02  0.47000000000E+01 0.  1.
<mgrwt>
<rscale>  0 0.99917920E+03</rscale>
<asrwt>0</asrwt>
<pdfrwt beam="1">  1        2 0.58830850E-01 0.99917920E+03</pdfrwt>
<pdfrwt beam="2">  1       -2 0.10041416E+00 0.99917920E+03</pdfrwt>
<totfact> 0.81265740E+01</totfact>
</mgrwt>
</event>
<event>
 9    1  0.4296086E-036  0.9996399E+03  0.7818608E-02  0.8681381E-01
          2   -1    0    0  501    0  0.00000000000E+00  0.00000000000E+00  0.65573004138E+03  0.65573004138E+03  0.00000000000E+00 0.  1.
         -2   -1    0    0    0  501 -0.00000000000E+00 -0.00000000000E+00 -0.38097990779E+03  0.38097990779E+03  0.00000000000E+00 0.  1.
         36    2    1    2    0    0  0.14210854715E-13  0.00000000000E+00  0.27475013358E+03  0.10367099492E+04  0.99963987656E+03 0.  0.
         25    2    3    3    0    0 -0.96449891730E+02  0.84790601467E+02 -0.52791163503E+01  0.17997124665E+03  0.12597520724E+03 0.  0.
         35    2    3    3    0    0  0.96449891730E+02 -0.84790601467E+02  0.28002924993E+03  0.85673870252E+03  0.79943279634E+03 0.  0.
         22    1    5    5    0    0  0.31382551130E+03  0.15822661592E+03 -0.90756605487E+02  0.36298605340E+03  0.00000000000E+00 0.  1.
         22    1    5    5    0    0 -0.21737561957E+03 -0.24301721739E+03  0.37078585542E+03  0.49375264912E+03  0.00000000000E+00 0.  1.
          5    1    4    4  502    0 -0.15431313511E+02  0.29644158552E+02 -0.59102664552E+02  0.68059654202E+02  0.47000000000E+01 0.  1.
         -5    1    4    4    0  502 -0.81018578219E+02  0.55146442915E+02  0.53823548202E+02  0.11191159245E+03  0.47000000000E+01 0.  1.
<mgrwt>
<rscale>  0 0.99963988E+03</rscale>
<asrwt>0</asrwt>
<pdfrwt beam="1">  1        2 0.10088154E+00 0.99963988E+03</pdfrwt>
<pdfrwt beam="2">  1       -2 0.58612294E-01 0.99963988E+03</pdfrwt>
<totfact> 0.14643219E+02</totfact>
</mgrwt>
</event>
<event>
 9    1  0.4296086E-036  0.1000460E+04  0.7818608E-02  0.8680600E-01
         -2   -1    0    0    0  501 -0.00000000000E+00  0.00000000000E+00  0.71333378250E+03  0.71333378250E+03  0.00000000000E+00 0. -1.
          2   -1    0    0  501    0  0.00000000000E+00 -0.00000000000E+00 -0.35078935279E+03  0.35078935279E+03  0.00000000000E+00 0. -1.
         36    2    1    2    0    0 -0.35527136788E-14  0.00000000000E+00  0.36254442971E+03  0.10641231353E+04  0.10004596861E+04 0.  0.
         25    2    3    3    0    0 -0.29242302425E+02  0.46420516638E+02 -0.72413419531E+02  0.15168876724E+03  0.12147346279E+03 0.  0.
         35    2    3    3    0    0  0.29242302425E+02 -0.46420516638E+02  0.43495784924E+03  0.91243436805E+03  0.80021132756E+03 0.  0.
         22    1    5    5    0    0  0.29984217427E+03  0.13852139508E+03  0.47888453837E+03  0.58174213141E+03  0.00000000000E+00 0. -1.
         22    1    5    5    0    0 -0.27059987185E+03 -0.18494191172E+03 -0.43926689131E+02  0.33069223664E+03  0.00000000000E+00 0. -1.
          5    1    4    4  502    0  0.86359261391E+01 -0.29630278439E+02  0.10444790586E+02  0.32919846157E+02  0.47000000000E+01 0.  1.
         -5    1    4    4    0  502 -0.37878228564E+02  0.76050795077E+02 -0.82858210117E+02  0.11876892108E+03  0.47000000000E+01 0.  1.
<mgrwt>
<rscale>  0 0.10004597E+04</rscale>
<asrwt>0</asrwt>
<pdfrwt beam="1">  1        2 0.53967593E-01 0.10004597E+04</pdfrwt>
<pdfrwt beam="2">  1       -2 0.10974366E+00 0.10004597E+04</pdfrwt>
<totfact> 0.71790817E+01</totfact>
</mgrwt>
</event>
<event>
 9    1  0.4296086E-036  0.9997812E+03  0.7818608E-02  0.8681246E-01
         -1   -1    0    0    0  501 -0.00000000000E+00  0.00000000000E+00  0.29062641642E+03  0.29062641642E+03  0.00000000000E+00 0.  1.
          1   -1    0    0  501    0  0.00000000000E+00 -0.00000000000E+00 -0.85983439624E+03  0.85983439624E+03  0.00000000000E+00 0.  1.
         36    2    1    2    0    0 -0.35527136788E-14  0.71054273576E-14 -0.56920797982E+03  0.11504608127E+04  0.99978115463E+03 0.  0.
         25    2    3    3    0    0  0.31961002604E+02  0.42804814711E+02 -0.25608464104E+03  0.29007564099E+03  0.12534263547E+03 0.  0.
         35    2    3    3    0    0 -0.31961002604E+02 -0.42804814711E+02 -0.31312333878E+03  0.86038517167E+03  0.79960156359E+03 0.  0.
         22    1    5    5    0    0 -0.21967453909E+03  0.15494110046E+03  0.16108007670E+03  0.31338544772E+03  0.00000000000E+00 0.  1.
         22    1    5    5    0    0  0.18771353648E+03 -0.19774591517E+03 -0.47420341548E+03  0.54699972395E+03  0.00000000000E+00 0.  1.
          5    1    4    4  502    0 -0.94837221525E+01  0.71785692107E+02 -0.20737413246E+03  0.21970263401E+03  0.47000000000E+01 0.  1.
         -5    1    4    4    0  502  0.41444724757E+02 -0.28980877396E+02 -0.48710508587E+02  0.70373006982E+02  0.47000000000E+01 0.  1.
<mgrwt>
<rscale>  0 0.99978115E+03</rscale>
<asrwt>0</asrwt>
<pdfrwt beam="1">  1        1 0.13228221E+00 0.99978115E+03</pdfrwt>
<pdfrwt beam="2">  1       -1 0.44711758E-01 0.99978115E+03</pdfrwt>
<totfact> 0.11030061E+02</totfact>
</mgrwt>
</event>
<event>
 9    1  0.4296086E-036  0.1000011E+04  0.7818608E-02  0.8681028E-01
          2   -1    0    0  501    0  0.00000000000E+00  0.00000000000E+00  0.14846061165E+04  0.14846061165E+04  0.00000000000E+00 0. -1.
         -2   -1    0    0    0  501 -0.00000000000E+00 -0.00000000000E+00 -0.16839850005E+03  0.16839850005E+03  0.00000000000E+00 0. -1.
         36    2    1    2    0    0 -0.71054273576E-14  0.14210854715E-13  0.13162076164E+04  0.16530046165E+04  0.10000108863E+04 0.  0.
         25    2    3    3    0    0 -0.50521172009E+02 -0.97973732532E+02  0.39016527378E+03  0.42401589427E+03  0.12413418807E+03 0.  0.
         35    2    3    3    0    0  0.50521172009E+02  0.97973732532E+02  0.92604234266E+03  0.12289887223E+04  0.80044213905E+03 0.  0.
         22    1    5    5    0    0 -0.52486280806E+02  0.13678207403E+03  0.10517464555E+04  0.10619014795E+04  0.00000000000E+00 0.  1.
         22    1    5    5    0    0  0.10300745281E+03 -0.38808341495E+02 -0.12570411287E+03  0.16708724277E+03  0.00000000000E+00 0.  1.
          5    1    4    4  502    0  0.39376370509E+02 -0.47643187572E+02  0.12573747487E+03  0.14018692686E+03  0.47000000000E+01 0. -1.
         -5    1    4    4    0  502 -0.89897542518E+02 -0.50330544960E+02  0.26442779891E+03  0.28382896742E+03  0.47000000000E+01 0. -1.
<mgrwt>
<rscale>  0 0.10000109E+04</rscale>
<asrwt>0</asrwt>
<pdfrwt beam="1">  1        2 0.22840093E+00 0.10000109E+04</pdfrwt>
<pdfrwt beam="2">  1       -2 0.25907463E-01 0.10000109E+04</pdfrwt>
<totfact> 0.20812304E+02</totfact>
</mgrwt>
</event>
<event>
 9    1  0.4296086E-036  0.9997429E+03  0.7818608E-02  0.8681283E-01
         -2   -1    0    0    0  501 -0.00000000000E+00  0.00000000000E+00  0.15442180337E+03  0.15442180337E+03  0.00000000000E+00 0.  1.
          2   -1    0    0  501    0  0.00000000000E+00 -0.00000000000E+00 -0.16181100008E+04  0.16181100008E+04  0.00000000000E+00 0.  1.
         36    2    1    2    0    0 -0.28421709430E-13  0.28421709430E-13 -0.14636881974E+04  0.17725318042E+04  0.99974289568E+03 0.  0.
         25    2    3    3    0    0 -0.30678537386E+02  0.13346255203E+03 -0.31137079829E+03  0.36344049453E+03  0.12799919371E+03 0.  0.
         35    2    3    3    0    0  0.30678537386E+02 -0.13346255203E+03 -0.11523173991E+04  0.14090913096E+04  0.79934317102E+03 0.  0.
         22    1    5    5    0    0  0.39475324602E+03 -0.74083394906E+02 -0.81784694463E+03  0.91114878010E+03  0.00000000000E+00 0.  1.
         22    1    5    5    0    0 -0.36407470863E+03 -0.59379157124E+02 -0.33447045451E+03  0.49794252952E+03  0.00000000000E+00 0.  1.
          5    1    4    4  502    0 -0.64716808631E+02  0.13827575960E+03 -0.25232823058E+03  0.29495775453E+03  0.47000000000E+01 0.  1.
         -5    1    4    4    0  502  0.34038271245E+02 -0.48132075667E+01 -0.59042567709E+02  0.68482740001E+02  0.47000000000E+01 0.  1.
<mgrwt>
<rscale>  0 0.99974290E+03</rscale>
<asrwt>0</asrwt>
<pdfrwt beam="1">  1        2 0.24894001E+00 0.99974290E+03</pdfrwt>
<pdfrwt beam="2">  1       -2 0.23757199E-01 0.99974290E+03</pdfrwt>
<totfact> 0.20398848E+02</totfact>
</mgrwt>
</event>
<event>
 9    1  0.4296086E-036  0.1000682E+04  0.7818608E-02  0.8680389E-01
          2   -1    0    0  501    0  0.00000000000E+00  0.00000000000E+00  0.16648874131E+04  0.16648874131E+04  0.00000000000E+00 0.  1.
         -2   -1    0    0    0  501 -0.00000000000E+00 -0.00000000000E+00 -0.15036516623E+03  0.15036516623E+03  0.00000000000E+00 0.  1.
         36    2    1    2    0    0  0.00000000000E+00  0.00000000000E+00  0.15145222469E+04  0.18152525793E+04  0.10006819127E+04 0.  0.
         25    2    3    3    0    0  0.24688668095E+01  0.14078972511E+03  0.31952522506E+03  0.37091911724E+03  0.12512705576E+03 0.  0.
         35    2    3    3    0    0 -0.24688668095E+01 -0.14078972511E+03  0.11949970218E+04  0.14443334621E+04  0.79890764521E+03 0.  0.
         22    1    5    5    0    0 -0.12708183921E+03  0.28977358924E+03  0.74395025293E+03  0.80844326066E+03  0.00000000000E+00 0. -1.
         22    1    5    5    0    0  0.12461297240E+03 -0.43056331435E+03  0.45104676887E+03  0.63589020142E+03  0.00000000000E+00 0. -1.
          5    1    4    4  502    0  0.47257086253E+02  0.22717488866E+02  0.47212863456E+02  0.70713937645E+02  0.47000000000E+01 0.  1.
         -5    1    4    4    0  502 -0.44788219444E+02  0.11807223625E+03  0.27231236160E+03  0.30020517959E+03  0.47000000000E+01 0.  1.
<mgrwt>
<rscale>  0 0.10006819E+04</rscale>
<asrwt>0</asrwt>
<pdfrwt beam="1">  1        2 0.25613651E+00 0.10006819E+04</pdfrwt>
<pdfrwt beam="2">  1       -2 0.23133104E-01 0.10006819E+04</pdfrwt>
<totfact> 0.20118459E+02</totfact>
</mgrwt>
</event>
<event>
 9    1  0.4296086E-036  0.1000247E+04  0.7818608E-02  0.8680803E-01
         -2   -1    0    0    0  501 -0.00000000000E+00  0.00000000000E+00  0.23735686586E+03  0.23735686586E+03  0.00000000000E+00 0. -1.
          2   -1    0    0  501    0  0.00000000000E+00 -0.00000000000E+00 -0.10537862066E+04  0.10537862066E+04  0.00000000000E+00 0. -1.
         36    2    1    2    0    0 -0.14210854715E-13  0.00000000000E+00 -0.81642934074E+03  0.12911430725E+04  0.10002467521E+04 0.  0.
         25    2    3    3    0    0  0.97479882453E+02 -0.10207366735E+03 -0.14936702340E+03  0.24019502578E+03  0.12434541278E+03 0.  0.
         35    2    3    3    0    0 -0.97479882453E+02  0.10207366735E+03 -0.66706231734E+03  0.10509480467E+04  0.79974889846E+03 0.  0.
         22    1    5    5    0    0 -0.40670460129E+03  0.23259602817E+03 -0.45991315238E+03  0.65652848587E+03  0.00000000000E+00 0.  1.
         22    1    5    5    0    0  0.30922471883E+03 -0.13052236082E+03 -0.20714916496E+03  0.39441956082E+03  0.00000000000E+00 0.  1.
          5    1    4    4  502    0  0.10846527726E+03 -0.57072365948E+02 -0.14983106603E+03  0.19363215041E+03  0.47000000000E+01 0. -1.
         -5    1    4    4    0  502 -0.10985394809E+02 -0.45001301397E+02  0.46404263009E+00  0.46562875363E+02  0.47000000000E+01 0. -1.
<mgrwt>
<rscale>  0 0.10002468E+04</rscale>
<asrwt>0</asrwt>
<pdfrwt beam="1">  1        2 0.16212095E+00 0.10002468E+04</pdfrwt>
<pdfrwt beam="2">  1       -2 0.36516441E-01 0.10002468E+04</pdfrwt>
<totfact> 0.19853289E+02</totfact>
</mgrwt>
</event>
<event>
 9    1  0.4296086E-036  0.1001343E+04  0.7818608E-02  0.8679760E-01
          2   -1    0    0  501    0  0.00000000000E+00  0.00000000000E+00  0.25267227766E+04  0.25267227766E+04  0.00000000000E+00 0.  1.
         -2   -1    0    0    0  501 -0.00000000000E+00 -0.00000000000E+00 -0.99208416351E+02  0.99208416351E+02  0.00000000000E+00 0.  1.
         36    2    1    2    0    0 -0.14210854715E-13  0.28421709430E-13  0.24275143603E+04  0.26259311930E+04  0.10013434280E+04 0.  0.
         25    2    3    3    0    0  0.19702128886E+02  0.10802417319E+03  0.22375422005E+03  0.27869857942E+03  0.12469784000E+03 0.  0.
         35    2    3    3    0    0 -0.19702128886E+02 -0.10802417319E+03  0.22037601402E+04  0.23472326135E+04  0.80055280316E+03 0.  0.
         22    1    5    5    0    0  0.26279684104E+03  0.22328849905E+03  0.12859197026E+04  0.13313562314E+04  0.00000000000E+00 0.  1.
         22    1    5    5    0    0 -0.28249896993E+03 -0.33131267225E+03  0.91784043760E+03  0.10158763821E+04  0.00000000000E+00 0.  1.
          5    1    4    4  502    0  0.46004744538E+02  0.26983733514E+02  0.16907807042E+03  0.17735287506E+03  0.47000000000E+01 0.  1.
         -5    1    4    4    0  502 -0.26302615652E+02  0.81040439677E+02  0.54676149634E+02  0.10134570436E+03  0.47000000000E+01 0.  1.
<mgrwt>
<rscale>  0 0.10013434E+04</rscale>
<asrwt>0</asrwt>
<pdfrwt beam="1">  1        2 0.38872653E+00 0.10013434E+04</pdfrwt>
<pdfrwt beam="2">  1       -2 0.15262835E-01 0.10013434E+04</pdfrwt>
<totfact> 0.13026862E+02</totfact>
</mgrwt>
</event>
<event>
 9    1  0.4296086E-036  0.1000239E+04  0.7818608E-02  0.8680810E-01
         -2   -1    0    0    0  501 -0.00000000000E+00  0.00000000000E+00  0.12507020847E+03  0.12507020847E+03  0.00000000000E+00 0. -1.
          2   -1    0    0  501    0  0.00000000000E+00 -0.00000000000E+00 -0.19998344576E+04  0.19998344576E+04  0.00000000000E+00 0. -1.
         36    2    1    2    0    0  0.56843418861E-13  0.00000000000E+00 -0.18747642492E+04  0.21249046661E+04  0.10002393964E+04 0.  0.
         25    2    3    3    0    0  0.97760197343E+02  0.99552799246E+02 -0.32356162352E+03  0.37375301734E+03  0.12462494830E+03 0.  0.
         35    2    3    3    0    0 -0.97760197343E+02 -0.99552799246E+02 -0.15512026257E+04  0.17511516488E+04  0.80052151445E+03 0.  0.
         22    1    5    5    0    0 -0.31134567091E+03  0.29707182992E+02 -0.14473534754E+04  0.14807601853E+04  0.00000000000E+00 0. -1.
         22    1    5    5    0    0  0.21358547356E+03 -0.12925998224E+03 -0.10384915026E+03  0.27039146350E+03  0.00000000000E+00 0. -1.
          5    1    4    4  502    0  0.83038299809E+02  0.38037245063E+02 -0.78215717982E+02  0.12034109766E+03  0.47000000000E+01 0. -1.
         -5    1    4    4    0  502  0.14721897534E+02  0.61515554183E+02 -0.24534590553E+03  0.25341191968E+03  0.47000000000E+01 0. -1.
<mgrwt>
<rscale>  0 0.10002394E+04</rscale>
<asrwt>0</asrwt>
<pdfrwt beam="1">  1        2 0.30766682E+00 0.10002394E+04</pdfrwt>
<pdfrwt beam="2">  1       -2 0.19241572E-01 0.10002394E+04</pdfrwt>
<totfact> 0.17924150E+02</totfact>
</mgrwt>
</event>
<event>
 9    1  0.4296086E-036  0.1000153E+04  0.7818608E-02  0.8680892E-01
          2   -1    0    0  501    0  0.00000000000E+00  0.00000000000E+00  0.11900424827E+04  0.11900424827E+04  0.00000000000E+00 0.  1.
         -2   -1    0    0    0  501 -0.00000000000E+00 -0.00000000000E+00 -0.21014102478E+03  0.21014102478E+03  0.00000000000E+00 0.  1.
         36    2    1    2    0    0  0.28421709430E-13  0.00000000000E+00  0.97990145791E+03  0.14001835075E+04  0.10001534819E+04 0.  0.
         25    2    3    3    0    0 -0.12701787850E+03  0.36770815480E+02  0.12444424233E+03  0.22039332703E+03  0.12490482305E+03 0.  0.
         35    2    3    3    0    0  0.12701787850E+03 -0.36770815480E+02  0.85545721558E+03  0.11797901804E+04  0.80163095489E+03 0.  0.
         22    1    5    5    0    0  0.16225454094E+03  0.30972296259E+03  0.73033000032E+03  0.80971399826E+03  0.00000000000E+00 0. -1.
         22    1    5    5    0    0 -0.35236662442E+02 -0.34649377807E+03  0.12512721526E+03  0.37007618218E+03  0.00000000000E+00 0. -1.
          5    1    4    4  502    0 -0.33599563473E+02  0.57342928054E+02  0.10231707891E+03  0.12209838942E+03  0.47000000000E+01 0.  1.
         -5    1    4    4    0  502 -0.93418315023E+02 -0.20572112574E+02  0.22127163417E+02  0.98294937603E+02  0.47000000000E+01 0.  1.
<mgrwt>
<rscale>  0 0.10001535E+04</rscale>
<asrwt>0</asrwt>
<pdfrwt beam="1">  1        2 0.18308345E+00 0.10001535E+04</pdfrwt>
<pdfrwt beam="2">  1       -2 0.32329389E-01 0.10001535E+04</pdfrwt>
<totfact> 0.20609663E+02</totfact>
</mgrwt>
</event>
<event>
 9    1  0.4296086E-036  0.9986424E+03  0.7818608E-02  0.8682332E-01
         -1   -1    0    0    0  501 -0.00000000000E+00  0.00000000000E+00  0.29812464107E+03  0.29812464107E+03  0.00000000000E+00 0.  1.
          1   -1    0    0  501    0  0.00000000000E+00 -0.00000000000E+00 -0.83630002865E+03  0.83630002865E+03  0.00000000000E+00 0.  1.
         36    2    1    2    0    0  0.00000000000E+00  0.14210854715E-13 -0.53817538759E+03  0.11344246697E+04  0.99864237015E+03 0.  0.
         25    2    3    3    0    0  0.54286290186E+02  0.66016998052E+02 -0.22564867833E+03  0.27139559605E+03  0.12422961881E+03 0.  0.
         35    2    3    3    0    0 -0.54286290186E+02 -0.66016998052E+02 -0.31252670926E+03  0.86302907367E+03  0.79990061424E+03 0.  0.
         22    1    5    5    0    0 -0.43097750041E+02 -0.24484087996E+03  0.20064793929E+03  0.31947467521E+03  0.00000000000E+00 0.  1.
         22    1    5    5    0    0 -0.11188540145E+02  0.17882388191E+03 -0.51317464855E+03  0.54355439846E+03  0.00000000000E+00 0.  1.
          5    1    4    4  502    0 -0.22567955156E+02 -0.72516639750E+01 -0.11675085636E+03  0.11922563353E+03  0.47000000000E+01 0. -1.
         -5    1    4    4    0  502  0.76854245342E+02  0.73268662027E+02 -0.10889782197E+03  0.15216996251E+03  0.47000000000E+01 0. -1.
<mgrwt>
<rscale>  0 0.99864237E+03</rscale>
<asrwt>0</asrwt>
<pdfrwt beam="1">  1        1 0.12866154E+00 0.99864237E+03</pdfrwt>
<pdfrwt beam="2">  1       -1 0.45865329E-01 0.99864237E+03</pdfrwt>
<totfact> 0.11033122E+02</totfact>
</mgrwt>
</event>
<event>
 9    1  0.4296086E-036  0.1000226E+04  0.7818608E-02  0.8680823E-01
          2   -1    0    0  501    0  0.00000000000E+00  0.00000000000E+00  0.24962918273E+04  0.24962918273E+04  0.00000000000E+00 0.  1.
         -2   -1    0    0    0  501 -0.00000000000E+00 -0.00000000000E+00 -0.10019372798E+03  0.10019372798E+03  0.00000000000E+00 0.  1.
         36    2    1    2    0    0 -0.28421709430E-13  0.71054273576E-14  0.23960980993E+04  0.25964855553E+04  0.10002255432E+04 0.  0.
         25    2    3    3    0    0 -0.12759128388E+03  0.52678033650E+02  0.52353900029E+03  0.55549407002E+03  0.12420171519E+03 0.  0.
         35    2    3    3    0    0  0.12759128388E+03 -0.52678033650E+02  0.18725590990E+04  0.20409914852E+04  0.80007134217E+03 0.  0.
         22    1    5    5    0    0  0.10680432554E+03 -0.10979887933E+02 -0.49598172639E+02  0.11826960988E+03  0.00000000000E+00 0. -1.
         22    1    5    5    0    0  0.20786958343E+02 -0.41698145717E+02  0.19221572717E+04  0.19227218754E+04  0.00000000000E+00 0. -1.
          5    1    4    4  502    0 -0.12362162743E+02  0.42058157336E+02  0.30494734125E+03  0.30811796865E+03  0.47000000000E+01 0.  1.
         -5    1    4    4    0  502 -0.11522912114E+03  0.10619876314E+02  0.21859165903E+03  0.24737610137E+03  0.47000000000E+01 0.  1.
<mgrwt>
<rscale>  0 0.10002255E+04</rscale>
<asrwt>0</asrwt>
<pdfrwt beam="1">  1        2 0.38404485E+00 0.10002255E+04</pdfrwt>
<pdfrwt beam="2">  1       -2 0.15414422E-01 0.10002255E+04</pdfrwt>
<totfact> 0.13372026E+02</totfact>
</mgrwt>
</event>
<event>
 9    1  0.4296086E-036  0.1000550E+04  0.7818608E-02  0.8680515E-01
         -1   -1    0    0    0  501 -0.00000000000E+00  0.00000000000E+00  0.35864485213E+03  0.35864485213E+03  0.00000000000E+00 0.  1.
          1   -1    0    0  501    0  0.00000000000E+00 -0.00000000000E+00 -0.69783489295E+03  0.69783489295E+03  0.00000000000E+00 0.  1.
         36    2    1    2    0    0  0.00000000000E+00  0.28421709430E-13 -0.33919004083E+03  0.10564797451E+04  0.10005496329E+04 0.  0.
         25    2    3    3    0    0 -0.98130503770E+02  0.94717473068E+02 -0.26129186631E+02  0.18683020039E+03  0.12498717497E+03 0.  0.
         35    2    3    3    0    0  0.98130503770E+02 -0.94717473068E+02 -0.31306085420E+03  0.86964954470E+03  0.79980137327E+03 0.  0.
         22    1    5    5    0    0  0.53486486608E+02  0.24944541296E+03 -0.43291239932E+03  0.50249075990E+03  0.00000000000E+00 0.  1.
         22    1    5    5    0    0  0.44644017162E+02 -0.34416288603E+03  0.11985154512E+03  0.36715878480E+03  0.00000000000E+00 0.  1.
          5    1    4    4  502    0  0.24521223284E+02 -0.81351486541E+00 -0.18538656807E+02  0.31108262471E+02  0.47000000000E+01 0.  1.
         -5    1    4    4    0  502 -0.12265172705E+03  0.95530987934E+02 -0.75905298235E+01  0.15572193791E+03  0.47000000000E+01 0.  1.
<mgrwt>
<rscale>  0 0.10005496E+04</rscale>
<asrwt>0</asrwt>
<pdfrwt beam="1">  1        1 0.10735921E+00 0.10005496E+04</pdfrwt>
<pdfrwt beam="2">  1       -1 0.55176131E-01 0.10005496E+04</pdfrwt>
<totfact> 0.10456660E+02</totfact>
</mgrwt>
</event>
<event>
 9    1  0.4296086E-036  0.1000068E+04  0.7818608E-02  0.8680973E-01
          1   -1    0    0  501    0  0.00000000000E+00  0.00000000000E+00  0.52412959973E+03  0.52412959973E+03  0.00000000000E+00 0.  1.
         -1   -1    0    0    0  501 -0.00000000000E+00 -0.00000000000E+00 -0.47704590519E+03  0.47704590519E+03  0.00000000000E+00 0.  1.
         36    2    1    2    0    0 -0.28421709430E-13 -0.14210854715E-13  0.47083694542E+02  0.10011755049E+04  0.10000677564E+04 0.  0.
         25    2    3    3    0    0 -0.75414532467E+02 -0.40286209548E+02 -0.10490569659E+03  0.18376721788E+03  0.12431755630E+03 0.  0.
         35    2    3    3    0    0  0.75414532467E+02  0.40286209548E+02  0.15198939113E+03  0.81740828704E+03  0.79858950802E+03 0.  0.
         22    1    5    5    0    0 -0.20668479119E+03  0.22684428914E+03 -0.16967187151E+03  0.35066433866E+03  0.00000000000E+00 0. -1.
         22    1    5    5    0    0  0.28209932366E+03 -0.18655807959E+03  0.32166126264E+03  0.46674394838E+03  0.00000000000E+00 0. -1.
          5    1    4    4  502    0  0.29429073716E+01 -0.65520675884E+02 -0.63859541647E+02  0.91661064424E+02  0.47000000000E+01 0.  1.
         -5    1    4    4    0  502 -0.78357439839E+02  0.25234466335E+02 -0.41046154940E+02  0.92106153457E+02  0.47000000000E+01 0.  1.
<mgrwt>
<rscale>  0 0.10000678E+04</rscale>
<asrwt>0</asrwt>
<pdfrwt beam="1">  1        1 0.80635323E-01 0.10000678E+04</pdfrwt>
<pdfrwt beam="2">  1       -1 0.73391678E-01 0.10000678E+04</pdfrwt>
<totfact> 0.91357230E+01</totfact>
</mgrwt>
</event>
<event>
 9    1  0.4296086E-036  0.1002197E+04  0.7818608E-02  0.8678949E-01
          2   -1    0    0  501    0  0.00000000000E+00  0.00000000000E+00  0.38967013151E+03  0.38967013151E+03  0.00000000000E+00 0. -1.
         -2   -1    0    0    0  501 -0.00000000000E+00 -0.00000000000E+00 -0.64439031448E+03  0.64439031448E+03  0.00000000000E+00 0. -1.
         36    2    1    2    0    0  0.00000000000E+00  0.28421709430E-13 -0.25472018297E+03  0.10340604460E+04  0.10021969040E+04 0.  0.
         25    2    3    3    0    0 -0.48508785069E+02  0.12041932417E+03 -0.10547589249E+03  0.20913600834E+03  0.12553402019E+03 0.  0.
         35    2    3    3    0    0  0.48508785069E+02 -0.12041932417E+03 -0.14924429048E+03  0.82492443765E+03  0.80085738664E+03 0.  0.
         22    1    5    5    0    0  0.75724463903E+01  0.34217257759E+03 -0.19831937167E+02  0.34283045450E+03  0.00000000000E+00 0. -1.
         22    1    5    5    0    0  0.40936338678E+02 -0.46259190176E+03 -0.12941235331E+03  0.48209398315E+03  0.00000000000E+00 0. -1.
          5    1    4    4  502    0 -0.10128532350E+02  0.93302109373E+02 -0.43786250204E+00  0.93968891153E+02  0.47000000000E+01 0. -1.
         -5    1    4    4    0  502 -0.38380252718E+02  0.27117214796E+02 -0.10503802999E+03  0.11516711718E+03  0.47000000000E+01 0. -1.
<mgrwt>
<rscale>  0 0.10021969E+04</rscale>
<asrwt>0</asrwt>
<pdfrwt beam="1">  1        2 0.59949252E-01 0.10021969E+04</pdfrwt>
<pdfrwt beam="2">  1       -2 0.99136970E-01 0.10021969E+04</pdfrwt>
<totfact> 0.82075631E+01</totfact>
</mgrwt>
</event>
<event>
 9    1  0.4296086E-036  0.9996855E+03  0.7818608E-02  0.8681337E-01
          2   -1    0    0  501    0  0.00000000000E+00  0.00000000000E+00  0.26227752471E+04  0.26227752471E+04  0.00000000000E+00 0. -1.
         -2   -1    0    0    0  501 -0.00000000000E+00 -0.00000000000E+00 -0.95258943546E+02  0.95258943546E+02  0.00000000000E+00 0. -1.
         36    2    1    2    0    0  0.71054273576E-14  0.28421709430E-13  0.25275163036E+04  0.27180341907E+04  0.99968554896E+03 0.  0.
         25    2    3    3    0    0 -0.52856649086E+02  0.10469472304E+03  0.27766105023E+03  0.32624902311E+03  0.12485173558E+03 0.  0.
         35    2    3    3    0    0  0.52856649086E+02 -0.10469472304E+03  0.22498552533E+04  0.23917851676E+04  0.80313935055E+03 0.  0.
         22    1    5    5    0    0  0.31275772231E+02  0.34420205711E+03  0.74521011565E+03  0.82145684397E+03  0.00000000000E+00 0.  1.
         22    1    5    5    0    0  0.21580876855E+02 -0.44889678015E+03  0.15046451377E+04  0.15703283236E+04  0.00000000000E+00 0.  1.
          5    1    4    4  502    0 -0.68310345707E+02  0.81728114129E+02  0.27844493296E+03  0.29816012252E+03  0.47000000000E+01 0.  1.
         -5    1    4    4    0  502  0.15453696621E+02  0.22966608907E+02 -0.78388272869E+00  0.28088900585E+02  0.47000000000E+01 0.  1.
<mgrwt>
<rscale>  0 0.99968555E+03</rscale>
<asrwt>0</asrwt>
<pdfrwt beam="1">  1        2 0.40350383E+00 0.99968555E+03</pdfrwt>
<pdfrwt beam="2">  1       -2 0.14655224E-01 0.99968555E+03</pdfrwt>
<totfact> 0.12168326E+02</totfact>
</mgrwt>
</event>
<event>
 9    1  0.4296086E-036  0.1000845E+04  0.7818608E-02  0.8680234E-01
         -2   -1    0    0    0  501 -0.00000000000E+00  0.00000000000E+00  0.21215436334E+03  0.21215436334E+03  0.00000000000E+00 0.  1.
          2   -1    0    0  501    0  0.00000000000E+00 -0.00000000000E+00 -0.11803791811E+04  0.11803791811E+04  0.00000000000E+00 0.  1.
         36    2    1    2    0    0  0.00000000000E+00 -0.14210854715E-13 -0.96822481773E+03  0.13925335444E+04  0.10008448305E+04 0.  0.
         25    2    3    3    0    0  0.11441335897E+03  0.66164513401E+02 -0.10803911384E+03  0.21167447831E+03  0.12516179570E+03 0.  0.
         35    2    3    3    0    0 -0.11441335897E+03 -0.66164513401E+02 -0.86018570390E+03  0.11808590661E+04  0.79814818755E+03 0.  0.
         22    1    5    5    0    0 -0.96679110647E+02 -0.18548795082E+03 -0.98518327586E+03  0.10071438414E+04  0.00000000000E+00 0. -1.
         22    1    5    5    0    0 -0.17734248327E+02  0.11932343742E+03  0.12499757196E+03  0.17371522466E+03  0.00000000000E+00 0. -1.
          5    1    4    4  502    0  0.10149176565E+03  0.90082287019E+02 -0.12036944783E+03  0.18145603021E+03  0.47000000000E+01 0.  1.
         -5    1    4    4    0  502  0.12921593326E+02 -0.23917773618E+02  0.12330333995E+02  0.30218448096E+02  0.47000000000E+01 0.  1.
<mgrwt>
<rscale>  0 0.10008448E+04</rscale>
<asrwt>0</asrwt>
<pdfrwt beam="1">  1        2 0.18159679E+00 0.10008448E+04</pdfrwt>
<pdfrwt beam="2">  1       -2 0.32639133E-01 0.10008448E+04</pdfrwt>
<totfact> 0.20519507E+02</totfact>
</mgrwt>
</event>
<event>
 9    1  0.4296086E-036  0.1000256E+04  0.7818608E-02  0.8680794E-01
         -2   -1    0    0    0  501 -0.00000000000E+00  0.00000000000E+00  0.10022798951E+03  0.10022798951E+03  0.00000000000E+00 0. -1.
          2   -1    0    0  501    0  0.00000000000E+00 -0.00000000000E+00 -0.24955912860E+04  0.24955912860E+04  0.00000000000E+00 0. -1.
         36    2    1    2    0    0 -0.14210854715E-13 -0.35527136788E-13 -0.23953632964E+04  0.25958192755E+04  0.10002561616E+04 0.  0.
         25    2    3    3    0    0  0.74217175806E+02 -0.66427905916E+01 -0.75629668933E+03  0.77020020097E+03  0.12518526842E+03 0.  0.
         35    2    3    3    0    0 -0.74217175806E+02  0.66427905916E+01 -0.16390666071E+04  0.18256190745E+04  0.80049568814E+03 0.  0.
         22    1    5    5    0    0 -0.13117627503E+03 -0.38449348147E+03 -0.75964460556E+03  0.86145364308E+03  0.00000000000E+00 0. -1.
         22    1    5    5    0    0  0.56959099221E+02  0.39113627206E+03 -0.87942200155E+03  0.96416543141E+03  0.00000000000E+00 0. -1.
          5    1    4    4  502    0  0.77643447731E+02 -0.56036692860E+02 -0.50994151121E+03  0.51887479297E+03  0.47000000000E+01 0. -1.
         -5    1    4    4    0  502 -0.34262719247E+01  0.49393902268E+02 -0.24635517812E+03  0.25132540800E+03  0.47000000000E+01 0. -1.
<mgrwt>
<rscale>  0 0.10002562E+04</rscale>
<asrwt>0</asrwt>
<pdfrwt beam="1">  1        2 0.38393710E+00 0.10002562E+04</pdfrwt>
<pdfrwt beam="2">  1       -2 0.15419692E-01 0.10002562E+04</pdfrwt>
<totfact> 0.13377453E+02</totfact>
</mgrwt>
</event>
<event>
 9    1  0.4296086E-036  0.9990625E+03  0.7818608E-02  0.8681931E-01
         -2   -1    0    0    0  501 -0.00000000000E+00  0.00000000000E+00  0.12494318543E+03  0.12494318543E+03  0.00000000000E+00 0.  1.
          2   -1    0    0  501    0  0.00000000000E+00 -0.00000000000E+00 -0.19971596542E+04  0.19971596542E+04  0.00000000000E+00 0.  1.
         36    2    1    2    0    0 -0.21316282073E-13  0.71054273576E-14 -0.18722164688E+04  0.21221028397E+04  0.99906253862E+03 0.  0.
         25    2    3    3    0    0  0.18101032141E+02 -0.36511573374E+02 -0.62907733354E+03  0.64300728602E+03  0.12672543529E+03 0.  0.
         35    2    3    3    0    0 -0.18101032141E+02  0.36511573374E+02 -0.12431391352E+04  0.14790955536E+04  0.80041739413E+03 0.  0.
         22    1    5    5    0    0  0.25376980298E+03  0.26641080508E+03 -0.94709239060E+03  0.10160501101E+04  0.00000000000E+00 0.  1.
         22    1    5    5    0    0 -0.27187083512E+03 -0.22989923171E+03 -0.29604674464E+03  0.46304544349E+03  0.00000000000E+00 0.  1.
          5    1    4    4  502    0  0.60705663494E+02 -0.58842627149E+02 -0.38770073305E+03  0.39683948991E+03  0.47000000000E+01 0.  1.
         -5    1    4    4    0  502 -0.42604631353E+02  0.22331053775E+02 -0.24137660049E+03  0.24616779611E+03  0.47000000000E+01 0.  1.
<mgrwt>
<rscale>  0 0.99906254E+03</rscale>
<asrwt>0</asrwt>
<pdfrwt beam="1">  1        2 0.30725532E+00 0.99906254E+03</pdfrwt>
<pdfrwt beam="2">  1       -2 0.19222029E-01 0.99906254E+03</pdfrwt>
<totfact> 0.18018826E+02</totfact>
</mgrwt>
</event>
<event>
 9    1  0.4296086E-036  0.9990490E+03  0.7818608E-02  0.8681944E-01
          2   -1    0    0  501    0  0.00000000000E+00  0.00000000000E+00  0.64765790425E+03  0.64765790425E+03  0.00000000000E+00 0.  1.
         -2   -1    0    0    0  501 -0.00000000000E+00 -0.00000000000E+00 -0.38527238913E+03  0.38527238913E+03  0.00000000000E+00 0.  1.
         36    2    1    2    0    0 -0.14210854715E-13 -0.14210854715E-13  0.26238551512E+03  0.10329302934E+04  0.99904896398E+03 0.  0.
         25    2    3    3    0    0 -0.10835890583E+03  0.30069555728E+02 -0.37127683338E+02  0.17204945174E+03  0.12480672385E+03 0.  0.
         35    2    3    3    0    0  0.10835890583E+03 -0.30069555728E+02  0.29951319845E+03  0.86088084164E+03  0.79922577336E+03 0.  0.
         22    1    5    5    0    0  0.23818852768E+03  0.22251887880E+03 -0.12586061946E+03  0.34941282413E+03  0.00000000000E+00 0. -1.
         22    1    5    5    0    0 -0.12982962185E+03 -0.25258843453E+03  0.42537381791E+03  0.51146801751E+03  0.00000000000E+00 0. -1.
          5    1    4    4  502    0 -0.97117515247E+02 -0.47491199054E+01  0.24356582378E+02  0.10034788993E+03  0.47000000000E+01 0.  1.
         -5    1    4    4    0  502 -0.11241390584E+02  0.34818675634E+02 -0.61484265716E+02  0.71701561809E+02  0.47000000000E+01 0.  1.
<mgrwt>
<rscale>  0 0.99904896E+03</rscale>
<asrwt>0</asrwt>
<pdfrwt beam="1">  1        2 0.99639678E-01 0.99904896E+03</pdfrwt>
<pdfrwt beam="2">  1       -2 0.59272675E-01 0.99904896E+03</pdfrwt>
<totfact> 0.14522200E+02</totfact>
</mgrwt>
</event>
<event>
 9    1  0.4296086E-036  0.1004248E+04  0.7818608E-02  0.8677003E-01
          2   -1    0    0  501    0  0.00000000000E+00  0.00000000000E+00  0.28187133461E+04  0.28187133461E+04  0.00000000000E+00 0.  1.
         -2   -1    0    0    0  501 -0.00000000000E+00 -0.00000000000E+00 -0.89448037089E+02  0.89448037089E+02  0.00000000000E+00 0.  1.
         36    2    1    2    0    0  0.00000000000E+00 -0.14210854715E-13  0.27292653090E+04  0.29081613832E+04  0.10042477302E+04 0.  0.
         25    2    3    3    0    0 -0.79690980858E+02  0.11825333125E+03  0.60800930860E+03  0.63682224790E+03  0.12463046696E+03 0.  0.
         35    2    3    3    0    0  0.79690980858E+02 -0.11825333125E+03  0.21212560004E+04  0.22713391353E+04  0.79932468086E+03 0.  0.
         22    1    5    5    0    0  0.22421077946E+03  0.10720929334E+02  0.20540971602E+04  0.20663253750E+04  0.00000000000E+00 0.  1.
         22    1    5    5    0    0 -0.14451979860E+03 -0.12897426059E+03  0.67158840231E+02  0.20501376028E+03  0.00000000000E+00 0.  1.
          5    1    4    4  502    0  0.52072592456E+01 -0.22205275373E+02  0.11024140306E+03  0.11267407311E+03  0.47000000000E+01 0.  1.
         -5    1    4    4    0  502 -0.84898240104E+02  0.14045860662E+03  0.49776790554E+03  0.52414817479E+03  0.47000000000E+01 0.  1.
<mgrwt>
<rscale>  0 0.10042477E+04</rscale>
<asrwt>0</asrwt>
<pdfrwt beam="1">  1        2 0.43364814E+00 0.10042477E+04</pdfrwt>
<pdfrwt beam="2">  1       -2 0.13761239E-01 0.10042477E+04</pdfrwt>
<totfact> 0.10158850E+02</totfact>
</mgrwt>
</event>
<event>
 9    1  0.4296086E-036  0.9998632E+03  0.7818608E-02  0.8681168E-01
          2   -1    0    0  501    0  0.00000000000E+00  0.00000000000E+00  0.17049928910E+04  0.17049928910E+04  0.00000000000E+00 0. -1.
         -2   -1    0    0    0  501 -0.00000000000E+00 -0.00000000000E+00 -0.14658805966E+03  0.14658805966E+03  0.00000000000E+00 0. -1.
         36    2    1    2    0    0  0.14210854715E-13 -0.28421709430E-13  0.15584048313E+04  0.18515809506E+04  0.99986318987E+03 0.  0.
         25    2    3    3    0    0 -0.49457015696E+02  0.78200368414E+02  0.48716932501E+03  0.51149361840E+03  0.12542119602E+03 0.  0.
         35    2    3    3    0    0  0.49457015696E+02 -0.78200368414E+02  0.10712355063E+04  0.13400873322E+04  0.79982951559E+03 0.  0.
         22    1    5    5    0    0 -0.11867300832E+03 -0.34984606411E+03  0.21787415424E+03  0.42888774587E+03  0.00000000000E+00 0. -1.
         22    1    5    5    0    0  0.16813002401E+03  0.27164569570E+03  0.85336135207E+03  0.91119958636E+03  0.00000000000E+00 0. -1.
          5    1    4    4  502    0 -0.32763777459E+02 -0.19982296090E+02  0.50580096078E+02  0.63664695002E+02  0.47000000000E+01 0. -1.
         -5    1    4    4    0  502 -0.16693238237E+02  0.98182664504E+02  0.43658922893E+03  0.44782892340E+03  0.47000000000E+01 0. -1.
<mgrwt>
<rscale>  0 0.99986319E+03</rscale>
<asrwt>0</asrwt>
<pdfrwt beam="1">  1        2 0.26230658E+00 0.99986319E+03</pdfrwt>
<pdfrwt beam="2">  1       -2 0.22552010E-01 0.99986319E+03</pdfrwt>
<totfact> 0.19970543E+02</totfact>
</mgrwt>
</event>
<event>
 9    1  0.4296086E-036  0.1000009E+04  0.7818608E-02  0.8681029E-01
          1   -1    0    0  501    0  0.00000000000E+00  0.00000000000E+00  0.15457309826E+04  0.15457309826E+04  0.00000000000E+00 0.  1.
         -1   -1    0    0    0  501 -0.00000000000E+00 -0.00000000000E+00 -0.16173876301E+03  0.16173876301E+03  0.00000000000E+00 0.  1.
         36    2    1    2    0    0  0.00000000000E+00  0.71054273576E-14  0.13839922196E+04  0.17074697456E+04  0.10000092341E+04 0.  0.
         25    2    3    3    0    0 -0.37748163609E+02 -0.40506685117E+02  0.41020176163E+02  0.14301553495E+03  0.12531988266E+03 0.  0.
         35    2    3    3    0    0  0.37748163609E+02  0.40506685117E+02  0.13429720434E+04  0.15644542106E+04  0.80054815748E+03 0.  0.
         22    1    5    5    0    0 -0.33608262601E+02 -0.22657197838E+03  0.12529576135E+04  0.12737217741E+04  0.00000000000E+00 0.  1.
         22    1    5    5    0    0  0.71356426210E+02  0.26707866350E+03  0.90014429941E+02  0.29073243654E+03  0.00000000000E+00 0.  1.
          5    1    4    4  502    0 -0.81322499554E+02 -0.73666582874E+01  0.20122362465E+02  0.84229543862E+02  0.47000000000E+01 0.  1.
         -5    1    4    4    0  502  0.43574335944E+02 -0.33140026829E+02  0.20897813698E+02  0.58785991091E+02  0.47000000000E+01 0.  1.
<mgrwt>
<rscale>  0 0.10000092E+04</rscale>
<asrwt>0</asrwt>
<pdfrwt beam="1">  1        1 0.23780476E+00 0.10000092E+04</pdfrwt>
<pdfrwt beam="2">  1       -1 0.24882888E-01 0.10000092E+04</pdfrwt>
<totfact> 0.92425889E+01</totfact>
</mgrwt>
</event>
<event>
 9    1  0.4296086E-036  0.9996421E+03  0.7818608E-02  0.8681379E-01
          2   -1    0    0  501    0  0.00000000000E+00  0.00000000000E+00  0.66835694946E+03  0.66835694946E+03  0.00000000000E+00 0. -1.
         -2   -1    0    0    0  501 -0.00000000000E+00 -0.00000000000E+00 -0.37378392843E+03  0.37378392843E+03  0.00000000000E+00 0. -1.
         36    2    1    2    0    0  0.42632564146E-13 -0.46185277824E-13  0.29457302103E+03  0.10421408779E+04  0.99964210828E+03 0.  0.
         25    2    3    3    0    0 -0.93144801982E+02  0.30869055888E+02  0.15211961321E+03  0.21994254385E+03  0.12492194813E+03 0.  0.
         35    2    3    3    0    0  0.93144801982E+02 -0.30869055888E+02  0.14245340783E+03  0.82219833404E+03  0.80379616468E+03 0.  0.
         22    1    5    5    0    0  0.29835944368E+03  0.27344677705E+03 -0.49950627554E+02  0.40778249436E+03  0.00000000000E+00 0.  1.
         22    1    5    5    0    0 -0.20521464170E+03 -0.30431583294E+03  0.19240403538E+03  0.41441583968E+03  0.00000000000E+00 0.  1.
          5    1    4    4  502    0  0.19533891150E+02  0.26504967980E+02  0.36683650759E+01  0.33460919495E+02  0.47000000000E+01 0.  1.
         -5    1    4    4    0  502 -0.11267869313E+03  0.43640879071E+01  0.14845124813E+03  0.18648162435E+03  0.47000000000E+01 0.  1.
<mgrwt>
<rscale>  0 0.99964211E+03</rscale>
<asrwt>0</asrwt>
<pdfrwt beam="1">  1        2 0.10282415E+00 0.99964211E+03</pdfrwt>
<pdfrwt beam="2">  1       -2 0.57505220E-01 0.99964211E+03</pdfrwt>
<totfact> 0.14885152E+02</totfact>
</mgrwt>
</event>
<event>
 9    1  0.4296086E-036  0.9987299E+03  0.7818608E-02  0.8682248E-01
          4   -1    0    0  501    0  0.00000000000E+00  0.00000000000E+00  0.10083473257E+04  0.10083473257E+04  0.00000000000E+00 0. -1.
         -4   -1    0    0    0  501 -0.00000000000E+00 -0.00000000000E+00 -0.24730103174E+03  0.24730103174E+03  0.00000000000E+00 0. -1.
         36    2    1    2    0    0 -0.14210854715E-13  0.28421709430E-13  0.76104629398E+03  0.12556483575E+04  0.99872986138E+03 0.  0.
         25    2    3    3    0    0 -0.11210849224E+03  0.68044017706E+02  0.94006322834E+02  0.20422211920E+03  0.12518459514E+03 0.  0.
         35    2    3    3    0    0  0.11210849224E+03 -0.68044017706E+02  0.66703997114E+03  0.10514262383E+04  0.80209507479E+03 0.  0.
         22    1    5    5    0    0 -0.23639060942E+03 -0.27040609929E+03  0.49896624983E+03  0.61479044984E+03  0.00000000000E+00 0. -1.
         22    1    5    5    0    0  0.34849910166E+03  0.20236208158E+03  0.16807372132E+03  0.43663578841E+03  0.00000000000E+00 0. -1.
          5    1    4    4  502    0 -0.95122935051E+02 -0.25914108991E+01  0.90392596522E+02  0.13133164009E+03  0.47000000000E+01 0.  1.
         -5    1    4    4    0  502 -0.16985557194E+02  0.70635428605E+02  0.36137263123E+01  0.72890479113E+02  0.47000000000E+01 0.  1.
<mgrwt>
<rscale>  0 0.99872986E+03</rscale>
<asrwt>0</asrwt>
<pdfrwt beam="1">  1        4 0.15513036E+00 0.99872986E+03</pdfrwt>
<pdfrwt beam="2">  1       -4 0.38046313E-01 0.99872986E+03</pdfrwt>
<totfact> 0.36148341E+00</totfact>
</mgrwt>
</event>
<event>
 9    1  0.4296086E-036  0.9995844E+03  0.7818608E-02  0.8681434E-01
          2   -1    0    0  501    0  0.00000000000E+00  0.00000000000E+00  0.58218402218E+03  0.58218402218E+03  0.00000000000E+00 0.  1.
         -2   -1    0    0    0  501 -0.00000000000E+00 -0.00000000000E+00 -0.42906063021E+03  0.42906063021E+03  0.00000000000E+00 0.  1.
         36    2    1    2    0    0  0.14210854715E-13 -0.35527136788E-14  0.15312339197E+03  0.10112446524E+04  0.99958440054E+03 0.  0.
         25    2    3    3    0    0  0.11109708697E+03  0.30624358415E+02  0.10862332785E+03  0.20157920768E+03  0.12471862553E+03 0.  0.
         35    2    3    3    0    0 -0.11109708697E+03 -0.30624358415E+02  0.44500064126E+02  0.80966544471E+03  0.80018589252E+03 0.  0.
         22    1    5    5    0    0  0.28876776769E+03 -0.59166585470E+02 -0.18473335688E+03  0.34787055298E+03  0.00000000000E+00 0.  1.
         22    1    5    5    0    0 -0.39986485466E+03  0.28542227055E+02  0.22923342100E+03  0.46179489172E+03  0.00000000000E+00 0.  1.
          5    1    4    4  502    0  0.10766571572E+03 -0.27533857998E+02  0.67424678295E+02  0.13006996933E+03  0.47000000000E+01 0. -1.
         -5    1    4    4    0  502  0.34313712575E+01  0.58158216413E+02  0.41198649552E+02  0.71509238354E+02  0.47000000000E+01 0. -1.
<mgrwt>
<rscale>  0 0.99958440E+03</rscale>
<asrwt>0</asrwt>
<pdfrwt beam="1">  1        2 0.89566773E-01 0.99958440E+03</pdfrwt>
<pdfrwt beam="2">  1       -2 0.66009327E-01 0.99958440E+03</pdfrwt>
<totfact> 0.13141647E+02</totfact>
</mgrwt>
</event>
<event>
 9    1  0.4296086E-036  0.1002144E+04  0.7818608E-02  0.8678999E-01
         -2   -1    0    0    0  501 -0.00000000000E+00  0.00000000000E+00  0.37765363553E+03  0.37765363553E+03  0.00000000000E+00 0.  1.
          2   -1    0    0  501    0  0.00000000000E+00 -0.00000000000E+00 -0.66482374598E+03  0.66482374598E+03  0.00000000000E+00 0.  1.
         36    2    1    2    0    0  0.14210854715E-13  0.00000000000E+00 -0.28717011045E+03  0.10424773815E+04  0.10021439111E+04 0.  0.
         25    2    3    3    0    0 -0.75338611398E+02  0.10630126826E+03  0.47619033894E+01  0.18064100342E+03  0.12503051784E+03 0.  0.
         35    2    3    3    0    0  0.75338611398E+02 -0.10630126826E+03 -0.29193201384E+03  0.86183637809E+03  0.80035103292E+03 0.  0.
         22    1    5    5    0    0 -0.31307516654E+03 -0.20962486591E+03 -0.26177238848E+03  0.45878472913E+03  0.00000000000E+00 0. -1.
         22    1    5    5    0    0  0.38841377794E+03  0.10332359765E+03 -0.30159625359E+02  0.40305164896E+03  0.00000000000E+00 0. -1.
          5    1    4    4  502    0 -0.49354239243E+02  0.86580076109E+02  0.59924415129E+02  0.11638288551E+03  0.47000000000E+01 0.  1.
         -5    1    4    4    0  502 -0.25984372155E+02  0.19721192149E+02 -0.55162511740E+02  0.64258117912E+02  0.47000000000E+01 0.  1.
<mgrwt>
<rscale>  0 0.10021439E+04</rscale>
<asrwt>0</asrwt>
<pdfrwt beam="1">  1        2 0.10228057E+00 0.10021439E+04</pdfrwt>
<pdfrwt beam="2">  1       -2 0.58100560E-01 0.10021439E+04</pdfrwt>
<totfact> 0.14664168E+02</totfact>
</mgrwt>
</event>
<event>
 9    1  0.4296086E-036  0.9982241E+03  0.7818608E-02  0.8682731E-01
          1   -1    0    0  501    0  0.00000000000E+00  0.00000000000E+00  0.32039662892E+04  0.32039662892E+04  0.00000000000E+00 0.  1.
         -1   -1    0    0    0  501 -0.00000000000E+00 -0.00000000000E+00 -0.77751396051E+02  0.77751396051E+02  0.00000000000E+00 0.  1.
         36    2    1    2    0    0  0.00000000000E+00 -0.71054273576E-14  0.31262148932E+04  0.32817176853E+04  0.99822412692E+03 0.  0.
         25    2    3    3    0    0 -0.92916837454E+02 -0.38533266785E+02  0.90212304380E+03  0.91630999566E+03  0.12521849173E+03 0.  0.
         35    2    3    3    0    0  0.92916837454E+02  0.38533266785E+02  0.22240918494E+04  0.23654076896E+04  0.79903105840E+03 0.  0.
         22    1    5    5    0    0  0.26566916804E+02  0.60616953836E+02 -0.54505015640E+02  0.85738048093E+02  0.00000000000E+00 0.  1.
         22    1    5    5    0    0  0.66349920650E+02 -0.22083687051E+02  0.22785968650E+04  0.22796696415E+04  0.00000000000E+00 0.  1.
          5    1    4    4  502    0 -0.85186119819E+02  0.19381149573E+02  0.71202245880E+03  0.71737742911E+03  0.47000000000E+01 0. -1.
         -5    1    4    4    0  502 -0.77307176345E+01 -0.57914416357E+02  0.19010058500E+03  0.19893256655E+03  0.47000000000E+01 0. -1.
<mgrwt>
<rscale>  0 0.99822413E+03</rscale>
<asrwt>0</asrwt>
<pdfrwt beam="1">  1        1 0.49291779E+00 0.99822413E+03</pdfrwt>
<pdfrwt beam="2">  1       -1 0.11961756E-01 0.99822413E+03</pdfrwt>
<totfact> 0.20424100E+01</totfact>
</mgrwt>
</event>
<event>
 9    1  0.4296086E-036  0.1001427E+04  0.7818608E-02  0.8679680E-01
         -1   -1    0    0    0  501 -0.00000000000E+00  0.00000000000E+00  0.22141160145E+03  0.22141160145E+03  0.00000000000E+00 0.  1.
          1   -1    0    0  501    0  0.00000000000E+00 -0.00000000000E+00 -0.11323438615E+04  0.11323438615E+04  0.00000000000E+00 0.  1.
         36    2    1    2    0    0 -0.28421709430E-13  0.28421709430E-13 -0.91093226005E+03  0.13537554629E+04  0.10014271172E+04 0.  0.
         25    2    3    3    0    0  0.35886181179E+02 -0.12667968173E+03 -0.96164667289E+02  0.20423181303E+03  0.12299361957E+03 0.  0.
         35    2    3    3    0    0 -0.35886181179E+02  0.12667968173E+03 -0.81476759276E+03  0.11495236499E+04  0.80013925772E+03 0.  0.
         22    1    5    5    0    0 -0.39304985762E+03 -0.68504595164E+02 -0.34023138189E+03  0.52434574792E+03  0.00000000000E+00 0. -1.
         22    1    5    5    0    0  0.35716367645E+03  0.19518427689E+03 -0.47453621087E+03  0.62517790199E+03  0.00000000000E+00 0. -1.
          5    1    4    4  502    0 -0.39426407555E+02 -0.25457204789E+02 -0.28794683391E+01  0.47253489039E+02  0.47000000000E+01 0.  1.
         -5    1    4    4    0  502  0.75312588734E+02 -0.10122247694E+03 -0.93285198950E+02  0.15697832399E+03  0.47000000000E+01 0.  1.
<mgrwt>
<rscale>  0 0.10014271E+04</rscale>
<asrwt>0</asrwt>
<pdfrwt beam="1">  1        1 0.17420675E+00 0.10014271E+04</pdfrwt>
<pdfrwt beam="2">  1       -1 0.34063323E-01 0.10014271E+04</pdfrwt>
<totfact> 0.10822195E+02</totfact>
</mgrwt>
</event>
<event>
 9    1  0.4296086E-036  0.1000238E+04  0.7818608E-02  0.8680812E-01
          1   -1    0    0  501    0  0.00000000000E+00  0.00000000000E+00  0.12989034532E+03  0.12989034532E+03  0.00000000000E+00 0.  1.
         -1   -1    0    0    0  501 -0.00000000000E+00 -0.00000000000E+00 -0.19256154470E+04  0.19256154470E+04  0.00000000000E+00 0.  1.
         36    2    1    2    0    0  0.71054273576E-14 -0.35527136788E-14 -0.17957251017E+04  0.20555057924E+04  0.10002376825E+04 0.  0.
         25    2    3    3    0    0  0.62277715657E+00 -0.24674024321E+02 -0.54940494000E+02  0.13855878103E+03  0.12478334260E+03 0.  0.
         35    2    3    3    0    0 -0.62277715657E+00  0.24674024321E+02 -0.17407846077E+04  0.19169470113E+04  0.80233758387E+03 0.  0.
         22    1    5    5    0    0  0.28582293189E+03 -0.21262472906E+03 -0.45171462874E+03  0.57528265194E+03  0.00000000000E+00 0. -1.
         22    1    5    5    0    0 -0.28644570905E+03  0.23729875338E+03 -0.12890699790E+04  0.13416643594E+04  0.00000000000E+00 0. -1.
          5    1    4    4  502    0 -0.32246464011E+02 -0.54369810632E+02  0.53319638379E+01  0.63611560174E+02  0.47000000000E+01 0.  1.
         -5    1    4    4    0  502  0.32869241167E+02  0.29695786311E+02 -0.60272457838E+02  0.74947220851E+02  0.47000000000E+01 0.  1.
<mgrwt>
<rscale>  0 0.10002377E+04</rscale>
<asrwt>0</asrwt>
<pdfrwt beam="1">  1        1 0.19983130E-01 0.10002377E+04</pdfrwt>
<pdfrwt beam="2">  1       -1 0.29624853E+00 0.10002377E+04</pdfrwt>
<totfact> 0.47165757E+00</totfact>
</mgrwt>
</event>
<event>
 9    1  0.4296086E-036  0.9992212E+03  0.7818608E-02  0.8681780E-01
         -2   -1    0    0    0  501 -0.00000000000E+00  0.00000000000E+00  0.31342187121E+03  0.31342187121E+03  0.00000000000E+00 0. -1.
          2   -1    0    0  501    0  0.00000000000E+00 -0.00000000000E+00 -0.79640503562E+03  0.79640503562E+03  0.00000000000E+00 0. -1.
         36    2    1    2    0    0  0.28421709430E-13 -0.71054273576E-14 -0.48298316442E+03  0.11098269068E+04  0.99922120975E+03 0.  0.
         25    2    3    3    0    0  0.68365018673E+02  0.32769150333E+02 -0.21434175343E+03  0.25958115118E+03  0.12526928510E+03 0.  0.
         35    2    3    3    0    0 -0.68365018673E+02 -0.32769150333E+02 -0.26864141099E+03  0.85024575565E+03  0.80312019295E+03 0.  0.
         22    1    5    5    0    0 -0.28008256329E+03  0.14265807102E+03 -0.42909278921E+03  0.53190054450E+03  0.00000000000E+00 0.  1.
         22    1    5    5    0    0  0.21171754462E+03 -0.17542722135E+03  0.16045137823E+03  0.31834521115E+03  0.00000000000E+00 0.  1.
          5    1    4    4  502    0 -0.12794470252E+02  0.28072239129E+02 -0.99515673755E+00  0.31222258337E+02  0.47000000000E+01 0.  1.
         -5    1    4    4    0  502  0.81159488925E+02  0.46969112033E+01 -0.21334659669E+03  0.22835889284E+03  0.47000000000E+01 0.  1.
<mgrwt>
<rscale>  0 0.99922121E+03</rscale>
<asrwt>0</asrwt>
<pdfrwt beam="1">  1        2 0.12252385E+00 0.99922121E+03</pdfrwt>
<pdfrwt beam="2">  1       -2 0.48218750E-01 0.99922121E+03</pdfrwt>
<totfact> 0.17087635E+02</totfact>
</mgrwt>
</event>
<event>
 9    1  0.4296086E-036  0.1000027E+04  0.7818608E-02  0.8681013E-01
          1   -1    0    0  501    0  0.00000000000E+00  0.00000000000E+00  0.12581974538E+04  0.12581974538E+04  0.00000000000E+00 0. -1.
         -1   -1    0    0    0  501 -0.00000000000E+00 -0.00000000000E+00 -0.19870756252E+03  0.19870756252E+03  0.00000000000E+00 0. -1.
         36    2    1    2    0    0 -0.71054273576E-14  0.28421709430E-13  0.10594898913E+04  0.14569050164E+04  0.10000266981E+04 0.  0.
         25    2    3    3    0    0  0.57611626555E+02 -0.88353263506E+02  0.77972152568E+02  0.18625481188E+03  0.13223388252E+03 0.  0.
         35    2    3    3    0    0 -0.57611626555E+02  0.88353263506E+02  0.98151773876E+03  0.12706502045E+04  0.80003091938E+03 0.  0.
         22    1    5    5    0    0 -0.10489846172E+03  0.43013259546E+03  0.68544784263E+03  0.81600029529E+03  0.00000000000E+00 0. -1.
         22    1    5    5    0    0  0.47286835170E+02 -0.34177933195E+03  0.29606989614E+03  0.45464990919E+03  0.00000000000E+00 0. -1.
          5    1    4    4  502    0 -0.42248864573E+01  0.17123447125E+02 -0.21759909259E+02  0.28401509783E+02  0.47000000000E+01 0. -1.
         -5    1    4    4    0  502  0.61836513012E+02 -0.10547671063E+03  0.99732061827E+02  0.15785330210E+03  0.47000000000E+01 0. -1.
<mgrwt>
<rscale>  0 0.10000267E+04</rscale>
<asrwt>0</asrwt>
<pdfrwt beam="1">  1        1 0.19356883E+00 0.10000267E+04</pdfrwt>
<pdfrwt beam="2">  1       -1 0.30570395E-01 0.10000267E+04</pdfrwt>
<totfact> 0.10504102E+02</totfact>
</mgrwt>
</event>
<event>
 9    1  0.4296086E-036  0.1000218E+04  0.7818608E-02  0.8680830E-01
         -2   -1    0    0    0  501 -0.00000000000E+00  0.00000000000E+00  0.58156041895E+03  0.58156041895E+03  0.00000000000E+00 0.  1.
          2   -1    0    0  501    0  0.00000000000E+00 -0.00000000000E+00 -0.43006569530E+03  0.43006569530E+03  0.00000000000E+00 0.  1.
         36    2    1    2    0    0 -0.14210854715E-13  0.71054273576E-14  0.15149472365E+03  0.10116261142E+04  0.10002183480E+04 0.  0.
         25    2    3    3    0    0  0.11207425993E+03 -0.45300806849E+02  0.98385218544E+02  0.20059540659E+03  0.12627772201E+03 0.  0.
         35    2    3    3    0    0 -0.11207425993E+03  0.45300806849E+02  0.53109505108E+02  0.81103070766E+03  0.80021083871E+03 0.  0.
         22    1    5    5    0    0 -0.13326361785E+03  0.24848239624E+02 -0.36630468207E+03  0.39058385394E+03  0.00000000000E+00 0. -1.
         22    1    5    5    0    0  0.21189357921E+02  0.20452567225E+02  0.41941418718E+03  0.42044685372E+03  0.00000000000E+00 0. -1.
          5    1    4    4  502    0  0.10237580336E+02 -0.58569814202E+02  0.73806290435E+02  0.94893043447E+02  0.47000000000E+01 0. -1.
         -5    1    4    4    0  502  0.10183667959E+03  0.13269007354E+02  0.24578928108E+02  0.10570236314E+03  0.47000000000E+01 0. -1.
<mgrwt>
<rscale>  0 0.10002183E+04</rscale>
<asrwt>0</asrwt>
<pdfrwt beam="1">  1        2 0.66163953E-01 0.10002183E+04</pdfrwt>
<pdfrwt beam="2">  1       -2 0.89470834E-01 0.10002183E+04</pdfrwt>
<totfact> 0.93807305E+01</totfact>
</mgrwt>
</event>
<event>
 9    1  0.4296086E-036  0.9997653E+03  0.7818608E-02  0.8681261E-01
         -2   -1    0    0    0  501 -0.00000000000E+00  0.00000000000E+00  0.89829759274E+02  0.89829759274E+02  0.00000000000E+00 0. -1.
          2   -1    0    0  501    0  0.00000000000E+00 -0.00000000000E+00 -0.27817360766E+04  0.27817360766E+04  0.00000000000E+00 0. -1.
         36    2    1    2    0    0  0.00000000000E+00  0.00000000000E+00 -0.26919063173E+04  0.28715658359E+04  0.99976533672E+03 0.  0.
         25    2    3    3    0    0  0.99648378300E+02 -0.57957241503E+02 -0.27664430178E+03  0.32475916520E+03  0.12509038545E+03 0.  0.
         35    2    3    3    0    0 -0.99648378300E+02  0.57957241503E+02 -0.24152620156E+04  0.25468066707E+04  0.79965290778E+03 0.  0.
         22    1    5    5    0    0 -0.40269622882E+02  0.49735659685E+02  0.49755104822E+02  0.81060772432E+02  0.00000000000E+00 0.  1.
         22    1    5    5    0    0 -0.59378755418E+02  0.82215818185E+01 -0.24650171204E+04  0.24657458983E+04  0.00000000000E+00 0.  1.
          5    1    4    4  502    0 -0.24945212781E+02 -0.20512745915E+02 -0.23880339636E+02  0.40440042121E+02  0.47000000000E+01 0. -1.
         -5    1    4    4    0  502  0.12459359108E+03 -0.37444495589E+02 -0.25276396214E+03  0.28431912307E+03  0.47000000000E+01 0. -1.
<mgrwt>
<rscale>  0 0.99976534E+03</rscale>
<asrwt>0</asrwt>
<pdfrwt beam="1">  1        2 0.42795948E+00 0.99976534E+03</pdfrwt>
<pdfrwt beam="2">  1       -2 0.13819960E-01 0.99976534E+03</pdfrwt>
<totfact> 0.10654918E+02</totfact>
</mgrwt>
</event>
<event>
 9    1  0.4296086E-036  0.1001574E+04  0.7818608E-02  0.8679540E-01
          1   -1    0    0  501    0  0.00000000000E+00  0.00000000000E+00  0.36116962077E+03  0.36116962077E+03  0.00000000000E+00 0.  1.
         -1   -1    0    0    0  501 -0.00000000000E+00 -0.00000000000E+00 -0.69437634836E+03  0.69437634836E+03  0.00000000000E+00 0.  1.
         36    2    1    2    0    0  0.00000000000E+00  0.00000000000E+00 -0.33320672759E+03  0.10555459691E+04  0.10015740460E+04 0.  0.
         25    2    3    3    0    0 -0.85651584993E+02 -0.66914419914E+02  0.33319336712E+02  0.16895787301E+03  0.12499140390E+03 0.  0.
         35    2    3    3    0    0  0.85651584993E+02  0.66914419914E+02 -0.36652606430E+03  0.88658809612E+03  0.79992709841E+03 0.  0.
         22    1    5    5    0    0  0.13729885087E+03 -0.62637384372E+02 -0.59777919772E+03  0.61653417228E+03  0.00000000000E+00 0. -1.
         22    1    5    5    0    0 -0.51647265873E+02  0.12955180429E+03  0.23125313341E+03  0.27005392384E+03  0.00000000000E+00 0. -1.
          5    1    4    4  502    0 -0.33157700006E+02  0.34211388916E+02  0.26498361573E+02  0.54718418903E+02  0.47000000000E+01 0. -1.
         -5    1    4    4    0  502 -0.52493884987E+02 -0.10112580883E+03  0.68209751387E+01  0.11423945411E+03  0.47000000000E+01 0. -1.
<mgrwt>
<rscale>  0 0.10015740E+04</rscale>
<asrwt>0</asrwt>
<pdfrwt beam="1">  1        1 0.55564557E-01 0.10015740E+04</pdfrwt>
<pdfrwt beam="2">  1       -1 0.10682713E+00 0.10015740E+04</pdfrwt>
<totfact> 0.67499946E+01</totfact>
</mgrwt>
</event>
<event>
 9    1  0.4296086E-036  0.9996875E+03  0.7818608E-02  0.8681336E-01
         -2   -1    0    0    0  501 -0.00000000000E+00  0.00000000000E+00  0.15147194158E+03  0.15147194158E+03  0.00000000000E+00 0. -1.
          2   -1    0    0  501    0  0.00000000000E+00 -0.00000000000E+00 -0.16494392662E+04  0.16494392662E+04  0.00000000000E+00 0. -1.
         36    2    1    2    0    0 -0.28421709430E-13  0.28421709430E-13 -0.14979673247E+04  0.18009112078E+04  0.99968748752E+03 0.  0.
         25    2    3    3    0    0  0.74522125222E+02  0.92081368042E+02 -0.41485390363E+03  0.44924023201E+03  0.12522180008E+03 0.  0.
         35    2    3    3    0    0 -0.74522125222E+02 -0.92081368042E+02 -0.10831134210E+04  0.13516709758E+04  0.79990450589E+03 0.  0.
         22    1    5    5    0    0  0.21275891855E+03 -0.26143153066E+03 -0.16583043731E+03  0.37564948633E+03  0.00000000000E+00 0. -1.
         22    1    5    5    0    0 -0.28728104378E+03  0.16935016261E+03 -0.91728298372E+03  0.97602148947E+03  0.00000000000E+00 0. -1.
          5    1    4    4  502    0 -0.22232499010E+02  0.23375360237E+02 -0.23296496353E+02  0.40068793602E+02  0.47000000000E+01 0.  1.
         -5    1    4    4    0  502  0.96754624232E+02  0.68706007805E+02 -0.39155740727E+03  0.40917143841E+03  0.47000000000E+01 0.  1.
<mgrwt>
<rscale>  0 0.99968749E+03</rscale>
<asrwt>0</asrwt>
<pdfrwt beam="1">  1        2 0.25375989E+00 0.99968749E+03</pdfrwt>
<pdfrwt beam="2">  1       -2 0.23303376E-01 0.99968749E+03</pdfrwt>
<totfact> 0.20262912E+02</totfact>
</mgrwt>
</event>
<event>
 9    1  0.4296086E-036  0.9996253E+03  0.7818608E-02  0.8681395E-01
          2   -1    0    0  501    0  0.00000000000E+00  0.00000000000E+00  0.33366994909E+03  0.33366994909E+03  0.00000000000E+00 0.  1.
         -2   -1    0    0    0  501 -0.00000000000E+00 -0.00000000000E+00 -0.74868198422E+03  0.74868198422E+03  0.00000000000E+00 0.  1.
         36    2    1    2    0    0 -0.28421709430E-13  0.14210854715E-13 -0.41501203513E+03  0.10823519333E+04  0.99962528891E+03 0.  0.
         25    2    3    3    0    0  0.13237963615E+03 -0.37680590542E+01 -0.42022851045E+02  0.18746304938E+03  0.12584875263E+03 0.  0.
         35    2    3    3    0    0 -0.13237963615E+03  0.37680590542E+01 -0.37298918409E+03  0.89488888392E+03  0.80259991078E+03 0.  0.
         22    1    5    5    0    0 -0.30198451723E+03  0.32115602304E+03 -0.28330100457E+03  0.52401841473E+03  0.00000000000E+00 0. -1.
         22    1    5    5    0    0  0.16960488109E+03 -0.31738796399E+03 -0.89688179513E+02  0.37087046919E+03  0.00000000000E+00 0. -1.
          5    1    4    4  502    0  0.47186521332E+02  0.44736450968E+02 -0.58920728195E+02  0.87872976800E+02  0.47000000000E+01 0.  1.
         -5    1    4    4    0  502  0.85193114816E+02 -0.48504510022E+02  0.16897877150E+02  0.99590072581E+02  0.47000000000E+01 0.  1.
<mgrwt>
<rscale>  0 0.99962529E+03</rscale>
<asrwt>0</asrwt>
<pdfrwt beam="1">  1        2 0.51333839E-01 0.99962529E+03</pdfrwt>
<pdfrwt beam="2">  1       -2 0.11518184E+00 0.99962529E+03</pdfrwt>
<totfact> 0.67129426E+01</totfact>
</mgrwt>
</event>
<event>
 9    1  0.4296086E-036  0.9993868E+03  0.7818608E-02  0.8681622E-01
          2   -1    0    0  501    0  0.00000000000E+00  0.00000000000E+00  0.74867185502E+03  0.74867185502E+03  0.00000000000E+00 0. -1.
         -2   -1    0    0    0  501 -0.00000000000E+00 -0.00000000000E+00 -0.33351529791E+03  0.33351529791E+03  0.00000000000E+00 0. -1.
         36    2    1    2    0    0  0.00000000000E+00 -0.14210854715E-13  0.41515655711E+03  0.10821871529E+04  0.99938684555E+03 0.  0.
         25    2    3    3    0    0 -0.10794438367E+03 -0.54361630924E+02  0.63652144795E+00  0.17428871765E+03  0.12557457966E+03 0.  0.
         35    2    3    3    0    0  0.10794438367E+03  0.54361630924E+02  0.41452003566E+03  0.90789843528E+03  0.79865232231E+03 0.  0.
         22    1    5    5    0    0 -0.29117709280E+03  0.21897842416E+03  0.26686290551E+03  0.45160985370E+03  0.00000000000E+00 0.  1.
         22    1    5    5    0    0  0.39912147647E+03 -0.16461679324E+03  0.14765713016E+03  0.45628858158E+03  0.00000000000E+00 0.  1.
          5    1    4    4  502    0 -0.10017818430E+03 -0.35939356036E+02  0.52310177596E+02  0.11868340491E+03  0.47000000000E+01 0. -1.
         -5    1    4    4    0  502 -0.77661993701E+01 -0.18422274888E+02 -0.51673656148E+02  0.55605312736E+02  0.47000000000E+01 0. -1.
<mgrwt>
<rscale>  0 0.99938685E+03</rscale>
<asrwt>0</asrwt>
<pdfrwt beam="1">  1        2 0.11518028E+00 0.99938685E+03</pdfrwt>
<pdfrwt beam="2">  1       -2 0.51310046E-01 0.99938685E+03</pdfrwt>
<totfact> 0.16327527E+02</totfact>
</mgrwt>
</event>
<event>
 9    1  0.4296086E-036  0.9965638E+03  0.7818608E-02  0.8684317E-01
         -1   -1    0    0    0  501 -0.00000000000E+00  0.00000000000E+00  0.28026929411E+03  0.28026929411E+03  0.00000000000E+00 0.  1.
          1   -1    0    0  501    0  0.00000000000E+00 -0.00000000000E+00 -0.88587969119E+03  0.88587969119E+03  0.00000000000E+00 0.  1.
         36    2    1    2    0    0  0.14210854715E-13  0.28421709430E-13 -0.60561039708E+03  0.11661489853E+04  0.99656384786E+03 0.  0.
         25    2    3    3    0    0  0.42513224161E+02  0.11626732565E+03 -0.17920956502E+03  0.25126358965E+03  0.12526714672E+03 0.  0.
         35    2    3    3    0    0 -0.42513224161E+02 -0.11626732565E+03 -0.42640083206E+03  0.91488539564E+03  0.79992009122E+03 0.  0.
         22    1    5    5    0    0 -0.16288952631E+03 -0.40446317691E+02  0.20655060339E+03  0.26614292054E+03  0.00000000000E+00 0. -1.
         22    1    5    5    0    0  0.12037630215E+03 -0.75821007959E+02 -0.63295143545E+03  0.64874247510E+03  0.00000000000E+00 0. -1.
          5    1    4    4  502    0 -0.11923768027E+02  0.17085069855E+02 -0.12300490714E+03  0.12484539654E+03  0.47000000000E+01 0. -1.
         -5    1    4    4    0  502  0.54436992188E+02  0.99182255795E+02 -0.56204657878E+02  0.12641819311E+03  0.47000000000E+01 0. -1.
<mgrwt>
<rscale>  0 0.99656385E+03</rscale>
<asrwt>0</asrwt>
<pdfrwt beam="1">  1        1 0.13628918E+00 0.99656385E+03</pdfrwt>
<pdfrwt beam="2">  1       -1 0.43118353E-01 0.99656385E+03</pdfrwt>
<totfact> 0.11199212E+02</totfact>
</mgrwt>
</event>
<event>
 9    1  0.4296086E-036  0.9979623E+03  0.7818608E-02  0.8682981E-01
         -1   -1    0    0    0  501 -0.00000000000E+00  0.00000000000E+00  0.11993688109E+03  0.11993688109E+03  0.00000000000E+00 0.  1.
          1   -1    0    0  501    0  0.00000000000E+00 -0.00000000000E+00 -0.20759433369E+04  0.20759433369E+04  0.00000000000E+00 0.  1.
         36    2    1    2    0    0  0.21316282073E-13  0.00000000000E+00 -0.19560064558E+04  0.21958802180E+04  0.99796226211E+03 0.  0.
         25    2    3    3    0    0 -0.13166781811E+02  0.13822738486E+03 -0.36083198021E+03  0.40686876915E+03  0.12673714253E+03 0.  0.
         35    2    3    3    0    0  0.13166781811E+02 -0.13822738486E+03 -0.15951744756E+04  0.17890114488E+04  0.79793494874E+03 0.  0.
         22    1    5    5    0    0  0.37318633993E+03 -0.11152953272E+03 -0.11596806068E+04  0.12233421397E+04  0.00000000000E+00 0.  1.
         22    1    5    5    0    0 -0.36001955812E+03 -0.26697852145E+02 -0.43549386877E+03  0.56566930912E+03  0.00000000000E+00 0.  1.
          5    1    4    4  502    0  0.53501316398E+02  0.87411495271E+02 -0.22321316628E+03  0.24566108353E+03  0.47000000000E+01 0.  1.
         -5    1    4    4    0  502 -0.66668098209E+02  0.50815889591E+02 -0.13761881394E+03  0.16120768562E+03  0.47000000000E+01 0.  1.
<mgrwt>
<rscale>  0 0.99796226E+03</rscale>
<asrwt>0</asrwt>
<pdfrwt beam="1">  1        1 0.31937590E+00 0.99796226E+03</pdfrwt>
<pdfrwt beam="2">  1       -1 0.18451828E-01 0.99796226E+03</pdfrwt>
<totfact> 0.64351782E+01</totfact>
</mgrwt>
</event>
<event>
 9    1  0.4296086E-036  0.1001990E+04  0.7818608E-02  0.8679145E-01
          2   -1    0    0  501    0  0.00000000000E+00  0.00000000000E+00  0.20209192372E+04  0.20209192372E+04  0.00000000000E+00 0.  1.
         -2   -1    0    0    0  501 -0.00000000000E+00 -0.00000000000E+00 -0.12419887181E+03  0.12419887181E+03  0.00000000000E+00 0.  1.
         36    2    1    2    0    0  0.00000000000E+00  0.31974423109E-13  0.18967203654E+04  0.21451181090E+04  0.10019897989E+04 0.  0.
         25    2    3    3    0    0  0.13092939625E+03 -0.28655322379E+02  0.24536999713E+03  0.30556323206E+03  0.12328349035E+03 0.  0.
         35    2    3    3    0    0 -0.13092939625E+03  0.28655322379E+02  0.16513503682E+04  0.18395548769E+04  0.79940007023E+03 0.  0.
         22    1    5    5    0    0 -0.23428199920E+03 -0.31097188375E+03  0.12215554972E+04  0.12821035061E+04  0.00000000000E+00 0.  1.
         22    1    5    5    0    0  0.10335260295E+03  0.33962720613E+03  0.42979487107E+03  0.55745137086E+03  0.00000000000E+00 0.  1.
          5    1    4    4  502    0  0.10302485815E+02 -0.48945356444E+02  0.31974142808E+02  0.59550188410E+02  0.47000000000E+01 0.  1.
         -5    1    4    4    0  502  0.12062691043E+03  0.20290034066E+02  0.21339585432E+03  0.24601304365E+03  0.47000000000E+01 0.  1.
<mgrwt>
<rscale>  0 0.10019898E+04</rscale>
<asrwt>0</asrwt>
<pdfrwt beam="1">  1        2 0.31091063E+00 0.10019898E+04</pdfrwt>
<pdfrwt beam="2">  1       -2 0.19107520E-01 0.10019898E+04</pdfrwt>
<totfact> 0.17645504E+02</totfact>
</mgrwt>
</event>
<event>
 9    1  0.4296086E-036  0.9993530E+03  0.7818608E-02  0.8681654E-01
          2   -1    0    0  501    0  0.00000000000E+00  0.00000000000E+00  0.21550615812E+04  0.21550615812E+04  0.00000000000E+00 0.  1.
         -2   -1    0    0    0  501 -0.00000000000E+00 -0.00000000000E+00 -0.11585590904E+03  0.11585590904E+03  0.00000000000E+00 0.  1.
         36    2    1    2    0    0 -0.56843418861E-13  0.00000000000E+00  0.20392056721E+04  0.22709174902E+04  0.99935302775E+03 0.  0.
         25    2    3    3    0    0  0.23412114195E+02 -0.41262777696E+02  0.80726666213E+02  0.15538198931E+03  0.12400009698E+03 0.  0.
         35    2    3    3    0    0 -0.23412114195E+02  0.41262777696E+02  0.19584790059E+04  0.21155355009E+04  0.79849840013E+03 0.  0.
         22    1    5    5    0    0  0.36049872197E+03 -0.15060011057E+02  0.13197525927E+04  0.13681860394E+04  0.00000000000E+00 0. -1.
         22    1    5    5    0    0 -0.38391083616E+03  0.56322788753E+02  0.63872641322E+03  0.74734946150E+03  0.00000000000E+00 0. -1.
          5    1    4    4  502    0  0.14563426478E+01 -0.61792831279E+02 -0.71389410549E+01  0.62398152303E+02  0.47000000000E+01 0. -1.
         -5    1    4    4    0  502  0.21955771547E+02  0.20530053584E+02  0.87865607268E+02  0.92983837009E+02  0.47000000000E+01 0. -1.
<mgrwt>
<rscale>  0 0.99935303E+03</rscale>
<asrwt>0</asrwt>
<pdfrwt beam="1">  1        2 0.33154791E+00 0.99935303E+03</pdfrwt>
<pdfrwt beam="2">  1       -2 0.17823988E-01 0.99935303E+03</pdfrwt>
<totfact> 0.16649328E+02</totfact>
</mgrwt>
</event>
<event>
 9    1  0.4296086E-036  0.1000275E+04  0.7818608E-02  0.8680776E-01
          2   -1    0    0  501    0  0.00000000000E+00  0.00000000000E+00  0.54041440698E+03  0.54041440698E+03  0.00000000000E+00 0. -1.
         -2   -1    0    0    0  501 -0.00000000000E+00 -0.00000000000E+00 -0.46286276991E+03  0.46286276991E+03  0.00000000000E+00 0. -1.
         36    2    1    2    0    0 -0.28421709430E-13  0.00000000000E+00  0.77551637072E+02  0.10032771769E+04  0.10002753807E+04 0.  0.
         25    2    3    3    0    0  0.70268173103E+02  0.71460614746E+02 -0.82678106705E+02  0.18056302032E+03  0.12539178349E+03 0.  0.
         35    2    3    3    0    0 -0.70268173103E+02 -0.71460614746E+02  0.16022974378E+03  0.82271415656E+03  0.80071266820E+03 0.  0.
         22    1    5    5    0    0  0.32235292001E+03  0.14983536423E+03  0.88787350362E+02  0.36639491672E+03  0.00000000000E+00 0.  1.
         22    1    5    5    0    0 -0.39262109312E+03 -0.22129597898E+03  0.71442393414E+02  0.45631923984E+03  0.00000000000E+00 0.  1.
          5    1    4    4  502    0 -0.93770179042E+01  0.54908985055E+02 -0.81798455739E+02  0.99075741057E+02  0.47000000000E+01 0.  1.
         -5    1    4    4    0  502  0.79645191008E+02  0.16551629691E+02 -0.87965096507E+00  0.81487279264E+02  0.47000000000E+01 0.  1.
<mgrwt>
<rscale>  0 0.10002754E+04</rscale>
<asrwt>0</asrwt>
<pdfrwt beam="1">  1        2 0.83140678E-01 0.10002754E+04</pdfrwt>
<pdfrwt beam="2">  1       -2 0.71209657E-01 0.10002754E+04</pdfrwt>
<totfact> 0.12170521E+02</totfact>
</mgrwt>
</event>
<event>
 9    1  0.4296086E-036  0.9998061E+03  0.7818608E-02  0.8681223E-01
         -3   -1    0    0    0  501 -0.00000000000E+00  0.00000000000E+00  0.16577947674E+04  0.16577947674E+04  0.00000000000E+00 0.  1.
          3   -1    0    0  501    0  0.00000000000E+00 -0.00000000000E+00 -0.15074427293E+03  0.15074427293E+03  0.00000000000E+00 0.  1.
         36    2    1    2    0    0 -0.42632564146E-13 -0.14210854715E-13  0.15070504945E+04  0.18085390404E+04  0.99980611498E+03 0.  0.
         25    2    3    3    0    0  0.99584540689E+02 -0.87931445553E+02  0.36414787132E+03  0.40716052719E+03  0.12460739487E+03 0.  0.
         35    2    3    3    0    0 -0.99584540689E+02  0.87931445553E+02  0.11429026232E+04  0.14013785132E+04  0.79999144448E+03 0.  0.
         22    1    5    5    0    0  0.14357455738E+03 -0.23365786485E+03  0.11526340920E+03  0.29748160420E+03  0.00000000000E+00 0.  1.
         22    1    5    5    0    0 -0.24315909807E+03  0.32158931040E+03  0.10276392140E+04  0.11038969090E+04  0.00000000000E+00 0.  1.
          5    1    4    4  502    0 -0.87557335552E+01 -0.48651422652E+02  0.20303657399E+03  0.20902048745E+03  0.47000000000E+01 0. -1.
         -5    1    4    4    0  502  0.10834027424E+03 -0.39280022901E+02  0.16111129734E+03  0.19814003975E+03  0.47000000000E+01 0. -1.
<mgrwt>
<rscale>  0 0.99980611E+03</rscale>
<asrwt>0</asrwt>
<pdfrwt beam="1">  1        3 0.23191428E-01 0.99980611E+03</pdfrwt>
<pdfrwt beam="2">  1       -3 0.25504534E+00 0.99980611E+03</pdfrwt>
<totfact> 0.26841878E+00</totfact>
</mgrwt>
</event>
<event>
 9    1  0.4296086E-036  0.9992463E+03  0.7818608E-02  0.8681756E-01
          2   -1    0    0  501    0  0.00000000000E+00  0.00000000000E+00  0.11026132230E+04  0.11026132230E+04  0.00000000000E+00 0. -1.
         -2   -1    0    0    0  501 -0.00000000000E+00 -0.00000000000E+00 -0.22639243262E+03  0.22639243262E+03  0.00000000000E+00 0. -1.
         36    2    1    2    0    0 -0.56843418861E-13  0.28421709430E-13  0.87622079039E+03  0.13290056556E+04  0.99924629555E+03 0.  0.
         25    2    3    3    0    0  0.12674223559E+03  0.38331371650E+02  0.11285490534E+03  0.21506337641E+03  0.12642443544E+03 0.  0.
         35    2    3    3    0    0 -0.12674223559E+03 -0.38331371650E+02  0.76336588505E+03  0.11139422792E+04  0.80037930922E+03 0.  0.
         22    1    5    5    0    0 -0.25905897283E+03 -0.31619188574E+03  0.68281725927E+03  0.79581924428E+03  0.00000000000E+00 0.  1.
         22    1    5    5    0    0  0.13231673723E+03  0.27786051409E+03  0.80548625785E+02  0.31812303494E+03  0.00000000000E+00 0.  1.
          5    1    4    4  502    0  0.14702528341E+03  0.45858004557E+02  0.75369946203E+02  0.17152874200E+03  0.47000000000E+01 0.  1.
         -5    1    4    4    0  502 -0.20283047811E+02 -0.75266329066E+01  0.37484959138E+02  0.43534634408E+02  0.47000000000E+01 0.  1.
<mgrwt>
<rscale>  0 0.99924630E+03</rscale>
<asrwt>0</asrwt>
<pdfrwt beam="1">  1        2 0.16963280E+00 0.99924630E+03</pdfrwt>
<pdfrwt beam="2">  1       -2 0.34829606E-01 0.99924630E+03</pdfrwt>
<totfact> 0.20252006E+02</totfact>
</mgrwt>
</event>
<event>
 9    1  0.4296086E-036  0.1002866E+04  0.7818608E-02  0.8678314E-01
         -2   -1    0    0    0  501 -0.00000000000E+00  0.00000000000E+00  0.30259312294E+03  0.30259312294E+03  0.00000000000E+00 0. -1.
          2   -1    0    0  501    0  0.00000000000E+00 -0.00000000000E+00 -0.83093378335E+03  0.83093378335E+03  0.00000000000E+00 0. -1.
         36    2    1    2    0    0  0.14210854715E-13  0.00000000000E+00 -0.52834066041E+03  0.11335269063E+04  0.10028655911E+04 0.  0.
         25    2    3    3    0    0 -0.42183091247E+02 -0.12909594946E+02  0.52190422854E+02  0.14533325435E+03  0.12826474088E+03 0.  0.
         35    2    3    3    0    0  0.42183091247E+02  0.12909594946E+02 -0.58053108327E+03  0.98819365194E+03  0.79847622649E+03 0.  0.
         22    1    5    5    0    0  0.78492631801E+02 -0.21743273684E+03 -0.69210423454E+03  0.72968922136E+03  0.00000000000E+00 0. -1.
         22    1    5    5    0    0 -0.36309540554E+02  0.23034233178E+03  0.11157315127E+03  0.25850443058E+03  0.00000000000E+00 0. -1.
          5    1    4    4  502    0  0.30046293495E+02  0.28024850533E+02 -0.87093822002E+01  0.42262457791E+02  0.47000000000E+01 0. -1.
         -5    1    4    4    0  502 -0.72229384742E+02 -0.40934445479E+02  0.60899805054E+02  0.10307079655E+03  0.47000000000E+01 0. -1.
<mgrwt>
<rscale>  0 0.10028656E+04</rscale>
<asrwt>0</asrwt>
<pdfrwt beam="1">  1        2 0.12783597E+00 0.10028656E+04</pdfrwt>
<pdfrwt beam="2">  1       -2 0.46552788E-01 0.10028656E+04</pdfrwt>
<totfact> 0.17333373E+02</totfact>
</mgrwt>
</event>
<event>
 9    1  0.4296086E-036  0.9994711E+03  0.7818608E-02  0.8681542E-01
          1   -1    0    0  501    0  0.00000000000E+00  0.00000000000E+00  0.10153252170E+04  0.10153252170E+04  0.00000000000E+00 0.  1.
         -1   -1    0    0    0  501 -0.00000000000E+00 -0.00000000000E+00 -0.24596614796E+03  0.24596614796E+03  0.00000000000E+00 0.  1.
         36    2    1    2    0    0 -0.14210854715E-13  0.00000000000E+00  0.76935906899E+03  0.12612913649E+04  0.99947112522E+03 0.  0.
         25    2    3    3    0    0  0.10900508795E+03 -0.87047995812E+02  0.13548006468E+03  0.23050422092E+03  0.12376544414E+03 0.  0.
         35    2    3    3    0    0 -0.10900508795E+03  0.87047995812E+02  0.63387900431E+03  0.10307871440E+04  0.80078716357E+03 0.  0.
         22    1    5    5    0    0  0.17478163867E+03 -0.25335605913E+03  0.73697775553E+02  0.31649530176E+03  0.00000000000E+00 0. -1.
         22    1    5    5    0    0 -0.28378672662E+03  0.34040405494E+03  0.56018122876E+03  0.71429184223E+03  0.00000000000E+00 0. -1.
          5    1    4    4  502    0  0.81137595070E+02 -0.70727248288E+02  0.15772392457E+03  0.19100936984E+03  0.47000000000E+01 0.  1.
         -5    1    4    4    0  502  0.27867492878E+02 -0.16320747524E+02 -0.22243859891E+02  0.39494851081E+02  0.47000000000E+01 0.  1.
<mgrwt>
<rscale>  0 0.99947113E+03</rscale>
<asrwt>0</asrwt>
<pdfrwt beam="1">  1        1 0.15620388E+00 0.99947113E+03</pdfrwt>
<pdfrwt beam="2">  1       -1 0.37840946E-01 0.99947113E+03</pdfrwt>
<totfact> 0.11091673E+02</totfact>
</mgrwt>
</event>
<event>
 9    1  0.4296086E-036  0.1000586E+04  0.7818608E-02  0.8680480E-01
         -1   -1    0    0    0  501 -0.00000000000E+00  0.00000000000E+00  0.46000929317E+03  0.46000929317E+03  0.00000000000E+00 0. -1.
          1   -1    0    0  501    0  0.00000000000E+00 -0.00000000000E+00 -0.54410451052E+03  0.54410451052E+03  0.00000000000E+00 0. -1.
         36    2    1    2    0    0  0.00000000000E+00  0.14210854715E-13 -0.84095217343E+02  0.10041138037E+04  0.10005860908E+04 0.  0.
         25    2    3    3    0    0  0.85159761564E+02 -0.11075521957E+03  0.26106757295E+01  0.18732638996E+03  0.12476160105E+03 0.  0.
         35    2    3    3    0    0 -0.85159761564E+02  0.11075521957E+03 -0.86705893072E+02  0.81678741373E+03  0.80006553711E+03 0.  0.
         22    1    5    5    0    0  0.69411839998E+02  0.44014965123E+03 -0.80954502442E+02  0.45288337403E+03  0.00000000000E+00 0. -1.
         22    1    5    5    0    0 -0.15457160156E+03 -0.32939443165E+03 -0.57513906308E+01  0.36390403970E+03  0.00000000000E+00 0. -1.
          5    1    4    4  502    0  0.10516797308E+01 -0.97937375639E+01 -0.45895485788E+02  0.47175300120E+02  0.47000000000E+01 0.  1.
         -5    1    4    4    0  502  0.84108081834E+02 -0.10096148201E+03  0.48506161517E+02  0.14015108984E+03  0.47000000000E+01 0.  1.
<mgrwt>
<rscale>  0 0.10005861E+04</rscale>
<asrwt>0</asrwt>
<pdfrwt beam="1">  1        1 0.83708386E-01 0.10005861E+04</pdfrwt>
<pdfrwt beam="2">  1       -1 0.70770661E-01 0.10005861E+04</pdfrwt>
<totfact> 0.93205376E+01</totfact>
</mgrwt>
</event>
<event>
 9    1  0.4296086E-036  0.9996304E+03  0.7818608E-02  0.8681390E-01
          2   -1    0    0  501    0  0.00000000000E+00  0.00000000000E+00  0.12148896206E+04  0.12148896206E+04  0.00000000000E+00 0.  1.
         -2   -1    0    0    0  501 -0.00000000000E+00 -0.00000000000E+00 -0.20562791546E+03  0.20562791546E+03  0.00000000000E+00 0.  1.
         36    2    1    2    0    0 -0.14210854715E-13  0.71054273576E-14  0.10092617052E+04  0.14205175361E+04  0.99963037209E+03 0.  0.
         25    2    3    3    0    0  0.12599381316E+03 -0.47992846889E+01  0.27463519702E+03  0.32762933106E+03  0.12656623975E+03 0.  0.
         35    2    3    3    0    0 -0.12599381316E+03  0.47992846889E+01  0.73462650815E+03  0.10928882050E+04  0.79926907116E+03 0.  0.
         22    1    5    5    0    0  0.28847563772E+03 -0.13382932752E+03  0.51122146839E+03  0.60205969156E+03  0.00000000000E+00 0. -1.
         22    1    5    5    0    0 -0.41446945088E+03  0.13862861221E+03  0.22340503976E+03  0.49082851346E+03  0.00000000000E+00 0. -1.
          5    1    4    4  502    0  0.10649150135E+03  0.37771273726E+02  0.25027157087E+03  0.27463622879E+03  0.47000000000E+01 0.  1.
         -5    1    4    4    0  502  0.19502311804E+02 -0.42570558415E+02  0.24363626150E+02  0.52993102274E+02  0.47000000000E+01 0.  1.
<mgrwt>
<rscale>  0 0.99963037E+03</rscale>
<asrwt>0</asrwt>
<pdfrwt beam="1">  1        2 0.18690609E+00 0.99963037E+03</pdfrwt>
<pdfrwt beam="2">  1       -2 0.31635065E-01 0.99963037E+03</pdfrwt>
<totfact> 0.20736418E+02</totfact>
</mgrwt>
</event>
<event>
 9    1  0.4296086E-036  0.1000054E+04  0.7818608E-02  0.8680986E-01
         -2   -1    0    0    0  501 -0.00000000000E+00  0.00000000000E+00  0.62370470270E+02  0.62370470270E+02  0.00000000000E+00 0. -1.
          2   -1    0    0  501    0  0.00000000000E+00 -0.00000000000E+00 -0.40087423053E+04  0.40087423053E+04  0.00000000000E+00 0. -1.
         36    2    1    2    0    0 -0.14210854715E-13  0.00000000000E+00 -0.39463718350E+04  0.40711127756E+04  0.10000542841E+04 0.  0.
         25    2    3    3    0    0 -0.59705386088E+02 -0.11504343444E+03 -0.53050449954E+03  0.56033835564E+03  0.12547638758E+03 0.  0.
         35    2    3    3    0    0  0.59705386088E+02  0.11504343444E+03 -0.34158673355E+04  0.35107744199E+04  0.80036719634E+03 0.  0.
         22    1    5    5    0    0 -0.18131279873E+03  0.39601822219E+03 -0.16496249764E+04  0.17061557157E+04  0.00000000000E+00 0. -1.
         22    1    5    5    0    0  0.24101818482E+03 -0.28097478775E+03 -0.17662423591E+04  0.18046187043E+04  0.00000000000E+00 0. -1.
          5    1    4    4  502    0 -0.86295072332E+02 -0.36767621898E+02 -0.22508258192E+03  0.24389127949E+03  0.47000000000E+01 0.  1.
         -5    1    4    4    0  502  0.26589686245E+02 -0.78275812542E+02 -0.30542191762E+03  0.31644707616E+03  0.47000000000E+01 0.  1.
<mgrwt>
<rscale>  0 0.10000543E+04</rscale>
<asrwt>0</asrwt>
<pdfrwt beam="1">  1        2 0.61672972E+00 0.10000543E+04</pdfrwt>
<pdfrwt beam="2">  1       -2 0.95954549E-02 0.10000543E+04</pdfrwt>
<totfact> 0.23859081E+01</totfact>
</mgrwt>
</event>
<event>
 9    1  0.4296086E-036  0.1003882E+04  0.7818608E-02  0.8677350E-01
         -2   -1    0    0    0  501 -0.00000000000E+00  0.00000000000E+00  0.57557083048E+02  0.57557083048E+02  0.00000000000E+00 0. -1.
          2   -1    0    0  501    0  0.00000000000E+00 -0.00000000000E+00 -0.43773009916E+04  0.43773009916E+04  0.00000000000E+00 0. -1.
         36    2    1    2    0    0  0.71054273576E-14  0.00000000000E+00 -0.43197439085E+04  0.44348580746E+04  0.10038818191E+04 0.  0.
         25    2    3    3    0    0  0.27764853402E+02 -0.93497924393E+02 -0.12872356092E+04  0.12973151774E+04  0.12860173786E+03 0.  0.
         35    2    3    3    0    0 -0.27764853402E+02  0.93497924393E+02 -0.30325082994E+04  0.31375428972E+04  0.79909705134E+03 0.  0.
         22    1    5    5    0    0  0.38174184218E+03 -0.63106770798E+01 -0.15445704542E+04  0.15910576818E+04  0.00000000000E+00 0. -1.
         22    1    5    5    0    0 -0.40950669558E+03  0.99808601473E+02 -0.14879378451E+04  0.15464852154E+04  0.00000000000E+00 0. -1.
          5    1    4    4  502    0  0.69235134704E+02 -0.16805507864E+02 -0.69857996107E+03  0.70221932541E+03  0.47000000000E+01 0. -1.
         -5    1    4    4    0  502 -0.41470281302E+02 -0.76692416530E+02 -0.58865564811E+03  0.59509585198E+03  0.47000000000E+01 0. -1.
<mgrwt>
<rscale>  0 0.10038818E+04</rscale>
<asrwt>0</asrwt>
<pdfrwt beam="1">  1        2 0.67343096E+00 0.10038818E+04</pdfrwt>
<pdfrwt beam="2">  1       -2 0.88549354E-02 0.10038818E+04</pdfrwt>
<totfact> 0.12342543E+01</totfact>
</mgrwt>
</event>
<event>
 9    1  0.4296086E-036  0.1001675E+04  0.7818608E-02  0.8679445E-01
         -2   -1    0    0    0  501 -0.00000000000E+00  0.00000000000E+00  0.23565879285E+03  0.23565879285E+03  0.00000000000E+00 0. -1.
          2   -1    0    0  501    0  0.00000000000E+00 -0.00000000000E+00 -0.10644119701E+04  0.10644119701E+04  0.00000000000E+00 0. -1.
         36    2    1    2    0    0 -0.28421709430E-13  0.00000000000E+00 -0.82875317725E+03  0.13000707629E+04  0.10016746777E+04 0.  0.
         25    2    3    3    0    0 -0.76529400900E+02 -0.10271312963E+03 -0.76265573358E+02  0.19456070402E+03  0.12502277261E+03 0.  0.
         35    2    3    3    0    0  0.76529400900E+02  0.10271312963E+03 -0.75248760389E+03  0.11055100589E+04  0.79969254103E+03 0.  0.
         22    1    5    5    0    0 -0.29600176930E+03 -0.16226042080E+03 -0.21639777235E+03  0.40096569362E+03  0.00000000000E+00 0. -1.
         22    1    5    5    0    0  0.37253117020E+03  0.26497355043E+03 -0.53608983154E+03  0.70454436530E+03  0.00000000000E+00 0. -1.
          5    1    4    4  502    0 -0.10522232709E+03 -0.93750341045E+02 -0.38703471514E+02  0.14622213674E+03  0.47000000000E+01 0. -1.
         -5    1    4    4    0  502  0.28692926191E+02 -0.89627885830E+01 -0.37562101844E+02  0.48338567288E+02  0.47000000000E+01 0. -1.
<mgrwt>
<rscale>  0 0.10016747E+04</rscale>
<asrwt>0</asrwt>
<pdfrwt beam="1">  1        2 0.16375569E+00 0.10016747E+04</pdfrwt>
<pdfrwt beam="2">  1       -2 0.36255199E-01 0.10016747E+04</pdfrwt>
<totfact> 0.19822296E+02</totfact>
</mgrwt>
</event>
<event>
 9    1  0.4296086E-036  0.1000217E+04  0.7818608E-02  0.8680831E-01
         -2   -1    0    0    0  501 -0.00000000000E+00  0.00000000000E+00  0.30128173091E+03  0.30128173091E+03  0.00000000000E+00 0.  1.
          2   -1    0    0  501    0  0.00000000000E+00 -0.00000000000E+00 -0.83014806206E+03  0.83014806206E+03  0.00000000000E+00 0.  1.
         36    2    1    2    0    0  0.14210854715E-13  0.14210854715E-13 -0.52886633114E+03  0.11314297930E+04  0.10002168666E+04 0.  0.
         25    2    3    3    0    0 -0.85429624427E+01  0.89711985499E+02 -0.21497627513E+03  0.26739843331E+03  0.13101870370E+03 0.  0.
         35    2    3    3    0    0  0.85429624427E+01 -0.89711985499E+02 -0.31389005601E+03  0.86403135966E+03  0.79993874807E+03 0.  0.
         22    1    5    5    0    0 -0.71173509304E+02  0.22757677846E+03 -0.45033602666E+03  0.50956785165E+03  0.00000000000E+00 0.  1.
         22    1    5    5    0    0  0.79716471747E+02 -0.31728876396E+03  0.13644597065E+03  0.35446350801E+03  0.00000000000E+00 0.  1.
          5    1    4    4  502    0  0.58002122867E+02  0.24120191185E+02 -0.11018999293E+03  0.12692499526E+03  0.47000000000E+01 0.  1.
         -5    1    4    4    0  502 -0.66545085310E+02  0.65591794314E+02 -0.10478628221E+03  0.14047343805E+03  0.47000000000E+01 0.  1.
<mgrwt>
<rscale>  0 0.10002169E+04</rscale>
<asrwt>0</asrwt>
<pdfrwt beam="1">  1        2 0.12771508E+00 0.10002169E+04</pdfrwt>
<pdfrwt beam="2">  1       -2 0.46351036E-01 0.10002169E+04</pdfrwt>
<totfact> 0.17504968E+02</totfact>
</mgrwt>
</event>
<event>
 9    1  0.4296086E-036  0.1000402E+04  0.7818608E-02  0.8680655E-01
          1   -1    0    0  501    0  0.00000000000E+00  0.00000000000E+00  0.25949948098E+04  0.25949948098E+04  0.00000000000E+00 0. -1.
         -1   -1    0    0    0  501 -0.00000000000E+00 -0.00000000000E+00 -0.96416871417E+02  0.96416871417E+02  0.00000000000E+00 0. -1.
         36    2    1    2    0    0  0.00000000000E+00  0.14210854715E-13  0.24985779384E+04  0.26914116812E+04  0.10004024808E+04 0.  0.
         25    2    3    3    0    0 -0.24629574071E+02 -0.10165785600E+03  0.71323473177E+03  0.73219639406E+03  0.12832319067E+03 0.  0.
         35    2    3    3    0    0  0.24629574071E+02  0.10165785600E+03  0.17853432066E+04  0.19592152872E+04  0.80008327094E+03 0.  0.
         22    1    5    5    0    0  0.13728547746E+03  0.39153919095E+03  0.14202548525E+04  0.14796195749E+04  0.00000000000E+00 0. -1.
         22    1    5    5    0    0 -0.11265590339E+03 -0.28988133495E+03  0.36508835418E+03  0.47959571232E+03  0.00000000000E+00 0. -1.
          5    1    4    4  502    0 -0.31181969962E+02 -0.97471722045E+01  0.36537096130E+02  0.49237912327E+02  0.47000000000E+01 0. -1.
         -5    1    4    4    0  502  0.65523958917E+01 -0.91910683795E+02  0.67669763564E+03  0.68295848173E+03  0.47000000000E+01 0. -1.
<mgrwt>
<rscale>  0 0.10004025E+04</rscale>
<asrwt>0</asrwt>
<pdfrwt beam="1">  1        1 0.39922992E+00 0.10004025E+04</pdfrwt>
<pdfrwt beam="2">  1       -1 0.14833367E-01 0.10004025E+04</pdfrwt>
<totfact> 0.39647037E+01</totfact>
</mgrwt>
</event>
<event>
 9    1  0.4296086E-036  0.1000333E+04  0.7818608E-02  0.8680721E-01
          4   -1    0    0  501    0  0.00000000000E+00  0.00000000000E+00  0.27124924869E+03  0.27124924869E+03  0.00000000000E+00 0. -1.
         -4   -1    0    0    0  501 -0.00000000000E+00 -0.00000000000E+00 -0.92227566037E+03  0.92227566037E+03  0.00000000000E+00 0. -1.
         36    2    1    2    0    0 -0.14210854715E-13  0.28421709430E-13 -0.65102641169E+03  0.11935249091E+04  0.10003331044E+04 0.  0.
         25    2    3    3    0    0 -0.11976878103E+03  0.71081310915E+02 -0.14450642259E+03  0.23673880750E+03  0.12556290510E+03 0.  0.
         35    2    3    3    0    0  0.11976878103E+03 -0.71081310915E+02 -0.50651998910E+03  0.95678610156E+03  0.79967495341E+03 0.  0.
         22    1    5    5    0    0 -0.25938521174E+03  0.10757549354E+02  0.63545071940E+02  0.26727212556E+03  0.00000000000E+00 0.  1.
         22    1    5    5    0    0  0.37915399276E+03 -0.81838860269E+02 -0.57006506104E+03  0.68951397600E+03  0.00000000000E+00 0.  1.
          5    1    4    4  502    0 -0.14871975814E+02  0.77376838642E+02 -0.84519234264E+02  0.11564575990E+03  0.47000000000E+01 0. -1.
         -5    1    4    4    0  502 -0.10489680521E+03 -0.62955277273E+01 -0.59987188321E+02  0.12109304759E+03  0.47000000000E+01 0. -1.
<mgrwt>
<rscale>  0 0.10003331E+04</rscale>
<asrwt>0</asrwt>
<pdfrwt beam="1">  1        4 0.41730653E-01 0.10003331E+04</pdfrwt>
<pdfrwt beam="2">  1       -4 0.14188857E+00 0.10003331E+04</pdfrwt>
<totfact> 0.39541184E+00</totfact>
</mgrwt>
</event>
<event>
 9    1  0.4296086E-036  0.1000162E+04  0.7818608E-02  0.8680884E-01
         -2   -1    0    0    0  501 -0.00000000000E+00  0.00000000000E+00  0.39941543281E+03  0.39941543281E+03  0.00000000000E+00 0. -1.
          2   -1    0    0  501    0  0.00000000000E+00 -0.00000000000E+00 -0.62611731346E+03  0.62611731346E+03  0.00000000000E+00 0. -1.
         36    2    1    2    0    0  0.00000000000E+00  0.00000000000E+00 -0.22670188065E+03  0.10255327463E+04  0.10001618224E+04 0.  0.
         25    2    3    3    0    0 -0.97433838719E+02 -0.85536122280E+02 -0.10192686907E+03  0.20578998542E+03  0.12308797797E+03 0.  0.
         35    2    3    3    0    0  0.97433838719E+02  0.85536122280E+02 -0.12477501158E+03  0.81974276085E+03  0.79974971666E+03 0.  0.
         22    1    5    5    0    0  0.21156423445E+03 -0.31830614097E+03 -0.97406082608E+00  0.38220305267E+03  0.00000000000E+00 0. -1.
         22    1    5    5    0    0 -0.11413039573E+03  0.40384226325E+03 -0.12380095076E+03  0.43753970817E+03  0.00000000000E+00 0. -1.
          5    1    4    4  502    0 -0.10546587347E+03 -0.13911908020E+02 -0.57996081071E+02  0.12125274047E+03  0.47000000000E+01 0.  1.
         -5    1    4    4    0  502  0.80320347497E+01 -0.71624214260E+02 -0.43930787998E+02  0.84537244956E+02  0.47000000000E+01 0.  1.
<mgrwt>
<rscale>  0 0.10001618E+04</rscale>
<asrwt>0</asrwt>
<pdfrwt beam="1">  1        2 0.96325741E-01 0.10001618E+04</pdfrwt>
<pdfrwt beam="2">  1       -2 0.61448528E-01 0.10001618E+04</pdfrwt>
<totfact> 0.14026877E+02</totfact>
</mgrwt>
</event>
<event>
 9    1  0.4296086E-036  0.9981112E+03  0.7818608E-02  0.8682839E-01
         -2   -1    0    0    0  501 -0.00000000000E+00  0.00000000000E+00  0.21848708700E+03  0.21848708700E+03  0.00000000000E+00 0. -1.
          2   -1    0    0  501    0  0.00000000000E+00 -0.00000000000E+00 -0.11399139881E+04  0.11399139881E+04  0.00000000000E+00 0. -1.
         36    2    1    2    0    0  0.00000000000E+00  0.00000000000E+00 -0.92142690106E+03  0.13584010751E+04  0.99811118956E+03 0.  0.
         25    2    3    3    0    0 -0.11558754392E+03  0.34032895357E+02 -0.26351269351E+03  0.31498753285E+03  0.12352929990E+03 0.  0.
         35    2    3    3    0    0  0.11558754392E+03 -0.34032895357E+02 -0.65791420755E+03  0.10434135422E+04  0.80083830909E+03 0.  0.
         22    1    5    5    0    0 -0.46906003349E+02 -0.15739038057E+02  0.18155029401E+03  0.18817119791E+03  0.00000000000E+00 0. -1.
         22    1    5    5    0    0  0.16249354727E+03 -0.18293857300E+02 -0.83946450156E+03  0.85524234430E+03  0.00000000000E+00 0. -1.
          5    1    4    4  502    0 -0.68463406412E+01  0.13496835939E+02  0.10786162250E+02  0.19169461564E+02  0.47000000000E+01 0. -1.
         -5    1    4    4    0  502 -0.10874120328E+03  0.20536059418E+02 -0.27429885576E+03  0.29581807128E+03  0.47000000000E+01 0. -1.
<mgrwt>
<rscale>  0 0.99811119E+03</rscale>
<asrwt>0</asrwt>
<pdfrwt beam="1">  1        2 0.17537138E+00 0.99811119E+03</pdfrwt>
<pdfrwt beam="2">  1       -2 0.33613398E-01 0.99811119E+03</pdfrwt>
<totfact> 0.20544534E+02</totfact>
</mgrwt>
</event>
<event>
 9    1  0.4296086E-036  0.9999505E+03  0.7818608E-02  0.8681085E-01
         -2   -1    0    0    0  501 -0.00000000000E+00  0.00000000000E+00  0.60273973073E+03  0.60273973073E+03  0.00000000000E+00 0. -1.
          2   -1    0    0  501    0  0.00000000000E+00 -0.00000000000E+00 -0.41473167980E+03  0.41473167980E+03  0.00000000000E+00 0. -1.
         36    2    1    2    0    0  0.00000000000E+00  0.00000000000E+00  0.18800805093E+03  0.10174714105E+04  0.99995052079E+03 0.  0.
         25    2    3    3    0    0  0.29456507970E+02  0.11787696460E+03 -0.35266124567E+02  0.17737314146E+03  0.12431760584E+03 0.  0.
         35    2    3    3    0    0 -0.29456507970E+02 -0.11787696460E+03  0.22327417550E+03  0.84009826907E+03  0.80071910156E+03 0.  0.
         22    1    5    5    0    0 -0.59836498426E+02 -0.18003150665E+02  0.52093155702E+03  0.52466580513E+03  0.00000000000E+00 0.  1.
         22    1    5    5    0    0  0.30379990456E+02 -0.99873813937E+02 -0.29765738152E+03  0.31543246394E+03  0.00000000000E+00 0.  1.
          5    1    4    4  502    0 -0.16734994735E+02 -0.19403369252E+02 -0.17467442497E+02  0.31364826391E+02  0.47000000000E+01 0. -1.
         -5    1    4    4    0  502  0.46191502705E+02  0.13728033385E+03 -0.17798682070E+02  0.14600831507E+03  0.47000000000E+01 0. -1.
<mgrwt>
<rscale>  0 0.99995052E+03</rscale>
<asrwt>0</asrwt>
<pdfrwt beam="1">  1        2 0.63804874E-01 0.99995052E+03</pdfrwt>
<pdfrwt beam="2">  1       -2 0.92729190E-01 0.99995052E+03</pdfrwt>
<totfact> 0.89823780E+01</totfact>
</mgrwt>
</event>
<event>
 9    1  0.4296086E-036  0.1002105E+04  0.7818608E-02  0.8679036E-01
         -2   -1    0    0    0  501 -0.00000000000E+00  0.00000000000E+00  0.24287757880E+03  0.24287757880E+03  0.00000000000E+00 0.  1.
          2   -1    0    0  501    0  0.00000000000E+00 -0.00000000000E+00 -0.10336630794E+04  0.10336630794E+04  0.00000000000E+00 0.  1.
         36    2    1    2    0    0  0.35527136788E-13  0.35527136788E-14 -0.79078550056E+03  0.12765406582E+04  0.10021049566E+04 0.  0.
         25    2    3    3    0    0 -0.13747382197E+02 -0.14884931722E+02  0.28102950735E+02  0.12972054125E+03  0.12500836481E+03 0.  0.
         35    2    3    3    0    0  0.13747382197E+02  0.14884931722E+02 -0.81888845129E+03  0.11468201169E+04  0.80262540027E+03 0.  0.
         22    1    5    5    0    0  0.38679370610E+03 -0.16066882337E+01 -0.60033485482E+03  0.71415256804E+03  0.00000000000E+00 0. -1.
         22    1    5    5    0    0 -0.37304632391E+03  0.16491619956E+02 -0.21855359648E+03  0.43266754886E+03  0.00000000000E+00 0. -1.
          5    1    4    4  502    0 -0.35716117407E+02  0.18522777134E+02 -0.35888399843E+02  0.54118403142E+02  0.47000000000E+01 0.  1.
         -5    1    4    4    0  502  0.21968735209E+02 -0.33407708856E+02  0.63991350577E+02  0.75602138107E+02  0.47000000000E+01 0.  1.
<mgrwt>
<rscale>  0 0.10021050E+04</rscale>
<asrwt>0</asrwt>
<pdfrwt beam="1">  1        2 0.15902509E+00 0.10021050E+04</pdfrwt>
<pdfrwt beam="2">  1       -2 0.37365781E-01 0.10021050E+04</pdfrwt>
<totfact> 0.19563426E+02</totfact>
</mgrwt>
</event>
<event>
 9    1  0.4296086E-036  0.1000277E+04  0.7818608E-02  0.8680774E-01
          2   -1    0    0  501    0  0.00000000000E+00  0.00000000000E+00  0.35538227335E+04  0.35538227335E+04  0.00000000000E+00 0.  1.
         -2   -1    0    0    0  501 -0.00000000000E+00 -0.00000000000E+00 -0.70385720376E+02  0.70385720376E+02  0.00000000000E+00 0.  1.
         36    2    1    2    0    0 -0.35527136788E-14  0.00000000000E+00  0.34834370131E+04  0.36242084539E+04  0.10002767081E+04 0.  0.
         25    2    3    3    0    0  0.58860992209E+01 -0.92522676019E+02  0.27152701282E+03  0.31293696194E+03  0.12493010733E+03 0.  0.
         35    2    3    3    0    0 -0.58860992209E+01  0.92522676019E+02  0.32119100003E+04  0.33112714920E+04  0.79972367197E+03 0.  0.
         22    1    5    5    0    0 -0.53033797298E+02  0.30440702836E+03  0.29708798816E+04  0.29869053373E+04  0.00000000000E+00 0. -1.
         22    1    5    5    0    0  0.47147698077E+02 -0.21188435234E+03  0.24103011867E+03  0.32436615469E+03  0.00000000000E+00 0. -1.
          5    1    4    4  502    0  0.37285366142E+02 -0.92374260128E+02  0.26113581408E+03  0.27953033084E+03  0.47000000000E+01 0. -1.
         -5    1    4    4    0  502 -0.31399266921E+02 -0.14841589045E+00  0.10391198739E+02  0.33406631103E+02  0.47000000000E+01 0. -1.
<mgrwt>
<rscale>  0 0.10002767E+04</rscale>
<asrwt>0</asrwt>
<pdfrwt beam="1">  1        2 0.54674182E+00 0.10002767E+04</pdfrwt>
<pdfrwt beam="2">  1       -2 0.10828575E-01 0.10002767E+04</pdfrwt>
<totfact> 0.46127191E+01</totfact>
</mgrwt>
</event>
<event>
 9    1  0.4296086E-036  0.9995860E+03  0.7818608E-02  0.8681432E-01
          1   -1    0    0  501    0  0.00000000000E+00  0.00000000000E+00  0.12383086464E+04  0.12383086464E+04  0.00000000000E+00 0. -1.
         -1   -1    0    0    0  501 -0.00000000000E+00 -0.00000000000E+00 -0.20172113543E+03  0.20172113543E+03  0.00000000000E+00 0. -1.
         36    2    1    2    0    0  0.14210854715E-13  0.00000000000E+00  0.10365875110E+04  0.14400297819E+04  0.99958596663E+03 0.  0.
         25    2    3    3    0    0 -0.83141974628E+02 -0.10806535167E+03  0.15139549379E+03  0.23906663709E+03  0.12506619549E+03 0.  0.
         35    2    3    3    0    0  0.83141974628E+02  0.10806535167E+03  0.88519201722E+03  0.12009631448E+04  0.80009803124E+03 0.  0.
         22    1    5    5    0    0  0.30272302026E+03 -0.24615994526E+03  0.36371779782E+03  0.53341033182E+03  0.00000000000E+00 0. -1.
         22    1    5    5    0    0 -0.21958104563E+03  0.35422529693E+03  0.52147421940E+03  0.66755281296E+03  0.00000000000E+00 0. -1.
          5    1    4    4  502    0  0.34866695847E+00 -0.59013458961E+02 -0.10573368207E+00  0.59201444972E+02  0.47000000000E+01 0. -1.
         -5    1    4    4    0  502 -0.83490641587E+02 -0.49051892706E+02  0.15150122747E+03  0.17986519212E+03  0.47000000000E+01 0. -1.
<mgrwt>
<rscale>  0 0.99958597E+03</rscale>
<asrwt>0</asrwt>
<pdfrwt beam="1">  1        1 0.19050902E+00 0.99958597E+03</pdfrwt>
<pdfrwt beam="2">  1       -1 0.31034022E-01 0.99958597E+03</pdfrwt>
<totfact> 0.10588336E+02</totfact>
</mgrwt>
</event>
<event>
 9    1  0.4296086E-036  0.9999390E+03  0.7818608E-02  0.8681096E-01
          2   -1    0    0  501    0  0.00000000000E+00  0.00000000000E+00  0.11380447741E+04  0.11380447741E+04  0.00000000000E+00 0.  1.
         -2   -1    0    0    0  501 -0.00000000000E+00 -0.00000000000E+00 -0.21964819661E+03  0.21964819661E+03  0.00000000000E+00 0.  1.
         36    2    1    2    0    0  0.21316282073E-13  0.00000000000E+00  0.91839657748E+03  0.13576929707E+04  0.99993896272E+03 0.  0.
         25    2    3    3    0    0  0.39820831489E+01 -0.13766479101E+03  0.13568220413E+03  0.23042969795E+03  0.12538234929E+03 0.  0.
         35    2    3    3    0    0 -0.39820831489E+01  0.13766479101E+03  0.78271437336E+03  0.11272632727E+04  0.79944558549E+03 0.  0.
         22    1    5    5    0    0  0.27270319748E+03  0.29509668328E+03  0.16900539077E+03  0.43590355413E+03  0.00000000000E+00 0. -1.
         22    1    5    5    0    0 -0.27668528062E+03 -0.15743189227E+03  0.61370898259E+03  0.69135971862E+03  0.00000000000E+00 0. -1.
          5    1    4    4  502    0  0.28376923515E+02  0.82432221718E+01  0.53078532010E+02  0.60931281460E+02  0.47000000000E+01 0. -1.
         -5    1    4    4    0  502 -0.24394840366E+02 -0.14590801318E+03  0.82603672115E+02  0.16949841649E+03  0.47000000000E+01 0. -1.
<mgrwt>
<rscale>  0 0.99993896E+03</rscale>
<asrwt>0</asrwt>
<pdfrwt beam="1">  1        2 0.17508381E+00 0.99993896E+03</pdfrwt>
<pdfrwt beam="2">  1       -2 0.33792031E-01 0.99993896E+03</pdfrwt>
<totfact> 0.20395923E+02</totfact>
</mgrwt>
</event>
<event>
 9    1  0.4296086E-036  0.9995248E+03  0.7818608E-02  0.8681491E-01
          2   -1    0    0  501    0  0.00000000000E+00  0.00000000000E+00  0.56322906553E+03  0.56322906553E+03  0.00000000000E+00 0.  1.
         -2   -1    0    0    0  501 -0.00000000000E+00 -0.00000000000E+00 -0.44344738541E+03  0.44344738541E+03  0.00000000000E+00 0.  1.
         36    2    1    2    0    0 -0.28421709430E-13  0.00000000000E+00  0.11978168012E+03  0.10066764509E+04  0.99952480008E+03 0.  0.
         25    2    3    3    0    0 -0.90182715342E+02  0.98870669233E+02 -0.18675389742E+02  0.18362310089E+03  0.12433962208E+03 0.  0.
         35    2    3    3    0    0  0.90182715342E+02 -0.98870669233E+02  0.13845706986E+03  0.82305335004E+03  0.80021130049E+03 0.  0.
         22    1    5    5    0    0  0.43209987153E+03 -0.16133982387E+03  0.46879453880E+02  0.46361462546E+03  0.00000000000E+00 0.  1.
         22    1    5    5    0    0 -0.34191715619E+03  0.62469154635E+02  0.91577615978E+02  0.35943872458E+03  0.00000000000E+00 0.  1.
          5    1    4    4  502    0 -0.98960277874E+02  0.52652703078E+02  0.29620227638E+02  0.11603831963E+03  0.47000000000E+01 0.  1.
         -5    1    4    4    0  502  0.87775625323E+01  0.46217966155E+02 -0.48295617380E+02  0.67584781258E+02  0.47000000000E+01 0.  1.
<mgrwt>
<rscale>  0 0.99952480E+03</rscale>
<asrwt>0</asrwt>
<pdfrwt beam="1">  1        2 0.86650626E-01 0.99952480E+03</pdfrwt>
<pdfrwt beam="2">  1       -2 0.68222675E-01 0.99952480E+03</pdfrwt>
<totfact> 0.12728614E+02</totfact>
</mgrwt>
</event>
<event>
 9    1  0.4296086E-036  0.9999734E+03  0.7818608E-02  0.8681063E-01
          2   -1    0    0  501    0  0.00000000000E+00  0.00000000000E+00  0.45183907679E+03  0.45183907679E+03  0.00000000000E+00 0. -1.
         -2   -1    0    0    0  501 -0.00000000000E+00 -0.00000000000E+00 -0.55326485119E+03  0.55326485119E+03  0.00000000000E+00 0. -1.
         36    2    1    2    0    0  0.71054273576E-14  0.00000000000E+00 -0.10142577440E+03  0.10051039280E+04  0.99997335881E+03 0.  0.
         25    2    3    3    0    0  0.36581143555E+01  0.13961943428E+03 -0.18955073107E+02  0.18879675561E+03  0.12561031767E+03 0.  0.
         35    2    3    3    0    0 -0.36581143555E+01 -0.13961943428E+03 -0.82470701294E+02  0.81630717237E+03  0.80003063370E+03 0.  0.
         22    1    5    5    0    0  0.18828199469E+03 -0.35623496049E+03 -0.25740042789E+03  0.47813014638E+03  0.00000000000E+00 0. -1.
         22    1    5    5    0    0 -0.19194010905E+03  0.21661552621E+03  0.17492972660E+03  0.33817702598E+03  0.00000000000E+00 0. -1.
          5    1    4    4  502    0 -0.29626159893E+02  0.87420898123E+02  0.42242545843E+02  0.10162010361E+03  0.47000000000E+01 0.  1.
         -5    1    4    4    0  502  0.33284274248E+02  0.52198536156E+02 -0.61197618950E+02  0.87176652002E+02  0.47000000000E+01 0.  1.
<mgrwt>
<rscale>  0 0.99997336E+03</rscale>
<asrwt>0</asrwt>
<pdfrwt beam="1">  1        2 0.69513705E-01 0.99997336E+03</pdfrwt>
<pdfrwt beam="2">  1       -2 0.85117669E-01 0.99997336E+03</pdfrwt>
<totfact> 0.99709706E+01</totfact>
</mgrwt>
</event>
<event>
 9    1  0.4296086E-036  0.1001100E+04  0.7818608E-02  0.8679991E-01
         -1   -1    0    0    0  501 -0.00000000000E+00  0.00000000000E+00  0.55161281096E+03  0.55161281096E+03  0.00000000000E+00 0. -1.
          1   -1    0    0  501    0  0.00000000000E+00 -0.00000000000E+00 -0.45421415977E+03  0.45421415977E+03  0.00000000000E+00 0. -1.
         36    2    1    2    0    0 -0.28421709430E-13  0.00000000000E+00  0.97398651189E+02  0.10058269707E+04  0.10011000938E+04 0.  0.
         25    2    3    3    0    0  0.11739890548E+03 -0.63057851835E+02 -0.31363014019E+02  0.18484820275E+03  0.12420315506E+03 0.  0.
         35    2    3    3    0    0 -0.11739890548E+03  0.63057851835E+02  0.12876166521E+03  0.82097876798E+03  0.79979233265E+03 0.  0.
         22    1    5    5    0    0  0.18122039139E+03  0.28803157365E+03 -0.13215360116E+03  0.36505834051E+03  0.00000000000E+00 0. -1.
         22    1    5    5    0    0 -0.29861929686E+03 -0.22497372181E+03  0.26091526637E+03  0.45592042747E+03  0.00000000000E+00 0. -1.
          5    1    4    4  502    0  0.24464934039E+02 -0.14119251862E+02  0.46090606962E+02  0.54261591580E+02  0.47000000000E+01 0.  1.
         -5    1    4    4    0  502  0.92933971436E+02 -0.48938599973E+02 -0.77453620980E+02  0.13058661117E+03  0.47000000000E+01 0.  1.
<mgrwt>
<rscale>  0 0.10011001E+04</rscale>
<asrwt>0</asrwt>
<pdfrwt beam="1">  1        1 0.69879101E-01 0.10011001E+04</pdfrwt>
<pdfrwt beam="2">  1       -1 0.84863510E-01 0.10011001E+04</pdfrwt>
<totfact> 0.82377879E+01</totfact>
</mgrwt>
</event>
<event>
 9    1  0.4296086E-036  0.9997093E+03  0.7818608E-02  0.8681315E-01
          2   -1    0    0  501    0  0.00000000000E+00  0.00000000000E+00  0.25545161535E+04  0.25545161535E+04  0.00000000000E+00 0. -1.
         -2   -1    0    0    0  501 -0.00000000000E+00 -0.00000000000E+00 -0.97808997593E+02  0.97808997593E+02  0.00000000000E+00 0. -1.
         36    2    1    2    0    0  0.28421709430E-13 -0.14210854715E-13  0.24567071559E+04  0.26523251511E+04  0.99970928635E+03 0.  0.
         25    2    3    3    0    0 -0.57630502748E+02 -0.57996690388E+02  0.74930427100E+03  0.76477206408E+03  0.12936200572E+03 0.  0.
         35    2    3    3    0    0  0.57630502748E+02  0.57996690388E+02  0.17074028849E+04  0.18875530870E+04  0.80059175235E+03 0.  0.
         22    1    5    5    0    0  0.30407797309E+03 -0.23455082036E+03  0.11425820317E+04  0.12053925502E+04  0.00000000000E+00 0. -1.
         22    1    5    5    0    0 -0.24644747034E+03  0.29254751075E+03  0.56482085322E+03  0.68216053676E+03  0.00000000000E+00 0. -1.
          5    1    4    4  502    0 -0.16497776630E+01  0.34364847812E+02  0.86497014972E+02  0.93206695739E+02  0.47000000000E+01 0.  1.
         -5    1    4    4    0  502 -0.55980725085E+02 -0.92361538200E+02  0.66280725602E+03  0.67156536834E+03  0.47000000000E+01 0.  1.
<mgrwt>
<rscale>  0 0.99970929E+03</rscale>
<asrwt>0</asrwt>
<pdfrwt beam="1">  1        2 0.39300243E+00 0.99970929E+03</pdfrwt>
<pdfrwt beam="2">  1       -2 0.15047540E-01 0.99970929E+03</pdfrwt>
<totfact> 0.12828772E+02</totfact>
</mgrwt>
</event>
<event>
 9    1  0.4296086E-036  0.1002095E+04  0.7818608E-02  0.8679045E-01
         -2   -1    0    0    0  501 -0.00000000000E+00  0.00000000000E+00  0.21464319761E+03  0.21464319761E+03  0.00000000000E+00 0.  1.
          2   -1    0    0  501    0  0.00000000000E+00 -0.00000000000E+00 -0.11696095990E+04  0.11696095990E+04  0.00000000000E+00 0.  1.
         36    2    1    2    0    0  0.00000000000E+00  0.00000000000E+00 -0.95496640138E+03  0.13842527966E+04  0.10020952934E+04 0.  0.
         25    2    3    3    0    0 -0.36750654990E+02  0.13452346864E+03 -0.13908713490E+03  0.23302359870E+03  0.12452948326E+03 0.  0.
         35    2    3    3    0    0  0.36750654990E+02 -0.13452346864E+03 -0.81587926649E+03  0.11512291979E+04  0.80013905938E+03 0.  0.
         22    1    5    5    0    0 -0.33724158334E+02 -0.78214707875E+02  0.15462982383E+03  0.17653680014E+03  0.00000000000E+00 0. -1.
         22    1    5    5    0    0  0.70474813324E+02 -0.56308760767E+02 -0.97050909032E+03  0.97469239776E+03  0.00000000000E+00 0. -1.
          5    1    4    4  502    0  0.16423600181E+02 -0.16744875541E+02 -0.61798076794E+01  0.24706386275E+02  0.47000000000E+01 0. -1.
         -5    1    4    4    0  502 -0.53174255172E+02  0.15126834418E+03 -0.13290732722E+03  0.20831721243E+03  0.47000000000E+01 0. -1.
<mgrwt>
<rscale>  0 0.10020953E+04</rscale>
<asrwt>0</asrwt>
<pdfrwt beam="1">  1        2 0.17993994E+00 0.10020953E+04</pdfrwt>
<pdfrwt beam="2">  1       -2 0.33022031E-01 0.10020953E+04</pdfrwt>
<totfact> 0.20380448E+02</totfact>
</mgrwt>
</event>
<event>
 9    1  0.4296086E-036  0.9990084E+03  0.7818608E-02  0.8681983E-01
         -1   -1    0    0    0  501 -0.00000000000E+00  0.00000000000E+00  0.19444998647E+03  0.19444998647E+03  0.00000000000E+00 0.  1.
          1   -1    0    0  501    0  0.00000000000E+00 -0.00000000000E+00 -0.12831291856E+04  0.12831291856E+04  0.00000000000E+00 0.  1.
         36    2    1    2    0    0  0.14210854715E-13  0.00000000000E+00 -0.10886791991E+04  0.14775791721E+04  0.99900841393E+03 0.  0.
         25    2    3    3    0    0 -0.27535296398E+02  0.12323599703E+03 -0.28845955952E+03  0.33900794306E+03  0.12558727828E+03 0.  0.
         35    2    3    3    0    0  0.27535296398E+02 -0.12323599703E+03 -0.80021963963E+03  0.11385712290E+04  0.80002979220E+03 0.  0.
         22    1    5    5    0    0  0.33623953281E+03  0.66489078915E+02 -0.11164012676E+03  0.36047377011E+03  0.00000000000E+00 0. -1.
         22    1    5    5    0    0 -0.30870423641E+03 -0.18972507594E+03 -0.68857951287E+03  0.77809745891E+03  0.00000000000E+00 0. -1.
          5    1    4    4  502    0  0.17580680440E+02  0.12847624889E+03 -0.18552114634E+03  0.22639658255E+03  0.47000000000E+01 0. -1.
         -5    1    4    4    0  502 -0.45115976838E+02 -0.52402518653E+01 -0.10293841318E+03  0.11261136050E+03  0.47000000000E+01 0. -1.
<mgrwt>
<rscale>  0 0.99900841E+03</rscale>
<asrwt>0</asrwt>
<pdfrwt beam="1">  1        1 0.19740450E+00 0.99900841E+03</pdfrwt>
<pdfrwt beam="2">  1       -1 0.29915381E-01 0.99900841E+03</pdfrwt>
<totfact> 0.10451750E+02</totfact>
</mgrwt>
</event>
<event>
 9    1  0.4296086E-036  0.1000231E+04  0.7818608E-02  0.8680818E-01
         -2   -1    0    0    0  501 -0.00000000000E+00  0.00000000000E+00  0.94140554489E+02  0.94140554489E+02  0.00000000000E+00 0.  1.
          2   -1    0    0  501    0  0.00000000000E+00 -0.00000000000E+00 -0.26568325596E+04  0.26568325596E+04  0.00000000000E+00 0.  1.
         36    2    1    2    0    0  0.56843418861E-13  0.00000000000E+00 -0.25626920051E+04  0.27509731141E+04  0.10002313539E+04 0.  0.
         25    2    3    3    0    0 -0.49554334022E+02  0.12587260808E+03 -0.56180059988E+03  0.59129623916E+03  0.12534665105E+03 0.  0.
         35    2    3    3    0    0  0.49554334022E+02 -0.12587260808E+03 -0.20008914052E+04  0.21596768749E+04  0.80146006957E+03 0.  0.
         22    1    5    5    0    0  0.36465601279E+03 -0.10451064184E+03 -0.16251456455E+04  0.16688303842E+04  0.00000000000E+00 0.  1.
         22    1    5    5    0    0 -0.31510167877E+03 -0.21361966241E+02 -0.37574575970E+03  0.49084649077E+03  0.00000000000E+00 0.  1.
          5    1    4    4  502    0  0.21540715867E+02  0.45421213162E+02 -0.61434467965E+02  0.79519638450E+02  0.47000000000E+01 0.  1.
         -5    1    4    4    0  502 -0.71095049889E+02  0.80451394922E+02 -0.50036613192E+03  0.51177660071E+03  0.47000000000E+01 0.  1.
<mgrwt>
<rscale>  0 0.10002314E+04</rscale>
<asrwt>0</asrwt>
<pdfrwt beam="1">  1        2 0.40874350E+00 0.10002314E+04</pdfrwt>
<pdfrwt beam="2">  1       -2 0.14483161E-01 0.10002314E+04</pdfrwt>
<totfact> 0.11818423E+02</totfact>
</mgrwt>
</event>
<event>
 9    1  0.4296086E-036  0.1000256E+04  0.7818608E-02  0.8680794E-01
         -1   -1    0    0    0  501 -0.00000000000E+00  0.00000000000E+00  0.30099753656E+03  0.30099753656E+03  0.00000000000E+00 0.  1.
          1   -1    0    0  501    0  0.00000000000E+00 -0.00000000000E+00 -0.83099731391E+03  0.83099731391E+03  0.00000000000E+00 0.  1.
         36    2    1    2    0    0  0.00000000000E+00 -0.28421709430E-13 -0.52999977734E+03  0.11319948505E+04  0.10002562559E+04 0.  0.
         25    2    3    3    0    0  0.84888077989E+02  0.11347936073E+03 -0.46764184782E+02  0.19488783247E+03  0.12534283853E+03 0.  0.
         35    2    3    3    0    0 -0.84888077989E+02 -0.11347936073E+03 -0.48323559256E+03  0.93710701799E+03  0.79029701642E+03 0.  0.
         22    1    5    5    0    0 -0.46828590049E+02 -0.41967471970E+03 -0.80702632000E+02  0.42992173941E+03  0.00000000000E+00 0. -1.
         22    1    5    5    0    0 -0.38059487940E+02  0.30619535897E+03 -0.40253296056E+03  0.50718527859E+03  0.00000000000E+00 0. -1.
          5    1    4    4  502    0  0.92221072152E+02  0.13585967360E+03 -0.47033932651E+02  0.17087088072E+03  0.47000000000E+01 0. -1.
         -5    1    4    4    0  502 -0.73329941637E+01 -0.22380312866E+02  0.26974786934E+00  0.24016951749E+02  0.47000000000E+01 0. -1.
<mgrwt>
<rscale>  0 0.10002563E+04</rscale>
<asrwt>0</asrwt>
<pdfrwt beam="1">  1        1 0.12784574E+00 0.10002563E+04</pdfrwt>
<pdfrwt beam="2">  1       -1 0.46307314E-01 0.10002563E+04</pdfrwt>
<totfact> 0.10955554E+02</totfact>
</mgrwt>
</event>
<event>
 9    1  0.4296086E-036  0.1002186E+04  0.7818608E-02  0.8678959E-01
          2   -1    0    0  501    0  0.00000000000E+00  0.00000000000E+00  0.71026772253E+03  0.71026772253E+03  0.00000000000E+00 0. -1.
         -2   -1    0    0    0  501 -0.00000000000E+00 -0.00000000000E+00 -0.35352070490E+03  0.35352070490E+03  0.00000000000E+00 0. -1.
         36    2    1    2    0    0  0.00000000000E+00 -0.35527136788E-14  0.35674701763E+03  0.10637884274E+04  0.10021863019E+04 0.  0.
         25    2    3    3    0    0 -0.95115937751E+02 -0.90282464103E+00  0.17609185228E+03  0.23726121753E+03  0.12742326396E+03 0.  0.
         35    2    3    3    0    0  0.95115937751E+02  0.90282464103E+00  0.18065516535E+03  0.82652720990E+03  0.80091390500E+03 0.  0.
         22    1    5    5    0    0  0.29804781312E+03 -0.29343029222E+02 -0.22321999432E+03  0.37352466871E+03  0.00000000000E+00 0.  1.
         22    1    5    5    0    0 -0.20293187537E+03  0.30245853863E+02  0.40387515968E+03  0.45300254119E+03  0.00000000000E+00 0.  1.
          5    1    4    4  502    0 -0.95653373753E+02  0.44995858077E+02  0.15201435667E+03  0.18521514460E+03  0.47000000000E+01 0.  1.
         -5    1    4    4    0  502  0.53743600186E+00 -0.45898682718E+02  0.24077495608E+02  0.52046072931E+02  0.47000000000E+01 0.  1.
<mgrwt>
<rscale>  0 0.10021863E+04</rscale>
<asrwt>0</asrwt>
<pdfrwt beam="1">  1        2 0.10927196E+00 0.10021863E+04</pdfrwt>
<pdfrwt beam="2">  1       -2 0.54387801E-01 0.10021863E+04</pdfrwt>
<totfact> 0.15492286E+02</totfact>
</mgrwt>
</event>
<event>
 9    1  0.4296086E-036  0.9980236E+03  0.7818608E-02  0.8682922E-01
          2   -1    0    0  501    0  0.00000000000E+00  0.00000000000E+00  0.10376267975E+04  0.10376267975E+04  0.00000000000E+00 0.  1.
         -2   -1    0    0    0  501 -0.00000000000E+00 -0.00000000000E+00 -0.23998296915E+03  0.23998296915E+03  0.00000000000E+00 0.  1.
         36    2    1    2    0    0  0.21316282073E-13  0.00000000000E+00  0.79764382831E+03  0.12776097666E+04  0.99802356629E+03 0.  0.
         25    2    3    3    0    0  0.70619679485E+01 -0.95453180433E+02  0.27565085459E+03  0.31728675132E+03  0.12460460619E+03 0.  0.
         35    2    3    3    0    0 -0.70619679485E+01  0.95453180433E+02  0.52199297372E+03  0.96032301528E+03  0.80036394722E+03 0.  0.
         22    1    5    5    0    0  0.38444050769E+03 -0.50083587449E+02  0.27127813836E+03  0.47317512407E+03  0.00000000000E+00 0.  1.
         22    1    5    5    0    0 -0.39150247564E+03  0.14553676788E+03  0.25071483536E+03  0.48714789121E+03  0.00000000000E+00 0.  1.
          5    1    4    4  502    0  0.57930323240E+01 -0.12535420657E+03  0.23663037334E+03  0.26788665498E+03  0.47000000000E+01 0.  1.
         -5    1    4    4    0  502  0.12689356245E+01  0.29901026140E+02  0.39020481250E+02  0.49400096344E+02  0.47000000000E+01 0.  1.
<mgrwt>
<rscale>  0 0.99802357E+03</rscale>
<asrwt>0</asrwt>
<pdfrwt beam="1">  1        2 0.15963489E+00 0.99802357E+03</pdfrwt>
<pdfrwt beam="2">  1       -2 0.36920457E-01 0.99802357E+03</pdfrwt>
<totfact> 0.19898789E+02</totfact>
</mgrwt>
</event>
<event>
 9    1  0.4296086E-036  0.9987467E+03  0.7818608E-02  0.8682232E-01
         -2   -1    0    0    0  501 -0.00000000000E+00  0.00000000000E+00  0.24590729779E+03  0.24590729779E+03  0.00000000000E+00 0.  1.
          2   -1    0    0  501    0  0.00000000000E+00 -0.00000000000E+00 -0.10140964679E+04  0.10140964679E+04  0.00000000000E+00 0.  1.
         36    2    1    2    0    0  0.28421709430E-13 -0.14210854715E-13 -0.76818917012E+03  0.12600037657E+04  0.99874665882E+03 0.  0.
         25    2    3    3    0    0 -0.11193716180E+03 -0.74322198487E+02 -0.94190742411E+02  0.20538851367E+03  0.12352662957E+03 0.  0.
         35    2    3    3    0    0  0.11193716180E+03  0.74322198487E+02 -0.67399842771E+03  0.10546152520E+04  0.79992857923E+03 0.  0.
         22    1    5    5    0    0  0.40503570933E+03  0.22399665833E+03 -0.50369147722E+03  0.68405667383E+03  0.00000000000E+00 0.  1.
         22    1    5    5    0    0 -0.29309854753E+03 -0.14967445984E+03 -0.17030695048E+03  0.37055857820E+03  0.00000000000E+00 0.  1.
          5    1    4    4  502    0 -0.65703153344E+02 -0.97677839907E+02 -0.97990601422E+02  0.15323874424E+03  0.47000000000E+01 0. -1.
         -5    1    4    4    0  502 -0.46234008454E+02  0.23355641420E+02  0.37998590113E+01  0.52149769437E+02  0.47000000000E+01 0. -1.
<mgrwt>
<rscale>  0 0.99874666E+03</rscale>
<asrwt>0</asrwt>
<pdfrwt beam="1">  1        2 0.15601484E+00 0.99874666E+03</pdfrwt>
<pdfrwt beam="2">  1       -2 0.37831892E-01 0.99874666E+03</pdfrwt>
<totfact> 0.19654235E+02</totfact>
</mgrwt>
</event>
<event>
 9    1  0.4296086E-036  0.1000608E+04  0.7818608E-02  0.8680459E-01
         -2   -1    0    0    0  501 -0.00000000000E+00  0.00000000000E+00  0.21906693232E+03  0.21906693232E+03  0.00000000000E+00 0.  1.
          2   -1    0    0  501    0  0.00000000000E+00 -0.00000000000E+00 -0.11425920931E+04  0.11425920931E+04  0.00000000000E+00 0.  1.
         36    2    1    2    0    0  0.00000000000E+00  0.00000000000E+00 -0.92352516078E+03  0.13616590254E+04  0.10006081046E+04 0.  0.
         25    2    3    3    0    0 -0.86909264297E+02 -0.10428993442E+03 -0.12927150021E+03  0.22632378999E+03  0.12681374730E+03 0.  0.
         35    2    3    3    0    0  0.86909264297E+02  0.10428993442E+03 -0.79425366056E+03  0.11353352354E+04  0.79982348606E+03 0.  0.
         22    1    5    5    0    0 -0.80938954744E+01 -0.11491497612E+03  0.13406892159E+03  0.17676379329E+03  0.00000000000E+00 0.  1.
         22    1    5    5    0    0  0.95003159771E+02  0.21920491054E+03 -0.92832258215E+03  0.95857144215E+03  0.00000000000E+00 0.  1.
          5    1    4    4  502    0 -0.69155384185E+02 -0.36724967699E+01 -0.96600841726E+02  0.11895279323E+03  0.47000000000E+01 0. -1.
         -5    1    4    4    0  502 -0.17753880111E+02 -0.10061743765E+03 -0.32670658489E+02  0.10737099676E+03  0.47000000000E+01 0. -1.
<mgrwt>
<rscale>  0 0.10006081E+04</rscale>
<asrwt>0</asrwt>
<pdfrwt beam="1">  1        2 0.17578340E+00 0.10006081E+04</pdfrwt>
<pdfrwt beam="2">  1       -2 0.33702604E-01 0.10006081E+04</pdfrwt>
<totfact> 0.20368096E+02</totfact>
</mgrwt>
</event>
<event>
 9    1  0.4296086E-036  0.9956731E+03  0.7818608E-02  0.8685169E-01
          1   -1    0    0  501    0  0.00000000000E+00  0.00000000000E+00  0.96296355354E+03  0.96296355354E+03  0.00000000000E+00 0. -1.
         -1   -1    0    0    0  501 -0.00000000000E+00 -0.00000000000E+00 -0.25737343797E+03  0.25737343797E+03  0.00000000000E+00 0. -1.
         36    2    1    2    0    0  0.00000000000E+00  0.00000000000E+00  0.70559011557E+03  0.12203369915E+04  0.99567311988E+03 0.  0.
         25    2    3    3    0    0 -0.11231427201E+03  0.70187573170E+02  0.10401517867E+03  0.21005657674E+03  0.12555403981E+03 0.  0.
         35    2    3    3    0    0  0.11231427201E+03 -0.70187573170E+02  0.60157493690E+03  0.10102804148E+04  0.80077045439E+03 0.  0.
         22    1    5    5    0    0 -0.55992062722E+02 -0.45464142614E+02  0.76854188266E+03  0.77191885892E+03  0.00000000000E+00 0.  1.
         22    1    5    5    0    0  0.16830633474E+03 -0.24723430556E+02 -0.16696694576E+03  0.23836155585E+03  0.00000000000E+00 0.  1.
          5    1    4    4  502    0 -0.11939829009E+02  0.69602577331E+02  0.79858213980E+02  0.10670755656E+03  0.47000000000E+01 0. -1.
         -5    1    4    4    0  502 -0.10037444300E+03  0.58499583836E+00  0.24156964695E+02  0.10334902018E+03  0.47000000000E+01 0. -1.
<mgrwt>
<rscale>  0 0.99567312E+03</rscale>
<asrwt>0</asrwt>
<pdfrwt beam="1">  1        1 0.14814824E+00 0.99567312E+03</pdfrwt>
<pdfrwt beam="2">  1       -1 0.39595914E-01 0.99567312E+03</pdfrwt>
<totfact> 0.11273516E+02</totfact>
</mgrwt>
</event>
<event>
 9    1  0.4296086E-036  0.9998400E+03  0.7818608E-02  0.8681190E-01
         -1   -1    0    0    0  501 -0.00000000000E+00  0.00000000000E+00  0.49126067792E+03  0.49126067792E+03  0.00000000000E+00 0. -1.
          1   -1    0    0  501    0  0.00000000000E+00 -0.00000000000E+00 -0.50873199923E+03  0.50873199923E+03  0.00000000000E+00 0. -1.
         36    2    1    2    0    0  0.00000000000E+00 -0.42632564146E-13 -0.17471321303E+02  0.99999267715E+03  0.99984004085E+03 0.  0.
         25    2    3    3    0    0 -0.41357030799E+02 -0.94106136109E+02  0.92932331534E+02  0.18576784123E+03  0.12372107234E+03 0.  0.
         35    2    3    3    0    0  0.41357030799E+02  0.94106136109E+02 -0.11040365284E+03  0.81422483592E+03  0.80012920708E+03 0.  0.
         22    1    5    5    0    0  0.23136216524E+03 -0.26053867943E+03 -0.20038469717E+03  0.40194885476E+03  0.00000000000E+00 0. -1.
         22    1    5    5    0    0 -0.19000513444E+03  0.35464481554E+03  0.89981044336E+02  0.41227598116E+03  0.00000000000E+00 0. -1.
          5    1    4    4  502    0 -0.28936973650E+02 -0.84193578887E+02 -0.22240861332E+01  0.89179278585E+02  0.47000000000E+01 0.  1.
         -5    1    4    4    0  502 -0.12420057149E+02 -0.99125572223E+01  0.95156417667E+02  0.96588562644E+02  0.47000000000E+01 0.  1.
<mgrwt>
<rscale>  0 0.99984004E+03</rscale>
<asrwt>0</asrwt>
<pdfrwt beam="1">  1        1 0.78266462E-01 0.99984004E+03</pdfrwt>
<pdfrwt beam="2">  1       -1 0.75578566E-01 0.99984004E+03</pdfrwt>
<totfact> 0.89750272E+01</totfact>
</mgrwt>
</event>
<event>
 9    1  0.4296086E-036  0.1000370E+04  0.7818608E-02  0.8680686E-01
          1   -1    0    0  501    0  0.00000000000E+00  0.00000000000E+00  0.28203511191E+04  0.28203511191E+04  0.00000000000E+00 0.  1.
         -1   -1    0    0    0  501 -0.00000000000E+00 -0.00000000000E+00 -0.88707014070E+02  0.88707014070E+02  0.00000000000E+00 0.  1.
         36    2    1    2    0    0 -0.14210854715E-13  0.14210854715E-13  0.27316441050E+04  0.29090581332E+04  0.10003697844E+04 0.  0.
         25    2    3    3    0    0  0.11609041855E+03 -0.69038663422E+02  0.65152566577E+03  0.67712590390E+03  0.12558054886E+03 0.  0.
         35    2    3    3    0    0 -0.11609041855E+03  0.69038663422E+02  0.20801184392E+04  0.22319322293E+04  0.79773769647E+03 0.  0.
         22    1    5    5    0    0 -0.88813944245E+02 -0.62252129168E+02 -0.33924846626E+02  0.11364039553E+03  0.00000000000E+00 0. -1.
         22    1    5    5    0    0 -0.27276474309E+02  0.13129079259E+03  0.21140432859E+04  0.21182918337E+04  0.00000000000E+00 0. -1.
          5    1    4    4  502    0 -0.14384658836E+02  0.11947702688E+02  0.22604050105E+02  0.29710252279E+02  0.47000000000E+01 0.  1.
         -5    1    4    4    0  502  0.13047507739E+03 -0.80986366109E+02  0.62892161566E+03  0.64741565162E+03  0.47000000000E+01 0.  1.
<mgrwt>
<rscale>  0 0.10003698E+04</rscale>
<asrwt>0</asrwt>
<pdfrwt beam="1">  1        1 0.43390010E+00 0.10003698E+04</pdfrwt>
<pdfrwt beam="2">  1       -1 0.13647235E-01 0.10003698E+04</pdfrwt>
<totfact> 0.31407492E+01</totfact>
</mgrwt>
</event>
<event>
 9    1  0.4296086E-036  0.1000031E+04  0.7818608E-02  0.8681009E-01
         -2   -1    0    0    0  501 -0.00000000000E+00  0.00000000000E+00  0.42588817487E+03  0.42588817487E+03  0.00000000000E+00 0. -1.
          2   -1    0    0  501    0  0.00000000000E+00 -0.00000000000E+00 -0.58704485658E+03  0.58704485658E+03  0.00000000000E+00 0. -1.
         36    2    1    2    0    0 -0.53290705182E-14  0.28421709430E-13 -0.16115668170E+03  0.10129330314E+04  0.10000309246E+04 0.  0.
         25    2    3    3    0    0  0.14680076955E+02 -0.13866727823E+03 -0.49117957474E+02  0.19334968454E+03  0.12460902076E+03 0.  0.
         35    2    3    3    0    0 -0.14680076955E+02  0.13866727823E+03 -0.11203872423E+03  0.81958334691E+03  0.79982502342E+03 0.  0.
         22    1    5    5    0    0 -0.25246701602E+02  0.12879459356E+03 -0.45641140850E+03  0.47490716680E+03  0.00000000000E+00 0.  1.
         22    1    5    5    0    0  0.10566624647E+02  0.98726846709E+01  0.34437268427E+03  0.34467618010E+03  0.00000000000E+00 0.  1.
          5    1    4    4  502    0 -0.51524528273E+02 -0.69991658130E+02 -0.25031685947E+01  0.87074480042E+02  0.47000000000E+01 0. -1.
         -5    1    4    4    0  502  0.66204605227E+02 -0.68675620098E+02 -0.46614788879E+02  0.10627520450E+03  0.47000000000E+01 0. -1.
<mgrwt>
<rscale>  0 0.10000309E+04</rscale>
<asrwt>0</asrwt>
<pdfrwt beam="1">  1        2 0.90314593E-01 0.10000309E+04</pdfrwt>
<pdfrwt beam="2">  1       -2 0.65521258E-01 0.10000309E+04</pdfrwt>
<totfact> 0.13221105E+02</totfact>
</mgrwt>
</event>
<event>
 9    1  0.4296086E-036  0.9989938E+03  0.7818608E-02  0.8681997E-01
         -2   -1    0    0    0  501 -0.00000000000E+00  0.00000000000E+00  0.22307688770E+03  0.22307688770E+03  0.00000000000E+00 0. -1.
          2   -1    0    0  501    0  0.00000000000E+00 -0.00000000000E+00 -0.11184357981E+04  0.11184357981E+04  0.00000000000E+00 0. -1.
         36    2    1    2    0    0  0.00000000000E+00  0.28421709430E-13 -0.89535891037E+03  0.13415126858E+04  0.99899384768E+03 0.  0.
         25    2    3    3    0    0  0.30406955198E+02  0.10554866936E+03 -0.27810355465E+03  0.32507469436E+03  0.12754162174E+03 0.  0.
         35    2    3    3    0    0 -0.30406955198E+02 -0.10554866936E+03 -0.61725535573E+03  0.10164379914E+04  0.80004806836E+03 0.  0.
         22    1    5    5    0    0  0.79901804668E+02  0.33410740634E+03 -0.18539167833E+03  0.39036153980E+03  0.00000000000E+00 0.  1.
         22    1    5    5    0    0 -0.11030875987E+03 -0.43965607570E+03 -0.43186367740E+03  0.62607645161E+03  0.00000000000E+00 0.  1.
          5    1    4    4  502    0  0.80189038356E+02  0.66119492022E+02 -0.18561788806E+03  0.21278665246E+03  0.47000000000E+01 0. -1.
         -5    1    4    4    0  502 -0.49782083158E+02  0.39429177341E+02 -0.92485666587E+02  0.11228804190E+03  0.47000000000E+01 0. -1.
<mgrwt>
<rscale>  0 0.99899385E+03</rscale>
<asrwt>0</asrwt>
<pdfrwt beam="1">  1        2 0.17206705E+00 0.99899385E+03</pdfrwt>
<pdfrwt beam="2">  1       -2 0.34319521E-01 0.99899385E+03</pdfrwt>
<totfact> 0.20362826E+02</totfact>
</mgrwt>
</event>
<event>
 9    1  0.4296086E-036  0.9911699E+03  0.7818608E-02  0.8689493E-01
         -2   -1    0    0    0  501 -0.00000000000E+00  0.00000000000E+00  0.18962628601E+03  0.18962628601E+03  0.00000000000E+00 0. -1.
          2   -1    0    0  501    0  0.00000000000E+00 -0.00000000000E+00 -0.12952025092E+04  0.12952025092E+04  0.00000000000E+00 0. -1.
         36    2    1    2    0    0  0.28421709430E-13 -0.28421709430E-13 -0.11055762232E+04  0.14848287952E+04  0.99116989756E+03 0.  0.
         25    2    3    3    0    0 -0.94357204406E+02  0.34020152905E+02 -0.32772085753E+03  0.36477512944E+03  0.12489708471E+03 0.  0.
         35    2    3    3    0    0  0.94357204406E+02 -0.34020152905E+02 -0.77785536568E+03  0.11200536658E+04  0.79962528194E+03 0.  0.
         22    1    5    5    0    0 -0.19861894618E+03 -0.31672605780E+03 -0.51139764945E+03  0.63347646944E+03  0.00000000000E+00 0.  1.
         22    1    5    5    0    0  0.29297615058E+03  0.28270590490E+03 -0.26645771623E+03  0.48657719636E+03  0.00000000000E+00 0.  1.
          5    1    4    4  502    0 -0.70461449735E+02  0.46839982305E+02 -0.32640104084E+03  0.33722178058E+03  0.47000000000E+01 0.  1.
         -5    1    4    4    0  502 -0.23895754671E+02 -0.12819829399E+02 -0.13198166979E+01  0.27553348857E+02  0.47000000000E+01 0.  1.
<mgrwt>
<rscale>  0 0.99116990E+03</rscale>
<asrwt>0</asrwt>
<pdfrwt beam="1">  1        2 0.19926192E+00 0.99116990E+03</pdfrwt>
<pdfrwt beam="2">  1       -2 0.29173276E-01 0.99116990E+03</pdfrwt>
<totfact> 0.21579503E+02</totfact>
</mgrwt>
</event>
<event>
 9    1  0.4296086E-036  0.1000158E+04  0.7818608E-02  0.8680888E-01
          1   -1    0    0  501    0  0.00000000000E+00  0.00000000000E+00  0.25287772959E+04  0.25287772959E+04  0.00000000000E+00 0. -1.
         -1   -1    0    0    0  501 -0.00000000000E+00 -0.00000000000E+00 -0.98893249573E+02  0.98893249573E+02  0.00000000000E+00 0. -1.
         36    2    1    2    0    0 -0.28421709430E-13  0.14210854715E-13  0.24298840463E+04  0.26276705455E+04  0.10001579960E+04 0.  0.
         25    2    3    3    0    0 -0.94266565310E+02 -0.42252648300E+01  0.72391192981E+03  0.74080748938E+03  0.12586983754E+03 0.  0.
         35    2    3    3    0    0  0.94266565310E+02  0.42252648300E+01  0.17059721165E+04  0.18868630561E+04  0.80062930993E+03 0.  0.
         22    1    5    5    0    0 -0.19942648780E+03  0.24081763047E+03  0.12813218789E+04  0.13189199416E+04  0.00000000000E+00 0. -1.
         22    1    5    5    0    0  0.29369305311E+03 -0.23659236564E+03  0.42465023767E+03  0.56794311448E+03  0.00000000000E+00 0. -1.
          5    1    4    4  502    0 -0.12999948693E+02  0.52497346402E+02  0.18343410034E+03  0.19129853427E+03  0.47000000000E+01 0. -1.
         -5    1    4    4    0  502 -0.81266616617E+02 -0.56722611232E+02  0.54047782947E+03  0.54950895512E+03  0.47000000000E+01 0. -1.
<mgrwt>
<rscale>  0 0.10001580E+04</rscale>
<asrwt>0</asrwt>
<pdfrwt beam="1">  1        1 0.38904261E+00 0.10001580E+04</pdfrwt>
<pdfrwt beam="2">  1       -1 0.15214348E-01 0.10001580E+04</pdfrwt>
<totfact> 0.42358709E+01</totfact>
</mgrwt>
</event>
<event>
 9    1  0.4296086E-036  0.9997063E+03  0.7818608E-02  0.8681318E-01
          2   -1    0    0  501    0  0.00000000000E+00  0.00000000000E+00  0.93334415306E+03  0.93334415306E+03  0.00000000000E+00 0.  1.
         -2   -1    0    0    0  501 -0.00000000000E+00 -0.00000000000E+00 -0.26769672120E+03  0.26769672120E+03  0.00000000000E+00 0.  1.
         36    2    1    2    0    0 -0.35527136788E-13 -0.28421709430E-13  0.66564743186E+03  0.12010408743E+04  0.99970629593E+03 0.  0.
         25    2    3    3    0    0 -0.53149888108E+02 -0.42236858065E+02 -0.23429611583E+02  0.14342744990E+03  0.12415161658E+03 0.  0.
         35    2    3    3    0    0  0.53149888108E+02  0.42236858065E+02  0.68907704344E+03  0.10576134244E+04  0.79944363204E+03 0.  0.
         22    1    5    5    0    0  0.29488616978E+03  0.31871031803E+03  0.34881188178E+03  0.55695946784E+03  0.00000000000E+00 0.  1.
         22    1    5    5    0    0 -0.24173628167E+03 -0.27647345997E+03  0.34026516166E+03  0.50065395652E+03  0.00000000000E+00 0.  1.
          5    1    4    4  502    0 -0.12937988249E+02 -0.53926085022E+02 -0.64081300818E+02  0.84875893516E+02  0.47000000000E+01 0. -1.
         -5    1    4    4    0  502 -0.40211899859E+02  0.11689226956E+02  0.40651689235E+02  0.58551556382E+02  0.47000000000E+01 0. -1.
<mgrwt>
<rscale>  0 0.99970630E+03</rscale>
<asrwt>0</asrwt>
<pdfrwt beam="1">  1        2 0.14359141E+00 0.99970630E+03</pdfrwt>
<pdfrwt beam="2">  1       -2 0.41184111E-01 0.99970630E+03</pdfrwt>
<totfact> 0.18809485E+02</totfact>
</mgrwt>
</event>
<event>
 9    1  0.4296086E-036  0.1000105E+04  0.7818608E-02  0.8680938E-01
          1   -1    0    0  501    0  0.00000000000E+00  0.00000000000E+00  0.30432537487E+03  0.30432537487E+03  0.00000000000E+00 0.  1.
         -1   -1    0    0    0  501 -0.00000000000E+00 -0.00000000000E+00 -0.82166151326E+03  0.82166151326E+03  0.00000000000E+00 0.  1.
         36    2    1    2    0    0  0.00000000000E+00 -0.28421709430E-13 -0.51733613839E+03  0.11259868881E+04  0.10001048906E+04 0.  0.
         25    2    3    3    0    0 -0.11423851997E+03  0.70305024139E+02 -0.54282010277E+02  0.19193164547E+03  0.12608720803E+03 0.  0.
         35    2    3    3    0    0  0.11423851997E+03 -0.70305024139E+02 -0.46305412811E+03  0.93405524266E+03  0.80002927128E+03 0.  0.
         22    1    5    5    0    0 -0.20360667777E+03 -0.33086428389E+03 -0.30423109537E+03  0.49344038442E+03  0.00000000000E+00 0.  1.
         22    1    5    5    0    0  0.31784519774E+03  0.26055925975E+03 -0.15882303274E+03  0.44061485824E+03  0.00000000000E+00 0.  1.
          5    1    4    4  502    0 -0.12633825689E+03  0.92785546065E+02 -0.38238098781E+02  0.16141485344E+03  0.47000000000E+01 0. -1.
         -5    1    4    4    0  502  0.12099736923E+02 -0.22480521926E+02 -0.16043911496E+02  0.30516792030E+02  0.47000000000E+01 0. -1.
<mgrwt>
<rscale>  0 0.10001049E+04</rscale>
<asrwt>0</asrwt>
<pdfrwt beam="1">  1        1 0.46819289E-01 0.10001049E+04</pdfrwt>
<pdfrwt beam="2">  1       -1 0.12640946E+00 0.10001049E+04</pdfrwt>
<totfact> 0.56174568E+01</totfact>
</mgrwt>
</event>
<event>
 9    1  0.4296086E-036  0.1005014E+04  0.7818608E-02  0.8676278E-01
         -1   -1    0    0    0  501 -0.00000000000E+00  0.00000000000E+00  0.36613714136E+03  0.36613714136E+03  0.00000000000E+00 0.  1.
          1   -1    0    0  501    0  0.00000000000E+00 -0.00000000000E+00 -0.68966829074E+03  0.68966829074E+03  0.00000000000E+00 0.  1.
         36    2    1    2    0    0 -0.56843418861E-13  0.00000000000E+00 -0.32353114938E+03  0.10558054321E+04  0.10050137839E+04 0.  0.
         25    2    3    3    0    0  0.37974105933E+02  0.13713058356E+03 -0.93474561170E+02  0.21169945128E+03  0.12582660457E+03 0.  0.
         35    2    3    3    0    0 -0.37974105933E+02 -0.13713058356E+03 -0.23005658821E+03  0.84410598081E+03  0.79958867138E+03 0.  0.
         22    1    5    5    0    0 -0.36559687258E+03 -0.66299240828E+02  0.88208853937E+02  0.38188671682E+03  0.00000000000E+00 0.  1.
         22    1    5    5    0    0  0.32762276664E+03 -0.70831342735E+02 -0.31826544215E+03  0.46221926399E+03  0.00000000000E+00 0.  1.
          5    1    4    4  502    0 -0.87606504641E+01  0.95486014384E+02 -0.11077447897E+03  0.14658582173E+03  0.47000000000E+01 0.  1.
         -5    1    4    4    0  502  0.46734756397E+02  0.41644569179E+02  0.17299917805E+02  0.65113629553E+02  0.47000000000E+01 0.  1.
<mgrwt>
<rscale>  0 0.10050138E+04</rscale>
<asrwt>0</asrwt>
<pdfrwt beam="1">  1        1 0.10610281E+00 0.10050138E+04</pdfrwt>
<pdfrwt beam="2">  1       -1 0.56328791E-01 0.10050138E+04</pdfrwt>
<totfact> 0.10234589E+02</totfact>
</mgrwt>
</event>
<event>
 9    1  0.4296086E-036  0.1000107E+04  0.7818608E-02  0.8680936E-01
          1   -1    0    0  501    0  0.00000000000E+00  0.00000000000E+00  0.42120814713E+03  0.42120814713E+03  0.00000000000E+00 0.  1.
         -1   -1    0    0    0  501 -0.00000000000E+00 -0.00000000000E+00 -0.59365781880E+03  0.59365781880E+03  0.00000000000E+00 0.  1.
         36    2    1    2    0    0  0.14210854715E-13  0.71054273576E-14 -0.17244967167E+03  0.10148659659E+04  0.10001070141E+04 0.  0.
         25    2    3    3    0    0  0.20205895502E+02  0.25317859244E+02 -0.17020697328E+03  0.21379667917E+03  0.12525707190E+03 0.  0.
         35    2    3    3    0    0 -0.20205895502E+02 -0.25317859244E+02 -0.22426983935E+01  0.80106928677E+03  0.80041095713E+03 0.  0.
         22    1    5    5    0    0 -0.37013090239E+03 -0.66286159584E+02  0.16553609487E+03  0.41084417796E+03  0.00000000000E+00 0. -1.
         22    1    5    5    0    0  0.34992500689E+03  0.40968300340E+02 -0.16777879326E+03  0.39022510881E+03  0.00000000000E+00 0. -1.
          5    1    4    4  502    0  0.65006289910E+02  0.44470714997E+02 -0.12050269125E+03  0.14403628299E+03  0.47000000000E+01 0.  1.
         -5    1    4    4    0  502 -0.44800394409E+02 -0.19152855753E+02 -0.49704282028E+02  0.69760396176E+02  0.47000000000E+01 0.  1.
<mgrwt>
<rscale>  0 0.10001070E+04</rscale>
<asrwt>0</asrwt>
<pdfrwt beam="1">  1        1 0.64801254E-01 0.10001070E+04</pdfrwt>
<pdfrwt beam="2">  1       -1 0.91331972E-01 0.10001070E+04</pdfrwt>
<totfact> 0.77987073E+01</totfact>
</mgrwt>
</event>
<event>
 9    1  0.4296086E-036  0.9989190E+03  0.7818608E-02  0.8682068E-01
         -2   -1    0    0    0  501 -0.00000000000E+00  0.00000000000E+00  0.27819386816E+04  0.27819386816E+04  0.00000000000E+00 0. -1.
          2   -1    0    0  501    0  0.00000000000E+00 -0.00000000000E+00 -0.89671208515E+02  0.89671208515E+02  0.00000000000E+00 0. -1.
         36    2    1    2    0    0 -0.21316282073E-13  0.28421709430E-13  0.26922674730E+04  0.28716098901E+04  0.99891902292E+03 0.  0.
         25    2    3    3    0    0  0.22918825986E+02 -0.13755438239E+03  0.48707835630E+03  0.52177275579E+03  0.12471969695E+03 0.  0.
         35    2    3    3    0    0 -0.22918825986E+02  0.13755438239E+03  0.22051891167E+04  0.23498371343E+04  0.79964306810E+03 0.  0.
         22    1    5    5    0    0  0.33825385259E+03 -0.10573539745E+03  0.12648152618E+04  0.13135270418E+04  0.00000000000E+00 0. -1.
         22    1    5    5    0    0 -0.36117267857E+03  0.24328977984E+03  0.94037385497E+03  0.10363100925E+04  0.00000000000E+00 0. -1.
          5    1    4    4  502    0 -0.29063818255E+02 -0.76031236139E+02  0.11452172594E+03  0.14058011991E+03  0.47000000000E+01 0.  1.
         -5    1    4    4    0  502  0.51982644241E+02 -0.61523146249E+02  0.37255663036E+03  0.38119263588E+03  0.47000000000E+01 0.  1.
<mgrwt>
<rscale>  0 0.99891902E+03</rscale>
<asrwt>0</asrwt>
<pdfrwt beam="1">  1        2 0.13795573E-01 0.99891902E+03</pdfrwt>
<pdfrwt beam="2">  1       -2 0.42799050E+00 0.99891902E+03</pdfrwt>
<totfact> 0.35891976E+00</totfact>
</mgrwt>
</event>
<event>
 9    1  0.4296086E-036  0.1000916E+04  0.7818608E-02  0.8680166E-01
          2   -1    0    0  501    0  0.00000000000E+00  0.00000000000E+00  0.13031565395E+04  0.13031565395E+04  0.00000000000E+00 0. -1.
         -2   -1    0    0    0  501 -0.00000000000E+00 -0.00000000000E+00 -0.19219359332E+03  0.19219359332E+03  0.00000000000E+00 0. -1.
         36    2    1    2    0    0  0.00000000000E+00  0.71054273576E-14  0.11109629462E+04  0.14953501328E+04  0.10009162562E+04 0.  0.
         25    2    3    3    0    0  0.10402992811E+03 -0.44663952223E+02  0.86226965008E+02  0.18934207540E+03  0.12489290392E+03 0.  0.
         35    2    3    3    0    0 -0.10402992811E+03  0.44663952223E+02  0.10247359812E+04  0.13060080574E+04  0.80172072468E+03 0.  0.
         22    1    5    5    0    0 -0.42972757154E+03 -0.91722561723E+02  0.43283473450E+03  0.61678579869E+03  0.00000000000E+00 0. -1.
         22    1    5    5    0    0  0.32569764344E+03  0.13638651395E+03  0.59190124667E+03  0.68922225873E+03  0.00000000000E+00 0. -1.
          5    1    4    4  502    0  0.10151266007E+03  0.32629473004E+01  0.96343170882E+02  0.14006985241E+03  0.47000000000E+01 0.  1.
         -5    1    4    4    0  502  0.25172680371E+01 -0.47926899523E+02 -0.10116205874E+02  0.49272222982E+02  0.47000000000E+01 0.  1.
<mgrwt>
<rscale>  0 0.10009163E+04</rscale>
<asrwt>0</asrwt>
<pdfrwt beam="1">  1        2 0.20048562E+00 0.10009163E+04</pdfrwt>
<pdfrwt beam="2">  1       -2 0.29568246E-01 0.10009163E+04</pdfrwt>
<totfact> 0.20835668E+02</totfact>
</mgrwt>
</event>
<event>
 9    1  0.4296086E-036  0.1000878E+04  0.7818608E-02  0.8680202E-01
         -2   -1    0    0    0  501 -0.00000000000E+00  0.00000000000E+00  0.99175340799E+02  0.99175340799E+02  0.00000000000E+00 0. -1.
          2   -1    0    0  501    0  0.00000000000E+00 -0.00000000000E+00 -0.25252156863E+04  0.25252156863E+04  0.00000000000E+00 0. -1.
         36    2    1    2    0    0  0.71054273576E-14 -0.28421709430E-13 -0.24260403455E+04  0.26243910271E+04  0.10008778672E+04 0.  0.
         25    2    3    3    0    0 -0.36222613981E+02  0.79184524311E+02 -0.16557752647E+03  0.22478029625E+03  0.12461138655E+03 0.  0.
         35    2    3    3    0    0  0.36222613981E+02 -0.79184524311E+02 -0.22604628190E+04  0.23996107309E+04  0.80053559366E+03 0.  0.
         22    1    5    5    0    0 -0.44505887292E+02  0.35766811058E+03 -0.96731450299E+03  0.10322812596E+04  0.00000000000E+00 0. -1.
         22    1    5    5    0    0  0.80728501273E+02 -0.43685263489E+03 -0.12931483161E+04  0.13673294712E+04  0.00000000000E+00 0. -1.
          5    1    4    4  502    0  0.17284987014E+02  0.28953100156E+00 -0.11572016805E+03  0.11709868444E+03  0.47000000000E+01 0.  1.
         -5    1    4    4    0  502 -0.53507600995E+02  0.78894993310E+02 -0.49857358419E+02  0.10768161181E+03  0.47000000000E+01 0.  1.
<mgrwt>
<rscale>  0 0.10008779E+04</rscale>
<asrwt>0</asrwt>
<pdfrwt beam="1">  1        2 0.38849474E+00 0.10008779E+04</pdfrwt>
<pdfrwt beam="2">  1       -2 0.15257744E-01 0.10008779E+04</pdfrwt>
<totfact> 0.13061962E+02</totfact>
</mgrwt>
</event>
<event>
 9    1  0.4296086E-036  0.9993424E+03  0.7818608E-02  0.8681664E-01
         -2   -1    0    0    0  501 -0.00000000000E+00  0.00000000000E+00  0.13072247276E+04  0.13072247276E+04  0.00000000000E+00 0. -1.
          2   -1    0    0  501    0  0.00000000000E+00 -0.00000000000E+00 -0.19099342856E+03  0.19099342856E+03  0.00000000000E+00 0. -1.
         36    2    1    2    0    0  0.14210854715E-13  0.28421709430E-13  0.11162312990E+04  0.14982181561E+04  0.99934244904E+03 0.  0.
         25    2    3    3    0    0 -0.43682520321E+02  0.92590872525E+02  0.34872766294E+03  0.38452508515E+03  0.12556801326E+03 0.  0.
         35    2    3    3    0    0  0.43682520321E+02 -0.92590872525E+02  0.76750363606E+03  0.11136930710E+04  0.80048060108E+03 0.  0.
         22    1    5    5    0    0 -0.65120197588E+02 -0.25769011353E+03  0.85655004543E+03  0.89684046244E+03  0.00000000000E+00 0. -1.
         22    1    5    5    0    0  0.10880271791E+03  0.16509924100E+03 -0.89046409371E+02  0.21685260853E+03  0.00000000000E+00 0. -1.
          5    1    4    4  502    0 -0.54177602976E+02  0.96087054048E+02  0.15433500570E+03  0.18976121470E+03  0.47000000000E+01 0. -1.
         -5    1    4    4    0  502  0.10495082654E+02 -0.34961815227E+01  0.19439265724E+03  0.19476387045E+03  0.47000000000E+01 0. -1.
<mgrwt>
<rscale>  0 0.99934245E+03</rscale>
<asrwt>0</asrwt>
<pdfrwt beam="1">  1        2 0.29383605E-01 0.99934245E+03</pdfrwt>
<pdfrwt beam="2">  1       -2 0.20111149E+00 0.99934245E+03</pdfrwt>
<totfact> 0.25956723E+01</totfact>
</mgrwt>
</event>
<event>
 9    1  0.4296086E-036  0.1001679E+04  0.7818608E-02  0.8679440E-01
          2   -1    0    0  501    0  0.00000000000E+00  0.00000000000E+00  0.27690705944E+04  0.27690705944E+04  0.00000000000E+00 0.  1.
         -2   -1    0    0    0  501 -0.00000000000E+00 -0.00000000000E+00 -0.90586484489E+02  0.90586484489E+02  0.00000000000E+00 0.  1.
         36    2    1    2    0    0 -0.28421709430E-13  0.00000000000E+00  0.26784841099E+04  0.28596570789E+04  0.10016793308E+04 0.  0.
         25    2    3    3    0    0  0.11515172161E+03  0.71320387967E+02  0.62239005313E+03  0.64909827538E+03  0.12495069487E+03 0.  0.
         35    2    3    3    0    0 -0.11515172161E+03 -0.71320387967E+02  0.20560940568E+04  0.22105588035E+04  0.80043796554E+03 0.  0.
         22    1    5    5    0    0  0.33631939137E+03  0.47313277231E+02  0.99364581686E+03  0.10500863243E+04  0.00000000000E+00 0. -1.
         22    1    5    5    0    0 -0.45147111298E+03 -0.11863366520E+03  0.10624482399E+04  0.11604724792E+04  0.00000000000E+00 0. -1.
          5    1    4    4  502    0  0.76569463287E+02 -0.19484660293E+02  0.19516894268E+03  0.21060755182E+03  0.47000000000E+01 0. -1.
         -5    1    4    4    0  502  0.38582258322E+02  0.90805048260E+02  0.42722111044E+03  0.43849072357E+03  0.47000000000E+01 0. -1.
<mgrwt>
<rscale>  0 0.10016793E+04</rscale>
<asrwt>0</asrwt>
<pdfrwt beam="1">  1        2 0.42601080E+00 0.10016793E+04</pdfrwt>
<pdfrwt beam="2">  1       -2 0.13936384E-01 0.10016793E+04</pdfrwt>
<totfact> 0.10704016E+02</totfact>
</mgrwt>
</event>
<event>
 9    1  0.4296086E-036  0.9992014E+03  0.7818608E-02  0.8681799E-01
          2   -1    0    0  501    0  0.00000000000E+00  0.00000000000E+00  0.15816652431E+04  0.15816652431E+04  0.00000000000E+00 0.  1.
         -2   -1    0    0    0  501 -0.00000000000E+00 -0.00000000000E+00 -0.15780890694E+03  0.15780890694E+03  0.00000000000E+00 0.  1.
         36    2    1    2    0    0 -0.28421709430E-13  0.00000000000E+00  0.14238563362E+04  0.17394741501E+04  0.99920140746E+03 0.  0.
         25    2    3    3    0    0 -0.93132990742E+02  0.80904238497E+02  0.37774610481E+03  0.41655390912E+03  0.12492313528E+03 0.  0.
         35    2    3    3    0    0  0.93132990742E+02 -0.80904238497E+02  0.10461102314E+04  0.13229202410E+04  0.80034498685E+03 0.  0.
         22    1    5    5    0    0 -0.23711385264E+03  0.15937933604E+03  0.11834765003E+03  0.30924249083E+03  0.00000000000E+00 0. -1.
         22    1    5    5    0    0  0.33024684338E+03 -0.24028357454E+03  0.92776258135E+03  0.10136777501E+04  0.00000000000E+00 0. -1.
          5    1    4    4  502    0 -0.84974901271E+02  0.51343054685E+02  0.11507303598E+03  0.15205504504E+03  0.47000000000E+01 0.  1.
         -5    1    4    4    0  502 -0.81580894703E+01  0.29561183812E+02  0.26267306883E+03  0.26449886408E+03  0.47000000000E+01 0.  1.
<mgrwt>
<rscale>  0 0.99920141E+03</rscale>
<asrwt>0</asrwt>
<pdfrwt beam="1">  1        2 0.24333310E+00 0.99920141E+03</pdfrwt>
<pdfrwt beam="2">  1       -2 0.24278294E-01 0.99920141E+03</pdfrwt>
<totfact> 0.20582973E+02</totfact>
</mgrwt>
</event>
<event>
 9    1  0.4296086E-036  0.9997068E+03  0.7818608E-02  0.8681317E-01
         -1   -1    0    0    0  501 -0.00000000000E+00  0.00000000000E+00  0.76325081341E+03  0.76325081341E+03  0.00000000000E+00 0. -1.
          1   -1    0    0  501    0  0.00000000000E+00 -0.00000000000E+00 -0.32735430929E+03  0.32735430929E+03  0.00000000000E+00 0. -1.
         36    2    1    2    0    0 -0.35527136788E-13  0.00000000000E+00  0.43589650411E+03  0.10906051227E+04  0.99970684271E+03 0.  0.
         25    2    3    3    0    0  0.39062444029E+02 -0.13378498327E+03  0.68283909320E+02  0.19986946971E+03  0.12593973307E+03 0.  0.
         35    2    3    3    0    0 -0.39062444029E+02  0.13378498327E+03  0.36761259479E+03  0.89073565299E+03  0.79927885458E+03 0.  0.
         22    1    5    5    0    0  0.37125515128E+03  0.65932055468E+02  0.26937463781E+03  0.46340060292E+03  0.00000000000E+00 0.  1.
         22    1    5    5    0    0 -0.41031759531E+03  0.67852927802E+02  0.98237956987E+02  0.42733505008E+03  0.00000000000E+00 0.  1.
          5    1    4    4  502    0  0.35055659657E+02 -0.14822381170E+02  0.71022859654E+02  0.80715171133E+02  0.47000000000E+01 0.  1.
         -5    1    4    4    0  502  0.40067843711E+01 -0.11896260210E+03 -0.27389503340E+01  0.11915429857E+03  0.47000000000E+01 0.  1.
<mgrwt>
<rscale>  0 0.99970684E+03</rscale>
<asrwt>0</asrwt>
<pdfrwt beam="1">  1        1 0.50362202E-01 0.99970684E+03</pdfrwt>
<pdfrwt beam="2">  1       -1 0.11742320E+00 0.99970684E+03</pdfrwt>
<totfact> 0.61391663E+01</totfact>
</mgrwt>
</event>
<event>
 9    1  0.4296086E-036  0.9991181E+03  0.7818608E-02  0.8681878E-01
          2   -1    0    0  501    0  0.00000000000E+00  0.00000000000E+00  0.14982783932E+04  0.14982783932E+04  0.00000000000E+00 0. -1.
         -2   -1    0    0    0  501 -0.00000000000E+00 -0.00000000000E+00 -0.16656401005E+03  0.16656401005E+03  0.00000000000E+00 0. -1.
         36    2    1    2    0    0  0.00000000000E+00  0.00000000000E+00  0.13317143831E+04  0.16648424032E+04  0.99911812582E+03 0.  0.
         25    2    3    3    0    0  0.56048538297E+02 -0.50648384577E+02  0.53518114107E+02  0.15565861716E+03  0.12513480352E+03 0.  0.
         35    2    3    3    0    0 -0.56048538297E+02  0.50648384577E+02  0.12781962690E+04  0.15091837860E+04  0.79883871994E+03 0.  0.
         22    1    5    5    0    0  0.22720950999E+03 -0.17752927345E+03  0.10280965590E+04  0.10677655825E+04  0.00000000000E+00 0.  1.
         22    1    5    5    0    0 -0.28325804828E+03  0.22817765803E+03  0.25009970995E+03  0.44141820359E+03  0.00000000000E+00 0.  1.
          5    1    4    4  502    0  0.32012710892E+02 -0.41583175069E+02 -0.35075777597E+02  0.63295926263E+02  0.47000000000E+01 0.  1.
         -5    1    4    4    0  502  0.24035827404E+02 -0.90652095083E+01  0.88593891703E+02  0.92362690896E+02  0.47000000000E+01 0.  1.
<mgrwt>
<rscale>  0 0.99911813E+03</rscale>
<asrwt>0</asrwt>
<pdfrwt beam="1">  1        2 0.23050436E+00 0.99911813E+03</pdfrwt>
<pdfrwt beam="2">  1       -2 0.25625233E-01 0.99911813E+03</pdfrwt>
<totfact> 0.20847553E+02</totfact>
</mgrwt>
</event>
<event>
 9    1  0.4296086E-036  0.9942706E+03  0.7818608E-02  0.8686513E-01
         -2   -1    0    0    0  501 -0.00000000000E+00  0.00000000000E+00  0.10104356630E+03  0.10104356630E+03  0.00000000000E+00 0. -1.
          2   -1    0    0  501    0  0.00000000000E+00 -0.00000000000E+00 -0.24459104571E+04  0.24459104571E+04  0.00000000000E+00 0. -1.
         36    2    1    2    0    0  0.56843418861E-13 -0.71054273576E-14 -0.23448668908E+04  0.25469540234E+04  0.99427061794E+03 0.  0.
         25    2    3    3    0    0  0.12897342693E+03  0.27074708429E+02 -0.36823339965E+03  0.41051906737E+03  0.12475128603E+03 0.  0.
         35    2    3    3    0    0 -0.12897342693E+03 -0.27074708429E+02 -0.19766334911E+04  0.21364349560E+04  0.79994198433E+03 0.  0.
         22    1    5    5    0    0  0.21969577446E+03  0.25965578840E+03 -0.10845911725E+04  0.11366729403E+04  0.00000000000E+00 0.  1.
         22    1    5    5    0    0 -0.34866920138E+03 -0.28673049682E+03 -0.89204231858E+03  0.99976201565E+03  0.00000000000E+00 0.  1.
          5    1    4    4  502    0  0.27930968760E+02  0.63761472351E+02 -0.10417923719E+03  0.12538368248E+03  0.47000000000E+01 0. -1.
         -5    1    4    4    0  502  0.10104245817E+03 -0.36686763922E+02 -0.26405416246E+03  0.28513538488E+03  0.47000000000E+01 0. -1.
<mgrwt>
<rscale>  0 0.99427062E+03</rscale>
<asrwt>0</asrwt>
<pdfrwt beam="1">  1        2 0.37629390E+00 0.99427062E+03</pdfrwt>
<pdfrwt beam="2">  1       -2 0.15545165E-01 0.99427062E+03</pdfrwt>
<totfact> 0.14144198E+02</totfact>
</mgrwt>
</event>
<event>
 9    1  0.4296086E-036  0.1003494E+04  0.7818608E-02  0.8677718E-01
         -2   -1    0    0    0  501 -0.00000000000E+00  0.00000000000E+00  0.89472621913E+03  0.89472621913E+03  0.00000000000E+00 0. -1.
          2   -1    0    0  501    0  0.00000000000E+00 -0.00000000000E+00 -0.28137086626E+03  0.28137086626E+03  0.00000000000E+00 0. -1.
         36    2    1    2    0    0  0.00000000000E+00 -0.71054273576E-14  0.61335535287E+03  0.11760970854E+04  0.10034936798E+04 0.  0.
         25    2    3    3    0    0 -0.14061525541E+03 -0.24265369987E+02  0.10363037906E+03  0.21613910982E+03  0.12496159848E+03 0.  0.
         35    2    3    3    0    0  0.14061525541E+03  0.24265369987E+02  0.50972497380E+03  0.95995797557E+03  0.80083600550E+03 0.  0.
         22    1    5    5    0    0 -0.24318926717E+03 -0.50440140506E+02  0.51187182802E+03  0.56894463330E+03  0.00000000000E+00 0.  1.
         22    1    5    5    0    0  0.38380452258E+03  0.74705510493E+02 -0.21468542129E+01  0.39101334227E+03  0.00000000000E+00 0.  1.
          5    1    4    4  502    0 -0.84391396427E+02  0.43252066343E+01 -0.10872228673E+02  0.85328251826E+02  0.47000000000E+01 0.  1.
         -5    1    4    4    0  502 -0.56223858981E+02 -0.28590576621E+02  0.11450260773E+03  0.13081085799E+03  0.47000000000E+01 0.  1.
<mgrwt>
<rscale>  0 0.10034937E+04</rscale>
<asrwt>0</asrwt>
<pdfrwt beam="1">  1        2 0.43287826E-01 0.10034937E+04</pdfrwt>
<pdfrwt beam="2">  1       -2 0.13765019E+00 0.10034937E+04</pdfrwt>
<totfact> 0.50677510E+01</totfact>
</mgrwt>
</event>
<event>
 9    1  0.4296086E-036  0.9994267E+03  0.7818608E-02  0.8681584E-01
          1   -1    0    0  501    0  0.00000000000E+00  0.00000000000E+00  0.17762088875E+04  0.17762088875E+04  0.00000000000E+00 0. -1.
         -1   -1    0    0    0  501 -0.00000000000E+00 -0.00000000000E+00 -0.14058786146E+03  0.14058786146E+03  0.00000000000E+00 0. -1.
         36    2    1    2    0    0  0.00000000000E+00 -0.14210854715E-13  0.16356210260E+04  0.19167967489E+04  0.99942665363E+03 0.  0.
         25    2    3    3    0    0  0.11086618942E+03  0.25390079491E+02  0.46596467978E+03  0.49524322867E+03  0.12331587350E+03 0.  0.
         35    2    3    3    0    0 -0.11086618942E+03 -0.25390079491E+02  0.11696563462E+04  0.14215535202E+04  0.79986403505E+03 0.  0.
         22    1    5    5    0    0 -0.45027312934E+03  0.64058544609E+02  0.71065370901E+03  0.84372867811E+03  0.00000000000E+00 0. -1.
         22    1    5    5    0    0  0.33940693992E+03 -0.89448624100E+02  0.45900263720E+03  0.57782484213E+03  0.00000000000E+00 0. -1.
          5    1    4    4  502    0  0.38224338408E+02 -0.37177439224E+02  0.28906458717E+03  0.29397905978E+03  0.47000000000E+01 0. -1.
         -5    1    4    4    0  502  0.72641851010E+02  0.62567518715E+02  0.17690009260E+03  0.20126416889E+03  0.47000000000E+01 0. -1.
<mgrwt>
<rscale>  0 0.99942665E+03</rscale>
<asrwt>0</asrwt>
<pdfrwt beam="1">  1        1 0.27326289E+00 0.99942665E+03</pdfrwt>
<pdfrwt beam="2">  1       -1 0.21628903E-01 0.99942665E+03</pdfrwt>
<totfact> 0.80306000E+01</totfact>
</mgrwt>
</event>
<event>
 9    1  0.4296086E-036  0.1012185E+04  0.7818608E-02  0.8669520E-01
         -1   -1    0    0    0  501 -0.00000000000E+00  0.00000000000E+00  0.19191438234E+03  0.19191438234E+03  0.00000000000E+00 0.  1.
          1   -1    0    0  501    0  0.00000000000E+00 -0.00000000000E+00 -0.13346039636E+04  0.13346039636E+04  0.00000000000E+00 0.  1.
         36    2    1    2    0    0  0.14210854715E-13  0.00000000000E+00 -0.11426895813E+04  0.15265183460E+04  0.10121851517E+04 0.  0.
         25    2    3    3    0    0  0.27987002592E+02 -0.10553815966E+03 -0.38904216498E+03  0.42245231269E+03  0.12325005031E+03 0.  0.
         35    2    3    3    0    0 -0.27987002592E+02  0.10553815966E+03 -0.75364741630E+03  0.11040660333E+04  0.79940965861E+03 0.  0.
         22    1    5    5    0    0 -0.16021811675E+03 -0.14114742672E+03  0.77425144303E+02  0.22712792425E+03  0.00000000000E+00 0. -1.
         22    1    5    5    0    0  0.13223111415E+03  0.24668558638E+03 -0.83107256060E+03  0.87693810903E+03  0.00000000000E+00 0. -1.
          5    1    4    4  502    0  0.62902461548E+02 -0.11365051746E+02 -0.15441372299E+03  0.16718723611E+03  0.47000000000E+01 0. -1.
         -5    1    4    4    0  502 -0.34915458956E+02 -0.94173107918E+02 -0.23462844199E+03  0.25526507658E+03  0.47000000000E+01 0. -1.
<mgrwt>
<rscale>  0 0.10121852E+04</rscale>
<asrwt>0</asrwt>
<pdfrwt beam="1">  1        1 0.20532369E+00 0.10121852E+04</pdfrwt>
<pdfrwt beam="2">  1       -1 0.29525289E-01 0.10121852E+04</pdfrwt>
<totfact> 0.97918866E+01</totfact>
</mgrwt>
</event>
<event>
 9    1  0.4296086E-036  0.9999899E+03  0.7818608E-02  0.8681048E-01
         -1   -1    0    0    0  501 -0.00000000000E+00  0.00000000000E+00  0.17294364010E+03  0.17294364010E+03  0.00000000000E+00 0.  1.
          1   -1    0    0  501    0  0.00000000000E+00 -0.00000000000E+00 -0.14455285050E+04  0.14455285050E+04  0.00000000000E+00 0.  1.
         36    2    1    2    0    0  0.14210854715E-13  0.00000000000E+00 -0.12725848649E+04  0.16184721451E+04  0.99998992301E+03 0.  0.
         25    2    3    3    0    0 -0.81422959212E+02  0.10573932562E+03 -0.30847588323E+03  0.35886105631E+03  0.12575127805E+03 0.  0.
         35    2    3    3    0    0  0.81422959212E+02 -0.10573932562E+03 -0.96410898171E+03  0.12596110888E+04  0.79956454601E+03 0.  0.
         22    1    5    5    0    0  0.54591997678E+01 -0.37265795900E+03 -0.15395635151E+03  0.40324473392E+03  0.00000000000E+00 0.  1.
         22    1    5    5    0    0  0.75963759444E+02  0.26691863338E+03 -0.81015263020E+03  0.85636635491E+03  0.00000000000E+00 0.  1.
          5    1    4    4  502    0  0.29703942214E+02  0.89230291002E+00 -0.42114030812E+02  0.51757144229E+02  0.47000000000E+01 0. -1.
         -5    1    4    4    0  502 -0.11112690143E+03  0.10484702271E+03 -0.26636185242E+03  0.30710391208E+03  0.47000000000E+01 0. -1.
<mgrwt>
<rscale>  0 0.99998992E+03</rscale>
<asrwt>0</asrwt>
<pdfrwt beam="1">  1        1 0.22238899E+00 0.99998992E+03</pdfrwt>
<pdfrwt beam="2">  1       -1 0.26606715E-01 0.99998992E+03</pdfrwt>
<totfact> 0.97319675E+01</totfact>
</mgrwt>
</event>
<event>
 9    1  0.4296086E-036  0.1000586E+04  0.7818608E-02  0.8680480E-01
          2   -1    0    0  501    0  0.00000000000E+00  0.00000000000E+00  0.17063833321E+04  0.17063833321E+04  0.00000000000E+00 0. -1.
         -2   -1    0    0    0  501 -0.00000000000E+00 -0.00000000000E+00 -0.14668048059E+03  0.14668048059E+03  0.00000000000E+00 0. -1.
         36    2    1    2    0    0 -0.14210854715E-13  0.14210854715E-13  0.15597028515E+04  0.18530638127E+04  0.10005860827E+04 0.  0.
         25    2    3    3    0    0 -0.78647875978E+02  0.38564192284E+02  0.85724175204E+02  0.17354648825E+03  0.12287011047E+03 0.  0.
         35    2    3    3    0    0  0.78647875978E+02 -0.38564192284E+02  0.14739786763E+04  0.16795173244E+04  0.80030782799E+03 0.  0.
         22    1    5    5    0    0 -0.12033621699E+03 -0.22225704423E+03  0.13640157691E+04  0.13872339447E+04  0.00000000000E+00 0.  1.
         22    1    5    5    0    0  0.19898409297E+03  0.18369285195E+03  0.10996290713E+03  0.29228337971E+03  0.00000000000E+00 0.  1.
          5    1    4    4  502    0 -0.94400563337E+02 -0.10719535365E+02  0.36224023619E+02  0.10178725207E+03  0.47000000000E+01 0. -1.
         -5    1    4    4    0  502  0.15752687359E+02  0.49283727649E+02  0.49500151585E+02  0.71759236178E+02  0.47000000000E+01 0. -1.
<mgrwt>
<rscale>  0 0.10005861E+04</rscale>
<asrwt>0</asrwt>
<pdfrwt beam="1">  1        2 0.26252050E+00 0.10005861E+04</pdfrwt>
<pdfrwt beam="2">  1       -2 0.22566229E-01 0.10005861E+04</pdfrwt>
<totfact> 0.19912558E+02</totfact>
</mgrwt>
</event>
<event>
 9    1  0.4296086E-036  0.1000350E+04  0.7818608E-02  0.8680705E-01
          2   -1    0    0  501    0  0.00000000000E+00  0.00000000000E+00  0.93540758951E+03  0.93540758951E+03  0.00000000000E+00 0.  1.
         -2   -1    0    0    0  501 -0.00000000000E+00 -0.00000000000E+00 -0.26745002987E+03  0.26745002987E+03  0.00000000000E+00 0.  1.
         36    2    1    2    0    0  0.00000000000E+00  0.28421709430E-13  0.66795755965E+03  0.12028576194E+04  0.10003495144E+04 0.  0.
         25    2    3    3    0    0  0.34707622536E+02 -0.11857139701E+03  0.20848532563E+03  0.27244771378E+03  0.12449028273E+03 0.  0.
         35    2    3    3    0    0 -0.34707622536E+02  0.11857139701E+03  0.45947223402E+03  0.93040990560E+03  0.79955241438E+03 0.  0.
         22    1    5    5    0    0 -0.14277682384E+03 -0.23838596393E+03 -0.66412766852E+02  0.28569869588E+03  0.00000000000E+00 0. -1.
         22    1    5    5    0    0  0.10806920130E+03  0.35695736094E+03  0.52588500087E+03  0.64471120972E+03  0.00000000000E+00 0. -1.
          5    1    4    4  502    0  0.34519763606E+02 -0.69589223975E+02  0.23890974725E+02  0.81407265316E+02  0.47000000000E+01 0.  1.
         -5    1    4    4    0  502  0.18785893021E+00 -0.48982173032E+02  0.18459435090E+03  0.19104044847E+03  0.47000000000E+01 0.  1.
<mgrwt>
<rscale>  0 0.10003495E+04</rscale>
<asrwt>0</asrwt>
<pdfrwt beam="1">  1        2 0.14390886E+00 0.10003495E+04</pdfrwt>
<pdfrwt beam="2">  1       -2 0.41146159E-01 0.10003495E+04</pdfrwt>
<totfact> 0.18784901E+02</totfact>
</mgrwt>
</event>
<event>
 9    1  0.4296086E-036  0.1000517E+04  0.7818608E-02  0.8680546E-01
          2   -1    0    0  501    0  0.00000000000E+00  0.00000000000E+00  0.36113346629E+04  0.36113346629E+04  0.00000000000E+00 0. -1.
         -2   -1    0    0    0  501 -0.00000000000E+00 -0.00000000000E+00 -0.69298047880E+02  0.69298047880E+02  0.00000000000E+00 0. -1.
         36    2    1    2    0    0 -0.14210854715E-13  0.00000000000E+00  0.35420366150E+04  0.36806327107E+04  0.10005167512E+04 0.  0.
         25    2    3    3    0    0 -0.98716071349E+02  0.66951721994E+02  0.37856723279E+03  0.41602315062E+03  0.12463834198E+03 0.  0.
         35    2    3    3    0    0  0.98716071349E+02 -0.66951721994E+02  0.31634693822E+04  0.32646095601E+04  0.79743943478E+03 0.  0.
         22    1    5    5    0    0  0.12825573408E+02 -0.43109801010E+03  0.17699188872E+04  0.18217087739E+04  0.00000000000E+00 0. -1.
         22    1    5    5    0    0  0.85890497942E+02  0.36414628810E+03  0.13935504950E+04  0.14429007862E+04  0.00000000000E+00 0. -1.
          5    1    4    4  502    0  0.20933069247E+02  0.30248607850E+02  0.37726941158E+02  0.52901642263E+02  0.47000000000E+01 0.  1.
         -5    1    4    4    0  502 -0.11964914060E+03  0.36703114144E+02  0.34084029163E+03  0.36312150836E+03  0.47000000000E+01 0.  1.
<mgrwt>
<rscale>  0 0.10005168E+04</rscale>
<asrwt>0</asrwt>
<pdfrwt beam="1">  1        2 0.55558980E+00 0.10005168E+04</pdfrwt>
<pdfrwt beam="2">  1       -2 0.10661241E-01 0.10005168E+04</pdfrwt>
<totfact> 0.42706873E+01</totfact>
</mgrwt>
</event>
<event>
 9    1  0.4296086E-036  0.1000319E+04  0.7818608E-02  0.8680734E-01
         -2   -1    0    0    0  501 -0.00000000000E+00  0.00000000000E+00  0.73127872963E+03  0.73127872963E+03  0.00000000000E+00 0. -1.
          2   -1    0    0  501    0  0.00000000000E+00 -0.00000000000E+00 -0.34208535413E+03  0.34208535413E+03  0.00000000000E+00 0. -1.
         36    2    1    2    0    0 -0.28421709430E-13  0.00000000000E+00  0.38919337550E+03  0.10733640838E+04  0.10003194354E+04 0.  0.
         25    2    3    3    0    0  0.12210727820E+03 -0.54214347901E+02  0.11663172556E+03  0.21733818234E+03  0.12563257217E+03 0.  0.
         35    2    3    3    0    0 -0.12210727820E+03  0.54214347901E+02  0.27256164994E+03  0.85602590141E+03  0.80040059218E+03 0.  0.
         22    1    5    5    0    0  0.31743942908E+03 -0.99224421092E+02  0.19053219755E+03  0.38329596290E+03  0.00000000000E+00 0. -1.
         22    1    5    5    0    0 -0.43954670727E+03  0.15343876899E+03  0.82029452390E+02  0.47272993851E+03  0.00000000000E+00 0. -1.
          5    1    4    4  502    0  0.92204901008E+02  0.27407450205E+02  0.59223023471E+02  0.11305913765E+03  0.47000000000E+01 0.  1.
         -5    1    4    4    0  502  0.29902377188E+02 -0.81621798106E+02  0.57408702087E+02  0.10427904470E+03  0.47000000000E+01 0.  1.
<mgrwt>
<rscale>  0 0.10003194E+04</rscale>
<asrwt>0</asrwt>
<pdfrwt beam="1">  1        2 0.52628516E-01 0.10003194E+04</pdfrwt>
<pdfrwt beam="2">  1       -2 0.11250442E+00 0.10003194E+04</pdfrwt>
<totfact> 0.69332120E+01</totfact>
</mgrwt>
</event>
<event>
 9    1  0.4296086E-036  0.9920155E+03  0.7818608E-02  0.8688679E-01
          1   -1    0    0  501    0  0.00000000000E+00  0.00000000000E+00  0.17221569756E+04  0.17221569756E+04  0.00000000000E+00 0.  1.
         -1   -1    0    0    0  501 -0.00000000000E+00 -0.00000000000E+00 -0.14285787316E+03  0.14285787316E+03  0.00000000000E+00 0.  1.
         36    2    1    2    0    0  0.00000000000E+00  0.00000000000E+00  0.15792991025E+04  0.18650148488E+04  0.99201548939E+03 0.  0.
         25    2    3    3    0    0 -0.37757139984E+02 -0.52767427767E+02  0.50215650632E+03  0.52178420152E+03  0.12604599584E+03 0.  0.
         35    2    3    3    0    0  0.37757139984E+02  0.52767427767E+02  0.10771425962E+04  0.13432306473E+04  0.79988898998E+03 0.  0.
         22    1    5    5    0    0  0.37555084978E+02  0.35003532673E+03  0.96208675752E+03  0.10244735445E+04  0.00000000000E+00 0. -1.
         22    1    5    5    0    0  0.20205500615E+00 -0.29726789896E+03  0.11505583864E+03  0.31875710280E+03  0.00000000000E+00 0. -1.
          5    1    4    4  502    0 -0.60043200645E+02 -0.68017525130E+02  0.47347061445E+03  0.48210795722E+03  0.47000000000E+01 0. -1.
         -5    1    4    4    0  502  0.22286060661E+02  0.15250097363E+02  0.28685891864E+02  0.39676244296E+02  0.47000000000E+01 0. -1.
<mgrwt>
<rscale>  0 0.99201549E+03</rscale>
<asrwt>0</asrwt>
<pdfrwt beam="1">  1        1 0.26494721E+00 0.99201549E+03</pdfrwt>
<pdfrwt beam="2">  1       -1 0.21978136E-01 0.99201549E+03</pdfrwt>
<totfact> 0.85389857E+01</totfact>
</mgrwt>
</event>
<event>
 9    1  0.4296086E-036  0.9988497E+03  0.7818608E-02  0.8682134E-01
         -2   -1    0    0    0  501 -0.00000000000E+00  0.00000000000E+00  0.31459208586E+03  0.31459208586E+03  0.00000000000E+00 0.  1.
          2   -1    0    0  501    0  0.00000000000E+00 -0.00000000000E+00 -0.79285267540E+03  0.79285267540E+03  0.00000000000E+00 0.  1.
         36    2    1    2    0    0 -0.71054273576E-14  0.14210854715E-13 -0.47826058954E+03  0.11074447613E+04  0.99884969226E+03 0.  0.
         25    2    3    3    0    0 -0.89820843237E+00  0.97184011936E+02 -0.19698143776E+03  0.25328445868E+03  0.12611816376E+03 0.  0.
         35    2    3    3    0    0  0.89820843237E+00 -0.97184011936E+02 -0.28127915179E+03  0.85416030258E+03  0.80064119450E+03 0.  0.
         22    1    5    5    0    0  0.68858470573E+02  0.24890446043E+03 -0.40505020818E+03  0.48037546830E+03  0.00000000000E+00 0.  1.
         22    1    5    5    0    0 -0.67960262141E+02 -0.34608847237E+03  0.12377105640E+03  0.37378483428E+03  0.00000000000E+00 0.  1.
          5    1    4    4  502    0  0.27944983113E+02  0.65269525714E+02 -0.19758520415E+03  0.21000722837E+03  0.47000000000E+01 0. -1.
         -5    1    4    4    0  502 -0.28843191545E+02  0.31914486222E+02  0.60376639054E+00  0.43277230309E+02  0.47000000000E+01 0. -1.
<mgrwt>
<rscale>  0 0.99884969E+03</rscale>
<asrwt>0</asrwt>
<pdfrwt beam="1">  1        2 0.12197733E+00 0.99884969E+03</pdfrwt>
<pdfrwt beam="2">  1       -2 0.48398783E-01 0.99884969E+03</pdfrwt>
<totfact> 0.17059698E+02</totfact>
</mgrwt>
</event>
<event>
 9    1  0.4296086E-036  0.1000868E+04  0.7818608E-02  0.8680212E-01
         -2   -1    0    0    0  501 -0.00000000000E+00  0.00000000000E+00  0.71320869649E+03  0.71320869649E+03  0.00000000000E+00 0. -1.
          2   -1    0    0  501    0  0.00000000000E+00 -0.00000000000E+00 -0.35113739012E+03  0.35113739012E+03  0.00000000000E+00 0. -1.
         36    2    1    2    0    0  0.00000000000E+00  0.26645352591E-13  0.36207130638E+03  0.10643460866E+04  0.10008681038E+04 0.  0.
         25    2    3    3    0    0  0.22537729817E+02  0.13042919522E+02  0.21455982268E+03  0.25036197171E+03  0.12636111885E+03 0.  0.
         35    2    3    3    0    0 -0.22537729817E+02 -0.13042919522E+02  0.14751148370E+03  0.81398411490E+03  0.80008276726E+03 0.  0.
         22    1    5    5    0    0 -0.15581860764E+03 -0.30371038967E+03  0.30479916257E+03  0.45762645114E+03  0.00000000000E+00 0. -1.
         22    1    5    5    0    0  0.13328087783E+03  0.29066747014E+03 -0.15728767887E+03  0.35635766376E+03  0.00000000000E+00 0. -1.
          5    1    4    4  502    0 -0.32002507857E+02  0.14638432745E+02  0.76391181973E+01  0.36316529972E+02  0.47000000000E+01 0.  1.
         -5    1    4    4    0  502  0.54540237675E+02 -0.15955132230E+01  0.20692070448E+03  0.21404544174E+03  0.47000000000E+01 0.  1.
<mgrwt>
<rscale>  0 0.10008681E+04</rscale>
<asrwt>0</asrwt>
<pdfrwt beam="1">  1        2 0.54021137E-01 0.10008681E+04</pdfrwt>
<pdfrwt beam="2">  1       -2 0.10972441E+00 0.10008681E+04</pdfrwt>
<totfact> 0.71740908E+01</totfact>
</mgrwt>
</event>
<event>
 9    1  0.4296086E-036  0.9982007E+03  0.7818608E-02  0.8682753E-01
          1   -1    0    0  501    0  0.00000000000E+00  0.00000000000E+00  0.23460697324E+03  0.23460697324E+03  0.00000000000E+00 0. -1.
         -1   -1    0    0    0  501 -0.00000000000E+00 -0.00000000000E+00 -0.10617806539E+04  0.10617806539E+04  0.00000000000E+00 0. -1.
         36    2    1    2    0    0 -0.71054273576E-14  0.42632564146E-13 -0.82717368064E+03  0.12963876271E+04  0.99820067212E+03 0.  0.
         25    2    3    3    0    0 -0.43189871940E+02  0.41507827959E+02 -0.31633156773E+03  0.34544405082E+03  0.12521048951E+03 0.  0.
         35    2    3    3    0    0  0.43189871940E+02 -0.41507827959E+02 -0.51084211292E+03  0.95094357631E+03  0.79984108183E+03 0.  0.
         22    1    5    5    0    0  0.94934223082E+01  0.36198752641E+03 -0.10353192079E+03  0.37662176380E+03  0.00000000000E+00 0. -1.
         22    1    5    5    0    0  0.33696449632E+02 -0.40349535437E+03 -0.40731019213E+03  0.57432181251E+03  0.00000000000E+00 0. -1.
          5    1    4    4  502    0 -0.69897862642E+02  0.68866183816E+02 -0.25187111061E+03  0.27035052957E+03  0.47000000000E+01 0. -1.
         -5    1    4    4    0  502  0.26707990702E+02 -0.27358355856E+02 -0.64460457111E+02  0.75093521248E+02  0.47000000000E+01 0. -1.
<mgrwt>
<rscale>  0 0.99820067E+03</rscale>
<asrwt>0</asrwt>
<pdfrwt beam="1">  1        1 0.36093381E-01 0.99820067E+03</pdfrwt>
<pdfrwt beam="2">  1       -1 0.16335087E+00 0.99820067E+03</pdfrwt>
<totfact> 0.38269130E+01</totfact>
</mgrwt>
</event>
<event>
 9    1  0.4296086E-036  0.1000115E+04  0.7818608E-02  0.8680928E-01
          2   -1    0    0  501    0  0.00000000000E+00  0.00000000000E+00  0.15498115305E+04  0.15498115305E+04  0.00000000000E+00 0.  1.
         -2   -1    0    0    0  501 -0.00000000000E+00 -0.00000000000E+00 -0.16134719210E+03  0.16134719210E+03  0.00000000000E+00 0.  1.
         36    2    1    2    0    0  0.28421709430E-13 -0.28421709430E-13  0.13884643384E+04  0.17111587226E+04  0.10001154708E+04 0.  0.
         25    2    3    3    0    0  0.53064794394E+02 -0.11545777081E+03  0.16664416317E+03  0.24544799681E+03  0.12778134752E+03 0.  0.
         35    2    3    3    0    0 -0.53064794394E+02  0.11545777081E+03  0.12218201752E+04  0.14657107258E+04  0.79957302473E+03 0.  0.
         22    1    5    5    0    0  0.22803291130E+03 -0.32215228868E+02  0.11028327262E+04  0.11266218761E+04  0.00000000000E+00 0.  1.
         22    1    5    5    0    0 -0.28109770570E+03  0.14767299967E+03  0.11898744898E+03  0.33908884971E+03  0.00000000000E+00 0.  1.
          5    1    4    4  502    0  0.36555562403E+02 -0.43614597186E+02  0.16162139256E+03  0.17141209632E+03  0.47000000000E+01 0.  1.
         -5    1    4    4    0  502  0.16509231991E+02 -0.71843173620E+02  0.50227706118E+01  0.74035900490E+02  0.47000000000E+01 0.  1.
<mgrwt>
<rscale>  0 0.10001155E+04</rscale>
<asrwt>0</asrwt>
<pdfrwt beam="1">  1        2 0.23843253E+00 0.10001155E+04</pdfrwt>
<pdfrwt beam="2">  1       -2 0.24822646E-01 0.10001155E+04</pdfrwt>
<totfact> 0.20627555E+02</totfact>
</mgrwt>
</event>
<event>
 9    1  0.4296086E-036  0.1000252E+04  0.7818608E-02  0.8680798E-01
          2   -1    0    0  501    0  0.00000000000E+00  0.00000000000E+00  0.16814919795E+04  0.16814919795E+04  0.00000000000E+00 0. -1.
         -2   -1    0    0    0  501 -0.00000000000E+00 -0.00000000000E+00 -0.14875239283E+03  0.14875239283E+03  0.00000000000E+00 0. -1.
         36    2    1    2    0    0  0.71054273576E-14  0.42632564146E-13  0.15327395867E+04  0.18302443724E+04  0.10002518792E+04 0.  0.
         25    2    3    3    0    0 -0.52257718964E+02  0.65074404455E+02  0.83867116658E+02  0.17203682562E+03  0.12488966653E+03 0.  0.
         35    2    3    3    0    0  0.52257718964E+02 -0.65074404455E+02  0.14488724700E+04  0.16582075467E+04  0.80215664699E+03 0.  0.
         22    1    5    5    0    0  0.14349083304E+03 -0.41603434971E+03  0.87347858422E+03  0.97807925876E+03  0.00000000000E+00 0.  1.
         22    1    5    5    0    0 -0.91233114080E+02  0.35095994526E+03  0.57539388581E+03  0.68012828798E+03  0.00000000000E+00 0.  1.
          5    1    4    4  502    0  0.24700046120E+01  0.88297867305E+02  0.35747100738E+02  0.95407334648E+02  0.47000000000E+01 0.  1.
         -5    1    4    4    0  502 -0.54727723576E+02 -0.23223462850E+02  0.48120015920E+02  0.76629490972E+02  0.47000000000E+01 0.  1.
<mgrwt>
<rscale>  0 0.10002519E+04</rscale>
<asrwt>0</asrwt>
<pdfrwt beam="1">  1        2 0.25869106E+00 0.10002519E+04</pdfrwt>
<pdfrwt beam="2">  1       -2 0.22884985E-01 0.10002519E+04</pdfrwt>
<totfact> 0.20066125E+02</totfact>
</mgrwt>
</event>
<event>
 9    1  0.4296086E-036  0.9992681E+03  0.7818608E-02  0.8681735E-01
         -1   -1    0    0    0  501 -0.00000000000E+00  0.00000000000E+00  0.35723009709E+03  0.35723009709E+03  0.00000000000E+00 0.  1.
          1   -1    0    0  501    0  0.00000000000E+00 -0.00000000000E+00 -0.69880505318E+03  0.69880505318E+03  0.00000000000E+00 0.  1.
         36    2    1    2    0    0  0.00000000000E+00 -0.71054273576E-14 -0.34157495609E+03  0.10560351503E+04  0.99926812617E+03 0.  0.
         25    2    3    3    0    0 -0.12859360715E+03 -0.54318378093E+02 -0.48198937398E+02  0.19362360212E+03  0.12522044456E+03 0.  0.
         35    2    3    3    0    0  0.12859360715E+03  0.54318378093E+02 -0.29337601869E+03  0.86241154815E+03  0.79887257309E+03 0.  0.
         22    1    5    5    0    0  0.38897477830E+03  0.15751910234E+03  0.46239387507E+02  0.42219868156E+03  0.00000000000E+00 0. -1.
         22    1    5    5    0    0 -0.26038117116E+03 -0.10320072424E+03 -0.33961540620E+03  0.44021286658E+03  0.00000000000E+00 0. -1.
          5    1    4    4  502    0 -0.95027618480E+02 -0.77931361956E+02 -0.75311071128E+02  0.14421301219E+03  0.47000000000E+01 0.  1.
         -5    1    4    4    0  502 -0.33565988668E+02  0.23612983863E+02  0.27112133730E+02  0.49410589933E+02  0.47000000000E+01 0.  1.
<mgrwt>
<rscale>  0 0.99926813E+03</rscale>
<asrwt>0</asrwt>
<pdfrwt beam="1">  1        1 0.10750847E+00 0.99926813E+03</pdfrwt>
<pdfrwt beam="2">  1       -1 0.54958477E-01 0.99926813E+03</pdfrwt>
<totfact> 0.10513652E+02</totfact>
</mgrwt>
</event>
<event>
 9    1  0.4296086E-036  0.1000047E+04  0.7818608E-02  0.8680993E-01
          1   -1    0    0  501    0  0.00000000000E+00  0.00000000000E+00  0.32255332079E+04  0.32255332079E+04  0.00000000000E+00 0. -1.
         -1   -1    0    0    0  501 -0.00000000000E+00 -0.00000000000E+00 -0.77513883275E+02  0.77513883275E+02  0.00000000000E+00 0. -1.
         36    2    1    2    0    0  0.00000000000E+00 -0.14210854715E-13  0.31480193246E+04  0.33030470912E+04  0.10000472080E+04 0.  0.
         25    2    3    3    0    0 -0.11998503662E+03 -0.68104642989E+02  0.65265034088E+03  0.67885266448E+03  0.12591195815E+03 0.  0.
         35    2    3    3    0    0  0.11998503662E+03  0.68104642989E+02  0.24953689837E+04  0.26241944267E+04  0.80030954803E+03 0.  0.
         22    1    5    5    0    0 -0.17305353148E+03 -0.20245656727E+02  0.21718901689E+04  0.21788676686E+04  0.00000000000E+00 0.  1.
         22    1    5    5    0    0  0.29303856810E+03  0.88350299716E+02  0.32347881484E+03  0.44532675812E+03  0.00000000000E+00 0.  1.
          5    1    4    4  502    0 -0.92543262851E+02 -0.94975389835E+02  0.59363377980E+03  0.60828261087E+03  0.47000000000E+01 0. -1.
         -5    1    4    4    0  502 -0.27441773766E+02  0.26870746846E+02  0.59016561087E+02  0.70570053607E+02  0.47000000000E+01 0. -1.
<mgrwt>
<rscale>  0 0.10000472E+04</rscale>
<asrwt>0</asrwt>
<pdfrwt beam="1">  1        1 0.49623577E+00 0.10000472E+04</pdfrwt>
<pdfrwt beam="2">  1       -1 0.11925215E-01 0.10000472E+04</pdfrwt>
<totfact> 0.19785405E+01</totfact>
</mgrwt>
</event>
<event>
 9    1  0.4296086E-036  0.9994596E+03  0.7818608E-02  0.8681553E-01
          1   -1    0    0  501    0  0.00000000000E+00  0.00000000000E+00  0.86159996244E+03  0.86159996244E+03  0.00000000000E+00 0.  1.
         -1   -1    0    0    0  501 -0.00000000000E+00 -0.00000000000E+00 -0.28984431433E+03  0.28984431433E+03  0.00000000000E+00 0.  1.
         36    2    1    2    0    0  0.00000000000E+00  0.28421709430E-13  0.57175564811E+03  0.11514442768E+04  0.99945955464E+03 0.  0.
         25    2    3    3    0    0 -0.51332854665E+02 -0.90360819887E+02  0.24483237205E+03  0.29395086119E+03  0.12515621699E+03 0.  0.
         35    2    3    3    0    0  0.51332854665E+02  0.90360819887E+02  0.32692327606E+03  0.85749341559E+03  0.78588548123E+03 0.  0.
         22    1    5    5    0    0 -0.48718095437E+02 -0.26799099120E+03  0.39445111690E+03  0.47935822493E+03  0.00000000000E+00 0. -1.
         22    1    5    5    0    0  0.10005095010E+03  0.35835181108E+03 -0.67527840840E+02  0.37813519065E+03  0.00000000000E+00 0. -1.
          5    1    4    4  502    0  0.37480927424E+02 -0.39297160329E+01  0.46528506155E+02  0.60060423522E+02  0.47000000000E+01 0.  1.
         -5    1    4    4    0  502 -0.88813782089E+02 -0.86431103854E+02  0.19830386589E+03  0.23389043766E+03  0.47000000000E+01 0.  1.
<mgrwt>
<rscale>  0 0.99945955E+03</rscale>
<asrwt>0</asrwt>
<pdfrwt beam="1">  1        1 0.13255384E+00 0.99945955E+03</pdfrwt>
<pdfrwt beam="2">  1       -1 0.44591433E-01 0.99945955E+03</pdfrwt>
<totfact> 0.11046107E+02</totfact>
</mgrwt>
</event>
<event>
 9    1  0.4296086E-036  0.1000494E+04  0.7818608E-02  0.8680567E-01
          2   -1    0    0  501    0  0.00000000000E+00  0.00000000000E+00  0.82312778365E+03  0.82312778365E+03  0.00000000000E+00 0. -1.
         -2   -1    0    0    0  501 -0.00000000000E+00 -0.00000000000E+00 -0.30401997543E+03  0.30401997543E+03  0.00000000000E+00 0. -1.
         36    2    1    2    0    0  0.00000000000E+00 -0.14210854715E-13  0.51910780823E+03  0.11271477591E+04  0.10004944549E+04 0.  0.
         25    2    3    3    0    0  0.12608171883E+03 -0.33978527637E+02  0.37477776117E+02  0.18511560977E+03  0.12574603420E+03 0.  0.
         35    2    3    3    0    0 -0.12608171883E+03  0.33978527637E+02  0.48163003211E+03  0.94203214931E+03  0.79900309282E+03 0.  0.
         22    1    5    5    0    0  0.26727334349E+03  0.20896009790E+03  0.35997893989E+03  0.49465563761E+03  0.00000000000E+00 0.  1.
         22    1    5    5    0    0 -0.39335506231E+03 -0.17498157027E+03  0.12165109222E+03  0.44737651170E+03  0.00000000000E+00 0.  1.
          5    1    4    4  502    0  0.10940415863E+03  0.14453218802E+02 -0.15192625167E+02  0.11149471431E+03  0.47000000000E+01 0.  1.
         -5    1    4    4    0  502  0.16677560195E+02 -0.48431746439E+02  0.52670401283E+02  0.73620895461E+02  0.47000000000E+01 0.  1.
<mgrwt>
<rscale>  0 0.10004945E+04</rscale>
<asrwt>0</asrwt>
<pdfrwt beam="1">  1        2 0.12663504E+00 0.10004945E+04</pdfrwt>
<pdfrwt beam="2">  1       -2 0.46772304E-01 0.10004945E+04</pdfrwt>
<totfact> 0.17387785E+02</totfact>
</mgrwt>
</event>
<event>
 9    1  0.4296086E-036  0.9948150E+03  0.7818608E-02  0.8685991E-01
          2   -1    0    0  501    0  0.00000000000E+00  0.00000000000E+00  0.10665685584E+04  0.10665685584E+04  0.00000000000E+00 0.  1.
         -2   -1    0    0    0  501 -0.00000000000E+00 -0.00000000000E+00 -0.23197216801E+03  0.23197216801E+03  0.00000000000E+00 0.  1.
         36    2    1    2    0    0  0.21316282073E-13  0.14210854715E-13  0.83459639034E+03  0.12985407264E+04  0.99481499952E+03 0.  0.
         25    2    3    3    0    0 -0.27005866171E+02 -0.12350776900E+03  0.94665457978E+02  0.20135031335E+03  0.12488760522E+03 0.  0.
         35    2    3    3    0    0  0.27005866171E+02  0.12350776900E+03  0.73993093237E+03  0.10971904130E+04  0.80021592833E+03 0.  0.
         22    1    5    5    0    0 -0.38107733009E+03  0.20603154422E+02  0.27709949775E+03  0.47162331700E+03  0.00000000000E+00 0.  1.
         22    1    5    5    0    0  0.40808319626E+03  0.10290461458E+03  0.46283143461E+03  0.62556709603E+03  0.00000000000E+00 0.  1.
          5    1    4    4  502    0 -0.69884088238E+02 -0.35771635041E+02  0.54336820575E+02  0.95592759833E+02  0.47000000000E+01 0. -1.
         -5    1    4    4    0  502  0.42878222068E+02 -0.87736133961E+02  0.40328637403E+02  0.10575755351E+03  0.47000000000E+01 0. -1.
<mgrwt>
<rscale>  0 0.99481500E+03</rscale>
<asrwt>0</asrwt>
<pdfrwt beam="1">  1        2 0.16408747E+00 0.99481500E+03</pdfrwt>
<pdfrwt beam="2">  1       -2 0.35688026E-01 0.99481500E+03</pdfrwt>
<totfact> 0.20356168E+02</totfact>
</mgrwt>
</event>
<event>
 9    1  0.4296086E-036  0.9992842E+03  0.7818608E-02  0.8681720E-01
         -2   -1    0    0    0  501 -0.00000000000E+00  0.00000000000E+00  0.11870796622E+03  0.11870796622E+03  0.00000000000E+00 0. -1.
          2   -1    0    0  501    0  0.00000000000E+00 -0.00000000000E+00 -0.21029948833E+04  0.21029948833E+04  0.00000000000E+00 0. -1.
         36    2    1    2    0    0  0.00000000000E+00 -0.24868995752E-13 -0.19842869170E+04  0.22217028495E+04  0.99928423496E+03 0.  0.
         25    2    3    3    0    0  0.31100931881E+02  0.48160114875E+01 -0.67494430735E+03  0.68710246777E+03  0.12477788771E+03 0.  0.
         35    2    3    3    0    0 -0.31100931881E+02 -0.48160114875E+01 -0.13093426097E+04  0.15346003817E+04  0.79976859157E+03 0.  0.
         22    1    5    5    0    0  0.10447815187E+03 -0.26295913358E+03 -0.11837903214E+04  0.12171370980E+04  0.00000000000E+00 0.  1.
         22    1    5    5    0    0 -0.13557908375E+03  0.25814312209E+03 -0.12555228826E+03  0.31746328374E+03  0.00000000000E+00 0.  1.
          5    1    4    4  502    0  0.74558763651E+02  0.24572356347E+02 -0.35697740883E+03  0.36553764559E+03  0.47000000000E+01 0. -1.
         -5    1    4    4    0  502 -0.43457831770E+02 -0.19756344860E+02 -0.31796689853E+03  0.32156482218E+03  0.47000000000E+01 0. -1.
<mgrwt>
<rscale>  0 0.99928423E+03</rscale>
<asrwt>0</asrwt>
<pdfrwt beam="1">  1        2 0.32353764E+00 0.99928423E+03</pdfrwt>
<pdfrwt beam="2">  1       -2 0.18262766E-01 0.99928423E+03</pdfrwt>
<totfact> 0.17114679E+02</totfact>
</mgrwt>
</event>
<event>
 9    1  0.4296086E-036  0.1003193E+04  0.7818608E-02  0.8678004E-01
          2   -1    0    0  501    0  0.00000000000E+00  0.00000000000E+00  0.99732918633E+03  0.99732918633E+03  0.00000000000E+00 0.  1.
         -2   -1    0    0    0  501 -0.00000000000E+00 -0.00000000000E+00 -0.25227261757E+03  0.25227261757E+03  0.00000000000E+00 0.  1.
         36    2    1    2    0    0  0.00000000000E+00  0.14210854715E-13  0.74505656876E+03  0.12496018039E+04  0.10031925925E+04 0.  0.
         25    2    3    3    0    0  0.11205031255E+03  0.78210609606E+02  0.83414629320E+02  0.20252594821E+03  0.12404268344E+03 0.  0.
         35    2    3    3    0    0 -0.11205031255E+03 -0.78210609606E+02  0.66164193944E+03  0.10470758557E+04  0.79995351088E+03 0.  0.
         22    1    5    5    0    0 -0.43562886088E+03 -0.17071887191E+03  0.31564718705E+03  0.56440285643E+03  0.00000000000E+00 0.  1.
         22    1    5    5    0    0  0.32357854833E+03  0.92508262304E+02  0.34599475239E+03  0.48267299926E+03  0.00000000000E+00 0.  1.
          5    1    4    4  502    0  0.13384172680E+03  0.39074757872E+02  0.62621195454E+02  0.15291811094E+03  0.47000000000E+01 0.  1.
         -5    1    4    4    0  502 -0.21791414246E+02  0.39135851734E+02  0.20793433866E+02  0.49607837261E+02  0.47000000000E+01 0.  1.
<mgrwt>
<rscale>  0 0.10031926E+04</rscale>
<asrwt>0</asrwt>
<pdfrwt beam="1">  1        2 0.15343526E+00 0.10031926E+04</pdfrwt>
<pdfrwt beam="2">  1       -2 0.38811172E-01 0.10031926E+04</pdfrwt>
<totfact> 0.19181326E+02</totfact>
</mgrwt>
</event>
<event>
 9    1  0.4296086E-036  0.9991878E+03  0.7818608E-02  0.8681812E-01
          2   -1    0    0  501    0  0.00000000000E+00  0.00000000000E+00  0.30346755795E+04  0.30346755795E+04  0.00000000000E+00 0.  1.
         -2   -1    0    0    0  501 -0.00000000000E+00 -0.00000000000E+00 -0.82247359885E+02  0.82247359885E+02  0.00000000000E+00 0.  1.
         36    2    1    2    0    0  0.00000000000E+00 -0.28421709430E-13  0.29524282196E+04  0.31169229393E+04  0.99918777919E+03 0.  0.
         25    2    3    3    0    0 -0.51087540668E+02  0.11637532343E+03  0.75078042775E+03  0.77162556888E+03  0.12482633995E+03 0.  0.
         35    2    3    3    0    0  0.51087540668E+02 -0.11637532343E+03  0.22016477918E+04  0.23452973705E+04  0.79813131998E+03 0.  0.
         22    1    5    5    0    0 -0.52454760590E+02  0.23327303784E+02 -0.56450897459E+02  0.80513159386E+02  0.00000000000E+00 0.  1.
         22    1    5    5    0    0  0.10354230126E+03 -0.13970262721E+03  0.22580986893E+04  0.22647842111E+04  0.00000000000E+00 0.  1.
          5    1    4    4  502    0 -0.86913366011E+02  0.10734477988E+03  0.64003202735E+03  0.65478234627E+03  0.47000000000E+01 0. -1.
         -5    1    4    4    0  502  0.35825825343E+02  0.90305435486E+01  0.11074840040E+03  0.11684322260E+03  0.47000000000E+01 0. -1.
<mgrwt>
<rscale>  0 0.99918778E+03</rscale>
<asrwt>0</asrwt>
<pdfrwt beam="1">  1        2 0.46687308E+00 0.99918778E+03</pdfrwt>
<pdfrwt beam="2">  1       -2 0.12653442E-01 0.99918778E+03</pdfrwt>
<totfact> 0.84195095E+01</totfact>
</mgrwt>
</event>
<event>
 9    1  0.4296086E-036  0.1001179E+04  0.7818608E-02  0.8679916E-01
         -2   -1    0    0    0  501 -0.00000000000E+00  0.00000000000E+00  0.31589833634E+04  0.31589833634E+04  0.00000000000E+00 0. -1.
          2   -1    0    0  501    0  0.00000000000E+00 -0.00000000000E+00 -0.79326119759E+02  0.79326119759E+02  0.00000000000E+00 0. -1.
         36    2    1    2    0    0 -0.71054273576E-14  0.00000000000E+00  0.30796572437E+04  0.32383094832E+04  0.10011790901E+04 0.  0.
         25    2    3    3    0    0 -0.37154526517E+02 -0.92482105466E+02  0.90193039090E+03  0.91599085224E+03  0.12500965044E+03 0.  0.
         35    2    3    3    0    0  0.37154526517E+02  0.92482105466E+02  0.21777268528E+04  0.23223186310E+04  0.80045998005E+03 0.  0.
         22    1    5    5    0    0 -0.18908295092E+03 -0.28146143609E+03  0.12755922642E+04  0.13198895889E+04  0.00000000000E+00 0. -1.
         22    1    5    5    0    0  0.22623747744E+03  0.37394354156E+03  0.90213458854E+03  0.10024290420E+04  0.00000000000E+00 0. -1.
          5    1    4    4  502    0 -0.53175173268E+02 -0.93487798921E+02  0.88718584681E+03  0.89369367480E+03  0.47000000000E+01 0. -1.
         -5    1    4    4    0  502  0.16020646751E+02  0.10056934550E+01  0.14744544083E+02  0.22297177442E+02  0.47000000000E+01 0. -1.
<mgrwt>
<rscale>  0 0.10011791E+04</rscale>
<asrwt>0</asrwt>
<pdfrwt beam="1">  1        2 0.12204021E-01 0.10011791E+04</pdfrwt>
<pdfrwt beam="2">  1       -2 0.48599734E+00 0.10011791E+04</pdfrwt>
<totfact> 0.21218504E+00</totfact>
</mgrwt>
</event>
<event>
 9    1  0.4296086E-036  0.9998462E+03  0.7818608E-02  0.8681184E-01
          2   -1    0    0  501    0  0.00000000000E+00  0.00000000000E+00  0.94595931611E+03  0.94595931611E+03  0.00000000000E+00 0.  1.
         -2   -1    0    0    0  501 -0.00000000000E+00 -0.00000000000E+00 -0.26420066981E+03  0.26420066981E+03  0.00000000000E+00 0.  1.
         36    2    1    2    0    0  0.00000000000E+00 -0.14210854715E-13  0.68175864630E+03  0.12101599859E+04  0.99984615803E+03 0.  0.
         25    2    3    3    0    0  0.10236897330E+03  0.65744096579E+02  0.39553542230E+02  0.17559177829E+03  0.12027592015E+03 0.  0.
         35    2    3    3    0    0 -0.10236897330E+03 -0.65744096579E+02  0.64220510407E+03  0.10345682076E+04  0.80193658579E+03 0.  0.
         22    1    5    5    0    0 -0.20814213284E+03  0.33606579457E+03  0.29875640894E+03  0.49549849407E+03  0.00000000000E+00 0. -1.
         22    1    5    5    0    0  0.10577315954E+03 -0.40180989115E+03  0.34344869512E+03  0.53906971357E+03  0.00000000000E+00 0. -1.
          5    1    4    4  502    0  0.10636262697E+03  0.22554092778E+02  0.63320680007E+02  0.12590986472E+03  0.47000000000E+01 0.  1.
         -5    1    4    4    0  502 -0.39936536630E+01  0.43190003802E+02 -0.23767137777E+02  0.49681913571E+02  0.47000000000E+01 0.  1.
<mgrwt>
<rscale>  0 0.99984616E+03</rscale>
<asrwt>0</asrwt>
<pdfrwt beam="1">  1        2 0.14553220E+00 0.99984616E+03</pdfrwt>
<pdfrwt beam="2">  1       -2 0.40646257E-01 0.99984616E+03</pdfrwt>
<totfact> 0.18932519E+02</totfact>
</mgrwt>
</event>
<event>
 9    1  0.4296086E-036  0.1000263E+04  0.7818608E-02  0.8680788E-01
          1   -1    0    0  501    0  0.00000000000E+00  0.00000000000E+00  0.11930311877E+04  0.11930311877E+04  0.00000000000E+00 0.  1.
         -1   -1    0    0    0  501 -0.00000000000E+00 -0.00000000000E+00 -0.20966041825E+03  0.20966041825E+03  0.00000000000E+00 0.  1.
         36    2    1    2    0    0  0.28421709430E-13 -0.71054273576E-14  0.98337076941E+03  0.14026916059E+04  0.10002628011E+04 0.  0.
         25    2    3    3    0    0  0.94837017638E+02 -0.57015636490E+02  0.31101887845E+03  0.35223426369E+03  0.12284702294E+03 0.  0.
         35    2    3    3    0    0 -0.94837017638E+02  0.57015636490E+02  0.67235189096E+03  0.10504573422E+04  0.79947402699E+03 0.  0.
         22    1    5    5    0    0 -0.27153840643E+03 -0.10520443128E+03 -0.44454901815E+02  0.29457989888E+03  0.00000000000E+00 0. -1.
         22    1    5    5    0    0  0.17670138880E+03  0.16222006777E+03  0.71680679277E+03  0.75587744334E+03  0.00000000000E+00 0. -1.
          5    1    4    4  502    0 -0.10453891821E+02 -0.37131188264E+02  0.17369406556E+03  0.17798799793E+03  0.47000000000E+01 0.  1.
         -5    1    4    4    0  502  0.10529090946E+03 -0.19884448226E+02  0.13732481289E+03  0.17424626576E+03  0.47000000000E+01 0.  1.
<mgrwt>
<rscale>  0 0.10002628E+04</rscale>
<asrwt>0</asrwt>
<pdfrwt beam="1">  1        1 0.18354326E+00 0.10002628E+04</pdfrwt>
<pdfrwt beam="2">  1       -1 0.32255450E-01 0.10002628E+04</pdfrwt>
<totfact> 0.10705887E+02</totfact>
</mgrwt>
</event>
<event>
 9    1  0.4296086E-036  0.9995019E+03  0.7818608E-02  0.8681512E-01
         -2   -1    0    0    0  501 -0.00000000000E+00  0.00000000000E+00  0.13148693545E+03  0.13148693545E+03  0.00000000000E+00 0. -1.
          2   -1    0    0  501    0  0.00000000000E+00 -0.00000000000E+00 -0.18994357868E+04  0.18994357868E+04  0.00000000000E+00 0. -1.
         36    2    1    2    0    0  0.28421709430E-13 -0.21316282073E-13 -0.17679488513E+04  0.20309227222E+04  0.99950185731E+03 0.  0.
         25    2    3    3    0    0 -0.14053479815E+03 -0.10616743228E+02 -0.33290504570E+03  0.38284751238E+03  0.12603056596E+03 0.  0.
         35    2    3    3    0    0  0.14053479815E+03  0.10616743228E+02 -0.14350438056E+04  0.16480752099E+04  0.79808422396E+03 0.  0.
         22    1    5    5    0    0  0.31259671398E+03 -0.18766088680E+03 -0.26965569972E+03  0.45348374879E+03  0.00000000000E+00 0.  1.
         22    1    5    5    0    0 -0.17206191584E+03  0.19827763003E+03 -0.11653881059E+04  0.11945914611E+04  0.00000000000E+00 0.  1.
          5    1    4    4  502    0 -0.62924303366E+02 -0.55588840221E+02 -0.86761661195E+02  0.12082740982E+03  0.47000000000E+01 0. -1.
         -5    1    4    4    0  502 -0.77610494781E+02  0.44972096993E+02 -0.24614338451E+03  0.26202010256E+03  0.47000000000E+01 0. -1.
<mgrwt>
<rscale>  0 0.99950186E+03</rscale>
<asrwt>0</asrwt>
<pdfrwt beam="1">  1        2 0.29222089E+00 0.99950186E+03</pdfrwt>
<pdfrwt beam="2">  1       -2 0.20228759E-01 0.99950186E+03</pdfrwt>
<totfact> 0.18746589E+02</totfact>
</mgrwt>
</event>
<event>
 9    1  0.4296086E-036  0.9998148E+03  0.7818608E-02  0.8681214E-01
          1   -1    0    0  501    0  0.00000000000E+00  0.00000000000E+00  0.46043395713E+03  0.46043395713E+03  0.00000000000E+00 0. -1.
         -1   -1    0    0    0  501 -0.00000000000E+00 -0.00000000000E+00 -0.54276494671E+03  0.54276494671E+03  0.00000000000E+00 0. -1.
         36    2    1    2    0    0 -0.14210854715E-13  0.00000000000E+00 -0.82330989582E+02  0.10031989038E+04  0.99981480727E+03 0.  0.
         25    2    3    3    0    0  0.12682678576E+03  0.49362881342E+02  0.55646241106E+02  0.19298518924E+03  0.12500020590E+03 0.  0.
         35    2    3    3    0    0 -0.12682678576E+03 -0.49362881342E+02 -0.13797723069E+03  0.81021371460E+03  0.78669359951E+03 0.  0.
         22    1    5    5    0    0 -0.42399399108E+03 -0.17775344999E+03 -0.15732308027E+03  0.48591948411E+03  0.00000000000E+00 0.  1.
         22    1    5    5    0    0  0.29716720532E+03  0.12839056865E+03  0.19345849580E+02  0.32429423049E+03  0.00000000000E+00 0.  1.
          5    1    4    4  502    0  0.19269233912E+02  0.36799198379E+02 -0.32761506410E+02  0.53112057757E+02  0.47000000000E+01 0. -1.
         -5    1    4    4    0  502  0.10755755185E+03  0.12563682963E+02  0.88407747516E+02  0.13987313148E+03  0.47000000000E+01 0. -1.
<mgrwt>
<rscale>  0 0.99981481E+03</rscale>
<asrwt>0</asrwt>
<pdfrwt beam="1">  1        1 0.70835993E-01 0.99981481E+03</pdfrwt>
<pdfrwt beam="2">  1       -1 0.83502300E-01 0.99981481E+03</pdfrwt>
<totfact> 0.83700625E+01</totfact>
</mgrwt>
</event>
<event>
 9    1  0.4296086E-036  0.1001348E+04  0.7818608E-02  0.8679755E-01
          1   -1    0    0  501    0  0.00000000000E+00  0.00000000000E+00  0.19389649516E+03  0.19389649516E+03  0.00000000000E+00 0. -1.
         -1   -1    0    0    0  501 -0.00000000000E+00 -0.00000000000E+00 -0.12928271024E+04  0.12928271024E+04  0.00000000000E+00 0. -1.
         36    2    1    2    0    0  0.00000000000E+00 -0.28421709430E-13 -0.10989306073E+04  0.14867235976E+04  0.10013483790E+04 0.  0.
         25    2    3    3    0    0  0.52677547718E+02 -0.87183617884E+02 -0.61144111116E+02  0.17258227550E+03  0.12518039875E+03 0.  0.
         35    2    3    3    0    0 -0.52677547718E+02  0.87183617884E+02 -0.10377864962E+04  0.13141413221E+04  0.79974414382E+03 0.  0.
         22    1    5    5    0    0  0.31556273847E+01 -0.22926114500E+03 -0.16152246393E+01  0.22928855083E+03  0.00000000000E+00 0. -1.
         22    1    5    5    0    0 -0.55833175103E+02  0.31644476288E+03 -0.10361712715E+04  0.10848527713E+04  0.00000000000E+00 0. -1.
          5    1    4    4  502    0  0.54439477736E+02 -0.43771445566E+02 -0.94497464570E+02  0.11760721489E+03  0.47000000000E+01 0. -1.
         -5    1    4    4    0  502 -0.17619300181E+01 -0.43412172318E+02  0.33353353453E+02  0.54975060612E+02  0.47000000000E+01 0. -1.
<mgrwt>
<rscale>  0 0.10013484E+04</rscale>
<asrwt>0</asrwt>
<pdfrwt beam="1">  1        1 0.29830229E-01 0.10013484E+04</pdfrwt>
<pdfrwt beam="2">  1       -1 0.19889648E+00 0.10013484E+04</pdfrwt>
<totfact> 0.24642344E+01</totfact>
</mgrwt>
</event>
<event>
 9    1  0.4296086E-036  0.1004758E+04  0.7818608E-02  0.8676520E-01
          2   -1    0    0  501    0  0.00000000000E+00  0.00000000000E+00  0.74782514268E+03  0.74782514268E+03  0.00000000000E+00 0. -1.
         -2   -1    0    0    0  501 -0.00000000000E+00 -0.00000000000E+00 -0.33749131852E+03  0.33749131852E+03  0.00000000000E+00 0. -1.
         36    2    1    2    0    0 -0.49737991503E-13  0.00000000000E+00  0.41033382415E+03  0.10853164612E+04  0.10047576691E+04 0.  0.
         25    2    3    3    0    0 -0.44365968509E+02 -0.13929579999E+03  0.63471759153E+02  0.20192268242E+03  0.12398567018E+03 0.  0.
         35    2    3    3    0    0  0.44365968509E+02  0.13929579999E+03  0.34686206500E+03  0.88339377878E+03  0.79918684749E+03 0.  0.
         22    1    5    5    0    0 -0.34481816856E+03  0.22154552512E+03  0.22398619159E+03  0.46706723616E+03  0.00000000000E+00 0.  1.
         22    1    5    5    0    0  0.38918413707E+03 -0.82249725129E+02  0.12287587341E+03  0.41632654262E+03  0.00000000000E+00 0.  1.
          5    1    4    4  502    0 -0.74700446383E+02 -0.47469914397E+02  0.55940894681E+02  0.10480946122E+03  0.47000000000E+01 0. -1.
         -5    1    4    4    0  502  0.30334477875E+02 -0.91825885591E+02  0.75308644724E+01  0.97113221202E+02  0.47000000000E+01 0. -1.
<mgrwt>
<rscale>  0 0.10047577E+04</rscale>
<asrwt>0</asrwt>
<pdfrwt beam="1">  1        2 0.11505002E+00 0.10047577E+04</pdfrwt>
<pdfrwt beam="2">  1       -2 0.51921742E-01 0.10047577E+04</pdfrwt>
<totfact> 0.15962672E+02</totfact>
</mgrwt>
</event>
<event>
 9    1  0.4296086E-036  0.9995683E+03  0.7818608E-02  0.8681449E-01
         -1   -1    0    0    0  501 -0.00000000000E+00  0.00000000000E+00  0.23742343365E+03  0.23742343365E+03  0.00000000000E+00 0.  1.
          1   -1    0    0  501    0  0.00000000000E+00 -0.00000000000E+00 -0.10520620557E+04  0.10520620557E+04  0.00000000000E+00 0.  1.
         36    2    1    2    0    0  0.14210854715E-13  0.28421709430E-13 -0.81463862205E+03  0.12894854894E+04  0.99956827817E+03 0.  0.
         25    2    3    3    0    0  0.11140829899E+03  0.18277875376E+02 -0.25852992407E+03  0.30864901683E+03  0.12522221902E+03 0.  0.
         35    2    3    3    0    0 -0.11140829899E+03 -0.18277875376E+02 -0.55610869798E+03  0.98083647253E+03  0.80002338220E+03 0.  0.
         22    1    5    5    0    0  0.11371588236E+03 -0.37175394466E+03 -0.27588418794E+03  0.47670156537E+03  0.00000000000E+00 0. -1.
         22    1    5    5    0    0 -0.22512418136E+03  0.35347606928E+03 -0.28022451004E+03  0.50413490716E+03  0.00000000000E+00 0. -1.
          5    1    4    4  502    0  0.91126004901E+02  0.59461916606E+02 -0.22976419309E+03  0.25427021595E+03  0.47000000000E+01 0. -1.
         -5    1    4    4    0  502  0.20282294090E+02 -0.41184041230E+02 -0.28765730983E+02  0.54378800875E+02  0.47000000000E+01 0. -1.
<mgrwt>
<rscale>  0 0.99956828E+03</rscale>
<asrwt>0</asrwt>
<pdfrwt beam="1">  1        1 0.16185570E+00 0.99956828E+03</pdfrwt>
<pdfrwt beam="2">  1       -1 0.36526683E-01 0.99956828E+03</pdfrwt>
<totfact> 0.11045618E+02</totfact>
</mgrwt>
</event>
<event>
 9    1  0.4296086E-036  0.1000406E+04  0.7818608E-02  0.8680651E-01
         -1   -1    0    0    0  501 -0.00000000000E+00  0.00000000000E+00  0.16176128745E+03  0.16176128745E+03  0.00000000000E+00 0.  1.
          1   -1    0    0  501    0  0.00000000000E+00 -0.00000000000E+00 -0.15467432300E+04  0.15467432300E+04  0.00000000000E+00 0.  1.
         36    2    1    2    0    0  0.00000000000E+00  0.00000000000E+00 -0.13849819426E+04  0.17085045175E+04  0.10004062700E+04 0.  0.
         25    2    3    3    0    0  0.13521140421E+03  0.21737767345E+02 -0.24848229758E+03  0.31116060697E+03  0.12776077944E+03 0.  0.
         35    2    3    3    0    0 -0.13521140421E+03 -0.21737767345E+02 -0.11364996450E+04  0.13973439105E+04  0.80136377930E+03 0.  0.
         22    1    5    5    0    0 -0.26230041038E+01  0.33143205698E+03 -0.88217285825E+03  0.94238157897E+03  0.00000000000E+00 0. -1.
         22    1    5    5    0    0 -0.13258840011E+03 -0.35316982433E+03 -0.25432678675E+03  0.45496233153E+03  0.00000000000E+00 0. -1.
          5    1    4    4  502    0 -0.61498630741E+01 -0.17834896767E+02  0.32535642343E+01  0.19712433608E+02  0.47000000000E+01 0.  1.
         -5    1    4    4    0  502  0.14136126728E+03  0.39572664112E+02 -0.25173586181E+03  0.29144817336E+03  0.47000000000E+01 0.  1.
<mgrwt>
<rscale>  0 0.10004063E+04</rscale>
<asrwt>0</asrwt>
<pdfrwt beam="1">  1        1 0.23796051E+00 0.10004063E+04</pdfrwt>
<pdfrwt beam="2">  1       -1 0.24886351E-01 0.10004063E+04</pdfrwt>
<totfact> 0.92248555E+01</totfact>
</mgrwt>
</event>
<event>
 9    1  0.4296086E-036  0.9995891E+03  0.7818608E-02  0.8681429E-01
         -2   -1    0    0    0  501 -0.00000000000E+00  0.00000000000E+00  0.38121349487E+03  0.38121349487E+03  0.00000000000E+00 0.  1.
          2   -1    0    0  501    0  0.00000000000E+00 -0.00000000000E+00 -0.65526169215E+03  0.65526169215E+03  0.00000000000E+00 0.  1.
         36    2    1    2    0    0 -0.28421709430E-13 -0.14210854715E-13 -0.27404819728E+03  0.10364751870E+04  0.99958911503E+03 0.  0.
         25    2    3    3    0    0  0.10607245884E+03  0.80699620840E+02 -0.11418945526E+02  0.18259961374E+03  0.12429171852E+03 0.  0.
         35    2    3    3    0    0 -0.10607245884E+03 -0.80699620840E+02 -0.26262925175E+03  0.85387557328E+03  0.80147712097E+03 0.  0.
         22    1    5    5    0    0  0.17941412403E+02 -0.31477519155E+03  0.16117544003E+03  0.35409439132E+03  0.00000000000E+00 0. -1.
         22    1    5    5    0    0 -0.12401387125E+03  0.23407557071E+03 -0.42380469179E+03  0.49978118196E+03  0.00000000000E+00 0. -1.
          5    1    4    4  502    0  0.12496876440E+03  0.47114118654E+02  0.16681631109E+02  0.13467479003E+03  0.47000000000E+01 0. -1.
         -5    1    4    4    0  502 -0.18896305558E+02  0.33585502185E+02 -0.28100576635E+02  0.47924823714E+02  0.47000000000E+01 0. -1.
<mgrwt>
<rscale>  0 0.99958912E+03</rscale>
<asrwt>0</asrwt>
<pdfrwt beam="1">  1        2 0.10080949E+00 0.99958912E+03</pdfrwt>
<pdfrwt beam="2">  1       -2 0.58648231E-01 0.99958912E+03</pdfrwt>
<totfact> 0.14637267E+02</totfact>
</mgrwt>
</event>
<event>
 9    1  0.4296086E-036  0.9997815E+03  0.7818608E-02  0.8681246E-01
         -1   -1    0    0    0  501 -0.00000000000E+00  0.00000000000E+00  0.26759424729E+03  0.26759424729E+03  0.00000000000E+00 0. -1.
          1   -1    0    0  501    0  0.00000000000E+00 -0.00000000000E+00 -0.93384200441E+03  0.93384200441E+03  0.00000000000E+00 0. -1.
         36    2    1    2    0    0  0.00000000000E+00 -0.14210854715E-13 -0.66624775712E+03  0.12014362517E+04  0.99978147264E+03 0.  0.
         25    2    3    3    0    0  0.62383154606E+02  0.11610301613E+03 -0.18150340464E+03  0.25703199523E+03  0.12550056711E+03 0.  0.
         35    2    3    3    0    0 -0.62383154606E+02 -0.11610301613E+03 -0.48474435248E+03  0.94440425647E+03  0.79971916573E+03 0.  0.
         22    1    5    5    0    0  0.16579410596E+03  0.29350727203E+03 -0.25239791914E+03  0.42111627123E+03  0.00000000000E+00 0.  1.
         22    1    5    5    0    0 -0.22817726057E+03 -0.40961028816E+03 -0.23234643334E+03  0.52328798524E+03  0.00000000000E+00 0.  1.
          5    1    4    4  502    0  0.64083434318E+02  0.15364561382E+02 -0.24584023980E+02  0.70492698455E+02  0.47000000000E+01 0.  1.
         -5    1    4    4    0  502 -0.17002797115E+01  0.10073845474E+03 -0.15691938066E+03  0.18653929677E+03  0.47000000000E+01 0.  1.
<mgrwt>
<rscale>  0 0.99978147E+03</rscale>
<asrwt>0</asrwt>
<pdfrwt beam="1">  1        1 0.14366800E+00 0.99978147E+03</pdfrwt>
<pdfrwt beam="2">  1       -1 0.41168346E-01 0.99978147E+03</pdfrwt>
<totfact> 0.11102464E+02</totfact>
</mgrwt>
</event>
<event>
 9    1  0.4296086E-036  0.1001101E+04  0.7818608E-02  0.8679990E-01
          1   -1    0    0  501    0  0.00000000000E+00  0.00000000000E+00  0.18761274385E+04  0.18761274385E+04  0.00000000000E+00 0.  1.
         -1   -1    0    0    0  501 -0.00000000000E+00 -0.00000000000E+00 -0.13354691861E+03  0.13354691861E+03  0.00000000000E+00 0.  1.
         36    2    1    2    0    0  0.28421709430E-13  0.28421709430E-13  0.17425805199E+04  0.20096743571E+04  0.10011014700E+04 0.  0.
         25    2    3    3    0    0  0.11956315884E+03 -0.46615610738E+02  0.44392488576E+03  0.47874717790E+03  0.12514468440E+03 0.  0.
         35    2    3    3    0    0 -0.11956315884E+03  0.46615610738E+02  0.12986556342E+04  0.15309271792E+04  0.80047686279E+03 0.  0.
         22    1    5    5    0    0  0.25927689050E+03  0.23832969723E+03  0.81204085473E+03  0.88511914468E+03  0.00000000000E+00 0.  1.
         22    1    5    5    0    0 -0.37884004934E+03 -0.19171408649E+03  0.48661477943E+03  0.64580803456E+03  0.00000000000E+00 0.  1.
          5    1    4    4  502    0  0.93269233644E+02 -0.76081682576E+02  0.40709629509E+03  0.42454334979E+03  0.47000000000E+01 0.  1.
         -5    1    4    4    0  502  0.26293925196E+02  0.29466071838E+02  0.36828590668E+02  0.54203828115E+02  0.47000000000E+01 0.  1.
<mgrwt>
<rscale>  0 0.10011015E+04</rscale>
<asrwt>0</asrwt>
<pdfrwt beam="1">  1        1 0.28863497E+00 0.10011015E+04</pdfrwt>
<pdfrwt beam="2">  1       -1 0.20545681E-01 0.10011015E+04</pdfrwt>
<totfact> 0.74401186E+01</totfact>
</mgrwt>
</event>
<event>
 9    1  0.4296086E-036  0.9994290E+03  0.7818608E-02  0.8681582E-01
          1   -1    0    0  501    0  0.00000000000E+00  0.00000000000E+00  0.33979676203E+04  0.33979676203E+04  0.00000000000E+00 0.  1.
         -1   -1    0    0    0  501 -0.00000000000E+00 -0.00000000000E+00 -0.73489391411E+02  0.73489391411E+02  0.00000000000E+00 0.  1.
         36    2    1    2    0    0  0.00000000000E+00  0.28421709430E-13  0.33244782289E+04  0.34714570118E+04  0.99942898188E+03 0.  0.
         25    2    3    3    0    0  0.10474394744E+03 -0.85410330083E+02  0.74630151757E+03  0.76860704160E+03  0.12459779399E+03 0.  0.
         35    2    3    3    0    0 -0.10474394744E+03  0.85410330083E+02  0.25781767114E+04  0.27028499702E+04  0.80008536239E+03 0.  0.
         22    1    5    5    0    0  0.46681260532E+02  0.43130937176E+03  0.13783229640E+04  0.14449848121E+04  0.00000000000E+00 0.  1.
         22    1    5    5    0    0 -0.15142520797E+03 -0.34589904168E+03  0.11998537474E+04  0.12578651580E+04  0.00000000000E+00 0.  1.
          5    1    4    4  502    0  0.92135834699E+02 -0.10564830406E+03  0.45099004053E+03  0.47229723992E+03  0.47000000000E+01 0.  1.
         -5    1    4    4    0  502  0.12608112742E+02  0.20237973981E+02  0.29531147704E+03  0.29630980168E+03  0.47000000000E+01 0.  1.
<mgrwt>
<rscale>  0 0.99942898E+03</rscale>
<asrwt>0</asrwt>
<pdfrwt beam="1">  1        1 0.52276413E+00 0.99942898E+03</pdfrwt>
<pdfrwt beam="2">  1       -1 0.11306063E-01 0.99942898E+03</pdfrwt>
<totfact> 0.16072737E+01</totfact>
</mgrwt>
</event>
<event>
 9    1  0.4296086E-036  0.9994927E+03  0.7818608E-02  0.8681521E-01
          1   -1    0    0  501    0  0.00000000000E+00  0.00000000000E+00  0.17079510029E+04  0.17079510029E+04  0.00000000000E+00 0.  1.
         -1   -1    0    0    0  501 -0.00000000000E+00 -0.00000000000E+00 -0.14622574737E+03  0.14622574737E+03  0.00000000000E+00 0.  1.
         36    2    1    2    0    0  0.14210854715E-13 -0.14210854715E-13  0.15617252556E+04  0.18541767503E+04  0.99949269507E+03 0.  0.
         25    2    3    3    0    0 -0.59600637174E+02  0.12632892870E+03  0.27480817731E+03  0.33258576321E+03  0.12482996995E+03 0.  0.
         35    2    3    3    0    0  0.59600637174E+02 -0.12632892870E+03  0.12869170782E+04  0.15215909871E+04  0.79973266253E+03 0.  0.
         22    1    5    5    0    0 -0.74643418784E+02  0.21703128443E+03  0.10689416352E+04  0.10933025372E+04  0.00000000000E+00 0.  1.
         22    1    5    5    0    0  0.13424405596E+03 -0.34336021313E+03  0.21797544302E+03  0.42828844986E+03  0.00000000000E+00 0.  1.
          5    1    4    4  502    0 -0.60562025386E+02  0.13643240975E+03  0.16635259880E+03  0.22355500101E+03  0.47000000000E+01 0. -1.
         -5    1    4    4    0  502  0.96138821172E+00 -0.10103481050E+02  0.10845557851E+03  0.10903076220E+03  0.47000000000E+01 0. -1.
<mgrwt>
<rscale>  0 0.99949270E+03</rscale>
<asrwt>0</asrwt>
<pdfrwt beam="1">  1        1 0.26276168E+00 0.99949270E+03</pdfrwt>
<pdfrwt beam="2">  1       -1 0.22496270E-01 0.99949270E+03</pdfrwt>
<totfact> 0.84012196E+01</totfact>
</mgrwt>
</event>
<event>
 9    1  0.4296086E-036  0.1000078E+04  0.7818608E-02  0.8680963E-01
          3   -1    0    0  501    0  0.00000000000E+00  0.00000000000E+00  0.10313625281E+04  0.10313625281E+04  0.00000000000E+00 0.  1.
         -3   -1    0    0    0  501 -0.00000000000E+00 -0.00000000000E+00 -0.24243581977E+03  0.24243581977E+03  0.00000000000E+00 0.  1.
         36    2    1    2    0    0 -0.24868995752E-13 -0.28421709430E-13  0.78892670831E+03  0.12737983479E+04  0.10000784369E+04 0.  0.
         25    2    3    3    0    0 -0.13392683053E+02  0.13659959590E+03  0.18080491550E+03  0.25895400748E+03  0.12461118312E+03 0.  0.
         35    2    3    3    0    0  0.13392683053E+02 -0.13659959590E+03  0.60812179281E+03  0.10148443404E+04  0.80078593066E+03 0.  0.
         22    1    5    5    0    0  0.22967518788E+03 -0.40435912234E+03  0.30440713574E+03  0.55580634760E+03  0.00000000000E+00 0.  1.
         22    1    5    5    0    0 -0.21628250483E+03  0.26775952644E+03  0.30371465706E+03  0.45903799277E+03  0.00000000000E+00 0.  1.
          5    1    4    4  502    0  0.16194871907E+02  0.10902707681E+03  0.48477741122E+02  0.12050460048E+03  0.47000000000E+01 0. -1.
         -5    1    4    4    0  502 -0.29587554960E+02  0.27572519094E+02  0.13232717438E+03  0.13844940700E+03  0.47000000000E+01 0. -1.
<mgrwt>
<rscale>  0 0.10000784E+04</rscale>
<asrwt>0</asrwt>
<pdfrwt beam="1">  1        3 0.15867116E+00 0.10000784E+04</pdfrwt>
<pdfrwt beam="2">  1       -3 0.37297819E-01 0.10000784E+04</pdfrwt>
<totfact> 0.82420631E+00</totfact>
</mgrwt>
</event>
<event>
 9    1  0.4296086E-036  0.1000009E+04  0.7818608E-02  0.8681029E-01
         -2   -1    0    0    0  501 -0.00000000000E+00  0.00000000000E+00  0.39574886866E+03  0.39574886866E+03  0.00000000000E+00 0. -1.
          2   -1    0    0  501    0  0.00000000000E+00 -0.00000000000E+00 -0.63172515238E+03  0.63172515238E+03  0.00000000000E+00 0. -1.
         36    2    1    2    0    0  0.00000000000E+00  0.00000000000E+00 -0.23597628372E+03  0.10274740210E+04  0.10000090287E+04 0.  0.
         25    2    3    3    0    0  0.53697815603E+02  0.51589907107E+02 -0.16557933084E+03  0.22064191695E+03  0.12538487468E+03 0.  0.
         35    2    3    3    0    0 -0.53697815603E+02 -0.51589907107E+02 -0.70396952884E+02  0.80683210409E+03  0.80029828145E+03 0.  0.
         22    1    5    5    0    0  0.20304586175E+03 -0.12271050091E+03 -0.34857968297E+03  0.42165540952E+03  0.00000000000E+00 0.  1.
         22    1    5    5    0    0 -0.25674367735E+03  0.71120593798E+02  0.27818273008E+03  0.38517669457E+03  0.00000000000E+00 0.  1.
          5    1    4    4  502    0  0.78513755381E+02  0.46317963591E+01 -0.49892337389E+02  0.93258772519E+02  0.47000000000E+01 0.  1.
         -5    1    4    4    0  502 -0.24815939778E+02  0.46958110748E+02 -0.11568699345E+03  0.12738314443E+03  0.47000000000E+01 0.  1.
<mgrwt>
<rscale>  0 0.10000090E+04</rscale>
<asrwt>0</asrwt>
<pdfrwt beam="1">  1        2 0.97188484E-01 0.10000090E+04</pdfrwt>
<pdfrwt beam="2">  1       -2 0.60884442E-01 0.10000090E+04</pdfrwt>
<totfact> 0.14148723E+02</totfact>
</mgrwt>
</event>
<event>
 9    1  0.4296086E-036  0.1000367E+04  0.7818608E-02  0.8680689E-01
         -1   -1    0    0    0  501 -0.00000000000E+00  0.00000000000E+00  0.70158535637E+03  0.70158535637E+03  0.00000000000E+00 0. -1.
          1   -1    0    0  501    0  0.00000000000E+00 -0.00000000000E+00 -0.35659737658E+03  0.35659737658E+03  0.00000000000E+00 0. -1.
         36    2    1    2    0    0 -0.71054273576E-14 -0.24868995752E-13  0.34498797979E+03  0.10581827330E+04  0.10003669277E+04 0.  0.
         25    2    3    3    0    0 -0.46982865655E+02  0.21732839938E+02 -0.78705971720E+02  0.15672862786E+03  0.12525784131E+03 0.  0.
         35    2    3    3    0    0  0.46982865655E+02 -0.21732839938E+02  0.42369395151E+03  0.90145410509E+03  0.79399196032E+03 0.  0.
         22    1    5    5    0    0 -0.13751470241E+03 -0.28594163559E+03 -0.57365837780E+02  0.32243410441E+03  0.00000000000E+00 0.  1.
         22    1    5    5    0    0  0.18449756806E+03  0.26420879565E+03  0.48105978929E+03  0.57902000068E+03  0.00000000000E+00 0.  1.
          5    1    4    4  502    0  0.14408905621E+02 -0.11823612310E+02 -0.84224242637E+02  0.86389972897E+02  0.47000000000E+01 0.  1.
         -5    1    4    4    0  502 -0.61391771276E+02  0.33556452248E+02  0.55182709171E+01  0.70338654962E+02  0.47000000000E+01 0.  1.
<mgrwt>
<rscale>  0 0.10003669E+04</rscale>
<asrwt>0</asrwt>
<pdfrwt beam="1">  1        1 0.54861135E-01 0.10003669E+04</pdfrwt>
<pdfrwt beam="2">  1       -1 0.10793621E+00 0.10003669E+04</pdfrwt>
<totfact> 0.67032240E+01</totfact>
</mgrwt>
</event>
<event>
 9    1  0.4296086E-036  0.9997925E+03  0.7818608E-02  0.8681236E-01
         -1   -1    0    0    0  501 -0.00000000000E+00  0.00000000000E+00  0.23469305908E+03  0.23469305908E+03  0.00000000000E+00 0.  1.
          1   -1    0    0  501    0  0.00000000000E+00 -0.00000000000E+00 -0.10647791523E+04  0.10647791523E+04  0.00000000000E+00 0.  1.
         36    2    1    2    0    0 -0.31974423109E-13 -0.21316282073E-13 -0.83008609325E+03  0.12994722114E+04  0.99979253148E+03 0.  0.
         25    2    3    3    0    0 -0.14968512675E+02  0.38919821455E+01 -0.33612598075E+03  0.35894854732E+03  0.12499672312E+03 0.  0.
         35    2    3    3    0    0  0.14968512675E+02 -0.38919821455E+01 -0.49396011250E+03  0.94052366408E+03  0.80021807407E+03 0.  0.
         22    1    5    5    0    0 -0.31276541695E+03 -0.22577312931E+03 -0.14250805988E+03  0.41122288250E+03  0.00000000000E+00 0. -1.
         22    1    5    5    0    0  0.32773392963E+03  0.22188114716E+03 -0.35145205262E+03  0.52930078158E+03  0.00000000000E+00 0. -1.
          5    1    4    4  502    0 -0.15586709957E+02 -0.35162241128E+02 -0.30838682807E+03  0.31081160605E+03  0.47000000000E+01 0. -1.
         -5    1    4    4    0  502  0.61819728230E+00  0.39054223273E+02 -0.27739152680E+02  0.48136941269E+02  0.47000000000E+01 0. -1.
<mgrwt>
<rscale>  0 0.99979253E+03</rscale>
<asrwt>0</asrwt>
<pdfrwt beam="1">  1        1 0.16381217E+00 0.99979253E+03</pdfrwt>
<pdfrwt beam="2">  1       -1 0.36106625E-01 0.99979253E+03</pdfrwt>
<totfact> 0.11017811E+02</totfact>
</mgrwt>
</event>
<event>
 9    1  0.4296086E-036  0.1000067E+04  0.7818608E-02  0.8680975E-01
         -2   -1    0    0    0  501 -0.00000000000E+00  0.00000000000E+00  0.48136614016E+03  0.48136614016E+03  0.00000000000E+00 0. -1.
          2   -1    0    0  501    0  0.00000000000E+00 -0.00000000000E+00 -0.51942433265E+03  0.51942433265E+03  0.00000000000E+00 0. -1.
         36    2    1    2    0    0 -0.28421709430E-13 -0.28421709430E-13 -0.38058192499E+02  0.10007904728E+04  0.10000665700E+04 0.  0.
         25    2    3    3    0    0 -0.69787602385E+02  0.69590601159E+02 -0.99776904884E+02  0.18770081856E+03  0.12475177484E+03 0.  0.
         35    2    3    3    0    0  0.69787602385E+02 -0.69590601159E+02  0.61718712386E+02  0.81308965425E+03  0.80473127513E+03 0.  0.
         22    1    5    5    0    0 -0.30710227502E+03 -0.10124246135E+03  0.23233312129E+03  0.39817147380E+03  0.00000000000E+00 0. -1.
         22    1    5    5    0    0  0.37688987740E+03  0.31651860193E+02 -0.17061440890E+03  0.41491818045E+03  0.00000000000E+00 0. -1.
          5    1    4    4  502    0  0.31286651392E+02  0.44418801280E+02 -0.30023166871E+02  0.62252429763E+02  0.47000000000E+01 0. -1.
         -5    1    4    4    0  502 -0.10107425378E+03  0.25171799880E+02 -0.69753738013E+02  0.12544838880E+03  0.47000000000E+01 0. -1.
<mgrwt>
<rscale>  0 0.10000666E+04</rscale>
<asrwt>0</asrwt>
<pdfrwt beam="1">  1        2 0.79911436E-01 0.10000666E+04</pdfrwt>
<pdfrwt beam="2">  1       -2 0.74056329E-01 0.10000666E+04</pdfrwt>
<totfact> 0.11688539E+02</totfact>
</mgrwt>
</event>
<event>
 9    1  0.4296086E-036  0.1000244E+04  0.7818608E-02  0.8680806E-01
          1   -1    0    0  501    0  0.00000000000E+00  0.00000000000E+00  0.36459403629E+04  0.36459403629E+04  0.00000000000E+00 0. -1.
         -1   -1    0    0    0  501 -0.00000000000E+00 -0.00000000000E+00 -0.68602829527E+02  0.68602829527E+02  0.00000000000E+00 0. -1.
         36    2    1    2    0    0  0.21316282073E-13 -0.14210854715E-13  0.35773375334E+04  0.37145431925E+04  0.10002436207E+04 0.  0.
         25    2    3    3    0    0  0.23248760476E+02 -0.78789928054E+02  0.10898625556E+04  0.11003333935E+04  0.12721961009E+03 0.  0.
         35    2    3    3    0    0 -0.23248760476E+02  0.78789928054E+02  0.24874749778E+04  0.26142097989E+04  0.79988296018E+03 0.  0.
         22    1    5    5    0    0 -0.28499687115E+03 -0.25294915735E+03  0.12238884544E+04  0.12818383055E+04  0.00000000000E+00 0.  1.
         22    1    5    5    0    0  0.26174811068E+03  0.33173908541E+03  0.12635865234E+04  0.13323714934E+04  0.00000000000E+00 0.  1.
          5    1    4    4  502    0  0.18412182793E+02 -0.99033749739E+02  0.10524009131E+04  0.10572211046E+04  0.47000000000E+01 0.  1.
         -5    1    4    4    0  502  0.48365776826E+01  0.20243821685E+02  0.37461642488E+02  0.43112288944E+02  0.47000000000E+01 0.  1.
<mgrwt>
<rscale>  0 0.10002436E+04</rscale>
<asrwt>0</asrwt>
<pdfrwt beam="1">  1        1 0.56091375E+00 0.10002436E+04</pdfrwt>
<pdfrwt beam="2">  1       -1 0.10554284E-01 0.10002436E+04</pdfrwt>
<totfact> 0.11772034E+01</totfact>
</mgrwt>
</event>
<event>
 9    1  0.4296086E-036  0.1000279E+04  0.7818608E-02  0.8680772E-01
          1   -1    0    0  501    0  0.00000000000E+00  0.00000000000E+00  0.69950013535E+03  0.69950013535E+03  0.00000000000E+00 0. -1.
         -1   -1    0    0    0  501 -0.00000000000E+00 -0.00000000000E+00 -0.35759755637E+03  0.35759755637E+03  0.00000000000E+00 0. -1.
         36    2    1    2    0    0  0.00000000000E+00 -0.71054273576E-14  0.34190257898E+03  0.10570976917E+04  0.10002790392E+04 0.  0.
         25    2    3    3    0    0  0.12252379283E+03 -0.54466120785E+02  0.11045057996E+03  0.21398004050E+03  0.12493794057E+03 0.  0.
         35    2    3    3    0    0 -0.12252379283E+03  0.54466120785E+02  0.23145199901E+03  0.84311765123E+03  0.79956157226E+03 0.  0.
         22    1    5    5    0    0 -0.22682437016E+02 -0.28746508290E+02 -0.29683110158E+03  0.29908118890E+03  0.00000000000E+00 0. -1.
         22    1    5    5    0    0 -0.99841355815E+02  0.83212629075E+02  0.52828310060E+03  0.54403646233E+03  0.00000000000E+00 0. -1.
          5    1    4    4  502    0  0.31789245620E+02  0.27033344014E+02  0.76540817801E+02  0.87303749148E+02  0.47000000000E+01 0. -1.
         -5    1    4    4    0  502  0.90734547210E+02 -0.81499464800E+02  0.33909762161E+02  0.12667629135E+03  0.47000000000E+01 0. -1.
<mgrwt>
<rscale>  0 0.10002790E+04</rscale>
<asrwt>0</asrwt>
<pdfrwt beam="1">  1        1 0.10761540E+00 0.10002790E+04</pdfrwt>
<pdfrwt beam="2">  1       -1 0.55015009E-01 0.10002790E+04</pdfrwt>
<totfact> 0.10476315E+02</totfact>
</mgrwt>
</event>
<event>
 9    1  0.4296086E-036  0.1000216E+04  0.7818608E-02  0.8680832E-01
          2   -1    0    0  501    0  0.00000000000E+00  0.00000000000E+00  0.13889044001E+04  0.13889044001E+04  0.00000000000E+00 0.  1.
         -2   -1    0    0    0  501 -0.00000000000E+00 -0.00000000000E+00 -0.18007590624E+03  0.18007590624E+03  0.00000000000E+00 0.  1.
         36    2    1    2    0    0  0.71054273576E-14 -0.10658141036E-13  0.12088284938E+04  0.15689803063E+04  0.10002164136E+04 0.  0.
         25    2    3    3    0    0  0.16923108444E+02 -0.18418910489E+02  0.44493859980E+03  0.46281869518E+03  0.12492053137E+03 0.  0.
         35    2    3    3    0    0 -0.16923108444E+02  0.18418910489E+02  0.76388989403E+03  0.11061616111E+04  0.79964998086E+03 0.  0.
         22    1    5    5    0    0 -0.25191111901E+03 -0.28851222524E+03  0.53150560662E+03  0.65513107533E+03  0.00000000000E+00 0.  1.
         22    1    5    5    0    0  0.23498801057E+03  0.30693113573E+03  0.23238428741E+03  0.45103053580E+03  0.00000000000E+00 0.  1.
          5    1    4    4  502    0  0.80995854083E+01  0.27890397916E+02  0.20771922194E+02  0.36014446148E+02  0.47000000000E+01 0.  1.
         -5    1    4    4    0  502  0.88235230354E+01 -0.46309308405E+02  0.42416667760E+03  0.42680424903E+03  0.47000000000E+01 0.  1.
<mgrwt>
<rscale>  0 0.10002164E+04</rscale>
<asrwt>0</asrwt>
<pdfrwt beam="1">  1        2 0.21367759E+00 0.10002164E+04</pdfrwt>
<pdfrwt beam="2">  1       -2 0.27703987E-01 0.10002164E+04</pdfrwt>
<totfact> 0.20923689E+02</totfact>
</mgrwt>
</event>
<event>
 9    1  0.4296086E-036  0.1000681E+04  0.7818608E-02  0.8680390E-01
          2   -1    0    0  501    0  0.00000000000E+00  0.00000000000E+00  0.11723375353E+04  0.11723375353E+04  0.00000000000E+00 0.  1.
         -2   -1    0    0    0  501 -0.00000000000E+00 -0.00000000000E+00 -0.21353953121E+03  0.21353953121E+03  0.00000000000E+00 0.  1.
         36    2    1    2    0    0 -0.14210854715E-13 -0.14210854715E-13  0.95879800412E+03  0.13858770665E+04  0.10006805838E+04 0.  0.
         25    2    3    3    0    0  0.10574835188E+03  0.52855190416E+02  0.72780392131E+02  0.18702899362E+03  0.12532547186E+03 0.  0.
         35    2    3    3    0    0 -0.10574835188E+03 -0.52855190416E+02  0.88601761198E+03  0.11988480729E+04  0.79889492932E+03 0.  0.
         22    1    5    5    0    0 -0.23255857121E+03  0.29544933074E+02  0.98866096103E+03  0.10160742532E+04  0.00000000000E+00 0. -1.
         22    1    5    5    0    0  0.12681021932E+03 -0.82400123490E+02 -0.10264334904E+03  0.18277381973E+03  0.00000000000E+00 0. -1.
          5    1    4    4  502    0  0.12080733101E+03  0.68500777941E+01  0.36896359885E+02  0.12658896541E+03  0.47000000000E+01 0.  1.
         -5    1    4    4    0  502 -0.15058979128E+02  0.46005112622E+02  0.35884032246E+02  0.60440028210E+02  0.47000000000E+01 0.  1.
<mgrwt>
<rscale>  0 0.10006806E+04</rscale>
<asrwt>0</asrwt>
<pdfrwt beam="1">  1        2 0.18035962E+00 0.10006806E+04</pdfrwt>
<pdfrwt beam="2">  1       -2 0.32852236E-01 0.10006806E+04</pdfrwt>
<totfact> 0.20498891E+02</totfact>
</mgrwt>
</event>
<event>
 9    1  0.4296086E-036  0.1000251E+04  0.7818608E-02  0.8680799E-01
          1   -1    0    0  501    0  0.00000000000E+00  0.00000000000E+00  0.28087523507E+03  0.28087523507E+03  0.00000000000E+00 0.  1.
         -1   -1    0    0    0  501 -0.00000000000E+00 -0.00000000000E+00 -0.89052259934E+03  0.89052259934E+03  0.00000000000E+00 0.  1.
         36    2    1    2    0    0  0.00000000000E+00  0.71054273576E-14 -0.60964736426E+03  0.11713978344E+04  0.10002514572E+04 0.  0.
         25    2    3    3    0    0 -0.13393541718E+03 -0.34045344164E+02 -0.84565702528E+02  0.20474717466E+03  0.12518892145E+03 0.  0.
         35    2    3    3    0    0  0.13393541718E+03  0.34045344164E+02 -0.52508166173E+03  0.96665065975E+03  0.79975306506E+03 0.  0.
         22    1    5    5    0    0  0.56432148751E+02 -0.21368969721E+03 -0.64419222391E+03  0.68105175680E+03  0.00000000000E+00 0.  1.
         22    1    5    5    0    0  0.77503268426E+02  0.24773504137E+03  0.11911056217E+03  0.28559890294E+03  0.00000000000E+00 0.  1.
          5    1    4    4  502    0 -0.51182459906E+02 -0.55917316959E+02  0.10575472229E+02  0.76683252088E+02  0.47000000000E+01 0. -1.
         -5    1    4    4    0  502 -0.82752957271E+02  0.21871972795E+02 -0.95141174758E+02  0.12806392258E+03  0.47000000000E+01 0. -1.
<mgrwt>
<rscale>  0 0.10002515E+04</rscale>
<asrwt>0</asrwt>
<pdfrwt beam="1">  1        1 0.43211575E-01 0.10002515E+04</pdfrwt>
<pdfrwt beam="2">  1       -1 0.13700348E+00 0.10002515E+04</pdfrwt>
<totfact> 0.50480853E+01</totfact>
</mgrwt>
</event>
<event>
 9    1  0.4296086E-036  0.1009434E+04  0.7818608E-02  0.8672105E-01
          2   -1    0    0  501    0  0.00000000000E+00  0.00000000000E+00  0.20273750937E+03  0.20273750937E+03  0.00000000000E+00 0. -1.
         -2   -1    0    0    0  501 -0.00000000000E+00 -0.00000000000E+00 -0.12564987242E+04  0.12564987242E+04  0.00000000000E+00 0. -1.
         36    2    1    2    0    0  0.14210854715E-13 -0.28421709430E-13 -0.10537612148E+04  0.14592362335E+04  0.10094343403E+04 0.  0.
         25    2    3    3    0    0  0.11929356364E+03  0.42359191246E+02 -0.32031431837E+03  0.36791516489E+03  0.12936402355E+03 0.  0.
         35    2    3    3    0    0 -0.11929356364E+03 -0.42359191246E+02 -0.73344689640E+03  0.10913210686E+04  0.79813035878E+03 0.  0.
         22    1    5    5    0    0  0.74692094369E+02  0.30812181751E+03 -0.58259280790E+03  0.66327395788E+03  0.00000000000E+00 0.  1.
         22    1    5    5    0    0 -0.19398565801E+03 -0.35048100875E+03 -0.15085408850E+03  0.42804711076E+03  0.00000000000E+00 0.  1.
          5    1    4    4  502    0  0.39100244262E+02 -0.30441048196E+01 -0.24678915164E+03  0.24993013232E+03  0.47000000000E+01 0. -1.
         -5    1    4    4    0  502  0.80193319376E+02  0.45403296065E+02 -0.73525166739E+02  0.11798503257E+03  0.47000000000E+01 0. -1.
<mgrwt>
<rscale>  0 0.10094343E+04</rscale>
<asrwt>0</asrwt>
<pdfrwt beam="1">  1        2 0.31190386E-01 0.10094343E+04</pdfrwt>
<pdfrwt beam="2">  1       -2 0.19330750E+00 0.10094343E+04</pdfrwt>
<totfact> 0.27415941E+01</totfact>
</mgrwt>
</event>
<event>
 9    1  0.4296086E-036  0.1000028E+04  0.7818608E-02  0.8681012E-01
          1   -1    0    0  501    0  0.00000000000E+00  0.00000000000E+00  0.18665479066E+04  0.18665479066E+04  0.00000000000E+00 0.  1.
         -1   -1    0    0    0  501 -0.00000000000E+00 -0.00000000000E+00 -0.13394448790E+03  0.13394448790E+03  0.00000000000E+00 0.  1.
         36    2    1    2    0    0 -0.21316282073E-13  0.00000000000E+00  0.17326034187E+04  0.20004923945E+04  0.10000276066E+04 0.  0.
         25    2    3    3    0    0  0.14882251474E+02  0.13242659608E+03  0.41869058427E+03  0.45643707674E+03  0.12359091757E+03 0.  0.
         35    2    3    3    0    0 -0.14882251474E+02 -0.13242659608E+03  0.13139128344E+04  0.15440553177E+04  0.79998850182E+03 0.  0.
         22    1    5    5    0    0  0.13083634076E+03  0.20088971906E+03  0.10918416828E+04  0.11178519972E+04  0.00000000000E+00 0. -1.
         22    1    5    5    0    0 -0.14571859223E+03 -0.33331631514E+03  0.22207115156E+03  0.42620332051E+03  0.00000000000E+00 0. -1.
          5    1    4    4  502    0 -0.35848709444E+02  0.10942484511E+03  0.20109804904E+03  0.23177886449E+03  0.47000000000E+01 0. -1.
         -5    1    4    4    0  502  0.50730960919E+02  0.23001750972E+02  0.21759253523E+03  0.22465821225E+03  0.47000000000E+01 0. -1.
<mgrwt>
<rscale>  0 0.10000276E+04</rscale>
<asrwt>0</asrwt>
<pdfrwt beam="1">  1        1 0.28716120E+00 0.10000276E+04</pdfrwt>
<pdfrwt beam="2">  1       -1 0.20606846E-01 0.10000276E+04</pdfrwt>
<totfact> 0.75195295E+01</totfact>
</mgrwt>
</event>
<event>
 9    1  0.4296086E-036  0.9999030E+03  0.7818608E-02  0.8681130E-01
          1   -1    0    0  501    0  0.00000000000E+00  0.00000000000E+00  0.67617463712E+03  0.67617463712E+03  0.00000000000E+00 0.  1.
         -1   -1    0    0    0  501 -0.00000000000E+00 -0.00000000000E+00 -0.36965525592E+03  0.36965525592E+03  0.00000000000E+00 0.  1.
         36    2    1    2    0    0  0.14210854715E-13  0.00000000000E+00  0.30651938120E+03  0.10458298930E+04  0.99990301237E+03 0.  0.
         25    2    3    3    0    0  0.11374104225E+03 -0.40599377081E+02  0.12903778313E+03  0.21648351363E+03  0.12501611131E+03 0.  0.
         35    2    3    3    0    0 -0.11374104225E+03  0.40599377081E+02  0.17748159807E+03  0.82934637942E+03  0.80108074830E+03 0.  0.
         22    1    5    5    0    0  0.88628523281E+02  0.18737277136E+02  0.46685081806E+03  0.47555839496E+03  0.00000000000E+00 0.  1.
         22    1    5    5    0    0 -0.20236956553E+03  0.21862099945E+02 -0.28936921999E+03  0.35378798446E+03  0.00000000000E+00 0.  1.
          5    1    4    4  502    0  0.13745160177E+03 -0.51826945002E+02  0.10540459430E+03  0.18086236080E+03  0.47000000000E+01 0. -1.
         -5    1    4    4    0  502 -0.23710559518E+02  0.11227567921E+02  0.23633188832E+02  0.35621152823E+02  0.47000000000E+01 0. -1.
<mgrwt>
<rscale>  0 0.99990301E+03</rscale>
<asrwt>0</asrwt>
<pdfrwt beam="1">  1        1 0.10402687E+00 0.99990301E+03</pdfrwt>
<pdfrwt beam="2">  1       -1 0.56870040E-01 0.99990301E+03</pdfrwt>
<totfact> 0.10362500E+02</totfact>
</mgrwt>
</event>
<event>
 9    1  0.4296086E-036  0.1000512E+04  0.7818608E-02  0.8680550E-01
          2   -1    0    0  501    0  0.00000000000E+00  0.00000000000E+00  0.39440278651E+04  0.39440278651E+04  0.00000000000E+00 0.  1.
         -2   -1    0    0    0  501 -0.00000000000E+00 -0.00000000000E+00 -0.63451922987E+02  0.63451922987E+02  0.00000000000E+00 0.  1.
         36    2    1    2    0    0  0.42632564146E-13  0.00000000000E+00  0.38805759421E+04  0.40074797880E+04  0.10005121735E+04 0.  0.
         25    2    3    3    0    0  0.10479897739E+02 -0.99425962354E+02  0.31476501783E+03  0.35185217461E+03  0.12135726627E+03 0.  0.
         35    2    3    3    0    0 -0.10479897739E+02  0.99425962354E+02  0.35658109242E+04  0.36556276134E+04  0.79913099707E+03 0.  0.
         22    1    5    5    0    0  0.38442679690E+03  0.12646699116E+03  0.20023698564E+04  0.20428565548E+04  0.00000000000E+00 0.  1.
         22    1    5    5    0    0 -0.39490669464E+03 -0.27041028804E+02  0.15634410679E+04  0.16127710586E+04  0.00000000000E+00 0.  1.
          5    1    4    4  502    0  0.39481721120E+02  0.18584700167E+01  0.15784999464E+03  0.16279118841E+03  0.47000000000E+01 0.  1.
         -5    1    4    4    0  502 -0.29001823382E+02 -0.10128443237E+03  0.15691502319E+03  0.18906098620E+03  0.47000000000E+01 0.  1.
<mgrwt>
<rscale>  0 0.10005122E+04</rscale>
<asrwt>0</asrwt>
<pdfrwt beam="1">  1        2 0.60677333E+00 0.10005122E+04</pdfrwt>
<pdfrwt beam="2">  1       -2 0.97618374E-02 0.10005122E+04</pdfrwt>
<totfact> 0.26384977E+01</totfact>
</mgrwt>
</event>
<event>
 9    1  0.4296086E-036  0.9996800E+03  0.7818608E-02  0.8681343E-01
         -1   -1    0    0    0  501 -0.00000000000E+00  0.00000000000E+00  0.14557097504E+03  0.14557097504E+03  0.00000000000E+00 0. -1.
          1   -1    0    0  501    0  0.00000000000E+00 -0.00000000000E+00 -0.17162762421E+04  0.17162762421E+04  0.00000000000E+00 0. -1.
         36    2    1    2    0    0 -0.14210854715E-13 -0.14210854715E-13 -0.15707052671E+04  0.18618472172E+04  0.99967996080E+03 0.  0.
         25    2    3    3    0    0  0.10361444471E+03  0.15701798369E+02 -0.12311062491E+03  0.20451654021E+03  0.12525290267E+03 0.  0.
         35    2    3    3    0    0 -0.10361444471E+03 -0.15701798369E+02 -0.14475946422E+04  0.16573306770E+04  0.80014512754E+03 0.  0.
         22    1    5    5    0    0 -0.17409557436E+03  0.34524411589E+03 -0.10337306340E+04  0.11036764889E+04  0.00000000000E+00 0.  1.
         22    1    5    5    0    0  0.70481129651E+02 -0.36094591426E+03 -0.41386400820E+03  0.55365418805E+03  0.00000000000E+00 0.  1.
          5    1    4    4  502    0  0.34345668103E+02  0.65376983508E+02 -0.35090530150E+02  0.81897559159E+02  0.47000000000E+01 0.  1.
         -5    1    4    4    0  502  0.69268776607E+02 -0.49675185139E+02 -0.88020094764E+02  0.12261898105E+03  0.47000000000E+01 0.  1.
<mgrwt>
<rscale>  0 0.99967996E+03</rscale>
<asrwt>0</asrwt>
<pdfrwt beam="1">  1        1 0.26404249E+00 0.99967996E+03</pdfrwt>
<pdfrwt beam="2">  1       -1 0.22395535E-01 0.99967996E+03</pdfrwt>
<totfact> 0.83506863E+01</totfact>
</mgrwt>
</event>
<event>
 9    1  0.4296086E-036  0.9998758E+03  0.7818608E-02  0.8681156E-01
          1   -1    0    0  501    0  0.00000000000E+00  0.00000000000E+00  0.36328542295E+04  0.36328542295E+04  0.00000000000E+00 0.  1.
         -1   -1    0    0    0  501 -0.00000000000E+00 -0.00000000000E+00 -0.68799325027E+02  0.68799325027E+02  0.00000000000E+00 0.  1.
         36    2    1    2    0    0 -0.14210854715E-13  0.00000000000E+00  0.35640549045E+04  0.37016535545E+04  0.99987583011E+03 0.  0.
         25    2    3    3    0    0 -0.12701781434E+02 -0.13786020013E+03  0.75402501036E+03  0.77680531275E+03  0.12532361166E+03 0.  0.
         35    2    3    3    0    0  0.12701781434E+02  0.13786020013E+03  0.28100298941E+04  0.29248482418E+04  0.79956391963E+03 0.  0.
         22    1    5    5    0    0  0.15921822211E+03  0.11582713906E+03  0.11965993398E+03  0.23040153687E+03  0.00000000000E+00 0. -1.
         22    1    5    5    0    0 -0.14651644067E+03  0.22033061070E+02  0.26903699601E+04  0.26944467049E+04  0.00000000000E+00 0. -1.
          5    1    4    4  502    0 -0.55888360036E+02 -0.12339996395E+03  0.47159679268E+03  0.49069000883E+03  0.47000000000E+01 0. -1.
         -5    1    4    4    0  502  0.43186578602E+02 -0.14460236177E+02  0.28242821768E+03  0.28611530393E+03  0.47000000000E+01 0. -1.
<mgrwt>
<rscale>  0 0.99987583E+03</rscale>
<asrwt>0</asrwt>
<pdfrwt beam="1">  1        1 0.55890050E+00 0.99987583E+03</pdfrwt>
<pdfrwt beam="2">  1       -1 0.10584514E-01 0.99987583E+03</pdfrwt>
<totfact> 0.11983095E+01</totfact>
</mgrwt>
</event>
<event>
 9    1  0.4296086E-036  0.1001740E+04  0.7818608E-02  0.8679383E-01
          1   -1    0    0  501    0  0.00000000000E+00  0.00000000000E+00  0.87142530859E+03  0.87142530859E+03  0.00000000000E+00 0. -1.
         -1   -1    0    0    0  501 -0.00000000000E+00 -0.00000000000E+00 -0.28788544735E+03  0.28788544735E+03  0.00000000000E+00 0. -1.
         36    2    1    2    0    0  0.14210854715E-13  0.14210854715E-13  0.58353986124E+03  0.11593107559E+04  0.10017398161E+04 0.  0.
         25    2    3    3    0    0  0.35750325547E+02 -0.35047710464E+02  0.26633558221E+03  0.29828440135E+03  0.12462950676E+03 0.  0.
         35    2    3    3    0    0 -0.35750325547E+02  0.35047710464E+02  0.31720427904E+03  0.86102635459E+03  0.79890011946E+03 0.  0.
         22    1    5    5    0    0  0.15192023997E+03 -0.14047566105E+03  0.50302433601E+03  0.54391787365E+03  0.00000000000E+00 0.  1.
         22    1    5    5    0    0 -0.18767056552E+03  0.17552337151E+03 -0.18582005698E+03  0.31710848094E+03  0.00000000000E+00 0.  1.
          5    1    4    4  502    0  0.11460450944E+02  0.39043679699E+02  0.34209755100E+02  0.53368044786E+02  0.47000000000E+01 0. -1.
         -5    1    4    4    0  502  0.24289874603E+02 -0.74091390163E+02  0.23212582711E+03  0.24491635657E+03  0.47000000000E+01 0. -1.
<mgrwt>
<rscale>  0 0.10017398E+04</rscale>
<asrwt>0</asrwt>
<pdfrwt beam="1">  1        1 0.13406543E+00 0.10017398E+04</pdfrwt>
<pdfrwt beam="2">  1       -1 0.44290069E-01 0.10017398E+04</pdfrwt>
<totfact> 0.10967981E+02</totfact>
</mgrwt>
</event>
<event>
 9    1  0.4296086E-036  0.9890914E+03  0.7818608E-02  0.8691496E-01
         -2   -1    0    0    0  501 -0.00000000000E+00  0.00000000000E+00  0.14136112456E+03  0.14136112456E+03  0.00000000000E+00 0.  1.
          2   -1    0    0  501    0  0.00000000000E+00 -0.00000000000E+00 -0.17301466310E+04  0.17301466310E+04  0.00000000000E+00 0.  1.
         36    2    1    2    0    0 -0.14210854715E-13  0.00000000000E+00 -0.15887855065E+04  0.18715077556E+04  0.98909144858E+03 0.  0.
         25    2    3    3    0    0 -0.45575779678E+02 -0.11872269705E+03 -0.25165828654E+03  0.30829184156E+03  0.12465847704E+03 0.  0.
         35    2    3    3    0    0  0.45575779678E+02  0.11872269705E+03 -0.13371272199E+04  0.15632159140E+04  0.79972655396E+03 0.  0.
         22    1    5    5    0    0 -0.14723405278E+03  0.21461529829E+03 -0.13219671803E+04  0.13473436155E+04  0.00000000000E+00 0. -1.
         22    1    5    5    0    0  0.19280983246E+03 -0.95892601244E+02 -0.15160039669E+02  0.21587229852E+03  0.00000000000E+00 0. -1.
          5    1    4    4  502    0  0.24976217506E+00 -0.37558849837E+02  0.21055689045E+01  0.37911119775E+02  0.47000000000E+01 0.  1.
         -5    1    4    4    0  502 -0.45825541853E+02 -0.81163847213E+02 -0.25376385545E+03  0.27038072178E+03  0.47000000000E+01 0.  1.
<mgrwt>
<rscale>  0 0.98909145E+03</rscale>
<asrwt>0</asrwt>
<pdfrwt beam="1">  1        2 0.26617639E+00 0.98909145E+03</pdfrwt>
<pdfrwt beam="2">  1       -2 0.21747866E-01 0.98909145E+03</pdfrwt>
<totfact> 0.20597186E+02</totfact>
</mgrwt>
</event>
<event>
 9    1  0.4296086E-036  0.9996826E+03  0.7818608E-02  0.8681340E-01
         -1   -1    0    0    0  501 -0.00000000000E+00  0.00000000000E+00  0.18470833388E+03  0.18470833388E+03  0.00000000000E+00 0.  1.
          1   -1    0    0  501    0  0.00000000000E+00 -0.00000000000E+00 -0.13526261748E+04  0.13526261748E+04  0.00000000000E+00 0.  1.
         36    2    1    2    0    0 -0.14210854715E-13  0.00000000000E+00 -0.11679178410E+04  0.15373345087E+04  0.99968260386E+03 0.  0.
         25    2    3    3    0    0  0.91776775649E+02  0.69495841038E+02 -0.34314201324E+03  0.38291623434E+03  0.12500301116E+03 0.  0.
         35    2    3    3    0    0 -0.91776775649E+02 -0.69495841038E+02 -0.82477582772E+03  0.11544182744E+04  0.79948341931E+03 0.  0.
         22    1    5    5    0    0 -0.27320600441E+03 -0.50123611536E+02 -0.91114847915E+03  0.95254682212E+03  0.00000000000E+00 0.  1.
         22    1    5    5    0    0  0.18142922876E+03 -0.19372229502E+02  0.86372651426E+02  0.20187145226E+03  0.00000000000E+00 0.  1.
          5    1    4    4  502    0  0.39328352868E+02  0.31360180857E+02 -0.30150755066E+03  0.30571076754E+03  0.47000000000E+01 0.  1.
         -5    1    4    4    0  502  0.52448422782E+02  0.38135660181E+02 -0.41634462576E+02  0.77205466800E+02  0.47000000000E+01 0.  1.
<mgrwt>
<rscale>  0 0.99968260E+03</rscale>
<asrwt>0</asrwt>
<pdfrwt beam="1">  1        1 0.20809634E+00 0.99968260E+03</pdfrwt>
<pdfrwt beam="2">  1       -1 0.28416666E-01 0.99968260E+03</pdfrwt>
<totfact> 0.10153222E+02</totfact>
</mgrwt>
</event>
<event>
 9    1  0.4296086E-036  0.9999400E+03  0.7818608E-02  0.8681095E-01
         -2   -1    0    0    0  501 -0.00000000000E+00  0.00000000000E+00  0.13350212079E+03  0.13350212079E+03  0.00000000000E+00 0.  1.
          2   -1    0    0  501    0  0.00000000000E+00 -0.00000000000E+00 -0.18724047935E+04  0.18724047935E+04  0.00000000000E+00 0.  1.
         36    2    1    2    0    0  0.00000000000E+00  0.00000000000E+00 -0.17389026727E+04  0.20059069143E+04  0.99994002001E+03 0.  0.
         25    2    3    3    0    0 -0.45106801763E+02  0.13559552001E+03 -0.43311071757E+03  0.47277404659E+03  0.12453769244E+03 0.  0.
         35    2    3    3    0    0  0.45106801763E+02 -0.13559552001E+03 -0.13057919551E+04  0.15331328677E+04  0.79055865772E+03 0.  0.
         22    1    5    5    0    0  0.39157065893E+03 -0.16964696955E+03 -0.51312930673E+03  0.66738996145E+03  0.00000000000E+00 0.  1.
         22    1    5    5    0    0 -0.34646385717E+03  0.34051449546E+02 -0.79266264837E+03  0.86574290621E+03  0.00000000000E+00 0.  1.
          5    1    4    4  502    0  0.23769679201E+02  0.11190713636E+03 -0.29741993881E+03  0.31869878384E+03  0.47000000000E+01 0.  1.
         -5    1    4    4    0  502 -0.68876480964E+02  0.23688383642E+02 -0.13569077876E+03  0.15407526275E+03  0.47000000000E+01 0.  1.
<mgrwt>
<rscale>  0 0.99994002E+03</rscale>
<asrwt>0</asrwt>
<pdfrwt beam="1">  1        2 0.28806228E+00 0.99994002E+03</pdfrwt>
<pdfrwt beam="2">  1       -2 0.20538787E-01 0.99994002E+03</pdfrwt>
<totfact> 0.18913700E+02</totfact>
</mgrwt>
</event>
<event>
 9    1  0.4296086E-036  0.9997310E+03  0.7818608E-02  0.8681294E-01
         -1   -1    0    0    0  501 -0.00000000000E+00  0.00000000000E+00  0.55160162541E+03  0.55160162541E+03  0.00000000000E+00 0. -1.
          1   -1    0    0  501    0  0.00000000000E+00 -0.00000000000E+00 -0.45298179742E+03  0.45298179742E+03  0.00000000000E+00 0. -1.
         36    2    1    2    0    0  0.00000000000E+00 -0.28421709430E-13  0.98619827986E+02  0.10045834228E+04  0.99973095528E+03 0.  0.
         25    2    3    3    0    0  0.65795343626E+02  0.29142325618E+02 -0.10357347912E+03  0.17632060795E+03  0.12322008287E+03 0.  0.
         35    2    3    3    0    0 -0.65795343626E+02 -0.29142325618E+02  0.20219330711E+03  0.82826281488E+03  0.79997428377E+03 0.  0.
         22    1    5    5    0    0  0.26604550617E+03 -0.23237941935E+03 -0.61014621237E+02  0.35847341588E+03  0.00000000000E+00 0.  1.
         22    1    5    5    0    0 -0.33184084980E+03  0.20323709373E+03  0.26320792834E+03  0.46978939899E+03  0.00000000000E+00 0.  1.
          5    1    4    4  502    0  0.59099727941E+02  0.41428242789E+02 -0.12843949318E+03  0.14740376709E+03  0.47000000000E+01 0.  1.
         -5    1    4    4    0  502  0.66956156849E+01 -0.12285917171E+02  0.24866014058E+02  0.28916840859E+02  0.47000000000E+01 0.  1.
<mgrwt>
<rscale>  0 0.99973096E+03</rscale>
<asrwt>0</asrwt>
<pdfrwt beam="1">  1        1 0.69689508E-01 0.99973096E+03</pdfrwt>
<pdfrwt beam="2">  1       -1 0.84861788E-01 0.99973096E+03</pdfrwt>
<totfact> 0.82698582E+01</totfact>
</mgrwt>
</event>
<event>
 9    1  0.4296086E-036  0.1000372E+04  0.7818608E-02  0.8680684E-01
          1   -1    0    0  501    0  0.00000000000E+00  0.00000000000E+00  0.74993210787E+03  0.74993210787E+03  0.00000000000E+00 0. -1.
         -1   -1    0    0    0  501 -0.00000000000E+00 -0.00000000000E+00 -0.33361148978E+03  0.33361148978E+03  0.00000000000E+00 0. -1.
         36    2    1    2    0    0  0.15987211555E-13  0.00000000000E+00  0.41632061809E+03  0.10835435977E+04  0.10003718663E+04 0.  0.
         25    2    3    3    0    0  0.14217386410E+02 -0.61150518168E+02 -0.53995680118E+02  0.15262088075E+03  0.12820327540E+03 0.  0.
         35    2    3    3    0    0 -0.14217386410E+02  0.61150518168E+02  0.47031629821E+03  0.93092271690E+03  0.80092332001E+03 0.  0.
         22    1    5    5    0    0 -0.25598868412E+03  0.27410054749E+03  0.47932349600E+03  0.60861509211E+03  0.00000000000E+00 0.  1.
         22    1    5    5    0    0  0.24177129771E+03 -0.21295002932E+03 -0.90071977838E+01  0.32230762479E+03  0.00000000000E+00 0.  1.
          5    1    4    4  502    0  0.15951147833E+01  0.37078380007E+02  0.42182060353E+01  0.37646167365E+02  0.47000000000E+01 0. -1.
         -5    1    4    4    0  502  0.12622271627E+02 -0.98228898176E+02 -0.58213886153E+02  0.11497471339E+03  0.47000000000E+01 0. -1.
<mgrwt>
<rscale>  0 0.10003719E+04</rscale>
<asrwt>0</asrwt>
<pdfrwt beam="1">  1        1 0.11537417E+00 0.10003719E+04</pdfrwt>
<pdfrwt beam="2">  1       -1 0.51324845E-01 0.10003719E+04</pdfrwt>
<totfact> 0.10703424E+02</totfact>
</mgrwt>
</event>
<event>
 9    1  0.4296086E-036  0.1000311E+04  0.7818608E-02  0.8680742E-01
         -1   -1    0    0    0  501 -0.00000000000E+00  0.00000000000E+00  0.21506006659E+03  0.21506006659E+03  0.00000000000E+00 0. -1.
          1   -1    0    0  501    0  0.00000000000E+00 -0.00000000000E+00 -0.11631883441E+04  0.11631883441E+04  0.00000000000E+00 0. -1.
         36    2    1    2    0    0 -0.28421709430E-13  0.28421709430E-13 -0.94812827750E+03  0.13782484107E+04  0.10003106772E+04 0.  0.
         25    2    3    3    0    0  0.10134904118E+03 -0.98099496980E+02 -0.17947472736E+03  0.26041563084E+03  0.12533947331E+03 0.  0.
         35    2    3    3    0    0 -0.10134904118E+03  0.98099496980E+02 -0.76865355014E+03  0.11178327798E+04  0.79926635365E+03 0.  0.
         22    1    5    5    0    0 -0.40456705820E+01  0.13500491586E+03  0.14506422862E+03  0.19820778285E+03  0.00000000000E+00 0. -1.
         22    1    5    5    0    0 -0.97303370595E+02 -0.36905418879E+02 -0.91371777876E+03  0.91962499699E+03  0.00000000000E+00 0. -1.
          5    1    4    4  502    0  0.60910418899E+02 -0.17372861817E+02 -0.47572657410E+01  0.63691577430E+02  0.47000000000E+01 0. -1.
         -5    1    4    4    0  502  0.40438622278E+02 -0.80726635163E+02 -0.17471746162E+03  0.19672405341E+03  0.47000000000E+01 0. -1.
<mgrwt>
<rscale>  0 0.10003107E+04</rscale>
<asrwt>0</asrwt>
<pdfrwt beam="1">  1        1 0.17895205E+00 0.10003107E+04</pdfrwt>
<pdfrwt beam="2">  1       -1 0.33086165E-01 0.10003107E+04</pdfrwt>
<totfact> 0.10788203E+02</totfact>
</mgrwt>
</event>
<event>
 9    1  0.4296086E-036  0.1000791E+04  0.7818608E-02  0.8680285E-01
          1   -1    0    0  501    0  0.00000000000E+00  0.00000000000E+00  0.33761547350E+03  0.33761547350E+03  0.00000000000E+00 0. -1.
         -1   -1    0    0    0  501 -0.00000000000E+00 -0.00000000000E+00 -0.74165995035E+03  0.74165995035E+03  0.00000000000E+00 0. -1.
         36    2    1    2    0    0  0.14210854715E-13  0.00000000000E+00 -0.40404447685E+03  0.10792754238E+04  0.10007914374E+04 0.  0.
         25    2    3    3    0    0  0.90418229355E+02  0.10747916443E+03 -0.10085781869E+03  0.21270699120E+03  0.12387387751E+03 0.  0.
         35    2    3    3    0    0 -0.90418229355E+02 -0.10747916443E+03 -0.30318665816E+03  0.86656843265E+03  0.79955704724E+03 0.  0.
         22    1    5    5    0    0 -0.39793352366E+03  0.81056971096E+02 -0.30160932718E+03  0.50585522440E+03  0.00000000000E+00 0.  1.
         22    1    5    5    0    0  0.30751529430E+03 -0.18853613553E+03 -0.15773309840E+01  0.36071320825E+03  0.00000000000E+00 0.  1.
          5    1    4    4  502    0  0.16230974333E+02 -0.12988822563E+02 -0.62516216820E+02  0.66049386105E+02  0.47000000000E+01 0. -1.
         -5    1    4    4    0  502  0.74187255022E+02  0.12046798699E+03 -0.38341601866E+02  0.14665760509E+03  0.47000000000E+01 0. -1.
<mgrwt>
<rscale>  0 0.10007914E+04</rscale>
<asrwt>0</asrwt>
<pdfrwt beam="1">  1        1 0.51940842E-01 0.10007914E+04</pdfrwt>
<pdfrwt beam="2">  1       -1 0.11410153E+00 0.10007914E+04</pdfrwt>
<totfact> 0.63186375E+01</totfact>
</mgrwt>
</event>
<event>
 9    1  0.4296086E-036  0.9996125E+03  0.7818608E-02  0.8681407E-01
         -1   -1    0    0    0  501 -0.00000000000E+00  0.00000000000E+00  0.39017527340E+03  0.39017527340E+03  0.00000000000E+00 0.  1.
          1   -1    0    0  501    0  0.00000000000E+00 -0.00000000000E+00 -0.64024119325E+03  0.64024119325E+03  0.00000000000E+00 0.  1.
         36    2    1    2    0    0  0.28421709430E-13  0.00000000000E+00 -0.25006591985E+03  0.10304164667E+04  0.99961249016E+03 0.  0.
         25    2    3    3    0    0  0.80877125683E+02  0.39743726735E+02 -0.14918301153E+03  0.21900317439E+03  0.13261276783E+03 0.  0.
         35    2    3    3    0    0 -0.80877125683E+02 -0.39743726735E+02 -0.10088290832E+03  0.81141329226E+03  0.80005843311E+03 0.  0.
         22    1    5    5    0    0  0.21359825764E+03 -0.19312056785E+03  0.21012970998E+03  0.35647477388E+03  0.00000000000E+00 0. -1.
         22    1    5    5    0    0 -0.29447538332E+03  0.15337684112E+03 -0.31101261829E+03  0.45493851839E+03  0.00000000000E+00 0. -1.
          5    1    4    4  502    0  0.92627884762E+02  0.16705513079E+02 -0.32948099389E+02  0.99833193158E+02  0.47000000000E+01 0.  1.
         -5    1    4    4    0  502 -0.11750759079E+02  0.23038213657E+02 -0.11623491214E+03  0.11916998124E+03  0.47000000000E+01 0.  1.
<mgrwt>
<rscale>  0 0.99961249E+03</rscale>
<asrwt>0</asrwt>
<pdfrwt beam="1">  1        1 0.98498645E-01 0.99961249E+03</pdfrwt>
<pdfrwt beam="2">  1       -1 0.60026965E-01 0.99961249E+03</pdfrwt>
<totfact> 0.10147326E+02</totfact>
</mgrwt>
</event>
<event>
 9    1  0.4296086E-036  0.9989584E+03  0.7818608E-02  0.8682031E-01
         -1   -1    0    0    0  501 -0.00000000000E+00  0.00000000000E+00  0.25273748520E+03  0.25273748520E+03  0.00000000000E+00 0.  1.
          1   -1    0    0  501    0  0.00000000000E+00 -0.00000000000E+00 -0.98710905976E+03  0.98710905976E+03  0.00000000000E+00 0.  1.
         36    2    1    2    0    0 -0.14210854715E-13 -0.28421709430E-13 -0.73437157456E+03  0.12398465450E+04  0.99895838028E+03 0.  0.
         25    2    3    3    0    0  0.81339980184E+02  0.62322772003E+02 -0.24580354587E+03  0.29481115309E+03  0.12646704130E+03 0.  0.
         35    2    3    3    0    0 -0.81339980184E+02 -0.62322772003E+02 -0.48856802868E+03  0.94503539187E+03  0.80242934452E+03 0.  0.
         22    1    5    5    0    0 -0.13837102843E+03 -0.42227059357E+03 -0.27729469144E+03  0.52378558743E+03  0.00000000000E+00 0.  1.
         22    1    5    5    0    0  0.57031048248E+02  0.35994782156E+03 -0.21127333724E+03  0.42124980444E+03  0.00000000000E+00 0.  1.
          5    1    4    4  502    0  0.86526113868E+02 -0.11788038831E+02 -0.14791504042E+03  0.17183327798E+03  0.47000000000E+01 0. -1.
         -5    1    4    4    0  502 -0.51861336835E+01  0.74110810835E+02 -0.97888505452E+02  0.12297787510E+03  0.47000000000E+01 0. -1.
<mgrwt>
<rscale>  0 0.99895838E+03</rscale>
<asrwt>0</asrwt>
<pdfrwt beam="1">  1        1 0.15186293E+00 0.99895838E+03</pdfrwt>
<pdfrwt beam="2">  1       -1 0.38882691E-01 0.99895838E+03</pdfrwt>
<totfact> 0.11131474E+02</totfact>
</mgrwt>
</event>
<event>
 9    1  0.4296086E-036  0.9966858E+03  0.7818608E-02  0.8684201E-01
         -2   -1    0    0    0  501 -0.00000000000E+00  0.00000000000E+00  0.10834311262E+03  0.10834311262E+03  0.00000000000E+00 0. -1.
          2   -1    0    0  501    0  0.00000000000E+00 -0.00000000000E+00 -0.22922142371E+04  0.22922142371E+04  0.00000000000E+00 0. -1.
         36    2    1    2    0    0 -0.28421709430E-13  0.14210854715E-13 -0.21838711245E+04  0.24005573497E+04  0.99668575836E+03 0.  0.
         25    2    3    3    0    0  0.97326807416E+02  0.29084417918E+02 -0.19051777951E+03  0.24995570871E+03  0.12594610435E+03 0.  0.
         35    2    3    3    0    0 -0.97326807416E+02 -0.29084417918E+02 -0.19933533449E+04  0.21506016410E+04  0.80081923651E+03 0.  0.
         22    1    5    5    0    0  0.29553822452E+03 -0.22116519049E+03 -0.96022517857E+03  0.10287318782E+04  0.00000000000E+00 0. -1.
         22    1    5    5    0    0 -0.39286503194E+03  0.19208077257E+03 -0.10331281664E+04  0.11218697628E+04  0.00000000000E+00 0. -1.
          5    1    4    4  502    0  0.80293342677E+02  0.71932378558E+02 -0.94908597262E+02  0.14370462692E+03  0.47000000000E+01 0.  1.
         -5    1    4    4    0  502  0.17033464739E+02 -0.42847960640E+02 -0.95609182248E+02  0.10625108179E+03  0.47000000000E+01 0.  1.
<mgrwt>
<rscale>  0 0.99668576E+03</rscale>
<asrwt>0</asrwt>
<pdfrwt beam="1">  1        2 0.35264833E+00 0.99668576E+03</pdfrwt>
<pdfrwt beam="2">  1       -2 0.16668172E-01 0.99668576E+03</pdfrwt>
<totfact> 0.15521491E+02</totfact>
</mgrwt>
</event>
<event>
 9    1  0.4296086E-036  0.9993176E+03  0.7818608E-02  0.8681688E-01
          1   -1    0    0  501    0  0.00000000000E+00  0.00000000000E+00  0.51662396842E+03  0.51662396842E+03  0.00000000000E+00 0.  1.
         -1   -1    0    0    0  501 -0.00000000000E+00 -0.00000000000E+00 -0.48325076388E+03  0.48325076388E+03  0.00000000000E+00 0.  1.
         36    2    1    2    0    0  0.14210854715E-13 -0.14210854715E-13  0.33373204535E+02  0.99987473230E+03  0.99931762194E+03 0.  0.
         25    2    3    3    0    0 -0.24238193611E+02  0.10715559160E+03  0.93164807922E+02  0.19078164985E+03  0.12509254832E+03 0.  0.
         35    2    3    3    0    0  0.24238193611E+02 -0.10715559160E+03 -0.59791603387E+02  0.80909308245E+03  0.79936648003E+03 0.  0.
         22    1    5    5    0    0 -0.21634629811E+03 -0.32009151748E+02 -0.35745567016E+03  0.41905233877E+03  0.00000000000E+00 0. -1.
         22    1    5    5    0    0  0.24058449172E+03 -0.75146439847E+02  0.29766406677E+03  0.39004074368E+03  0.00000000000E+00 0. -1.
          5    1    4    4  502    0  0.51064261364E+02  0.35367159276E+02  0.32640284854E+02  0.70326900538E+02  0.47000000000E+01 0. -1.
         -5    1    4    4    0  502 -0.75302454976E+02  0.71788432320E+02  0.60524523068E+02  0.12045474932E+03  0.47000000000E+01 0. -1.
<mgrwt>
<rscale>  0 0.99931762E+03</rscale>
<asrwt>0</asrwt>
<pdfrwt beam="1">  1        1 0.79480610E-01 0.99931762E+03</pdfrwt>
<pdfrwt beam="2">  1       -1 0.74346272E-01 0.99931762E+03</pdfrwt>
<totfact> 0.90827618E+01</totfact>
</mgrwt>
</event>
<event>
 9    1  0.4296086E-036  0.1000955E+04  0.7818608E-02  0.8680129E-01
          2   -1    0    0  501    0  0.00000000000E+00  0.00000000000E+00  0.13479661164E+04  0.13479661164E+04  0.00000000000E+00 0. -1.
         -2   -1    0    0    0  501 -0.00000000000E+00 -0.00000000000E+00 -0.18581893931E+03  0.18581893931E+03  0.00000000000E+00 0. -1.
         36    2    1    2    0    0  0.00000000000E+00 -0.56843418861E-13  0.11621471771E+04  0.15337850557E+04  0.10009548121E+04 0.  0.
         25    2    3    3    0    0 -0.12368331834E+01 -0.14115808538E+03  0.21154926435E+03  0.28376670942E+03  0.12587024787E+03 0.  0.
         35    2    3    3    0    0  0.12368331834E+01  0.14115808538E+03  0.95059791271E+03  0.12500183463E+04  0.79936370917E+03 0.  0.
         22    1    5    5    0    0 -0.78103335977E+02  0.46843300645E+03  0.56472320418E+03  0.73786306993E+03  0.00000000000E+00 0.  1.
         22    1    5    5    0    0  0.79340169160E+02 -0.32727492107E+03  0.38587470853E+03  0.51215527634E+03  0.00000000000E+00 0.  1.
          5    1    4    4  502    0 -0.36552070956E+02  0.11376271835E+01  0.74000737705E+02  0.82677368533E+02  0.47000000000E+01 0.  1.
         -5    1    4    4    0  502  0.35315237772E+02 -0.14229571257E+03  0.13754852665E+03  0.20108934088E+03  0.47000000000E+01 0.  1.
<mgrwt>
<rscale>  0 0.10009548E+04</rscale>
<asrwt>0</asrwt>
<pdfrwt beam="1">  1        2 0.20737940E+00 0.10009548E+04</pdfrwt>
<pdfrwt beam="2">  1       -2 0.28587530E-01 0.10009548E+04</pdfrwt>
<totfact> 0.20868870E+02</totfact>
</mgrwt>
</event>
<event>
 9    1  0.4296086E-036  0.9989405E+03  0.7818608E-02  0.8682048E-01
          2   -1    0    0  501    0  0.00000000000E+00  0.00000000000E+00  0.84415047828E+03  0.84415047828E+03  0.00000000000E+00 0.  1.
         -2   -1    0    0    0  501 -0.00000000000E+00 -0.00000000000E+00 -0.29552851188E+03  0.29552851188E+03  0.00000000000E+00 0.  1.
         36    2    1    2    0    0  0.71054273576E-14 -0.28421709430E-13  0.54862196640E+03  0.11396789902E+04  0.99894050804E+03 0.  0.
         25    2    3    3    0    0 -0.45309279238E+02  0.10767986885E+03  0.16406644733E+02  0.17207479958E+03  0.12527040241E+03 0.  0.
         35    2    3    3    0    0  0.45309279238E+02 -0.10767986885E+03  0.53221532166E+03  0.96760419058E+03  0.79959792150E+03 0.  0.
         22    1    5    5    0    0  0.50352147712E+02 -0.42314159428E+03  0.48986857173E+03  0.64927295120E+03  0.00000000000E+00 0.  1.
         22    1    5    5    0    0 -0.50428684742E+01  0.31546172543E+03  0.42346749937E+02  0.31833123938E+03  0.00000000000E+00 0.  1.
          5    1    4    4  502    0 -0.81289526369E+02  0.86171519775E+02 -0.14977592552E+02  0.11949868701E+03  0.47000000000E+01 0.  1.
         -5    1    4    4    0  502  0.35980247131E+02  0.21508349073E+02  0.31384237285E+02  0.52576112574E+02  0.47000000000E+01 0.  1.
<mgrwt>
<rscale>  0 0.99894051E+03</rscale>
<asrwt>0</asrwt>
<pdfrwt beam="1">  1        2 0.12986930E+00 0.99894051E+03</pdfrwt>
<pdfrwt beam="2">  1       -2 0.45465925E-01 0.99894051E+03</pdfrwt>
<totfact> 0.17785287E+02</totfact>
</mgrwt>
</event>
<event>
 9    1  0.4296086E-036  0.1000070E+04  0.7818608E-02  0.8680971E-01
          2   -1    0    0  501    0  0.00000000000E+00  0.00000000000E+00  0.11305169809E+04  0.11305169809E+04  0.00000000000E+00 0.  1.
         -2   -1    0    0    0  501 -0.00000000000E+00 -0.00000000000E+00 -0.22116864462E+03  0.22116864462E+03  0.00000000000E+00 0.  1.
         36    2    1    2    0    0 -0.28421709430E-13  0.14210854715E-13  0.90934833627E+03  0.13516856255E+04  0.10000698143E+04 0.  0.
         25    2    3    3    0    0  0.57276925412E+02 -0.66817151465E+02  0.23071803033E+02  0.15477641277E+03  0.12521282659E+03 0.  0.
         35    2    3    3    0    0 -0.57276925412E+02  0.66817151465E+02  0.88627653324E+03  0.11969092127E+04  0.79960014523E+03 0.  0.
         22    1    5    5    0    0 -0.30767805940E+03  0.21642634050E+03  0.15003353758E+03  0.40498914985E+03  0.00000000000E+00 0. -1.
         22    1    5    5    0    0  0.25040113398E+03 -0.14960918903E+03  0.73624299566E+03  0.79192006289E+03  0.00000000000E+00 0. -1.
          5    1    4    4  502    0  0.35389732182E+02 -0.90661985572E+02  0.52585705205E+02  0.11072206268E+03  0.47000000000E+01 0.  1.
         -5    1    4    4    0  502  0.21887193230E+02  0.23844834107E+02 -0.29513902171E+02  0.44054350097E+02  0.47000000000E+01 0.  1.
<mgrwt>
<rscale>  0 0.10000698E+04</rscale>
<asrwt>0</asrwt>
<pdfrwt beam="1">  1        2 0.17392569E+00 0.10000698E+04</pdfrwt>
<pdfrwt beam="2">  1       -2 0.34025946E-01 0.10000698E+04</pdfrwt>
<totfact> 0.20346980E+02</totfact>
</mgrwt>
</event>
<event>
 9    1  0.4296086E-036  0.1000174E+04  0.7818608E-02  0.8680872E-01
         -2   -1    0    0    0  501 -0.00000000000E+00  0.00000000000E+00  0.88591859025E+02  0.88591859025E+02  0.00000000000E+00 0. -1.
          2   -1    0    0  501    0  0.00000000000E+00 -0.00000000000E+00 -0.28229121959E+04  0.28229121959E+04  0.00000000000E+00 0. -1.
         36    2    1    2    0    0 -0.14210854715E-13  0.00000000000E+00 -0.27343203368E+04  0.29115040549E+04  0.10001740634E+04 0.  0.
         25    2    3    3    0    0 -0.86703152085E+02  0.34464988216E+02 -0.20827938335E+03  0.26031138513E+03  0.12520560573E+03 0.  0.
         35    2    3    3    0    0  0.86703152085E+02 -0.34464988216E+02 -0.25260409535E+04  0.26511926698E+04  0.79952135774E+03 0.  0.
         22    1    5    5    0    0 -0.55580451020E+02  0.22115516274E+03 -0.22053527875E+04  0.22171106670E+04  0.00000000000E+00 0. -1.
         22    1    5    5    0    0  0.14228360310E+03 -0.25562015096E+03 -0.32068816600E+03  0.43408200274E+03  0.00000000000E+00 0. -1.
          5    1    4    4  502    0 -0.28095997320E+02  0.28802600798E+01 -0.18855420535E+03  0.19071565043E+03  0.47000000000E+01 0.  1.
         -5    1    4    4    0  502 -0.58607154765E+02  0.31584728136E+02 -0.19725177996E+02  0.69595734697E+02  0.47000000000E+01 0.  1.
<mgrwt>
<rscale>  0 0.10001741E+04</rscale>
<asrwt>0</asrwt>
<pdfrwt beam="1">  1        2 0.43429424E+00 0.10001741E+04</pdfrwt>
<pdfrwt beam="2">  1       -2 0.13629515E-01 0.10001741E+04</pdfrwt>
<totfact> 0.10260025E+02</totfact>
</mgrwt>
</event>
<event>
 9    1  0.4296086E-036  0.9984782E+03  0.7818608E-02  0.8682489E-01
         -2   -1    0    0    0  501 -0.00000000000E+00  0.00000000000E+00  0.18575888925E+03  0.18575888925E+03  0.00000000000E+00 0. -1.
          2   -1    0    0  501    0  0.00000000000E+00 -0.00000000000E+00 -0.13417374784E+04  0.13417374784E+04  0.00000000000E+00 0. -1.
         36    2    1    2    0    0  0.28421709430E-13  0.14210854715E-13 -0.11559785892E+04  0.15274963677E+04  0.99847816932E+03 0.  0.
         25    2    3    3    0    0 -0.93001960006E+02 -0.34339809408E+02 -0.35644755621E+03  0.39062039293E+03  0.12530300861E+03 0.  0.
         35    2    3    3    0    0  0.93001960006E+02  0.34339809408E+02 -0.79953103297E+03  0.11368759747E+04  0.80212749746E+03 0.  0.
         22    1    5    5    0    0 -0.33733119995E+03 -0.10915102107E+03 -0.34422144193E+03  0.49416058619E+03  0.00000000000E+00 0.  1.
         22    1    5    5    0    0  0.43033315996E+03  0.14349083048E+03 -0.45530959103E+03  0.64271538855E+03  0.00000000000E+00 0.  1.
          5    1    4    4  502    0 -0.78291486882E+02 -0.55308529578E+02 -0.35117139295E+03  0.36404948508E+03  0.47000000000E+01 0. -1.
         -5    1    4    4    0  502 -0.14710473124E+02  0.20968720169E+02 -0.52761632627E+01  0.26570907848E+02  0.47000000000E+01 0. -1.
<mgrwt>
<rscale>  0 0.99847817E+03</rscale>
<asrwt>0</asrwt>
<pdfrwt beam="1">  1        2 0.20642116E+00 0.99847817E+03</pdfrwt>
<pdfrwt beam="2">  1       -2 0.28578289E-01 0.99847817E+03</pdfrwt>
<totfact> 0.21054348E+02</totfact>
</mgrwt>
</event>
<event>
 9    1  0.4296086E-036  0.1000106E+04  0.7818608E-02  0.8680937E-01
         -2   -1    0    0    0  501 -0.00000000000E+00  0.00000000000E+00  0.24466892334E+03  0.24466892334E+03  0.00000000000E+00 0. -1.
          2   -1    0    0  501    0  0.00000000000E+00 -0.00000000000E+00 -0.10220052716E+04  0.10220052716E+04  0.00000000000E+00 0. -1.
         36    2    1    2    0    0 -0.28421709430E-13 -0.14210854715E-13 -0.77733634827E+03  0.12666741950E+04  0.10001058533E+04 0.  0.
         25    2    3    3    0    0  0.12786064002E+03  0.51939250754E+02 -0.16296752588E+03  0.24778380536E+03  0.12566769939E+03 0.  0.
         35    2    3    3    0    0 -0.12786064002E+03 -0.51939250754E+02 -0.61436882239E+03  0.10188903896E+04  0.80102593407E+03 0.  0.
         22    1    5    5    0    0  0.21197580770E+02  0.27787669100E+03 -0.59430267254E+03  0.65639961869E+03  0.00000000000E+00 0. -1.
         22    1    5    5    0    0 -0.14905822079E+03 -0.32981594176E+03 -0.20066149850E+02  0.36249077091E+03  0.00000000000E+00 0. -1.
          5    1    4    4  502    0  0.10644011830E+03  0.54776012476E+02 -0.45334870234E+02  0.12809079119E+03  0.47000000000E+01 0. -1.
         -5    1    4    4    0  502  0.21420521719E+02 -0.28367617219E+01 -0.11763265565E+03  0.11969301418E+03  0.47000000000E+01 0. -1.
<mgrwt>
<rscale>  0 0.10001059E+04</rscale>
<asrwt>0</asrwt>
<pdfrwt beam="1">  1        2 0.15723158E+00 0.10001059E+04</pdfrwt>
<pdfrwt beam="2">  1       -2 0.37641374E-01 0.10001059E+04</pdfrwt>
<totfact> 0.19618553E+02</totfact>
</mgrwt>
</event>
<event>
 9    1  0.4296086E-036  0.1000633E+04  0.7818608E-02  0.8680435E-01
         -3   -1    0    0    0  501 -0.00000000000E+00  0.00000000000E+00  0.13636889890E+04  0.13636889890E+04  0.00000000000E+00 0. -1.
          3   -1    0    0  501    0  0.00000000000E+00 -0.00000000000E+00 -0.18355852668E+03  0.18355852668E+03  0.00000000000E+00 0. -1.
         36    2    1    2    0    0 -0.14210854715E-13  0.00000000000E+00  0.11801304623E+04  0.15472475157E+04  0.10006332828E+04 0.  0.
         25    2    3    3    0    0  0.37161593089E+02 -0.13381284830E+03  0.24839942726E+03  0.31085598438E+03  0.12506920162E+03 0.  0.
         35    2    3    3    0    0 -0.37161593089E+02  0.13381284830E+03  0.93173103507E+03  0.12363915313E+04  0.80078363783E+03 0.  0.
         22    1    5    5    0    0 -0.27292225894E+03 -0.15096827520E+03  0.10221301772E+03  0.32821560068E+03  0.00000000000E+00 0. -1.
         22    1    5    5    0    0  0.23576066585E+03  0.28478112350E+03  0.82951801736E+03  0.90817593063E+03  0.00000000000E+00 0. -1.
          5    1    4    4  502    0 -0.11462334597E+02 -0.12078982220E+03  0.22383330215E+03  0.25464682094E+03  0.47000000000E+01 0. -1.
         -5    1    4    4    0  502  0.48623927686E+02 -0.13023026098E+02  0.24566125109E+02  0.56209163445E+02  0.47000000000E+01 0. -1.
<mgrwt>
<rscale>  0 0.10006333E+04</rscale>
<asrwt>0</asrwt>
<pdfrwt beam="1">  1        3 0.28239774E-01 0.10006333E+04</pdfrwt>
<pdfrwt beam="2">  1       -3 0.20979830E+00 0.10006333E+04</pdfrwt>
<totfact> 0.41273200E+00</totfact>
</mgrwt>
</event>
<event>
 9    1  0.4296086E-036  0.9996647E+03  0.7818608E-02  0.8681357E-01
         -2   -1    0    0    0  501 -0.00000000000E+00  0.00000000000E+00  0.15300965984E+03  0.15300965984E+03  0.00000000000E+00 0. -1.
          2   -1    0    0  501    0  0.00000000000E+00 -0.00000000000E+00 -0.16327883834E+04  0.16327883834E+04  0.00000000000E+00 0. -1.
         36    2    1    2    0    0  0.14210854715E-13 -0.14210854715E-13 -0.14797787235E+04  0.17857980432E+04  0.99966473405E+03 0.  0.
         25    2    3    3    0    0 -0.97275644822E+02  0.45653187569E+02 -0.11897760557E+03  0.20362783247E+03  0.12554624214E+03 0.  0.
         35    2    3    3    0    0  0.97275644822E+02 -0.45653187569E+02 -0.13608011180E+04  0.15821702107E+04  0.79996007931E+03 0.  0.
         22    1    5    5    0    0 -0.35237747256E+03 -0.14242468743E+02 -0.67351151395E+03  0.76025685824E+03  0.00000000000E+00 0. -1.
         22    1    5    5    0    0  0.44965311738E+03 -0.31410718826E+02 -0.68728960400E+03  0.82191335249E+03  0.00000000000E+00 0. -1.
          5    1    4    4  502    0 -0.66611840972E+02 -0.24668530903E+02 -0.12452469405E+02  0.72269134275E+02  0.47000000000E+01 0.  1.
         -5    1    4    4    0  502 -0.30663803850E+02  0.70321718471E+02 -0.10652513617E+03  0.13135869819E+03  0.47000000000E+01 0.  1.
<mgrwt>
<rscale>  0 0.99966473E+03</rscale>
<asrwt>0</asrwt>
<pdfrwt beam="1">  1        2 0.25119821E+00 0.99966473E+03</pdfrwt>
<pdfrwt beam="2">  1       -2 0.23539948E-01 0.99966473E+03</pdfrwt>
<totfact> 0.20340672E+02</totfact>
</mgrwt>
</event>
<event>
 9    1  0.4296086E-036  0.1000741E+04  0.7818608E-02  0.8680332E-01
         -1   -1    0    0    0  501 -0.00000000000E+00  0.00000000000E+00  0.48687817579E+03  0.48687817579E+03  0.00000000000E+00 0. -1.
          1   -1    0    0  501    0  0.00000000000E+00 -0.00000000000E+00 -0.51423705619E+03  0.51423705619E+03  0.00000000000E+00 0. -1.
         36    2    1    2    0    0  0.00000000000E+00  0.00000000000E+00 -0.27358880400E+02  0.10011152320E+04  0.10007413249E+04 0.  0.
         25    2    3    3    0    0 -0.60295464651E+02  0.73868912442E+02 -0.10758525787E+03  0.19094890192E+03  0.12567711068E+03 0.  0.
         35    2    3    3    0    0  0.60295464651E+02 -0.73868912442E+02  0.80226377474E+02  0.81016633006E+03  0.80052548456E+03 0.  0.
         22    1    5    5    0    0 -0.14491655449E+03 -0.10108160852E+03  0.39540467288E+03  0.43308562050E+03  0.00000000000E+00 0.  1.
         22    1    5    5    0    0  0.20521201914E+03  0.27212696081E+02 -0.31517829540E+03  0.37708070956E+03  0.00000000000E+00 0.  1.
          5    1    4    4  502    0 -0.70864581748E+02  0.84669395362E+01 -0.10161720325E+03  0.12426433120E+03  0.47000000000E+01 0.  1.
         -5    1    4    4    0  502  0.10569117098E+02  0.65401972905E+02 -0.59680546260E+01  0.66684570720E+02  0.47000000000E+01 0.  1.
<mgrwt>
<rscale>  0 0.10007413E+04</rscale>
<asrwt>0</asrwt>
<pdfrwt beam="1">  1        1 0.79113393E-01 0.10007413E+04</pdfrwt>
<pdfrwt beam="2">  1       -1 0.74904335E-01 0.10007413E+04</pdfrwt>
<totfact> 0.90029914E+01</totfact>
</mgrwt>
</event>
<event>
 9    1  0.4296086E-036  0.1000497E+04  0.7818608E-02  0.8680564E-01
         -2   -1    0    0    0  501 -0.00000000000E+00  0.00000000000E+00  0.23404832361E+03  0.23404832361E+03  0.00000000000E+00 0.  1.
          2   -1    0    0  501    0  0.00000000000E+00 -0.00000000000E+00 -0.10692183648E+04  0.10692183648E+04  0.00000000000E+00 0.  1.
         36    2    1    2    0    0  0.00000000000E+00  0.00000000000E+00 -0.83517004116E+03  0.13032666884E+04  0.10004974080E+04 0.  0.
         25    2    3    3    0    0  0.13472184904E+02  0.13546027355E+02 -0.33885222236E+03  0.36152726972E+03  0.12456381310E+03 0.  0.
         35    2    3    3    0    0 -0.13472184904E+02 -0.13546027355E+02 -0.49631781880E+03  0.94173941866E+03  0.80011046786E+03 0.  0.
         22    1    5    5    0    0 -0.10006278320E+03  0.37043771266E+03 -0.35723377135E+03  0.52426389056E+03  0.00000000000E+00 0.  1.
         22    1    5    5    0    0  0.86590598300E+02 -0.38398374002E+03 -0.13908404745E+03  0.41747552811E+03  0.00000000000E+00 0.  1.
          5    1    4    4  502    0  0.51503422393E+02 -0.35756308946E+02 -0.15094385220E+03  0.16351529796E+03  0.47000000000E+01 0.  1.
         -5    1    4    4    0  502 -0.38031237489E+02  0.49302336301E+02 -0.18790837015E+03  0.19801197177E+03  0.47000000000E+01 0.  1.
<mgrwt>
<rscale>  0 0.10004974E+04</rscale>
<asrwt>0</asrwt>
<pdfrwt beam="1">  1        2 0.16449513E+00 0.10004974E+04</pdfrwt>
<pdfrwt beam="2">  1       -2 0.36007434E-01 0.10004974E+04</pdfrwt>
<totfact> 0.19943454E+02</totfact>
</mgrwt>
</event>
<event>
 9    1  0.4296086E-036  0.9995355E+03  0.7818608E-02  0.8681480E-01
         -2   -1    0    0    0  501 -0.00000000000E+00  0.00000000000E+00  0.35675112975E+03  0.35675112975E+03  0.00000000000E+00 0. -1.
          2   -1    0    0  501    0  0.00000000000E+00 -0.00000000000E+00 -0.70011779731E+03  0.70011779731E+03  0.00000000000E+00 0. -1.
         36    2    1    2    0    0  0.21316282073E-13  0.00000000000E+00 -0.34336666756E+03  0.10568689271E+04  0.99953552243E+03 0.  0.
         25    2    3    3    0    0  0.30032390455E+02  0.99971888124E+02  0.22924519412E+02  0.17055861901E+03  0.13292248130E+03 0.  0.
         35    2    3    3    0    0 -0.30032390455E+02 -0.99971888124E+02 -0.36629118697E+03  0.88631030806E+03  0.80030019720E+03 0.  0.
         22    1    5    5    0    0 -0.36296690206E+03 -0.15675303627E+03 -0.37988303354E+03  0.54829518104E+03  0.00000000000E+00 0.  1.
         22    1    5    5    0    0  0.33293451161E+03  0.56781148146E+02  0.13591846575E+02  0.33801512702E+03  0.00000000000E+00 0.  1.
          5    1    4    4  502    0  0.18167411623E+02  0.67572937741E+01  0.64635583770E+02  0.67642919463E+02  0.47000000000E+01 0.  1.
         -5    1    4    4    0  502  0.11864978832E+02  0.93214594350E+02 -0.41711064358E+02  0.10291569954E+03  0.47000000000E+01 0.  1.
<mgrwt>
<rscale>  0 0.99953552E+03</rscale>
<asrwt>0</asrwt>
<pdfrwt beam="1">  1        2 0.10771043E+00 0.99953552E+03</pdfrwt>
<pdfrwt beam="2">  1       -2 0.54884789E-01 0.99953552E+03</pdfrwt>
<totfact> 0.15480297E+02</totfact>
</mgrwt>
</event>
<event>
 9    1  0.4296086E-036  0.1000424E+04  0.7818608E-02  0.8680634E-01
         -1   -1    0    0    0  501 -0.00000000000E+00  0.00000000000E+00  0.19674064356E+03  0.19674064356E+03  0.00000000000E+00 0. -1.
          1   -1    0    0  501    0  0.00000000000E+00 -0.00000000000E+00 -0.12717865921E+04  0.12717865921E+04  0.00000000000E+00 0. -1.
         36    2    1    2    0    0  0.14210854715E-13  0.00000000000E+00 -0.10750459486E+04  0.14685272357E+04  0.10004241353E+04 0.  0.
         25    2    3    3    0    0 -0.39513132562E+02 -0.10845866506E+03 -0.31967011465E+03  0.36218628500E+03  0.12516130860E+03 0.  0.
         35    2    3    3    0    0  0.39513132562E+02  0.10845866506E+03 -0.75537583393E+03  0.11063409507E+04  0.80004567309E+03 0.  0.
         22    1    5    5    0    0  0.33035334600E+03 -0.12845662739E+03 -0.60705924803E+03  0.70296185455E+03  0.00000000000E+00 0.  1.
         22    1    5    5    0    0 -0.29084021344E+03  0.23691529245E+03 -0.14831658590E+03  0.40337909614E+03  0.00000000000E+00 0.  1.
          5    1    4    4  502    0 -0.43622565585E+02  0.80851822430E+01 -0.14816750314E+03  0.15473848063E+03  0.47000000000E+01 0.  1.
         -5    1    4    4    0  502  0.41094330232E+01 -0.11654384730E+03 -0.17150261151E+03  0.20744780437E+03  0.47000000000E+01 0.  1.
<mgrwt>
<rscale>  0 0.10004241E+04</rscale>
<asrwt>0</asrwt>
<pdfrwt beam="1">  1        1 0.19565946E+00 0.10004241E+04</pdfrwt>
<pdfrwt beam="2">  1       -1 0.30267793E-01 0.10004241E+04</pdfrwt>
<totfact> 0.10441281E+02</totfact>
</mgrwt>
</event>
<event>
 9    1  0.4296086E-036  0.9999882E+03  0.7818608E-02  0.8681049E-01
          1   -1    0    0  501    0  0.00000000000E+00  0.00000000000E+00  0.61016369484E+03  0.61016369484E+03  0.00000000000E+00 0.  1.
         -1   -1    0    0    0  501 -0.00000000000E+00 -0.00000000000E+00 -0.40971643038E+03  0.40971643038E+03  0.00000000000E+00 0.  1.
         36    2    1    2    0    0 -0.56843418861E-13  0.00000000000E+00  0.20044726446E+03  0.10198801252E+04  0.99998818192E+03 0.  0.
         25    2    3    3    0    0 -0.12906847761E+03 -0.50515976977E+02  0.48115773492E+02  0.19399859036E+03  0.12692434581E+03 0.  0.
         35    2    3    3    0    0  0.12906847761E+03  0.50515976977E+02  0.15233149097E+03  0.82588153485E+03  0.79979052922E+03 0.  0.
         22    1    5    5    0    0 -0.29556551973E+03 -0.15588870935E+03  0.11022811525E+03  0.35186716747E+03  0.00000000000E+00 0. -1.
         22    1    5    5    0    0  0.42463399734E+03  0.20640468633E+03  0.42103375720E+02  0.47401436738E+03  0.00000000000E+00 0. -1.
          5    1    4    4  502    0 -0.11305915632E+02 -0.51731104355E+02  0.54278713865E+02  0.75974993682E+02  0.47000000000E+01 0.  1.
         -5    1    4    4    0  502 -0.11776256198E+03  0.12151273785E+01 -0.61629403729E+01  0.11802359668E+03  0.47000000000E+01 0.  1.
<mgrwt>
<rscale>  0 0.99998818E+03</rscale>
<asrwt>0</asrwt>
<pdfrwt beam="1">  1        1 0.93871338E-01 0.99998818E+03</pdfrwt>
<pdfrwt beam="2">  1       -1 0.63033297E-01 0.99998818E+03</pdfrwt>
<totfact> 0.99163152E+01</totfact>
</mgrwt>
</event>
<event>
 9    1  0.4296086E-036  0.9992430E+03  0.7818608E-02  0.8681759E-01
          1   -1    0    0  501    0  0.00000000000E+00  0.00000000000E+00  0.14803116290E+04  0.14803116290E+04  0.00000000000E+00 0.  1.
         -1   -1    0    0    0  501 -0.00000000000E+00 -0.00000000000E+00 -0.16862775092E+03  0.16862775092E+03  0.00000000000E+00 0.  1.
         36    2    1    2    0    0  0.28421709430E-13 -0.31974423109E-13  0.13116838780E+04  0.16489393799E+04  0.99924295475E+03 0.  0.
         25    2    3    3    0    0 -0.13441196846E+03  0.16524819001E+02  0.19966565359E+03  0.27165399074E+03  0.12485940314E+03 0.  0.
         35    2    3    3    0    0  0.13441196846E+03 -0.16524819001E+02  0.11120182244E+04  0.13772853891E+04  0.80124332429E+03 0.  0.
         22    1    5    5    0    0  0.11182171709E+03  0.38636189270E+03  0.64447856394E+03  0.75969219288E+03  0.00000000000E+00 0.  1.
         22    1    5    5    0    0  0.22590251370E+02 -0.40288671170E+03  0.46753966051E+03  0.61759319626E+03  0.00000000000E+00 0.  1.
          5    1    4    4  502    0  0.14419438804E+01 -0.13964615436E+02 -0.11449882867E+02  0.18715755504E+02  0.47000000000E+01 0.  1.
         -5    1    4    4    0  502 -0.13585391234E+03  0.30489434437E+02  0.21111553646E+03  0.25293823523E+03  0.47000000000E+01 0.  1.
<mgrwt>
<rscale>  0 0.99924295E+03</rscale>
<asrwt>0</asrwt>
<pdfrwt beam="1">  1        1 0.22774024E+00 0.99924295E+03</pdfrwt>
<pdfrwt beam="2">  1       -1 0.25942732E-01 0.99924295E+03</pdfrwt>
<totfact> 0.95917980E+01</totfact>
</mgrwt>
</event>
<event>
 9    1  0.4296086E-036  0.1001707E+04  0.7818608E-02  0.8679414E-01
         -1   -1    0    0    0  501 -0.00000000000E+00  0.00000000000E+00  0.91621843244E+03  0.91621843244E+03  0.00000000000E+00 0.  1.
          1   -1    0    0  501    0  0.00000000000E+00 -0.00000000000E+00 -0.27379330200E+03  0.27379330200E+03  0.00000000000E+00 0.  1.
         36    2    1    2    0    0  0.00000000000E+00  0.00000000000E+00  0.64242513044E+03  0.11900117344E+04  0.10017074822E+04 0.  0.
         25    2    3    3    0    0  0.10994037012E+03  0.59167031605E+02  0.39508219372E+02  0.18031679165E+03  0.12395815157E+03 0.  0.
         35    2    3    3    0    0 -0.10994037012E+03 -0.59167031605E+02  0.60291691107E+03  0.10096949428E+04  0.80024212165E+03 0.  0.
         22    1    5    5    0    0 -0.31718414019E+03 -0.84103823246E+02 -0.42941106310E+02  0.33094285078E+03  0.00000000000E+00 0. -1.
         22    1    5    5    0    0  0.20724377007E+03  0.24936791641E+02  0.64585801738E+03  0.67875209202E+03  0.00000000000E+00 0. -1.
          5    1    4    4  502    0  0.52344492131E+02  0.66786529020E+01  0.77198231757E+02  0.93628025972E+02  0.47000000000E+01 0. -1.
         -5    1    4    4    0  502  0.57595877993E+02  0.52488378703E+02 -0.37690012384E+02  0.86688765675E+02  0.47000000000E+01 0. -1.
<mgrwt>
<rscale>  0 0.10017075E+04</rscale>
<asrwt>0</asrwt>
<pdfrwt beam="1">  1        1 0.42122047E-01 0.10017075E+04</pdfrwt>
<pdfrwt beam="2">  1       -1 0.14095668E+00 0.10017075E+04</pdfrwt>
<totfact> 0.48274116E+01</totfact>
</mgrwt>
</event>
<event>
 9    1  0.4296086E-036  0.9997803E+03  0.7818608E-02  0.8681247E-01
         -2   -1    0    0    0  501 -0.00000000000E+00  0.00000000000E+00  0.21608658578E+03  0.21608658578E+03  0.00000000000E+00 0. -1.
          2   -1    0    0  501    0  0.00000000000E+00 -0.00000000000E+00 -0.11564353103E+04  0.11564353103E+04  0.00000000000E+00 0. -1.
         36    2    1    2    0    0 -0.21316282073E-13  0.28421709430E-13 -0.94034872448E+03  0.13725218960E+04  0.99978029159E+03 0.  0.
         25    2    3    3    0    0  0.60384768537E+02  0.98897317626E+02 -0.28587784757E+03  0.33253884311E+03  0.12421327923E+03 0.  0.
         35    2    3    3    0    0 -0.60384768537E+02 -0.98897317626E+02 -0.65447087691E+03  0.10399830529E+04  0.79987850449E+03 0.  0.
         22    1    5    5    0    0 -0.28637297210E+03 -0.33221154551E+03 -0.20172215107E+03  0.48276890574E+03  0.00000000000E+00 0.  1.
         22    1    5    5    0    0  0.22598820356E+03  0.23331422788E+03 -0.45274872584E+03  0.55721414719E+03  0.00000000000E+00 0.  1.
          5    1    4    4  502    0 -0.29774584648E+02  0.68095495123E+02 -0.12355103227E+03  0.14425834438E+03  0.47000000000E+01 0. -1.
         -5    1    4    4    0  502  0.90159353185E+02  0.30801822503E+02 -0.16232681530E+03  0.18828049873E+03  0.47000000000E+01 0. -1.
<mgrwt>
<rscale>  0 0.99978029E+03</rscale>
<asrwt>0</asrwt>
<pdfrwt beam="1">  1        2 0.17791312E+00 0.99978029E+03</pdfrwt>
<pdfrwt beam="2">  1       -2 0.33244090E-01 0.99978029E+03</pdfrwt>
<totfact> 0.20497101E+02</totfact>
</mgrwt>
</event>
<event>
 9    1  0.4296086E-036  0.9940675E+03  0.7818608E-02  0.8686708E-01
          2   -1    0    0  501    0  0.00000000000E+00  0.00000000000E+00  0.44245734213E+04  0.44245734213E+04  0.00000000000E+00 0. -1.
         -2   -1    0    0    0  501 -0.00000000000E+00 -0.00000000000E+00 -0.55834209807E+02  0.55834209807E+02  0.00000000000E+00 0. -1.
         36    2    1    2    0    0  0.00000000000E+00  0.14210854715E-13  0.43687392115E+04  0.44804076311E+04  0.99406752428E+03 0.  0.
         25    2    3    3    0    0  0.79481730568E+02  0.10657161394E+03  0.70745532262E+03  0.73030433183E+03  0.12319305655E+03 0.  0.
         35    2    3    3    0    0 -0.79481730568E+02 -0.10657161394E+03  0.36612838888E+04  0.37501032993E+04  0.80037502834E+03 0.  0.
         22    1    5    5    0    0  0.15705331792E+03 -0.12916015707E+03  0.21607191860E+03  0.29670720391E+03  0.00000000000E+00 0.  1.
         22    1    5    5    0    0 -0.23653504849E+03  0.22588543125E+02  0.34452119702E+04  0.34533960953E+04  0.00000000000E+00 0.  1.
          5    1    4    4  502    0  0.48355071795E+02  0.87891431096E+02  0.67159219855E+03  0.67905911950E+03  0.47000000000E+01 0.  1.
         -5    1    4    4    0  502  0.31126658773E+02  0.18680182843E+02  0.35863124074E+02  0.51245212321E+02  0.47000000000E+01 0.  1.
<mgrwt>
<rscale>  0 0.99406752E+03</rscale>
<asrwt>0</asrwt>
<pdfrwt beam="1">  1        2 0.68070333E+00 0.99406752E+03</pdfrwt>
<pdfrwt beam="2">  1       -2 0.85898819E-02 0.99406752E+03</pdfrwt>
<totfact> 0.11631415E+01</totfact>
</mgrwt>
</event>
<event>
 9    1  0.4296086E-036  0.1000002E+04  0.7818608E-02  0.8681036E-01
          2   -1    0    0  501    0  0.00000000000E+00  0.00000000000E+00  0.20995610600E+04  0.20995610600E+04  0.00000000000E+00 0.  1.
         -2   -1    0    0    0  501 -0.00000000000E+00 -0.00000000000E+00 -0.11907288136E+03  0.11907288136E+03  0.00000000000E+00 0.  1.
         36    2    1    2    0    0 -0.14210854715E-13  0.00000000000E+00  0.19804881787E+04  0.22186339414E+04  0.10000015700E+04 0.  0.
         25    2    3    3    0    0  0.49950134001E+02  0.13045955127E+03  0.40265319122E+03  0.44413602902E+03  0.12495002789E+03 0.  0.
         35    2    3    3    0    0 -0.49950134001E+02 -0.13045955127E+03  0.15778349874E+04  0.17744979124E+04  0.79985303837E+03 0.  0.
         22    1    5    5    0    0 -0.33050406730E+03 -0.35947962923E+02  0.13774720185E+04  0.14170230613E+04  0.00000000000E+00 0. -1.
         22    1    5    5    0    0  0.28055393330E+03 -0.94511588352E+02  0.20036296897E+03  0.35747485108E+03  0.00000000000E+00 0. -1.
          5    1    4    4  502    0  0.61335222939E+02  0.22126624373E+02  0.23676964140E+03  0.24562888708E+03  0.47000000000E+01 0. -1.
         -5    1    4    4    0  502 -0.11385088938E+02  0.10833292690E+03  0.16588354983E+03  0.19850714195E+03  0.47000000000E+01 0. -1.
<mgrwt>
<rscale>  0 0.10000016E+04</rscale>
<asrwt>0</asrwt>
<pdfrwt beam="1">  1        2 0.32300937E+00 0.10000016E+04</pdfrwt>
<pdfrwt beam="2">  1       -2 0.18318906E-01 0.10000016E+04</pdfrwt>
<totfact> 0.17102364E+02</totfact>
</mgrwt>
</event>
<event>
 9    1  0.4296086E-036  0.1000088E+04  0.7818608E-02  0.8680954E-01
          1   -1    0    0  501    0  0.00000000000E+00  0.00000000000E+00  0.34356717821E+04  0.34356717821E+04  0.00000000000E+00 0.  1.
         -1   -1    0    0    0  501 -0.00000000000E+00 -0.00000000000E+00 -0.72778828035E+02  0.72778828035E+02  0.00000000000E+00 0.  1.
         36    2    1    2    0    0  0.00000000000E+00  0.28421709430E-13  0.33628929541E+04  0.35084506102E+04  0.10000883277E+04 0.  0.
         25    2    3    3    0    0  0.11448076168E+03  0.62703205193E+02  0.44544126323E+03  0.48058468486E+03  0.12452382744E+03 0.  0.
         35    2    3    3    0    0 -0.11448076168E+03 -0.62703205193E+02  0.29174516909E+04  0.30278659253E+04  0.79963126274E+03 0.  0.
         22    1    5    5    0    0 -0.30283136492E+02 -0.43083083118E+03  0.16185303483E+04  0.16751635031E+04  0.00000000000E+00 0. -1.
         22    1    5    5    0    0 -0.84197625184E+02  0.36812762599E+03  0.12989213425E+04  0.13527024223E+04  0.00000000000E+00 0. -1.
          5    1    4    4  502    0  0.35712624274E+02  0.58582436270E+02  0.34993880959E+03  0.35663223891E+03  0.47000000000E+01 0.  1.
         -5    1    4    4    0  502  0.78768137402E+02  0.41207689234E+01  0.95502453638E+02  0.12395244595E+03  0.47000000000E+01 0.  1.
<mgrwt>
<rscale>  0 0.10000883E+04</rscale>
<asrwt>0</asrwt>
<pdfrwt beam="1">  1        1 0.52856476E+00 0.10000883E+04</pdfrwt>
<pdfrwt beam="2">  1       -1 0.11196745E-01 0.10000883E+04</pdfrwt>
<totfact> 0.15310116E+01</totfact>
</mgrwt>
</event>
<event>
 9    1  0.4296086E-036  0.1000454E+04  0.7818608E-02  0.8680605E-01
         -2   -1    0    0    0  501 -0.00000000000E+00  0.00000000000E+00  0.14190697769E+03  0.14190697769E+03  0.00000000000E+00 0.  1.
          2   -1    0    0  501    0  0.00000000000E+00 -0.00000000000E+00 -0.17633192154E+04  0.17633192154E+04  0.00000000000E+00 0.  1.
         36    2    1    2    0    0 -0.17763568394E-14 -0.56843418861E-13 -0.16214122377E+04  0.19052261931E+04  0.10004544978E+04 0.  0.
         25    2    3    3    0    0  0.62106915053E+00  0.13706084762E+03 -0.25319720617E+03  0.31395791267E+03  0.12519857841E+03 0.  0.
         35    2    3    3    0    0 -0.62106915053E+00 -0.13706084762E+03 -0.13682150315E+04  0.15912682804E+04  0.80083475580E+03 0.  0.
         22    1    5    5    0    0  0.10142672615E+02 -0.43649236768E+03 -0.11203116816E+04  0.12023837677E+04  0.00000000000E+00 0.  1.
         22    1    5    5    0    0 -0.10763741765E+02  0.29943152006E+03 -0.24790334991E+03  0.38888451273E+03  0.00000000000E+00 0.  1.
          5    1    4    4  502    0  0.31661075142E+02  0.40270130958E+02 -0.18362090307E+03  0.19069041185E+03  0.47000000000E+01 0. -1.
         -5    1    4    4    0  502 -0.31040005992E+02  0.96790716666E+02 -0.69576303098E+02  0.12326750082E+03  0.47000000000E+01 0. -1.
<mgrwt>
<rscale>  0 0.10004545E+04</rscale>
<asrwt>0</asrwt>
<pdfrwt beam="1">  1        2 0.27127988E+00 0.10004545E+04</pdfrwt>
<pdfrwt beam="2">  1       -2 0.21831843E-01 0.10004545E+04</pdfrwt>
<totfact> 0.19597476E+02</totfact>
</mgrwt>
</event>
<event>
 9    1  0.4296086E-036  0.9998231E+03  0.7818608E-02  0.8681206E-01
         -2   -1    0    0    0  501 -0.00000000000E+00  0.00000000000E+00  0.16933747840E+03  0.16933747840E+03  0.00000000000E+00 0.  1.
          2   -1    0    0  501    0  0.00000000000E+00 -0.00000000000E+00 -0.14758196164E+04  0.14758196164E+04  0.00000000000E+00 0.  1.
         36    2    1    2    0    0  0.00000000000E+00 -0.71054273576E-14 -0.13064821380E+04  0.16451570948E+04  0.99982312917E+03 0.  0.
         25    2    3    3    0    0  0.10133273327E+03  0.14374234087E+02 -0.88101238776E+02  0.18376055367E+03  0.12462412035E+03 0.  0.
         35    2    3    3    0    0 -0.10133273327E+03 -0.14374234087E+02 -0.12183808992E+04  0.14613965411E+04  0.80047042005E+03 0.  0.
         22    1    5    5    0    0  0.32817598866E+03  0.13065303521E+03 -0.51009111363E+03  0.62045357550E+03  0.00000000000E+00 0.  1.
         22    1    5    5    0    0 -0.42950872193E+03 -0.14502726930E+03 -0.70828978555E+03  0.84094296558E+03  0.00000000000E+00 0.  1.
          5    1    4    4  502    0  0.78363487854E+02 -0.31652339724E+02 -0.99735458604E+02  0.13081268494E+03  0.47000000000E+01 0.  1.
         -5    1    4    4    0  502  0.22969245418E+02  0.46026573810E+02  0.11634219829E+02  0.52947868728E+02  0.47000000000E+01 0.  1.
<mgrwt>
<rscale>  0 0.99982313E+03</rscale>
<asrwt>0</asrwt>
<pdfrwt beam="1">  1        2 0.22704916E+00 0.99982313E+03</pdfrwt>
<pdfrwt beam="2">  1       -2 0.26051921E-01 0.99982313E+03</pdfrwt>
<totfact> 0.20844536E+02</totfact>
</mgrwt>
</event>
<event>
 9    1  0.4296086E-036  0.1000445E+04  0.7818608E-02  0.8680614E-01
          2   -1    0    0  501    0  0.00000000000E+00  0.00000000000E+00  0.17303541504E+04  0.17303541504E+04  0.00000000000E+00 0. -1.
         -2   -1    0    0    0  501 -0.00000000000E+00 -0.00000000000E+00 -0.14460784304E+03  0.14460784304E+03  0.00000000000E+00 0. -1.
         36    2    1    2    0    0 -0.14210854715E-13 -0.71054273576E-14  0.15857463073E+04  0.18749619934E+04  0.10004454635E+04 0.  0.
         25    2    3    3    0    0 -0.32270577275E+02 -0.28333799969E+02  0.55614396649E+03  0.57114846764E+03  0.12276101270E+03 0.  0.
         35    2    3    3    0    0  0.32270577275E+02  0.28333799969E+02  0.10296023408E+04  0.13038135258E+04  0.79875186094E+03 0.  0.
         22    1    5    5    0    0 -0.25252039438E+03 -0.12454577152E+03  0.68447874098E+02  0.28976423218E+03  0.00000000000E+00 0.  1.
         22    1    5    5    0    0  0.28479097165E+03  0.15287957149E+03  0.96115446673E+03  0.10140492936E+04  0.00000000000E+00 0.  1.
          5    1    4    4  502    0  0.44718436727E+02 -0.16258262386E+02  0.28521699190E+03  0.28919697811E+03  0.47000000000E+01 0.  1.
         -5    1    4    4    0  502 -0.76989014002E+02 -0.12075537583E+02  0.27092697459E+03  0.28195148953E+03  0.47000000000E+01 0.  1.
<mgrwt>
<rscale>  0 0.10004455E+04</rscale>
<asrwt>0</asrwt>
<pdfrwt beam="1">  1        2 0.26620832E+00 0.10004455E+04</pdfrwt>
<pdfrwt beam="2">  1       -2 0.22247362E-01 0.10004455E+04</pdfrwt>
<totfact> 0.19790592E+02</totfact>
</mgrwt>
</event>
<event>
 9    1  0.4296086E-036  0.9997902E+03  0.7818608E-02  0.8681238E-01
         -2   -1    0    0    0  501 -0.00000000000E+00  0.00000000000E+00  0.75326724805E+03  0.75326724805E+03  0.00000000000E+00 0.  1.
          2   -1    0    0  501    0  0.00000000000E+00 -0.00000000000E+00 -0.33174824961E+03  0.33174824961E+03  0.00000000000E+00 0.  1.
         36    2    1    2    0    0  0.00000000000E+00  0.00000000000E+00  0.42151899844E+03  0.10850154977E+04  0.99979016003E+03 0.  0.
         25    2    3    3    0    0 -0.20303483931E+02  0.12382593046E+03  0.13056005979E+03  0.21989178213E+03  0.12474523688E+03 0.  0.
         35    2    3    3    0    0  0.20303483931E+02 -0.12382593046E+03  0.29095893865E+03  0.86512371552E+03  0.80500735814E+03 0.  0.
         22    1    5    5    0    0 -0.27558765895E+03  0.22567393902E+03  0.11088998249E+03  0.37306014628E+03  0.00000000000E+00 0.  1.
         22    1    5    5    0    0  0.29589114289E+03 -0.34949986948E+03  0.18006895617E+03  0.49206356925E+03  0.00000000000E+00 0.  1.
          5    1    4    4  502    0 -0.36289869300E+02  0.74621840152E+02  0.41398634934E+01  0.83214194169E+02  0.47000000000E+01 0.  1.
         -5    1    4    4    0  502  0.15986385369E+02  0.49204090305E+02  0.12642019630E+03  0.13667758796E+03  0.47000000000E+01 0.  1.
<mgrwt>
<rscale>  0 0.99979016E+03</rscale>
<asrwt>0</asrwt>
<pdfrwt beam="1">  1        2 0.51038193E-01 0.99979016E+03</pdfrwt>
<pdfrwt beam="2">  1       -2 0.11588727E+00 0.99979016E+03</pdfrwt>
<totfact> 0.66509782E+01</totfact>
</mgrwt>
</event>
<event>
 9    1  0.4296086E-036  0.9999460E+03  0.7818608E-02  0.8681089E-01
         -1   -1    0    0    0  501 -0.00000000000E+00  0.00000000000E+00  0.28649384668E+03  0.28649384668E+03  0.00000000000E+00 0. -1.
          1   -1    0    0  501    0  0.00000000000E+00 -0.00000000000E+00 -0.87252491572E+03  0.87252491572E+03  0.00000000000E+00 0. -1.
         36    2    1    2    0    0 -0.14210854715E-13  0.00000000000E+00 -0.58603106904E+03  0.11590187624E+04  0.99994603741E+03 0.  0.
         25    2    3    3    0    0 -0.12333047556E+03 -0.65383309109E+02 -0.10038971861E+03  0.21282909008E+03  0.12543023029E+03 0.  0.
         35    2    3    3    0    0  0.12333047556E+03  0.65383309109E+02 -0.48564135043E+03  0.94618967233E+03  0.79996374384E+03 0.  0.
         22    1    5    5    0    0  0.35298018129E+03  0.30133531942E+03 -0.38170816142E+03  0.60091522165E+03  0.00000000000E+00 0.  1.
         22    1    5    5    0    0 -0.22964970574E+03 -0.23595201031E+03 -0.10393318900E+03  0.34527445068E+03  0.00000000000E+00 0.  1.
          5    1    4    4  502    0 -0.38953581124E+02 -0.76135377837E+02 -0.62677357698E+01  0.85879868144E+02  0.47000000000E+01 0.  1.
         -5    1    4    4    0  502 -0.84376894433E+02  0.10752068728E+02 -0.94121982839E+02  0.12694922193E+03  0.47000000000E+01 0.  1.
<mgrwt>
<rscale>  0 0.99994604E+03</rscale>
<asrwt>0</asrwt>
<pdfrwt beam="1">  1        1 0.13423460E+00 0.99994604E+03</pdfrwt>
<pdfrwt beam="2">  1       -1 0.44075977E-01 0.99994604E+03</pdfrwt>
<totfact> 0.11042647E+02</totfact>
</mgrwt>
</event>
<event>
 9    1  0.4296086E-036  0.9992976E+03  0.7818608E-02  0.8681707E-01
          1   -1    0    0  501    0  0.00000000000E+00  0.00000000000E+00  0.13178941223E+04  0.13178941223E+04  0.00000000000E+00 0.  1.
         -1   -1    0    0    0  501 -0.00000000000E+00 -0.00000000000E+00 -0.18943016886E+03  0.18943016886E+03  0.00000000000E+00 0.  1.
         36    2    1    2    0    0  0.00000000000E+00  0.35527136788E-14  0.11284639535E+04  0.15073242912E+04  0.99929756557E+03 0.  0.
         25    2    3    3    0    0 -0.27263748331E+02  0.25357108697E+02  0.90217472034E+01  0.13070942298E+03  0.12496906177E+03 0.  0.
         35    2    3    3    0    0  0.27263748331E+02 -0.25357108697E+02  0.11194422063E+04  0.13766148682E+04  0.80033202315E+03 0.  0.
         22    1    5    5    0    0 -0.20018574280E+03 -0.11110107997E+03  0.11099906226E+04  0.11333565034E+04  0.00000000000E+00 0. -1.
         22    1    5    5    0    0  0.22744949113E+03  0.85743971269E+02  0.94515837081E+01  0.24325836483E+03  0.00000000000E+00 0. -1.
          5    1    4    4  502    0  0.14635622763E+02  0.10736351784E+02  0.60056818251E+02  0.62915674690E+02  0.47000000000E+01 0.  1.
         -5    1    4    4    0  502 -0.41899371094E+02  0.14620756913E+02 -0.51035071048E+02  0.67793748293E+02  0.47000000000E+01 0.  1.
<mgrwt>
<rscale>  0 0.99929757E+03</rscale>
<asrwt>0</asrwt>
<pdfrwt beam="1">  1        1 0.20275294E+00 0.99929757E+03</pdfrwt>
<pdfrwt beam="2">  1       -1 0.29143104E-01 0.99929757E+03</pdfrwt>
<totfact> 0.10307883E+02</totfact>
</mgrwt>
</event>
<event>
 9    1  0.4296086E-036  0.1000441E+04  0.7818608E-02  0.8680618E-01
         -1   -1    0    0    0  501 -0.00000000000E+00  0.00000000000E+00  0.13835054910E+04  0.13835054910E+04  0.00000000000E+00 0. -1.
          1   -1    0    0  501    0  0.00000000000E+00 -0.00000000000E+00 -0.18085997713E+03  0.18085997713E+03  0.00000000000E+00 0. -1.
         36    2    1    2    0    0 -0.14210854715E-13  0.00000000000E+00  0.12026455139E+04  0.15643654682E+04  0.10004414455E+04 0.  0.
         25    2    3    3    0    0  0.35181907538E+02 -0.12229164622E+03  0.32267205452E+03  0.36881533350E+03  0.12535741742E+03 0.  0.
         35    2    3    3    0    0 -0.35181907538E+02  0.12229164622E+03  0.87997345938E+03  0.11955501347E+04  0.79924578319E+03 0.  0.
         22    1    5    5    0    0  0.19176884598E+03 -0.25028498759E+03  0.59819162409E+03  0.67620343420E+03  0.00000000000E+00 0. -1.
         22    1    5    5    0    0 -0.22695075352E+03  0.37257663381E+03  0.28178183530E+03  0.51934670047E+03  0.00000000000E+00 0. -1.
          5    1    4    4  502    0  0.53314595111E+02 -0.63353108270E+01  0.57589145051E+02  0.78874468891E+02  0.47000000000E+01 0. -1.
         -5    1    4    4    0  502 -0.18132687573E+02 -0.11595633540E+03  0.26508290947E+03  0.28994086461E+03  0.47000000000E+01 0. -1.
<mgrwt>
<rscale>  0 0.10004414E+04</rscale>
<asrwt>0</asrwt>
<pdfrwt beam="1">  1        1 0.27824613E-01 0.10004414E+04</pdfrwt>
<pdfrwt beam="2">  1       -1 0.21284699E+00 0.10004414E+04</pdfrwt>
<totfact> 0.20509030E+01</totfact>
</mgrwt>
</event>
<event>
 9    1  0.4296086E-036  0.9957386E+03  0.7818608E-02  0.8685107E-01
         -2   -1    0    0    0  501 -0.00000000000E+00  0.00000000000E+00  0.13483934680E+03  0.13483934680E+03  0.00000000000E+00 0. -1.
          2   -1    0    0  501    0  0.00000000000E+00 -0.00000000000E+00 -0.18382901800E+04  0.18382901800E+04  0.00000000000E+00 0. -1.
         36    2    1    2    0    0 -0.28421709430E-13 -0.21316282073E-13 -0.17034508332E+04  0.19731295268E+04  0.99573861449E+03 0.  0.
         25    2    3    3    0    0  0.13225578198E+03  0.29969740491E+01 -0.38770142634E+03  0.42816073910E+03  0.12453372556E+03 0.  0.
         35    2    3    3    0    0 -0.13225578198E+03 -0.29969740491E+01 -0.13157494069E+04  0.15449687877E+04  0.79889391009E+03 0.  0.
         22    1    5    5    0    0  0.29453773977E+03 -0.13534159481E+03 -0.32948549037E+03  0.46220181284E+03  0.00000000000E+00 0.  1.
         22    1    5    5    0    0 -0.42679352175E+03  0.13234462076E+03 -0.98626391651E+03  0.10827669749E+04  0.00000000000E+00 0.  1.
          5    1    4    4  502    0  0.20539434064E+02 -0.40199056080E+02 -0.40425979712E+02  0.60779785267E+02  0.47000000000E+01 0.  1.
         -5    1    4    4    0  502  0.11171634792E+03  0.43196030129E+02 -0.34727544663E+03  0.36738095384E+03  0.47000000000E+01 0.  1.
<mgrwt>
<rscale>  0 0.99573861E+03</rscale>
<asrwt>0</asrwt>
<pdfrwt beam="1">  1        2 0.28281385E+00 0.99573861E+03</pdfrwt>
<pdfrwt beam="2">  1       -2 0.20744517E-01 0.99573861E+03</pdfrwt>
<totfact> 0.19432868E+02</totfact>
</mgrwt>
</event>
<event>
 9    1  0.4296086E-036  0.9981373E+03  0.7818608E-02  0.8682814E-01
         -1   -1    0    0    0  501 -0.00000000000E+00  0.00000000000E+00  0.43649870685E+03  0.43649870685E+03  0.00000000000E+00 0.  1.
          1   -1    0    0  501    0  0.00000000000E+00 -0.00000000000E+00 -0.57060770714E+03  0.57060770714E+03  0.00000000000E+00 0.  1.
         36    2    1    2    0    0  0.00000000000E+00  0.88817841970E-14 -0.13410900028E+03  0.10071064140E+04  0.99813731778E+03 0.  0.
         25    2    3    3    0    0 -0.76780000981E+02 -0.50629413703E+01 -0.13979079075E+03  0.20354447403E+03  0.12636489150E+03 0.  0.
         35    2    3    3    0    0  0.76780000981E+02  0.50629413703E+01  0.56817904629E+01  0.80356193996E+03  0.79984917746E+03 0.  0.
         22    1    5    5    0    0  0.17750544261E+03 -0.31598812637E+03  0.20106501166E+03  0.41446811346E+03  0.00000000000E+00 0. -1.
         22    1    5    5    0    0 -0.10072544163E+03  0.32105106774E+03 -0.19538322120E+03  0.38909382649E+03  0.00000000000E+00 0. -1.
          5    1    4    4  502    0 -0.28148276459E+02  0.80816292191E+01 -0.14916717931E+03  0.15208739455E+03  0.47000000000E+01 0.  1.
         -5    1    4    4    0  502 -0.48631724522E+02 -0.13144570589E+02  0.93763885623E+01  0.51457079478E+02  0.47000000000E+01 0.  1.
<mgrwt>
<rscale>  0 0.99813732E+03</rscale>
<asrwt>0</asrwt>
<pdfrwt beam="1">  1        1 0.87785800E-01 0.99813732E+03</pdfrwt>
<pdfrwt beam="2">  1       -1 0.67153648E-01 0.99813732E+03</pdfrwt>
<totfact> 0.96626726E+01</totfact>
</mgrwt>
</event>
<event>
 9    1  0.4296086E-036  0.1000117E+04  0.7818608E-02  0.8680927E-01
         -2   -1    0    0    0  501 -0.00000000000E+00  0.00000000000E+00  0.13313145220E+03  0.13313145220E+03  0.00000000000E+00 0.  1.
          2   -1    0    0  501    0  0.00000000000E+00 -0.00000000000E+00 -0.18782810904E+04  0.18782810904E+04  0.00000000000E+00 0.  1.
         36    2    1    2    0    0 -0.28421709430E-13  0.71054273576E-14 -0.17451496382E+04  0.20114125426E+04  0.10001165716E+04 0.  0.
         25    2    3    3    0    0 -0.13208451499E+03 -0.24230446258E+02 -0.22166082039E+03  0.28784428908E+03  0.12524927878E+03 0.  0.
         35    2    3    3    0    0  0.13208451499E+03  0.24230446258E+02 -0.15234888178E+04  0.17235682535E+04  0.79475525347E+03 0.  0.
         22    1    5    5    0    0 -0.17480387516E+03  0.24162844218E+03 -0.11700745170E+04  0.12074829499E+04  0.00000000000E+00 0. -1.
         22    1    5    5    0    0  0.30688839015E+03 -0.21739799593E+03 -0.35341430080E+03  0.51608530366E+03  0.00000000000E+00 0. -1.
          5    1    4    4  502    0 -0.79852084896E+01  0.43493007483E+01 -0.13112347082E+03  0.13152237290E+03  0.47000000000E+01 0.  1.
         -5    1    4    4    0  502 -0.12409930650E+03 -0.28579747007E+02 -0.90537349563E+02  0.15632191618E+03  0.47000000000E+01 0.  1.
<mgrwt>
<rscale>  0 0.10001166E+04</rscale>
<asrwt>0</asrwt>
<pdfrwt beam="1">  1        2 0.28896630E+00 0.10001166E+04</pdfrwt>
<pdfrwt beam="2">  1       -2 0.20481763E-01 0.10001166E+04</pdfrwt>
<totfact> 0.18860186E+02</totfact>
</mgrwt>
</event>
<event>
 9    1  0.4296086E-036  0.1005651E+04  0.7818608E-02  0.8675675E-01
          2   -1    0    0  501    0  0.00000000000E+00  0.00000000000E+00  0.11222436986E+04  0.11222436986E+04  0.00000000000E+00 0.  1.
         -2   -1    0    0    0  501 -0.00000000000E+00 -0.00000000000E+00 -0.22529272111E+03  0.22529272111E+03  0.00000000000E+00 0.  1.
         36    2    1    2    0    0  0.00000000000E+00 -0.10658141036E-13  0.89695097754E+03  0.13475364198E+04  0.10056507080E+04 0.  0.
         25    2    3    3    0    0  0.21025567078E+02  0.94846705460E+01  0.36653597658E+03  0.38764059286E+03  0.12403456640E+03 0.  0.
         35    2    3    3    0    0 -0.21025567078E+02 -0.94846705460E+01  0.53041500096E+03  0.95989582689E+03  0.79970487793E+03 0.  0.
         22    1    5    5    0    0 -0.14498200363E+03 -0.38132985067E+03  0.27863209704E+03  0.49403247048E+03  0.00000000000E+00 0.  1.
         22    1    5    5    0    0  0.12395643655E+03  0.37184518012E+03  0.25178290392E+03  0.46586335641E+03  0.00000000000E+00 0.  1.
          5    1    4    4  502    0  0.70554987295E+02  0.22823477362E+00  0.15884377256E+03  0.17387205758E+03  0.47000000000E+01 0.  1.
         -5    1    4    4    0  502 -0.49529420217E+02  0.92564357723E+01  0.20769220401E+03  0.21376853529E+03  0.47000000000E+01 0.  1.
<mgrwt>
<rscale>  0 0.10056507E+04</rscale>
<asrwt>0</asrwt>
<pdfrwt beam="1">  1        2 0.17265287E+00 0.10056507E+04</pdfrwt>
<pdfrwt beam="2">  1       -2 0.34660419E-01 0.10056507E+04</pdfrwt>
<totfact> 0.19885259E+02</totfact>
</mgrwt>
</event>
<event>
 9    1  0.4296086E-036  0.9998195E+03  0.7818608E-02  0.8681210E-01
          2   -1    0    0  501    0  0.00000000000E+00  0.00000000000E+00  0.38150157169E+04  0.38150157169E+04  0.00000000000E+00 0. -1.
         -2   -1    0    0    0  501 -0.00000000000E+00 -0.00000000000E+00 -0.65506871721E+02  0.65506871721E+02  0.00000000000E+00 0. -1.
         36    2    1    2    0    0  0.00000000000E+00 -0.28421709430E-13  0.37495088452E+04  0.38805225886E+04  0.99981947407E+03 0.  0.
         25    2    3    3    0    0  0.62691242693E+02 -0.12607839603E+03  0.74768466523E+03  0.77101126635E+03  0.12490020163E+03 0.  0.
         35    2    3    3    0    0 -0.62691242693E+02  0.12607839603E+03  0.30018241800E+04  0.31095113223E+04  0.79892822089E+03 0.  0.
         22    1    5    5    0    0 -0.50436750052E+01 -0.31131212811E+03  0.70486579113E+03  0.77056892181E+03  0.00000000000E+00 0.  1.
         22    1    5    5    0    0 -0.57647567688E+02  0.43739052414E+03  0.22969583889E+04  0.23389424005E+04  0.00000000000E+00 0.  1.
          5    1    4    4  502    0 -0.30494113183E+02 -0.16184074531E+01  0.89051054626E+02  0.94258636270E+02  0.47000000000E+01 0. -1.
         -5    1    4    4    0  502  0.93185355875E+02 -0.12445998858E+03  0.65863361060E+03  0.67675263008E+03  0.47000000000E+01 0. -1.
<mgrwt>
<rscale>  0 0.99981947E+03</rscale>
<asrwt>0</asrwt>
<pdfrwt beam="1">  1        2 0.58692532E+00 0.99981947E+03</pdfrwt>
<pdfrwt beam="2">  1       -2 0.10077983E-01 0.99981947E+03</pdfrwt>
<totfact> 0.32142688E+01</totfact>
</mgrwt>
</event>
<event>
 9    1  0.4296086E-036  0.1000607E+04  0.7818608E-02  0.8680460E-01
          2   -1    0    0  501    0  0.00000000000E+00  0.00000000000E+00  0.40888595583E+03  0.40888595583E+03  0.00000000000E+00 0. -1.
         -2   -1    0    0    0  501 -0.00000000000E+00 -0.00000000000E+00 -0.61216005004E+03  0.61216005004E+03  0.00000000000E+00 0. -1.
         36    2    1    2    0    0  0.71054273576E-14 -0.28421709430E-13 -0.20327409422E+03  0.10210460059E+04  0.10006071101E+04 0.  0.
         25    2    3    3    0    0 -0.38434346798E+02  0.13699444339E+03 -0.63154892332E+01  0.18888941845E+03  0.12407518070E+03 0.  0.
         35    2    3    3    0    0  0.38434346798E+02 -0.13699444339E+03 -0.19695860499E+03  0.83215658742E+03  0.79589397370E+03 0.  0.
         22    1    5    5    0    0  0.20421189666E+03  0.26663741468E+03  0.35543228728E+02  0.33772967112E+03  0.00000000000E+00 0.  1.
         22    1    5    5    0    0 -0.16577754986E+03 -0.40363185806E+03 -0.23250183371E+03  0.49442691630E+03  0.00000000000E+00 0.  1.
          5    1    4    4  502    0 -0.10147336447E+02 -0.23290825072E+02  0.14234024527E+01  0.25875607124E+02  0.47000000000E+01 0.  1.
         -5    1    4    4    0  502 -0.28287010351E+02  0.16028526846E+03 -0.77388916859E+01  0.16301381133E+03  0.47000000000E+01 0.  1.
<mgrwt>
<rscale>  0 0.10006071E+04</rscale>
<asrwt>0</asrwt>
<pdfrwt beam="1">  1        2 0.62905532E-01 0.10006071E+04</pdfrwt>
<pdfrwt beam="2">  1       -2 0.94178469E-01 0.10006071E+04</pdfrwt>
<totfact> 0.87969237E+01</totfact>
</mgrwt>
</event>
<event>
 9    1  0.4296086E-036  0.9992600E+03  0.7818608E-02  0.8681743E-01
         -1   -1    0    0    0  501 -0.00000000000E+00  0.00000000000E+00  0.91139920095E+03  0.91139920095E+03  0.00000000000E+00 0.  1.
          1   -1    0    0  501    0  0.00000000000E+00 -0.00000000000E+00 -0.27389767786E+03  0.27389767786E+03  0.00000000000E+00 0.  1.
         36    2    1    2    0    0 -0.35527136788E-13  0.00000000000E+00  0.63750152308E+03  0.11852968788E+04  0.99925997568E+03 0.  0.
         25    2    3    3    0    0  0.62186037235E+02  0.11368365549E+03  0.59164397523E+02  0.18944213254E+03  0.12488722471E+03 0.  0.
         35    2    3    3    0    0 -0.62186037235E+02 -0.11368365549E+03  0.57833712556E+03  0.99585474627E+03  0.80028855303E+03 0.  0.
         22    1    5    5    0    0  0.30653144158E+03 -0.27163925231E+03  0.28941672415E+03  0.50150917069E+03  0.00000000000E+00 0.  1.
         22    1    5    5    0    0 -0.36871747881E+03  0.15795559681E+03  0.28892040141E+03  0.49434557558E+03  0.00000000000E+00 0.  1.
          5    1    4    4  502    0  0.93920123997E+02  0.63239900345E+02  0.62780819057E+02  0.12955229033E+03  0.47000000000E+01 0.  1.
         -5    1    4    4    0  502 -0.31734086762E+02  0.50443755148E+02 -0.36164215335E+01  0.59889842217E+02  0.47000000000E+01 0.  1.
<mgrwt>
<rscale>  0 0.99925998E+03</rscale>
<asrwt>0</asrwt>
<pdfrwt beam="1">  1        1 0.42138105E-01 0.99925998E+03</pdfrwt>
<pdfrwt beam="2">  1       -1 0.14021526E+00 0.99925998E+03</pdfrwt>
<totfact> 0.48971843E+01</totfact>
</mgrwt>
</event>
<event>
 9    1  0.4296086E-036  0.1000725E+04  0.7818608E-02  0.8680348E-01
         -1   -1    0    0    0  501 -0.00000000000E+00  0.00000000000E+00  0.25538908877E+03  0.25538908877E+03  0.00000000000E+00 0.  1.
          1   -1    0    0  501    0  0.00000000000E+00 -0.00000000000E+00 -0.98031813008E+03  0.98031813008E+03  0.00000000000E+00 0.  1.
         36    2    1    2    0    0 -0.71054273576E-14 -0.71054273576E-14 -0.72492904132E+03  0.12357072189E+04  0.10007248452E+04 0.  0.
         25    2    3    3    0    0  0.20070591854E+02 -0.49502729050E+02  0.25027931746E+02  0.13780013567E+03  0.12453566229E+03 0.  0.
         35    2    3    3    0    0 -0.20070591854E+02  0.49502729050E+02 -0.74995697306E+03  0.10979070832E+04  0.80006946761E+03 0.  0.
         22    1    5    5    0    0 -0.19370192395E+03 -0.59109669383E+02  0.98413711343E+02  0.22516582098E+03  0.00000000000E+00 0.  1.
         22    1    5    5    0    0  0.17363133210E+03  0.10861239843E+03 -0.84837068441E+03  0.87274126220E+03  0.00000000000E+00 0.  1.
          5    1    4    4  502    0 -0.33380915685E+02  0.38436688762E+01 -0.29156984877E+02  0.44735657920E+02  0.47000000000E+01 0. -1.
         -5    1    4    4    0  502  0.53451507539E+02 -0.53346397926E+02  0.54184916623E+02  0.93064477753E+02  0.47000000000E+01 0. -1.
<mgrwt>
<rscale>  0 0.10007248E+04</rscale>
<asrwt>0</asrwt>
<pdfrwt beam="1">  1        1 0.15081817E+00 0.10007248E+04</pdfrwt>
<pdfrwt beam="2">  1       -1 0.39290629E-01 0.10007248E+04</pdfrwt>
<totfact> 0.11063001E+02</totfact>
</mgrwt>
</event>
<event>
 9    1  0.4296086E-036  0.1005331E+04  0.7818608E-02  0.8675978E-01
         -2   -1    0    0    0  501 -0.00000000000E+00  0.00000000000E+00  0.12149377122E+04  0.12149377122E+04  0.00000000000E+00 0. -1.
          2   -1    0    0  501    0  0.00000000000E+00 -0.00000000000E+00 -0.20797157546E+03  0.20797157546E+03  0.00000000000E+00 0. -1.
         36    2    1    2    0    0  0.00000000000E+00  0.14210854715E-13  0.10069661367E+04  0.14229092877E+04  0.10053308114E+04 0.  0.
         25    2    3    3    0    0  0.30094515793E+02 -0.91691945812E+02  0.34432909943E+03  0.37891065417E+03  0.12529031217E+03 0.  0.
         35    2    3    3    0    0 -0.30094515793E+02  0.91691945812E+02  0.66263703730E+03  0.10439986335E+04  0.80095705922E+03 0.  0.
         22    1    5    5    0    0  0.54539027208E+02  0.35542573725E+03  0.67707999202E+03  0.76664155626E+03  0.00000000000E+00 0. -1.
         22    1    5    5    0    0 -0.84633543001E+02 -0.26373379144E+03 -0.14442954715E+02  0.27735707723E+03  0.00000000000E+00 0. -1.
          5    1    4    4  502    0 -0.48874759823E+02 -0.41468960330E+02  0.13142326516E+03  0.14629621131E+03  0.47000000000E+01 0.  1.
         -5    1    4    4    0  502  0.78969275616E+02 -0.50222985482E+02  0.21290583427E+03  0.23261444286E+03  0.47000000000E+01 0.  1.
<mgrwt>
<rscale>  0 0.10053308E+04</rscale>
<asrwt>0</asrwt>
<pdfrwt beam="1">  1        2 0.31995628E-01 0.10053308E+04</pdfrwt>
<pdfrwt beam="2">  1       -2 0.18691349E+00 0.10053308E+04</pdfrwt>
<totfact> 0.29552511E+01</totfact>
</mgrwt>
</event>
<event>
 9    1  0.4296086E-036  0.1001800E+04  0.7818608E-02  0.8679326E-01
          1   -1    0    0  501    0  0.00000000000E+00  0.00000000000E+00  0.40103067805E+03  0.40103067805E+03  0.00000000000E+00 0. -1.
         -1   -1    0    0    0  501 -0.00000000000E+00 -0.00000000000E+00 -0.62563999357E+03  0.62563999357E+03  0.00000000000E+00 0. -1.
         36    2    1    2    0    0  0.00000000000E+00 -0.21316282073E-13 -0.22460931552E+03  0.10266706716E+04  0.10018000416E+04 0.  0.
         25    2    3    3    0    0 -0.99017961375E+02  0.44734122429E+02 -0.13211807678E+03  0.21135667276E+03  0.12414007622E+03 0.  0.
         35    2    3    3    0    0  0.99017961375E+02 -0.44734122429E+02 -0.92491238733E+02  0.81531399886E+03  0.80273070772E+03 0.  0.
         22    1    5    5    0    0  0.33908623494E+03  0.25482005412E+03 -0.19893006777E+02  0.42462744427E+03  0.00000000000E+00 0.  1.
         22    1    5    5    0    0 -0.24006827356E+03 -0.29955417655E+03 -0.72598231957E+02  0.39068655460E+03  0.00000000000E+00 0.  1.
          5    1    4    4  502    0 -0.11202728136E+03  0.16828630906E+02 -0.50731048032E+02  0.12421370223E+03  0.47000000000E+01 0. -1.
         -5    1    4    4    0  502  0.13009319987E+02  0.27905491523E+02 -0.81387028751E+02  0.87142970528E+02  0.47000000000E+01 0. -1.
<mgrwt>
<rscale>  0 0.10018000E+04</rscale>
<asrwt>0</asrwt>
<pdfrwt beam="1">  1        1 0.61697027E-01 0.10018000E+04</pdfrwt>
<pdfrwt beam="2">  1       -1 0.96252307E-01 0.10018000E+04</pdfrwt>
<totfact> 0.74297154E+01</totfact>
</mgrwt>
</event>
<event>
 9    1  0.4296086E-036  0.1000071E+04  0.7818608E-02  0.8680971E-01
          2   -1    0    0  501    0  0.00000000000E+00  0.00000000000E+00  0.13062447213E+04  0.13062447213E+04  0.00000000000E+00 0.  1.
         -2   -1    0    0    0  501 -0.00000000000E+00 -0.00000000000E+00 -0.19141542454E+03  0.19141542454E+03  0.00000000000E+00 0.  1.
         36    2    1    2    0    0  0.00000000000E+00  0.00000000000E+00  0.11148292967E+04  0.14976601458E+04  0.10000707732E+04 0.  0.
         25    2    3    3    0    0 -0.11113677383E+03  0.74915448775E+02  0.15513633769E+03  0.24000155644E+03  0.12477883178E+03 0.  0.
         35    2    3    3    0    0  0.11113677383E+03 -0.74915448775E+02  0.95969295904E+03  0.12576585894E+04  0.80170496120E+03 0.  0.
         22    1    5    5    0    0 -0.23392540005E+03  0.47336128343E+02  0.89077840250E+01  0.23883289231E+03  0.00000000000E+00 0. -1.
         22    1    5    5    0    0  0.34506217388E+03 -0.12225157712E+03  0.95078517501E+03  0.10188256971E+04  0.00000000000E+00 0. -1.
          5    1    4    4  502    0 -0.70733186936E+02  0.10457220291E+03  0.13733998589E+03  0.18660892551E+03  0.47000000000E+01 0. -1.
         -5    1    4    4    0  502 -0.40403586897E+02 -0.29656754139E+02  0.17796351799E+02  0.53392630929E+02  0.47000000000E+01 0. -1.
<mgrwt>
<rscale>  0 0.10000708E+04</rscale>
<asrwt>0</asrwt>
<pdfrwt beam="1">  1        2 0.20096072E+00 0.10000708E+04</pdfrwt>
<pdfrwt beam="2">  1       -2 0.29448528E-01 0.10000708E+04</pdfrwt>
<totfact> 0.20903623E+02</totfact>
</mgrwt>
</event>
<event>
 9    1  0.4296086E-036  0.9987793E+03  0.7818608E-02  0.8682201E-01
         -2   -1    0    0    0  501 -0.00000000000E+00  0.00000000000E+00  0.26709515124E+03  0.26709515124E+03  0.00000000000E+00 0.  1.
          2   -1    0    0  501    0  0.00000000000E+00 -0.00000000000E+00 -0.93371223595E+03  0.93371223595E+03  0.00000000000E+00 0.  1.
         36    2    1    2    0    0  0.71054273576E-14  0.00000000000E+00 -0.66661708472E+03  0.12008073872E+04  0.99877927667E+03 0.  0.
         25    2    3    3    0    0 -0.31197547607E+02  0.10431526719E+03 -0.22409767661E+02  0.16784708998E+03  0.12575963574E+03 0.  0.
         35    2    3    3    0    0  0.31197547607E+02 -0.10431526719E+03 -0.64420731706E+03  0.10329602972E+04  0.80009308604E+03 0.  0.
         22    1    5    5    0    0 -0.26457911420E+03 -0.33181860995E+03 -0.42287060607E+03  0.59910370309E+03  0.00000000000E+00 0. -1.
         22    1    5    5    0    0  0.29577666181E+03  0.22750334276E+03 -0.22133671098E+03  0.43385659412E+03  0.00000000000E+00 0. -1.
          5    1    4    4  502    0 -0.57753159823E+02  0.11967173045E+03 -0.68683953907E+01  0.13313908289E+03  0.47000000000E+01 0. -1.
         -5    1    4    4    0  502  0.26555612216E+02 -0.15356463256E+02 -0.15541372270E+02  0.34708007087E+02  0.47000000000E+01 0. -1.
<mgrwt>
<rscale>  0 0.99877928E+03</rscale>
<asrwt>0</asrwt>
<pdfrwt beam="1">  1        2 0.14364804E+00 0.99877928E+03</pdfrwt>
<pdfrwt beam="2">  1       -2 0.41091562E-01 0.99877928E+03</pdfrwt>
<totfact> 0.18880930E+02</totfact>
</mgrwt>
</event>
<event>
 9    1  0.4296086E-036  0.9996542E+03  0.7818608E-02  0.8681367E-01
         -2   -1    0    0    0  501 -0.00000000000E+00  0.00000000000E+00  0.25037420716E+03  0.25037420716E+03  0.00000000000E+00 0. -1.
          2   -1    0    0  501    0  0.00000000000E+00 -0.00000000000E+00 -0.99781500824E+03  0.99781500824E+03  0.00000000000E+00 0. -1.
         36    2    1    2    0    0  0.28421709430E-13  0.14210854715E-13 -0.74744080108E+03  0.12481892154E+04  0.99965422337E+03 0.  0.
         25    2    3    3    0    0 -0.10691111079E+03 -0.96614437226E+02 -0.98056169837E+02  0.21388025706E+03  0.12395731857E+03 0.  0.
         35    2    3    3    0    0  0.10691111079E+03  0.96614437226E+02 -0.64938463124E+03  0.10343089583E+04  0.79204184668E+03 0.  0.
         22    1    5    5    0    0  0.34785283667E+03 -0.15686075295E+03 -0.12031551779E+03  0.40010338116E+03  0.00000000000E+00 0. -1.
         22    1    5    5    0    0 -0.24094172588E+03  0.25347519017E+03 -0.52906911346E+03  0.63420557717E+03  0.00000000000E+00 0. -1.
          5    1    4    4  502    0  0.94980690161E+01 -0.49398396231E+02 -0.67850058502E+02  0.84593943660E+02  0.47000000000E+01 0.  1.
         -5    1    4    4    0  502 -0.11640917981E+03 -0.47216040995E+02 -0.30206111336E+02  0.12928631340E+03  0.47000000000E+01 0.  1.
<mgrwt>
<rscale>  0 0.99965422E+03</rscale>
<asrwt>0</asrwt>
<pdfrwt beam="1">  1        2 0.15351000E+00 0.99965422E+03</pdfrwt>
<pdfrwt beam="2">  1       -2 0.38519109E-01 0.99965422E+03</pdfrwt>
<totfact> 0.19445801E+02</totfact>
</mgrwt>
</event>
<event>
 9    1  0.4296086E-036  0.9984868E+03  0.7818608E-02  0.8682480E-01
          2   -1    0    0  501    0  0.00000000000E+00  0.00000000000E+00  0.26647562552E+03  0.26647562552E+03  0.00000000000E+00 0.  1.
         -2   -1    0    0    0  501 -0.00000000000E+00 -0.00000000000E+00 -0.93533491831E+03  0.93533491831E+03  0.00000000000E+00 0.  1.
         36    2    1    2    0    0 -0.28421709430E-13  0.28421709430E-13 -0.66885929279E+03  0.12018105438E+04  0.99848676991E+03 0.  0.
         25    2    3    3    0    0 -0.70890703943E+02  0.11573928611E+03 -0.14157467542E+03  0.23525772029E+03  0.12992971939E+03 0.  0.
         35    2    3    3    0    0  0.70890703943E+02 -0.11573928611E+03 -0.52728461737E+03  0.96655282353E+03  0.79860767508E+03 0.  0.
         22    1    5    5    0    0 -0.29641556347E+03 -0.84551072117E+02 -0.51197984066E+03  0.59760725172E+03  0.00000000000E+00 0. -1.
         22    1    5    5    0    0  0.36730626741E+03 -0.31188213997E+02 -0.15304776713E+02  0.36894557181E+03  0.00000000000E+00 0. -1.
          5    1    4    4  502    0 -0.67413844499E+02  0.14397196103E+03 -0.11873704717E+03  0.19847702225E+03  0.47000000000E+01 0.  1.
         -5    1    4    4    0  502 -0.34768594440E+01 -0.28232674912E+02 -0.22837628247E+02  0.36780698039E+02  0.47000000000E+01 0.  1.
<mgrwt>
<rscale>  0 0.99848677E+03</rscale>
<asrwt>0</asrwt>
<pdfrwt beam="1">  1        2 0.40996251E-01 0.99848677E+03</pdfrwt>
<pdfrwt beam="2">  1       -2 0.14389768E+00 0.99848677E+03</pdfrwt>
<totfact> 0.47709207E+01</totfact>
</mgrwt>
</event>
<event>
 9    1  0.4296086E-036  0.1000181E+04  0.7818608E-02  0.8680866E-01
         -1   -1    0    0    0  501 -0.00000000000E+00  0.00000000000E+00  0.24605058171E+03  0.24605058171E+03  0.00000000000E+00 0. -1.
          1   -1    0    0  501    0  0.00000000000E+00 -0.00000000000E+00 -0.10164191807E+04  0.10164191807E+04  0.00000000000E+00 0. -1.
         36    2    1    2    0    0  0.14210854715E-13  0.35527136788E-14 -0.77036859901E+03  0.12624697624E+04  0.10001810450E+04 0.  0.
         25    2    3    3    0    0 -0.73222090250E+02  0.78062175252E+01  0.85301401997E+01  0.14531650022E+03  0.12498684095E+03 0.  0.
         35    2    3    3    0    0  0.73222090250E+02 -0.78062175252E+01 -0.77889873921E+03  0.11171532622E+04  0.79744953056E+03 0.  0.
         22    1    5    5    0    0  0.39755128179E+03 -0.12158745327E+03 -0.24609963515E+03  0.48311029886E+03  0.00000000000E+00 0.  1.
         22    1    5    5    0    0 -0.32432919154E+03  0.11378123574E+03 -0.53279910405E+03  0.63404296335E+03  0.00000000000E+00 0.  1.
          5    1    4    4  502    0  0.12200564651E+01  0.30373851402E+02 -0.42280480474E+02  0.52285642541E+02  0.47000000000E+01 0. -1.
         -5    1    4    4    0  502 -0.74442146715E+02 -0.22567633877E+02  0.50810620674E+02  0.93030857675E+02  0.47000000000E+01 0. -1.
<mgrwt>
<rscale>  0 0.10001810E+04</rscale>
<asrwt>0</asrwt>
<pdfrwt beam="1">  1        1 0.15637218E+00 0.10001810E+04</pdfrwt>
<pdfrwt beam="2">  1       -1 0.37853936E-01 0.10001810E+04</pdfrwt>
<totfact> 0.11062229E+02</totfact>
</mgrwt>
</event>
<event>
 9    1  0.4296086E-036  0.9983079E+03  0.7818608E-02  0.8682651E-01
          1   -1    0    0  501    0  0.00000000000E+00  0.00000000000E+00  0.24108097603E+04  0.24108097603E+04  0.00000000000E+00 0.  1.
         -1   -1    0    0    0  501 -0.00000000000E+00 -0.00000000000E+00 -0.10334895215E+03  0.10334895215E+03  0.00000000000E+00 0.  1.
         36    2    1    2    0    0  0.00000000000E+00 -0.28421709430E-13  0.23074608082E+04  0.25141587125E+04  0.99830789352E+03 0.  0.
         25    2    3    3    0    0  0.69138892855E+02 -0.12046128516E+03  0.39100198190E+03  0.43322651573E+03  0.12454539874E+03 0.  0.
         35    2    3    3    0    0 -0.69138892855E+02  0.12046128516E+03  0.19164588263E+04  0.20809321968E+04  0.79885747600E+03 0.  0.
         22    1    5    5    0    0 -0.39439095296E+03  0.19555411505E+03  0.77095479216E+03  0.88778202688E+03  0.00000000000E+00 0.  1.
         22    1    5    5    0    0  0.32525206011E+03 -0.75092829892E+02  0.11455040341E+04  0.11931501699E+04  0.00000000000E+00 0.  1.
          5    1    4    4  502    0  0.15435281086E+02 -0.11522453944E+03  0.17220908983E+03  0.20782926409E+03  0.47000000000E+01 0.  1.
         -5    1    4    4    0  502  0.53703611769E+02 -0.52367457171E+01  0.21879289207E+03  0.22539725163E+03  0.47000000000E+01 0.  1.
<mgrwt>
<rscale>  0 0.99830789E+03</rscale>
<asrwt>0</asrwt>
<pdfrwt beam="1">  1        1 0.37089377E+00 0.99830789E+03</pdfrwt>
<pdfrwt beam="2">  1       -1 0.15899841E-01 0.99830789E+03</pdfrwt>
<totfact> 0.47734299E+01</totfact>
</mgrwt>
</event>
<event>
 9    1  0.4296086E-036  0.9992248E+03  0.7818608E-02  0.8681776E-01
         -4   -1    0    0    0  501 -0.00000000000E+00  0.00000000000E+00  0.13719582352E+04  0.13719582352E+04  0.00000000000E+00 0. -1.
          4   -1    0    0  501    0  0.00000000000E+00 -0.00000000000E+00 -0.18193890079E+03  0.18193890079E+03  0.00000000000E+00 0. -1.
         36    2    1    2    0    0  0.00000000000E+00  0.35527136788E-14  0.11900193344E+04  0.15538971360E+04  0.99922484606E+03 0.  0.
         25    2    3    3    0    0 -0.11037273886E+03 -0.32466240768E+01  0.35166967338E+03  0.38977817044E+03  0.12673902684E+03 0.  0.
         35    2    3    3    0    0  0.11037273886E+03  0.32466240768E+01  0.83834966104E+03  0.11641189656E+04  0.80009382561E+03 0.  0.
         22    1    5    5    0    0  0.30997122675E+03  0.27078071427E+02  0.90128330930E+03  0.95348150847E+03  0.00000000000E+00 0. -1.
         22    1    5    5    0    0 -0.19959848789E+03 -0.23831447350E+02 -0.62933648258E+02  0.21063745710E+03  0.00000000000E+00 0. -1.
          5    1    4    4  502    0 -0.34979366110E+02  0.47813303202E+02  0.61082196271E+02  0.85222020146E+02  0.47000000000E+01 0.  1.
         -5    1    4    4    0  502 -0.75393372750E+02 -0.51059927279E+02  0.29058747711E+03  0.30455615029E+03  0.47000000000E+01 0.  1.
<mgrwt>
<rscale>  0 0.99922485E+03</rscale>
<asrwt>0</asrwt>
<pdfrwt beam="1">  1        4 0.27990601E-01 0.99922485E+03</pdfrwt>
<pdfrwt beam="2">  1       -4 0.21107049E+00 0.99922485E+03</pdfrwt>
<totfact> 0.23775256E+00</totfact>
</mgrwt>
</event>
<event>
 9    1  0.4296086E-036  0.1000173E+04  0.7818608E-02  0.8680873E-01
          1   -1    0    0  501    0  0.00000000000E+00  0.00000000000E+00  0.19893814807E+04  0.19893814807E+04  0.00000000000E+00 0.  1.
         -1   -1    0    0    0  501 -0.00000000000E+00 -0.00000000000E+00 -0.12571078272E+03  0.12571078272E+03  0.00000000000E+00 0.  1.
         36    2    1    2    0    0 -0.28421709430E-13  0.14210854715E-13  0.18636706980E+04  0.21150922634E+04  0.10001733911E+04 0.  0.
         25    2    3    3    0    0  0.11052061768E+03  0.18824595977E+02  0.17115848258E+03  0.23977651160E+03  0.12501350730E+03 0.  0.
         35    2    3    3    0    0 -0.11052061768E+03 -0.18824595977E+02  0.16925122154E+04  0.18753157518E+04  0.79977646716E+03 0.  0.
         22    1    5    5    0    0 -0.17781097893E+03  0.36283881988E+03  0.10487920340E+04  0.11239366014E+04  0.00000000000E+00 0. -1.
         22    1    5    5    0    0  0.67290361252E+02 -0.38166341585E+03  0.64372018143E+03  0.75137915043E+03  0.00000000000E+00 0. -1.
          5    1    4    4  502    0  0.32848081958E+02  0.26105114058E+02  0.15410390162E+03  0.15978290260E+03  0.47000000000E+01 0. -1.
         -5    1    4    4    0  502  0.77672535719E+02 -0.72805180808E+01  0.17054580958E+02  0.79993608996E+02  0.47000000000E+01 0. -1.
<mgrwt>
<rscale>  0 0.10001734E+04</rscale>
<asrwt>0</asrwt>
<pdfrwt beam="1">  1        1 0.30605867E+00 0.10001734E+04</pdfrwt>
<pdfrwt beam="2">  1       -1 0.19340122E-01 0.10001734E+04</pdfrwt>
<totfact> 0.68484612E+01</totfact>
</mgrwt>
</event>
<event>
 9    1  0.4296086E-036  0.9994584E+03  0.7818608E-02  0.8681554E-01
          2   -1    0    0  501    0  0.00000000000E+00  0.00000000000E+00  0.81532372710E+03  0.81532372710E+03  0.00000000000E+00 0. -1.
         -2   -1    0    0    0  501 -0.00000000000E+00 -0.00000000000E+00 -0.30629465317E+03  0.30629465317E+03  0.00000000000E+00 0. -1.
         36    2    1    2    0    0  0.35527136788E-13  0.00000000000E+00  0.50902907393E+03  0.11216183803E+04  0.99945844979E+03 0.  0.
         25    2    3    3    0    0 -0.99011258028E+01  0.64691903863E+02 -0.43939303625E+02  0.14744893163E+03  0.12460919034E+03 0.  0.
         35    2    3    3    0    0  0.99011258028E+01 -0.64691903863E+02  0.55296837756E+03  0.97416944864E+03  0.79934286347E+03 0.  0.
         22    1    5    5    0    0 -0.39301346398E+03 -0.11440536171E+02  0.30973300815E+03  0.50052472973E+03  0.00000000000E+00 0.  1.
         22    1    5    5    0    0  0.40291458978E+03 -0.53251367693E+02  0.24323536941E+03  0.47364471891E+03  0.00000000000E+00 0.  1.
          5    1    4    4  502    0  0.23281662876E+02  0.52305683441E+01 -0.70217059929E+02  0.74309623714E+02  0.47000000000E+01 0. -1.
         -5    1    4    4    0  502 -0.33182788679E+02  0.59461335519E+02  0.26277756304E+02  0.73139307917E+02  0.47000000000E+01 0. -1.
<mgrwt>
<rscale>  0 0.99945845E+03</rscale>
<asrwt>0</asrwt>
<pdfrwt beam="1">  1        2 0.12543442E+00 0.99945845E+03</pdfrwt>
<pdfrwt beam="2">  1       -2 0.47122255E-01 0.99945845E+03</pdfrwt>
<totfact> 0.17348364E+02</totfact>
</mgrwt>
</event>
<event>
 9    1  0.4296086E-036  0.1000055E+04  0.7818608E-02  0.8680985E-01
         -2   -1    0    0    0  501 -0.00000000000E+00  0.00000000000E+00  0.12829620701E+03  0.12829620701E+03  0.00000000000E+00 0.  1.
          2   -1    0    0  501    0  0.00000000000E+00 -0.00000000000E+00 -0.19488312427E+04  0.19488312427E+04  0.00000000000E+00 0.  1.
         36    2    1    2    0    0 -0.35527136788E-14 -0.28421709430E-13 -0.18205350357E+04  0.20771274497E+04  0.10000553116E+04 0.  0.
         25    2    3    3    0    0  0.26211465475E+02  0.13034309777E+03 -0.41651562942E+03  0.45474824998E+03  0.12503734341E+03 0.  0.
         35    2    3    3    0    0 -0.26211465475E+02 -0.13034309777E+03 -0.14040194062E+04  0.16223791997E+04  0.80197718826E+03 0.  0.
         22    1    5    5    0    0 -0.11261873617E+03  0.24060808105E+02  0.71984759879E+02  0.13580761348E+03  0.00000000000E+00 0.  1.
         22    1    5    5    0    0  0.86407270698E+02 -0.15440390588E+03 -0.14760041661E+04  0.14865715862E+04  0.00000000000E+00 0.  1.
          5    1    4    4  502    0  0.27753134267E+02  0.38253975311E+02 -0.31102327023E+03  0.31462861871E+03  0.47000000000E+01 0.  1.
         -5    1    4    4    0  502 -0.15416687923E+01  0.92089122463E+02 -0.10549235919E+03  0.14011963127E+03  0.47000000000E+01 0.  1.
<mgrwt>
<rscale>  0 0.10000553E+04</rscale>
<asrwt>0</asrwt>
<pdfrwt beam="1">  1        2 0.29982019E+00 0.10000553E+04</pdfrwt>
<pdfrwt beam="2">  1       -2 0.19737878E-01 0.10000553E+04</pdfrwt>
<totfact> 0.18338178E+02</totfact>
</mgrwt>
</event>
<event>
 9    1  0.4296086E-036  0.9995958E+03  0.7818608E-02  0.8681423E-01
          2   -1    0    0  501    0  0.00000000000E+00  0.00000000000E+00  0.75981009531E+03  0.75981009531E+03  0.00000000000E+00 0. -1.
         -2   -1    0    0    0  501 -0.00000000000E+00 -0.00000000000E+00 -0.32876364931E+03  0.32876364931E+03  0.00000000000E+00 0. -1.
         36    2    1    2    0    0  0.00000000000E+00  0.00000000000E+00  0.43104644599E+03  0.10885737446E+04  0.99959579775E+03 0.  0.
         25    2    3    3    0    0 -0.12583705678E+03 -0.60111429724E+02  0.91443320889E+02  0.20851276637E+03  0.12516926125E+03 0.  0.
         35    2    3    3    0    0  0.12583705678E+03  0.60111429724E+02  0.33960312510E+03  0.88006097825E+03  0.79983041578E+03 0.  0.
         22    1    5    5    0    0 -0.39931130110E+02  0.36129180009E+03  0.38939698910E+03  0.53268778387E+03  0.00000000000E+00 0.  1.
         22    1    5    5    0    0  0.16576818689E+03 -0.30118037037E+03 -0.49793863993E+02  0.34737319438E+03  0.00000000000E+00 0.  1.
          5    1    4    4  502    0 -0.11142255049E+03 -0.76497632961E+02  0.11392700316E+03  0.17682851765E+03  0.47000000000E+01 0.  1.
         -5    1    4    4    0  502 -0.14414506297E+02  0.16386203237E+02 -0.22483682274E+02  0.31684248719E+02  0.47000000000E+01 0.  1.
<mgrwt>
<rscale>  0 0.99959580E+03</rscale>
<asrwt>0</asrwt>
<pdfrwt beam="1">  1        2 0.11689386E+00 0.99959580E+03</pdfrwt>
<pdfrwt beam="2">  1       -2 0.50579023E-01 0.99959580E+03</pdfrwt>
<totfact> 0.16494918E+02</totfact>
</mgrwt>
</event>
<event>
 9    1  0.4296086E-036  0.1000056E+04  0.7818608E-02  0.8680984E-01
         -2   -1    0    0    0  501 -0.00000000000E+00  0.00000000000E+00  0.47975729748E+03  0.47975729748E+03  0.00000000000E+00 0.  1.
          2   -1    0    0  501    0  0.00000000000E+00 -0.00000000000E+00 -0.52115566806E+03  0.52115566806E+03  0.00000000000E+00 0.  1.
         36    2    1    2    0    0  0.28421709430E-13 -0.28421709430E-13 -0.41398370577E+02  0.10009129655E+04  0.10000564682E+04 0.  0.
         25    2    3    3    0    0  0.74100676569E+02  0.95154390994E+02  0.61783496851E+02  0.18551387709E+03  0.12670015674E+03 0.  0.
         35    2    3    3    0    0 -0.74100676569E+02 -0.95154390994E+02 -0.10318186743E+03  0.81539908844E+03  0.79980241765E+03 0.  0.
         22    1    5    5    0    0  0.25659720753E+03 -0.27350122377E+03  0.10017093727E+03  0.38817426884E+03  0.00000000000E+00 0. -1.
         22    1    5    5    0    0 -0.33069788410E+03  0.17834683278E+03 -0.20335280470E+03  0.42722481961E+03  0.00000000000E+00 0. -1.
          5    1    4    4  502    0  0.21278850394E+02  0.76513372420E+02 -0.23872459460E+02  0.83060640220E+02  0.47000000000E+01 0. -1.
         -5    1    4    4    0  502  0.52821826175E+02  0.18641018574E+02  0.85655956311E+02  0.10245323687E+03  0.47000000000E+01 0. -1.
<mgrwt>
<rscale>  0 0.10000565E+04</rscale>
<asrwt>0</asrwt>
<pdfrwt beam="1">  1        2 0.80177795E-01 0.10000565E+04</pdfrwt>
<pdfrwt beam="2">  1       -2 0.73808815E-01 0.10000565E+04</pdfrwt>
<totfact> 0.11730441E+02</totfact>
</mgrwt>
</event>
<event>
 9    1  0.4296086E-036  0.9997553E+03  0.7818608E-02  0.8681271E-01
          2   -1    0    0  501    0  0.00000000000E+00  0.00000000000E+00  0.75424865894E+03  0.75424865894E+03  0.00000000000E+00 0.  1.
         -2   -1    0    0    0  501 -0.00000000000E+00 -0.00000000000E+00 -0.33129348570E+03  0.33129348570E+03  0.00000000000E+00 0.  1.
         36    2    1    2    0    0 -0.71054273576E-14  0.00000000000E+00  0.42295517324E+03  0.10855421446E+04  0.99975530468E+03 0.  0.
         25    2    3    3    0    0 -0.27085311051E+02  0.13555137851E+03  0.69151242514E+02  0.19921749513E+03  0.12568979964E+03 0.  0.
         35    2    3    3    0    0  0.27085311051E+02 -0.13555137851E+03  0.35380393072E+03  0.88632464952E+03  0.80080357932E+03 0.  0.
         22    1    5    5    0    0  0.13850451131E+03  0.41892426154E+02 -0.22682370320E+03  0.26904919133E+03  0.00000000000E+00 0. -1.
         22    1    5    5    0    0 -0.11141920025E+03 -0.17744380466E+03  0.58062763393E+03  0.61727545819E+03  0.00000000000E+00 0. -1.
          5    1    4    4  502    0  0.21236325518E+02  0.10046184052E+03  0.89150687797E+02  0.13606431588E+03  0.47000000000E+01 0.  1.
         -5    1    4    4    0  502 -0.48321636569E+02  0.35089537988E+02 -0.19999445283E+02  0.63153179244E+02  0.47000000000E+01 0.  1.
<mgrwt>
<rscale>  0 0.99975530E+03</rscale>
<asrwt>0</asrwt>
<pdfrwt beam="1">  1        2 0.11603826E+00 0.99975530E+03</pdfrwt>
<pdfrwt beam="2">  1       -2 0.50968229E-01 0.99975530E+03</pdfrwt>
<totfact> 0.16394367E+02</totfact>
</mgrwt>
</event>
<event>
 9    1  0.4296086E-036  0.1002130E+04  0.7818608E-02  0.8679012E-01
          1   -1    0    0  501    0  0.00000000000E+00  0.00000000000E+00  0.85734638284E+03  0.85734638284E+03  0.00000000000E+00 0. -1.
         -1   -1    0    0    0  501 -0.00000000000E+00 -0.00000000000E+00 -0.29284095482E+03  0.29284095482E+03  0.00000000000E+00 0. -1.
         36    2    1    2    0    0  0.00000000000E+00  0.00000000000E+00  0.56450542802E+03  0.11501873377E+04  0.10021299983E+04 0.  0.
         25    2    3    3    0    0 -0.47488277245E+02 -0.10873764627E+03  0.13054602457E+02  0.17105422660E+03  0.12251576879E+03 0.  0.
         35    2    3    3    0    0  0.47488277245E+02  0.10873764627E+03  0.55145082556E+03  0.97913311106E+03  0.80032782282E+03 0.  0.
         22    1    5    5    0    0  0.49107763039E+02  0.44548854595E+03  0.43011829763E+03  0.62118706274E+03  0.00000000000E+00 0. -1.
         22    1    5    5    0    0 -0.16194857942E+01 -0.33675089968E+03  0.12133252794E+03  0.35794604832E+03  0.00000000000E+00 0. -1.
          5    1    4    4  502    0 -0.32904652731E+02  0.14413025566E+01  0.44401013765E+02  0.55482731978E+02  0.47000000000E+01 0. -1.
         -5    1    4    4    0  502 -0.14583624515E+02 -0.11017894882E+03 -0.31346411308E+02  0.11557149463E+03  0.47000000000E+01 0. -1.
<mgrwt>
<rscale>  0 0.10021300E+04</rscale>
<asrwt>0</asrwt>
<pdfrwt beam="1">  1        1 0.13189944E+00 0.10021300E+04</pdfrwt>
<pdfrwt beam="2">  1       -1 0.45052455E-01 0.10021300E+04</pdfrwt>
<totfact> 0.10930190E+02</totfact>
</mgrwt>
</event>
<event>
 9    1  0.4296086E-036  0.1000204E+04  0.7818608E-02  0.8680844E-01
         -1   -1    0    0    0  501 -0.00000000000E+00  0.00000000000E+00  0.42031567076E+03  0.42031567076E+03  0.00000000000E+00 0. -1.
          1   -1    0    0  501    0  0.00000000000E+00 -0.00000000000E+00 -0.59503340628E+03  0.59503340628E+03  0.00000000000E+00 0. -1.
         36    2    1    2    0    0 -0.14210854715E-13  0.00000000000E+00 -0.17471773553E+03  0.10153490770E+04  0.10002037098E+04 0.  0.
         25    2    3    3    0    0  0.10232053328E+02 -0.13885056552E+03 -0.24644029377E+02  0.18879344268E+03  0.12510580064E+03 0.  0.
         35    2    3    3    0    0 -0.10232053328E+02  0.13885056552E+03 -0.15007370615E+03  0.82655563436E+03  0.80080454854E+03 0.  0.
         22    1    5    5    0    0  0.28536897839E+03 -0.20862917107E+03 -0.10144493390E+03  0.36776712668E+03  0.00000000000E+00 0. -1.
         22    1    5    5    0    0 -0.29560103172E+03  0.34747973659E+03 -0.48628772246E+02  0.45878850769E+03  0.00000000000E+00 0. -1.
          5    1    4    4  502    0 -0.56075369121E+02 -0.52019155360E+02 -0.20649357368E+02  0.79365770368E+02  0.47000000000E+01 0. -1.
         -5    1    4    4    0  502  0.66307422449E+02 -0.86831410159E+02 -0.39946720091E+01  0.10942767231E+03  0.47000000000E+01 0. -1.
<mgrwt>
<rscale>  0 0.10002037E+04</rscale>
<asrwt>0</asrwt>
<pdfrwt beam="1">  1        1 0.91543600E-01 0.10002037E+04</pdfrwt>
<pdfrwt beam="2">  1       -1 0.64663950E-01 0.10002037E+04</pdfrwt>
<totfact> 0.97893061E+01</totfact>
</mgrwt>
</event>
<event>
 9    1  0.4296086E-036  0.9992006E+03  0.7818608E-02  0.8681800E-01
          2   -1    0    0  501    0  0.00000000000E+00  0.00000000000E+00  0.11411154186E+04  0.11411154186E+04  0.00000000000E+00 0.  1.
         -2   -1    0    0    0  501 -0.00000000000E+00 -0.00000000000E+00 -0.21873373466E+03  0.21873373466E+03  0.00000000000E+00 0.  1.
         36    2    1    2    0    0 -0.14210854715E-13  0.00000000000E+00  0.92238168398E+03  0.13598491533E+04  0.99920055484E+03 0.  0.
         25    2    3    3    0    0  0.63169309566E+02 -0.97454697326E+02  0.27893185129E+03  0.32688395355E+03  0.12474919527E+03 0.  0.
         35    2    3    3    0    0 -0.63169309566E+02  0.97454697326E+02  0.64344983269E+03  0.10329651998E+04  0.79968846248E+03 0.  0.
         22    1    5    5    0    0  0.68226471388E+02 -0.33187937574E+03  0.16508726075E+03  0.37689862709E+03  0.00000000000E+00 0. -1.
         22    1    5    5    0    0 -0.13139578095E+03  0.42933407306E+03  0.47836257194E+03  0.65606657267E+03  0.00000000000E+00 0. -1.
          5    1    4    4  502    0  0.73710430934E+02 -0.12195744470E+03  0.22207972702E+03  0.26390972150E+03  0.47000000000E+01 0.  1.
         -5    1    4    4    0  502 -0.10541121368E+02  0.24502747373E+02  0.56852124268E+02  0.62974232050E+02  0.47000000000E+01 0.  1.
<mgrwt>
<rscale>  0 0.99920055E+03</rscale>
<asrwt>0</asrwt>
<pdfrwt beam="1">  1        2 0.17555622E+00 0.99920055E+03</pdfrwt>
<pdfrwt beam="2">  1       -2 0.33651344E-01 0.99920055E+03</pdfrwt>
<totfact> 0.20467505E+02</totfact>
</mgrwt>
</event>
<event>
 9    1  0.4296086E-036  0.1000113E+04  0.7818608E-02  0.8680930E-01
          1   -1    0    0  501    0  0.00000000000E+00  0.00000000000E+00  0.11823378037E+04  0.11823378037E+04  0.00000000000E+00 0. -1.
         -1   -1    0    0    0  501 -0.00000000000E+00 -0.00000000000E+00 -0.21149332922E+03  0.21149332922E+03  0.00000000000E+00 0. -1.
         36    2    1    2    0    0  0.00000000000E+00 -0.71054273576E-14  0.97084447445E+03  0.13938311329E+04  0.10001131103E+04 0.  0.
         25    2    3    3    0    0  0.95969617964E+02  0.31850315502E+02  0.31838196708E+03  0.35645838285E+03  0.12438203879E+03 0.  0.
         35    2    3    3    0    0 -0.95969617964E+02 -0.31850315502E+02  0.65246250737E+03  0.10373727500E+04  0.80013141972E+03 0.  0.
         22    1    5    5    0    0 -0.20361419078E+03 -0.37059912470E+03  0.48804037696E+03  0.64574442271E+03  0.00000000000E+00 0.  1.
         22    1    5    5    0    0  0.10764457282E+03  0.33874880920E+03  0.16442213040E+03  0.39162832732E+03  0.00000000000E+00 0.  1.
          5    1    4    4  502    0  0.17332626305E+02 -0.31731012113E+02  0.18740380576E+03  0.19091766151E+03  0.47000000000E+01 0. -1.
         -5    1    4    4    0  502  0.78636991659E+02  0.63581327615E+02  0.13097816133E+03  0.16554072134E+03  0.47000000000E+01 0. -1.
<mgrwt>
<rscale>  0 0.10001131E+04</rscale>
<asrwt>0</asrwt>
<pdfrwt beam="1">  1        1 0.18189812E+00 0.10001131E+04</pdfrwt>
<pdfrwt beam="2">  1       -1 0.32537436E-01 0.10001131E+04</pdfrwt>
<totfact> 0.10742731E+02</totfact>
</mgrwt>
</event>
<event>
 9    1  0.4296086E-036  0.9998461E+03  0.7818608E-02  0.8681185E-01
         -1   -1    0    0    0  501 -0.00000000000E+00  0.00000000000E+00  0.98034651603E+02  0.98034651603E+02  0.00000000000E+00 0.  1.
          1   -1    0    0  501    0  0.00000000000E+00 -0.00000000000E+00 -0.25493336273E+04  0.25493336273E+04  0.00000000000E+00 0.  1.
         36    2    1    2    0    0  0.56843418861E-13 -0.21316282073E-13 -0.24512989757E+04  0.26473682789E+04  0.99984605609E+03 0.  0.
         25    2    3    3    0    0 -0.10640906360E+03 -0.13350684201E+02 -0.21790171153E+03  0.27208593729E+03  0.12267221283E+03 0.  0.
         35    2    3    3    0    0  0.10640906360E+03  0.13350684201E+02 -0.22333972642E+04  0.23752823416E+04  0.80149967759E+03 0.  0.
         22    1    5    5    0    0 -0.20373155475E+03  0.14954804232E+03 -0.18351269808E+04  0.18524476238E+04  0.00000000000E+00 0. -1.
         22    1    5    5    0    0  0.31014061835E+03 -0.13619735812E+03 -0.39827028339E+03  0.52283471780E+03  0.00000000000E+00 0. -1.
          5    1    4    4  502    0 -0.86829727842E+02 -0.29711195577E+02 -0.22675931129E+03  0.24467127342E+03  0.47000000000E+01 0.  1.
         -5    1    4    4    0  502 -0.19579335762E+02  0.16360511376E+02  0.88575997681E+01  0.27414663869E+02  0.47000000000E+01 0.  1.
<mgrwt>
<rscale>  0 0.99984606E+03</rscale>
<asrwt>0</asrwt>
<pdfrwt beam="1">  1        1 0.39220518E+00 0.99984606E+03</pdfrwt>
<pdfrwt beam="2">  1       -1 0.15082254E-01 0.99984606E+03</pdfrwt>
<totfact> 0.41556240E+01</totfact>
</mgrwt>
</event>
<event>
 9    1  0.4296086E-036  0.1000819E+04  0.7818608E-02  0.8680259E-01
         -2   -1    0    0    0  501 -0.00000000000E+00  0.00000000000E+00  0.10124792730E+03  0.10124792730E+03  0.00000000000E+00 0.  1.
          2   -1    0    0  501    0  0.00000000000E+00 -0.00000000000E+00 -0.24732309594E+04  0.24732309594E+04  0.00000000000E+00 0.  1.
         36    2    1    2    0    0  0.14210854715E-13  0.14210854715E-13 -0.23719830321E+04  0.25744788867E+04  0.10008186816E+04 0.  0.
         25    2    3    3    0    0 -0.76226250788E+01 -0.37760529664E+02 -0.79161140022E+03  0.80232219102E+03  0.12485322274E+03 0.  0.
         35    2    3    3    0    0  0.76226250788E+01  0.37760529664E+02 -0.15803716318E+04  0.17721566956E+04  0.80092502594E+03 0.  0.
         22    1    5    5    0    0  0.31740269715E+03  0.23121283889E+03 -0.11048928842E+04  0.11726005861E+04  0.00000000000E+00 0. -1.
         22    1    5    5    0    0 -0.30978007207E+03 -0.19345230923E+03 -0.47547874763E+03  0.59955610950E+03  0.00000000000E+00 0. -1.
          5    1    4    4  502    0  0.49074189854E+02  0.37046211377E-01 -0.17103080255E+03  0.17799410918E+03  0.47000000000E+01 0. -1.
         -5    1    4    4    0  502 -0.56696814932E+02 -0.37797575875E+02 -0.62058059767E+03  0.62432808184E+03  0.47000000000E+01 0. -1.
<mgrwt>
<rscale>  0 0.10008187E+04</rscale>
<asrwt>0</asrwt>
<pdfrwt beam="1">  1        2 0.38049706E+00 0.10008187E+04</pdfrwt>
<pdfrwt beam="2">  1       -2 0.15576605E-01 0.10008187E+04</pdfrwt>
<totfact> 0.13568949E+02</totfact>
</mgrwt>
</event>
<event>
 9    1  0.4296086E-036  0.9997588E+03  0.7818608E-02  0.8681268E-01
         -1   -1    0    0    0  501 -0.00000000000E+00  0.00000000000E+00  0.84393266429E+03  0.84393266429E+03  0.00000000000E+00 0.  1.
          1   -1    0    0  501    0  0.00000000000E+00 -0.00000000000E+00 -0.29608929616E+03  0.29608929616E+03  0.00000000000E+00 0.  1.
         36    2    1    2    0    0  0.28421709430E-13 -0.17763568394E-14  0.54784336812E+03  0.11400219605E+04  0.99975882808E+03 0.  0.
         25    2    3    3    0    0 -0.88726026819E+02  0.13946438076E+02  0.22464756382E+03  0.27218740716E+03  0.12471024704E+03 0.  0.
         35    2    3    3    0    0  0.88726026819E+02 -0.13946438076E+02  0.32319580430E+03  0.86783455329E+03  0.80038395348E+03 0.  0.
         22    1    5    5    0    0  0.26661412770E+03 -0.19928193753E+02 -0.18780191186E+03  0.32672585464E+03  0.00000000000E+00 0.  1.
         22    1    5    5    0    0 -0.17788810088E+03  0.59817556770E+01  0.51099771616E+03  0.54110869865E+03  0.00000000000E+00 0.  1.
          5    1    4    4  502    0 -0.74989875701E+02  0.65775754280E+02  0.14531186180E+03  0.17631664269E+03  0.47000000000E+01 0.  1.
         -5    1    4    4    0  502 -0.13736151118E+02 -0.51829316204E+02  0.79335702019E+02  0.95870764472E+02  0.47000000000E+01 0.  1.
<mgrwt>
<rscale>  0 0.99975883E+03</rscale>
<asrwt>0</asrwt>
<pdfrwt beam="1">  1        1 0.45552200E-01 0.99975883E+03</pdfrwt>
<pdfrwt beam="2">  1       -1 0.12983579E+00 0.99975883E+03</pdfrwt>
<totfact> 0.54347032E+01</totfact>
</mgrwt>
</event>
<event>
 9    1  0.4296086E-036  0.1001475E+04  0.7818608E-02  0.8679635E-01
          1   -1    0    0  501    0  0.00000000000E+00  0.00000000000E+00  0.16498918186E+03  0.16498918186E+03  0.00000000000E+00 0.  1.
         -1   -1    0    0    0  501 -0.00000000000E+00 -0.00000000000E+00 -0.15197243262E+04  0.15197243262E+04  0.00000000000E+00 0.  1.
         36    2    1    2    0    0 -0.71054273576E-14 -0.88817841970E-14 -0.13547351443E+04  0.16847135081E+04  0.10014750586E+04 0.  0.
         25    2    3    3    0    0 -0.28864892930E+02  0.11785114299E+01 -0.48871877052E+03  0.50532394557E+03  0.12518659023E+03 0.  0.
         35    2    3    3    0    0  0.28864892930E+02 -0.11785114299E+01 -0.86601637380E+03  0.11793895625E+04  0.80008800107E+03 0.  0.
         22    1    5    5    0    0  0.11454703501E+03 -0.19055420998E+03 -0.93446650939E+03  0.96055170987E+03  0.00000000000E+00 0.  1.
         22    1    5    5    0    0 -0.85682142081E+02  0.18937569855E+03  0.68450135587E+02  0.21883785261E+03  0.00000000000E+00 0.  1.
          5    1    4    4  502    0 -0.57549645444E+02 -0.56729485233E+01 -0.46081328638E+03  0.46445141720E+03  0.47000000000E+01 0.  1.
         -5    1    4    4    0  502  0.28684752514E+02  0.68514599532E+01 -0.27905484147E+02  0.40872528375E+02  0.47000000000E+01 0.  1.
<mgrwt>
<rscale>  0 0.10014751E+04</rscale>
<asrwt>0</asrwt>
<pdfrwt beam="1">  1        1 0.25382949E-01 0.10014751E+04</pdfrwt>
<pdfrwt beam="2">  1       -1 0.23380376E+00 0.10014751E+04</pdfrwt>
<totfact> 0.15132643E+01</totfact>
</mgrwt>
</event>
<event>
 9    1  0.4296086E-036  0.1005842E+04  0.7818608E-02  0.8675494E-01
         -1   -1    0    0    0  501 -0.00000000000E+00  0.00000000000E+00  0.24972255524E+03  0.24972255524E+03  0.00000000000E+00 0. -1.
          1   -1    0    0  501    0  0.00000000000E+00 -0.00000000000E+00 -0.10128421911E+04  0.10128421911E+04  0.00000000000E+00 0. -1.
         36    2    1    2    0    0  0.00000000000E+00  0.71054273576E-14 -0.76311963584E+03  0.12625647463E+04  0.10058420155E+04 0.  0.
         25    2    3    3    0    0  0.79864657344E+02 -0.36448051942E+02 -0.29209307685E+03  0.32948883137E+03  0.12465031275E+03 0.  0.
         35    2    3    3    0    0 -0.79864657344E+02  0.36448051942E+02 -0.47102655898E+03  0.93307591496E+03  0.80066086442E+03 0.  0.
         22    1    5    5    0    0 -0.26643239963E+03 -0.28552947897E+02  0.13185905409E+03  0.29864411019E+03  0.00000000000E+00 0. -1.
         22    1    5    5    0    0  0.18656774229E+03  0.65000999839E+02 -0.60288561307E+03  0.63443180476E+03  0.00000000000E+00 0. -1.
          5    1    4    4  502    0  0.40928984918E+02  0.25209941458E+02 -0.28778842124E+02  0.56223079858E+02  0.47000000000E+01 0.  1.
         -5    1    4    4    0  502  0.38935672427E+02 -0.61657993400E+02 -0.26331423473E+03  0.27326575151E+03  0.47000000000E+01 0.  1.
<mgrwt>
<rscale>  0 0.10058420E+04</rscale>
<asrwt>0</asrwt>
<pdfrwt beam="1">  1        1 0.15582187E+00 0.10058420E+04</pdfrwt>
<pdfrwt beam="2">  1       -1 0.38418855E-01 0.10058420E+04</pdfrwt>
<totfact> 0.10841122E+02</totfact>
</mgrwt>
</event>
<event>
 9    1  0.4296086E-036  0.9977012E+03  0.7818608E-02  0.8683230E-01
         -2   -1    0    0    0  501 -0.00000000000E+00  0.00000000000E+00  0.12268968542E+03  0.12268968542E+03  0.00000000000E+00 0. -1.
          2   -1    0    0  501    0  0.00000000000E+00 -0.00000000000E+00 -0.20283033750E+04  0.20283033750E+04  0.00000000000E+00 0. -1.
         36    2    1    2    0    0  0.00000000000E+00  0.00000000000E+00 -0.19056136896E+04  0.21509930605E+04  0.99770116371E+03 0.  0.
         25    2    3    3    0    0  0.75465638294E+02  0.11335489363E+03 -0.39254935408E+03  0.43402891786E+03  0.12546597818E+03 0.  0.
         35    2    3    3    0    0 -0.75465638294E+02 -0.11335489363E+03 -0.15130643355E+04  0.17169641426E+04  0.80003611731E+03 0.  0.
         22    1    5    5    0    0  0.21266624421E+03  0.11120551952E+02 -0.47530204969E+02  0.21819651346E+03  0.00000000000E+00 0.  1.
         22    1    5    5    0    0 -0.28813188250E+03 -0.12447544558E+03 -0.14655341306E+04  0.14987676291E+04  0.00000000000E+00 0.  1.
          5    1    4    4  502    0  0.10174624814E+03  0.11962487299E+03 -0.32053111872E+03  0.35696596101E+03  0.47000000000E+01 0.  1.
         -5    1    4    4    0  502 -0.26280609848E+02 -0.62699793634E+01 -0.72018235357E+02  0.77062956854E+02  0.47000000000E+01 0.  1.
<mgrwt>
<rscale>  0 0.99770116E+03</rscale>
<asrwt>0</asrwt>
<pdfrwt beam="1">  1        2 0.31204663E+00 0.99770116E+03</pdfrwt>
<pdfrwt beam="2">  1       -2 0.18875339E-01 0.99770116E+03</pdfrwt>
<totfact> 0.17847081E+02</totfact>
</mgrwt>
</event>
<event>
 9    1  0.4296086E-036  0.9999944E+03  0.7818608E-02  0.8681043E-01
          2   -1    0    0  501    0  0.00000000000E+00  0.00000000000E+00  0.28246851909E+03  0.28246851909E+03  0.00000000000E+00 0. -1.
         -2   -1    0    0    0  501 -0.00000000000E+00 -0.00000000000E+00 -0.88504453056E+03  0.88504453056E+03  0.00000000000E+00 0. -1.
         36    2    1    2    0    0  0.21316282073E-13  0.14210854715E-13 -0.60257601146E+03  0.11675130497E+04  0.99999443574E+03 0.  0.
         25    2    3    3    0    0 -0.35341174078E+02  0.50539342523E+02  0.30548030425E+02  0.14289488860E+03  0.12522996166E+03 0.  0.
         35    2    3    3    0    0  0.35341174078E+02 -0.50539342523E+02 -0.63312404189E+03  0.10246181610E+04  0.80323912990E+03 0.  0.
         22    1    5    5    0    0 -0.37009261505E+02  0.21093286062E+03  0.10478572609E+03  0.23841645396E+03  0.00000000000E+00 0.  1.
         22    1    5    5    0    0  0.72350435583E+02 -0.26147220315E+03 -0.73790976798E+03  0.78620170708E+03  0.00000000000E+00 0.  1.
          5    1    4    4  502    0 -0.42000180970E+02  0.88270481864E+02  0.35222224914E+02  0.10401148157E+03  0.47000000000E+01 0. -1.
         -5    1    4    4    0  502  0.66590068915E+01 -0.37731139340E+02 -0.46741944888E+01  0.38883407037E+02  0.47000000000E+01 0. -1.
<mgrwt>
<rscale>  0 0.99999444E+03</rscale>
<asrwt>0</asrwt>
<pdfrwt beam="1">  1        2 0.43456695E-01 0.99999444E+03</pdfrwt>
<pdfrwt beam="2">  1       -2 0.13616070E+00 0.99999444E+03</pdfrwt>
<totfact> 0.51991015E+01</totfact>
</mgrwt>
</event>
<event>
 9    1  0.4296086E-036  0.1001216E+04  0.7818608E-02  0.8679881E-01
         -1   -1    0    0    0  501 -0.00000000000E+00  0.00000000000E+00  0.31023341337E+03  0.31023341337E+03  0.00000000000E+00 0.  1.
          1   -1    0    0  501    0  0.00000000000E+00 -0.00000000000E+00 -0.80780561397E+03  0.80780561397E+03  0.00000000000E+00 0.  1.
         36    2    1    2    0    0  0.14210854715E-13  0.00000000000E+00 -0.49757220060E+03  0.11180390273E+04  0.10012158468E+04 0.  0.
         25    2    3    3    0    0  0.55890517615E+02 -0.92172504592E+02  0.82980580192E+01  0.16535189652E+03  0.12511143574E+03 0.  0.
         35    2    3    3    0    0 -0.55890517615E+02  0.92172504592E+02 -0.50587025862E+03  0.95268713083E+03  0.80005532942E+03 0.  0.
         22    1    5    5    0    0  0.31769259489E+03  0.16774926588E+03 -0.43640272221E+03  0.56525723083E+03  0.00000000000E+00 0.  1.
         22    1    5    5    0    0 -0.37358311251E+03 -0.75576761291E+02 -0.69467536405E+02  0.38742990000E+03  0.00000000000E+00 0.  1.
          5    1    4    4  502    0  0.17532975833E+02 -0.11428536680E+03  0.23925015317E+02  0.11816533613E+03  0.47000000000E+01 0.  1.
         -5    1    4    4    0  502  0.38357541783E+02  0.22112862207E+02 -0.15626957297E+02  0.47186560385E+02  0.47000000000E+01 0.  1.
<mgrwt>
<rscale>  0 0.10012158E+04</rscale>
<asrwt>0</asrwt>
<pdfrwt beam="1">  1        1 0.12427779E+00 0.10012158E+04</pdfrwt>
<pdfrwt beam="2">  1       -1 0.47728217E-01 0.10012158E+04</pdfrwt>
<totfact> 0.10860222E+02</totfact>
</mgrwt>
</event>
<event>
 9    1  0.4296086E-036  0.1000477E+04  0.7818608E-02  0.8680584E-01
          2   -1    0    0  501    0  0.00000000000E+00  0.00000000000E+00  0.38863838848E+03  0.38863838848E+03  0.00000000000E+00 0.  1.
         -2   -1    0    0    0  501 -0.00000000000E+00 -0.00000000000E+00 -0.64388568410E+03  0.64388568410E+03  0.00000000000E+00 0.  1.
         36    2    1    2    0    0  0.28421709430E-13 -0.42632564146E-13 -0.25524729562E+03  0.10325240726E+04  0.10004772754E+04 0.  0.
         25    2    3    3    0    0  0.12642443872E+03 -0.58897420723E+02 -0.57043536294E+02  0.19577625150E+03  0.12498932252E+03 0.  0.
         35    2    3    3    0    0 -0.12642443872E+03  0.58897420723E+02 -0.19820375933E+03  0.83674782108E+03  0.80088085318E+03 0.  0.
         22    1    5    5    0    0  0.16337991211E+03 -0.28993315488E+03 -0.18989565101E+03  0.38316391825E+03  0.00000000000E+00 0. -1.
         22    1    5    5    0    0 -0.28980435084E+03  0.34883057560E+03 -0.83081083152E+01  0.45358390282E+03  0.00000000000E+00 0. -1.
          5    1    4    4  502    0  0.71641512648E+02 -0.68386229143E+02 -0.87471801762E+02  0.13222174093E+03  0.47000000000E+01 0. -1.
         -5    1    4    4    0  502  0.54782926075E+02  0.94888084195E+01  0.30428265468E+02  0.63554510571E+02  0.47000000000E+01 0. -1.
<mgrwt>
<rscale>  0 0.10004773E+04</rscale>
<asrwt>0</asrwt>
<pdfrwt beam="1">  1        2 0.59790522E-01 0.10004773E+04</pdfrwt>
<pdfrwt beam="2">  1       -2 0.99059335E-01 0.10004773E+04</pdfrwt>
<totfact> 0.82486701E+01</totfact>
</mgrwt>
</event>
<event>
 9    1  0.4296086E-036  0.9992180E+03  0.7818608E-02  0.8681783E-01
          2   -1    0    0  501    0  0.00000000000E+00  0.00000000000E+00  0.15044778634E+04  0.15044778634E+04  0.00000000000E+00 0. -1.
         -2   -1    0    0    0  501 -0.00000000000E+00 -0.00000000000E+00 -0.16591082308E+03  0.16591082308E+03  0.00000000000E+00 0. -1.
         36    2    1    2    0    0 -0.28421709430E-13 -0.71054273576E-14  0.13385670404E+04  0.16703886865E+04  0.99921801552E+03 0.  0.
         25    2    3    3    0    0 -0.67402772330E+02  0.57933524388E+02  0.68504673397E+02  0.16729382730E+03  0.12407621613E+03 0.  0.
         35    2    3    3    0    0  0.67402772330E+02 -0.57933524388E+02  0.12700623670E+04  0.15030948592E+04  0.79895951894E+03 0.  0.
         22    1    5    5    0    0  0.30730791703E+03  0.27240231909E+02  0.12000422667E+04  0.12390648199E+04  0.00000000000E+00 0.  1.
         22    1    5    5    0    0 -0.23990514470E+03 -0.85173756297E+02  0.70020100260E+02  0.26403003930E+03  0.00000000000E+00 0.  1.
          5    1    4    4  502    0 -0.61876510465E+02 -0.83674403777E+00  0.85534766183E+02  0.10567728665E+03  0.47000000000E+01 0.  1.
         -5    1    4    4    0  502 -0.55262618652E+01  0.58770268426E+02 -0.17030092786E+02  0.61616540647E+02  0.47000000000E+01 0.  1.
<mgrwt>
<rscale>  0 0.99921802E+03</rscale>
<asrwt>0</asrwt>
<pdfrwt beam="1">  1        2 0.23145812E+00 0.99921802E+03</pdfrwt>
<pdfrwt beam="2">  1       -2 0.25524743E-01 0.99921802E+03</pdfrwt>
<totfact> 0.20824862E+02</totfact>
</mgrwt>
</event>
<event>
 9    1  0.4296086E-036  0.9957207E+03  0.7818608E-02  0.8685124E-01
         -1   -1    0    0    0  501 -0.00000000000E+00  0.00000000000E+00  0.86441452223E+03  0.86441452223E+03  0.00000000000E+00 0. -1.
          1   -1    0    0  501    0  0.00000000000E+00 -0.00000000000E+00 -0.28674314982E+03  0.28674314982E+03  0.00000000000E+00 0. -1.
         36    2    1    2    0    0 -0.28421709430E-13 -0.71054273576E-14  0.57767137241E+03  0.11511576720E+04  0.99572072963E+03 0.  0.
         25    2    3    3    0    0 -0.12175934728E+03  0.30410589896E+02  0.64101589473E+02  0.19018600656E+03  0.12771672049E+03 0.  0.
         35    2    3    3    0    0  0.12175934728E+03 -0.30410589896E+02  0.51356978294E+03  0.96097166548E+03  0.80247272682E+03 0.  0.
         22    1    5    5    0    0  0.39937150917E+03  0.16460024288E+03  0.43436557362E+03  0.61258819270E+03  0.00000000000E+00 0.  1.
         22    1    5    5    0    0 -0.27761216190E+03 -0.19501083278E+03  0.79204209316E+02  0.34838347278E+03  0.00000000000E+00 0.  1.
          5    1    4    4  502    0 -0.11482236805E+01  0.55230614946E+02  0.14155598694E+02  0.57220714949E+02  0.47000000000E+01 0.  1.
         -5    1    4    4    0  502 -0.12061112360E+03 -0.24820025050E+02  0.49945990780E+02  0.13296529161E+03  0.47000000000E+01 0.  1.
<mgrwt>
<rscale>  0 0.99572073E+03</rscale>
<asrwt>0</asrwt>
<pdfrwt beam="1">  1        1 0.44114331E-01 0.99572073E+03</pdfrwt>
<pdfrwt beam="2">  1       -1 0.13298685E+00 0.99572073E+03</pdfrwt>
<totfact> 0.53239458E+01</totfact>
</mgrwt>
</event>
<event>
 9    1  0.4296086E-036  0.9998401E+03  0.7818608E-02  0.8681190E-01
         -1   -1    0    0    0  501 -0.00000000000E+00  0.00000000000E+00  0.20289519453E+03  0.20289519453E+03  0.00000000000E+00 0.  1.
          1   -1    0    0  501    0  0.00000000000E+00 -0.00000000000E+00 -0.12317691641E+04  0.12317691641E+04  0.00000000000E+00 0.  1.
         36    2    1    2    0    0  0.42632564146E-13 -0.28421709430E-13 -0.10288739696E+04  0.14346643587E+04  0.99984007556E+03 0.  0.
         25    2    3    3    0    0 -0.15219318016E+02 -0.13459591464E+03 -0.25056022647E+03  0.31111687858E+03  0.12516228335E+03 0.  0.
         35    2    3    3    0    0  0.15219318016E+02  0.13459591464E+03 -0.77831374312E+03  0.11235474801E+04  0.79889859768E+03 0.  0.
         22    1    5    5    0    0 -0.31644506935E+03 -0.10884372152E+03 -0.13697322121E+03  0.36158830313E+03  0.00000000000E+00 0. -1.
         22    1    5    5    0    0  0.33166438736E+03  0.24343963615E+03 -0.64134052191E+03  0.76195917695E+03  0.00000000000E+00 0. -1.
          5    1    4    4  502    0 -0.34914291778E+02 -0.14588370602E+03 -0.24494442056E+03  0.28726455161E+03  0.47000000000E+01 0. -1.
         -5    1    4    4    0  502  0.19694973763E+02  0.11287791381E+02 -0.56158059132E+01  0.23852326969E+02  0.47000000000E+01 0. -1.
<mgrwt>
<rscale>  0 0.99984008E+03</rscale>
<asrwt>0</asrwt>
<pdfrwt beam="1">  1        1 0.18950295E+00 0.99984008E+03</pdfrwt>
<pdfrwt beam="2">  1       -1 0.31214645E-01 0.99984008E+03</pdfrwt>
<totfact> 0.10600520E+02</totfact>
</mgrwt>
</event>
<event>
 9    1  0.4296086E-036  0.1000241E+04  0.7818608E-02  0.8680808E-01
         -2   -1    0    0    0  501 -0.00000000000E+00  0.00000000000E+00  0.66230901226E+02  0.66230901226E+02  0.00000000000E+00 0. -1.
          2   -1    0    0  501    0  0.00000000000E+00 -0.00000000000E+00 -0.37764928033E+04  0.37764928033E+04  0.00000000000E+00 0. -1.
         36    2    1    2    0    0  0.00000000000E+00  0.00000000000E+00 -0.37102619021E+04  0.38427237045E+04  0.10002410146E+04 0.  0.
         25    2    3    3    0    0  0.10101745990E+03 -0.68984154449E+02 -0.98707789531E+03  0.10023493676E+04  0.12416981351E+03 0.  0.
         35    2    3    3    0    0 -0.10101745990E+03  0.68984154449E+02 -0.27231840068E+04  0.28403743369E+04  0.79814278065E+03 0.  0.
         22    1    5    5    0    0 -0.24510119889E+03  0.23305913809E+03 -0.25184110979E+04  0.25410205858E+04  0.00000000000E+00 0.  1.
         22    1    5    5    0    0  0.14408373898E+03 -0.16407498364E+03 -0.20477290893E+03  0.29935375115E+03  0.00000000000E+00 0.  1.
          5    1    4    4  502    0  0.48677489468E+02 -0.10070884705E+03 -0.68630875135E+03  0.69538015649E+03  0.47000000000E+01 0.  1.
         -5    1    4    4    0  502  0.52339970433E+02  0.31724692599E+02 -0.30076914396E+03  0.30696921113E+03  0.47000000000E+01 0.  1.
<mgrwt>
<rscale>  0 0.10002410E+04</rscale>
<asrwt>0</asrwt>
<pdfrwt beam="1">  1        2 0.58099900E+00 0.10002410E+04</pdfrwt>
<pdfrwt beam="2">  1       -2 0.10189368E-01 0.10002410E+04</pdfrwt>
<totfact> 0.33951442E+01</totfact>
</mgrwt>
</event>
<event>
 9    1  0.4296086E-036  0.9993911E+03  0.7818608E-02  0.8681618E-01
         -1   -1    0    0    0  501 -0.00000000000E+00  0.00000000000E+00  0.37175673813E+03  0.37175673813E+03  0.00000000000E+00 0.  1.
          1   -1    0    0  501    0  0.00000000000E+00 -0.00000000000E+00 -0.67166403839E+03  0.67166403839E+03  0.00000000000E+00 0.  1.
         36    2    1    2    0    0  0.14210854715E-13  0.00000000000E+00 -0.29990730026E+03  0.10434207765E+04  0.99939107868E+03 0.  0.
         25    2    3    3    0    0 -0.77300607219E+02  0.54864442877E+02  0.52543518082E+02  0.16201009347E+03  0.12041992412E+03 0.  0.
         35    2    3    3    0    0  0.77300607219E+02 -0.54864442877E+02 -0.35245081834E+03  0.88141068306E+03  0.80229528348E+03 0.  0.
         22    1    5    5    0    0 -0.18649711705E+03  0.27903388997E+03 -0.10962464873E+02  0.33579943725E+03  0.00000000000E+00 0. -1.
         22    1    5    5    0    0  0.26379772427E+03 -0.33389833285E+03 -0.34148835347E+03  0.54561124581E+03  0.00000000000E+00 0. -1.
          5    1    4    4  502    0 -0.16005819043E+02 -0.14049402890E+02 -0.30715196666E+02  0.37670748215E+02  0.47000000000E+01 0.  1.
         -5    1    4    4    0  502 -0.61294788176E+02  0.68913845768E+02  0.83258714748E+02  0.12433934525E+03  0.47000000000E+01 0.  1.
<mgrwt>
<rscale>  0 0.99939108E+03</rscale>
<asrwt>0</asrwt>
<pdfrwt beam="1">  1        1 0.10333293E+00 0.99939108E+03</pdfrwt>
<pdfrwt beam="2">  1       -1 0.57193344E-01 0.99939108E+03</pdfrwt>
<totfact> 0.10356464E+02</totfact>
</mgrwt>
</event>
<event>
 9    1  0.4296086E-036  0.9992915E+03  0.7818608E-02  0.8681713E-01
          2   -1    0    0  501    0  0.00000000000E+00  0.00000000000E+00  0.16301465469E+04  0.16301465469E+04  0.00000000000E+00 0. -1.
         -2   -1    0    0    0  501 -0.00000000000E+00 -0.00000000000E+00 -0.15314320366E+03  0.15314320366E+03  0.00000000000E+00 0. -1.
         36    2    1    2    0    0  0.14210854715E-13 -0.71054273576E-14  0.14770033432E+04  0.17832897505E+04  0.99929147824E+03 0.  0.
         25    2    3    3    0    0  0.59189649042E+02  0.14878328951E+02  0.54181041511E+02  0.14925275940E+03  0.12496408165E+03 0.  0.
         35    2    3    3    0    0 -0.59189649042E+02 -0.14878328951E+02  0.14228223017E+04  0.16340369911E+04  0.80120459742E+03 0.  0.
         22    1    5    5    0    0 -0.31640717301E+03  0.53332510994E+02  0.13034808440E+04  0.13423934470E+04  0.00000000000E+00 0.  1.
         22    1    5    5    0    0  0.25721752396E+03 -0.68210839946E+02  0.11934145774E+03  0.29164354417E+03  0.00000000000E+00 0.  1.
          5    1    4    4  502    0  0.19821982118E+02 -0.96068287222E+01  0.88537920787E+02  0.91357843399E+02  0.47000000000E+01 0.  1.
         -5    1    4    4    0  502  0.39367666923E+02  0.24485157673E+02 -0.34356879276E+02  0.57894916002E+02  0.47000000000E+01 0.  1.
<mgrwt>
<rscale>  0 0.99929148E+03</rscale>
<asrwt>0</asrwt>
<pdfrwt beam="1">  1        2 0.25079176E+00 0.99929148E+03</pdfrwt>
<pdfrwt beam="2">  1       -2 0.23560494E-01 0.99929148E+03</pdfrwt>
<totfact> 0.20379191E+02</totfact>
</mgrwt>
</event>
<event>
 9    1  0.4296086E-036  0.9976899E+03  0.7818608E-02  0.8683241E-01
         -2   -1    0    0    0  501 -0.00000000000E+00  0.00000000000E+00  0.14642536342E+03  0.14642536342E+03  0.00000000000E+00 0. -1.
          2   -1    0    0  501    0  0.00000000000E+00 -0.00000000000E+00 -0.16994751360E+04  0.16994751360E+04  0.00000000000E+00 0. -1.
         36    2    1    2    0    0 -0.71054273576E-14  0.00000000000E+00 -0.15530497726E+04  0.18459004994E+04  0.99768986043E+03 0.  0.
         25    2    3    3    0    0  0.58366864036E+02  0.11236942336E+03 -0.37551673890E+03  0.41627274765E+03  0.12742292226E+03 0.  0.
         35    2    3    3    0    0 -0.58366864036E+02 -0.11236942336E+03 -0.11775330337E+04  0.14296277517E+04  0.80076081639E+03 0.  0.
         22    1    5    5    0    0  0.13286718592E+03 -0.36848665898E+03 -0.97623170853E+03  0.10518861420E+04  0.00000000000E+00 0.  1.
         22    1    5    5    0    0 -0.19123404996E+03  0.25611723562E+03 -0.20130132512E+03  0.37774160975E+03  0.00000000000E+00 0.  1.
          5    1    4    4  502    0 -0.92244086943E+01 -0.16959548186E+02 -0.91298790776E+01  0.21866885522E+02  0.47000000000E+01 0.  1.
         -5    1    4    4    0  502  0.67591272730E+02  0.12932897155E+03 -0.36638685982E+03  0.39440586213E+03  0.47000000000E+01 0.  1.
<mgrwt>
<rscale>  0 0.99768986E+03</rscale>
<asrwt>0</asrwt>
<pdfrwt beam="1">  1        2 0.26145773E+00 0.99768986E+03</pdfrwt>
<pdfrwt beam="2">  1       -2 0.22526977E-01 0.99768986E+03</pdfrwt>
<totfact> 0.20153133E+02</totfact>
</mgrwt>
</event>
<event>
 9    1  0.4296086E-036  0.9994474E+03  0.7818608E-02  0.8681564E-01
         -2   -1    0    0    0  501 -0.00000000000E+00  0.00000000000E+00  0.13796281700E+03  0.13796281700E+03  0.00000000000E+00 0.  1.
          2   -1    0    0  501    0  0.00000000000E+00 -0.00000000000E+00 -0.18100802893E+04  0.18100802893E+04  0.00000000000E+00 0.  1.
         36    2    1    2    0    0  0.28421709430E-13  0.71054273576E-14 -0.16721174723E+04  0.19480431063E+04  0.99944739873E+03 0.  0.
         25    2    3    3    0    0 -0.13237889348E+03  0.39952885610E+02 -0.30861875230E+03  0.36127741286E+03  0.12710401356E+03 0.  0.
         35    2    3    3    0    0  0.13237889348E+03 -0.39952885610E+02 -0.13634987200E+04  0.15867656934E+04  0.79973508235E+03 0.  0.
         22    1    5    5    0    0  0.39442677377E+03  0.17733975778E+03 -0.99595087877E+03  0.10857900453E+04  0.00000000000E+00 0. -1.
         22    1    5    5    0    0 -0.26204788029E+03 -0.21729264339E+03 -0.36754784124E+03  0.50097564815E+03  0.00000000000E+00 0. -1.
          5    1    4    4  502    0 -0.95341905635E+02  0.79158661981E+02 -0.26187073924E+03  0.28974911011E+03  0.47000000000E+01 0.  1.
         -5    1    4    4    0  502 -0.37036987846E+02 -0.39205776371E+02 -0.46748013058E+02  0.71528302751E+02  0.47000000000E+01 0.  1.
<mgrwt>
<rscale>  0 0.99944740E+03</rscale>
<asrwt>0</asrwt>
<pdfrwt beam="1">  1        2 0.27847388E+00 0.99944740E+03</pdfrwt>
<pdfrwt beam="2">  1       -2 0.21225050E-01 0.99944740E+03</pdfrwt>
<totfact> 0.19371496E+02</totfact>
</mgrwt>
</event>
<event>
 9    1  0.4296086E-036  0.1001328E+04  0.7818608E-02  0.8679774E-01
         -1   -1    0    0    0  501 -0.00000000000E+00  0.00000000000E+00  0.37620739627E+03  0.37620739627E+03  0.00000000000E+00 0.  1.
          1   -1    0    0  501    0  0.00000000000E+00 -0.00000000000E+00 -0.66629342382E+03  0.66629342382E+03  0.00000000000E+00 0.  1.
         36    2    1    2    0    0  0.35527136788E-14  0.28421709430E-13 -0.29008602755E+03  0.10425008201E+04  0.10013281463E+04 0.  0.
         25    2    3    3    0    0 -0.40362405366E+01  0.10422989183E+03 -0.15353712983E+03  0.22373928097E+03  0.12492179163E+03 0.  0.
         35    2    3    3    0    0  0.40362405366E+01 -0.10422989183E+03 -0.13654889772E+03  0.81876153911E+03  0.80052776022E+03 0.  0.
         22    1    5    5    0    0 -0.28486663480E+03  0.22777063570E+03 -0.93732472756E+02  0.37658231312E+03  0.00000000000E+00 0. -1.
         22    1    5    5    0    0  0.28890287533E+03 -0.33200052753E+03 -0.42816424966E+02  0.44217922599E+03  0.00000000000E+00 0. -1.
          5    1    4    4  502    0  0.24795404220E+02  0.76378852406E+02 -0.16345596734E+03  0.18217706888E+03  0.47000000000E+01 0.  1.
         -5    1    4    4    0  502 -0.28831644757E+02  0.27851039423E+02  0.99188375114E+01  0.41562212091E+02  0.47000000000E+01 0.  1.
<mgrwt>
<rscale>  0 0.10013281E+04</rscale>
<asrwt>0</asrwt>
<pdfrwt beam="1">  1        1 0.10250668E+00 0.10013281E+04</pdfrwt>
<pdfrwt beam="2">  1       -1 0.57878061E-01 0.10013281E+04</pdfrwt>
<totfact> 0.10246272E+02</totfact>
</mgrwt>
</event>
<event>
 9    1  0.4296086E-036  0.1000159E+04  0.7818608E-02  0.8680886E-01
         -2   -1    0    0    0  501 -0.00000000000E+00  0.00000000000E+00  0.14738262660E+03  0.14738262660E+03  0.00000000000E+00 0.  1.
          2   -1    0    0  501    0  0.00000000000E+00 -0.00000000000E+00 -0.16968058846E+04  0.16968058846E+04  0.00000000000E+00 0.  1.
         36    2    1    2    0    0 -0.71054273576E-14 -0.14210854715E-13 -0.15494232580E+04  0.18441885112E+04  0.10001594035E+04 0.  0.
         25    2    3    3    0    0  0.10064178508E+02  0.88621591738E+02 -0.48246701009E+03  0.50767172507E+03  0.13038822950E+03 0.  0.
         35    2    3    3    0    0 -0.10064178508E+02 -0.88621591738E+02 -0.10669562479E+04  0.13365167862E+04  0.79995400521E+03 0.  0.
         22    1    5    5    0    0  0.60464582285E+02  0.11025720375E+03  0.93709661327E+02  0.15682511698E+03  0.00000000000E+00 0.  1.
         22    1    5    5    0    0 -0.70528760793E+02 -0.19887879549E+03 -0.11606659093E+04  0.11796916692E+04  0.00000000000E+00 0.  1.
          5    1    4    4  502    0 -0.41500707327E+02  0.58802116408E+02 -0.39633029397E+03  0.40283965734E+03  0.47000000000E+01 0. -1.
         -5    1    4    4    0  502  0.51564885835E+02  0.29819475330E+02 -0.86136716121E+02  0.10483206773E+03  0.47000000000E+01 0. -1.
<mgrwt>
<rscale>  0 0.10001594E+04</rscale>
<asrwt>0</asrwt>
<pdfrwt beam="1">  1        2 0.26104705E+00 0.10001594E+04</pdfrwt>
<pdfrwt beam="2">  1       -2 0.22674251E-01 0.10001594E+04</pdfrwt>
<totfact> 0.19993325E+02</totfact>
</mgrwt>
</event>
<event>
 9    1  0.4296086E-036  0.9977166E+03  0.7818608E-02  0.8683216E-01
          2   -1    0    0  501    0  0.00000000000E+00  0.00000000000E+00  0.15936740688E+03  0.15936740688E+03  0.00000000000E+00 0. -1.
         -2   -1    0    0    0  501 -0.00000000000E+00 -0.00000000000E+00 -0.15615463076E+04  0.15615463076E+04  0.00000000000E+00 0. -1.
         36    2    1    2    0    0  0.53290705182E-14  0.14210854715E-13 -0.14021789007E+04  0.17209137145E+04  0.99771656450E+03 0.  0.
         25    2    3    3    0    0  0.15101409310E+02  0.10535936490E+03 -0.41323864833E+03  0.44481566284E+03  0.12556331112E+03 0.  0.
         35    2    3    3    0    0 -0.15101409310E+02 -0.10535936490E+03 -0.98894025239E+03  0.12760980516E+04  0.79943402872E+03 0.  0.
         22    1    5    5    0    0  0.15098793707E+02 -0.18281820614E+03 -0.11123071357E+04  0.11273320869E+04  0.00000000000E+00 0. -1.
         22    1    5    5    0    0 -0.30200203017E+02  0.77458841242E+02  0.12336688334E+03  0.14876596470E+03  0.00000000000E+00 0. -1.
          5    1    4    4  502    0 -0.52449897885E+02  0.46602947307E+02 -0.13100601060E+03  0.14868588131E+03  0.47000000000E+01 0.  1.
         -5    1    4    4    0  502  0.67551307195E+02  0.58756417589E+02 -0.28223263773E+03  0.29612978154E+03  0.47000000000E+01 0.  1.
<mgrwt>
<rscale>  0 0.99771656E+03</rscale>
<asrwt>0</asrwt>
<pdfrwt beam="1">  1        2 0.24518061E-01 0.99771656E+03</pdfrwt>
<pdfrwt beam="2">  1       -2 0.24023791E+00 0.99771656E+03</pdfrwt>
<totfact> 0.17763986E+01</totfact>
</mgrwt>
</event>
<event>
 9    1  0.4296086E-036  0.9998770E+03  0.7818608E-02  0.8681155E-01
         -2   -1    0    0    0  501 -0.00000000000E+00  0.00000000000E+00  0.64195197368E+03  0.64195197368E+03  0.00000000000E+00 0.  1.
          2   -1    0    0  501    0  0.00000000000E+00 -0.00000000000E+00 -0.38934147448E+03  0.38934147448E+03  0.00000000000E+00 0.  1.
         36    2    1    2    0    0 -0.14210854715E-13  0.00000000000E+00  0.25261049920E+03  0.10312934482E+04  0.99987704840E+03 0.  0.
         25    2    3    3    0    0  0.10972092386E+03 -0.86030692033E+02  0.44771601622E+02  0.19229396609E+03  0.12462949883E+03 0.  0.
         35    2    3    3    0    0 -0.10972092386E+03  0.86030692033E+02  0.20783889758E+03  0.83899948207E+03  0.80080157497E+03 0.  0.
         22    1    5    5    0    0  0.31071554104E+03 -0.80615838790E+02 -0.39666331492E+02  0.32344470742E+03  0.00000000000E+00 0. -1.
         22    1    5    5    0    0 -0.42043646489E+03  0.16664653082E+03  0.24750522907E+03  0.51555477465E+03  0.00000000000E+00 0. -1.
          5    1    4    4  502    0  0.57978345932E+02 -0.11188715675E+03  0.14777739296E+02  0.12696730296E+03  0.47000000000E+01 0.  1.
         -5    1    4    4    0  502  0.51742577924E+02  0.25856464719E+02  0.29993862326E+02  0.65326663126E+02  0.47000000000E+01 0.  1.
<mgrwt>
<rscale>  0 0.99987705E+03</rscale>
<asrwt>0</asrwt>
<pdfrwt beam="1">  1        2 0.59898688E-01 0.99987705E+03</pdfrwt>
<pdfrwt beam="2">  1       -2 0.98761842E-01 0.99987705E+03</pdfrwt>
<totfact> 0.82926675E+01</totfact>
</mgrwt>
</event>
<event>
 9    1  0.4296086E-036  0.9997590E+03  0.7818608E-02  0.8681267E-01
         -1   -1    0    0    0  501 -0.00000000000E+00  0.00000000000E+00  0.25036790580E+03  0.25036790580E+03  0.00000000000E+00 0. -1.
          1   -1    0    0  501    0  0.00000000000E+00 -0.00000000000E+00 -0.99804928180E+03  0.99804928180E+03  0.00000000000E+00 0. -1.
         36    2    1    2    0    0  0.00000000000E+00  0.00000000000E+00 -0.74768137600E+03  0.12484171876E+04  0.99975898810E+03 0.  0.
         25    2    3    3    0    0  0.12108911868E+03 -0.46207766160E+02 -0.75289920173E+02  0.19545906536E+03  0.12545095391E+03 0.  0.
         35    2    3    3    0    0 -0.12108911868E+03  0.46207766160E+02 -0.67239145583E+03  0.10529581222E+04  0.79988299457E+03 0.  0.
         22    1    5    5    0    0  0.28378704499E+03 -0.13086257825E+03 -0.47591211178E+03  0.56934386747E+03  0.00000000000E+00 0. -1.
         22    1    5    5    0    0 -0.40487616367E+03  0.17707034441E+03 -0.19647934404E+03  0.48361425476E+03  0.00000000000E+00 0. -1.
          5    1    4    4  502    0  0.12239952039E+03 -0.57858559584E+02 -0.17839807523E+02  0.13663676021E+03  0.47000000000E+01 0. -1.
         -5    1    4    4    0  502 -0.13104017115E+01  0.11650793423E+02 -0.57450112650E+02  0.58822305153E+02  0.47000000000E+01 0. -1.
<mgrwt>
<rscale>  0 0.99975899E+03</rscale>
<asrwt>0</asrwt>
<pdfrwt beam="1">  1        1 0.15354604E+00 0.99975899E+03</pdfrwt>
<pdfrwt beam="2">  1       -1 0.38518139E-01 0.99975899E+03</pdfrwt>
<totfact> 0.11093047E+02</totfact>
</mgrwt>
</event>
<event>
 9    1  0.4296086E-036  0.9997207E+03  0.7818608E-02  0.8681304E-01
         -1   -1    0    0    0  501 -0.00000000000E+00  0.00000000000E+00  0.34261935340E+03  0.34261935340E+03  0.00000000000E+00 0. -1.
          1   -1    0    0  501    0  0.00000000000E+00 -0.00000000000E+00 -0.72926521478E+03  0.72926521478E+03  0.00000000000E+00 0. -1.
         36    2    1    2    0    0  0.28421709430E-13 -0.21316282073E-13 -0.38664586137E+03  0.10718845682E+04  0.99972071370E+03 0.  0.
         25    2    3    3    0    0 -0.11112422170E+03 -0.30101186193E+02 -0.15604804134E+03  0.23106617788E+03  0.12564200451E+03 0.  0.
         35    2    3    3    0    0  0.11112422170E+03  0.30101186193E+02 -0.23059782003E+03  0.84081839030E+03  0.80034088787E+03 0.  0.
         22    1    5    5    0    0  0.38263351990E+03  0.22482690898E+03 -0.24396340640E+03  0.50643231849E+03  0.00000000000E+00 0.  1.
         22    1    5    5    0    0 -0.27150929819E+03 -0.19472572279E+03  0.13365586366E+02  0.33438607181E+03  0.00000000000E+00 0.  1.
          5    1    4    4  502    0 -0.95410376673E+02 -0.63536341861E+02 -0.15622347343E+03  0.19382432862E+03  0.47000000000E+01 0. -1.
         -5    1    4    4    0  502 -0.15713845030E+02  0.33435155668E+02  0.17543209248E+00  0.37241849264E+02  0.47000000000E+01 0. -1.
<mgrwt>
<rscale>  0 0.99972071E+03</rscale>
<asrwt>0</asrwt>
<pdfrwt beam="1">  1        1 0.11219465E+00 0.99972071E+03</pdfrwt>
<pdfrwt beam="2">  1       -1 0.52710670E-01 0.99972071E+03</pdfrwt>
<totfact> 0.10642895E+02</totfact>
</mgrwt>
</event>
<event>
 9    1  0.4296086E-036  0.9998450E+03  0.7818608E-02  0.8681186E-01
          1   -1    0    0  501    0  0.00000000000E+00  0.00000000000E+00  0.60388196282E+03  0.60388196282E+03  0.00000000000E+00 0. -1.
         -1   -1    0    0    0  501 -0.00000000000E+00 -0.00000000000E+00 -0.41385988684E+03  0.41385988684E+03  0.00000000000E+00 0. -1.
         36    2    1    2    0    0  0.35527136788E-14  0.00000000000E+00  0.19002207597E+03  0.10177418497E+04  0.99984502959E+03 0.  0.
         25    2    3    3    0    0  0.64828651437E+01 -0.14545060284E+03  0.34200612006E+02  0.19406247743E+03  0.12366348643E+03 0.  0.
         35    2    3    3    0    0 -0.64828651437E+01  0.14545060284E+03  0.15582146396E+03  0.82367937224E+03  0.79559378718E+03 0.  0.
         22    1    5    5    0    0 -0.27010841092E+02 -0.32011162715E+03 -0.28556485025E+02  0.32251591001E+03  0.00000000000E+00 0. -1.
         22    1    5    5    0    0  0.20527975949E+02  0.46556222999E+03  0.18437794899E+03  0.50116346222E+03  0.00000000000E+00 0. -1.
          5    1    4    4  502    0 -0.52698979998E+02 -0.59259488738E+02  0.40586586079E+02  0.89208914733E+02  0.47000000000E+01 0. -1.
         -5    1    4    4    0  502  0.59181845141E+02 -0.86191114102E+02 -0.63859740731E+01  0.10485356269E+03  0.47000000000E+01 0. -1.
<mgrwt>
<rscale>  0 0.99984503E+03</rscale>
<asrwt>0</asrwt>
<pdfrwt beam="1">  1        1 0.92904917E-01 0.99984503E+03</pdfrwt>
<pdfrwt beam="2">  1       -1 0.63670752E-01 0.99984503E+03</pdfrwt>
<totfact> 0.98735244E+01</totfact>
</mgrwt>
</event>
<event>
 9    1  0.4296086E-036  0.1001508E+04  0.7818608E-02  0.8679603E-01
         -2   -1    0    0    0  501 -0.00000000000E+00  0.00000000000E+00  0.27352081675E+03  0.27352081675E+03  0.00000000000E+00 0. -1.
          2   -1    0    0  501    0  0.00000000000E+00 -0.00000000000E+00 -0.91676604777E+03  0.91676604777E+03  0.00000000000E+00 0. -1.
         36    2    1    2    0    0 -0.28421709430E-13 -0.14210854715E-13 -0.64324523102E+03  0.11902868645E+04  0.10015080592E+04 0.  0.
         25    2    3    3    0    0  0.11687564697E+03  0.78205496176E+02 -0.16136607658E+03  0.24560073260E+03  0.12043542957E+03 0.  0.
         35    2    3    3    0    0 -0.11687564697E+03 -0.78205496176E+02 -0.48187915444E+03  0.94468613191E+03  0.80028017085E+03 0.  0.
         22    1    5    5    0    0  0.27246674115E+03 -0.46960145599E+02  0.53856509179E+02  0.28168049966E+03  0.00000000000E+00 0. -1.
         22    1    5    5    0    0 -0.38934238812E+03 -0.31245350577E+02 -0.53573566362E+03  0.66300563225E+03  0.00000000000E+00 0. -1.
          5    1    4    4  502    0  0.30038085598E+02  0.58200828109E+02 -0.13881104965E+03  0.15355852463E+03  0.47000000000E+01 0.  1.
         -5    1    4    4    0  502  0.86837561372E+02  0.20004668067E+02 -0.22555026928E+02  0.92042207976E+02  0.47000000000E+01 0.  1.
<mgrwt>
<rscale>  0 0.10015081E+04</rscale>
<asrwt>0</asrwt>
<pdfrwt beam="1">  1        2 0.14104093E+00 0.10015081E+04</pdfrwt>
<pdfrwt beam="2">  1       -2 0.42080125E-01 0.10015081E+04</pdfrwt>
<totfact> 0.18497692E+02</totfact>
</mgrwt>
</event>
<event>
 9    1  0.4296086E-036  0.1000132E+04  0.7818608E-02  0.8680912E-01
         -1   -1    0    0    0  501 -0.00000000000E+00  0.00000000000E+00  0.47771179845E+03  0.47771179845E+03  0.00000000000E+00 0. -1.
          1   -1    0    0  501    0  0.00000000000E+00 -0.00000000000E+00 -0.52346652978E+03  0.52346652978E+03  0.00000000000E+00 0. -1.
         36    2    1    2    0    0 -0.71054273576E-14  0.00000000000E+00 -0.45754731337E+02  0.10011783282E+04  0.10001322660E+04 0.  0.
         25    2    3    3    0    0  0.16446771141E+02  0.54531930939E+02  0.11742992538E+03  0.18292192564E+03  0.12816557936E+03 0.  0.
         35    2    3    3    0    0 -0.16446771141E+02 -0.54531930939E+02 -0.16318465671E+03  0.81825640259E+03  0.79979377369E+03 0.  0.
         22    1    5    5    0    0  0.27970278026E+03  0.71365560603E+02  0.18600424521E+03  0.34340103051E+03  0.00000000000E+00 0.  1.
         22    1    5    5    0    0 -0.29614955140E+03 -0.12589749154E+03 -0.34918890192E+03  0.47485537208E+03  0.00000000000E+00 0.  1.
          5    1    4    4  502    0 -0.54720405452E+02  0.27624327931E+02  0.35402624219E+02  0.70942667472E+02  0.47000000000E+01 0. -1.
         -5    1    4    4    0  502  0.71167176594E+02  0.26907603008E+02  0.82027301159E+02  0.11197925817E+03  0.47000000000E+01 0. -1.
<mgrwt>
<rscale>  0 0.10001323E+04</rscale>
<asrwt>0</asrwt>
<pdfrwt beam="1">  1        1 0.80533312E-01 0.10001323E+04</pdfrwt>
<pdfrwt beam="2">  1       -1 0.73494123E-01 0.10001323E+04</pdfrwt>
<totfact> 0.91262193E+01</totfact>
</mgrwt>
</event>
<event>
 9    1  0.4296086E-036  0.1000089E+04  0.7818608E-02  0.8680953E-01
         -3   -1    0    0    0  501 -0.00000000000E+00  0.00000000000E+00  0.48435522307E+03  0.48435522307E+03  0.00000000000E+00 0. -1.
          3   -1    0    0  501    0  0.00000000000E+00 -0.00000000000E+00 -0.51624192572E+03  0.51624192572E+03  0.00000000000E+00 0. -1.
         36    2    1    2    0    0  0.00000000000E+00  0.28421709430E-13 -0.31886702642E+02  0.10005971488E+04  0.10000889422E+04 0.  0.
         25    2    3    3    0    0 -0.48540518418E+02  0.69513623875E+02 -0.11778614957E+03  0.19127861197E+03  0.12460178383E+03 0.  0.
         35    2    3    3    0    0  0.48540518418E+02 -0.69513623875E+02  0.85899446924E+02  0.80931853682E+03  0.80026836326E+03 0.  0.
         22    1    5    5    0    0 -0.73327839431E+02 -0.36749725201E+03 -0.15672031739E+03  0.40619263922E+03  0.00000000000E+00 0.  1.
         22    1    5    5    0    0  0.12186835785E+03  0.29798362814E+03  0.24261976431E+03  0.40312589760E+03  0.00000000000E+00 0.  1.
          5    1    4    4  502    0 -0.22718296426E+01  0.95591992006E+02 -0.61711550867E+02  0.11390081499E+03  0.47000000000E+01 0.  1.
         -5    1    4    4    0  502 -0.46268688776E+02 -0.26078368130E+02 -0.56074598699E+02  0.77377796974E+02  0.47000000000E+01 0.  1.
<mgrwt>
<rscale>  0 0.10000889E+04</rscale>
<asrwt>0</asrwt>
<pdfrwt beam="1">  1        3 0.79421835E-01 0.10000889E+04</pdfrwt>
<pdfrwt beam="2">  1       -3 0.74516188E-01 0.10000889E+04</pdfrwt>
<totfact> 0.10080186E+01</totfact>
</mgrwt>
</event>
<event>
 9    1  0.4296086E-036  0.9992166E+03  0.7818608E-02  0.8681784E-01
         -3   -1    0    0    0  501 -0.00000000000E+00  0.00000000000E+00  0.11786152458E+03  0.11786152458E+03  0.00000000000E+00 0. -1.
          3   -1    0    0  501    0  0.00000000000E+00 -0.00000000000E+00 -0.21178109965E+04  0.21178109965E+04  0.00000000000E+00 0. -1.
         36    2    1    2    0    0  0.00000000000E+00  0.21316282073E-13 -0.19999494719E+04  0.22356725211E+04  0.99921655875E+03 0.  0.
         25    2    3    3    0    0 -0.11099322200E+03  0.58141930377E+02 -0.51957557457E+03  0.54891251722E+03  0.12508474917E+03 0.  0.
         35    2    3    3    0    0  0.11099322200E+03 -0.58141930377E+02 -0.14803738973E+04  0.16867600038E+04  0.79871925935E+03 0.  0.
         22    1    5    5    0    0  0.97805936727E+02 -0.41378000242E+03 -0.10184724050E+04  0.11036602427E+04  0.00000000000E+00 0.  1.
         22    1    5    5    0    0  0.13187285268E+02  0.35563807204E+03 -0.46190149236E+03  0.58309976112E+03  0.00000000000E+00 0.  1.
          5    1    4    4  502    0  0.95300392772E+00  0.29327461959E+02 -0.29306256052E+03  0.29456537919E+03  0.47000000000E+01 0.  1.
         -5    1    4    4    0  502 -0.11194622592E+03  0.28814468418E+02 -0.22651301405E+03  0.25434713803E+03  0.47000000000E+01 0.  1.
<mgrwt>
<rscale>  0 0.99921656E+03</rscale>
<asrwt>0</asrwt>
<pdfrwt beam="1">  1        3 0.32581707E+00 0.99921656E+03</pdfrwt>
<pdfrwt beam="2">  1       -3 0.18132543E-01 0.99921656E+03</pdfrwt>
<totfact> 0.38066403E+00</totfact>
</mgrwt>
</event>
<event>
 9    1  0.4296086E-036  0.9998346E+03  0.7818608E-02  0.8681195E-01
         -2   -1    0    0    0  501 -0.00000000000E+00  0.00000000000E+00  0.19623219190E+03  0.19623219190E+03  0.00000000000E+00 0. -1.
          2   -1    0    0  501    0  0.00000000000E+00 -0.00000000000E+00 -0.12735796215E+04  0.12735796215E+04  0.00000000000E+00 0. -1.
         36    2    1    2    0    0  0.28421709430E-13  0.00000000000E+00 -0.10773474295E+04  0.14698118134E+04  0.99983462769E+03 0.  0.
         25    2    3    3    0    0  0.77941948958E+02 -0.10224789745E+03 -0.12723449811E+03  0.22089487777E+03  0.12679254543E+03 0.  0.
         35    2    3    3    0    0 -0.77941948958E+02  0.10224789745E+03 -0.95011293144E+03  0.12489169356E+04  0.80034326983E+03 0.  0.
         22    1    5    5    0    0  0.31769708300E+03 -0.49418848203E+01 -0.69999157416E+03  0.76872886160E+03  0.00000000000E+00 0. -1.
         22    1    5    5    0    0 -0.39563903195E+03  0.10718978227E+03 -0.25012135728E+03  0.48018807398E+03  0.00000000000E+00 0. -1.
          5    1    4    4  502    0  0.77554706909E+02 -0.97144202376E+02 -0.15128560503E+03  0.19586003397E+03  0.47000000000E+01 0. -1.
         -5    1    4    4    0  502  0.38724204870E+00 -0.51036950701E+01  0.24051106921E+02  0.25034843796E+02  0.47000000000E+01 0. -1.
<mgrwt>
<rscale>  0 0.99983463E+03</rscale>
<asrwt>0</asrwt>
<pdfrwt beam="1">  1        2 0.19593533E+00 0.99983463E+03</pdfrwt>
<pdfrwt beam="2">  1       -2 0.30189567E-01 0.99983463E+03</pdfrwt>
<totfact> 0.20871322E+02</totfact>
</mgrwt>
</event>
<event>
 9    1  0.4296086E-036  0.9987479E+03  0.7818608E-02  0.8682231E-01
          2   -1    0    0  501    0  0.00000000000E+00  0.00000000000E+00  0.24998679454E+04  0.24998679454E+04  0.00000000000E+00 0. -1.
         -2   -1    0    0    0  501 -0.00000000000E+00 -0.00000000000E+00 -0.99755006220E+02  0.99755006220E+02  0.00000000000E+00 0. -1.
         36    2    1    2    0    0  0.00000000000E+00  0.17763568394E-14  0.24001129392E+04  0.25996229517E+04  0.99874790102E+03 0.  0.
         25    2    3    3    0    0 -0.12255457772E+02 -0.73702333594E+01  0.85515143669E+02  0.15201153928E+03  0.12486052896E+03 0.  0.
         35    2    3    3    0    0  0.12255457772E+02  0.73702333594E+01  0.23145977955E+04  0.24476114124E+04  0.79576011100E+03 0.  0.
         22    1    5    5    0    0  0.26350233471E+03  0.30716049755E+03  0.11890752617E+04  0.12560577334E+04  0.00000000000E+00 0.  1.
         22    1    5    5    0    0 -0.25124687694E+03 -0.29979026419E+03  0.11255225338E+04  0.11915536790E+04  0.00000000000E+00 0.  1.
          5    1    4    4  502    0 -0.52605829380E+02 -0.18113253088E+02 -0.98678881811E+00  0.55843772924E+02  0.47000000000E+01 0.  1.
         -5    1    4    4    0  502  0.40350371608E+02  0.10743019729E+02  0.86501932487E+02  0.96167766355E+02  0.47000000000E+01 0.  1.
<mgrwt>
<rscale>  0 0.99874790E+03</rscale>
<asrwt>0</asrwt>
<pdfrwt beam="1">  1        2 0.38459502E+00 0.99874790E+03</pdfrwt>
<pdfrwt beam="2">  1       -2 0.15346926E-01 0.99874790E+03</pdfrwt>
<totfact> 0.13404084E+02</totfact>
</mgrwt>
</event>
<event>
 9    1  0.4296086E-036  0.1000433E+04  0.7818608E-02  0.8680626E-01
         -2   -1    0    0    0  501 -0.00000000000E+00  0.00000000000E+00  0.38503014128E+03  0.38503014128E+03  0.00000000000E+00 0. -1.
          2   -1    0    0  501    0  0.00000000000E+00 -0.00000000000E+00 -0.64986213468E+03  0.64986213468E+03  0.00000000000E+00 0. -1.
         36    2    1    2    0    0 -0.35527136788E-14  0.28421709430E-13 -0.26483199340E+03  0.10348922760E+04  0.10004329253E+04 0.  0.
         25    2    3    3    0    0 -0.18551835174E+02 -0.12584402094E+03 -0.11037681758E+03  0.20960023612E+03  0.12477310979E+03 0.  0.
         35    2    3    3    0    0  0.18551835174E+02  0.12584402094E+03 -0.15445517582E+03  0.82529203983E+03  0.80066825932E+03 0.  0.
         22    1    5    5    0    0  0.14033351171E+02 -0.63513696093E+02 -0.46066514572E+03  0.46523467306E+03  0.00000000000E+00 0. -1.
         22    1    5    5    0    0  0.45184840025E+01  0.18935771704E+03  0.30620996990E+03  0.36005736677E+03  0.00000000000E+00 0. -1.
          5    1    4    4  502    0  0.41041225605E+02 -0.17828053397E+02 -0.15363316408E+01  0.45018573967E+02  0.47000000000E+01 0.  1.
         -5    1    4    4    0  502 -0.59593060779E+02 -0.10801596754E+03 -0.10884048594E+03  0.16458166215E+03  0.47000000000E+01 0.  1.
<mgrwt>
<rscale>  0 0.10004329E+04</rscale>
<asrwt>0</asrwt>
<pdfrwt beam="1">  1        2 0.99978789E-01 0.10004329E+04</pdfrwt>
<pdfrwt beam="2">  1       -2 0.59235407E-01 0.10004329E+04</pdfrwt>
<totfact> 0.14481133E+02</totfact>
</mgrwt>
</event>
<event>
 9    1  0.4296086E-036  0.1000120E+04  0.7818608E-02  0.8680924E-01
          2   -1    0    0  501    0  0.00000000000E+00  0.00000000000E+00  0.20047732267E+04  0.20047732267E+04  0.00000000000E+00 0.  1.
         -2   -1    0    0    0  501 -0.00000000000E+00 -0.00000000000E+00 -0.12473229448E+03  0.12473229448E+03  0.00000000000E+00 0.  1.
         36    2    1    2    0    0  0.28421709430E-13 -0.71054273576E-14  0.18800409322E+04  0.21295055212E+04  0.10001199218E+04 0.  0.
         25    2    3    3    0    0 -0.11367246982E+03 -0.60434790553E+02  0.23125713212E+03  0.29240252052E+03  0.12428024199E+03 0.  0.
         35    2    3    3    0    0  0.11367246982E+03  0.60434790553E+02  0.16487838001E+04  0.18371030007E+04  0.79992851008E+03 0.  0.
         22    1    5    5    0    0 -0.25733554220E+03  0.64815688555E+02  0.17631235203E+03  0.31860430041E+03  0.00000000000E+00 0. -1.
         22    1    5    5    0    0  0.37100801202E+03 -0.43808980024E+01  0.14724714481E+04  0.15184987003E+04  0.00000000000E+00 0. -1.
          5    1    4    4  502    0 -0.68811388045E+02 -0.73212211774E+02  0.22322257252E+03  0.24483758281E+03  0.47000000000E+01 0.  1.
         -5    1    4    4    0  502 -0.44861081778E+02  0.12777421221E+02  0.80345596019E+01  0.47564937710E+02  0.47000000000E+01 0.  1.
<mgrwt>
<rscale>  0 0.10001199E+04</rscale>
<asrwt>0</asrwt>
<pdfrwt beam="1">  1        2 0.30842663E+00 0.10001199E+04</pdfrwt>
<pdfrwt beam="2">  1       -2 0.19189585E-01 0.10001199E+04</pdfrwt>
<totfact> 0.17891537E+02</totfact>
</mgrwt>
</event>
<event>
 9    1  0.4296086E-036  0.9998513E+03  0.7818608E-02  0.8681180E-01
         -2   -1    0    0    0  501 -0.00000000000E+00  0.00000000000E+00  0.22409129214E+03  0.22409129214E+03  0.00000000000E+00 0.  1.
          2   -1    0    0  501    0  0.00000000000E+00 -0.00000000000E+00 -0.11152850680E+04  0.11152850680E+04  0.00000000000E+00 0.  1.
         36    2    1    2    0    0  0.56843418861E-13  0.00000000000E+00 -0.89119377584E+03  0.13393763601E+04  0.99985133294E+03 0.  0.
         25    2    3    3    0    0 -0.11871287208E+03  0.97046894198E+01 -0.66530357722E+02  0.18460901613E+03  0.12436749312E+03 0.  0.
         35    2    3    3    0    0  0.11871287208E+03 -0.97046894198E+01 -0.82466341812E+03  0.11547673440E+04  0.79951919213E+03 0.  0.
         22    1    5    5    0    0  0.20331222394E+03 -0.27654905534E+03 -0.70610476966E+02  0.35042985014E+03  0.00000000000E+00 0.  1.
         22    1    5    5    0    0 -0.84599351866E+02  0.26684436592E+03 -0.75405294115E+03  0.80433749385E+03  0.00000000000E+00 0.  1.
          5    1    4    4  502    0  0.16531965792E+02 -0.26840730809E+02 -0.15434232512E+02  0.35412374342E+02  0.47000000000E+01 0. -1.
         -5    1    4    4    0  502 -0.13524483787E+03  0.36545420229E+02 -0.51096125210E+02  0.14919664179E+03  0.47000000000E+01 0. -1.
<mgrwt>
<rscale>  0 0.99985133E+03</rscale>
<asrwt>0</asrwt>
<pdfrwt beam="1">  1        2 0.17158232E+00 0.99985133E+03</pdfrwt>
<pdfrwt beam="2">  1       -2 0.34475583E-01 0.99985133E+03</pdfrwt>
<totfact> 0.20280073E+02</totfact>
</mgrwt>
</event>
<event>
 9    1  0.4296086E-036  0.1000733E+04  0.7818608E-02  0.8680340E-01
          2   -1    0    0  501    0  0.00000000000E+00  0.00000000000E+00  0.25362621580E+04  0.25362621580E+04  0.00000000000E+00 0.  1.
         -2   -1    0    0    0  501 -0.00000000000E+00 -0.00000000000E+00 -0.98714778199E+02  0.98714778199E+02  0.00000000000E+00 0.  1.
         36    2    1    2    0    0  0.28421709430E-13  0.71054273576E-14  0.24375473798E+04  0.26349769362E+04  0.10007328442E+04 0.  0.
         25    2    3    3    0    0 -0.12803754550E+03 -0.65025875854E+01  0.60605460475E+03  0.63195873748E+03  0.12503505603E+03 0.  0.
         35    2    3    3    0    0  0.12803754550E+03  0.65025875854E+01  0.18314927750E+04  0.20030181987E+04  0.80079973939E+03 0.  0.
         22    1    5    5    0    0 -0.31147657217E+03 -0.11632908427E+03  0.10094469994E+04  0.10627950675E+04  0.00000000000E+00 0.  1.
         22    1    5    5    0    0  0.43951411767E+03  0.12283167186E+03  0.82204577562E+03  0.94022313120E+03  0.00000000000E+00 0.  1.
          5    1    4    4  502    0 -0.24378814948E+01  0.40376700818E+02  0.90537715203E+02  0.99274312434E+02  0.47000000000E+01 0.  1.
         -5    1    4    4    0  502 -0.12559966401E+03 -0.46879288404E+02  0.51551688955E+03  0.53268442505E+03  0.47000000000E+01 0.  1.
<mgrwt>
<rscale>  0 0.10007328E+04</rscale>
<asrwt>0</asrwt>
<pdfrwt beam="1">  1        2 0.39019413E+00 0.10007328E+04</pdfrwt>
<pdfrwt beam="2">  1       -2 0.15186891E-01 0.10007328E+04</pdfrwt>
<totfact> 0.12961250E+02</totfact>
</mgrwt>
</event>
<event>
 9    1  0.4296086E-036  0.1000328E+04  0.7818608E-02  0.8680726E-01
          4   -1    0    0  501    0  0.00000000000E+00  0.00000000000E+00  0.78962787869E+03  0.78962787869E+03  0.00000000000E+00 0. -1.
         -4   -1    0    0    0  501 -0.00000000000E+00 -0.00000000000E+00 -0.31681257151E+03  0.31681257151E+03  0.00000000000E+00 0. -1.
         36    2    1    2    0    0  0.21316282073E-13 -0.28421709430E-13  0.47281530718E+03  0.11064404502E+04  0.10003280238E+04 0.  0.
         25    2    3    3    0    0 -0.39884939121E+02  0.13439520859E+03  0.10529690095E+03  0.21515304193E+03  0.12470169864E+03 0.  0.
         35    2    3    3    0    0  0.39884939121E+02 -0.13439520859E+03  0.36751840623E+03  0.89128740827E+03  0.79979408898E+03 0.  0.
         22    1    5    5    0    0  0.28655029135E+03 -0.36716690680E+03  0.15414573318E+03  0.49059506110E+03  0.00000000000E+00 0.  1.
         22    1    5    5    0    0 -0.24666535222E+03  0.23277169821E+03  0.21337267305E+03  0.40069234717E+03  0.00000000000E+00 0.  1.
          5    1    4    4  502    0 -0.15842747165E+02  0.13471805409E+03  0.34224108439E+02  0.13997616345E+03  0.47000000000E+01 0. -1.
         -5    1    4    4    0  502 -0.24042191956E+02 -0.32284550619E+00  0.71072792507E+02  0.75176878480E+02  0.47000000000E+01 0. -1.
<mgrwt>
<rscale>  0 0.10003280E+04</rscale>
<asrwt>0</asrwt>
<pdfrwt beam="1">  1        4 0.12148121E+00 0.10003280E+04</pdfrwt>
<pdfrwt beam="2">  1       -4 0.48740396E-01 0.10003280E+04</pdfrwt>
<totfact> 0.44748420E+00</totfact>
</mgrwt>
</event>
<event>
 9    1  0.4296086E-036  0.1008492E+04  0.7818608E-02  0.8672993E-01
         -1   -1    0    0    0  501 -0.00000000000E+00  0.00000000000E+00  0.43586329282E+03  0.43586329282E+03  0.00000000000E+00 0.  1.
          1   -1    0    0  501    0  0.00000000000E+00 -0.00000000000E+00 -0.58335743970E+03  0.58335743970E+03  0.00000000000E+00 0.  1.
         36    2    1    2    0    0  0.14210854715E-13 -0.71054273576E-14 -0.14749414688E+03  0.10192207325E+04  0.10084921310E+04 0.  0.
         25    2    3    3    0    0  0.11678384347E+03  0.10708663187E+02 -0.12196319105E+03  0.21034060737E+03  0.12496003191E+03 0.  0.
         35    2    3    3    0    0 -0.11678384347E+03 -0.10708663187E+02 -0.25530955828E+02  0.80888012515E+03  0.79992630010E+03 0.  0.
         22    1    5    5    0    0  0.48299098450E+02  0.14868328927E+03  0.34174797505E+03  0.37580739997E+03  0.00000000000E+00 0. -1.
         22    1    5    5    0    0 -0.16508294192E+03 -0.15939195246E+03 -0.36727893088E+03  0.43307272518E+03  0.00000000000E+00 0. -1.
          5    1    4    4  502    0  0.11826292160E+02 -0.19402913986E+02  0.20377146899E+02  0.30881262493E+02  0.47000000000E+01 0.  1.
         -5    1    4    4    0  502  0.10495755131E+03  0.30111577174E+02 -0.14234033795E+03  0.17945934488E+03  0.47000000000E+01 0.  1.
<mgrwt>
<rscale>  0 0.10084921E+04</rscale>
<asrwt>0</asrwt>
<pdfrwt beam="1">  1        1 0.89747299E-01 0.10084921E+04</pdfrwt>
<pdfrwt beam="2">  1       -1 0.67055891E-01 0.10084921E+04</pdfrwt>
<totfact> 0.93774736E+01</totfact>
</mgrwt>
</event>
<event>
 9    1  0.4296086E-036  0.9997511E+03  0.7818608E-02  0.8681275E-01
          2   -1    0    0  501    0  0.00000000000E+00  0.00000000000E+00  0.75767467290E+03  0.75767467290E+03  0.00000000000E+00 0. -1.
         -2   -1    0    0    0  501 -0.00000000000E+00 -0.00000000000E+00 -0.32979268461E+03  0.32979268461E+03  0.00000000000E+00 0. -1.
         36    2    1    2    0    0  0.71054273576E-14 -0.28421709430E-13  0.42788198829E+03  0.10874673575E+04  0.99975109790E+03 0.  0.
         25    2    3    3    0    0  0.25925148736E+02 -0.95088511970E+02 -0.27947639298E+02  0.16169524567E+03  0.12510133287E+03 0.  0.
         35    2    3    3    0    0 -0.25925148736E+02  0.95088511970E+02  0.45582962759E+03  0.92577211184E+03  0.79972458711E+03 0.  0.
         22    1    5    5    0    0 -0.49298156704E+02 -0.27872096747E+03 -0.58986539747E+02  0.28912816852E+03  0.00000000000E+00 0. -1.
         22    1    5    5    0    0  0.23373007968E+02  0.37380947944E+03  0.51481616733E+03  0.63664394332E+03  0.00000000000E+00 0. -1.
          5    1    4    4  502    0  0.59773885398E+02 -0.90150493396E+02  0.11955881679E+02  0.10892686511E+03  0.47000000000E+01 0. -1.
         -5    1    4    4    0  502 -0.33848736663E+02 -0.49380185742E+01 -0.39903520977E+02  0.52768380565E+02  0.47000000000E+01 0. -1.
<mgrwt>
<rscale>  0 0.99975110E+03</rscale>
<asrwt>0</asrwt>
<pdfrwt beam="1">  1        2 0.11656533E+00 0.99975110E+03</pdfrwt>
<pdfrwt beam="2">  1       -2 0.50737336E-01 0.99975110E+03</pdfrwt>
<totfact> 0.16450166E+02</totfact>
</mgrwt>
</event>
<event>
 9    1  0.4296086E-036  0.9995113E+03  0.7818608E-02  0.8681504E-01
          2   -1    0    0  501    0  0.00000000000E+00  0.00000000000E+00  0.14468464342E+04  0.14468464342E+04  0.00000000000E+00 0. -1.
         -2   -1    0    0    0  501 -0.00000000000E+00 -0.00000000000E+00 -0.17262073431E+03  0.17262073431E+03  0.00000000000E+00 0. -1.
         36    2    1    2    0    0  0.71054273576E-14  0.00000000000E+00  0.12742256999E+04  0.16194671685E+04  0.99951126839E+03 0.  0.
         25    2    3    3    0    0  0.41339332357E+02  0.10452957508E+03  0.37863443714E+03  0.41364820033E+03  0.12290412599E+03 0.  0.
         35    2    3    3    0    0 -0.41339332357E+02 -0.10452957508E+03  0.89559126276E+03  0.12058189682E+04  0.79955006200E+03 0.  0.
         22    1    5    5    0    0 -0.20206138590E+03  0.83494619581E+02 -0.53450903250E+02  0.22507144250E+03  0.00000000000E+00 0.  1.
         22    1    5    5    0    0  0.16072205355E+03 -0.18802419466E+03  0.94904216601E+03  0.98074752569E+03  0.00000000000E+00 0.  1.
          5    1    4    4  502    0  0.83119523185E+02  0.75242397531E+02  0.29430429569E+03  0.31497203365E+03  0.47000000000E+01 0. -1.
         -5    1    4    4    0  502 -0.41780190827E+02  0.29287177551E+02  0.84330141444E+02  0.98676166679E+02  0.47000000000E+01 0. -1.
<mgrwt>
<rscale>  0 0.99951127E+03</rscale>
<asrwt>0</asrwt>
<pdfrwt beam="1">  1        2 0.22259175E+00 0.99951127E+03</pdfrwt>
<pdfrwt beam="2">  1       -2 0.26557037E-01 0.99951127E+03</pdfrwt>
<totfact> 0.20919252E+02</totfact>
</mgrwt>
</event>
<event>
 9    1  0.4296086E-036  0.1000182E+04  0.7818608E-02  0.8680865E-01
         -2   -1    0    0    0  501 -0.00000000000E+00  0.00000000000E+00  0.18350979410E+03  0.18350979410E+03  0.00000000000E+00 0. -1.
          2   -1    0    0  501    0  0.00000000000E+00 -0.00000000000E+00 -0.13628207794E+04  0.13628207794E+04  0.00000000000E+00 0. -1.
         36    2    1    2    0    0  0.00000000000E+00 -0.35527136788E-13 -0.11793109853E+04  0.15463305735E+04  0.10001819047E+04 0.  0.
         25    2    3    3    0    0 -0.10470848475E+02 -0.35597716088E+02 -0.41906087053E+03  0.43919434388E+03  0.12610639329E+03 0.  0.
         35    2    3    3    0    0  0.10470848475E+02  0.35597716088E+02 -0.76025011479E+03  0.11071362296E+04  0.80398604333E+03 0.  0.
         22    1    5    5    0    0 -0.26976236439E+03  0.30348581035E+03 -0.48033783887E+03  0.62896725652E+03  0.00000000000E+00 0.  1.
         22    1    5    5    0    0  0.28023321286E+03 -0.26788809427E+03 -0.27991227592E+03  0.47816897312E+03  0.00000000000E+00 0.  1.
          5    1    4    4  502    0  0.26902082832E+02  0.38711865605E+02 -0.17534955442E+03  0.18163668912E+03  0.47000000000E+01 0.  1.
         -5    1    4    4    0  502 -0.37372931306E+02 -0.74309581693E+02 -0.24371131611E+03  0.25755765476E+03  0.47000000000E+01 0.  1.
<mgrwt>
<rscale>  0 0.10001819E+04</rscale>
<asrwt>0</asrwt>
<pdfrwt beam="1">  1        2 0.20966474E+00 0.10001819E+04</pdfrwt>
<pdfrwt beam="2">  1       -2 0.28232276E-01 0.10001819E+04</pdfrwt>
<totfact> 0.20930728E+02</totfact>
</mgrwt>
</event>
<event>
 9    1  0.4296086E-036  0.9988924E+03  0.7818608E-02  0.8682093E-01
         -1   -1    0    0    0  501 -0.00000000000E+00  0.00000000000E+00  0.60046841728E+03  0.60046841728E+03  0.00000000000E+00 0.  1.
          1   -1    0    0  501    0  0.00000000000E+00 -0.00000000000E+00 -0.41541987665E+03  0.41541987665E+03  0.00000000000E+00 0.  1.
         36    2    1    2    0    0  0.71054273576E-14 -0.14210854715E-13  0.18504854062E+03  0.10158882939E+04  0.99889241831E+03 0.  0.
         25    2    3    3    0    0 -0.47519668218E+02  0.12435438051E+03  0.82230232932E+02  0.20016893536E+03  0.12483453310E+03 0.  0.
         35    2    3    3    0    0  0.47519668218E+02 -0.12435438051E+03  0.10281830769E+03  0.81571935858E+03  0.79818815873E+03 0.  0.
         22    1    5    5    0    0  0.27589475252E+03 -0.67693849417E+02 -0.25879924114E+03  0.38428819775E+03  0.00000000000E+00 0.  1.
         22    1    5    5    0    0 -0.22837508430E+03 -0.56660531096E+02  0.36161754883E+03  0.43143116083E+03  0.00000000000E+00 0.  1.
          5    1    4    4  502    0  0.14206459539E+02 -0.16680825416E+02  0.30177466728E+02  0.37587802906E+02  0.47000000000E+01 0.  1.
         -5    1    4    4    0  502 -0.61726127757E+02  0.14103520593E+03  0.52052766204E+02  0.16258113245E+03  0.47000000000E+01 0.  1.
<mgrwt>
<rscale>  0 0.99889242E+03</rscale>
<asrwt>0</asrwt>
<pdfrwt beam="1">  1        1 0.63910750E-01 0.99889242E+03</pdfrwt>
<pdfrwt beam="2">  1       -1 0.92379756E-01 0.99889242E+03</pdfrwt>
<totfact> 0.77529793E+01</totfact>
</mgrwt>
</event>
<event>
 9    1  0.4296086E-036  0.9996644E+03  0.7818608E-02  0.8681358E-01
         -2   -1    0    0    0  501 -0.00000000000E+00  0.00000000000E+00  0.24917973590E+03  0.24917973590E+03  0.00000000000E+00 0.  1.
          2   -1    0    0  501    0  0.00000000000E+00 -0.00000000000E+00 -0.10026186152E+04  0.10026186152E+04  0.00000000000E+00 0.  1.
         36    2    1    2    0    0  0.28421709430E-13 -0.14210854715E-13 -0.75343887928E+03  0.12517983511E+04  0.99966442717E+03 0.  0.
         25    2    3    3    0    0 -0.11643398948E+03 -0.76362046888E+02 -0.11428561258E+03  0.22013283551E+03  0.12652757768E+03 0.  0.
         35    2    3    3    0    0  0.11643398948E+03  0.76362046888E+02 -0.63915326670E+03  0.10316655156E+04  0.79776487862E+03 0.  0.
         22    1    5    5    0    0 -0.34445452354E+03  0.47920835076E+02 -0.28822741833E+03  0.45168614092E+03  0.00000000000E+00 0.  1.
         22    1    5    5    0    0  0.46088851302E+03  0.28441211812E+02 -0.35092584837E+03  0.57997937465E+03  0.00000000000E+00 0.  1.
          5    1    4    4  502    0 -0.52226595609E+02  0.26397080940E+02 -0.69234252171E+02  0.90773866530E+02  0.47000000000E+01 0.  1.
         -5    1    4    4    0  502 -0.64207393874E+02 -0.10275912783E+03 -0.45051360409E+02  0.12935896898E+03  0.47000000000E+01 0.  1.
<mgrwt>
<rscale>  0 0.99966443E+03</rscale>
<asrwt>0</asrwt>
<pdfrwt beam="1">  1        2 0.15424902E+00 0.99966443E+03</pdfrwt>
<pdfrwt beam="2">  1       -2 0.38335344E-01 0.99966443E+03</pdfrwt>
<totfact> 0.19487371E+02</totfact>
</mgrwt>
</event>
<event>
 9    1  0.4296086E-036  0.1000143E+04  0.7818608E-02  0.8680901E-01
         -3   -1    0    0    0  501 -0.00000000000E+00  0.00000000000E+00  0.33170353663E+03  0.33170353663E+03  0.00000000000E+00 0.  1.
          3   -1    0    0  501    0  0.00000000000E+00 -0.00000000000E+00 -0.75390119655E+03  0.75390119655E+03  0.00000000000E+00 0.  1.
         36    2    1    2    0    0  0.00000000000E+00  0.00000000000E+00 -0.42219765992E+03  0.10856047332E+04  0.10001433761E+04 0.  0.
         25    2    3    3    0    0  0.93420306670E+02  0.85227471914E+02 -0.18963835160E+02  0.18092501318E+03  0.12799670965E+03 0.  0.
         35    2    3    3    0    0 -0.93420306670E+02 -0.85227471914E+02 -0.40323382476E+03  0.90467972000E+03  0.79991049667E+03 0.  0.
         22    1    5    5    0    0 -0.38760276447E+03 -0.13366338255E+03 -0.44332471551E+03  0.60385313301E+03  0.00000000000E+00 0.  1.
         22    1    5    5    0    0  0.29418245780E+03  0.48435910636E+02  0.40090890755E+02  0.30082658699E+03  0.00000000000E+00 0.  1.
          5    1    4    4  502    0  0.61020125785E+02  0.53461297103E+02 -0.73676541601E+02  0.10968996682E+03  0.47000000000E+01 0.  1.
         -5    1    4    4    0  502  0.32400180885E+02  0.31766174811E+02  0.54712706441E+02  0.71235046358E+02  0.47000000000E+01 0.  1.
<mgrwt>
<rscale>  0 0.10001434E+04</rscale>
<asrwt>0</asrwt>
<pdfrwt beam="1">  1        3 0.11598480E+00 0.10001434E+04</pdfrwt>
<pdfrwt beam="2">  1       -3 0.51031314E-01 0.10001434E+04</pdfrwt>
<totfact> 0.97958547E+00</totfact>
</mgrwt>
</event>
<event>
 9    1  0.4296086E-036  0.9998733E+03  0.7818608E-02  0.8681159E-01
         -2   -1    0    0    0  501 -0.00000000000E+00  0.00000000000E+00  0.69214617496E+03  0.69214617496E+03  0.00000000000E+00 0.  1.
          2   -1    0    0  501    0  0.00000000000E+00 -0.00000000000E+00 -0.36110387465E+03  0.36110387465E+03  0.00000000000E+00 0.  1.
         36    2    1    2    0    0 -0.28421709430E-13  0.00000000000E+00  0.33104230031E+03  0.10532500496E+04  0.99987332318E+03 0.  0.
         25    2    3    3    0    0 -0.99446308799E+02 -0.99404750865E+02  0.54066888593E+02  0.19571374401E+03  0.12493905844E+03 0.  0.
         35    2    3    3    0    0  0.99446308799E+02  0.99404750865E+02  0.27697541172E+03  0.85753630561E+03  0.79930110966E+03 0.  0.
         22    1    5    5    0    0  0.42875115206E+03  0.62970543207E+02  0.12372884137E+02  0.43352730937E+03  0.00000000000E+00 0. -1.
         22    1    5    5    0    0 -0.32930484326E+03  0.36434207658E+02  0.26460252758E+03  0.42400899624E+03  0.00000000000E+00 0. -1.
          5    1    4    4  502    0  0.26968001310E+02 -0.12240384508E+02 -0.63238679671E+01  0.30646066854E+02  0.47000000000E+01 0.  1.
         -5    1    4    4    0  502 -0.12641431011E+03 -0.87164366357E+02  0.60390756560E+02  0.16506767715E+03  0.47000000000E+01 0.  1.
<mgrwt>
<rscale>  0 0.99987332E+03</rscale>
<asrwt>0</asrwt>
<pdfrwt beam="1">  1        2 0.55554442E-01 0.99987332E+03</pdfrwt>
<pdfrwt beam="2">  1       -2 0.10648403E+00 0.99987332E+03</pdfrwt>
<totfact> 0.74961622E+01</totfact>
</mgrwt>
</event>
<event>
 9    1  0.4296086E-036  0.9995608E+03  0.7818608E-02  0.8681456E-01
         -2   -1    0    0    0  501 -0.00000000000E+00  0.00000000000E+00  0.87593252737E+03  0.87593252737E+03  0.00000000000E+00 0. -1.
          2   -1    0    0  501    0  0.00000000000E+00 -0.00000000000E+00 -0.28515947300E+03  0.28515947300E+03  0.00000000000E+00 0. -1.
         36    2    1    2    0    0  0.00000000000E+00  0.71054273576E-14  0.59077305437E+03  0.11610920004E+04  0.99956081934E+03 0.  0.
         25    2    3    3    0    0 -0.11875394251E+03 -0.20962947225E+02  0.31359557542E+02  0.17664014346E+03  0.12520532902E+03 0.  0.
         35    2    3    3    0    0  0.11875394251E+03  0.20962947225E+02  0.55941349683E+03  0.98445185691E+03  0.80103686190E+03 0.  0.
         22    1    5    5    0    0  0.22985666595E+02 -0.30889028717E+03  0.56116372819E+03  0.64097291692E+03  0.00000000000E+00 0.  1.
         22    1    5    5    0    0  0.95768275915E+02  0.32985323440E+03 -0.17502313624E+01  0.34347894000E+03  0.00000000000E+00 0.  1.
          5    1    4    4  502    0 -0.52521042157E+02  0.52311240074E+02  0.57782208939E+01  0.74501030490E+02  0.47000000000E+01 0.  1.
         -5    1    4    4    0  502 -0.66232900353E+02 -0.73274187299E+02  0.25581336648E+02  0.10213911297E+03  0.47000000000E+01 0.  1.
<mgrwt>
<rscale>  0 0.99956082E+03</rscale>
<asrwt>0</asrwt>
<pdfrwt beam="1">  1        2 0.43870689E-01 0.99956082E+03</pdfrwt>
<pdfrwt beam="2">  1       -2 0.13475885E+00 0.99956082E+03</pdfrwt>
<totfact> 0.52909694E+01</totfact>
</mgrwt>
</event>
<event>
 9    1  0.4296086E-036  0.1002930E+04  0.7818608E-02  0.8678252E-01
          2   -1    0    0  501    0  0.00000000000E+00  0.00000000000E+00  0.14198539845E+04  0.14198539845E+04  0.00000000000E+00 0. -1.
         -2   -1    0    0    0  501 -0.00000000000E+00 -0.00000000000E+00 -0.17710783414E+03  0.17710783414E+03  0.00000000000E+00 0. -1.
         36    2    1    2    0    0  0.00000000000E+00  0.00000000000E+00  0.12427461503E+04  0.15969618186E+04  0.10029302348E+04 0.  0.
         25    2    3    3    0    0 -0.13399969898E+03 -0.45149969121E+02  0.24060847082E+03  0.30640385705E+03  0.12647706649E+03 0.  0.
         35    2    3    3    0    0  0.13399969898E+03  0.45149969121E+02  0.10021376795E+04  0.12905579616E+04  0.80079053715E+03 0.  0.
         22    1    5    5    0    0 -0.29261795853E+03 -0.99889605281E+02  0.19321836075E+03  0.36460463221E+03  0.00000000000E+00 0.  1.
         22    1    5    5    0    0  0.42661765752E+03  0.14503957440E+03  0.80891931877E+03  0.92595332934E+03  0.00000000000E+00 0.  1.
          5    1    4    4  502    0 -0.93786859886E+02  0.34182212154E+02  0.14042828481E+03  0.17235600334E+03  0.47000000000E+01 0. -1.
         -5    1    4    4    0  502 -0.40212839097E+02 -0.79332181275E+02  0.10018018601E+03  0.13404785371E+03  0.47000000000E+01 0. -1.
<mgrwt>
<rscale>  0 0.10029302E+04</rscale>
<asrwt>0</asrwt>
<pdfrwt beam="1">  1        2 0.21843907E+00 0.10029302E+04</pdfrwt>
<pdfrwt beam="2">  1       -2 0.27247360E-01 0.10029302E+04</pdfrwt>
<totfact> 0.20698159E+02</totfact>
</mgrwt>
</event>
<event>
 9    1  0.4296086E-036  0.1000233E+04  0.7818608E-02  0.8680816E-01
          1   -1    0    0  501    0  0.00000000000E+00  0.00000000000E+00  0.18219475676E+04  0.18219475676E+04  0.00000000000E+00 0. -1.
         -1   -1    0    0    0  501 -0.00000000000E+00 -0.00000000000E+00 -0.13727964239E+03  0.13727964239E+03  0.00000000000E+00 0. -1.
         36    2    1    2    0    0  0.00000000000E+00  0.00000000000E+00  0.16846679252E+04  0.19592272100E+04  0.10002325940E+04 0.  0.
         25    2    3    3    0    0  0.94384370744E+02 -0.23382612185E+01  0.11329444609E+03  0.19306172669E+03  0.12459262374E+03 0.  0.
         35    2    3    3    0    0 -0.94384370744E+02  0.23382612185E+01  0.15713734791E+04  0.17661654833E+04  0.80075715836E+03 0.  0.
         22    1    5    5    0    0  0.78859939501E+02 -0.21243632456E+03  0.66435425523E+02  0.23613925514E+03  0.00000000000E+00 0. -1.
         22    1    5    5    0    0 -0.17324431025E+03  0.21477458578E+03  0.15049380536E+04  0.15300262282E+04  0.00000000000E+00 0. -1.
          5    1    4    4  502    0  0.10826830784E+03  0.35747605536E+02  0.71584211595E+02  0.13470822964E+03  0.47000000000E+01 0.  1.
         -5    1    4    4    0  502 -0.13883937094E+02 -0.38085866754E+02  0.41710234498E+02  0.58353497046E+02  0.47000000000E+01 0.  1.
<mgrwt>
<rscale>  0 0.10002326E+04</rscale>
<asrwt>0</asrwt>
<pdfrwt beam="1">  1        1 0.28029961E+00 0.10002326E+04</pdfrwt>
<pdfrwt beam="2">  1       -1 0.21119946E-01 0.10002326E+04</pdfrwt>
<totfact> 0.77582546E+01</totfact>
</mgrwt>
</event>
<event>
 9    1  0.4296086E-036  0.1000755E+04  0.7818608E-02  0.8680319E-01
         -2   -1    0    0    0  501 -0.00000000000E+00  0.00000000000E+00  0.29910053565E+03  0.29910053565E+03  0.00000000000E+00 0. -1.
          2   -1    0    0  501    0  0.00000000000E+00 -0.00000000000E+00 -0.83710231158E+03  0.83710231158E+03  0.00000000000E+00 0. -1.
         36    2    1    2    0    0  0.00000000000E+00 -0.14210854715E-13 -0.53800177593E+03  0.11362028472E+04  0.10007552144E+04 0.  0.
         25    2    3    3    0    0  0.34049487910E+02 -0.92811692828E+02 -0.21169849025E+03  0.26531341314E+03  0.12570432953E+03 0.  0.
         35    2    3    3    0    0 -0.34049487910E+02  0.92811692828E+02 -0.32630328568E+03  0.87088943410E+03  0.80137456550E+03 0.  0.
         22    1    5    5    0    0  0.34674375665E+02 -0.61819775804E+02 -0.56989766381E+03  0.57428855484E+03  0.00000000000E+00 0. -1.
         22    1    5    5    0    0 -0.68723863575E+02  0.15463146863E+03  0.24359437813E+03  0.29660087925E+03  0.00000000000E+00 0. -1.
          5    1    4    4  502    0  0.39011242421E+02 -0.22671087529E+02 -0.18413696785E+03  0.18964273826E+03  0.47000000000E+01 0.  1.
         -5    1    4    4    0  502 -0.49617545104E+01 -0.70140605299E+02 -0.27561522400E+02  0.75670674879E+02  0.47000000000E+01 0.  1.
<mgrwt>
<rscale>  0 0.10007552E+04</rscale>
<asrwt>0</asrwt>
<pdfrwt beam="1">  1        2 0.12878497E+00 0.10007552E+04</pdfrwt>
<pdfrwt beam="2">  1       -2 0.46015467E-01 0.10007552E+04</pdfrwt>
<totfact> 0.17563204E+02</totfact>
</mgrwt>
</event>
<event>
 9    1  0.4296086E-036  0.1000578E+04  0.7818608E-02  0.8680488E-01
          1   -1    0    0  501    0  0.00000000000E+00  0.00000000000E+00  0.10786261137E+04  0.10786261137E+04  0.00000000000E+00 0.  1.
         -1   -1    0    0    0  501 -0.00000000000E+00 -0.00000000000E+00 -0.23204416934E+03  0.23204416934E+03  0.00000000000E+00 0.  1.
         36    2    1    2    0    0  0.00000000000E+00 -0.71054273576E-14  0.84658194440E+03  0.13106702831E+04  0.10005776344E+04 0.  0.
         25    2    3    3    0    0  0.12621910367E+03  0.40749018620E+02  0.22459656766E+03  0.28885143799E+03  0.12409589185E+03 0.  0.
         35    2    3    3    0    0 -0.12621910367E+03 -0.40749018620E+02  0.62198537674E+03  0.10218188451E+04  0.79978509530E+03 0.  0.
         22    1    5    5    0    0  0.27854098797E+03  0.18269733724E+03  0.16496509377E+03  0.37172151024E+03  0.00000000000E+00 0. -1.
         22    1    5    5    0    0 -0.40476009164E+03 -0.22344635586E+03  0.45702028297E+03  0.65009733485E+03  0.00000000000E+00 0. -1.
          5    1    4    4  502    0  0.95384950378E+02  0.61768253973E+02  0.22401660970E+03  0.25123522320E+03  0.47000000000E+01 0. -1.
         -5    1    4    4    0  502  0.30834153291E+02 -0.21019235354E+02  0.57995796853E+00  0.37616214792E+02  0.47000000000E+01 0. -1.
<mgrwt>
<rscale>  0 0.10005776E+04</rscale>
<asrwt>0</asrwt>
<pdfrwt beam="1">  1        1 0.16594248E+00 0.10005776E+04</pdfrwt>
<pdfrwt beam="2">  1       -1 0.35699104E-01 0.10005776E+04</pdfrwt>
<totfact> 0.10963990E+02</totfact>
</mgrwt>
</event>
<event>
 9    1  0.4296086E-036  0.9966172E+03  0.7818608E-02  0.8684266E-01
         -1   -1    0    0    0  501 -0.00000000000E+00  0.00000000000E+00  0.13105374802E+03  0.13105374802E+03  0.00000000000E+00 0. -1.
          1   -1    0    0  501    0  0.00000000000E+00 -0.00000000000E+00 -0.18947300280E+04  0.18947300280E+04  0.00000000000E+00 0. -1.
         36    2    1    2    0    0  0.00000000000E+00 -0.14210854715E-13 -0.17636762799E+04  0.20257837760E+04  0.99661722170E+03 0.  0.
         25    2    3    3    0    0  0.13592507294E+03  0.10031795192E+02 -0.32632980317E+03  0.37503763181E+03  0.12484319154E+03 0.  0.
         35    2    3    3    0    0 -0.13592507294E+03 -0.10031795192E+02 -0.14373464768E+04  0.16507461442E+04  0.80026350399E+03 0.  0.
         22    1    5    5    0    0 -0.31765905805E+01 -0.36677995813E+03 -0.38537568717E+03  0.53202636088E+03  0.00000000000E+00 0.  1.
         22    1    5    5    0    0 -0.13274848236E+03  0.35674816294E+03 -0.10519707896E+04  0.11187197833E+04  0.00000000000E+00 0.  1.
          5    1    4    4  502    0  0.10193371658E+03  0.37129016401E+02 -0.30982469234E+03  0.32830241610E+03  0.47000000000E+01 0. -1.
         -5    1    4    4    0  502  0.33991356354E+02 -0.27097221209E+02 -0.16505110827E+02  0.46735215710E+02  0.47000000000E+01 0. -1.
<mgrwt>
<rscale>  0 0.99661722E+03</rscale>
<asrwt>0</asrwt>
<pdfrwt beam="1">  1        1 0.29149692E+00 0.99661722E+03</pdfrwt>
<pdfrwt beam="2">  1       -1 0.20162116E-01 0.99661722E+03</pdfrwt>
<totfact> 0.74506695E+01</totfact>
</mgrwt>
</event>
<event>
 9    1  0.4296086E-036  0.9982376E+03  0.7818608E-02  0.8682718E-01
          2   -1    0    0  501    0  0.00000000000E+00  0.00000000000E+00  0.15395948546E+04  0.15395948546E+04  0.00000000000E+00 0. -1.
         -2   -1    0    0    0  501 -0.00000000000E+00 -0.00000000000E+00 -0.16180852706E+03  0.16180852706E+03  0.00000000000E+00 0. -1.
         36    2    1    2    0    0  0.00000000000E+00 -0.14210854715E-13  0.13777863276E+04  0.17014033817E+04  0.99823759834E+03 0.  0.
         25    2    3    3    0    0  0.84775206526E+02  0.23321517612E+02  0.82980722634E+02  0.17388387390E+03  0.12497628755E+03 0.  0.
         35    2    3    3    0    0 -0.84775206526E+02 -0.23321517612E+02  0.12948056049E+04  0.15275195078E+04  0.80564481208E+03 0.  0.
         22    1    5    5    0    0  0.25358374976E+03 -0.28509980880E+03  0.64964696518E+03  0.75341077672E+03  0.00000000000E+00 0.  1.
         22    1    5    5    0    0 -0.33835895629E+03  0.26177829119E+03  0.64515863974E+03  0.77410873104E+03  0.00000000000E+00 0.  1.
          5    1    4    4  502    0  0.11811516642E+02  0.66121586076E+02  0.28227808329E+02  0.73010103641E+02  0.47000000000E+01 0. -1.
         -5    1    4    4    0  502  0.72963689884E+02 -0.42800068464E+02  0.54752914305E+02  0.10087377026E+03  0.47000000000E+01 0. -1.
<mgrwt>
<rscale>  0 0.99823760E+03</rscale>
<asrwt>0</asrwt>
<pdfrwt beam="1">  1        2 0.23686074E+00 0.99823760E+03</pdfrwt>
<pdfrwt beam="2">  1       -2 0.24893621E-01 0.99823760E+03</pdfrwt>
<totfact> 0.20798269E+02</totfact>
</mgrwt>
</event>
<event>
 9    1  0.4296086E-036  0.9974748E+03  0.7818608E-02  0.8683446E-01
         -2   -1    0    0    0  501 -0.00000000000E+00  0.00000000000E+00  0.44044444244E+03  0.44044444244E+03  0.00000000000E+00 0. -1.
          2   -1    0    0  501    0  0.00000000000E+00 -0.00000000000E+00 -0.56474546926E+03  0.56474546926E+03  0.00000000000E+00 0. -1.
         36    2    1    2    0    0 -0.14210854715E-13  0.28421709430E-13 -0.12430102682E+03  0.10051899117E+04  0.99747481839E+03 0.  0.
         25    2    3    3    0    0 -0.53136084529E+02  0.50729867855E+02 -0.14108773724E+03  0.19958299548E+03  0.12054318526E+03 0.  0.
         35    2    3    3    0    0  0.53136084529E+02 -0.50729867855E+02  0.16786710426E+02  0.80560691622E+03  0.80207465166E+03 0.  0.
         22    1    5    5    0    0  0.12146587262E+03 -0.36379242493E+03 -0.18614509155E+03  0.42632016344E+03  0.00000000000E+00 0.  1.
         22    1    5    5    0    0 -0.68329788089E+02  0.31306255707E+03  0.20293180197E+03  0.37928675278E+03  0.00000000000E+00 0.  1.
          5    1    4    4  502    0 -0.38121921437E+02 -0.28034530223E+02 -0.14592543533E+02  0.49741814459E+02  0.47000000000E+01 0. -1.
         -5    1    4    4    0  502 -0.15014163092E+02  0.78764398078E+02 -0.12649519371E+03  0.14984118102E+03  0.47000000000E+01 0. -1.
<mgrwt>
<rscale>  0 0.99747482E+03</rscale>
<asrwt>0</asrwt>
<pdfrwt beam="1">  1        2 0.86883918E-01 0.99747482E+03</pdfrwt>
<pdfrwt beam="2">  1       -2 0.67760684E-01 0.99747482E+03</pdfrwt>
<totfact> 0.12876485E+02</totfact>
</mgrwt>
</event>
<event>
 9    1  0.4296086E-036  0.1001213E+04  0.7818608E-02  0.8679884E-01
         -2   -1    0    0    0  501 -0.00000000000E+00  0.00000000000E+00  0.49004822595E+03  0.49004822595E+03  0.00000000000E+00 0. -1.
          2   -1    0    0  501    0  0.00000000000E+00 -0.00000000000E+00 -0.51139185802E+03  0.51139185802E+03  0.00000000000E+00 0. -1.
         36    2    1    2    0    0  0.35527136788E-14 -0.71054273576E-14 -0.21343632073E+02  0.10014400840E+04  0.10012126104E+04 0.  0.
         25    2    3    3    0    0  0.21510959119E+02 -0.44278415259E+02  0.12931779066E+03  0.18631134710E+03  0.12476188383E+03 0.  0.
         35    2    3    3    0    0 -0.21510959119E+02  0.44278415259E+02 -0.15066142274E+03  0.81512873686E+03  0.79957031832E+03 0.  0.
         22    1    5    5    0    0 -0.19851940592E+03  0.13445988447E+03 -0.41810478019E+03  0.48197616360E+03  0.00000000000E+00 0. -1.
         22    1    5    5    0    0  0.17700844680E+03 -0.90181469211E+02  0.26744335745E+03  0.33315257327E+03  0.00000000000E+00 0. -1.
          5    1    4    4  502    0  0.15326888395E+02 -0.44127237648E+02  0.15370561731E+03  0.16071600233E+03  0.47000000000E+01 0. -1.
         -5    1    4    4    0  502  0.61840707241E+01 -0.15117761036E+00 -0.24387826651E+02  0.25595344775E+02  0.47000000000E+01 0. -1.
<mgrwt>
<rscale>  0 0.10012126E+04</rscale>
<asrwt>0</asrwt>
<pdfrwt beam="1">  1        2 0.78675670E-01 0.10012126E+04</pdfrwt>
<pdfrwt beam="2">  1       -2 0.75392035E-01 0.10012126E+04</pdfrwt>
<totfact> 0.11435774E+02</totfact>
</mgrwt>
</event>
<event>
 9    1  0.4296086E-036  0.1000695E+04  0.7818608E-02  0.8680377E-01
         -2   -1    0    0    0  501 -0.00000000000E+00  0.00000000000E+00  0.27337109960E+03  0.27337109960E+03  0.00000000000E+00 0. -1.
          2   -1    0    0  501    0  0.00000000000E+00 -0.00000000000E+00 -0.91577876606E+03  0.91577876606E+03  0.00000000000E+00 0. -1.
         36    2    1    2    0    0  0.00000000000E+00 -0.14210854715E-13 -0.64240766647E+03  0.11891498657E+04  0.10006946553E+04 0.  0.
         25    2    3    3    0    0  0.82573772430E+02  0.90891734945E+01 -0.24975536269E+03  0.29147829963E+03  0.12522306894E+03 0.  0.
         35    2    3    3    0    0 -0.82573772430E+02 -0.90891734945E+01 -0.39265230377E+03  0.89767156602E+03  0.80295539591E+03 0.  0.
         22    1    5    5    0    0  0.73423997013E+02  0.32207464653E+03  0.37933521784E+02  0.33250881695E+03  0.00000000000E+00 0.  1.
         22    1    5    5    0    0 -0.15599776944E+03 -0.33116382003E+03 -0.43058582556E+03  0.56516274907E+03  0.00000000000E+00 0.  1.
          5    1    4    4  502    0  0.52621527847E+02 -0.49911179306E+02 -0.18505484020E+03  0.19881532862E+03  0.47000000000E+01 0.  1.
         -5    1    4    4    0  502  0.29952244583E+02  0.59000352801E+02 -0.64700522493E+02  0.92662971014E+02  0.47000000000E+01 0.  1.
<mgrwt>
<rscale>  0 0.10006947E+04</rscale>
<asrwt>0</asrwt>
<pdfrwt beam="1">  1        2 0.14088904E+00 0.10006947E+04</pdfrwt>
<pdfrwt beam="2">  1       -2 0.42057093E-01 0.10006947E+04</pdfrwt>
<totfact> 0.18544980E+02</totfact>
</mgrwt>
</event>
<event>
 9    1  0.4296086E-036  0.9991654E+03  0.7818608E-02  0.8681833E-01
          2   -1    0    0  501    0  0.00000000000E+00  0.00000000000E+00  0.23660769410E+04  0.23660769410E+04  0.00000000000E+00 0. -1.
         -2   -1    0    0    0  501 -0.00000000000E+00 -0.00000000000E+00 -0.10548382842E+03  0.10548382842E+03  0.00000000000E+00 0. -1.
         36    2    1    2    0    0  0.14210854715E-13  0.00000000000E+00  0.22605931125E+04  0.24715607694E+04  0.99916535984E+03 0.  0.
         25    2    3    3    0    0 -0.12128160146E+03 -0.21343816334E+02  0.26781580362E+03  0.32037845357E+03  0.12550802163E+03 0.  0.
         35    2    3    3    0    0  0.12128160146E+03  0.21343816334E+02  0.19927773089E+04  0.21511823158E+04  0.80078659304E+03 0.  0.
         22    1    5    5    0    0  0.15988150841E+02 -0.29003337629E+03  0.26752890237E+03  0.39490086595E+03  0.00000000000E+00 0. -1.
         22    1    5    5    0    0  0.10529345062E+03  0.31137719262E+03  0.17252484065E+04  0.17562814499E+04  0.00000000000E+00 0. -1.
          5    1    4    4  502    0 -0.57023574386E+02  0.48511238645E+02  0.15966003396E+03  0.17640420844E+03  0.47000000000E+01 0. -1.
         -5    1    4    4    0  502 -0.64258027075E+02 -0.69855054979E+02  0.10815576966E+03  0.14397424513E+03  0.47000000000E+01 0. -1.
<mgrwt>
<rscale>  0 0.99916536E+03</rscale>
<asrwt>0</asrwt>
<pdfrwt beam="1">  1        2 0.36401180E+00 0.99916536E+03</pdfrwt>
<pdfrwt beam="2">  1       -2 0.16228283E-01 0.99916536E+03</pdfrwt>
<totfact> 0.14684794E+02</totfact>
</mgrwt>
</event>
<event>
 9    1  0.4296086E-036  0.1000108E+04  0.7818608E-02  0.8680935E-01
         -1   -1    0    0    0  501 -0.00000000000E+00  0.00000000000E+00  0.46524297359E+03  0.46524297359E+03  0.00000000000E+00 0. -1.
          1   -1    0    0  501    0  0.00000000000E+00 -0.00000000000E+00 -0.53746969101E+03  0.53746969101E+03  0.00000000000E+00 0. -1.
         36    2    1    2    0    0 -0.14210854715E-13  0.00000000000E+00 -0.72226717421E+02  0.10027126646E+04  0.10001079887E+04 0.  0.
         25    2    3    3    0    0 -0.98913627834E+02  0.51368756547E+02  0.72917736773E+02  0.18199399928E+03  0.12402485443E+03 0.  0.
         35    2    3    3    0    0  0.98913627834E+02 -0.51368756547E+02 -0.14514445419E+03  0.82071866533E+03  0.80005597311E+03 0.  0.
         22    1    5    5    0    0 -0.30541007362E+03  0.13256416789E+03 -0.17385246318E+03  0.37559719199E+03  0.00000000000E+00 0.  1.
         22    1    5    5    0    0  0.40432370146E+03 -0.18393292443E+03  0.28708008984E+02  0.44512147334E+03  0.00000000000E+00 0.  1.
          5    1    4    4  502    0 -0.85092880291E+02  0.56499406756E+02  0.10488519283E+03  0.14647858176E+03  0.47000000000E+01 0. -1.
         -5    1    4    4    0  502 -0.13820747542E+02 -0.51306502093E+01 -0.31967456060E+02  0.35515417513E+02  0.47000000000E+01 0. -1.
<mgrwt>
<rscale>  0 0.10001080E+04</rscale>
<asrwt>0</asrwt>
<pdfrwt beam="1">  1        1 0.82687645E-01 0.10001080E+04</pdfrwt>
<pdfrwt beam="2">  1       -1 0.71575842E-01 0.10001080E+04</pdfrwt>
<totfact> 0.92725860E+01</totfact>
</mgrwt>
</event>
<event>
 9    1  0.4296086E-036  0.1000073E+04  0.7818608E-02  0.8680969E-01
         -2   -1    0    0    0  501 -0.00000000000E+00  0.00000000000E+00  0.43667854141E+03  0.43667854141E+03  0.00000000000E+00 0. -1.
          2   -1    0    0  501    0  0.00000000000E+00 -0.00000000000E+00 -0.57258653888E+03  0.57258653888E+03  0.00000000000E+00 0. -1.
         36    2    1    2    0    0  0.00000000000E+00 -0.28421709430E-13 -0.13590799748E+03  0.10092650803E+04  0.10000725066E+04 0.  0.
         25    2    3    3    0    0  0.19198623098E+02  0.12367553252E+03 -0.88391704341E+02  0.19926529658E+03  0.12739442904E+03 0.  0.
         35    2    3    3    0    0 -0.19198623098E+02 -0.12367553252E+03 -0.47516293138E+02  0.80999978371E+03  0.79886020494E+03 0.  0.
         22    1    5    5    0    0  0.10135382162E+02  0.12435891830E+03 -0.37667866138E+03  0.39680559532E+03  0.00000000000E+00 0.  1.
         22    1    5    5    0    0 -0.29334005259E+02 -0.24803445082E+03  0.32916236825E+03  0.41319418840E+03  0.00000000000E+00 0.  1.
          5    1    4    4  502    0 -0.31548727000E+02  0.12341042944E+03 -0.59341671255E+02  0.14060220559E+03  0.47000000000E+01 0. -1.
         -5    1    4    4    0  502  0.50747350097E+02  0.26510307960E+00 -0.29050033086E+02  0.58663090984E+02  0.47000000000E+01 0. -1.
<mgrwt>
<rscale>  0 0.10000725E+04</rscale>
<asrwt>0</asrwt>
<pdfrwt beam="1">  1        2 0.88090237E-01 0.10000725E+04</pdfrwt>
<pdfrwt beam="2">  1       -2 0.67181314E-01 0.10000725E+04</pdfrwt>
<totfact> 0.12905121E+02</totfact>
</mgrwt>
</event>
<event>
 9    1  0.4296086E-036  0.9996437E+03  0.7818608E-02  0.8681377E-01
          2   -1    0    0  501    0  0.00000000000E+00  0.00000000000E+00  0.13438055565E+04  0.13438055565E+04  0.00000000000E+00 0. -1.
         -2   -1    0    0    0  501 -0.00000000000E+00 -0.00000000000E+00 -0.18590628710E+03  0.18590628710E+03  0.00000000000E+00 0. -1.
         36    2    1    2    0    0  0.28421709430E-13  0.35527136788E-14  0.11578992694E+04  0.15297118436E+04  0.99964373974E+03 0.  0.
         25    2    3    3    0    0 -0.13685050204E+03 -0.30540310512E+02  0.24891589778E+03  0.31166332721E+03  0.12455575010E+03 0.  0.
         35    2    3    3    0    0  0.13685050204E+03  0.30540310512E+02  0.90898337164E+03  0.12180485164E+04  0.79858039542E+03 0.  0.
         22    1    5    5    0    0  0.25911802991E+03 -0.29744952415E+03  0.23657366189E+03  0.45998420662E+03  0.00000000000E+00 0. -1.
         22    1    5    5    0    0 -0.12226752787E+03  0.32798983467E+03  0.67240970975E+03  0.75806430979E+03  0.00000000000E+00 0. -1.
          5    1    4    4  502    0  0.77375579325E+01 -0.24614051971E+02  0.10229582800E+03  0.10560420343E+03  0.47000000000E+01 0.  1.
         -5    1    4    4    0  502 -0.14458805997E+03 -0.59262585416E+01  0.14662006978E+03  0.20605912377E+03  0.47000000000E+01 0.  1.
<mgrwt>
<rscale>  0 0.99964374E+03</rscale>
<asrwt>0</asrwt>
<pdfrwt beam="1">  1        2 0.20673931E+00 0.99964374E+03</pdfrwt>
<pdfrwt beam="2">  1       -2 0.28600968E-01 0.99964374E+03</pdfrwt>
<totfact> 0.20966502E+02</totfact>
</mgrwt>
</event>
<event>
 9    1  0.4296086E-036  0.1000251E+04  0.7818608E-02  0.8680799E-01
          3   -1    0    0  501    0  0.00000000000E+00  0.00000000000E+00  0.78451058318E+03  0.78451058318E+03  0.00000000000E+00 0. -1.
         -3   -1    0    0    0  501 -0.00000000000E+00 -0.00000000000E+00 -0.31883021172E+03  0.31883021172E+03  0.00000000000E+00 0. -1.
         36    2    1    2    0    0 -0.28421709430E-13 -0.21316282073E-13  0.46568037146E+03  0.11033407949E+04  0.10002513191E+04 0.  0.
         25    2    3    3    0    0 -0.13118392352E+03  0.54003217732E+02  0.76877173182E+02  0.20419335209E+03  0.12513694885E+03 0.  0.
         35    2    3    3    0    0  0.13118392352E+03 -0.54003217732E+02  0.38880319828E+03  0.89914744280E+03  0.79823093626E+03 0.  0.
         22    1    5    5    0    0 -0.23125268342E+03  0.19959065204E+03 -0.70279498919E+01  0.30555461713E+03  0.00000000000E+00 0. -1.
         22    1    5    5    0    0  0.36243660693E+03 -0.25359386977E+03  0.39583114817E+03  0.59359282567E+03  0.00000000000E+00 0. -1.
          5    1    4    4  502    0 -0.14527219331E+03  0.45610855017E+02  0.94819673216E+02  0.17943583999E+03  0.47000000000E+01 0. -1.
         -5    1    4    4    0  502  0.14088269796E+02  0.83923627149E+01 -0.17942500034E+02  0.24757512098E+02  0.47000000000E+01 0. -1.
<mgrwt>
<rscale>  0 0.10002513E+04</rscale>
<asrwt>0</asrwt>
<pdfrwt beam="1">  1        3 0.12069394E+00 0.10002513E+04</pdfrwt>
<pdfrwt beam="2">  1       -3 0.49050802E-01 0.10002513E+04</pdfrwt>
<totfact> 0.96550125E+00</totfact>
</mgrwt>
</event>
<event>
 9    1  0.4296086E-036  0.1000117E+04  0.7818608E-02  0.8680927E-01
          2   -1    0    0  501    0  0.00000000000E+00  0.00000000000E+00  0.14454471970E+04  0.14454471970E+04  0.00000000000E+00 0.  1.
         -2   -1    0    0    0  501 -0.00000000000E+00 -0.00000000000E+00 -0.17299731348E+03  0.17299731348E+03  0.00000000000E+00 0.  1.
         36    2    1    2    0    0 -0.71054273576E-14  0.00000000000E+00  0.12724498835E+04  0.16184445105E+04  0.10001169569E+04 0.  0.
         25    2    3    3    0    0  0.34222188120E+02  0.13174051847E+03  0.27767847007E+03  0.33357963212E+03  0.12507324196E+03 0.  0.
         35    2    3    3    0    0 -0.34222188120E+02 -0.13174051847E+03  0.99477141342E+03  0.12848648783E+04  0.80173615877E+03 0.  0.
         22    1    5    5    0    0  0.18960588657E+03  0.77094704761E+02  0.95438865514E+03  0.97609000137E+03  0.00000000000E+00 0. -1.
         22    1    5    5    0    0 -0.22382807469E+03 -0.20883522323E+03  0.40382758282E+02  0.30877487697E+03  0.00000000000E+00 0. -1.
          5    1    4    4  502    0 -0.25390448104E+02  0.50050208590E+02  0.19469736547E+03  0.20267918579E+03  0.47000000000E+01 0. -1.
         -5    1    4    4    0  502  0.59612636224E+02  0.81690309884E+02  0.82981104608E+02  0.13090044633E+03  0.47000000000E+01 0. -1.
<mgrwt>
<rscale>  0 0.10001170E+04</rscale>
<asrwt>0</asrwt>
<pdfrwt beam="1">  1        2 0.22237648E+00 0.10001170E+04</pdfrwt>
<pdfrwt beam="2">  1       -2 0.26614972E-01 0.10001170E+04</pdfrwt>
<totfact> 0.20875987E+02</totfact>
</mgrwt>
</event>
<event>
 9    1  0.4296086E-036  0.1000794E+04  0.7818608E-02  0.8680282E-01
         -1   -1    0    0    0  501 -0.00000000000E+00  0.00000000000E+00  0.24013879530E+03  0.24013879530E+03  0.00000000000E+00 0. -1.
          1   -1    0    0  501    0  0.00000000000E+00 -0.00000000000E+00 -0.10427187948E+04  0.10427187948E+04  0.00000000000E+00 0. -1.
         36    2    1    2    0    0  0.21316282073E-13  0.14210854715E-13 -0.80257999948E+03  0.12828575901E+04  0.10007941551E+04 0.  0.
         25    2    3    3    0    0 -0.48791651088E+02  0.11181435288E+03 -0.24761036933E+03  0.30233486114E+03  0.12333855250E+03 0.  0.
         35    2    3    3    0    0  0.48791651088E+02 -0.11181435288E+03 -0.55496963014E+03  0.98052272894E+03  0.79909352197E+03 0.  0.
         22    1    5    5    0    0  0.20524520504E+03  0.53115445778E+02  0.13683075704E+03  0.25232816102E+03  0.00000000000E+00 0.  1.
         22    1    5    5    0    0 -0.15645355396E+03 -0.16492979866E+03 -0.69180038719E+03  0.72819456792E+03  0.00000000000E+00 0.  1.
          5    1    4    4  502    0 -0.54956781035E+02  0.57839564726E+02 -0.43353198832E+02  0.90924434991E+02  0.47000000000E+01 0.  1.
         -5    1    4    4    0  502  0.61651299461E+01  0.53974788158E+02 -0.20425717050E+03  0.21141042615E+03  0.47000000000E+01 0.  1.
<mgrwt>
<rscale>  0 0.10007942E+04</rscale>
<asrwt>0</asrwt>
<pdfrwt beam="1">  1        1 0.16041827E+00 0.10007942E+04</pdfrwt>
<pdfrwt beam="2">  1       -1 0.36944431E-01 0.10007942E+04</pdfrwt>
<totfact> 0.11009378E+02</totfact>
</mgrwt>
</event>
<event>
 9    1  0.4296086E-036  0.1000273E+04  0.7818608E-02  0.8680778E-01
          1   -1    0    0  501    0  0.00000000000E+00  0.00000000000E+00  0.34553971990E+03  0.34553971990E+03  0.00000000000E+00 0.  1.
         -1   -1    0    0    0  501 -0.00000000000E+00 -0.00000000000E+00 -0.72390019635E+03  0.72390019635E+03  0.00000000000E+00 0.  1.
         36    2    1    2    0    0  0.00000000000E+00 -0.14210854715E-13 -0.37836047645E+03  0.10694399162E+04  0.10002725050E+04 0.  0.
         25    2    3    3    0    0  0.13126041697E+03  0.96521909219E+01 -0.12238111321E+03  0.21911003884E+03  0.12533798466E+03 0.  0.
         35    2    3    3    0    0 -0.13126041697E+03 -0.96521909219E+01 -0.25597936323E+03  0.85032987740E+03  0.80013311652E+03 0.  0.
         22    1    5    5    0    0  0.20395997489E+03 -0.11131521182E+03  0.17793669990E+03  0.29266400003E+03  0.00000000000E+00 0. -1.
         22    1    5    5    0    0 -0.33522039186E+03  0.10166302090E+03 -0.43391606314E+03  0.55766587737E+03  0.00000000000E+00 0. -1.
          5    1    4    4  502    0 -0.51825277262E+01  0.21559558807E+02 -0.67990006876E+02  0.71668711476E+02  0.47000000000E+01 0. -1.
         -5    1    4    4    0  502  0.13644294470E+03 -0.11907367885E+02 -0.54391106339E+02  0.14744132737E+03  0.47000000000E+01 0. -1.
<mgrwt>
<rscale>  0 0.10002725E+04</rscale>
<asrwt>0</asrwt>
<pdfrwt beam="1">  1        1 0.53159957E-01 0.10002725E+04</pdfrwt>
<pdfrwt beam="2">  1       -1 0.11136926E+00 0.10002725E+04</pdfrwt>
<totfact> 0.64932029E+01</totfact>
</mgrwt>
</event>
<event>
 9    1  0.4296086E-036  0.1000362E+04  0.7818608E-02  0.8680693E-01
         -1   -1    0    0    0  501 -0.00000000000E+00  0.00000000000E+00  0.23255072394E+03  0.23255072394E+03  0.00000000000E+00 0. -1.
          1   -1    0    0  501    0  0.00000000000E+00 -0.00000000000E+00 -0.10758135304E+04  0.10758135304E+04  0.00000000000E+00 0. -1.
         36    2    1    2    0    0  0.14210854715E-13  0.14210854715E-13 -0.84326280642E+03  0.13083642543E+04  0.10003623650E+04 0.  0.
         25    2    3    3    0    0  0.88647305431E+02  0.74527803974E+02 -0.55715382609E+02  0.17967833889E+03  0.12556816189E+03 0.  0.
         35    2    3    3    0    0 -0.88647305431E+02 -0.74527803974E+02 -0.78754742381E+03  0.11286859154E+04  0.80018011259E+03 0.  0.
         22    1    5    5    0    0  0.13753430894E+03 -0.20360557661E+03  0.50731049417E+02  0.25088753723E+03  0.00000000000E+00 0.  1.
         22    1    5    5    0    0 -0.22618161437E+03  0.12907777264E+03 -0.83827847323E+03  0.87779837818E+03  0.00000000000E+00 0.  1.
          5    1    4    4  502    0  0.10578509960E+02  0.11478775625E+02 -0.75542484269E+02  0.77281460211E+02  0.47000000000E+01 0.  1.
         -5    1    4    4    0  502  0.78068795471E+02  0.63049028349E+02  0.19827101660E+02  0.10239687867E+03  0.47000000000E+01 0.  1.
<mgrwt>
<rscale>  0 0.10003624E+04</rscale>
<asrwt>0</asrwt>
<pdfrwt beam="1">  1        1 0.16550978E+00 0.10003624E+04</pdfrwt>
<pdfrwt beam="2">  1       -1 0.35777034E-01 0.10003624E+04</pdfrwt>
<totfact> 0.10977282E+02</totfact>
</mgrwt>
</event>
<event>
 9    1  0.4296086E-036  0.9980633E+03  0.7818608E-02  0.8682884E-01
          1   -1    0    0  501    0  0.00000000000E+00  0.00000000000E+00  0.16964463101E+04  0.16964463101E+04  0.00000000000E+00 0. -1.
         -1   -1    0    0    0  501 -0.00000000000E+00 -0.00000000000E+00 -0.14679662025E+03  0.14679662025E+03  0.00000000000E+00 0. -1.
         36    2    1    2    0    0  0.00000000000E+00  0.28421709430E-13  0.15496496898E+04  0.18432429303E+04  0.99806329408E+03 0.  0.
         25    2    3    3    0    0 -0.48559802614E+02  0.12698180498E+03  0.33756475846E+03  0.38485643490E+03  0.12522809631E+03 0.  0.
         35    2    3    3    0    0  0.48559802614E+02 -0.12698180498E+03  0.12120849314E+04  0.14583864954E+04  0.79953665077E+03 0.  0.
         22    1    5    5    0    0  0.22703073449E+03 -0.40782597469E+03  0.58408946577E+03  0.74768006798E+03  0.00000000000E+00 0.  1.
         22    1    5    5    0    0 -0.17847093187E+03  0.28084416971E+03  0.62799546559E+03  0.71070642742E+03  0.00000000000E+00 0.  1.
          5    1    4    4  502    0  0.15785315238E+02 -0.59458214417E+01  0.12976078669E+01  0.17558552217E+02  0.47000000000E+01 0.  1.
         -5    1    4    4    0  502 -0.64345117852E+02  0.13292762643E+03  0.33626715059E+03  0.36729788268E+03  0.47000000000E+01 0.  1.
<mgrwt>
<rscale>  0 0.99806329E+03</rscale>
<asrwt>0</asrwt>
<pdfrwt beam="1">  1        1 0.26099173E+00 0.99806329E+03</pdfrwt>
<pdfrwt beam="2">  1       -1 0.22584097E-01 0.99806329E+03</pdfrwt>
<totfact> 0.85049463E+01</totfact>
</mgrwt>
</event>
<event>
 9    1  0.4296086E-036  0.1000469E+04  0.7818608E-02  0.8680591E-01
         -1   -1    0    0    0  501 -0.00000000000E+00  0.00000000000E+00  0.30492903569E+03  0.30492903569E+03  0.00000000000E+00 0. -1.
          1   -1    0    0  501    0  0.00000000000E+00 -0.00000000000E+00 -0.82063230185E+03  0.82063230185E+03  0.00000000000E+00 0. -1.
         36    2    1    2    0    0  0.00000000000E+00 -0.42632564146E-13 -0.51570326616E+03  0.11255613375E+04  0.10004691229E+04 0.  0.
         25    2    3    3    0    0 -0.35224434712E+02 -0.21147069167E+02 -0.24710501806E+03  0.28052782227E+03  0.12628147046E+03 0.  0.
         35    2    3    3    0    0  0.35224434712E+02  0.21147069167E+02 -0.26859824810E+03  0.84503351527E+03  0.80015539973E+03 0.  0.
         22    1    5    5    0    0 -0.24025695997E+02 -0.38109784040E+03 -0.20531878993E+03  0.43355346097E+03  0.00000000000E+00 0.  1.
         22    1    5    5    0    0  0.59250130709E+02  0.40224490957E+03 -0.63279458171E+02  0.41148005430E+03  0.00000000000E+00 0.  1.
          5    1    4    4  502    0 -0.34766518891E+01 -0.50087505096E+02 -0.28977029730E+02  0.58160154119E+02  0.47000000000E+01 0. -1.
         -5    1    4    4    0  502 -0.31747782823E+02  0.28940435929E+02 -0.21812798833E+03  0.22236766815E+03  0.47000000000E+01 0. -1.
<mgrwt>
<rscale>  0 0.10004691E+04</rscale>
<asrwt>0</asrwt>
<pdfrwt beam="1">  1        1 0.12625113E+00 0.10004691E+04</pdfrwt>
<pdfrwt beam="2">  1       -1 0.46912158E-01 0.10004691E+04</pdfrwt>
<totfact> 0.10923104E+02</totfact>
</mgrwt>
</event>
<event>
 9    1  0.4296086E-036  0.9993514E+03  0.7818608E-02  0.8681656E-01
          2   -1    0    0  501    0  0.00000000000E+00  0.00000000000E+00  0.15875446678E+04  0.15875446678E+04  0.00000000000E+00 0.  1.
         -2   -1    0    0    0  501 -0.00000000000E+00 -0.00000000000E+00 -0.15727168203E+03  0.15727168203E+03  0.00000000000E+00 0.  1.
         36    2    1    2    0    0 -0.14210854715E-13  0.00000000000E+00  0.14302729858E+04  0.17448163498E+04  0.99935143006E+03 0.  0.
         25    2    3    3    0    0 -0.13962925217E+02  0.74129587778E+02  0.47221967214E+03  0.49428582492E+03  0.12504758653E+03 0.  0.
         35    2    3    3    0    0  0.13962925217E+02 -0.74129587778E+02  0.95805331361E+03  0.12505305249E+04  0.80016890897E+03 0.  0.
         22    1    5    5    0    0 -0.28759015123E+03 -0.19696962496E+03  0.83074959397E+03  0.90091620926E+03  0.00000000000E+00 0.  1.
         22    1    5    5    0    0  0.30155307645E+03  0.12284003718E+03  0.12730371964E+03  0.34961431562E+03  0.00000000000E+00 0.  1.
          5    1    4    4  502    0 -0.47882051919E+02  0.60127604266E+02  0.13805916220E+03  0.15808365493E+03  0.47000000000E+01 0. -1.
         -5    1    4    4    0  502  0.33919126702E+02  0.14001983512E+02  0.33416050995E+03  0.33620216999E+03  0.47000000000E+01 0. -1.
<mgrwt>
<rscale>  0 0.99935143E+03</rscale>
<asrwt>0</asrwt>
<pdfrwt beam="1">  1        2 0.24423763E+00 0.99935143E+03</pdfrwt>
<pdfrwt beam="2">  1       -2 0.24195644E-01 0.99935143E+03</pdfrwt>
<totfact> 0.20549881E+02</totfact>
</mgrwt>
</event>
<event>
 9    1  0.4296086E-036  0.1000016E+04  0.7818608E-02  0.8681022E-01
          2   -1    0    0  501    0  0.00000000000E+00  0.00000000000E+00  0.41255268693E+04  0.41255268693E+04  0.00000000000E+00 0.  1.
         -2   -1    0    0    0  501 -0.00000000000E+00 -0.00000000000E+00 -0.60600303882E+02  0.60600303882E+02  0.00000000000E+00 0.  1.
         36    2    1    2    0    0  0.14210854715E-13 -0.71054273576E-14  0.40649265654E+04  0.41861271732E+04  0.10000163638E+04 0.  0.
         25    2    3    3    0    0 -0.10885325231E+03  0.59218550967E+02  0.10272727071E+04  0.10422623994E+04  0.12516320174E+03 0.  0.
         35    2    3    3    0    0  0.10885325231E+03 -0.59218550967E+02  0.30376538583E+04  0.31438647738E+04  0.80074270883E+03 0.  0.
         22    1    5    5    0    0  0.18124785854E+03 -0.40185500622E+03  0.13463469060E+04  0.14166821180E+04  0.00000000000E+00 0.  1.
         22    1    5    5    0    0 -0.72394606232E+02  0.34263645525E+03  0.16913069523E+04  0.17271826558E+04  0.00000000000E+00 0.  1.
          5    1    4    4  502    0 -0.10568001423E+03 -0.62564546053E+01  0.74125466907E+03  0.74879101427E+03  0.47000000000E+01 0. -1.
         -5    1    4    4    0  502 -0.31732380813E+01  0.65475005572E+02  0.28601803806E+03  0.29347138513E+03  0.47000000000E+01 0. -1.
<mgrwt>
<rscale>  0 0.10000164E+04</rscale>
<asrwt>0</asrwt>
<pdfrwt beam="1">  1        2 0.63469622E+00 0.10000164E+04</pdfrwt>
<pdfrwt beam="2">  1       -2 0.93231269E-02 0.10000164E+04</pdfrwt>
<totfact> 0.19694276E+01</totfact>
</mgrwt>
</event>
<event>
 9    1  0.4296086E-036  0.9990075E+03  0.7818608E-02  0.8681984E-01
         -2   -1    0    0    0  501 -0.00000000000E+00  0.00000000000E+00  0.16021365932E+03  0.16021365932E+03  0.00000000000E+00 0. -1.
          2   -1    0    0  501    0  0.00000000000E+00 -0.00000000000E+00 -0.15573203825E+04  0.15573203825E+04  0.00000000000E+00 0. -1.
         36    2    1    2    0    0 -0.21316282073E-13 -0.28421709430E-13 -0.13971067232E+04  0.17175340418E+04  0.99900750189E+03 0.  0.
         25    2    3    3    0    0  0.63573525841E+02 -0.47012561138E+02 -0.46117368833E+03  0.48380287159E+03  0.12301330687E+03 0.  0.
         35    2    3    3    0    0 -0.63573525841E+02  0.47012561138E+02 -0.93593303488E+03  0.12337311702E+04  0.79991885873E+03 0.  0.
         22    1    5    5    0    0 -0.23906201896E+03  0.34509832458E+03 -0.32209270975E+03  0.52913818253E+03  0.00000000000E+00 0.  1.
         22    1    5    5    0    0  0.17548849312E+03 -0.29808576344E+03 -0.61384032512E+03  0.70459298771E+03  0.00000000000E+00 0.  1.
          5    1    4    4  502    0  0.29133249891E+02  0.40467908263E+02 -0.20024548563E+03  0.20641400719E+03  0.47000000000E+01 0.  1.
         -5    1    4    4    0  502  0.34440275950E+02 -0.87480469401E+02 -0.26092820269E+03  0.27738886440E+03  0.47000000000E+01 0.  1.
<mgrwt>
<rscale>  0 0.99900750E+03</rscale>
<asrwt>0</asrwt>
<pdfrwt beam="1">  1        2 0.23958775E+00 0.99900750E+03</pdfrwt>
<pdfrwt beam="2">  1       -2 0.24648255E-01 0.99900750E+03</pdfrwt>
<totfact> 0.20683839E+02</totfact>
</mgrwt>
</event>
<event>
 9    1  0.4296086E-036  0.9994962E+03  0.7818608E-02  0.8681518E-01
         -1   -1    0    0    0  501 -0.00000000000E+00  0.00000000000E+00  0.30727500954E+03  0.30727500954E+03  0.00000000000E+00 0. -1.
          1   -1    0    0  501    0  0.00000000000E+00 -0.00000000000E+00 -0.81278379971E+03  0.81278379971E+03  0.00000000000E+00 0. -1.
         36    2    1    2    0    0 -0.71054273576E-14 -0.14210854715E-13 -0.50550879017E+03  0.11200588093E+04  0.99949617271E+03 0.  0.
         25    2    3    3    0    0  0.47106736118E+02 -0.98795838356E+02 -0.19044985021E+03  0.25236136922E+03  0.12423949841E+03 0.  0.
         35    2    3    3    0    0 -0.47106736118E+02  0.98795838356E+02 -0.31505893995E+03  0.86769744003E+03  0.80103498646E+03 0.  0.
         22    1    5    5    0    0 -0.21229638784E+03  0.16299488580E+03 -0.52721095365E+03  0.59126007707E+03  0.00000000000E+00 0. -1.
         22    1    5    5    0    0  0.16518965173E+03 -0.64199047445E+02  0.21215201369E+03  0.27643736297E+03  0.00000000000E+00 0. -1.
          5    1    4    4  502    0  0.79843057071E+02 -0.74849983711E+02 -0.83061586401E+02  0.13747272806E+03  0.47000000000E+01 0. -1.
         -5    1    4    4    0  502 -0.32736320953E+02 -0.23945854645E+02 -0.10738826381E+03  0.11488864117E+03  0.47000000000E+01 0. -1.
<mgrwt>
<rscale>  0 0.99949617E+03</rscale>
<asrwt>0</asrwt>
<pdfrwt beam="1">  1        1 0.12504366E+00 0.99949617E+03</pdfrwt>
<pdfrwt beam="2">  1       -1 0.47273078E-01 0.99949617E+03</pdfrwt>
<totfact> 0.10943511E+02</totfact>
</mgrwt>
</event>
<event>
 9    1  0.4296086E-036  0.9994616E+03  0.7818608E-02  0.8681551E-01
         -1   -1    0    0    0  501 -0.00000000000E+00  0.00000000000E+00  0.67746035933E+03  0.67746035933E+03  0.00000000000E+00 0.  1.
          1   -1    0    0  501    0  0.00000000000E+00 -0.00000000000E+00 -0.36862800804E+03  0.36862800804E+03  0.00000000000E+00 0.  1.
         36    2    1    2    0    0 -0.21316282073E-13  0.35527136788E-14  0.30883235129E+03  0.10460883674E+04  0.99946158063E+03 0.  0.
         25    2    3    3    0    0 -0.10819136003E+01  0.64493873855E+01  0.20431067450E+03  0.24109265092E+03  0.12782820298E+03 0.  0.
         35    2    3    3    0    0  0.10819136003E+01 -0.64493873855E+01  0.10452167679E+03  0.80499571645E+03  0.79815446967E+03 0.  0.
         22    1    5    5    0    0  0.39472429611E+03  0.53989546673E+02  0.27388394039E+02  0.39933978667E+03  0.00000000000E+00 0.  1.
         22    1    5    5    0    0 -0.39364238251E+03 -0.60438934058E+02  0.77133282747E+02  0.40565592978E+03  0.00000000000E+00 0.  1.
          5    1    4    4  502    0 -0.49644208628E+02  0.33460593390E+02  0.15653576071E+03  0.16765945586E+03  0.47000000000E+01 0.  1.
         -5    1    4    4    0  502  0.48562295027E+02 -0.27011206004E+02  0.47774913794E+02  0.73433195056E+02  0.47000000000E+01 0.  1.
<mgrwt>
<rscale>  0 0.99946158E+03</rscale>
<asrwt>0</asrwt>
<pdfrwt beam="1">  1        1 0.56712001E-01 0.99946158E+03</pdfrwt>
<pdfrwt beam="2">  1       -1 0.10422467E+00 0.99946158E+03</pdfrwt>
<totfact> 0.69545675E+01</totfact>
</mgrwt>
</event>
<event>
 9    1  0.4296086E-036  0.1000885E+04  0.7818608E-02  0.8680195E-01
          2   -1    0    0  501    0  0.00000000000E+00  0.00000000000E+00  0.44719004228E+03  0.44719004228E+03  0.00000000000E+00 0.  1.
         -2   -1    0    0    0  501 -0.00000000000E+00 -0.00000000000E+00 -0.56003678783E+03  0.56003678783E+03  0.00000000000E+00 0.  1.
         36    2    1    2    0    0 -0.28421709430E-13  0.00000000000E+00 -0.11284674554E+03  0.10072268301E+04  0.10008853577E+04 0.  0.
         25    2    3    3    0    0  0.10843920324E+03 -0.25639017808E+02 -0.11046645495E+03  0.20052217765E+03  0.12485946511E+03 0.  0.
         35    2    3    3    0    0 -0.10843920324E+03  0.25639017808E+02 -0.23802905944E+01  0.80670465246E+03  0.79896827877E+03 0.  0.
         22    1    5    5    0    0  0.23691416322E+03  0.80005490784E+02 -0.26882031765E+03  0.36714242804E+03  0.00000000000E+00 0. -1.
         22    1    5    5    0    0 -0.34535336647E+03 -0.54366472976E+02  0.26644002705E+03  0.43956222441E+03  0.00000000000E+00 0. -1.
          5    1    4    4  502    0 -0.18767613257E+02  0.13408467399E+02 -0.47974855702E+02  0.53438629145E+02  0.47000000000E+01 0.  1.
         -5    1    4    4    0  502  0.12720681650E+03 -0.39047485206E+02 -0.62491599246E+02  0.14708354851E+03  0.47000000000E+01 0.  1.
<mgrwt>
<rscale>  0 0.10008854E+04</rscale>
<asrwt>0</asrwt>
<pdfrwt beam="1">  1        2 0.68798468E-01 0.10008854E+04</pdfrwt>
<pdfrwt beam="2">  1       -2 0.86159506E-01 0.10008854E+04</pdfrwt>
<totfact> 0.98049495E+01</totfact>
</mgrwt>
</event>
<event>
 9    1  0.4296086E-036  0.1000460E+04  0.7818608E-02  0.8680600E-01
         -2   -1    0    0    0  501 -0.00000000000E+00  0.00000000000E+00  0.12331204511E+04  0.12331204511E+04  0.00000000000E+00 0. -1.
          2   -1    0    0  501    0  0.00000000000E+00 -0.00000000000E+00 -0.20292415237E+03  0.20292415237E+03  0.00000000000E+00 0. -1.
         36    2    1    2    0    0  0.14210854715E-13  0.14210854715E-13  0.10301962987E+04  0.14360446034E+04  0.10004597389E+04 0.  0.
         25    2    3    3    0    0  0.10049737028E+03  0.77877477186E+02  0.28001761991E+03  0.33189549645E+03  0.12482039182E+03 0.  0.
         35    2    3    3    0    0 -0.10049737028E+03 -0.77877477186E+02  0.75017867879E+03  0.11041491070E+04  0.80013284988E+03 0.  0.
         22    1    5    5    0    0 -0.41678640230E+03  0.99592438133E+02  0.52324807263E+03  0.67632692123E+03  0.00000000000E+00 0. -1.
         22    1    5    5    0    0  0.31628903201E+03 -0.17746991532E+03  0.22693060617E+03  0.42782218576E+03  0.00000000000E+00 0. -1.
          5    1    4    4  502    0  0.41891912898E+02 -0.29718403604E+02  0.11743204099E+03  0.12825946410E+03  0.47000000000E+01 0.  1.
         -5    1    4    4    0  502  0.58605457387E+02  0.10759588079E+03  0.16258557892E+03  0.20363603235E+03  0.47000000000E+01 0.  1.
<mgrwt>
<rscale>  0 0.10004597E+04</rscale>
<asrwt>0</asrwt>
<pdfrwt beam="1">  1        2 0.31219101E-01 0.10004597E+04</pdfrwt>
<pdfrwt beam="2">  1       -2 0.18971083E+00 0.10004597E+04</pdfrwt>
<totfact> 0.29051594E+01</totfact>
</mgrwt>
</event>
<event>
 9    1  0.4296086E-036  0.1004922E+04  0.7818608E-02  0.8676365E-01
         -2   -1    0    0    0  501 -0.00000000000E+00  0.00000000000E+00  0.40308787556E+03  0.40308787556E+03  0.00000000000E+00 0. -1.
          2   -1    0    0  501    0  0.00000000000E+00 -0.00000000000E+00 -0.62633217738E+03  0.62633217738E+03  0.00000000000E+00 0. -1.
         36    2    1    2    0    0  0.14210854715E-13  0.17763568394E-14 -0.22324430182E+03  0.10294200529E+04  0.10049217020E+04 0.  0.
         25    2    3    3    0    0  0.85165063354E+02 -0.13156483856E+02  0.75259493600E+02  0.17145713228E+03  0.12770033574E+03 0.  0.
         35    2    3    3    0    0 -0.85165063354E+02  0.13156483856E+02 -0.29850379542E+03  0.85796292067E+03  0.79973100245E+03 0.  0.
         22    1    5    5    0    0  0.36379083746E+02  0.23632934561E+02 -0.56405975207E+03  0.56572551404E+03  0.00000000000E+00 0.  1.
         22    1    5    5    0    0 -0.12154414710E+03 -0.10476450705E+02  0.26555595666E+03  0.29223740662E+03  0.00000000000E+00 0.  1.
          5    1    4    4  502    0  0.89608400614E+02 -0.28634630277E+02 -0.16483431075E+00  0.94189833220E+02  0.47000000000E+01 0. -1.
         -5    1    4    4    0  502 -0.44433372601E+01  0.15478146420E+02  0.75424327911E+02  0.77267299056E+02  0.47000000000E+01 0. -1.
<mgrwt>
<rscale>  0 0.10049217E+04</rscale>
<asrwt>0</asrwt>
<pdfrwt beam="1">  1        2 0.96358797E-01 0.10049217E+04</pdfrwt>
<pdfrwt beam="2">  1       -2 0.62013519E-01 0.10049217E+04</pdfrwt>
<totfact> 0.13752461E+02</totfact>
</mgrwt>
</event>
<event>
 9    1  0.4296086E-036  0.1000382E+04  0.7818608E-02  0.8680675E-01
          1   -1    0    0  501    0  0.00000000000E+00  0.00000000000E+00  0.28678184837E+04  0.28678184837E+04  0.00000000000E+00 0.  1.
         -1   -1    0    0    0  501 -0.00000000000E+00 -0.00000000000E+00 -0.87240822342E+02  0.87240822342E+02  0.00000000000E+00 0.  1.
         36    2    1    2    0    0  0.00000000000E+00 -0.31974423109E-13  0.27805776614E+04  0.29550593061E+04  0.10003816129E+04 0.  0.
         25    2    3    3    0    0 -0.35443554235E+02  0.68663622481E+00  0.92671153167E+03  0.93565911094E+03  0.12412490459E+03 0.  0.
         35    2    3    3    0    0  0.35443554235E+02 -0.68663622481E+00  0.18538661297E+04  0.20194001951E+04  0.79993800022E+03 0.  0.
         22    1    5    5    0    0  0.28496047906E+02  0.39827631282E+03  0.10054482470E+04  0.10818328075E+04  0.00000000000E+00 0. -1.
         22    1    5    5    0    0  0.69475063290E+01 -0.39896294904E+03  0.84841788272E+03  0.93756738759E+03  0.00000000000E+00 0. -1.
          5    1    4    4  502    0  0.28525659884E+02  0.20501984477E+02  0.64830330339E+03  0.64927136686E+03  0.47000000000E+01 0.  1.
         -5    1    4    4    0  502 -0.63969214119E+02 -0.19815348253E+02  0.27840822828E+03  0.28638774407E+03  0.47000000000E+01 0.  1.
<mgrwt>
<rscale>  0 0.10003816E+04</rscale>
<asrwt>0</asrwt>
<pdfrwt beam="1">  1        1 0.44120277E+00 0.10003816E+04</pdfrwt>
<pdfrwt beam="2">  1       -1 0.13421667E-01 0.10003816E+04</pdfrwt>
<totfact> 0.29831875E+01</totfact>
</mgrwt>
</event>
<event>
 9    1  0.4296086E-036  0.1000514E+04  0.7818608E-02  0.8680549E-01
         -2   -1    0    0    0  501 -0.00000000000E+00  0.00000000000E+00  0.68693461402E+03  0.68693461402E+03  0.00000000000E+00 0.  1.
          2   -1    0    0  501    0  0.00000000000E+00 -0.00000000000E+00 -0.36430989605E+03  0.36430989605E+03  0.00000000000E+00 0.  1.
         36    2    1    2    0    0  0.14210854715E-13 -0.71054273576E-14  0.32262471797E+03  0.10512445101E+04  0.10005140235E+04 0.  0.
         25    2    3    3    0    0  0.10373567643E+03 -0.62412798747E+02 -0.11349306541E+02  0.17578839011E+03  0.12695000325E+03 0.  0.
         35    2    3    3    0    0 -0.10373567643E+03  0.62412798747E+02  0.33397402451E+03  0.87545611996E+03  0.80014268784E+03 0.  0.
         22    1    5    5    0    0 -0.41228017388E+03 -0.14548587948E+03  0.18144079607E+03  0.47335171425E+03  0.00000000000E+00 0.  1.
         22    1    5    5    0    0  0.30854449745E+03  0.20789867823E+03  0.15253322845E+03  0.40210440571E+03  0.00000000000E+00 0.  1.
          5    1    4    4  502    0  0.85304521408E+02  0.17778945871E+02 -0.28119333417E+02  0.91682818460E+02  0.47000000000E+01 0. -1.
         -5    1    4    4    0  502  0.18431155026E+02 -0.80191744618E+02  0.16770026877E+02  0.84105571646E+02  0.47000000000E+01 0. -1.
<mgrwt>
<rscale>  0 0.10005140E+04</rscale>
<asrwt>0</asrwt>
<pdfrwt beam="1">  1        2 0.56047676E-01 0.10005140E+04</pdfrwt>
<pdfrwt beam="2">  1       -2 0.10568225E+00 0.10005140E+04</pdfrwt>
<totfact> 0.75630071E+01</totfact>
</mgrwt>
</event>
<event>
 9    1  0.4296086E-036  0.1001367E+04  0.7818608E-02  0.8679737E-01
          1   -1    0    0  501    0  0.00000000000E+00  0.00000000000E+00  0.13761708630E+04  0.13761708630E+04  0.00000000000E+00 0. -1.
         -1   -1    0    0    0  501 -0.00000000000E+00 -0.00000000000E+00 -0.18216053456E+03  0.18216053456E+03  0.00000000000E+00 0. -1.
         36    2    1    2    0    0  0.00000000000E+00  0.14210854715E-13  0.11940103284E+04  0.15583313976E+04  0.10013671056E+04 0.  0.
         25    2    3    3    0    0  0.65004544442E+02  0.12608057167E+03  0.22783502425E+03  0.29615685486E+03  0.12521255151E+03 0.  0.
         35    2    3    3    0    0 -0.65004544442E+02 -0.12608057167E+03  0.96617530420E+03  0.12621745427E+04  0.79966740364E+03 0.  0.
         22    1    5    5    0    0 -0.31382662407E+03 -0.20835989088E+03  0.92255217948E+03  0.99649561864E+03  0.00000000000E+00 0.  1.
         22    1    5    5    0    0  0.24882207963E+03  0.82279319214E+02  0.43623124714E+02  0.26567892406E+03  0.00000000000E+00 0.  1.
          5    1    4    4  502    0  0.50425872386E+02  0.14591699927E+03  0.15369855946E+03  0.21789877572E+03  0.47000000000E+01 0.  1.
         -5    1    4    4    0  502  0.14578672056E+02 -0.19836427599E+02  0.74136464794E+02  0.78258079141E+02  0.47000000000E+01 0.  1.
<mgrwt>
<rscale>  0 0.10013671E+04</rscale>
<asrwt>0</asrwt>
<pdfrwt beam="1">  1        1 0.21171859E+00 0.10013671E+04</pdfrwt>
<pdfrwt beam="2">  1       -1 0.28024699E-01 0.10013671E+04</pdfrwt>
<totfact> 0.99951048E+01</totfact>
</mgrwt>
</event>
<event>
 9    1  0.4296086E-036  0.1001050E+04  0.7818608E-02  0.8680039E-01
          4   -1    0    0  501    0  0.00000000000E+00  0.00000000000E+00  0.25908947288E+03  0.25908947288E+03  0.00000000000E+00 0. -1.
         -4   -1    0    0    0  501 -0.00000000000E+00 -0.00000000000E+00 -0.96694474983E+03  0.96694474983E+03  0.00000000000E+00 0. -1.
         36    2    1    2    0    0  0.35527136788E-14  0.28421709430E-13 -0.70785527695E+03  0.12260342227E+04  0.10010498600E+04 0.  0.
         25    2    3    3    0    0  0.20389592226E+02  0.73204274630E+02  0.11216725358E+02  0.14661556240E+03  0.12488277269E+03 0.  0.
         35    2    3    3    0    0 -0.20389592226E+02 -0.73204274630E+02 -0.71907200231E+03  0.10794186603E+04  0.80143964117E+03 0.  0.
         22    1    5    5    0    0 -0.19916771001E+03  0.29258616680E+03 -0.16156684063E+03  0.38907362504E+03  0.00000000000E+00 0.  1.
         22    1    5    5    0    0  0.17877811778E+03 -0.36579044143E+03 -0.55750516168E+03  0.69034503528E+03  0.00000000000E+00 0.  1.
          5    1    4    4  502    0  0.33277973525E+01  0.49375122164E+01  0.60247272431E+02  0.60722953630E+02  0.47000000000E+01 0. -1.
         -5    1    4    4    0  502  0.17061794874E+02  0.68266762413E+02 -0.49030547073E+02  0.85892608768E+02  0.47000000000E+01 0. -1.
<mgrwt>
<rscale>  0 0.10010499E+04</rscale>
<asrwt>0</asrwt>
<pdfrwt beam="1">  1        4 0.39859920E-01 0.10010499E+04</pdfrwt>
<pdfrwt beam="2">  1       -4 0.14876073E+00 0.10010499E+04</pdfrwt>
<totfact> 0.37644038E+00</totfact>
</mgrwt>
</event>
<event>
 9    1  0.4296086E-036  0.9996360E+03  0.7818608E-02  0.8681385E-01
         -2   -1    0    0    0  501 -0.00000000000E+00  0.00000000000E+00  0.18943943169E+03  0.18943943169E+03  0.00000000000E+00 0. -1.
          2   -1    0    0  501    0  0.00000000000E+00 -0.00000000000E+00 -0.13187224701E+04  0.13187224701E+04  0.00000000000E+00 0. -1.
         36    2    1    2    0    0 -0.28421709430E-13  0.42632564146E-13 -0.11292830384E+04  0.15081619018E+04  0.99963600434E+03 0.  0.
         25    2    3    3    0    0 -0.30526571987E+02  0.89200563272E+02 -0.36894573436E+03  0.40089298907E+03  0.12532207188E+03 0.  0.
         35    2    3    3    0    0  0.30526571987E+02 -0.89200563272E+02 -0.76033730406E+03  0.11072689127E+04  0.79940166190E+03 0.  0.
         22    1    5    5    0    0  0.25929785780E+03  0.26594456887E+03 -0.44767871567E+03  0.58170278084E+03  0.00000000000E+00 0.  1.
         22    1    5    5    0    0 -0.22877128581E+03 -0.35514513214E+03 -0.31265858839E+03  0.52556613189E+03  0.00000000000E+00 0.  1.
          5    1    4    4  502    0 -0.70068185426E+02  0.54791972047E+02 -0.13966891354E+03  0.16565387475E+03  0.47000000000E+01 0. -1.
         -5    1    4    4    0  502  0.39541613439E+02  0.34408591225E+02 -0.22927682082E+03  0.23523911432E+03  0.47000000000E+01 0. -1.
<mgrwt>
<rscale>  0 0.99963600E+03</rscale>
<asrwt>0</asrwt>
<pdfrwt beam="1">  1        2 0.20288038E+00 0.99963600E+03</pdfrwt>
<pdfrwt beam="2">  1       -2 0.29144528E-01 0.99963600E+03</pdfrwt>
<totfact> 0.20949935E+02</totfact>
</mgrwt>
</event>
<event>
 9    1  0.4296086E-036  0.1004111E+04  0.7818608E-02  0.8677133E-01
          2   -1    0    0  501    0  0.00000000000E+00  0.00000000000E+00  0.69673682548E+03  0.69673682548E+03  0.00000000000E+00 0. -1.
         -2   -1    0    0    0  501 -0.00000000000E+00 -0.00000000000E+00 -0.36177171083E+03  0.36177171083E+03  0.00000000000E+00 0. -1.
         36    2    1    2    0    0  0.28421709430E-13 -0.14210854715E-13  0.33496511465E+03  0.10585085363E+04  0.10041108970E+04 0.  0.
         25    2    3    3    0    0 -0.10821366547E+03 -0.73384111687E+02 -0.99384911571E+01  0.18184939856E+03  0.12599605115E+03 0.  0.
         35    2    3    3    0    0  0.10821366547E+03  0.73384111687E+02  0.34490360581E+03  0.87665913776E+03  0.79528442791E+03 0.  0.
         22    1    5    5    0    0  0.33449584703E+03 -0.21722203389E+03  0.44389290466E+02  0.40130199700E+03  0.00000000000E+00 0.  1.
         22    1    5    5    0    0 -0.22628218156E+03  0.29060614558E+03  0.30051431534E+03  0.47535714075E+03  0.00000000000E+00 0.  1.
          5    1    4    4  502    0 -0.28821259980E+01 -0.52309013422E+02  0.37224666179E+02  0.64438383807E+02  0.47000000000E+01 0. -1.
         -5    1    4    4    0  502 -0.10533153947E+03 -0.21075098264E+02 -0.47163157336E+02  0.11741101475E+03  0.47000000000E+01 0. -1.
<mgrwt>
<rscale>  0 0.10041109E+04</rscale>
<asrwt>0</asrwt>
<pdfrwt beam="1">  1        2 0.10719028E+00 0.10041109E+04</pdfrwt>
<pdfrwt beam="2">  1       -2 0.55657186E-01 0.10041109E+04</pdfrwt>
<totfact> 0.15131261E+02</totfact>
</mgrwt>
</event>
<event>
 9    1  0.4296086E-036  0.9857443E+03  0.7818608E-02  0.8694734E-01
         -1   -1    0    0    0  501 -0.00000000000E+00  0.00000000000E+00  0.26032783454E+03  0.26032783454E+03  0.00000000000E+00 0. -1.
          1   -1    0    0  501    0  0.00000000000E+00 -0.00000000000E+00 -0.93314248843E+03  0.93314248843E+03  0.00000000000E+00 0. -1.
         36    2    1    2    0    0 -0.21316282073E-13 -0.14210854715E-13 -0.67281465389E+03  0.11934703230E+04  0.98574431437E+03 0.  0.
         25    2    3    3    0    0  0.55183993727E+02 -0.57470994316E+02 -0.68920446970E+01  0.14934459311E+03  0.12612739140E+03 0.  0.
         35    2    3    3    0    0 -0.55183993727E+02  0.57470994316E+02 -0.66592260919E+03  0.10441257299E+04  0.80024835518E+03 0.  0.
         22    1    5    5    0    0 -0.23518131284E+03  0.24761597861E+03 -0.14225407073E+02  0.34179860295E+03  0.00000000000E+00 0.  1.
         22    1    5    5    0    0  0.17999731911E+03 -0.19014498429E+03 -0.65169720212E+03  0.70232712691E+03  0.00000000000E+00 0.  1.
          5    1    4    4  502    0  0.33416706762E+02  0.36909273541E+02  0.97580638513E+01  0.50953710113E+02  0.47000000000E+01 0. -1.
         -5    1    4    4    0  502  0.21767286965E+02 -0.94380267857E+02 -0.16650108548E+02  0.98390882999E+02  0.47000000000E+01 0. -1.
<mgrwt>
<rscale>  0 0.98574431E+03</rscale>
<asrwt>0</asrwt>
<pdfrwt beam="1">  1        1 0.14356038E+00 0.98574431E+03</pdfrwt>
<pdfrwt beam="2">  1       -1 0.40050436E-01 0.98574431E+03</pdfrwt>
<totfact> 0.11691731E+02</totfact>
</mgrwt>
</event>
<event>
 9    1  0.4296086E-036  0.9992863E+03  0.7818608E-02  0.8681718E-01
         -2   -1    0    0    0  501 -0.00000000000E+00  0.00000000000E+00  0.13953646675E+03  0.13953646675E+03  0.00000000000E+00 0. -1.
          2   -1    0    0  501    0  0.00000000000E+00 -0.00000000000E+00 -0.17890897860E+04  0.17890897860E+04  0.00000000000E+00 0. -1.
         36    2    1    2    0    0  0.28421709430E-13  0.14210854715E-13 -0.16495533192E+04  0.19286262527E+04  0.99928628016E+03 0.  0.
         25    2    3    3    0    0 -0.81990259643E+02 -0.89457607968E+02 -0.42801779207E+03  0.46230814634E+03  0.12571605126E+03 0.  0.
         35    2    3    3    0    0  0.81990259643E+02  0.89457607968E+02 -0.12215355272E+04  0.14663181064E+04  0.80200665751E+03 0.  0.
         22    1    5    5    0    0 -0.31336369195E+03 -0.73170996695E+02 -0.81563975562E+03  0.87682324852E+03  0.00000000000E+00 0.  1.
         22    1    5    5    0    0  0.39535395159E+03  0.16262860466E+03 -0.40589577153E+03  0.58949485786E+03  0.00000000000E+00 0.  1.
          5    1    4    4  502    0 -0.10473266783E+03 -0.96499588312E+02 -0.40302615928E+03  0.42747313052E+03  0.47000000000E+01 0. -1.
         -5    1    4    4    0  502  0.22742408191E+02  0.70419803437E+01 -0.24991632799E+02  0.34835015824E+02  0.47000000000E+01 0. -1.
<mgrwt>
<rscale>  0 0.99928628E+03</rscale>
<asrwt>0</asrwt>
<pdfrwt beam="1">  1        2 0.27524457E+00 0.99928628E+03</pdfrwt>
<pdfrwt beam="2">  1       -2 0.21467150E-01 0.99928628E+03</pdfrwt>
<totfact> 0.19517688E+02</totfact>
</mgrwt>
</event>
<event>
 9    1  0.4296086E-036  0.1000038E+04  0.7818608E-02  0.8681002E-01
         -1   -1    0    0    0  501 -0.00000000000E+00  0.00000000000E+00  0.13637954084E+03  0.13637954084E+03  0.00000000000E+00 0.  1.
          1   -1    0    0  501    0  0.00000000000E+00 -0.00000000000E+00 -0.18332578950E+04  0.18332578950E+04  0.00000000000E+00 0.  1.
         36    2    1    2    0    0  0.00000000000E+00  0.00000000000E+00 -0.16968783542E+04  0.19696374359E+04  0.10000377392E+04 0.  0.
         25    2    3    3    0    0  0.10854406064E+03 -0.68628539633E+02 -0.42839249537E+03  0.46459330500E+03  0.12583767085E+03 0.  0.
         35    2    3    3    0    0 -0.10854406064E+03  0.68628539633E+02 -0.12684858588E+04  0.15050441309E+04  0.79975607050E+03 0.  0.
         22    1    5    5    0    0  0.31916796833E+03  0.29110295854E+02 -0.27359769659E+03  0.42139209878E+03  0.00000000000E+00 0.  1.
         22    1    5    5    0    0 -0.42771202897E+03  0.39518243779E+02 -0.99488816225E+03  0.10836520321E+04  0.00000000000E+00 0.  1.
          5    1    4    4  502    0 -0.23387747064E+02  0.70448622767E+01 -0.36257370790E+02  0.43969349936E+02  0.47000000000E+01 0.  1.
         -5    1    4    4    0  502  0.13193180771E+03 -0.75673401910E+02 -0.39213512458E+03  0.42062395506E+03  0.47000000000E+01 0.  1.
<mgrwt>
<rscale>  0 0.10000377E+04</rscale>
<asrwt>0</asrwt>
<pdfrwt beam="1">  1        1 0.28203966E+00 0.10000377E+04</pdfrwt>
<pdfrwt beam="2">  1       -1 0.20981469E-01 0.10000377E+04</pdfrwt>
<totfact> 0.77014210E+01</totfact>
</mgrwt>
</event>
<event>
 9    1  0.4296086E-036  0.9951337E+03  0.7818608E-02  0.8685686E-01
          1   -1    0    0  501    0  0.00000000000E+00  0.00000000000E+00  0.12287985920E+04  0.12287985920E+04  0.00000000000E+00 0. -1.
         -1   -1    0    0    0  501 -0.00000000000E+00 -0.00000000000E+00 -0.20147547885E+03  0.20147547885E+03  0.00000000000E+00 0. -1.
         36    2    1    2    0    0  0.28421709430E-13 -0.14210854715E-13  0.10273231131E+04  0.14302740708E+04  0.99513372915E+03 0.  0.
         25    2    3    3    0    0 -0.11262485412E+03 -0.64628138904E+02  0.15284763333E+03  0.23704078626E+03  0.12635181532E+03 0.  0.
         35    2    3    3    0    0  0.11262485412E+03  0.64628138904E+02  0.87447547977E+03  0.11932332845E+04  0.80139700057E+03 0.  0.
         22    1    5    5    0    0  0.32062372905E+03 -0.10793005571E+03  0.71201423995E+02  0.34571392123E+03  0.00000000000E+00 0.  1.
         22    1    5    5    0    0 -0.20799887493E+03  0.17255819461E+03  0.80327405577E+03  0.84751936331E+03  0.00000000000E+00 0.  1.
          5    1    4    4  502    0 -0.12657677018E+02  0.35171694798E+02  0.48222080524E+02  0.61194149659E+02  0.47000000000E+01 0.  1.
         -5    1    4    4    0  502 -0.99967177098E+02 -0.99799833702E+02  0.10462555281E+03  0.17584663660E+03  0.47000000000E+01 0.  1.
<mgrwt>
<rscale>  0 0.99513373E+03</rscale>
<asrwt>0</asrwt>
<pdfrwt beam="1">  1        1 0.18904593E+00 0.99513373E+03</pdfrwt>
<pdfrwt beam="2">  1       -1 0.30996228E-01 0.99513373E+03</pdfrwt>
<totfact> 0.10788155E+02</totfact>
</mgrwt>
</event>
<event>
 9    1  0.4296086E-036  0.9999950E+03  0.7818608E-02  0.8681043E-01
          1   -1    0    0  501    0  0.00000000000E+00  0.00000000000E+00  0.40822007240E+03  0.40822007240E+03  0.00000000000E+00 0. -1.
         -1   -1    0    0    0  501 -0.00000000000E+00 -0.00000000000E+00 -0.61240859027E+03  0.61240859027E+03  0.00000000000E+00 0. -1.
         36    2    1    2    0    0 -0.46185277824E-13 -0.71054273576E-14 -0.20418851788E+03  0.10206286627E+04  0.99999495810E+03 0.  0.
         25    2    3    3    0    0 -0.10287323945E+02  0.26847122494E+02 -0.17893468397E+03  0.22025036735E+03  0.12516391721E+03 0.  0.
         35    2    3    3    0    0  0.10287323945E+02 -0.26847122494E+02 -0.25253833909E+02  0.80037829532E+03  0.79946298380E+03 0.  0.
         22    1    5    5    0    0 -0.31031520596E+03  0.38059088956E+02 -0.25267632541E+03  0.40198177412E+03  0.00000000000E+00 0. -1.
         22    1    5    5    0    0  0.32060252990E+03 -0.64906211450E+02  0.22742249150E+03  0.39839652120E+03  0.00000000000E+00 0. -1.
          5    1    4    4  502    0 -0.30041116537E+02  0.25214979412E+02  0.65728992489E+00  0.39506782957E+02  0.47000000000E+01 0.  1.
         -5    1    4    4    0  502  0.19753792592E+02  0.16321430819E+01 -0.17959197389E+03  0.18074358439E+03  0.47000000000E+01 0.  1.
<mgrwt>
<rscale>  0 0.99999496E+03</rscale>
<asrwt>0</asrwt>
<pdfrwt beam="1">  1        1 0.62803088E-01 0.99999496E+03</pdfrwt>
<pdfrwt beam="2">  1       -1 0.94216706E-01 0.99999496E+03</pdfrwt>
<totfact> 0.76040670E+01</totfact>
</mgrwt>
</event>
<event>
 9    1  0.4296086E-036  0.9995561E+03  0.7818608E-02  0.8681461E-01
         -1   -1    0    0    0  501 -0.00000000000E+00  0.00000000000E+00  0.19813074110E+03  0.19813074110E+03  0.00000000000E+00 0.  1.
          1   -1    0    0  501    0  0.00000000000E+00 -0.00000000000E+00 -0.12606731075E+04  0.12606731075E+04  0.00000000000E+00 0.  1.
         36    2    1    2    0    0 -0.14210854715E-13  0.00000000000E+00 -0.10625423664E+04  0.14588038486E+04  0.99955609564E+03 0.  0.
         25    2    3    3    0    0  0.68747685730E+02  0.10679916915E+03 -0.28391730169E+03  0.33515956762E+03  0.12486230313E+03 0.  0.
         35    2    3    3    0    0 -0.68747685730E+02 -0.10679916915E+03 -0.77862506475E+03  0.11236442810E+04  0.80011697394E+03 0.  0.
         22    1    5    5    0    0  0.11832426172E+03 -0.41495335504E+03 -0.54046695415E+03  0.69158618140E+03  0.00000000000E+00 0.  1.
         22    1    5    5    0    0 -0.18707194745E+03  0.30815418589E+03 -0.23815811060E+03  0.43205809962E+03  0.00000000000E+00 0.  1.
          5    1    4    4  502    0 -0.43045622343E+01 -0.21763406643E+02 -0.12134562283E+02  0.25719889707E+02  0.47000000000E+01 0.  1.
         -5    1    4    4    0  502  0.73052247964E+02  0.12856257579E+03 -0.27178273941E+03  0.30943967792E+03  0.47000000000E+01 0. -1.
<mgrwt>
<rscale>  0 0.99955610E+03</rscale>
<asrwt>0</asrwt>
<pdfrwt beam="1">  1        1 0.19394971E+00 0.99955610E+03</pdfrwt>
<pdfrwt beam="2">  1       -1 0.30481652E-01 0.99955610E+03</pdfrwt>
<totfact> 0.10512813E+02</totfact>
</mgrwt>
</event>
<event>
 9    1  0.4296086E-036  0.1000467E+04  0.7818608E-02  0.8680594E-01
         -3   -1    0    0    0  501 -0.00000000000E+00  0.00000000000E+00  0.22083628009E+03  0.22083628009E+03  0.00000000000E+00 0. -1.
          3   -1    0    0  501    0  0.00000000000E+00 -0.00000000000E+00 -0.11331174409E+04  0.11331174409E+04  0.00000000000E+00 0. -1.
         36    2    1    2    0    0 -0.42632564146E-13 -0.28421709430E-13 -0.91228116078E+03  0.13539537210E+04  0.10004667722E+04 0.  0.
         25    2    3    3    0    0  0.54688274372E+02  0.11801233106E+03 -0.23719673882E+03  0.29796876678E+03  0.12492147708E+03 0.  0.
         35    2    3    3    0    0 -0.54688274372E+02 -0.11801233106E+03 -0.67508442196E+03  0.10559849542E+04  0.80152824593E+03 0.  0.
         22    1    5    5    0    0 -0.26290388697E+03  0.15906287598E+03 -0.11679368969E+02  0.30749936579E+03  0.00000000000E+00 0. -1.
         22    1    5    5    0    0  0.20821561260E+03 -0.27707520704E+03 -0.66340505299E+03  0.74848558839E+03  0.00000000000E+00 0. -1.
          5    1    4    4  502    0  0.76407499271E+02  0.23968757936E+02 -0.78957264699E+02  0.11255641675E+03  0.47000000000E+01 0. -1.
         -5    1    4    4    0  502 -0.21719224898E+02  0.94043573126E+02 -0.15823947412E+03  0.18541235004E+03  0.47000000000E+01 0. -1.
<mgrwt>
<rscale>  0 0.10004668E+04</rscale>
<asrwt>0</asrwt>
<pdfrwt beam="1">  1        3 0.17432576E+00 0.10004668E+04</pdfrwt>
<pdfrwt beam="2">  1       -3 0.33974812E-01 0.10004668E+04</pdfrwt>
<totfact> 0.75804875E+00</totfact>
</mgrwt>
</event>
<event>
 9    1  0.4296086E-036  0.9997944E+03  0.7818608E-02  0.8681234E-01
          2   -1    0    0  501    0  0.00000000000E+00  0.00000000000E+00  0.11573798972E+04  0.11573798972E+04  0.00000000000E+00 0.  1.
         -2   -1    0    0    0  501 -0.00000000000E+00 -0.00000000000E+00 -0.21591630737E+03  0.21591630737E+03  0.00000000000E+00 0.  1.
         36    2    1    2    0    0  0.00000000000E+00 -0.14210854715E-13  0.94146358984E+03  0.13732962046E+04  0.99979436611E+03 0.  0.
         25    2    3    3    0    0 -0.48821354994E+02 -0.11696153691E+03  0.98085649154E+02  0.20393758213E+03  0.12611985179E+03 0.  0.
         35    2    3    3    0    0  0.48821354994E+02  0.11696153691E+03  0.84337794069E+03  0.11693586224E+04  0.80003106892E+03 0.  0.
         22    1    5    5    0    0  0.40846441832E+03  0.78163967686E+01  0.29238077348E+03  0.50238510506E+03  0.00000000000E+00 0. -1.
         22    1    5    5    0    0 -0.35964306333E+03  0.10914514014E+03  0.55099716721E+03  0.66697351738E+03  0.00000000000E+00 0. -1.
          5    1    4    4  502    0 -0.59871750521E+02 -0.46426460959E+01  0.10826325274E+02  0.61200326733E+02  0.47000000000E+01 0. -1.
         -5    1    4    4    0  502  0.11050395528E+02 -0.11231889081E+03  0.87259323880E+02  0.14273725540E+03  0.47000000000E+01 0. -1.
<mgrwt>
<rscale>  0 0.99979437E+03</rscale>
<asrwt>0</asrwt>
<pdfrwt beam="1">  1        2 0.17805844E+00 0.99979437E+03</pdfrwt>
<pdfrwt beam="2">  1       -2 0.33217894E-01 0.99979437E+03</pdfrwt>
<totfact> 0.20500376E+02</totfact>
</mgrwt>
</event>
<event>
 9    1  0.4296086E-036  0.9997612E+03  0.7818608E-02  0.8681265E-01
          2   -1    0    0  501    0  0.00000000000E+00  0.00000000000E+00  0.79628962576E+03  0.79628962576E+03  0.00000000000E+00 0.  1.
         -2   -1    0    0    0  501 -0.00000000000E+00 -0.00000000000E+00 -0.31380619210E+03  0.31380619210E+03  0.00000000000E+00 0.  1.
         36    2    1    2    0    0  0.00000000000E+00  0.14210854715E-13  0.48248343366E+03  0.11100958179E+04  0.99976120203E+03 0.  0.
         25    2    3    3    0    0 -0.92512473142E+02 -0.94325185752E+02  0.42074767050E+02  0.18670171727E+03  0.12502578477E+03 0.  0.
         35    2    3    3    0    0  0.92512473142E+02  0.94325185752E+02  0.44040866661E+03  0.92339410059E+03  0.80077529497E+03 0.  0.
         22    1    5    5    0    0  0.27485547025E+03  0.24681604704E+03 -0.55408493983E+02  0.37354222226E+03  0.00000000000E+00 0. -1.
         22    1    5    5    0    0 -0.18234299711E+03 -0.15249086129E+03  0.49581716059E+03  0.54985187833E+03  0.00000000000E+00 0. -1.
          5    1    4    4  502    0 -0.62439510748E+02 -0.12280744117E+03  0.44747394688E+02  0.14493025716E+03  0.47000000000E+01 0. -1.
         -5    1    4    4    0  502 -0.30072962394E+02  0.28482255423E+02 -0.26726276380E+01  0.41771460109E+02  0.47000000000E+01 0. -1.
<mgrwt>
<rscale>  0 0.99976120E+03</rscale>
<asrwt>0</asrwt>
<pdfrwt beam="1">  1        2 0.12250609E+00 0.99976120E+03</pdfrwt>
<pdfrwt beam="2">  1       -2 0.48277876E-01 0.99976120E+03</pdfrwt>
<totfact> 0.17049087E+02</totfact>
</mgrwt>
</event>
<event>
 9    1  0.4296086E-036  0.9979904E+03  0.7818608E-02  0.8682954E-01
          2   -1    0    0  501    0  0.00000000000E+00  0.00000000000E+00  0.50610279551E+03  0.50610279551E+03  0.00000000000E+00 0. -1.
         -2   -1    0    0    0  501 -0.00000000000E+00 -0.00000000000E+00 -0.49198744168E+03  0.49198744168E+03  0.00000000000E+00 0. -1.
         36    2    1    2    0    0 -0.21316282073E-13  0.00000000000E+00  0.14115353827E+02  0.99809023719E+03  0.99799041998E+03 0.  0.
         25    2    3    3    0    0  0.55661764513E+02  0.12591639755E+03  0.27807235948E+02  0.18737324264E+03  0.12402547515E+03 0.  0.
         35    2    3    3    0    0 -0.55661764513E+02 -0.12591639755E+03 -0.13691882120E+02  0.81071699455E+03  0.79882501614E+03 0.  0.
         22    1    5    5    0    0  0.36721502474E+03  0.70594602466E+01 -0.94972412972E+01  0.36740564498E+03  0.00000000000E+00 0.  1.
         22    1    5    5    0    0 -0.42287678925E+03 -0.13297585780E+03 -0.41946408231E+01  0.44331134957E+03  0.00000000000E+00 0.  1.
          5    1    4    4  502    0  0.39663269091E+02 -0.97774636531E+01 -0.15528947118E+02  0.43954657422E+02  0.47000000000E+01 0.  1.
         -5    1    4    4    0  502  0.15998495422E+02  0.13569386120E+03  0.43336183065E+02  0.14341858522E+03  0.47000000000E+01 0.  1.
<mgrwt>
<rscale>  0 0.99799042E+03</rscale>
<asrwt>0</asrwt>
<pdfrwt beam="1">  1        2 0.77861969E-01 0.99799042E+03</pdfrwt>
<pdfrwt beam="2">  1       -2 0.75690375E-01 0.99799042E+03</pdfrwt>
<totfact> 0.11472986E+02</totfact>
</mgrwt>
</event>
<event>
 9    1  0.4296086E-036  0.9986527E+03  0.7818608E-02  0.8682322E-01
         -1   -1    0    0    0  501 -0.00000000000E+00  0.00000000000E+00  0.19654949235E+03  0.19654949235E+03  0.00000000000E+00 0. -1.
          1   -1    0    0  501    0  0.00000000000E+00 -0.00000000000E+00 -0.12685191577E+04  0.12685191577E+04  0.00000000000E+00 0. -1.
         36    2    1    2    0    0  0.00000000000E+00 -0.28421709430E-13 -0.10719696653E+04  0.14650686500E+04  0.99865268532E+03 0.  0.
         25    2    3    3    0    0 -0.37967836796E+02 -0.88135910615E+02 -0.35044800746E+03  0.38456331040E+03  0.12595887583E+03 0.  0.
         35    2    3    3    0    0  0.37967836796E+02  0.88135910615E+02 -0.72152165787E+03  0.10805053396E+04  0.79855418778E+03 0.  0.
         22    1    5    5    0    0 -0.12597222023E+03 -0.20543045265E+03  0.43480982208E+02  0.24486989803E+03  0.00000000000E+00 0.  1.
         22    1    5    5    0    0  0.16394005702E+03  0.29356636327E+03 -0.76500264008E+03  0.83563544161E+03  0.00000000000E+00 0.  1.
          5    1    4    4  502    0 -0.60134442654E+02 -0.90864348672E+02 -0.34395906090E+03  0.36083570586E+03  0.47000000000E+01 0. -1.
         -5    1    4    4    0  502  0.22166605857E+02  0.27284380566E+01 -0.64889465662E+01  0.23727604536E+02  0.47000000000E+01 0. -1.
<mgrwt>
<rscale>  0 0.99865269E+03</rscale>
<asrwt>0</asrwt>
<pdfrwt beam="1">  1        1 0.19515679E+00 0.99865269E+03</pdfrwt>
<pdfrwt beam="2">  1       -1 0.30238384E-01 0.99865269E+03</pdfrwt>
<totfact> 0.10518284E+02</totfact>
</mgrwt>
</event>
<event>
 9    1  0.4296086E-036  0.9999943E+03  0.7818608E-02  0.8681043E-01
          2   -1    0    0  501    0  0.00000000000E+00  0.00000000000E+00  0.63463018713E+03  0.63463018713E+03  0.00000000000E+00 0.  1.
         -2   -1    0    0    0  501 -0.00000000000E+00 -0.00000000000E+00 -0.39392575146E+03  0.39392575146E+03  0.00000000000E+00 0.  1.
         36    2    1    2    0    0  0.14210854715E-13  0.28421709430E-13  0.24070443567E+03  0.10285559386E+04  0.99999434671E+03 0.  0.
         25    2    3    3    0    0 -0.10267466077E+03 -0.50665321456E+02 -0.36928841223E+02  0.17241615994E+03  0.12350923905E+03 0.  0.
         35    2    3    3    0    0  0.10267466077E+03  0.50665321456E+02  0.27763327689E+03  0.85613977865E+03  0.80173937372E+03 0.  0.
         22    1    5    5    0    0 -0.14743037860E+03 -0.31842721051E+03  0.19902457884E+03  0.40341342059E+03  0.00000000000E+00 0.  1.
         22    1    5    5    0    0  0.25010503937E+03  0.36909253197E+03  0.78608698056E+02  0.45272635806E+03  0.00000000000E+00 0.  1.
          5    1    4    4  502    0  0.28436293803E+02 -0.46898430799E+01 -0.95917502038E+01  0.30736120532E+02  0.47000000000E+01 0.  1.
         -5    1    4    4    0  502 -0.13111095457E+03 -0.45975478376E+02 -0.27337091019E+02  0.14168003941E+03  0.47000000000E+01 0.  1.
<mgrwt>
<rscale>  0 0.99999435E+03</rscale>
<asrwt>0</asrwt>
<pdfrwt beam="1">  1        2 0.97635413E-01 0.99999435E+03</pdfrwt>
<pdfrwt beam="2">  1       -2 0.60603962E-01 0.99999435E+03</pdfrwt>
<totfact> 0.14207647E+02</totfact>
</mgrwt>
</event>
<event>
 9    1  0.4296086E-036  0.9995841E+03  0.7818608E-02  0.8681434E-01
         -1   -1    0    0    0  501 -0.00000000000E+00  0.00000000000E+00  0.10076910802E+03  0.10076910802E+03  0.00000000000E+00 0.  1.
          1   -1    0    0  501    0  0.00000000000E+00 -0.00000000000E+00 -0.24788557335E+04  0.24788557335E+04  0.00000000000E+00 0.  1.
         36    2    1    2    0    0  0.71054273576E-14 -0.14210854715E-13 -0.23780866255E+04  0.25796248415E+04  0.99958407585E+03 0.  0.
         25    2    3    3    0    0  0.24063986261E+02  0.86180043443E+01 -0.93649318163E+02  0.15783297237E+03  0.12444961607E+03 0.  0.
         35    2    3    3    0    0 -0.24063986261E+02 -0.86180043443E+01 -0.22844373073E+04  0.24217918691E+04  0.80359735004E+03 0.  0.
         22    1    5    5    0    0 -0.87054125405E+02 -0.39448722747E+03 -0.97934768867E+03  0.10593962850E+04  0.00000000000E+00 0. -1.
         22    1    5    5    0    0  0.62990139144E+02  0.38586922313E+03 -0.13050896186E+04  0.13623955841E+04  0.00000000000E+00 0. -1.
          5    1    4    4  502    0  0.58811768349E+02  0.13835016244E+02 -0.31993798782E+01  0.60684081952E+02  0.47000000000E+01 0.  1.
         -5    1    4    4    0  502 -0.34747782088E+02 -0.52170119001E+01 -0.90449938284E+02  0.97148890415E+02  0.47000000000E+01 0.  1.
<mgrwt>
<rscale>  0 0.99958408E+03</rscale>
<asrwt>0</asrwt>
<pdfrwt beam="1">  1        1 0.38136241E+00 0.99958408E+03</pdfrwt>
<pdfrwt beam="2">  1       -1 0.15502940E-01 0.99958408E+03</pdfrwt>
<totfact> 0.44544053E+01</totfact>
</mgrwt>
</event>
<event>
 9    1  0.4296086E-036  0.1008928E+04  0.7818608E-02  0.8672582E-01
         -1   -1    0    0    0  501 -0.00000000000E+00  0.00000000000E+00  0.36607623596E+03  0.36607623596E+03  0.00000000000E+00 0.  1.
          1   -1    0    0  501    0  0.00000000000E+00 -0.00000000000E+00 -0.69516657546E+03  0.69516657546E+03  0.00000000000E+00 0.  1.
         36    2    1    2    0    0  0.00000000000E+00  0.14210854715E-13 -0.32909033950E+03  0.10612428114E+04  0.10089280714E+04 0.  0.
         25    2    3    3    0    0  0.98595733151E+02  0.66648519975E+01  0.49833590816E+02  0.16977398222E+03  0.12874113336E+03 0.  0.
         35    2    3    3    0    0 -0.98595733151E+02 -0.66648519975E+01 -0.37892393032E+03  0.89146882919E+03  0.80085441224E+03 0.  0.
         22    1    5    5    0    0  0.10554428006E+03 -0.12953520037E+03  0.20284323301E+03  0.26280095199E+03  0.00000000000E+00 0.  1.
         22    1    5    5    0    0 -0.20414001321E+03  0.12287034837E+03 -0.58176716333E+03  0.62866787720E+03  0.00000000000E+00 0.  1.
          5    1    4    4  502    0  0.20468230430E+02  0.62621914312E+02  0.18639953951E+02  0.68629370479E+02  0.47000000000E+01 0.  1.
         -5    1    4    4    0  502  0.78127502721E+02 -0.55957062314E+02  0.31193636865E+02  0.10114461175E+03  0.47000000000E+01 0.  1.
<mgrwt>
<rscale>  0 0.10089281E+04</rscale>
<asrwt>0</asrwt>
<pdfrwt beam="1">  1        1 0.10694870E+00 0.10089281E+04</pdfrwt>
<pdfrwt beam="2">  1       -1 0.56319422E-01 0.10089281E+04</pdfrwt>
<totfact> 0.10110477E+02</totfact>
</mgrwt>
</event>
<event>
 9    1  0.4296086E-036  0.1000076E+04  0.7818608E-02  0.8680965E-01
         -1   -1    0    0    0  501 -0.00000000000E+00  0.00000000000E+00  0.27540579971E+03  0.27540579971E+03  0.00000000000E+00 0. -1.
          1   -1    0    0  501    0  0.00000000000E+00 -0.00000000000E+00 -0.90788991539E+03  0.90788991539E+03  0.00000000000E+00 0. -1.
         36    2    1    2    0    0 -0.28421709430E-13  0.14210854715E-13 -0.63248411568E+03  0.11832957151E+04  0.10000762935E+04 0.  0.
         25    2    3    3    0    0 -0.13714637040E+03 -0.19358380302E+02 -0.80894220036E+02  0.20357692963E+03  0.12536274422E+03 0.  0.
         35    2    3    3    0    0  0.13714637040E+03  0.19358380302E+02 -0.55158989565E+03  0.97971878547E+03  0.79775535837E+03 0.  0.
         22    1    5    5    0    0 -0.26318973812E+03 -0.21340259536E+03 -0.30078027608E+03  0.45307646202E+03  0.00000000000E+00 0. -1.
         22    1    5    5    0    0  0.40033610852E+03  0.23276097567E+03 -0.25080961956E+03  0.52664232344E+03  0.00000000000E+00 0. -1.
          5    1    4    4  502    0 -0.27576279538E+02 -0.52616724231E+02 -0.64488758311E+02  0.87805813079E+02  0.47000000000E+01 0.  1.
         -5    1    4    4    0  502 -0.10957009086E+03  0.33258343929E+02 -0.16405461725E+02  0.11577111655E+03  0.47000000000E+01 0.  1.
<mgrwt>
<rscale>  0 0.10000763E+04</rscale>
<asrwt>0</asrwt>
<pdfrwt beam="1">  1        1 0.13967537E+00 0.10000763E+04</pdfrwt>
<pdfrwt beam="2">  1       -1 0.42370123E-01 0.10000763E+04</pdfrwt>
<totfact> 0.11076146E+02</totfact>
</mgrwt>
</event>
<event>
 9    1  0.4296086E-036  0.9997905E+03  0.7818608E-02  0.8681237E-01
          2   -1    0    0  501    0  0.00000000000E+00  0.00000000000E+00  0.10551668338E+04  0.10551668338E+04  0.00000000000E+00 0. -1.
         -2   -1    0    0    0  501 -0.00000000000E+00 -0.00000000000E+00 -0.23683009169E+03  0.23683009169E+03  0.00000000000E+00 0. -1.
         36    2    1    2    0    0 -0.35527136788E-13  0.00000000000E+00  0.81833674211E+03  0.12919969255E+04  0.99979049404E+03 0.  0.
         25    2    3    3    0    0  0.74135440770E+01  0.21979635582E+02 -0.15612849257E+02  0.12785894848E+03  0.12476411595E+03 0.  0.
         35    2    3    3    0    0 -0.74135440770E+01 -0.21979635582E+02  0.83394959137E+03  0.11641379770E+04  0.81191578599E+03 0.  0.
         22    1    5    5    0    0 -0.29476158432E+03 -0.29404177939E+03  0.41499691100E+03  0.58784980714E+03  0.00000000000E+00 0. -1.
         22    1    5    5    0    0  0.28734804025E+03  0.27206214381E+03  0.41895268037E+03  0.57628816986E+03  0.00000000000E+00 0. -1.
          5    1    4    4  502    0  0.55197884891E+02  0.93368345930E+01  0.27090527141E+02  0.62369621110E+02  0.47000000000E+01 0.  1.
         -5    1    4    4    0  502 -0.47784340814E+02  0.12642800989E+02 -0.42703376398E+02  0.65489327372E+02  0.47000000000E+01 0.  1.
<mgrwt>
<rscale>  0 0.99979049E+03</rscale>
<asrwt>0</asrwt>
<pdfrwt beam="1">  1        2 0.16233336E+00 0.99979049E+03</pdfrwt>
<pdfrwt beam="2">  1       -2 0.36435399E-01 0.99979049E+03</pdfrwt>
<totfact> 0.19897480E+02</totfact>
</mgrwt>
</event>
<event>
 9    1  0.4296086E-036  0.1000941E+04  0.7818608E-02  0.8680142E-01
          1   -1    0    0  501    0  0.00000000000E+00  0.00000000000E+00  0.64423622796E+03  0.64423622796E+03  0.00000000000E+00 0.  1.
         -1   -1    0    0    0  501 -0.00000000000E+00 -0.00000000000E+00 -0.38878712766E+03  0.38878712766E+03  0.00000000000E+00 0.  1.
         36    2    1    2    0    0  0.00000000000E+00  0.00000000000E+00  0.25544910030E+03  0.10330233556E+04  0.10009410624E+04 0.  0.
         25    2    3    3    0    0  0.85875550941E+02  0.44844094581E+02  0.15363327902E+03  0.22052470038E+03  0.12506940468E+03 0.  0.
         35    2    3    3    0    0 -0.85875550941E+02 -0.44844094581E+02  0.10181582128E+03  0.81249865523E+03  0.80025121070E+03 0.  0.
         22    1    5    5    0    0 -0.12031874953E+03 -0.40136317204E+03 -0.52895071128E+02  0.42233503988E+03  0.00000000000E+00 0.  1.
         22    1    5    5    0    0  0.34443198591E+02  0.35651907746E+03  0.15471089241E+03  0.39016361536E+03  0.00000000000E+00 0.  1.
          5    1    4    4  502    0  0.83541009631E+01  0.73931448283E+02  0.83257344739E+02  0.11175654568E+03  0.47000000000E+01 0. -1.
         -5    1    4    4    0  502  0.77521449978E+02 -0.29087353703E+02  0.70375934284E+02  0.10876815471E+03  0.47000000000E+01 0. -1.
<mgrwt>
<rscale>  0 0.10009411E+04</rscale>
<asrwt>0</asrwt>
<pdfrwt beam="1">  1        1 0.99113266E-01 0.10009411E+04</pdfrwt>
<pdfrwt beam="2">  1       -1 0.59813404E-01 0.10009411E+04</pdfrwt>
<totfact> 0.10121321E+02</totfact>
</mgrwt>
</event>
<event>
 9    1  0.4296086E-036  0.9995170E+03  0.7818608E-02  0.8681498E-01
         -2   -1    0    0    0  501 -0.00000000000E+00  0.00000000000E+00  0.50218434308E+03  0.50218434308E+03  0.00000000000E+00 0.  1.
          2   -1    0    0  501    0  0.00000000000E+00 -0.00000000000E+00 -0.49734434330E+03  0.49734434330E+03  0.00000000000E+00 0.  1.
         36    2    1    2    0    0  0.71054273576E-14 -0.21316282073E-13  0.48399997803E+01  0.99952868638E+03  0.99951696799E+03 0.  0.
         25    2    3    3    0    0  0.37949481938E+02 -0.19966557212E+02  0.13372376309E+03  0.18799734445E+03  0.12498851995E+03 0.  0.
         35    2    3    3    0    0 -0.37949481938E+02  0.19966557212E+02 -0.12888376331E+03  0.81153134193E+03  0.80008328811E+03 0.  0.
         22    1    5    5    0    0 -0.74722458796E+02 -0.27420034985E+03 -0.34329172998E+03  0.44566634333E+03  0.00000000000E+00 0. -1.
         22    1    5    5    0    0  0.36772976858E+02  0.29416690706E+03  0.21440796667E+03  0.36586499860E+03  0.00000000000E+00 0. -1.
          5    1    4    4  502    0  0.25138967951E+02 -0.70773268658E+02  0.10132877428E+03  0.12621582216E+03  0.47000000000E+01 0.  1.
         -5    1    4    4    0  502  0.12810513988E+02  0.50806711446E+02  0.32394988814E+02  0.61781522293E+02  0.47000000000E+01 0.  1.
<mgrwt>
<rscale>  0 0.99951697E+03</rscale>
<asrwt>0</asrwt>
<pdfrwt beam="1">  1        2 0.76514514E-01 0.99951697E+03</pdfrwt>
<pdfrwt beam="2">  1       -2 0.77259130E-01 0.99951697E+03</pdfrwt>
<totfact> 0.11177240E+02</totfact>
</mgrwt>
</event>
<event>
 9    1  0.4296086E-036  0.9997078E+03  0.7818608E-02  0.8681316E-01
          1   -1    0    0  501    0  0.00000000000E+00  0.00000000000E+00  0.36825350137E+03  0.36825350137E+03  0.00000000000E+00 0.  1.
         -1   -1    0    0    0  501 -0.00000000000E+00 -0.00000000000E+00 -0.67848351292E+03  0.67848351292E+03  0.00000000000E+00 0.  1.
         36    2    1    2    0    0 -0.28421709430E-13 -0.14210854715E-13 -0.31023001155E+03  0.10467370143E+04  0.99970781583E+03 0.  0.
         25    2    3    3    0    0 -0.14247210272E+02  0.55998549655E+02 -0.19206070597E+03  0.23618556089E+03  0.12472964297E+03 0.  0.
         35    2    3    3    0    0  0.14247210272E+02 -0.55998549655E+02 -0.11816930559E+03  0.81055145340E+03  0.79980675995E+03 0.  0.
         22    1    5    5    0    0 -0.28456083034E+03  0.24534168777E+03 -0.28447989557E+02  0.37679795385E+03  0.00000000000E+00 0.  1.
         22    1    5    5    0    0  0.29880804061E+03 -0.30134023742E+03 -0.89721316030E+02  0.43375349955E+03  0.00000000000E+00 0.  1.
          5    1    4    4  502    0  0.15584665030E+02 -0.15965337553E+02 -0.14120603038E+03  0.14303498454E+03  0.47000000000E+01 0. -1.
         -5    1    4    4    0  502 -0.29831875302E+02  0.71963887208E+02 -0.50854675590E+02  0.93150576356E+02  0.47000000000E+01 0. -1.
<mgrwt>
<rscale>  0 0.99970782E+03</rscale>
<asrwt>0</asrwt>
<pdfrwt beam="1">  1        1 0.56654385E-01 0.99970782E+03</pdfrwt>
<pdfrwt beam="2">  1       -1 0.10438208E+00 0.99970782E+03</pdfrwt>
<totfact> 0.69397632E+01</totfact>
</mgrwt>
</event>
<event>
 9    1  0.4296086E-036  0.9959779E+03  0.7818608E-02  0.8684878E-01
         -2   -1    0    0    0  501 -0.00000000000E+00  0.00000000000E+00  0.18615945682E+03  0.18615945682E+03  0.00000000000E+00 0. -1.
          2   -1    0    0  501    0  0.00000000000E+00 -0.00000000000E+00 -0.13321537038E+04  0.13321537038E+04  0.00000000000E+00 0. -1.
         36    2    1    2    0    0 -0.14210854715E-13  0.00000000000E+00 -0.11459942470E+04  0.15183131606E+04  0.99597793127E+03 0.  0.
         25    2    3    3    0    0 -0.10688730897E+03 -0.51849493025E+02 -0.11006957460E+03  0.20434470972E+03  0.12461212779E+03 0.  0.
         35    2    3    3    0    0  0.10688730897E+03  0.51849493025E+02 -0.10359246724E+04  0.13139684509E+04  0.79953730141E+03 0.  0.
         22    1    5    5    0    0  0.71103982591E+02  0.14208799470E+03  0.90845957789E+02  0.18302394003E+03  0.00000000000E+00 0. -1.
         22    1    5    5    0    0  0.35783326383E+02 -0.90238501675E+02 -0.11267706302E+04  0.11309445109E+04  0.00000000000E+00 0. -1.
          5    1    4    4  502    0 -0.56953856508E+02  0.97272746875E+01  0.11533333312E+02  0.59105578597E+02  0.47000000000E+01 0. -1.
         -5    1    4    4    0  502 -0.49933452465E+02 -0.61576767713E+02 -0.12160290791E+03  0.14523913112E+03  0.47000000000E+01 0. -1.
<mgrwt>
<rscale>  0 0.99597793E+03</rscale>
<asrwt>0</asrwt>
<pdfrwt beam="1">  1        2 0.20494673E+00 0.99597793E+03</pdfrwt>
<pdfrwt beam="2">  1       -2 0.28639916E-01 0.99597793E+03</pdfrwt>
<totfact> 0.21241059E+02</totfact>
</mgrwt>
</event>
<event>
 9    1  0.4296086E-036  0.9999720E+03  0.7818608E-02  0.8681065E-01
          2   -1    0    0  501    0  0.00000000000E+00  0.00000000000E+00  0.65382469863E+03  0.65382469863E+03  0.00000000000E+00 0.  1.
         -2   -1    0    0    0  501 -0.00000000000E+00 -0.00000000000E+00 -0.38234404726E+03  0.38234404726E+03  0.00000000000E+00 0.  1.
         36    2    1    2    0    0  0.40856207306E-13  0.71054273576E-14  0.27148065136E+03  0.10361687459E+04  0.99997196255E+03 0.  0.
         25    2    3    3    0    0 -0.10564923997E+02 -0.17253951054E+02  0.19499537220E+03  0.23278874864E+03  0.12553123064E+03 0.  0.
         35    2    3    3    0    0  0.10564923997E+02  0.17253951054E+02  0.76485279158E+02  0.80337999725E+03  0.79947489367E+03 0.  0.
         22    1    5    5    0    0  0.28509158168E+03  0.14339089177E+03  0.29177519478E+03  0.43240134374E+03  0.00000000000E+00 0.  1.
         22    1    5    5    0    0 -0.27452665768E+03 -0.12613694071E+03 -0.21528991562E+03  0.37097865350E+03  0.00000000000E+00 0.  1.
          5    1    4    4  502    0  0.94518751865E+01  0.35189896716E+02  0.81438362172E+01  0.37630823055E+02  0.47000000000E+01 0.  1.
         -5    1    4    4    0  502 -0.20016799183E+02 -0.52443847771E+02  0.18685153599E+03  0.19515792559E+03  0.47000000000E+01 0.  1.
<mgrwt>
<rscale>  0 0.99997196E+03</rscale>
<asrwt>0</asrwt>
<pdfrwt beam="1">  1        2 0.10058841E+00 0.99997196E+03</pdfrwt>
<pdfrwt beam="2">  1       -2 0.58822161E-01 0.99997196E+03</pdfrwt>
<totfact> 0.14586054E+02</totfact>
</mgrwt>
</event>
<event>
 9    1  0.4296086E-036  0.9998593E+03  0.7818608E-02  0.8681172E-01
          2   -1    0    0  501    0  0.00000000000E+00  0.00000000000E+00  0.17470225301E+04  0.17470225301E+04  0.00000000000E+00 0.  1.
         -2   -1    0    0    0  501 -0.00000000000E+00 -0.00000000000E+00 -0.14306036040E+03  0.14306036040E+03  0.00000000000E+00 0.  1.
         36    2    1    2    0    0 -0.14210854715E-13 -0.14210854715E-13  0.16039621697E+04  0.18900828905E+04  0.99985933567E+03 0.  0.
         25    2    3    3    0    0  0.94312509877E+02  0.79032737037E+02  0.18003104516E+03  0.25143359314E+03  0.12516649510E+03 0.  0.
         35    2    3    3    0    0 -0.94312509877E+02 -0.79032737037E+02  0.14239311245E+04  0.16386492973E+04  0.80153019234E+03 0.  0.
         22    1    5    5    0    0 -0.12567018187E+03  0.28979062043E+03  0.23574487713E+03  0.39414114907E+03  0.00000000000E+00 0.  1.
         22    1    5    5    0    0  0.31357671994E+02 -0.36882335746E+03  0.11881862474E+04  0.12445081483E+04  0.00000000000E+00 0.  1.
          5    1    4    4  502    0  0.10596955066E+01  0.81886279955E+02  0.80427298540E+02  0.11487874542E+03  0.47000000000E+01 0. -1.
         -5    1    4    4    0  502  0.93252814371E+02 -0.28535429183E+01  0.99603746618E+02  0.13655484772E+03  0.47000000000E+01 0. -1.
<mgrwt>
<rscale>  0 0.99985934E+03</rscale>
<asrwt>0</asrwt>
<pdfrwt beam="1">  1        2 0.26877268E+00 0.99985934E+03</pdfrwt>
<pdfrwt beam="2">  1       -2 0.22009287E-01 0.99985934E+03</pdfrwt>
<totfact> 0.19735296E+02</totfact>
</mgrwt>
</event>
<event>
 9    1  0.4296086E-036  0.9990485E+03  0.7818608E-02  0.8681945E-01
         -1   -1    0    0    0  501 -0.00000000000E+00  0.00000000000E+00  0.28316015093E+03  0.28316015093E+03  0.00000000000E+00 0. -1.
          1   -1    0    0  501    0  0.00000000000E+00 -0.00000000000E+00 -0.88121316307E+03  0.88121316307E+03  0.00000000000E+00 0. -1.
         36    2    1    2    0    0 -0.42632564146E-13  0.14210854715E-13 -0.59805301214E+03  0.11643733140E+04  0.99904845179E+03 0.  0.
         25    2    3    3    0    0  0.69213219773E+02 -0.53122263191E+02  0.12959059856E+02  0.15369905667E+03  0.12586905160E+03 0.  0.
         35    2    3    3    0    0 -0.69213219773E+02  0.53122263191E+02 -0.61101207200E+03  0.10106742573E+04  0.80032134650E+03 0.  0.
         22    1    5    5    0    0 -0.41018706643E+03  0.14628530807E+03 -0.43604087350E+03  0.61626655287E+03  0.00000000000E+00 0.  1.
         22    1    5    5    0    0  0.34097384666E+03 -0.93163044880E+02 -0.17497119850E+03  0.39440770446E+03  0.00000000000E+00 0.  1.
          5    1    4    4  502    0  0.78919734323E+02 -0.34938810584E+02  0.57898347710E+02  0.10403534793E+03  0.47000000000E+01 0.  1.
         -5    1    4    4    0  502 -0.97065145500E+01 -0.18183452607E+02 -0.44939287854E+02  0.49663708745E+02  0.47000000000E+01 0.  1.
<mgrwt>
<rscale>  0 0.99904845E+03</rscale>
<asrwt>0</asrwt>
<pdfrwt beam="1">  1        1 0.13557126E+00 0.99904845E+03</pdfrwt>
<pdfrwt beam="2">  1       -1 0.43563100E-01 0.99904845E+03</pdfrwt>
<totfact> 0.11091017E+02</totfact>
</mgrwt>
</event>
<event>
 9    1  0.4296086E-036  0.9991667E+03  0.7818608E-02  0.8681832E-01
         -2   -1    0    0    0  501 -0.00000000000E+00  0.00000000000E+00  0.21717523061E+03  0.21717523061E+03  0.00000000000E+00 0.  1.
          2   -1    0    0  501    0  0.00000000000E+00 -0.00000000000E+00 -0.11492263648E+04  0.11492263648E+04  0.00000000000E+00 0.  1.
         36    2    1    2    0    0  0.00000000000E+00  0.00000000000E+00 -0.93205113422E+03  0.13664015954E+04  0.99916665439E+03 0.  0.
         25    2    3    3    0    0 -0.12052509300E+03  0.69677266494E+02 -0.17256104342E+03  0.25468471722E+03  0.12532267142E+03 0.  0.
         35    2    3    3    0    0  0.12052509300E+03 -0.69677266494E+02 -0.75949009081E+03  0.11117168782E+04  0.79981747905E+03 0.  0.
         22    1    5    5    0    0  0.44413161695E+02 -0.41996011665E+03 -0.25659630482E+03  0.49414642785E+03  0.00000000000E+00 0. -1.
         22    1    5    5    0    0  0.76111931309E+02  0.35028285015E+03 -0.50289378599E+03  0.61757045038E+03  0.00000000000E+00 0. -1.
          5    1    4    4  502    0 -0.57384553719E+02  0.72214980517E+02 -0.16730026404E+03  0.19110065087E+03  0.47000000000E+01 0.  1.
         -5    1    4    4    0  502 -0.63140539285E+02 -0.25377140227E+01 -0.52607793758E+01  0.63584066348E+02  0.47000000000E+01 0.  1.
<mgrwt>
<rscale>  0 0.99916665E+03</rscale>
<asrwt>0</asrwt>
<pdfrwt beam="1">  1        2 0.17680406E+00 0.99916665E+03</pdfrwt>
<pdfrwt beam="2">  1       -2 0.33411574E-01 0.99916665E+03</pdfrwt>
<totfact> 0.20509865E+02</totfact>
</mgrwt>
</event>
<event>
 9    1  0.4296086E-036  0.9999028E+03  0.7818608E-02  0.8681131E-01
         -1   -1    0    0    0  501 -0.00000000000E+00  0.00000000000E+00  0.80179274531E+02  0.80179274531E+02  0.00000000000E+00 0.  1.
          1   -1    0    0  501    0  0.00000000000E+00 -0.00000000000E+00 -0.31174065460E+04  0.31174065460E+04  0.00000000000E+00 0.  1.
         36    2    1    2    0    0 -0.35527136788E-13  0.00000000000E+00 -0.30372272715E+04  0.31975858206E+04  0.99990278584E+03 0.  0.
         25    2    3    3    0    0  0.62253248956E+02  0.92130638253E+02 -0.29773658682E+03  0.34146383859E+03  0.12484773295E+03 0.  0.
         35    2    3    3    0    0 -0.62253248956E+02 -0.92130638253E+02 -0.27394906847E+04  0.28561219820E+04  0.80016251034E+03 0.  0.
         22    1    5    5    0    0 -0.41041610771E+03  0.50623120248E+02 -0.11317426254E+04  0.12049254964E+04  0.00000000000E+00 0. -1.
         22    1    5    5    0    0  0.34816285876E+03 -0.14275375850E+03 -0.16077480593E+04  0.16511964856E+04  0.00000000000E+00 0. -1.
          5    1    4    4  502    0  0.65235411944E+02  0.10284789836E+03 -0.15018635526E+03  0.19342021734E+03  0.47000000000E+01 0. -1.
         -5    1    4    4    0  502 -0.29821629878E+01 -0.10717260107E+02 -0.14755023156E+03  0.14804362125E+03  0.47000000000E+01 0. -1.
<mgrwt>
<rscale>  0 0.99990279E+03</rscale>
<asrwt>0</asrwt>
<pdfrwt beam="1">  1        1 0.47960099E+00 0.99990279E+03</pdfrwt>
<pdfrwt beam="2">  1       -1 0.12335273E-01 0.99990279E+03</pdfrwt>
<totfact> 0.22508482E+01</totfact>
</mgrwt>
</event>
<event>
 9    1  0.4296086E-036  0.1000120E+04  0.7818608E-02  0.8680924E-01
          2   -1    0    0  501    0  0.00000000000E+00  0.00000000000E+00  0.96160547932E+03  0.96160547932E+03  0.00000000000E+00 0. -1.
         -2   -1    0    0    0  501 -0.00000000000E+00 -0.00000000000E+00 -0.26004402185E+03  0.26004402185E+03  0.00000000000E+00 0. -1.
         36    2    1    2    0    0  0.28421709430E-13  0.71054273576E-14  0.70156145747E+03  0.12216495012E+04  0.10001195054E+04 0.  0.
         25    2    3    3    0    0  0.90602676660E+02 -0.38140129489E+02  0.26432679259E+03  0.30826287775E+03  0.12447423034E+03 0.  0.
         35    2    3    3    0    0 -0.90602676660E+02  0.38140129489E+02  0.43723466488E+03  0.91338662343E+03  0.79588784209E+03 0.  0.
         22    1    5    5    0    0 -0.41124368252E+03  0.61294260820E+02  0.63822790120E+02  0.42065627460E+03  0.00000000000E+00 0. -1.
         22    1    5    5    0    0  0.32064100586E+03 -0.23154131331E+02  0.37341187476E+03  0.49273034882E+03  0.00000000000E+00 0. -1.
          5    1    4    4  502    0 -0.73452777898E+01 -0.69271802870E+01 -0.10187542869E+02  0.15093540414E+02  0.47000000000E+01 0.  1.
         -5    1    4    4    0  502  0.97947954450E+02 -0.31212949202E+02  0.27451433546E+03  0.29316933733E+03  0.47000000000E+01 0.  1.
<mgrwt>
<rscale>  0 0.10001195E+04</rscale>
<asrwt>0</asrwt>
<pdfrwt beam="1">  1        2 0.14793930E+00 0.10001195E+04</pdfrwt>
<pdfrwt beam="2">  1       -2 0.40006773E-01 0.10001195E+04</pdfrwt>
<totfact> 0.19071252E+02</totfact>
</mgrwt>
</event>
<event>
 9    1  0.4296086E-036  0.9974297E+03  0.7818608E-02  0.8683489E-01
         -2   -1    0    0    0  501 -0.00000000000E+00  0.00000000000E+00  0.80655921039E+02  0.80655921039E+02  0.00000000000E+00 0. -1.
          2   -1    0    0  501    0  0.00000000000E+00 -0.00000000000E+00 -0.30836734974E+04  0.30836734974E+04  0.00000000000E+00 0. -1.
         36    2    1    2    0    0  0.28421709430E-13  0.00000000000E+00 -0.30030175764E+04  0.31643294185E+04  0.99742974914E+03 0.  0.
         25    2    3    3    0    0  0.11466150362E+03  0.19371872273E+02 -0.79284715913E+03  0.81102050665E+03  0.12500045847E+03 0.  0.
         35    2    3    3    0    0 -0.11466150362E+03 -0.19371872273E+02 -0.22101704172E+04  0.23533089118E+04  0.79980437062E+03 0.  0.
         22    1    5    5    0    0  0.31979623973E+03 -0.14022264562E+03 -0.80275265646E+03  0.87541067662E+03  0.00000000000E+00 0.  1.
         22    1    5    5    0    0 -0.43445774335E+03  0.12085077335E+03 -0.14074177608E+04  0.14778982352E+04  0.00000000000E+00 0.  1.
          5    1    4    4  502    0  0.10221350970E+03  0.60259290978E+02 -0.44673795115E+03  0.46225065789E+03  0.47000000000E+01 0.  1.
         -5    1    4    4    0  502  0.12447993919E+02 -0.40887418705E+02 -0.34610920798E+03  0.34876984876E+03  0.47000000000E+01 0.  1.
<mgrwt>
<rscale>  0 0.99742975E+03</rscale>
<asrwt>0</asrwt>
<pdfrwt beam="1">  1        2 0.47441134E+00 0.99742975E+03</pdfrwt>
<pdfrwt beam="2">  1       -2 0.12408602E-01 0.99742975E+03</pdfrwt>
<totfact> 0.80571964E+01</totfact>
</mgrwt>
</event>
<event>
 9    1  0.4296086E-036  0.1000197E+04  0.7818608E-02  0.8680850E-01
         -1   -1    0    0    0  501 -0.00000000000E+00  0.00000000000E+00  0.44091276573E+03  0.44091276573E+03  0.00000000000E+00 0. -1.
          1   -1    0    0  501    0  0.00000000000E+00 -0.00000000000E+00 -0.56722923993E+03  0.56722923993E+03  0.00000000000E+00 0. -1.
         36    2    1    2    0    0  0.14210854715E-13  0.14210854715E-13 -0.12631647420E+03  0.10081420057E+04  0.10001972065E+04 0.  0.
         25    2    3    3    0    0 -0.23792697509E+02 -0.95952147102E+02  0.77083646561E+02  0.17679546278E+03  0.12466691664E+03 0.  0.
         35    2    3    3    0    0  0.23792697509E+02  0.95952147102E+02 -0.20340012076E+03  0.83134654288E+03  0.79999534889E+03 0.  0.
         22    1    5    5    0    0 -0.78940417124E+02  0.11500629384E+03 -0.49883922364E+03  0.51797548988E+03  0.00000000000E+00 0.  1.
         22    1    5    5    0    0  0.10273311463E+03 -0.19054146736E+02  0.29543910287E+03  0.31337105300E+03  0.00000000000E+00 0.  1.
          5    1    4    4  502    0  0.46220719580E+02 -0.70097256682E+02  0.45515492183E+02  0.95622854703E+02  0.47000000000E+01 0. -1.
         -5    1    4    4    0  502 -0.70013417089E+02 -0.25854890420E+02  0.31568154378E+02  0.81172608076E+02  0.47000000000E+01 0. -1.
<mgrwt>
<rscale>  0 0.10001972E+04</rscale>
<asrwt>0</asrwt>
<pdfrwt beam="1">  1        1 0.87266036E-01 0.10001972E+04</pdfrwt>
<pdfrwt beam="2">  1       -1 0.67832734E-01 0.10001972E+04</pdfrwt>
<totfact> 0.95527548E+01</totfact>
</mgrwt>
</event>
<event>
 9    1  0.4296086E-036  0.9909758E+03  0.7818608E-02  0.8689680E-01
         -1   -1    0    0    0  501 -0.00000000000E+00  0.00000000000E+00  0.69707128081E+03  0.69707128081E+03  0.00000000000E+00 0. -1.
          1   -1    0    0  501    0  0.00000000000E+00 -0.00000000000E+00 -0.35219961506E+03  0.35219961506E+03  0.00000000000E+00 0. -1.
         36    2    1    2    0    0 -0.21316282073E-13  0.00000000000E+00  0.34487166575E+03  0.10492708959E+04  0.99097575505E+03 0.  0.
         25    2    3    3    0    0 -0.15505784720E+01 -0.12143756324E+03  0.11230176187E+02  0.17418250014E+03  0.12435409297E+03 0.  0.
         35    2    3    3    0    0  0.15505784720E+01  0.12143756324E+03  0.33364148956E+03  0.87508839573E+03  0.79982096167E+03 0.  0.
         22    1    5    5    0    0 -0.38707034674E+03  0.68770420617E+02  0.27210829818E+03  0.47811687903E+03  0.00000000000E+00 0.  1.
         22    1    5    5    0    0  0.38862092521E+03  0.52667142626E+02  0.61533191381E+02  0.39697151670E+03  0.00000000000E+00 0.  1.
          5    1    4    4  502    0  0.50701499390E+02 -0.18442566340E+02  0.21219633908E+02  0.58164707141E+02  0.47000000000E+01 0.  1.
         -5    1    4    4    0  502 -0.52252077862E+02 -0.10299499690E+03 -0.99894577217E+01  0.11601779300E+03  0.47000000000E+01 0.  1.
<mgrwt>
<rscale>  0 0.99097576E+03</rscale>
<asrwt>0</asrwt>
<pdfrwt beam="1">  1        1 0.54184556E-01 0.99097576E+03</pdfrwt>
<pdfrwt beam="2">  1       -1 0.10724174E+00 0.99097576E+03</pdfrwt>
<totfact> 0.69245318E+01</totfact>
</mgrwt>
</event>
<event>
 9    1  0.4296086E-036  0.9997305E+03  0.7818608E-02  0.8681295E-01
          2   -1    0    0  501    0  0.00000000000E+00  0.00000000000E+00  0.87702977815E+03  0.87702977815E+03  0.00000000000E+00 0. -1.
         -2   -1    0    0    0  501 -0.00000000000E+00 -0.00000000000E+00 -0.28489940371E+03  0.28489940371E+03  0.00000000000E+00 0. -1.
         36    2    1    2    0    0  0.00000000000E+00  0.00000000000E+00  0.59213037444E+03  0.11619291819E+04  0.99973048535E+03 0.  0.
         25    2    3    3    0    0 -0.86518511129E+02  0.89250337863E+02  0.18639848451E+03  0.25653151888E+03  0.12495178900E+03 0.  0.
         35    2    3    3    0    0  0.86518511129E+02 -0.89250337863E+02  0.40573188993E+03  0.90539766298E+03  0.79979715307E+03 0.  0.
         22    1    5    5    0    0  0.11857680236E+03  0.76362260965E+02 -0.21778531845E+03  0.25946502248E+03  0.00000000000E+00 0.  1.
         22    1    5    5    0    0 -0.32058291230E+02 -0.16561259883E+03  0.62351720838E+03  0.64593264050E+03  0.00000000000E+00 0.  1.
          5    1    4    4  502    0 -0.89073861295E+02  0.92341229445E+02  0.20222753565E+03  0.23953939467E+03  0.47000000000E+01 0. -1.
         -5    1    4    4    0  502  0.25553501661E+01 -0.30908915814E+01 -0.15829051141E+02  0.16992124213E+02  0.47000000000E+01 0. -1.
<mgrwt>
<rscale>  0 0.99973049E+03</rscale>
<asrwt>0</asrwt>
<pdfrwt beam="1">  1        2 0.13492766E+00 0.99973049E+03</pdfrwt>
<pdfrwt beam="2">  1       -2 0.43830678E-01 0.99973049E+03</pdfrwt>
<totfact> 0.18155341E+02</totfact>
</mgrwt>
</event>
<event>
 9    1  0.4296086E-036  0.1000338E+04  0.7818608E-02  0.8680716E-01
          1   -1    0    0  501    0  0.00000000000E+00  0.00000000000E+00  0.47000821734E+03  0.47000821734E+03  0.00000000000E+00 0. -1.
         -1   -1    0    0    0  501 -0.00000000000E+00 -0.00000000000E+00 -0.53226541213E+03  0.53226541213E+03  0.00000000000E+00 0. -1.
         36    2    1    2    0    0  0.14210854715E-13  0.00000000000E+00 -0.62257194792E+02  0.10022736295E+04  0.10003381778E+04 0.  0.
         25    2    3    3    0    0  0.89899526236E+02 -0.20370529784E+02 -0.11869213421E+03  0.19498636594E+03  0.12423758239E+03 0.  0.
         35    2    3    3    0    0 -0.89899526236E+02  0.20370529784E+02  0.56434939415E+02  0.80728726353E+03  0.80001933737E+03 0.  0.
         22    1    5    5    0    0  0.11755908625E+03 -0.86902676622E+02 -0.32707433230E+03  0.35825944902E+03  0.00000000000E+00 0.  1.
         22    1    5    5    0    0 -0.20745861249E+03  0.10727320641E+03  0.38350927171E+03  0.44902781451E+03  0.00000000000E+00 0.  1.
          5    1    4    4  502    0 -0.17027798594E+02 -0.41942593091E+02 -0.34153322359E+02  0.56900496204E+02  0.47000000000E+01 0.  1.
         -5    1    4    4    0  502  0.10692732483E+03  0.21572063307E+02 -0.84538811849E+02  0.13808586973E+03  0.47000000000E+01 0.  1.
<mgrwt>
<rscale>  0 0.10003382E+04</rscale>
<asrwt>0</asrwt>
<pdfrwt beam="1">  1        1 0.72308957E-01 0.10003382E+04</pdfrwt>
<pdfrwt beam="2">  1       -1 0.81886986E-01 0.10003382E+04</pdfrwt>
<totfact> 0.84808424E+01</totfact>
</mgrwt>
</event>
<event>
 9    1  0.4296086E-036  0.1000479E+04  0.7818608E-02  0.8680581E-01
          2   -1    0    0  501    0  0.00000000000E+00  0.00000000000E+00  0.84757833730E+03  0.84757833730E+03  0.00000000000E+00 0.  1.
         -2   -1    0    0    0  501 -0.00000000000E+00 -0.00000000000E+00 -0.29524090039E+03  0.29524090039E+03  0.00000000000E+00 0.  1.
         36    2    1    2    0    0  0.00000000000E+00  0.00000000000E+00  0.55233743692E+03  0.11428192377E+04  0.10004794680E+04 0.  0.
         25    2    3    3    0    0 -0.17711392242E+02 -0.12540603153E+03  0.32881903742E+02  0.18106830535E+03  0.12515648384E+03 0.  0.
         35    2    3    3    0    0  0.17711392242E+02  0.12540603153E+03  0.51945553317E+03  0.96175093234E+03  0.79943132210E+03 0.  0.
         22    1    5    5    0    0  0.26546048774E+02 -0.12589920626E+03 -0.17840803591E+03  0.21996529299E+03  0.00000000000E+00 0.  1.
         22    1    5    5    0    0 -0.88346565314E+01  0.25130523779E+03  0.69786356909E+03  0.74178563935E+03  0.00000000000E+00 0.  1.
          5    1    4    4  502    0  0.46949550289E+01 -0.12278944831E+03 -0.18879119147E+02  0.12440981616E+03  0.47000000000E+01 0.  1.
         -5    1    4    4    0  502 -0.22406347271E+02 -0.26165832234E+01  0.51761022890E+02  0.56658489182E+02  0.47000000000E+01 0.  1.
<mgrwt>
<rscale>  0 0.10004795E+04</rscale>
<asrwt>0</asrwt>
<pdfrwt beam="1">  1        2 0.13039667E+00 0.10004795E+04</pdfrwt>
<pdfrwt beam="2">  1       -2 0.45421677E-01 0.10004795E+04</pdfrwt>
<totfact> 0.17723475E+02</totfact>
</mgrwt>
</event>
<event>
 9    1  0.4296086E-036  0.9984498E+03  0.7818608E-02  0.8682516E-01
          2   -1    0    0  501    0  0.00000000000E+00  0.00000000000E+00  0.18345964333E+04  0.18345964333E+04  0.00000000000E+00 0.  1.
         -2   -1    0    0    0  501 -0.00000000000E+00 -0.00000000000E+00 -0.13584757588E+03  0.13584757588E+03  0.00000000000E+00 0.  1.
         36    2    1    2    0    0  0.00000000000E+00  0.00000000000E+00  0.16987488574E+04  0.19704440092E+04  0.99844975475E+03 0.  0.
         25    2    3    3    0    0  0.62558725014E+01 -0.13651323895E+03  0.37723833749E+03  0.42019100354E+03  0.12480671390E+03 0.  0.
         35    2    3    3    0    0 -0.62558725014E+01  0.13651323895E+03  0.13215105200E+04  0.15502530057E+04  0.79888630411E+03 0.  0.
         22    1    5    5    0    0 -0.10395543755E+03  0.26507866085E+03  0.13556321869E+04  0.13852119172E+04  0.00000000000E+00 0.  1.
         22    1    5    5    0    0  0.97699565046E+02 -0.12856542190E+03 -0.34121666958E+02  0.16504108844E+03  0.00000000000E+00 0.  1.
          5    1    4    4  502    0  0.51593175880E+02 -0.12614807423E+03  0.25234289268E+03  0.28683482689E+03  0.47000000000E+01 0. -1.
         -5    1    4    4    0  502 -0.45337303379E+02 -0.10365164717E+02  0.12489544480E+03  0.13335617665E+03  0.47000000000E+01 0. -1.
<mgrwt>
<rscale>  0 0.99844975E+03</rscale>
<asrwt>0</asrwt>
<pdfrwt beam="1">  1        2 0.28224559E+00 0.99844975E+03</pdfrwt>
<pdfrwt beam="2">  1       -2 0.20899628E-01 0.99844975E+03</pdfrwt>
<totfact> 0.19275215E+02</totfact>
</mgrwt>
</event>
<event>
 9    1  0.4296086E-036  0.1000000E+04  0.7818608E-02  0.8681038E-01
         -1   -1    0    0    0  501 -0.00000000000E+00  0.00000000000E+00  0.88348134766E+02  0.88348134766E+02  0.00000000000E+00 0.  1.
          1   -1    0    0  501    0  0.00000000000E+00 -0.00000000000E+00 -0.28297149953E+04  0.28297149953E+04  0.00000000000E+00 0.  1.
         36    2    1    2    0    0 -0.14210854715E-13  0.00000000000E+00 -0.27413668605E+04  0.29180631300E+04  0.10000000835E+04 0.  0.
         25    2    3    3    0    0  0.88850822327E+02 -0.10467780645E+03 -0.61166958618E+03  0.63893350382E+03  0.12346832738E+03 0.  0.
         35    2    3    3    0    0 -0.88850822327E+02  0.10467780645E+03 -0.21296972743E+04  0.22791296262E+04  0.79998091290E+03 0.  0.
         22    1    5    5    0    0 -0.19688799475E+03  0.10838777092E+03 -0.21561559012E+04  0.21678378772E+04  0.00000000000E+00 0.  1.
         22    1    5    5    0    0  0.10803717243E+03 -0.37099644779E+01  0.26458626904E+02  0.11129174902E+03  0.00000000000E+00 0.  1.
          5    1    4    4  502    0  0.10147123308E+03 -0.37706065227E+02 -0.46001425007E+03  0.47260274943E+03  0.47000000000E+01 0.  1.
         -5    1    4    4    0  502 -0.12620410750E+02 -0.66971741219E+02 -0.15165533610E+03  0.16633075439E+03  0.47000000000E+01 0.  1.
<mgrwt>
<rscale>  0 0.10000001E+04</rscale>
<asrwt>0</asrwt>
<pdfrwt beam="1">  1        1 0.43534081E+00 0.10000001E+04</pdfrwt>
<pdfrwt beam="2">  1       -1 0.13592019E-01 0.10000001E+04</pdfrwt>
<totfact> 0.31130084E+01</totfact>
</mgrwt>
</event>
<event>
 9    1  0.4296086E-036  0.1000455E+04  0.7818608E-02  0.8680605E-01
          2   -1    0    0  501    0  0.00000000000E+00  0.00000000000E+00  0.28715348867E+03  0.28715348867E+03  0.00000000000E+00 0. -1.
         -2   -1    0    0    0  501 -0.00000000000E+00 -0.00000000000E+00 -0.87140738694E+03  0.87140738694E+03  0.00000000000E+00 0. -1.
         36    2    1    2    0    0  0.00000000000E+00  0.00000000000E+00 -0.58425389826E+03  0.11585608756E+04  0.10004552388E+04 0.  0.
         25    2    3    3    0    0 -0.69607424252E+02 -0.10425809740E+03 -0.27472961423E+02  0.17736474257E+03  0.12242770892E+03 0.  0.
         35    2    3    3    0    0  0.69607424252E+02  0.10425809740E+03 -0.55678093684E+03  0.98119613304E+03  0.79813902015E+03 0.  0.
         22    1    5    5    0    0 -0.22386159260E+03 -0.23440047523E+03 -0.38001873581E+03  0.49947155574E+03  0.00000000000E+00 0. -1.
         22    1    5    5    0    0  0.29346901685E+03  0.33865857263E+03 -0.17676220103E+03  0.48172457730E+03  0.00000000000E+00 0. -1.
          5    1    4    4  502    0 -0.98655609091E+02 -0.10243006521E+03 -0.35804809707E+02  0.14672737258E+03  0.47000000000E+01 0.  1.
         -5    1    4    4    0  502  0.29048184839E+02 -0.18280321838E+01  0.83318482834E+01  0.30637369991E+02  0.47000000000E+01 0.  1.
<mgrwt>
<rscale>  0 0.10004552E+04</rscale>
<asrwt>0</asrwt>
<pdfrwt beam="1">  1        2 0.44177460E-01 0.10004552E+04</pdfrwt>
<pdfrwt beam="2">  1       -2 0.13406267E+00 0.10004552E+04</pdfrwt>
<totfact> 0.53235732E+01</totfact>
</mgrwt>
</event>
<event>
 9    1  0.4296086E-036  0.1000251E+04  0.7818608E-02  0.8680799E-01
         -1   -1    0    0    0  501 -0.00000000000E+00  0.00000000000E+00  0.62659803773E+03  0.62659803773E+03  0.00000000000E+00 0.  1.
          1   -1    0    0  501    0  0.00000000000E+00 -0.00000000000E+00 -0.39918040716E+03  0.39918040716E+03  0.00000000000E+00 0.  1.
         36    2    1    2    0    0  0.28421709430E-13  0.28421709430E-13  0.22741763057E+03  0.10257784449E+04  0.10002512881E+04 0.  0.
         25    2    3    3    0    0  0.11292281708E+03  0.84279375165E+02  0.51210069025E+02  0.19456326178E+03  0.12400732225E+03 0.  0.
         35    2    3    3    0    0 -0.11292281708E+03 -0.84279375165E+02  0.17620756154E+03  0.83121518310E+03  0.80000937505E+03 0.  0.
         22    1    5    5    0    0  0.19204362205E+03 -0.35031069584E+03  0.28886864681E+02  0.40054061884E+03  0.00000000000E+00 0.  1.
         22    1    5    5    0    0 -0.30496643913E+03  0.26603132067E+03  0.14732069686E+03  0.43067456426E+03  0.00000000000E+00 0.  1.
          5    1    4    4  502    0  0.67845521457E+02 -0.20979198068E+02  0.61997812020E+01  0.71439966547E+02  0.47000000000E+01 0. -1.
         -5    1    4    4    0  502  0.45077295622E+02  0.10525857323E+03  0.45010287823E+02  0.12312329524E+03  0.47000000000E+01 0. -1.
<mgrwt>
<rscale>  0 0.10002513E+04</rscale>
<asrwt>0</asrwt>
<pdfrwt beam="1">  1        1 0.61412370E-01 0.10002513E+04</pdfrwt>
<pdfrwt beam="2">  1       -1 0.96399698E-01 0.10002513E+04</pdfrwt>
<totfact> 0.74520204E+01</totfact>
</mgrwt>
</event>
<event>
 9    1  0.4296086E-036  0.1000558E+04  0.7818608E-02  0.8680506E-01
         -1   -1    0    0    0  501 -0.00000000000E+00  0.00000000000E+00  0.12176251235E+03  0.12176251235E+03  0.00000000000E+00 0.  1.
          1   -1    0    0  501    0  0.00000000000E+00 -0.00000000000E+00 -0.20554702262E+04  0.20554702262E+04  0.00000000000E+00 0.  1.
         36    2    1    2    0    0  0.00000000000E+00  0.71054273576E-14 -0.19337077139E+04  0.21772327386E+04  0.10005582818E+04 0.  0.
         25    2    3    3    0    0  0.12581101587E+03  0.20715544852E+02 -0.24387105105E+03  0.30333655295E+03  0.12760262264E+03 0.  0.
         35    2    3    3    0    0 -0.12581101587E+03 -0.20715544852E+02 -0.16898366628E+04  0.18738961856E+04  0.79980086394E+03 0.  0.
         22    1    5    5    0    0 -0.33112104731E+03  0.74472563590E+02 -0.15912673149E+04  0.16270583819E+04  0.00000000000E+00 0.  1.
         22    1    5    5    0    0  0.20531003144E+03 -0.95188108442E+02 -0.98569347955E+02  0.24683780374E+03  0.00000000000E+00 0.  1.
          5    1    4    4  502    0  0.10185080758E+03  0.48197969736E+02 -0.24145573299E+03  0.26649501362E+03  0.47000000000E+01 0. -1.
         -5    1    4    4    0  502  0.23960208287E+02 -0.27482424883E+02 -0.24153180571E+01  0.36841539327E+02  0.47000000000E+01 0. -1.
<mgrwt>
<rscale>  0 0.10005583E+04</rscale>
<asrwt>0</asrwt>
<pdfrwt beam="1">  1        1 0.31622617E+00 0.10005583E+04</pdfrwt>
<pdfrwt beam="2">  1       -1 0.18732695E-01 0.10005583E+04</pdfrwt>
<totfact> 0.64872717E+01</totfact>
</mgrwt>
</event>
<event>
 9    1  0.4296086E-036  0.1001368E+04  0.7818608E-02  0.8679737E-01
          2   -1    0    0  501    0  0.00000000000E+00  0.00000000000E+00  0.16237204451E+04  0.16237204451E+04  0.00000000000E+00 0. -1.
         -2   -1    0    0    0  501 -0.00000000000E+00 -0.00000000000E+00 -0.15438883433E+03  0.15438883433E+03  0.00000000000E+00 0. -1.
         36    2    1    2    0    0  0.00000000000E+00 -0.14210854715E-13  0.14693316108E+04  0.17781092794E+04  0.10013676783E+04 0.  0.
         25    2    3    3    0    0  0.84891371263E+02  0.81400631403E+02  0.40635350075E+03  0.44177200866E+03  0.12730566505E+03 0.  0.
         35    2    3    3    0    0 -0.84891371263E+02 -0.81400631403E+02  0.10629781100E+04  0.13363372708E+04  0.80127537785E+03 0.  0.
         22    1    5    5    0    0  0.13494699631E+03  0.15969897008E+03 -0.15432312483E+02  0.20964877564E+03  0.00000000000E+00 0.  1.
         22    1    5    5    0    0 -0.21983836757E+03 -0.24109960148E+03  0.10784104225E+04  0.11266884951E+04  0.00000000000E+00 0.  1.
          5    1    4    4  502    0 -0.30171831435E+02  0.60371345241E+01  0.12134692894E+03  0.12527551065E+03  0.47000000000E+01 0.  1.
         -5    1    4    4    0  502  0.11506320270E+03  0.75363496879E+02  0.28500657181E+03  0.31649649801E+03  0.47000000000E+01 0.  1.
<mgrwt>
<rscale>  0 0.10013677E+04</rscale>
<asrwt>0</asrwt>
<pdfrwt beam="1">  1        2 0.24980313E+00 0.10013677E+04</pdfrwt>
<pdfrwt beam="2">  1       -2 0.23752129E-01 0.10013677E+04</pdfrwt>
<totfact> 0.20258495E+02</totfact>
</mgrwt>
</event>
<event>
 9    1  0.4296086E-036  0.9999623E+03  0.7818608E-02  0.8681074E-01
         -2   -1    0    0    0  501 -0.00000000000E+00  0.00000000000E+00  0.40571460075E+03  0.40571460075E+03  0.00000000000E+00 0. -1.
          2   -1    0    0  501    0  0.00000000000E+00 -0.00000000000E+00 -0.61615021823E+03  0.61615021823E+03  0.00000000000E+00 0. -1.
         36    2    1    2    0    0  0.00000000000E+00 -0.14210854715E-13 -0.21043561748E+03  0.10218648190E+04  0.99996227887E+03 0.  0.
         25    2    3    3    0    0 -0.79431851177E+02 -0.89665551332E+02 -0.11660335170E+03  0.20828213339E+03  0.12424079598E+03 0.  0.
         35    2    3    3    0    0  0.79431851177E+02  0.89665551332E+02 -0.93832265781E+02  0.81358268559E+03  0.79922647736E+03 0.  0.
         22    1    5    5    0    0  0.10804444767E+03  0.32794363718E+03 -0.32946669188E+03  0.47725143572E+03  0.00000000000E+00 0.  1.
         22    1    5    5    0    0 -0.28612596497E+02 -0.23827808585E+03  0.23563442610E+03  0.33633124987E+03  0.00000000000E+00 0.  1.
          5    1    4    4  502    0 -0.94626510644E+02 -0.46457779367E+02 -0.12270586432E+03  0.16183732857E+03  0.47000000000E+01 0.  1.
         -5    1    4    4    0  502  0.15194659467E+02 -0.43207771965E+02  0.61025126192E+01  0.46444804820E+02  0.47000000000E+01 0.  1.
<mgrwt>
<rscale>  0 0.99996228E+03</rscale>
<asrwt>0</asrwt>
<pdfrwt beam="1">  1        2 0.94792341E-01 0.99996228E+03</pdfrwt>
<pdfrwt beam="2">  1       -2 0.62417631E-01 0.99996228E+03</pdfrwt>
<totfact> 0.13835760E+02</totfact>
</mgrwt>
</event>
<event>
 9    1  0.4296086E-036  0.1005337E+04  0.7818608E-02  0.8675972E-01
         -2   -1    0    0    0  501 -0.00000000000E+00  0.00000000000E+00  0.26990646730E+03  0.26990646730E+03  0.00000000000E+00 0. -1.
          2   -1    0    0  501    0  0.00000000000E+00 -0.00000000000E+00 -0.93615956485E+03  0.93615956485E+03  0.00000000000E+00 0. -1.
         36    2    1    2    0    0  0.21316282073E-13  0.00000000000E+00 -0.66625309754E+03  0.12060660322E+04  0.10053368012E+04 0.  0.
         25    2    3    3    0    0  0.33853788643E+02  0.14341401491E+03 -0.14990728157E+03  0.24273840676E+03  0.12139226652E+03 0.  0.
         35    2    3    3    0    0 -0.33853788643E+02 -0.14341401491E+03 -0.51634581597E+03  0.96332762539E+03  0.79979588239E+03 0.  0.
         22    1    5    5    0    0  0.29711262341E+03  0.30300720666E+02 -0.50819398089E+03  0.58945327794E+03  0.00000000000E+00 0.  1.
         22    1    5    5    0    0 -0.33096641205E+03 -0.17371473557E+03 -0.81518350759E+01  0.37387434744E+03  0.00000000000E+00 0.  1.
          5    1    4    4  502    0 -0.27064580844E+02  0.12406032907E+01 -0.30297304893E+00  0.27499316818E+02  0.47000000000E+01 0. -1.
         -5    1    4    4    0  502  0.60918369486E+02  0.14217341162E+03 -0.14960430853E+03  0.21523908995E+03  0.47000000000E+01 0. -1.
<mgrwt>
<rscale>  0 0.10053368E+04</rscale>
<asrwt>0</asrwt>
<pdfrwt beam="1">  1        2 0.14402455E+00 0.10053368E+04</pdfrwt>
<pdfrwt beam="2">  1       -2 0.41524071E-01 0.10053368E+04</pdfrwt>
<totfact> 0.18435221E+02</totfact>
</mgrwt>
</event>
<event>
 9    1  0.4296086E-036  0.1000426E+04  0.7818608E-02  0.8680632E-01
         -2   -1    0    0    0  501 -0.00000000000E+00  0.00000000000E+00  0.85656757180E+02  0.85656757180E+02  0.00000000000E+00 0. -1.
          2   -1    0    0  501    0  0.00000000000E+00 -0.00000000000E+00 -0.29211134690E+04  0.29211134690E+04  0.00000000000E+00 0. -1.
         36    2    1    2    0    0 -0.28421709430E-13  0.00000000000E+00 -0.28354567118E+04  0.30067702262E+04  0.10004261234E+04 0.  0.
         25    2    3    3    0    0  0.85809755457E+02 -0.96864738543E+02 -0.70535590134E+03  0.72768314155E+03  0.12348973737E+03 0.  0.
         35    2    3    3    0    0 -0.85809755457E+02  0.96864738543E+02 -0.21301008105E+04  0.22790870846E+04  0.80010148407E+03 0.  0.
         22    1    5    5    0    0 -0.16727919056E+03  0.15046003495E+03 -0.21641364573E+04  0.21758003483E+04  0.00000000000E+00 0.  1.
         22    1    5    5    0    0  0.81469435107E+02 -0.53595296404E+02  0.34035646821E+02  0.10328673636E+03  0.00000000000E+00 0.  1.
          5    1    4    4  502    0  0.90046824985E+02 -0.35827504759E+02 -0.58060803413E+03  0.58865934129E+03  0.47000000000E+01 0.  1.
         -5    1    4    4    0  502 -0.42370695281E+01 -0.61037233785E+02 -0.12474786721E+03  0.13902380026E+03  0.47000000000E+01 0.  1.
<mgrwt>
<rscale>  0 0.10004261E+04</rscale>
<asrwt>0</asrwt>
<pdfrwt beam="1">  1        2 0.44940204E+00 0.10004261E+04</pdfrwt>
<pdfrwt beam="2">  1       -2 0.13177964E-01 0.10004261E+04</pdfrwt>
<totfact> 0.93658891E+01</totfact>
</mgrwt>
</event>
<event>
 9    1  0.4296086E-036  0.1002645E+04  0.7818608E-02  0.8678524E-01
         -1   -1    0    0    0  501 -0.00000000000E+00  0.00000000000E+00  0.26805315210E+03  0.26805315210E+03  0.00000000000E+00 0. -1.
          1   -1    0    0  501    0  0.00000000000E+00 -0.00000000000E+00 -0.93759049839E+03  0.93759049839E+03  0.00000000000E+00 0. -1.
         36    2    1    2    0    0  0.00000000000E+00  0.00000000000E+00 -0.66953734628E+03  0.12056436505E+04  0.10026446798E+04 0.  0.
         25    2    3    3    0    0  0.90147099185E+02 -0.11045568332E+03 -0.13609268077E+03  0.23339854487E+03  0.12500682189E+03 0.  0.
         35    2    3    3    0    0 -0.90147099185E+02  0.11045568332E+03 -0.53344466552E+03  0.97224510562E+03  0.80023145200E+03 0.  0.
         22    1    5    5    0    0 -0.13301226478E+03  0.34858196040E+03 -0.61294297553E+03  0.71756584155E+03  0.00000000000E+00 0.  1.
         22    1    5    5    0    0  0.42865165595E+02 -0.23812627707E+03  0.79498310018E+02  0.25467926408E+03  0.00000000000E+00 0.  1.
          5    1    4    4  502    0 -0.18763753378E+02  0.13706193885E+02 -0.10866457111E+02  0.26078881912E+02  0.47000000000E+01 0. -1.
         -5    1    4    4    0  502  0.10891085256E+03 -0.12416187721E+03 -0.12522622366E+03  0.20731966296E+03  0.47000000000E+01 0. -1.
<mgrwt>
<rscale>  0 0.10026447E+04</rscale>
<asrwt>0</asrwt>
<pdfrwt beam="1">  1        1 0.14424469E+00 0.10026447E+04</pdfrwt>
<pdfrwt beam="2">  1       -1 0.41238947E-01 0.10026447E+04</pdfrwt>
<totfact> 0.10987773E+02</totfact>
</mgrwt>
</event>
<event>
 9    1  0.4296086E-036  0.1000297E+04  0.7818608E-02  0.8680755E-01
          1   -1    0    0  501    0  0.00000000000E+00  0.00000000000E+00  0.26209437063E+03  0.26209437063E+03  0.00000000000E+00 0. -1.
         -1   -1    0    0    0  501 -0.00000000000E+00 -0.00000000000E+00 -0.95442163406E+03  0.95442163406E+03  0.00000000000E+00 0. -1.
         36    2    1    2    0    0  0.00000000000E+00  0.00000000000E+00 -0.69232726343E+03  0.12165160047E+04  0.10002970309E+04 0.  0.
         25    2    3    3    0    0 -0.47066569949E+02  0.56781526875E+02 -0.26885084449E+03  0.30880068403E+03  0.13280693535E+03 0.  0.
         35    2    3    3    0    0  0.47066569949E+02 -0.56781526875E+02 -0.42347641894E+03  0.90771532066E+03  0.79948447275E+03 0.  0.
         22    1    5    5    0    0  0.14008418871E+03 -0.34937977472E+03 -0.46459651006E+03  0.59794625517E+03  0.00000000000E+00 0.  1.
         22    1    5    5    0    0 -0.93017618757E+02  0.29259824784E+03  0.41120091127E+02  0.30976906549E+03  0.00000000000E+00 0.  1.
          5    1    4    4  502    0  0.42175128066E+02  0.44282895291E+02 -0.11908424861E+03  0.13395097801E+03  0.47000000000E+01 0. -1.
         -5    1    4    4    0  502 -0.89241698015E+02  0.12498631585E+02 -0.14976659588E+03  0.17484970603E+03  0.47000000000E+01 0. -1.
<mgrwt>
<rscale>  0 0.10002970E+04</rscale>
<asrwt>0</asrwt>
<pdfrwt beam="1">  1        1 0.40322210E-01 0.10002970E+04</pdfrwt>
<pdfrwt beam="2">  1       -1 0.14683410E+00 0.10002970E+04</pdfrwt>
<totfact> 0.45570442E+01</totfact>
</mgrwt>
</event>
<event>
 9    1  0.4296086E-036  0.9998181E+03  0.7818608E-02  0.8681211E-01
         -2   -1    0    0    0  501 -0.00000000000E+00  0.00000000000E+00  0.17535567498E+03  0.17535567498E+03  0.00000000000E+00 0. -1.
          2   -1    0    0  501    0  0.00000000000E+00 -0.00000000000E+00 -0.14251553504E+04  0.14251553504E+04  0.00000000000E+00 0. -1.
         36    2    1    2    0    0 -0.14210854715E-13 -0.28421709430E-13 -0.12497996754E+04  0.16005110254E+04  0.99981814030E+03 0.  0.
         25    2    3    3    0    0 -0.50793053795E+02  0.13879931212E+03 -0.22647835478E+03  0.29720006848E+03  0.12324874103E+03 0.  0.
         35    2    3    3    0    0  0.50793053795E+02 -0.13879931212E+03 -0.10233213206E+04  0.13033109569E+04  0.79346565251E+03 0.  0.
         22    1    5    5    0    0 -0.78602875420E+02 -0.45168504786E+03 -0.48531503122E+03  0.66762899429E+03  0.00000000000E+00 0. -1.
         22    1    5    5    0    0  0.12939592921E+03  0.31288573574E+03 -0.53800628942E+03  0.63568196260E+03  0.00000000000E+00 0. -1.
          5    1    4    4  502    0  0.23540680233E+02  0.59406611551E+02 -0.15296329742E+03  0.16584079559E+03  0.47000000000E+01 0. -1.
         -5    1    4    4    0  502 -0.74333734027E+02  0.79392700571E+02 -0.73515057355E+02  0.13135927290E+03  0.47000000000E+01 0. -1.
<mgrwt>
<rscale>  0 0.99981814E+03</rscale>
<asrwt>0</asrwt>
<pdfrwt beam="1">  1        2 0.21925466E+00 0.99981814E+03</pdfrwt>
<pdfrwt beam="2">  1       -2 0.26977797E-01 0.99981814E+03</pdfrwt>
<totfact> 0.20925143E+02</totfact>
</mgrwt>
</event>
<event>
 9    1  0.4296086E-036  0.1001064E+04  0.7818608E-02  0.8680025E-01
         -2   -1    0    0    0  501 -0.00000000000E+00  0.00000000000E+00  0.20928980844E+03  0.20928980844E+03  0.00000000000E+00 0.  1.
          2   -1    0    0  501    0  0.00000000000E+00 -0.00000000000E+00 -0.11970594208E+04  0.11970594208E+04  0.00000000000E+00 0.  1.
         36    2    1    2    0    0  0.00000000000E+00  0.71054273576E-14 -0.98776961238E+03  0.14063492293E+04  0.10010641076E+04 0.  0.
         25    2    3    3    0    0  0.12538509828E+03  0.30839477706E+02 -0.10518296391E+03  0.20770995860E+03  0.12412684944E+03 0.  0.
         35    2    3    3    0    0 -0.12538509828E+03 -0.30839477706E+02 -0.88258664847E+03  0.11986392707E+04  0.80068996051E+03 0.  0.
         22    1    5    5    0    0 -0.39083573637E+02  0.67579259686E+02 -0.10117422825E+04  0.10147496874E+04  0.00000000000E+00 0. -1.
         22    1    5    5    0    0 -0.86301524640E+02 -0.98418737392E+02  0.12915563398E+03  0.18388958321E+03  0.00000000000E+00 0. -1.
          5    1    4    4  502    0  0.97353883663E+02  0.12684663776E+02 -0.10958536502E+01  0.98295321631E+02  0.47000000000E+01 0. -1.
         -5    1    4    4    0  502  0.28031214614E+02  0.18154813931E+02 -0.10408711026E+03  0.10941463697E+03  0.47000000000E+01 0. -1.
<mgrwt>
<rscale>  0 0.10010641E+04</rscale>
<asrwt>0</asrwt>
<pdfrwt beam="1">  1        2 0.18416299E+00 0.10010641E+04</pdfrwt>
<pdfrwt beam="2">  1       -2 0.32198432E-01 0.10010641E+04</pdfrwt>
<totfact> 0.20566527E+02</totfact>
</mgrwt>
</event>
<event>
 9    1  0.4296086E-036  0.1000712E+04  0.7818608E-02  0.8680360E-01
         -2   -1    0    0    0  501 -0.00000000000E+00  0.00000000000E+00  0.37250751537E+03  0.37250751537E+03  0.00000000000E+00 0.  1.
          2   -1    0    0  501    0  0.00000000000E+00 -0.00000000000E+00 -0.67208314238E+03  0.67208314238E+03  0.00000000000E+00 0.  1.
         36    2    1    2    0    0 -0.28421709430E-13  0.00000000000E+00 -0.29957562701E+03  0.10445906578E+04  0.10007117897E+04 0.  0.
         25    2    3    3    0    0 -0.12151741663E+03 -0.90173980374E+01 -0.12857429551E+03  0.21691750530E+03  0.12519608072E+03 0.  0.
         35    2    3    3    0    0  0.12151741663E+03  0.90173980374E+01 -0.17100133150E+03  0.82767315245E+03  0.80059577560E+03 0.  0.
         22    1    5    5    0    0  0.26659984978E+03 -0.17412564762E+03 -0.39270538715E+03  0.50558158803E+03  0.00000000000E+00 0.  1.
         22    1    5    5    0    0 -0.14508243315E+03  0.18314304565E+03  0.22170405565E+03  0.32209156442E+03  0.00000000000E+00 0.  1.
          5    1    4    4  502    0 -0.48437210162E+02  0.50016607643E+02 -0.18635029700E+02  0.72230040152E+02  0.47000000000E+01 0. -1.
         -5    1    4    4    0  502 -0.73080206465E+02 -0.59034005680E+02 -0.10993926581E+03  0.14468746515E+03  0.47000000000E+01 0. -1.
<mgrwt>
<rscale>  0 0.10007118E+04</rscale>
<asrwt>0</asrwt>
<pdfrwt beam="1">  1        2 0.10339740E+00 0.10007118E+04</pdfrwt>
<pdfrwt beam="2">  1       -2 0.57308849E-01 0.10007118E+04</pdfrwt>
<totfact> 0.14889384E+02</totfact>
</mgrwt>
</event>
<event>
 9    1  0.4296086E-036  0.9948189E+03  0.7818608E-02  0.8685988E-01
          2   -1    0    0  501    0  0.00000000000E+00  0.00000000000E+00  0.20724693318E+04  0.20724693318E+04  0.00000000000E+00 0.  1.
         -2   -1    0    0    0  501 -0.00000000000E+00 -0.00000000000E+00 -0.11938229462E+03  0.11938229462E+03  0.00000000000E+00 0.  1.
         36    2    1    2    0    0 -0.28421709430E-13  0.14210854715E-13  0.19530870372E+04  0.21918516264E+04  0.99481886663E+03 0.  0.
         25    2    3    3    0    0 -0.26781073277E+02 -0.10858425491E+03  0.19586439817E+03  0.25773355817E+03  0.12472352721E+03 0.  0.
         35    2    3    3    0    0  0.26781073277E+02  0.10858425491E+03  0.17572226390E+04  0.19341180682E+04  0.80029590310E+03 0.  0.
         22    1    5    5    0    0 -0.28437023540E+03 -0.20940070222E+03  0.93100754283E+03  0.99573597388E+03  0.00000000000E+00 0.  1.
         22    1    5    5    0    0  0.31115130867E+03  0.31798495713E+03  0.82621509616E+03  0.93838209434E+03  0.00000000000E+00 0.  1.
          5    1    4    4  502    0 -0.22749935902E+02  0.24181133988E+02  0.28445614855E+02  0.43971920916E+02  0.47000000000E+01 0.  1.
         -5    1    4    4    0  502 -0.40311373750E+01 -0.13276538890E+03  0.16741878331E+03  0.21376163726E+03  0.47000000000E+01 0.  1.
<mgrwt>
<rscale>  0 0.99481887E+03</rscale>
<asrwt>0</asrwt>
<pdfrwt beam="1">  1        2 0.31884141E+00 0.99481887E+03</pdfrwt>
<pdfrwt beam="2">  1       -2 0.18366508E-01 0.99481887E+03</pdfrwt>
<totfact> 0.17647573E+02</totfact>
</mgrwt>
</event>
<event>
 9    1  0.4296086E-036  0.9994937E+03  0.7818608E-02  0.8681520E-01
         -1   -1    0    0    0  501 -0.00000000000E+00  0.00000000000E+00  0.16947035058E+03  0.16947035058E+03  0.00000000000E+00 0. -1.
          1   -1    0    0  501    0  0.00000000000E+00 -0.00000000000E+00 -0.14736907707E+04  0.14736907707E+04  0.00000000000E+00 0. -1.
         36    2    1    2    0    0  0.56843418861E-13  0.10658141036E-13 -0.13042204201E+04  0.16431611213E+04  0.99949365491E+03 0.  0.
         25    2    3    3    0    0  0.13747377846E+03 -0.19109797545E+02 -0.23114440064E+03  0.29701946478E+03  0.12461382101E+03 0.  0.
         35    2    3    3    0    0 -0.13747377846E+03  0.19109797545E+02 -0.10730760195E+04  0.13461416565E+04  0.80083768120E+03 0.  0.
         22    1    5    5    0    0 -0.42901423077E+03  0.12469732769E+03 -0.37868651583E+03  0.58566723573E+03  0.00000000000E+00 0. -1.
         22    1    5    5    0    0  0.29154045231E+03 -0.10558753014E+03 -0.69438950363E+03  0.76047442074E+03  0.00000000000E+00 0. -1.
          5    1    4    4  502    0 -0.17138288741E+02 -0.24799069086E+02 -0.51780820631E+02  0.60100400611E+02  0.47000000000E+01 0.  1.
         -5    1    4    4    0  502  0.15461206720E+03  0.56892715402E+01 -0.17936358001E+03  0.23691906417E+03  0.47000000000E+01 0.  1.
<mgrwt>
<rscale>  0 0.99949365E+03</rscale>
<asrwt>0</asrwt>
<pdfrwt beam="1">  1        1 0.22672166E+00 0.99949365E+03</pdfrwt>
<pdfrwt beam="2">  1       -1 0.26072361E-01 0.99949365E+03</pdfrwt>
<totfact> 0.96153117E+01</totfact>
</mgrwt>
</event>
<event>
 9    1  0.4296086E-036  0.1001019E+04  0.7818608E-02  0.8680069E-01
         -1   -1    0    0    0  501 -0.00000000000E+00  0.00000000000E+00  0.45210652134E+03  0.45210652134E+03  0.00000000000E+00 0.  1.
          1   -1    0    0  501    0  0.00000000000E+00 -0.00000000000E+00 -0.55409412257E+03  0.55409412257E+03  0.00000000000E+00 0.  1.
         36    2    1    2    0    0  0.14210854715E-13  0.21316282073E-13 -0.10198760123E+03  0.10062006439E+04  0.10010186137E+04 0.  0.
         25    2    3    3    0    0 -0.44088131300E+02 -0.32380248263E+02  0.11197891142E+03  0.17326949927E+03  0.12037773455E+03 0.  0.
         35    2    3    3    0    0  0.44088131300E+02  0.32380248263E+02 -0.21396651265E+03  0.83293114464E+03  0.80311915640E+03 0.  0.
         22    1    5    5    0    0  0.15727478005E+03  0.36663134116E+03  0.35869808527E+02  0.40055029638E+03  0.00000000000E+00 0.  1.
         22    1    5    5    0    0 -0.11318664875E+03 -0.33425109290E+03 -0.24983632118E+03  0.43238084826E+03  0.00000000000E+00 0.  1.
          5    1    4    4  502    0 -0.10474044139E+02 -0.35792541961E+02  0.12955346199E+03  0.13489626079E+03  0.47000000000E+01 0. -1.
         -5    1    4    4    0  502 -0.33614087161E+02  0.34122936983E+01 -0.17574550570E+02  0.38373238484E+02  0.47000000000E+01 0. -1.
<mgrwt>
<rscale>  0 0.10010186E+04</rscale>
<asrwt>0</asrwt>
<pdfrwt beam="1">  1        1 0.85245250E-01 0.10010186E+04</pdfrwt>
<pdfrwt beam="2">  1       -1 0.69554849E-01 0.10010186E+04</pdfrwt>
<totfact> 0.94003178E+01</totfact>
</mgrwt>
</event>
<event>
 9    1  0.4296086E-036  0.9999537E+03  0.7818608E-02  0.8681082E-01
          2   -1    0    0  501    0  0.00000000000E+00  0.00000000000E+00  0.12605690501E+04  0.12605690501E+04  0.00000000000E+00 0.  1.
         -2   -1    0    0    0  501 -0.00000000000E+00 -0.00000000000E+00 -0.19830478544E+03  0.19830478544E+03  0.00000000000E+00 0.  1.
         36    2    1    2    0    0  0.00000000000E+00  0.00000000000E+00  0.10622642647E+04  0.14588738356E+04  0.99995374896E+03 0.  0.
         25    2    3    3    0    0  0.88038837410E+02  0.71687554287E+02  0.81093730082E+02  0.18751683140E+03  0.12528538089E+03 0.  0.
         35    2    3    3    0    0 -0.88038837410E+02 -0.71687554287E+02  0.98117053462E+03  0.12713570042E+04  0.80047677776E+03 0.  0.
         22    1    5    5    0    0 -0.15626453904E+03  0.33920278302E+03  0.60009775562E+03  0.70681995619E+03  0.00000000000E+00 0.  1.
         22    1    5    5    0    0  0.68225701628E+02 -0.41089033730E+03  0.38107277899E+03  0.56453704798E+03  0.00000000000E+00 0.  1.
          5    1    4    4  502    0 -0.47585696394E+01 -0.92611119722E+00 -0.26826905910E+02  0.27663596073E+02  0.47000000000E+01 0.  1.
         -5    1    4    4    0  502  0.92797407049E+02  0.72613665484E+02  0.10792063599E+03  0.15985323532E+03  0.47000000000E+01 0.  1.
<mgrwt>
<rscale>  0 0.99995375E+03</rscale>
<asrwt>0</asrwt>
<pdfrwt beam="1">  1        2 0.19393369E+00 0.99995375E+03</pdfrwt>
<pdfrwt beam="2">  1       -2 0.30508429E-01 0.99995375E+03</pdfrwt>
<totfact> 0.20835624E+02</totfact>
</mgrwt>
</event>
<event>
 9    1  0.4296086E-036  0.9998675E+03  0.7818608E-02  0.8681164E-01
          1   -1    0    0  501    0  0.00000000000E+00  0.00000000000E+00  0.16521576577E+04  0.16521576577E+04  0.00000000000E+00 0.  1.
         -1   -1    0    0    0  501 -0.00000000000E+00 -0.00000000000E+00 -0.15127718233E+03  0.15127718233E+03  0.00000000000E+00 0.  1.
         36    2    1    2    0    0  0.00000000000E+00  0.00000000000E+00  0.15008804753E+04  0.18034348400E+04  0.99986750167E+03 0.  0.
         25    2    3    3    0    0 -0.10823902646E+03 -0.80917872025E+02  0.21858502276E+03  0.28568549756E+03  0.12479343924E+03 0.  0.
         35    2    3    3    0    0  0.10823902646E+03  0.80917872025E+02  0.12822954526E+04  0.15177493424E+04  0.80063602838E+03 0.  0.
         22    1    5    5    0    0  0.21606290132E+03 -0.28542707069E+03  0.31147117880E+03  0.47451668594E+03  0.00000000000E+00 0.  1.
         22    1    5    5    0    0 -0.10782387486E+03  0.36634494272E+03  0.97082427378E+03  0.10432326565E+04  0.00000000000E+00 0.  1.
          5    1    4    4  502    0 -0.10246180230E+03 -0.10962916940E+03  0.20206869850E+03  0.25173562447E+03  0.47000000000E+01 0. -1.
         -5    1    4    4    0  502 -0.57772241537E+01  0.28711297370E+02  0.16516324262E+02  0.33949873089E+02  0.47000000000E+01 0. -1.
<mgrwt>
<rscale>  0 0.99986750E+03</rscale>
<asrwt>0</asrwt>
<pdfrwt beam="1">  1        1 0.25417809E+00 0.99986750E+03</pdfrwt>
<pdfrwt beam="2">  1       -1 0.23273414E-01 0.99986750E+03</pdfrwt>
<totfact> 0.86914421E+01</totfact>
</mgrwt>
</event>
<event>
 9    1  0.4296086E-036  0.9998262E+03  0.7818608E-02  0.8681203E-01
          2   -1    0    0  501    0  0.00000000000E+00  0.00000000000E+00  0.44020437784E+03  0.44020437784E+03  0.00000000000E+00 0. -1.
         -2   -1    0    0    0  501 -0.00000000000E+00 -0.00000000000E+00 -0.56772064551E+03  0.56772064551E+03  0.00000000000E+00 0. -1.
         36    2    1    2    0    0  0.35527136788E-14  0.00000000000E+00 -0.12751626767E+03  0.10079250234E+04  0.99982621199E+03 0.  0.
         25    2    3    3    0    0  0.16479428801E+02  0.13849378041E+03  0.29517378582E+01  0.18685387643E+03  0.12431234691E+03 0.  0.
         35    2    3    3    0    0 -0.16479428801E+02 -0.13849378041E+03 -0.13046800553E+03  0.82107114693E+03  0.79855108106E+03 0.  0.
         22    1    5    5    0    0 -0.18460282097E+03  0.28910540365E+03 -0.11345715442E+03  0.36129304147E+03  0.00000000000E+00 0. -1.
         22    1    5    5    0    0  0.16812339217E+03 -0.42759918405E+03 -0.17010851110E+02  0.45977810545E+03  0.00000000000E+00 0. -1.
          5    1    4    4  502    0 -0.75899614312E+01  0.40542926220E+01  0.43274339125E+02  0.44371198202E+02  0.47000000000E+01 0.  1.
         -5    1    4    4    0  502  0.24069390232E+02  0.13443948778E+03 -0.40322601267E+02  0.14248267823E+03  0.47000000000E+01 0.  1.
<mgrwt>
<rscale>  0 0.99982621E+03</rscale>
<asrwt>0</asrwt>
<pdfrwt beam="1">  1        2 0.67723751E-01 0.99982621E+03</pdfrwt>
<pdfrwt beam="2">  1       -2 0.87341637E-01 0.99982621E+03</pdfrwt>
<totfact> 0.96682740E+01</totfact>
</mgrwt>
</event>
<event>
 9    1  0.4296086E-036  0.9994811E+03  0.7818608E-02  0.8681532E-01
          2   -1    0    0  501    0  0.00000000000E+00  0.00000000000E+00  0.11389933307E+04  0.11389933307E+04  0.00000000000E+00 0.  1.
         -2   -1    0    0    0  501 -0.00000000000E+00 -0.00000000000E+00 -0.21926431889E+03  0.21926431889E+03  0.00000000000E+00 0.  1.
         36    2    1    2    0    0 -0.35527136788E-13  0.00000000000E+00  0.91972901183E+03  0.13582576496E+04  0.99948105911E+03 0.  0.
         25    2    3    3    0    0  0.60046914632E+02  0.46234711644E+02  0.33222169776E+03  0.36234784000E+03  0.12321290586E+03 0.  0.
         35    2    3    3    0    0 -0.60046914632E+02 -0.46234711644E+02  0.58750731407E+03  0.99590980961E+03  0.80057992998E+03 0.  0.
         22    1    5    5    0    0  0.30602608028E+03  0.53757239138E+02  0.52679515171E+03  0.61160030611E+03  0.00000000000E+00 0.  1.
         22    1    5    5    0    0 -0.36607299491E+03 -0.99991950782E+02  0.60712162358E+02  0.38430950350E+03  0.00000000000E+00 0.  1.
          5    1    4    4  502    0  0.80189097709E+02  0.42013037889E+02  0.12694626772E+03  0.15598984465E+03  0.47000000000E+01 0.  1.
         -5    1    4    4    0  502 -0.20142183077E+02  0.42216737545E+01  0.20527543004E+03  0.20635799535E+03  0.47000000000E+01 0.  1.
<mgrwt>
<rscale>  0 0.99948106E+03</rscale>
<asrwt>0</asrwt>
<pdfrwt beam="1">  1        2 0.17522974E+00 0.99948106E+03</pdfrwt>
<pdfrwt beam="2">  1       -2 0.33732973E-01 0.99948106E+03</pdfrwt>
<totfact> 0.20435490E+02</totfact>
</mgrwt>
</event>
<event>
 9    1  0.4296086E-036  0.1003124E+04  0.7818608E-02  0.8678068E-01
         -2   -1    0    0    0  501 -0.00000000000E+00  0.00000000000E+00  0.39058717288E+03  0.39058717288E+03  0.00000000000E+00 0.  1.
          2   -1    0    0  501    0  0.00000000000E+00 -0.00000000000E+00 -0.64406783069E+03  0.64406783069E+03  0.00000000000E+00 0.  1.
         36    2    1    2    0    0 -0.35527136788E-14 -0.28421709430E-13 -0.25348065782E+03  0.10346550036E+04  0.10031243854E+04 0.  0.
         25    2    3    3    0    0  0.56525177979E+00  0.13182527996E+03  0.11256387580E+02  0.18222805783E+03  0.12530815955E+03 0.  0.
         35    2    3    3    0    0 -0.56525177979E+00 -0.13182527996E+03 -0.26473704540E+03  0.85242694574E+03  0.79947968747E+03 0.  0.
         22    1    5    5    0    0 -0.22456589644E+03 -0.30176505856E+02 -0.47663975055E+03  0.52775554488E+03  0.00000000000E+00 0.  1.
         22    1    5    5    0    0  0.22400064466E+03 -0.10164877411E+03  0.21190270515E+03  0.32467140086E+03  0.00000000000E+00 0.  1.
          5    1    4    4  502    0  0.27259421592E+02  0.48889742045E+02  0.60075879615E+02  0.82246484753E+02  0.47000000000E+01 0.  1.
         -5    1    4    4    0  502 -0.26694169812E+02  0.82935537920E+02 -0.48819492034E+02  0.99981573074E+02  0.47000000000E+01 0.  1.
<mgrwt>
<rscale>  0 0.10031244E+04</rscale>
<asrwt>0</asrwt>
<pdfrwt beam="1">  1        2 0.99087358E-01 0.10031244E+04</pdfrwt>
<pdfrwt beam="2">  1       -2 0.60090335E-01 0.10031244E+04</pdfrwt>
<totfact> 0.14206795E+02</totfact>
</mgrwt>
</event>
<event>
 9    1  0.4296086E-036  0.1007868E+04  0.7818608E-02  0.8673581E-01
         -2   -1    0    0    0  501 -0.00000000000E+00  0.00000000000E+00  0.83128529897E+03  0.83128529897E+03  0.00000000000E+00 0.  1.
          2   -1    0    0  501    0  0.00000000000E+00 -0.00000000000E+00 -0.30549025512E+03  0.30549025512E+03  0.00000000000E+00 0.  1.
         36    2    1    2    0    0  0.14210854715E-13  0.71054273576E-14  0.52579504385E+03  0.11367755541E+04  0.10078681621E+04 0.  0.
         25    2    3    3    0    0  0.99743146224E+02  0.50535430042E+02  0.21397909511E+03  0.27207778542E+03  0.12544617677E+03 0.  0.
         35    2    3    3    0    0 -0.99743146224E+02 -0.50535430042E+02  0.31181594874E+03  0.86469776868E+03  0.79873056806E+03 0.  0.
         22    1    5    5    0    0 -0.37734557609E+03  0.29145911244E+01  0.41761263114E+03  0.56284854830E+03  0.00000000000E+00 0.  1.
         22    1    5    5    0    0  0.27760242987E+03 -0.53450021166E+02 -0.10579668240E+03  0.30184922037E+03  0.00000000000E+00 0.  1.
          5    1    4    4  502    0 -0.23522209241E+02 -0.29620025380E+00  0.77881145200E+02  0.81491992489E+02  0.47000000000E+01 0.  1.
         -5    1    4    4    0  502  0.12326535547E+03  0.50831630296E+02  0.13609794991E+03  0.19058579293E+03  0.47000000000E+01 0.  1.
<mgrwt>
<rscale>  0 0.10078682E+04</rscale>
<asrwt>0</asrwt>
<pdfrwt beam="1">  1        2 0.46998501E-01 0.10078682E+04</pdfrwt>
<pdfrwt beam="2">  1       -2 0.12789005E+00 0.10078682E+04</pdfrwt>
<totfact> 0.56321822E+01</totfact>
</mgrwt>
</event>
<event>
 9    1  0.4296086E-036  0.9996448E+03  0.7818608E-02  0.8681376E-01
         -1   -1    0    0    0  501 -0.00000000000E+00  0.00000000000E+00  0.12941202043E+04  0.12941202043E+04  0.00000000000E+00 0. -1.
          1   -1    0    0  501    0  0.00000000000E+00 -0.00000000000E+00 -0.19304423995E+03  0.19304423995E+03  0.00000000000E+00 0. -1.
         36    2    1    2    0    0  0.28421709430E-13  0.00000000000E+00  0.11010759643E+04  0.14871644442E+04  0.99964483942E+03 0.  0.
         25    2    3    3    0    0  0.10504621261E+03  0.73247983669E+02  0.12346062669E+03  0.21718312754E+03  0.12460341348E+03 0.  0.
         35    2    3    3    0    0 -0.10504621261E+03 -0.73247983669E+02  0.97761533764E+03  0.12699813167E+04  0.80045038727E+03 0.  0.
         22    1    5    5    0    0  0.22083062553E+03  0.73599291565E+02  0.86417638400E+03  0.89497700728E+03  0.00000000000E+00 0.  1.
         22    1    5    5    0    0 -0.32587683814E+03 -0.14684727523E+03  0.11343895364E+03  0.37500430942E+03  0.00000000000E+00 0.  1.
          5    1    4    4  502    0  0.38575127370E+02  0.42779020027E+02 -0.15719346619E+02  0.59893846631E+02  0.47000000000E+01 0.  1.
         -5    1    4    4    0  502  0.66471085235E+02  0.30468963642E+02  0.13917997331E+03  0.15728928091E+03  0.47000000000E+01 0.  1.
<mgrwt>
<rscale>  0 0.99964484E+03</rscale>
<asrwt>0</asrwt>
<pdfrwt beam="1">  1        1 0.29699115E-01 0.99964484E+03</pdfrwt>
<pdfrwt beam="2">  1       -1 0.19909541E+00 0.99964484E+03</pdfrwt>
<totfact> 0.24693965E+01</totfact>
</mgrwt>
</event>
<event>
 9    1  0.4296086E-036  0.1005333E+04  0.7818608E-02  0.8675976E-01
          2   -1    0    0  501    0  0.00000000000E+00  0.00000000000E+00  0.11729250451E+04  0.11729250451E+04  0.00000000000E+00 0. -1.
         -2   -1    0    0    0  501 -0.00000000000E+00 -0.00000000000E+00 -0.21542176537E+03  0.21542176537E+03  0.00000000000E+00 0. -1.
         36    2    1    2    0    0  0.14210854715E-13  0.14210854715E-13  0.95750327972E+03  0.13883468105E+04  0.10053329476E+04 0.  0.
         25    2    3    3    0    0 -0.12613231767E+03 -0.60980324610E+02  0.14380232105E+03  0.23925096161E+03  0.13013052503E+03 0.  0.
         35    2    3    3    0    0  0.12613231767E+03  0.60980324610E+02  0.81370095868E+03  0.11490958489E+04  0.79917711313E+03 0.  0.
         22    1    5    5    0    0  0.41088634041E+03 -0.18334098909E+02  0.73654122658E+03  0.84359747651E+03  0.00000000000E+00 0. -1.
         22    1    5    5    0    0 -0.28475402275E+03  0.79314423519E+02  0.77159732101E+02  0.30549837235E+03  0.00000000000E+00 0. -1.
          5    1    4    4  502    0 -0.48536610373E+02 -0.39180732959E+02  0.14562702400E+03  0.15849369861E+03  0.47000000000E+01 0. -1.
         -5    1    4    4    0  502 -0.77595707292E+02 -0.21799591651E+02 -0.18247029489E+01  0.80757263000E+02  0.47000000000E+01 0. -1.
<mgrwt>
<rscale>  0 0.10053329E+04</rscale>
<asrwt>0</asrwt>
<pdfrwt beam="1">  1        2 0.18045000E+00 0.10053329E+04</pdfrwt>
<pdfrwt beam="2">  1       -2 0.33141811E-01 0.10053329E+04</pdfrwt>
<totfact> 0.20152281E+02</totfact>
</mgrwt>
</event>
<event>
 9    1  0.4296086E-036  0.1000358E+04  0.7818608E-02  0.8680697E-01
          1   -1    0    0  501    0  0.00000000000E+00  0.00000000000E+00  0.19455267555E+04  0.19455267555E+04  0.00000000000E+00 0. -1.
         -1   -1    0    0    0  501 -0.00000000000E+00 -0.00000000000E+00 -0.12859194211E+03  0.12859194211E+03  0.00000000000E+00 0. -1.
         36    2    1    2    0    0 -0.35527136788E-14 -0.71054273576E-13  0.18169348134E+04  0.20741186976E+04  0.10003580637E+04 0.  0.
         25    2    3    3    0    0 -0.75366019024E+00 -0.97123556015E+02  0.55366404119E+03  0.57592781758E+03  0.12536118787E+03 0.  0.
         35    2    3    3    0    0  0.75366019024E+00  0.97123556015E+02  0.12632707722E+04  0.14981908800E+04  0.79955569910E+03 0.  0.
         22    1    5    5    0    0 -0.71506194005E+02 -0.28675383217E+03  0.17855826434E+03  0.34528821267E+03  0.00000000000E+00 0.  1.
         22    1    5    5    0    0  0.72259854195E+02  0.38387738819E+03  0.10847125078E+04  0.11529026673E+04  0.00000000000E+00 0.  1.
          5    1    4    4  502    0  0.57959096204E+01 -0.77603813062E+02  0.12892569352E+03  0.15066475639E+03  0.47000000000E+01 0. -1.
         -5    1    4    4    0  502 -0.65495698106E+01 -0.19519742953E+02  0.42473834767E+03  0.42526306119E+03  0.47000000000E+01 0. -1.
<mgrwt>
<rscale>  0 0.10003581E+04</rscale>
<asrwt>0</asrwt>
<pdfrwt beam="1">  1        1 0.29931179E+00 0.10003581E+04</pdfrwt>
<pdfrwt beam="2">  1       -1 0.19783377E-01 0.10003581E+04</pdfrwt>
<totfact> 0.70807893E+01</totfact>
</mgrwt>
</event>
<event>
 9    1  0.4296086E-036  0.9998118E+03  0.7818608E-02  0.8681217E-01
          1   -1    0    0  501    0  0.00000000000E+00  0.00000000000E+00  0.79507745049E+03  0.79507745049E+03  0.00000000000E+00 0. -1.
         -1   -1    0    0    0  501 -0.00000000000E+00 -0.00000000000E+00 -0.31431645836E+03  0.31431645836E+03  0.00000000000E+00 0. -1.
         36    2    1    2    0    0 -0.17763568394E-14 -0.28421709430E-13  0.48076099213E+03  0.11093939088E+04  0.99981183901E+03 0.  0.
         25    2    3    3    0    0 -0.91549164166E+01 -0.13714470195E+03  0.57797085497E+02  0.19465840348E+03  0.12513556323E+03 0.  0.
         35    2    3    3    0    0  0.91549164166E+01  0.13714470195E+03  0.42296390663E+03  0.91473550537E+03  0.79934354110E+03 0.  0.
         22    1    5    5    0    0  0.23412344425E+02 -0.62697370535E+02 -0.22592045813E+03  0.23562502318E+03  0.00000000000E+00 0.  1.
         22    1    5    5    0    0 -0.14257428008E+02  0.19984207249E+03  0.64888436477E+03  0.67911048220E+03  0.00000000000E+00 0.  1.
          5    1    4    4  502    0 -0.15076589046E+02 -0.72241639437E+00 -0.28829678896E+02  0.32879565204E+02  0.47000000000E+01 0. -1.
         -5    1    4    4    0  502  0.59216726294E+01 -0.13642228556E+03  0.86626764394E+02  0.16177883827E+03  0.47000000000E+01 0. -1.
<mgrwt>
<rscale>  0 0.99981184E+03</rscale>
<asrwt>0</asrwt>
<pdfrwt beam="1">  1        1 0.12231961E+00 0.99981184E+03</pdfrwt>
<pdfrwt beam="2">  1       -1 0.48356378E-01 0.99981184E+03</pdfrwt>
<totfact> 0.10881951E+02</totfact>
</mgrwt>
</event>
<event>
 9    1  0.4296086E-036  0.9994233E+03  0.7818608E-02  0.8681587E-01
         -1   -1    0    0    0  501 -0.00000000000E+00  0.00000000000E+00  0.48350846473E+03  0.48350846473E+03  0.00000000000E+00 0. -1.
          1   -1    0    0  501    0  0.00000000000E+00 -0.00000000000E+00 -0.51645779811E+03  0.51645779811E+03  0.00000000000E+00 0. -1.
         36    2    1    2    0    0 -0.14210854715E-13 -0.35527136788E-14 -0.32949333373E+02  0.99996626284E+03  0.99942326781E+03 0.  0.
         25    2    3    3    0    0 -0.34872261026E+02  0.65524230829E+01 -0.14253395781E+03  0.19232304041E+03  0.12414996539E+03 0.  0.
         35    2    3    3    0    0  0.34872261026E+02 -0.65524230829E+01  0.10958462444E+03  0.80764322243E+03  0.79938712523E+03 0.  0.
         22    1    5    5    0    0 -0.15624185182E+03  0.22564962791E+03 -0.22707602901E+03  0.35622014793E+03  0.00000000000E+00 0.  1.
         22    1    5    5    0    0  0.19111411285E+03 -0.23220205099E+03  0.33666065345E+03  0.45142307450E+03  0.00000000000E+00 0.  1.
          5    1    4    4  502    0  0.27400735503E+01 -0.10304311083E+02  0.20779250142E+02  0.23823393260E+02  0.47000000000E+01 0. -1.
         -5    1    4    4    0  502 -0.37612334576E+02  0.16856734166E+02 -0.16331320795E+03  0.16849964715E+03  0.47000000000E+01 0. -1.
<mgrwt>
<rscale>  0 0.99942327E+03</rscale>
<asrwt>0</asrwt>
<pdfrwt beam="1">  1        1 0.79455046E-01 0.99942327E+03</pdfrwt>
<pdfrwt beam="2">  1       -1 0.74385918E-01 0.99942327E+03</pdfrwt>
<totfact> 0.90769556E+01</totfact>
</mgrwt>
</event>
<event>
 9    1  0.4296086E-036  0.1000600E+04  0.7818608E-02  0.8680467E-01
          1   -1    0    0  501    0  0.00000000000E+00  0.00000000000E+00  0.11455067945E+04  0.11455067945E+04  0.00000000000E+00 0.  1.
         -1   -1    0    0    0  501 -0.00000000000E+00 -0.00000000000E+00 -0.21850579519E+03  0.21850579519E+03  0.00000000000E+00 0.  1.
         36    2    1    2    0    0 -0.14210854715E-13  0.28421709430E-13  0.92700099928E+03  0.13640125897E+04  0.10005995663E+04 0.  0.
         25    2    3    3    0    0 -0.67550939687E+01  0.13211188535E+03  0.24852743875E+03  0.30809090786E+03  0.12511969529E+03 0.  0.
         35    2    3    3    0    0  0.67550939687E+01 -0.13211188535E+03  0.67847356053E+03  0.10559216818E+04  0.79821365825E+03 0.  0.
         22    1    5    5    0    0  0.13547947586E+03 -0.34250595983E+03  0.38826729232E+02  0.37036810851E+03  0.00000000000E+00 0.  1.
         22    1    5    5    0    0 -0.12872438189E+03  0.21039407448E+03  0.63964683130E+03  0.68555357330E+03  0.00000000000E+00 0.  1.
          5    1    4    4  502    0  0.13178482549E+02  0.80207848026E+02  0.23769221841E+03  0.25125017807E+03  0.47000000000E+01 0.  1.
         -5    1    4    4    0  502 -0.19933576518E+02  0.51904037328E+02  0.10835220342E+02  0.56840729795E+02  0.47000000000E+01 0.  1.
<mgrwt>
<rscale>  0 0.10005996E+04</rscale>
<asrwt>0</asrwt>
<pdfrwt beam="1">  1        1 0.17623181E+00 0.10005996E+04</pdfrwt>
<pdfrwt beam="2">  1       -1 0.33616277E-01 0.10005996E+04</pdfrwt>
<totfact> 0.10822594E+02</totfact>
</mgrwt>
</event>
<event>
 9    1  0.4296086E-036  0.9991220E+03  0.7818608E-02  0.8681875E-01
          2   -1    0    0  501    0  0.00000000000E+00  0.00000000000E+00  0.17362456896E+04  0.17362456896E+04  0.00000000000E+00 0.  1.
         -2   -1    0    0    0  501 -0.00000000000E+00 -0.00000000000E+00 -0.14373609530E+03  0.14373609530E+03  0.00000000000E+00 0.  1.
         36    2    1    2    0    0 -0.14210854715E-13 -0.71054273576E-14  0.15925095943E+04  0.18799817850E+04  0.99912196637E+03 0.  0.
         25    2    3    3    0    0 -0.40872346710E+02  0.47823951957E+02  0.53756420537E+03  0.55526794622E+03  0.12405457710E+03 0.  0.
         35    2    3    3    0    0  0.40872346710E+02 -0.47823951957E+02  0.10549453890E+04  0.13247138387E+04  0.79874858479E+03 0.  0.
         22    1    5    5    0    0  0.13713231388E+03  0.38294336163E+02 -0.92652033149E+02  0.16987091258E+03  0.00000000000E+00 0.  1.
         22    1    5    5    0    0 -0.96259967171E+02 -0.86118288120E+02  0.11475974221E+04  0.11548429262E+04  0.00000000000E+00 0.  1.
          5    1    4    4  502    0 -0.11997921315E+02  0.69096677785E+02  0.49246363626E+03  0.49745434367E+03  0.47000000000E+01 0. -1.
         -5    1    4    4    0  502 -0.28874425395E+02 -0.21272725828E+02  0.45100569113E+02  0.57813602555E+02  0.47000000000E+01 0. -1.
<mgrwt>
<rscale>  0 0.99912197E+03</rscale>
<asrwt>0</asrwt>
<pdfrwt beam="1">  1        2 0.26711471E+00 0.99912197E+03</pdfrwt>
<pdfrwt beam="2">  1       -2 0.22113247E-01 0.99912197E+03</pdfrwt>
<totfact> 0.19848874E+02</totfact>
</mgrwt>
</event>
<event>
 9    1  0.4296086E-036  0.9997213E+03  0.7818608E-02  0.8681303E-01
          1   -1    0    0  501    0  0.00000000000E+00  0.00000000000E+00  0.15741972210E+03  0.15741972210E+03  0.00000000000E+00 0. -1.
         -1   -1    0    0    0  501 -0.00000000000E+00 -0.00000000000E+00 -0.15872258038E+04  0.15872258038E+04  0.00000000000E+00 0. -1.
         36    2    1    2    0    0 -0.14210854715E-13  0.14210854715E-13 -0.14298060817E+04  0.17446455259E+04  0.99972125104E+03 0.  0.
         25    2    3    3    0    0  0.69581400702E+02 -0.12042836839E+03 -0.29173372779E+03  0.34629421925E+03  0.12436460557E+03 0.  0.
         35    2    3    3    0    0 -0.69581400702E+02  0.12042836839E+03 -0.11380723539E+04  0.13983513067E+04  0.80052053743E+03 0.  0.
         22    1    5    5    0    0 -0.22463573124E+03 -0.19410794708E+02 -0.11660836329E+04  0.11876822090E+04  0.00000000000E+00 0.  1.
         22    1    5    5    0    0  0.15505433053E+03  0.13983916310E+03  0.28011278973E+02  0.21066909765E+03  0.00000000000E+00 0.  1.
          5    1    4    4  502    0  0.20420128378E+02 -0.50334407680E+02 -0.24008051426E+03  0.24619357743E+03  0.47000000000E+01 0.  1.
         -5    1    4    4    0  502  0.49161272324E+02 -0.70093960713E+02 -0.51653213525E+02  0.10010064182E+03  0.47000000000E+01 0.  1.
<mgrwt>
<rscale>  0 0.99972125E+03</rscale>
<asrwt>0</asrwt>
<pdfrwt beam="1">  1        1 0.24218419E-01 0.99972125E+03</pdfrwt>
<pdfrwt beam="2">  1       -1 0.24418859E+00 0.99972125E+03</pdfrwt>
<totfact> 0.12949226E+01</totfact>
</mgrwt>
</event>
<event>
 9    1  0.4296086E-036  0.1005033E+04  0.7818608E-02  0.8676260E-01
          2   -1    0    0  501    0  0.00000000000E+00  0.00000000000E+00  0.17268133917E+04  0.17268133917E+04  0.00000000000E+00 0. -1.
         -2   -1    0    0    0  501 -0.00000000000E+00 -0.00000000000E+00 -0.14623634951E+03  0.14623634951E+03  0.00000000000E+00 0. -1.
         36    2    1    2    0    0 -0.14210854715E-13  0.00000000000E+00  0.15805770422E+04  0.18730497412E+04  0.10050331073E+04 0.  0.
         25    2    3    3    0    0  0.98438048442E+02  0.10819797512E+03  0.29983105112E+03  0.35615974196E+03  0.12471668444E+03 0.  0.
         35    2    3    3    0    0 -0.98438048442E+02 -0.10819797512E+03  0.12807459911E+04  0.15168899993E+04  0.79952994002E+03 0.  0.
         22    1    5    5    0    0 -0.38709652877E+01 -0.32029257441E+03  0.13458626371E+03  0.34744176487E+03  0.00000000000E+00 0. -1.
         22    1    5    5    0    0 -0.94567083154E+02  0.21209459930E+03  0.11461597274E+04  0.11694482344E+04  0.00000000000E+00 0. -1.
          5    1    4    4  502    0  0.34798617227E+02  0.64838071596E+02  0.25814160420E+03  0.26846619360E+03  0.47000000000E+01 0. -1.
         -5    1    4    4    0  502  0.63639431214E+02  0.43359903521E+02  0.41689446917E+02  0.87693548354E+02  0.47000000000E+01 0. -1.
<mgrwt>
<rscale>  0 0.10050331E+04</rscale>
<asrwt>0</asrwt>
<pdfrwt beam="1">  1        2 0.26566358E+00 0.10050331E+04</pdfrwt>
<pdfrwt beam="2">  1       -2 0.22497901E-01 0.10050331E+04</pdfrwt>
<totfact> 0.19495479E+02</totfact>
</mgrwt>
</event>
<event>
 9    1  0.4296086E-036  0.1002797E+04  0.7818608E-02  0.8678379E-01
         -2   -1    0    0    0  501 -0.00000000000E+00  0.00000000000E+00  0.41051481372E+03  0.41051481372E+03  0.00000000000E+00 0.  1.
          2   -1    0    0  501    0  0.00000000000E+00 -0.00000000000E+00 -0.61240308219E+03  0.61240308219E+03  0.00000000000E+00 0.  1.
         36    2    1    2    0    0  0.24868995752E-13  0.00000000000E+00 -0.20188826848E+03  0.10229178959E+04  0.10027971624E+04 0.  0.
         25    2    3    3    0    0 -0.29821255354E+02 -0.62183374284E+02  0.92825258646E+02  0.17050519128E+03  0.12529729567E+03 0.  0.
         35    2    3    3    0    0  0.29821255354E+02  0.62183374284E+02 -0.29471352712E+03  0.85241270463E+03  0.79686590882E+03 0.  0.
         22    1    5    5    0    0 -0.27152448817E+03 -0.33678819743E+02 -0.42902622100E+03  0.50884507356E+03  0.00000000000E+00 0.  1.
         22    1    5    5    0    0  0.30134574353E+03  0.95862194027E+02  0.13431269388E+03  0.34356763107E+03  0.00000000000E+00 0.  1.
          5    1    4    4  502    0 -0.30220719688E+01  0.29329679710E+02 -0.87419685792E+01  0.31110690213E+02  0.47000000000E+01 0.  1.
         -5    1    4    4    0  502 -0.26799183385E+02 -0.91513053995E+02  0.10156722723E+03  0.13939450107E+03  0.47000000000E+01 0.  1.
<mgrwt>
<rscale>  0 0.10027972E+04</rscale>
<asrwt>0</asrwt>
<pdfrwt beam="1">  1        2 0.94215858E-01 0.10027972E+04</pdfrwt>
<pdfrwt beam="2">  1       -2 0.63156126E-01 0.10027972E+04</pdfrwt>
<totfact> 0.13594233E+02</totfact>
</mgrwt>
</event>
<event>
 9    1  0.4296086E-036  0.9995984E+03  0.7818608E-02  0.8681420E-01
          2   -1    0    0  501    0  0.00000000000E+00  0.00000000000E+00  0.13985285742E+04  0.13985285742E+04  0.00000000000E+00 0.  1.
         -2   -1    0    0    0  501 -0.00000000000E+00 -0.00000000000E+00 -0.17861576039E+03  0.17861576039E+03  0.00000000000E+00 0.  1.
         36    2    1    2    0    0 -0.14210854715E-13  0.71054273576E-14  0.12199128139E+04  0.15771443346E+04  0.99959840879E+03 0.  0.
         25    2    3    3    0    0 -0.12544145361E+03  0.27239936661E+02  0.31466405397E+03  0.36217397073E+03  0.12521559719E+03 0.  0.
         35    2    3    3    0    0  0.12544145361E+03 -0.27239936661E+02  0.90524875989E+03  0.12149703639E+04  0.80012504989E+03 0.  0.
         22    1    5    5    0    0 -0.28755028342E+03  0.18487385743E+03  0.32335842391E+03  0.47055730679E+03  0.00000000000E+00 0. -1.
         22    1    5    5    0    0  0.41299173704E+03 -0.21211379409E+03  0.58189033597E+03  0.74441305712E+03  0.00000000000E+00 0. -1.
          5    1    4    4  502    0 -0.18992053333E+02  0.60086420054E+02  0.76668825914E+02  0.99354289449E+02  0.47000000000E+01 0. -1.
         -5    1    4    4    0  502 -0.10644940028E+03 -0.32846483394E+02  0.23799522805E+03  0.26281968128E+03  0.47000000000E+01 0. -1.
<mgrwt>
<rscale>  0 0.99959841E+03</rscale>
<asrwt>0</asrwt>
<pdfrwt beam="1">  1        2 0.21515823E+00 0.99959841E+03</pdfrwt>
<pdfrwt beam="2">  1       -2 0.27479349E-01 0.99959841E+03</pdfrwt>
<totfact> 0.20965225E+02</totfact>
</mgrwt>
</event>
<event>
 9    1  0.4296086E-036  0.1001427E+04  0.7818608E-02  0.8679680E-01
         -1   -1    0    0    0  501 -0.00000000000E+00  0.00000000000E+00  0.51866902873E+03  0.51866902873E+03  0.00000000000E+00 0. -1.
          1   -1    0    0  501    0  0.00000000000E+00 -0.00000000000E+00 -0.48337945713E+03  0.48337945713E+03  0.00000000000E+00 0. -1.
         36    2    1    2    0    0  0.00000000000E+00  0.00000000000E+00  0.35289571598E+02  0.10020484859E+04  0.10014268891E+04 0.  0.
         25    2    3    3    0    0  0.13966310968E+03 -0.23953888328E+02  0.41855058471E+02  0.19392499506E+03  0.12560049689E+03 0.  0.
         35    2    3    3    0    0 -0.13966310968E+03  0.23953888328E+02 -0.65654868731E+01  0.80812349080E+03  0.79557582781E+03 0.  0.
         22    1    5    5    0    0 -0.40739967775E+03 -0.40104967310E+02  0.20791454412E+03  0.45914198619E+03  0.00000000000E+00 0. -1.
         22    1    5    5    0    0  0.26773656807E+03  0.64058855639E+02 -0.21448003099E+03  0.34898150461E+03  0.00000000000E+00 0. -1.
          5    1    4    4  502    0  0.10812605643E+03  0.53091880522E+01 -0.27847645474E+02  0.11187945707E+03  0.47000000000E+01 0. -1.
         -5    1    4    4    0  502  0.31537053253E+02 -0.29263076381E+02  0.69702703945E+02  0.82045537992E+02  0.47000000000E+01 0. -1.
<mgrwt>
<rscale>  0 0.10014269E+04</rscale>
<asrwt>0</asrwt>
<pdfrwt beam="1">  1        1 0.74366071E-01 0.10014269E+04</pdfrwt>
<pdfrwt beam="2">  1       -1 0.79795235E-01 0.10014269E+04</pdfrwt>
<totfact> 0.86137262E+01</totfact>
</mgrwt>
</event>
<event>
 9    1  0.4296086E-036  0.9991106E+03  0.7818608E-02  0.8681885E-01
         -2   -1    0    0    0  501 -0.00000000000E+00  0.00000000000E+00  0.19837921123E+03  0.19837921123E+03  0.00000000000E+00 0. -1.
          2   -1    0    0  501    0  0.00000000000E+00 -0.00000000000E+00 -0.12579720711E+04  0.12579720711E+04  0.00000000000E+00 0. -1.
         36    2    1    2    0    0  0.00000000000E+00 -0.71054273576E-14 -0.10595928599E+04  0.14563512823E+04  0.99911061893E+03 0.  0.
         25    2    3    3    0    0 -0.85119226861E+02  0.24279873134E+02 -0.35583723005E+03  0.38745020598E+03  0.12515084019E+03 0.  0.
         35    2    3    3    0    0  0.85119226861E+02 -0.24279873134E+02 -0.70375562984E+03  0.10689010764E+04  0.79965163009E+03 0.  0.
         22    1    5    5    0    0 -0.17512190961E+02  0.22549586684E+03 -0.76010839398E+03  0.79304466041E+03  0.00000000000E+00 0. -1.
         22    1    5    5    0    0  0.10263141782E+03 -0.24977573997E+03  0.56352764140E+02  0.27585641596E+03  0.00000000000E+00 0. -1.
          5    1    4    4  502    0 -0.27423961083E+02  0.71705312403E+02 -0.15290778137E+03  0.17116251071E+03  0.47000000000E+01 0.  1.
         -5    1    4    4    0  502 -0.57695265779E+02 -0.47425439269E+02 -0.20292944868E+03  0.21628769527E+03  0.47000000000E+01 0.  1.
<mgrwt>
<rscale>  0 0.99911062E+03</rscale>
<asrwt>0</asrwt>
<pdfrwt beam="1">  1        2 0.19353417E+00 0.99911062E+03</pdfrwt>
<pdfrwt beam="2">  1       -2 0.30519878E-01 0.99911062E+03</pdfrwt>
<totfact> 0.20894199E+02</totfact>
</mgrwt>
</event>
<event>
 9    1  0.4296086E-036  0.1000271E+04  0.7818608E-02  0.8680780E-01
         -1   -1    0    0    0  501 -0.00000000000E+00  0.00000000000E+00  0.47392634686E+03  0.47392634686E+03  0.00000000000E+00 0.  1.
          1   -1    0    0  501    0  0.00000000000E+00 -0.00000000000E+00 -0.52779408125E+03  0.52779408125E+03  0.00000000000E+00 0.  1.
         36    2    1    2    0    0  0.21316282073E-13  0.28421709430E-13 -0.53867734392E+02  0.10017204281E+04  0.10002710049E+04 0.  0.
         25    2    3    3    0    0 -0.97866469140E+01  0.13939147730E+03  0.79177631273E+01  0.18696252620E+03  0.12396182004E+03 0.  0.
         35    2    3    3    0    0  0.97866469140E+01 -0.13939147730E+03 -0.61785497519E+02  0.81475790191E+03  0.80030445995E+03 0.  0.
         22    1    5    5    0    0  0.30220558661E+03  0.17088232869E+03  0.95904525344E+02  0.36017588039E+03  0.00000000000E+00 0. -1.
         22    1    5    5    0    0 -0.29241893970E+03 -0.31027380599E+03 -0.15769002286E+03  0.45458202152E+03  0.00000000000E+00 0. -1.
          5    1    4    4  502    0  0.12707589915E+02  0.14285458755E+03  0.38482533306E+02  0.14856618524E+03  0.47000000000E+01 0. -1.
         -5    1    4    4    0  502 -0.22494236829E+02 -0.34631102535E+01 -0.30564770178E+02  0.38396340961E+02  0.47000000000E+01 0. -1.
<mgrwt>
<rscale>  0 0.10002710E+04</rscale>
<asrwt>0</asrwt>
<pdfrwt beam="1">  1        1 0.81199090E-01 0.10002710E+04</pdfrwt>
<pdfrwt beam="2">  1       -1 0.72911745E-01 0.10002710E+04</pdfrwt>
<totfact> 0.91668040E+01</totfact>
</mgrwt>
</event>
<event>
 9    1  0.4296086E-036  0.1000010E+04  0.7818608E-02  0.8681028E-01
          2   -1    0    0  501    0  0.00000000000E+00  0.00000000000E+00  0.30003077062E+04  0.30003077062E+04  0.00000000000E+00 0.  1.
         -2   -1    0    0    0  501 -0.00000000000E+00 -0.00000000000E+00 -0.83326453484E+02  0.83326453484E+02  0.00000000000E+00 0.  1.
         36    2    1    2    0    0 -0.14210854715E-13 -0.28421709430E-13  0.29169812527E+04  0.30836341597E+04  0.10000100010E+04 0.  0.
         25    2    3    3    0    0  0.43738951167E+02  0.12125644951E+03  0.77660991351E+03  0.79710867341E+03  0.12507220742E+03 0.  0.
         35    2    3    3    0    0 -0.43738951167E+02 -0.12125644951E+03  0.21403713392E+04  0.22865254862E+04  0.79397298901E+03 0.  0.
         22    1    5    5    0    0 -0.36860324193E+03 -0.22023835929E+03  0.85116931914E+03  0.95334280021E+03  0.00000000000E+00 0. -1.
         22    1    5    5    0    0  0.32486429076E+03  0.98981909788E+02  0.12892020200E+04  0.13331826860E+04  0.00000000000E+00 0. -1.
          5    1    4    4  502    0 -0.19579661297E+02  0.33033503868E+00  0.20407857691E+02  0.28671290750E+02  0.47000000000E+01 0.  1.
         -5    1    4    4    0  502  0.63318612464E+02  0.12092611447E+03  0.75620205582E+03  0.76843738266E+03  0.47000000000E+01 0.  1.
<mgrwt>
<rscale>  0 0.10000100E+04</rscale>
<asrwt>0</asrwt>
<pdfrwt beam="1">  1        2 0.46158572E+00 0.10000100E+04</pdfrwt>
<pdfrwt beam="2">  1       -2 0.12819457E-01 0.10000100E+04</pdfrwt>
<totfact> 0.86885691E+01</totfact>
</mgrwt>
</event>
<event>
 9    1  0.4296086E-036  0.1000154E+04  0.7818608E-02  0.8680891E-01
          2   -1    0    0  501    0  0.00000000000E+00  0.00000000000E+00  0.70538539549E+03  0.70538539549E+03  0.00000000000E+00 0.  1.
         -2   -1    0    0    0  501 -0.00000000000E+00 -0.00000000000E+00 -0.35452569351E+03  0.35452569351E+03  0.00000000000E+00 0.  1.
         36    2    1    2    0    0  0.31974423109E-13 -0.71054273576E-14  0.35085970199E+03  0.10599110890E+04  0.10001544811E+04 0.  0.
         25    2    3    3    0    0 -0.25138107944E+02  0.37083129705E+02  0.20558281360E+03  0.24489324970E+03  0.12530493813E+03 0.  0.
         35    2    3    3    0    0  0.25138107944E+02 -0.37083129705E+02  0.14527688839E+03  0.81501783930E+03  0.80071319529E+03 0.  0.
         22    1    5    5    0    0  0.25934856716E+03  0.25520169707E+03 -0.87241546598E+02  0.37416663791E+03  0.00000000000E+00 0.  1.
         22    1    5    5    0    0 -0.23421045921E+03 -0.29228482677E+03  0.23251843499E+03  0.44085120140E+03  0.00000000000E+00 0.  1.
          5    1    4    4  502    0 -0.20203994349E+01 -0.53209542341E+01  0.19511242489E+03  0.19525199849E+03  0.47000000000E+01 0. -1.
         -5    1    4    4    0  502 -0.23117708509E+02  0.42404083939E+02  0.10470388707E+02  0.49641251204E+02  0.47000000000E+01 0. -1.
<mgrwt>
<rscale>  0 0.10001545E+04</rscale>
<asrwt>0</asrwt>
<pdfrwt beam="1">  1        2 0.10852083E+00 0.10001545E+04</pdfrwt>
<pdfrwt beam="2">  1       -2 0.54542415E-01 0.10001545E+04</pdfrwt>
<totfact> 0.15535248E+02</totfact>
</mgrwt>
</event>
<event>
 9    1  0.4296086E-036  0.9989409E+03  0.7818608E-02  0.8682047E-01
          2   -1    0    0  501    0  0.00000000000E+00  0.00000000000E+00  0.46626239844E+03  0.46626239844E+03  0.00000000000E+00 0. -1.
         -2   -1    0    0    0  501 -0.00000000000E+00 -0.00000000000E+00 -0.53504362180E+03  0.53504362180E+03  0.00000000000E+00 0. -1.
         36    2    1    2    0    0 -0.17763568394E-13  0.00000000000E+00 -0.68781223361E+02  0.10013060202E+04  0.99894088388E+03 0.  0.
         25    2    3    3    0    0 -0.56770699780E+01 -0.13697050557E+03 -0.36866251296E+02  0.18913164409E+03  0.12497403648E+03 0.  0.
         35    2    3    3    0    0  0.56770699780E+01  0.13697050557E+03 -0.31914972065E+02  0.81217437615E+03  0.79988468126E+03 0.  0.
         22    1    5    5    0    0 -0.39505177184E+03  0.64923393948E+02  0.24653731965E+02  0.40110940655E+03  0.00000000000E+00 0.  1.
         22    1    5    5    0    0  0.40072884182E+03  0.72047111618E+02 -0.56568704030E+02  0.41106496961E+03  0.00000000000E+00 0.  1.
          5    1    4    4  502    0 -0.37357724920E+02 -0.20163841042E+02 -0.51753606254E+02  0.67102204562E+02  0.47000000000E+01 0. -1.
         -5    1    4    4    0  502  0.31680654942E+02 -0.11680666452E+03  0.14887354958E+02  0.12202943953E+03  0.47000000000E+01 0. -1.
<mgrwt>
<rscale>  0 0.99894088E+03</rscale>
<asrwt>0</asrwt>
<pdfrwt beam="1">  1        2 0.71732677E-01 0.99894088E+03</pdfrwt>
<pdfrwt beam="2">  1       -2 0.82314403E-01 0.99894088E+03</pdfrwt>
<totfact> 0.10405537E+02</totfact>
</mgrwt>
</event>
<event>
 9    1  0.4296086E-036  0.1000084E+04  0.7818608E-02  0.8680958E-01
          2   -1    0    0  501    0  0.00000000000E+00  0.00000000000E+00  0.44949493547E+03  0.44949493547E+03  0.00000000000E+00 0. -1.
         -2   -1    0    0    0  501 -0.00000000000E+00 -0.00000000000E+00 -0.55627291626E+03  0.55627291626E+03  0.00000000000E+00 0. -1.
         36    2    1    2    0    0 -0.21316282073E-13  0.00000000000E+00 -0.10677798079E+03  0.10057678517E+04  0.10000837137E+04 0.  0.
         25    2    3    3    0    0  0.34909035171E+02  0.11263300924E+03 -0.90990616870E+02  0.19721895861E+03  0.12927176710E+03 0.  0.
         35    2    3    3    0    0 -0.34909035171E+02 -0.11263300924E+03 -0.15787363916E+02  0.80854889312E+03  0.79974823300E+03 0.  0.
         22    1    5    5    0    0  0.33961821977E+03 -0.59290234917E+02 -0.18823043181E+03  0.39279328229E+03  0.00000000000E+00 0. -1.
         22    1    5    5    0    0 -0.37452725494E+03 -0.53342774323E+02  0.17244306790E+03  0.41575561082E+03  0.00000000000E+00 0. -1.
          5    1    4    4  502    0  0.36190401847E+02  0.81642418789E+02 -0.12321416938E+03  0.15224667900E+03  0.47000000000E+01 0. -1.
         -5    1    4    4    0  502 -0.12813666765E+01  0.30990590452E+02  0.32223552507E+02  0.44972279609E+02  0.47000000000E+01 0. -1.
<mgrwt>
<rscale>  0 0.10000837E+04</rscale>
<asrwt>0</asrwt>
<pdfrwt beam="1">  1        2 0.69153067E-01 0.10000837E+04</pdfrwt>
<pdfrwt beam="2">  1       -2 0.85580449E-01 0.10000837E+04</pdfrwt>
<totfact> 0.99034419E+01</totfact>
</mgrwt>
</event>
<event>
 9    1  0.4296086E-036  0.1000522E+04  0.7818608E-02  0.8680541E-01
          3   -1    0    0  501    0  0.00000000000E+00  0.00000000000E+00  0.34177576187E+03  0.34177576187E+03  0.00000000000E+00 0. -1.
         -3   -1    0    0    0  501 -0.00000000000E+00 -0.00000000000E+00 -0.73223748646E+03  0.73223748646E+03  0.00000000000E+00 0. -1.
         36    2    1    2    0    0  0.14210854715E-13 -0.28421709430E-13 -0.39046172459E+03  0.10740132483E+04  0.10005219134E+04 0.  0.
         25    2    3    3    0    0 -0.34152313869E+02  0.10161365423E+03  0.17491530108E+02  0.16598755190E+03  0.12551573006E+03 0.  0.
         35    2    3    3    0    0  0.34152313869E+02 -0.10161365423E+03 -0.40795325470E+03  0.90802569644E+03  0.80411012436E+03 0.  0.
         22    1    5    5    0    0 -0.22986933053E+02  0.35071376459E+03 -0.13410411246E+03  0.37618141467E+03  0.00000000000E+00 0. -1.
         22    1    5    5    0    0  0.57139246922E+02 -0.45232741881E+03 -0.27384914224E+03  0.53184428177E+03  0.00000000000E+00 0. -1.
          5    1    4    4  502    0 -0.66928825963E+02  0.11602220418E+02 -0.19983736993E+01  0.68118740159E+02  0.47000000000E+01 0. -1.
         -5    1    4    4    0  502  0.32776512093E+02  0.90011433807E+02  0.19489903807E+02  0.97868811740E+02  0.47000000000E+01 0. -1.
<mgrwt>
<rscale>  0 0.10005219E+04</rscale>
<asrwt>0</asrwt>
<pdfrwt beam="1">  1        3 0.52580887E-01 0.10005219E+04</pdfrwt>
<pdfrwt beam="2">  1       -3 0.11265192E+00 0.10005219E+04</pdfrwt>
<totfact> 0.84410619E+00</totfact>
</mgrwt>
</event>
<event>
 9    1  0.4296086E-036  0.9998118E+03  0.7818608E-02  0.8681217E-01
         -2   -1    0    0    0  501 -0.00000000000E+00  0.00000000000E+00  0.31194483814E+03  0.31194483814E+03  0.00000000000E+00 0.  1.
          2   -1    0    0  501    0  0.00000000000E+00 -0.00000000000E+00 -0.80112217139E+03  0.80112217139E+03  0.00000000000E+00 0.  1.
         36    2    1    2    0    0  0.28421709430E-13 -0.14210854715E-13 -0.48917733325E+03  0.11130670095E+04  0.99981183446E+03 0.  0.
         25    2    3    3    0    0  0.10548536365E+03 -0.23075338515E+02 -0.19317888626E+03  0.25409187171E+03  0.12483975321E+03 0.  0.
         35    2    3    3    0    0 -0.10548536365E+03  0.23075338515E+02 -0.29599844700E+03  0.85897513782E+03  0.79910172918E+03 0.  0.
         22    1    5    5    0    0 -0.18255419961E+03  0.20441429833E+03 -0.50323231630E+03  0.57302181924E+03  0.00000000000E+00 0. -1.
         22    1    5    5    0    0  0.77068835964E+02 -0.18133895982E+03  0.20723386930E+03  0.28595331858E+03  0.00000000000E+00 0. -1.
          5    1    4    4  502    0  0.40412551358E+02 -0.72538985815E+02 -0.99155248032E+02  0.12941766488E+03  0.47000000000E+01 0.  1.
         -5    1    4    4    0  502  0.65072812287E+02  0.49463647300E+02 -0.94023638224E+02  0.12467420683E+03  0.47000000000E+01 0.  1.
<mgrwt>
<rscale>  0 0.99981183E+03</rscale>
<asrwt>0</asrwt>
<pdfrwt beam="1">  1        2 0.12324957E+00 0.99981183E+03</pdfrwt>
<pdfrwt beam="2">  1       -2 0.47991513E-01 0.99981183E+03</pdfrwt>
<totfact> 0.17117381E+02</totfact>
</mgrwt>
</event>
<event>
 9    1  0.4296086E-036  0.1001066E+04  0.7818608E-02  0.8680024E-01
         -2   -1    0    0    0  501 -0.00000000000E+00  0.00000000000E+00  0.55419754417E+03  0.55419754417E+03  0.00000000000E+00 0.  1.
          2   -1    0    0  501    0  0.00000000000E+00 -0.00000000000E+00 -0.45206477091E+03  0.45206477091E+03  0.00000000000E+00 0.  1.
         36    2    1    2    0    0 -0.14210854715E-13  0.71054273576E-14  0.10213277326E+03  0.10062623151E+04  0.10010658037E+04 0.  0.
         25    2    3    3    0    0 -0.92915892454E+02  0.52901139619E+02  0.11289989680E+03  0.19978781373E+03  0.12544676231E+03 0.  0.
         35    2    3    3    0    0  0.92915892454E+02 -0.52901139619E+02 -0.10767123548E+02  0.80647450134E+03  0.79928298914E+03 0.  0.
         22    1    5    5    0    0 -0.14381017624E+03  0.27129311047E+03  0.18644241892E+03  0.35922429505E+03  0.00000000000E+00 0. -1.
         22    1    5    5    0    0  0.23672606869E+03 -0.32419425009E+03 -0.19720954247E+03  0.44725020630E+03  0.00000000000E+00 0. -1.
          5    1    4    4  502    0 -0.11064323556E+03  0.74988450686E+02  0.78874634246E+02  0.15526909300E+03  0.47000000000E+01 0. -1.
         -5    1    4    4    0  502  0.17727343111E+02 -0.22087311067E+02  0.34025262558E+02  0.44518720737E+02  0.47000000000E+01 0. -1.
<mgrwt>
<rscale>  0 0.10010658E+04</rscale>
<asrwt>0</asrwt>
<pdfrwt beam="1">  1        2 0.69548426E-01 0.10010658E+04</pdfrwt>
<pdfrwt beam="2">  1       -2 0.85261161E-01 0.10010658E+04</pdfrwt>
<totfact> 0.99256280E+01</totfact>
</mgrwt>
</event>
<event>
 9    1  0.4296086E-036  0.1001433E+04  0.7818608E-02  0.8679674E-01
          1   -1    0    0  501    0  0.00000000000E+00  0.00000000000E+00  0.23800313512E+03  0.23800313512E+03  0.00000000000E+00 0.  1.
         -1   -1    0    0    0  501 -0.00000000000E+00 -0.00000000000E+00 -0.10534197293E+04  0.10534197293E+04  0.00000000000E+00 0.  1.
         36    2    1    2    0    0 -0.71054273576E-14  0.00000000000E+00 -0.81541659413E+03  0.12914228644E+04  0.10014333690E+04 0.  0.
         25    2    3    3    0    0  0.48218320438E+02  0.11749882914E+03 -0.23482155222E+03  0.29476281356E+03  0.12495188512E+03 0.  0.
         35    2    3    3    0    0 -0.48218320438E+02 -0.11749882914E+03 -0.58059504191E+03  0.99666005082E+03  0.80006854264E+03 0.  0.
         22    1    5    5    0    0 -0.65513892422E+02 -0.36931433116E+03 -0.63588671862E+03  0.73826625564E+03  0.00000000000E+00 0.  1.
         22    1    5    5    0    0  0.17295571984E+02  0.25181550203E+03  0.55291676709E+02  0.25839379517E+03  0.00000000000E+00 0.  1.
          5    1    4    4  502    0 -0.58131898210E+01  0.11233457852E+03 -0.10489573873E+03  0.15387675819E+03  0.47000000000E+01 0.  1.
         -5    1    4    4    0  502  0.54031510259E+02  0.51642506130E+01 -0.12992581349E+03  0.14088605536E+03  0.47000000000E+01 0.  1.
<mgrwt>
<rscale>  0 0.10014334E+04</rscale>
<asrwt>0</asrwt>
<pdfrwt beam="1">  1        1 0.36615866E-01 0.10014334E+04</pdfrwt>
<pdfrwt beam="2">  1       -1 0.16206458E+00 0.10014334E+04</pdfrwt>
<totfact> 0.38486943E+01</totfact>
</mgrwt>
</event>
<event>
 9    1  0.4296086E-036  0.9987539E+03  0.7818608E-02  0.8682225E-01
          1   -1    0    0  501    0  0.00000000000E+00  0.00000000000E+00  0.15591723293E+04  0.15591723293E+04  0.00000000000E+00 0.  1.
         -1   -1    0    0    0  501 -0.00000000000E+00 -0.00000000000E+00 -0.15994213410E+03  0.15994213410E+03  0.00000000000E+00 0.  1.
         36    2    1    2    0    0  0.00000000000E+00  0.00000000000E+00  0.13992301952E+04  0.17191144634E+04  0.99875392319E+03 0.  0.
         25    2    3    3    0    0  0.96991448222E+01 -0.13085333887E+03  0.35739597151E+03  0.40049674623E+03  0.12429438277E+03 0.  0.
         35    2    3    3    0    0 -0.96991448222E+01  0.13085333887E+03  0.10418342237E+04  0.13186177172E+04  0.79756972401E+03 0.  0.
         22    1    5    5    0    0 -0.85528109187E+02 -0.27930580314E+03  0.76270222331E+03  0.81672606826E+03  0.00000000000E+00 0. -1.
         22    1    5    5    0    0  0.75828964364E+02  0.41015914201E+03  0.27913200040E+03  0.50189164892E+03  0.00000000000E+00 0. -1.
          5    1    4    4  502    0  0.25254980565E+02 -0.13718491112E+03  0.35671045215E+03  0.38304301397E+03  0.47000000000E+01 0. -1.
         -5    1    4    4    0  502 -0.15555835743E+02  0.63315722489E+01  0.68551935506E+00  0.17453732254E+02  0.47000000000E+01 0. -1.
<mgrwt>
<rscale>  0 0.99875392E+03</rscale>
<asrwt>0</asrwt>
<pdfrwt beam="1">  1        1 0.23987266E+00 0.99875392E+03</pdfrwt>
<pdfrwt beam="2">  1       -1 0.24606483E-01 0.99875392E+03</pdfrwt>
<totfact> 0.92136655E+01</totfact>
</mgrwt>
</event>
<event>
 9    1  0.4296086E-036  0.1001769E+04  0.7818608E-02  0.8679355E-01
          2   -1    0    0  501    0  0.00000000000E+00  0.00000000000E+00  0.42995484175E+03  0.42995484175E+03  0.00000000000E+00 0. -1.
         -2   -1    0    0    0  501 -0.00000000000E+00 -0.00000000000E+00 -0.58351579209E+03  0.58351579209E+03  0.00000000000E+00 0. -1.
         36    2    1    2    0    0  0.00000000000E+00  0.28421709430E-13 -0.15356095034E+03  0.10134706338E+04  0.10017693149E+04 0.  0.
         25    2    3    3    0    0  0.10489577780E+03 -0.86385203985E+01 -0.12552578464E+03  0.20604419900E+03  0.12497896262E+03 0.  0.
         35    2    3    3    0    0 -0.10489577780E+03  0.86385203985E+01 -0.28035165699E+02  0.80742643484E+03  0.80004607926E+03 0.  0.
         22    1    5    5    0    0 -0.19396918576E+03  0.27612786259E+03  0.24339823186E+03  0.41606891352E+03  0.00000000000E+00 0. -1.
         22    1    5    5    0    0  0.89073407958E+02 -0.26748934219E+03 -0.27143339756E+03  0.39135752133E+03  0.00000000000E+00 0. -1.
          5    1    4    4  502    0  0.34428129424E+02 -0.33742985624E+02 -0.12171024491E+03  0.13099373607E+03  0.47000000000E+01 0.  1.
         -5    1    4    4    0  502  0.70467648377E+02  0.25104465226E+02 -0.38155397295E+01  0.75050462926E+02  0.47000000000E+01 0.  1.
<mgrwt>
<rscale>  0 0.10017693E+04</rscale>
<asrwt>0</asrwt>
<pdfrwt beam="1">  1        2 0.66146899E-01 0.10017693E+04</pdfrwt>
<pdfrwt beam="2">  1       -2 0.89771659E-01 0.10017693E+04</pdfrwt>
<totfact> 0.93089680E+01</totfact>
</mgrwt>
</event>
<event>
 9    1  0.4296086E-036  0.9993334E+03  0.7818608E-02  0.8681673E-01
          2   -1    0    0  501    0  0.00000000000E+00  0.00000000000E+00  0.20241327602E+04  0.20241327602E+04  0.00000000000E+00 0.  1.
         -2   -1    0    0    0  501 -0.00000000000E+00 -0.00000000000E+00 -0.12334507606E+03  0.12334507606E+03  0.00000000000E+00 0.  1.
         36    2    1    2    0    0 -0.71054273576E-14  0.00000000000E+00  0.19007876841E+04  0.21474778363E+04  0.99933339632E+03 0.  0.
         25    2    3    3    0    0  0.51013942873E+02  0.12858793701E+03  0.31907298262E+03  0.36956478922E+03  0.12503313671E+03 0.  0.
         35    2    3    3    0    0 -0.51013942873E+02 -0.12858793701E+03  0.15817147015E+04  0.17779130470E+04  0.80001007863E+03 0.  0.
         22    1    5    5    0    0 -0.33701156479E+03  0.18679073453E+03  0.79148804833E+03  0.88029591840E+03  0.00000000000E+00 0.  1.
         22    1    5    5    0    0  0.28599762192E+03 -0.31537867154E+03  0.79022665319E+03  0.89761712863E+03  0.00000000000E+00 0.  1.
          5    1    4    4  502    0  0.52416366012E+02  0.11455620020E+03  0.13431443071E+03  0.18420926884E+03  0.47000000000E+01 0.  1.
         -5    1    4    4    0  502 -0.14024231385E+01  0.14031736813E+02  0.18475855192E+03  0.18535552038E+03  0.47000000000E+01 0.  1.
<mgrwt>
<rscale>  0 0.99933340E+03</rscale>
<asrwt>0</asrwt>
<pdfrwt beam="1">  1        2 0.31140502E+00 0.99933340E+03</pdfrwt>
<pdfrwt beam="2">  1       -2 0.18976167E-01 0.99933340E+03</pdfrwt>
<totfact> 0.17781322E+02</totfact>
</mgrwt>
</event>
<event>
 9    1  0.4296086E-036  0.1000431E+04  0.7818608E-02  0.8680628E-01
         -1   -1    0    0    0  501 -0.00000000000E+00  0.00000000000E+00  0.38814891043E+03  0.38814891043E+03  0.00000000000E+00 0. -1.
          1   -1    0    0  501    0  0.00000000000E+00 -0.00000000000E+00 -0.64463754597E+03  0.64463754597E+03  0.00000000000E+00 0. -1.
         36    2    1    2    0    0  0.28421709430E-13 -0.17763568394E-13 -0.25648863553E+03  0.10327864564E+04  0.10004306295E+04 0.  0.
         25    2    3    3    0    0 -0.12265300656E+03  0.17026247676E+02  0.20434754066E+02  0.17665520184E+03  0.12432147054E+03 0.  0.
         35    2    3    3    0    0  0.12265300656E+03 -0.17026247676E+02 -0.27692338960E+03  0.85613125456E+03  0.80058760182E+03 0.  0.
         22    1    5    5    0    0  0.22392553429E+03 -0.31467602645E+03  0.64977316562E+02  0.39164486234E+03  0.00000000000E+00 0. -1.
         22    1    5    5    0    0 -0.10127252773E+03  0.29764977878E+03 -0.34190070616E+03  0.46448639222E+03  0.00000000000E+00 0. -1.
          5    1    4    4  502    0  0.18421651693E+02  0.14362950425E+02  0.26129550896E+02  0.35362339092E+02  0.47000000000E+01 0. -1.
         -5    1    4    4    0  502 -0.14107465825E+03  0.26632972509E+01 -0.56947968302E+01  0.14129286275E+03  0.47000000000E+01 0. -1.
<mgrwt>
<rscale>  0 0.10004306E+04</rscale>
<asrwt>0</asrwt>
<pdfrwt beam="1">  1        1 0.99175006E-01 0.10004306E+04</pdfrwt>
<pdfrwt beam="2">  1       -1 0.59715218E-01 0.10004306E+04</pdfrwt>
<totfact> 0.10144261E+02</totfact>
</mgrwt>
</event>
<event>
 9    1  0.4296086E-036  0.1000282E+04  0.7818608E-02  0.8680769E-01
          2   -1    0    0  501    0  0.00000000000E+00  0.00000000000E+00  0.13016318031E+04  0.13016318031E+04  0.00000000000E+00 0.  1.
         -2   -1    0    0    0  501 -0.00000000000E+00 -0.00000000000E+00 -0.19217507570E+03  0.19217507570E+03  0.00000000000E+00 0.  1.
         36    2    1    2    0    0  0.35527136788E-14  0.00000000000E+00  0.11094567274E+04  0.14938068788E+04  0.10002823407E+04 0.  0.
         25    2    3    3    0    0  0.17975632390E+02 -0.11135315580E+01  0.41645493542E+03  0.43549972252E+03  0.12609889679E+03 0.  0.
         35    2    3    3    0    0 -0.17975632390E+02  0.11135315580E+01  0.69300179200E+03  0.10583071563E+04  0.79964879169E+03 0.  0.
         22    1    5    5    0    0  0.36849308929E+03  0.15102706739E+02  0.16550157539E+03  0.40423510493E+03  0.00000000000E+00 0.  1.
         22    1    5    5    0    0 -0.38646872168E+03 -0.13989175182E+02  0.52750021661E+03  0.65407205137E+03  0.00000000000E+00 0.  1.
          5    1    4    4  502    0 -0.12937759249E+02 -0.33162242206E+02  0.36713515966E+03  0.36888675143E+03  0.47000000000E+01 0. -1.
         -5    1    4    4    0  502  0.30913391639E+02  0.32048710648E+02  0.49319775757E+02  0.66612971091E+02  0.47000000000E+01 0. -1.
<mgrwt>
<rscale>  0 0.10002823E+04</rscale>
<asrwt>0</asrwt>
<pdfrwt beam="1">  1        2 0.20025104E+00 0.10002823E+04</pdfrwt>
<pdfrwt beam="2">  1       -2 0.29565397E-01 0.10002823E+04</pdfrwt>
<totfact> 0.20881827E+02</totfact>
</mgrwt>
</event>
<event>
 9    1  0.4296086E-036  0.1000236E+04  0.7818608E-02  0.8680813E-01
         -1   -1    0    0    0  501 -0.00000000000E+00  0.00000000000E+00  0.35141303463E+03  0.35141303463E+03  0.00000000000E+00 0. -1.
          1   -1    0    0  501    0  0.00000000000E+00 -0.00000000000E+00 -0.71174902575E+03  0.71174902575E+03  0.00000000000E+00 0. -1.
         36    2    1    2    0    0  0.00000000000E+00 -0.14210854715E-13 -0.36033599113E+03  0.10631620604E+04  0.10002357423E+04 0.  0.
         25    2    3    3    0    0  0.44632517854E+02  0.10054194242E+03  0.25818970696E+02  0.16880890144E+03  0.12541563747E+03 0.  0.
         35    2    3    3    0    0 -0.44632517854E+02 -0.10054194242E+03 -0.38615496182E+03  0.89435315894E+03  0.79915653944E+03 0.  0.
         22    1    5    5    0    0  0.32599253567E+03 -0.13451573936E+03 -0.38509575868E+03  0.52217273081E+03  0.00000000000E+00 0. -1.
         22    1    5    5    0    0 -0.37062505352E+03  0.33973796935E+02 -0.10592031436E+01  0.37218042814E+03  0.00000000000E+00 0. -1.
          5    1    4    4  502    0  0.31747425519E+02  0.32878812870E+02 -0.48885407897E+02  0.67087915961E+02  0.47000000000E+01 0.  1.
         -5    1    4    4    0  502  0.12885092335E+02  0.67663129553E+02  0.74704378593E+02  0.10172098548E+03  0.47000000000E+01 0.  1.
<mgrwt>
<rscale>  0 0.10002357E+04</rscale>
<asrwt>0</asrwt>
<pdfrwt beam="1">  1        1 0.10949985E+00 0.10002357E+04</pdfrwt>
<pdfrwt beam="2">  1       -1 0.54063544E-01 0.10002357E+04</pdfrwt>
<totfact> 0.10540003E+02</totfact>
</mgrwt>
</event>
<event>
 9    1  0.4296086E-036  0.9985205E+03  0.7818608E-02  0.8682448E-01
          2   -1    0    0  501    0  0.00000000000E+00  0.00000000000E+00  0.16681213209E+04  0.16681213209E+04  0.00000000000E+00 0.  1.
         -2   -1    0    0    0  501 -0.00000000000E+00 -0.00000000000E+00 -0.14942605713E+03  0.14942605713E+03  0.00000000000E+00 0.  1.
         36    2    1    2    0    0  0.00000000000E+00  0.35527136788E-14  0.15186952638E+04  0.18175473781E+04  0.99852048914E+03 0.  0.
         25    2    3    3    0    0 -0.13628917971E+03  0.40995400233E+00  0.27551317102E+03  0.33272082204E+03  0.12736062754E+03 0.  0.
         35    2    3    3    0    0  0.13628917971E+03 -0.40995400233E+00  0.12431820928E+04  0.14848265560E+04  0.80039570032E+03 0.  0.
         22    1    5    5    0    0  0.34065958983E+03 -0.28318664082E+02  0.12316835180E+04  0.12782390979E+04  0.00000000000E+00 0. -1.
         22    1    5    5    0    0 -0.20437041013E+03  0.27908710079E+02  0.11498574783E+02  0.20658745813E+03  0.00000000000E+00 0. -1.
          5    1    4    4  502    0 -0.15754482137E+03 -0.15996600972E+02  0.24547242883E+03  0.29215589212E+03  0.47000000000E+01 0. -1.
         -5    1    4    4    0  502  0.21255641660E+02  0.16406554974E+02  0.30040742190E+02  0.40564929926E+02  0.47000000000E+01 0. -1.
<mgrwt>
<rscale>  0 0.99852049E+03</rscale>
<asrwt>0</asrwt>
<pdfrwt beam="1">  1        2 0.25663404E+00 0.99852049E+03</pdfrwt>
<pdfrwt beam="2">  1       -2 0.22988625E-01 0.99852049E+03</pdfrwt>
<totfact> 0.20255973E+02</totfact>
</mgrwt>
</event>
<event>
 9    1  0.4296086E-036  0.9999209E+03  0.7818608E-02  0.8681113E-01
          2   -1    0    0  501    0  0.00000000000E+00  0.00000000000E+00  0.90893594154E+03  0.90893594154E+03  0.00000000000E+00 0. -1.
         -2   -1    0    0    0  501 -0.00000000000E+00 -0.00000000000E+00 -0.27500335171E+03  0.27500335171E+03  0.00000000000E+00 0. -1.
         36    2    1    2    0    0  0.00000000000E+00  0.00000000000E+00  0.63393258984E+03  0.11839392932E+04  0.99992085769E+03 0.  0.
         25    2    3    3    0    0 -0.11141788904E+03  0.37486131887E+02  0.20077410667E+03  0.26462570687E+03  0.12608476017E+03 0.  0.
         35    2    3    3    0    0  0.11141788904E+03 -0.37486131887E+02  0.43315848317E+03  0.91931358638E+03  0.80230420819E+03 0.  0.
         22    1    5    5    0    0  0.42123989790E+02 -0.49219372692E+02 -0.23689031457E+03  0.24558908425E+03  0.00000000000E+00 0.  1.
         22    1    5    5    0    0  0.69293899246E+02  0.11733240804E+02  0.67004879774E+03  0.67372450213E+03  0.00000000000E+00 0.  1.
          5    1    4    4  502    0 -0.13769155138E+03  0.44410254735E+02  0.17111793385E+03  0.22413092454E+03  0.47000000000E+01 0.  1.
         -5    1    4    4    0  502  0.26273662345E+02 -0.69241228479E+01  0.29656172812E+02  0.40494782332E+02  0.47000000000E+01 0.  1.
<mgrwt>
<rscale>  0 0.99992086E+03</rscale>
<asrwt>0</asrwt>
<pdfrwt beam="1">  1        2 0.13983630E+00 0.99992086E+03</pdfrwt>
<pdfrwt beam="2">  1       -2 0.42308208E-01 0.99992086E+03</pdfrwt>
<totfact> 0.18522932E+02</totfact>
</mgrwt>
</event>
<event>
 9    1  0.4296086E-036  0.9949926E+03  0.7818608E-02  0.8685821E-01
         -1   -1    0    0    0  501 -0.00000000000E+00  0.00000000000E+00  0.25716968170E+03  0.25716968170E+03  0.00000000000E+00 0. -1.
          1   -1    0    0  501    0  0.00000000000E+00 -0.00000000000E+00 -0.96240952701E+03  0.96240952701E+03  0.00000000000E+00 0. -1.
         36    2    1    2    0    0 -0.14210854715E-13  0.00000000000E+00 -0.70523984531E+03  0.12195792087E+04  0.99499256626E+03 0.  0.
         25    2    3    3    0    0  0.70129706041E+02 -0.75558627396E+01  0.11161854496E+02  0.14448177398E+03  0.12559908155E+03 0.  0.
         35    2    3    3    0    0 -0.70129706041E+02  0.75558627396E+01 -0.71640169980E+03  0.10750974347E+04  0.79851601859E+03 0.  0.
         22    1    5    5    0    0  0.75503275753E+02 -0.36523215759E+03 -0.48829374782E+03  0.61443149150E+03  0.00000000000E+00 0.  1.
         22    1    5    5    0    0 -0.14563298179E+03  0.37278802033E+03 -0.22810795198E+03  0.46066594322E+03  0.00000000000E+00 0.  1.
          5    1    4    4  502    0  0.70191156532E+02  0.10554269077E+02  0.59442722546E+02  0.92702310191E+02  0.47000000000E+01 0. -1.
         -5    1    4    4    0  502 -0.61450490609E-01 -0.18110131817E+02 -0.48280868051E+02  0.51779463789E+02  0.47000000000E+01 0. -1.
<mgrwt>
<rscale>  0 0.99499257E+03</rscale>
<asrwt>0</asrwt>
<pdfrwt beam="1">  1        1 0.14806300E+00 0.99499257E+03</pdfrwt>
<pdfrwt beam="2">  1       -1 0.39564567E-01 0.99499257E+03</pdfrwt>
<totfact> 0.11301739E+02</totfact>
</mgrwt>
</event>
<event>
 9    1  0.4296086E-036  0.1000963E+04  0.7818608E-02  0.8680122E-01
          1   -1    0    0  501    0  0.00000000000E+00  0.00000000000E+00  0.10891390167E+04  0.10891390167E+04  0.00000000000E+00 0.  1.
         -1   -1    0    0    0  501 -0.00000000000E+00 -0.00000000000E+00 -0.22998126124E+03  0.22998126124E+03  0.00000000000E+00 0.  1.
         36    2    1    2    0    0  0.71054273576E-14  0.00000000000E+00  0.85915775541E+03  0.13191202779E+04  0.10009626661E+04 0.  0.
         25    2    3    3    0    0  0.18628880258E+01 -0.11209807184E+03  0.27374174379E+03  0.32141918546E+03  0.12572311810E+03 0.  0.
         35    2    3    3    0    0 -0.18628880258E+01  0.11209807184E+03  0.58541601163E+03  0.99770109244E+03  0.80007881807E+03 0.  0.
         22    1    5    5    0    0 -0.33503525665E+03  0.67660554151E+02  0.23092765296E+02  0.34257823865E+03  0.00000000000E+00 0. -1.
         22    1    5    5    0    0  0.33317236863E+03  0.44437517694E+02  0.56232324633E+03  0.65512285379E+03  0.00000000000E+00 0. -1.
          5    1    4    4  502    0 -0.44875464845E+02 -0.54398489920E+00  0.52468822137E+02  0.69203833428E+02  0.47000000000E+01 0.  1.
         -5    1    4    4    0  502  0.46738352871E+02 -0.11155408695E+03  0.22127292165E+03  0.25221535203E+03  0.47000000000E+01 0.  1.
<mgrwt>
<rscale>  0 0.10009627E+04</rscale>
<asrwt>0</asrwt>
<pdfrwt beam="1">  1        1 0.16755984E+00 0.10009627E+04</pdfrwt>
<pdfrwt beam="2">  1       -1 0.35381733E-01 0.10009627E+04</pdfrwt>
<totfact> 0.10930078E+02</totfact>
</mgrwt>
</event>
<event>
 9    1  0.4296086E-036  0.9992722E+03  0.7818608E-02  0.8681731E-01
          2   -1    0    0  501    0  0.00000000000E+00  0.00000000000E+00  0.20945086400E+04  0.20945086400E+04  0.00000000000E+00 0.  1.
         -2   -1    0    0    0  501 -0.00000000000E+00 -0.00000000000E+00 -0.11918606351E+03  0.11918606351E+03  0.00000000000E+00 0.  1.
         36    2    1    2    0    0  0.14210854715E-13  0.00000000000E+00  0.19753225765E+04  0.22136947035E+04  0.99927221475E+03 0.  0.
         25    2    3    3    0    0  0.85715727997E+02 -0.30409983890E+02  0.61552472330E+03  0.63538007143E+03  0.12870585472E+03 0.  0.
         35    2    3    3    0    0 -0.85715727997E+02  0.30409983890E+02  0.13597978532E+04  0.15783146321E+04  0.79608725849E+03 0.  0.
         22    1    5    5    0    0  0.14006205044E+03  0.23259419521E+03  0.11109634341E+03  0.29335956630E+03  0.00000000000E+00 0.  1.
         22    1    5    5    0    0 -0.22577777844E+03 -0.20218421132E+03  0.12487015098E+04  0.12849550658E+04  0.00000000000E+00 0.  1.
          5    1    4    4  502    0  0.89464457147E+01  0.42010189371E+02  0.96778630111E+02  0.10598626396E+03  0.47000000000E+01 0. -1.
         -5    1    4    4    0  502  0.76769282282E+02 -0.72420173261E+02  0.51874609318E+03  0.52939380747E+03  0.47000000000E+01 0. -1.
<mgrwt>
<rscale>  0 0.99927221E+03</rscale>
<asrwt>0</asrwt>
<pdfrwt beam="1">  1        2 0.32223207E+00 0.99927221E+03</pdfrwt>
<pdfrwt beam="2">  1       -2 0.18336319E-01 0.99927221E+03</pdfrwt>
<totfact> 0.17189152E+02</totfact>
</mgrwt>
</event>
<event>
 9    1  0.4296086E-036  0.1000003E+04  0.7818608E-02  0.8681035E-01
          2   -1    0    0  501    0  0.00000000000E+00  0.00000000000E+00  0.13005244100E+04  0.13005244100E+04  0.00000000000E+00 0. -1.
         -2   -1    0    0    0  501 -0.00000000000E+00 -0.00000000000E+00 -0.19223131522E+03  0.19223131522E+03  0.00000000000E+00 0. -1.
         36    2    1    2    0    0  0.00000000000E+00  0.14210854715E-13  0.11082930947E+04  0.14927557252E+04  0.10000030356E+04 0.  0.
         25    2    3    3    0    0 -0.88524109928E+02  0.84785268423E+02  0.10789183190E+03  0.20751365812E+03  0.12804769087E+03 0.  0.
         35    2    3    3    0    0  0.88524109928E+02 -0.84785268423E+02  0.10004012628E+04  0.12852420671E+04  0.79750825981E+03 0.  0.
         22    1    5    5    0    0 -0.32296757579E+03  0.85408552299E+02  0.59836347411E+03  0.68530396392E+03  0.00000000000E+00 0.  1.
         22    1    5    5    0    0  0.41149168572E+03 -0.17019382072E+03  0.40203778873E+03  0.59993810314E+03  0.00000000000E+00 0.  1.
          5    1    4    4  502    0 -0.88728639863E+02  0.99122540665E+02  0.12644523728E+03  0.18359884975E+03  0.47000000000E+01 0.  1.
         -5    1    4    4    0  502  0.20452993405E+00 -0.14337272242E+02 -0.18553405388E+02  0.23914808369E+02  0.47000000000E+01 0.  1.
<mgrwt>
<rscale>  0 0.10000030E+04</rscale>
<asrwt>0</asrwt>
<pdfrwt beam="1">  1        2 0.20008067E+00 0.10000030E+04</pdfrwt>
<pdfrwt beam="2">  1       -2 0.29574049E-01 0.10000030E+04</pdfrwt>
<totfact> 0.20901625E+02</totfact>
</mgrwt>
</event>
<event>
 9    1  0.4296086E-036  0.1000122E+04  0.7818608E-02  0.8680922E-01
         -1   -1    0    0    0  501 -0.00000000000E+00  0.00000000000E+00  0.22501055414E+03  0.22501055414E+03  0.00000000000E+00 0. -1.
          1   -1    0    0  501    0  0.00000000000E+00 -0.00000000000E+00 -0.11113301813E+04  0.11113301813E+04  0.00000000000E+00 0. -1.
         36    2    1    2    0    0 -0.14210854715E-13  0.10658141036E-13 -0.88631962711E+03  0.13363407354E+04  0.10001220324E+04 0.  0.
         25    2    3    3    0    0 -0.11601201460E+03 -0.15029065379E+02 -0.62632046326E+02  0.18187389424E+03  0.12438118765E+03 0.  0.
         35    2    3    3    0    0  0.11601201460E+03  0.15029065379E+02 -0.82368758078E+03  0.11544668412E+04  0.80040477027E+03 0.  0.
         22    1    5    5    0    0  0.17547074252E+03  0.34986168131E+03 -0.18951317399E+03  0.43486598010E+03  0.00000000000E+00 0.  1.
         22    1    5    5    0    0 -0.59458727923E+02 -0.33483261593E+03 -0.63417440679E+03  0.71960086106E+03  0.00000000000E+00 0.  1.
          5    1    4    4  502    0 -0.11611033976E+03  0.43577622087E+01 -0.15273099406E+00  0.11628720659E+03  0.47000000000E+01 0.  1.
         -5    1    4    4    0  502  0.98325159438E-01 -0.19386827588E+02 -0.62479315332E+02  0.65586687644E+02  0.47000000000E+01 0.  1.
<mgrwt>
<rscale>  0 0.10001220E+04</rscale>
<asrwt>0</asrwt>
<pdfrwt beam="1">  1        1 0.17097388E+00 0.10001220E+04</pdfrwt>
<pdfrwt beam="2">  1       -1 0.34617008E-01 0.10001220E+04</pdfrwt>
<totfact> 0.10919063E+02</totfact>
</mgrwt>
</event>
<event>
 9    1  0.4296086E-036  0.1002147E+04  0.7818608E-02  0.8678996E-01
          2   -1    0    0  501    0  0.00000000000E+00  0.00000000000E+00  0.54178519962E+03  0.54178519962E+03  0.00000000000E+00 0. -1.
         -2   -1    0    0    0  501 -0.00000000000E+00 -0.00000000000E+00 -0.46342111481E+03  0.46342111481E+03  0.00000000000E+00 0. -1.
         36    2    1    2    0    0  0.00000000000E+00 -0.14210854715E-13  0.78364084816E+02  0.10052063144E+04  0.10021470974E+04 0.  0.
         25    2    3    3    0    0  0.11238895241E+03  0.58063368382E+02 -0.50256910017E+02  0.18425718731E+03  0.12418664460E+03 0.  0.
         35    2    3    3    0    0 -0.11238895241E+03 -0.58063368382E+02  0.12862099483E+03  0.82094912712E+03  0.80088168766E+03 0.  0.
         22    1    5    5    0    0  0.25896702130E+03  0.18394389056E+03  0.19504238036E+03  0.37274764001E+03  0.00000000000E+00 0. -1.
         22    1    5    5    0    0 -0.37135597372E+03 -0.24200725894E+03 -0.66421385528E+02  0.44820148711E+03  0.00000000000E+00 0. -1.
          5    1    4    4  502    0  0.31116980010E+02  0.85684605727E+02 -0.24369594060E+02  0.94477961547E+02  0.47000000000E+01 0.  1.
         -5    1    4    4    0  502  0.81271972404E+02 -0.27621237345E+02 -0.25887315957E+02  0.89779225762E+02  0.47000000000E+01 0.  1.
<mgrwt>
<rscale>  0 0.10021471E+04</rscale>
<asrwt>0</asrwt>
<pdfrwt beam="1">  1        2 0.83351569E-01 0.10021471E+04</pdfrwt>
<pdfrwt beam="2">  1       -2 0.71295556E-01 0.10021471E+04</pdfrwt>
<totfact> 0.12102044E+02</totfact>
</mgrwt>
</event>
<event>
 9    1  0.4296086E-036  0.1000014E+04  0.7818608E-02  0.8681024E-01
          1   -1    0    0  501    0  0.00000000000E+00  0.00000000000E+00  0.13477060207E+04  0.13477060207E+04  0.00000000000E+00 0.  1.
         -1   -1    0    0    0  501 -0.00000000000E+00 -0.00000000000E+00 -0.18550569824E+03  0.18550569824E+03  0.00000000000E+00 0.  1.
         36    2    1    2    0    0 -0.14210854715E-13  0.00000000000E+00  0.11622003224E+04  0.15332117189E+04  0.10000142927E+04 0.  0.
         25    2    3    3    0    0 -0.94081920672E+02  0.90651121897E+02  0.13722646750E+03  0.22582372119E+03  0.12286665930E+03 0.  0.
         35    2    3    3    0    0  0.94081920672E+02 -0.90651121897E+02  0.10249738549E+04  0.13073879977E+04  0.80101369501E+03 0.  0.
         22    1    5    5    0    0  0.78115764161E+02  0.35360265354E+02  0.11356699255E+04  0.11389023666E+04  0.00000000000E+00 0. -1.
         22    1    5    5    0    0  0.15966156510E+02 -0.12601138725E+03 -0.11069607054E+03  0.16848563115E+03  0.00000000000E+00 0. -1.
          5    1    4    4  502    0  0.12900042401E+02  0.52555625804E+02  0.84681751910E+02  0.10060613303E+03  0.47000000000E+01 0.  1.
         -5    1    4    4    0  502 -0.10698196307E+03  0.38095496092E+02  0.52544715595E+02  0.12521758815E+03  0.47000000000E+01 0.  1.
<mgrwt>
<rscale>  0 0.10000143E+04</rscale>
<asrwt>0</asrwt>
<pdfrwt beam="1">  1        1 0.20733938E+00 0.10000143E+04</pdfrwt>
<pdfrwt beam="2">  1       -1 0.28539339E-01 0.10000143E+04</pdfrwt>
<totfact> 0.10161821E+02</totfact>
</mgrwt>
</event>
<event>
 9    1  0.4296086E-036  0.9995068E+03  0.7818608E-02  0.8681508E-01
         -1   -1    0    0    0  501 -0.00000000000E+00  0.00000000000E+00  0.39139244324E+03  0.39139244324E+03  0.00000000000E+00 0. -1.
          1   -1    0    0  501    0  0.00000000000E+00 -0.00000000000E+00 -0.63811519641E+03  0.63811519641E+03  0.00000000000E+00 0. -1.
         36    2    1    2    0    0 -0.21316282073E-13  0.00000000000E+00 -0.24672275317E+03  0.10295076397E+04  0.99950680997E+03 0.  0.
         25    2    3    3    0    0  0.41708760548E+02  0.41031081202E+02 -0.17578090077E+03  0.22355166893E+03  0.12511296207E+03 0.  0.
         35    2    3    3    0    0 -0.41708760548E+02 -0.41031081202E+02 -0.70941852403E+02  0.80595597072E+03  0.80069289368E+03 0.  0.
         22    1    5    5    0    0  0.29542885881E+03  0.11511099035E+03 -0.24010548953E+03  0.39771773511E+03  0.00000000000E+00 0. -1.
         22    1    5    5    0    0 -0.33713761936E+03 -0.15614207155E+03  0.16916363713E+03  0.40823823562E+03  0.00000000000E+00 0. -1.
          5    1    4    4  502    0 -0.64336259843E+01  0.36399572330E+02 -0.17067109614E+03  0.17469125184E+03  0.47000000000E+01 0. -1.
         -5    1    4    4    0  502  0.48142386532E+02  0.46315088720E+01 -0.51098046211E+01  0.48860417095E+02  0.47000000000E+01 0. -1.
<mgrwt>
<rscale>  0 0.99950681E+03</rscale>
<asrwt>0</asrwt>
<pdfrwt beam="1">  1        1 0.98171568E-01 0.99950681E+03</pdfrwt>
<pdfrwt beam="2">  1       -1 0.60214222E-01 0.99950681E+03</pdfrwt>
<totfact> 0.10137070E+02</totfact>
</mgrwt>
</event>
<event>
 9    1  0.4296086E-036  0.9995384E+03  0.7818608E-02  0.8681478E-01
          2   -1    0    0  501    0  0.00000000000E+00  0.00000000000E+00  0.10490053695E+04  0.10490053695E+04  0.00000000000E+00 0.  1.
         -2   -1    0    0    0  501 -0.00000000000E+00 -0.00000000000E+00 -0.23810103444E+03  0.23810103444E+03  0.00000000000E+00 0.  1.
         36    2    1    2    0    0 -0.28421709430E-13  0.00000000000E+00  0.81090433503E+03  0.12871064039E+04  0.99953842069E+03 0.  0.
         25    2    3    3    0    0 -0.81209342330E+02 -0.70816827233E+02  0.25517995021E+03  0.30404005907E+03  0.12535378026E+03 0.  0.
         35    2    3    3    0    0  0.81209342330E+02  0.70816827233E+02  0.55572438481E+03  0.98306634485E+03  0.80372872675E+03 0.  0.
         22    1    5    5    0    0 -0.90246508728E+02 -0.34671866648E+03  0.21858882150E+03  0.41968957446E+03  0.00000000000E+00 0.  1.
         22    1    5    5    0    0  0.17145585106E+03  0.41753549371E+03  0.33713556331E+03  0.56337677039E+03  0.00000000000E+00 0.  1.
          5    1    4    4  502    0 -0.42884730075E+02 -0.95416970754E+02  0.11026718132E+03  0.15206722085E+03  0.47000000000E+01 0. -1.
         -5    1    4    4    0  502 -0.38324612256E+02  0.24600143521E+02  0.14491276890E+03  0.15197283822E+03  0.47000000000E+01 0. -1.
<mgrwt>
<rscale>  0 0.99953842E+03</rscale>
<asrwt>0</asrwt>
<pdfrwt beam="1">  1        2 0.16138544E+00 0.99953842E+03</pdfrwt>
<pdfrwt beam="2">  1       -2 0.36630929E-01 0.99953842E+03</pdfrwt>
<totfact> 0.19871243E+02</totfact>
</mgrwt>
</event>
<event>
 9    1  0.4296086E-036  0.1000305E+04  0.7818608E-02  0.8680748E-01
         -1   -1    0    0    0  501 -0.00000000000E+00  0.00000000000E+00  0.23523982755E+03  0.23523982755E+03  0.00000000000E+00 0. -1.
          1   -1    0    0  501    0  0.00000000000E+00 -0.00000000000E+00 -0.10633932730E+04  0.10633932730E+04  0.00000000000E+00 0. -1.
         36    2    1    2    0    0 -0.17763568394E-13 -0.14210854715E-13 -0.82815344541E+03  0.12986331005E+04  0.10003048538E+04 0.  0.
         25    2    3    3    0    0  0.30256539735E+02  0.11643746266E+03 -0.24309951854E+03  0.29914539870E+03  0.12616438777E+03 0.  0.
         35    2    3    3    0    0 -0.30256539735E+02 -0.11643746266E+03 -0.58505392687E+03  0.99948770181E+03  0.80138282227E+03 0.  0.
         22    1    5    5    0    0  0.24317275158E+03  0.23436963832E+03 -0.12645758594E+03  0.36062949896E+03  0.00000000000E+00 0.  1.
         22    1    5    5    0    0 -0.27342929132E+03 -0.35080710098E+03 -0.45859634093E+03  0.63885820286E+03  0.00000000000E+00 0.  1.
          5    1    4    4  502    0  0.51351765446E+01 -0.21256580324E+02 -0.85205547069E+02  0.88092493985E+02  0.47000000000E+01 0. -1.
         -5    1    4    4    0  502  0.25121363191E+02  0.13769404298E+03 -0.15789397147E+03  0.21105290472E+03  0.47000000000E+01 0. -1.
<mgrwt>
<rscale>  0 0.10003049E+04</rscale>
<asrwt>0</asrwt>
<pdfrwt beam="1">  1        1 0.16359897E+00 0.10003049E+04</pdfrwt>
<pdfrwt beam="2">  1       -1 0.36190742E-01 0.10003049E+04</pdfrwt>
<totfact> 0.10999691E+02</totfact>
</mgrwt>
</event>
<event>
 9    1  0.4296086E-036  0.1002223E+04  0.7818608E-02  0.8678924E-01
          1   -1    0    0  501    0  0.00000000000E+00  0.00000000000E+00  0.19630706841E+04  0.19630706841E+04  0.00000000000E+00 0. -1.
         -1   -1    0    0    0  501 -0.00000000000E+00 -0.00000000000E+00 -0.12791835094E+03  0.12791835094E+03  0.00000000000E+00 0. -1.
         36    2    1    2    0    0 -0.28421709430E-13  0.00000000000E+00  0.18351523332E+04  0.20909890351E+04  0.10022230584E+04 0.  0.
         25    2    3    3    0    0 -0.13596888833E+03 -0.24382691117E+02  0.41679363744E+03  0.45664575019E+03  0.12540474770E+03 0.  0.
         35    2    3    3    0    0  0.13596888833E+03  0.24382691117E+02  0.14183586957E+04  0.16343432849E+04  0.80015906468E+03 0.  0.
         22    1    5    5    0    0  0.59159129588E+02  0.17271536073E+03 -0.22398660892E+02  0.18393503868E+03  0.00000000000E+00 0.  1.
         22    1    5    5    0    0  0.76809758738E+02 -0.14833266961E+03  0.14407573566E+04  0.14504082462E+04  0.00000000000E+00 0.  1.
          5    1    4    4  502    0 -0.54512063762E+02 -0.86878876411E+01  0.33674160831E+03  0.34126828926E+03  0.47000000000E+01 0.  1.
         -5    1    4    4    0  502 -0.81456824564E+02 -0.15694803476E+02  0.80052029122E+02  0.11537746093E+03  0.47000000000E+01 0.  1.
<mgrwt>
<rscale>  0 0.10022231E+04</rscale>
<asrwt>0</asrwt>
<pdfrwt beam="1">  1        1 0.30201085E+00 0.10022231E+04</pdfrwt>
<pdfrwt beam="2">  1       -1 0.19679748E-01 0.10022231E+04</pdfrwt>
<totfact> 0.69422984E+01</totfact>
</mgrwt>
</event>
<event>
 9    1  0.4296086E-036  0.9995655E+03  0.7818608E-02  0.8681452E-01
          2   -1    0    0  501    0  0.00000000000E+00  0.00000000000E+00  0.15591507094E+04  0.15591507094E+04  0.00000000000E+00 0.  1.
         -2   -1    0    0    0  501 -0.00000000000E+00 -0.00000000000E+00 -0.16020441029E+03  0.16020441029E+03  0.00000000000E+00 0.  1.
         36    2    1    2    0    0  0.00000000000E+00  0.17763568394E-13  0.13989462991E+04  0.17193551197E+04  0.99956554553E+03 0.  0.
         25    2    3    3    0    0  0.76256352836E+02 -0.22759529842E+02  0.45949239580E+03  0.48296616494E+03  0.12565837469E+03 0.  0.
         35    2    3    3    0    0 -0.76256352836E+02  0.22759529842E+02  0.93945390331E+03  0.12363889548E+04  0.79984434951E+03 0.  0.
         22    1    5    5    0    0 -0.30078619226E+02  0.26749999708E+03  0.94970698900E+03  0.98711921100E+03  0.00000000000E+00 0. -1.
         22    1    5    5    0    0 -0.46177733610E+02 -0.24474046723E+03 -0.10253085691E+02  0.24926974375E+03  0.00000000000E+00 0. -1.
          5    1    4    4  502    0 -0.32816746327E+02 -0.21552154812E+02  0.12529941756E+03  0.13139051814E+03  0.47000000000E+01 0.  1.
         -5    1    4    4    0  502  0.10907309916E+03 -0.12073750302E+01  0.33419297824E+03  0.35157564680E+03  0.47000000000E+01 0.  1.
<mgrwt>
<rscale>  0 0.99956555E+03</rscale>
<asrwt>0</asrwt>
<pdfrwt beam="1">  1        2 0.23986933E+00 0.99956555E+03</pdfrwt>
<pdfrwt beam="2">  1       -2 0.24646833E-01 0.99956555E+03</pdfrwt>
<totfact> 0.20636733E+02</totfact>
</mgrwt>
</event>
<event>
 9    1  0.4296086E-036  0.9998041E+03  0.7818608E-02  0.8681225E-01
         -1   -1    0    0    0  501 -0.00000000000E+00  0.00000000000E+00  0.34546034902E+03  0.34546034902E+03  0.00000000000E+00 0.  1.
          1   -1    0    0  501    0  0.00000000000E+00 -0.00000000000E+00 -0.72338847718E+03  0.72338847718E+03  0.00000000000E+00 0.  1.
         36    2    1    2    0    0  0.00000000000E+00 -0.71054273576E-14 -0.37792812816E+03  0.10688488262E+04  0.99980405240E+03 0.  0.
         25    2    3    3    0    0  0.94090824280E+02 -0.80985337897E+00 -0.18223569607E+03  0.24004785957E+03  0.12473727144E+03 0.  0.
         35    2    3    3    0    0 -0.94090824280E+02  0.80985337897E+00 -0.19569243209E+03  0.82880096662E+03  0.79985109565E+03 0.  0.
         22    1    5    5    0    0 -0.39892193053E+03 -0.12491775726E+03  0.45172174304E+02  0.42045651150E+03  0.00000000000E+00 0. -1.
         22    1    5    5    0    0  0.30483110625E+03  0.12572761064E+03 -0.24086460639E+03  0.40834445512E+03  0.00000000000E+00 0. -1.
          5    1    4    4  502    0  0.46344747091E+02  0.58555535983E+02 -0.59872402232E+02  0.95829958396E+02  0.47000000000E+01 0. -1.
         -5    1    4    4    0  502  0.47746077188E+02 -0.59365389362E+02 -0.12236329384E+03  0.14421790118E+03  0.47000000000E+01 0. -1.
<mgrwt>
<rscale>  0 0.99980405E+03</rscale>
<asrwt>0</asrwt>
<pdfrwt beam="1">  1        1 0.11129053E+00 0.99980405E+03</pdfrwt>
<pdfrwt beam="2">  1       -1 0.53147746E-01 0.99980405E+03</pdfrwt>
<totfact> 0.10612850E+02</totfact>
</mgrwt>
</event>
<event>
 9    1  0.4296086E-036  0.9995693E+03  0.7818608E-02  0.8681448E-01
          2   -1    0    0  501    0  0.00000000000E+00  0.00000000000E+00  0.47025275038E+03  0.47025275038E+03  0.00000000000E+00 0. -1.
         -2   -1    0    0    0  501 -0.00000000000E+00 -0.00000000000E+00 -0.53117114959E+03  0.53117114959E+03  0.00000000000E+00 0. -1.
         36    2    1    2    0    0  0.00000000000E+00 -0.71054273576E-14 -0.60918399212E+02  0.10014239000E+04  0.99956929528E+03 0.  0.
         25    2    3    3    0    0  0.68036204526E+02  0.59519663771E+01 -0.12435157196E+03  0.18884774437E+03  0.12464271368E+03 0.  0.
         35    2    3    3    0    0 -0.68036204526E+02 -0.59519663771E+01  0.63433172752E+02  0.81257615560E+03  0.80721241951E+03 0.  0.
         22    1    5    5    0    0  0.65461874647E+02  0.26071077988E+03 -0.25907100158E+03  0.37332713756E+03  0.00000000000E+00 0. -1.
         22    1    5    5    0    0 -0.13349807917E+03 -0.26666274626E+03  0.32250417434E+03  0.43924901804E+03  0.00000000000E+00 0. -1.
          5    1    4    4  502    0  0.49763026040E+02 -0.17811094944E+02 -0.14348073022E+03  0.15297844230E+03  0.47000000000E+01 0.  1.
         -5    1    4    4    0  502  0.18273178485E+02  0.23763061321E+02  0.19129158257E+02  0.35869302069E+02  0.47000000000E+01 0.  1.
<mgrwt>
<rscale>  0 0.99956930E+03</rscale>
<asrwt>0</asrwt>
<pdfrwt beam="1">  1        2 0.72346577E-01 0.99956930E+03</pdfrwt>
<pdfrwt beam="2">  1       -2 0.81718639E-01 0.99956930E+03</pdfrwt>
<totfact> 0.10480293E+02</totfact>
</mgrwt>
</event>
<event>
 9    1 -0.4296086E-036  0.1001271E+04  0.7818608E-02  0.8679828E-01
         -1   -1    0    0    0  501 -0.00000000000E+00  0.00000000000E+00  0.32833643363E+04  0.32833643363E+04  0.00000000000E+00 0.  1.
          1   -1    0    0  501    0  0.00000000000E+00 -0.00000000000E+00 -0.76335100310E+02  0.76335100310E+02  0.00000000000E+00 0.  1.
         36    2    1    2    0    0  0.00000000000E+00  0.28421709430E-13  0.32070292360E+04  0.33596994366E+04  0.10012710841E+04 0.  0.
         25    2    3    3    0    0  0.61347579709E+02 -0.95233002174E+02  0.90775302395E+03  0.92328175391E+03  0.12490313995E+03 0.  0.
         35    2    3    3    0    0 -0.61347579709E+02  0.95233002174E+02  0.22992762120E+04  0.24364176827E+04  0.79788919976E+03 0.  0.
         22    1    5    5    0    0 -0.29482944680E+02  0.16241403772E+03  0.32270825191E+02  0.16819325146E+03  0.00000000000E+00 0.  1.
         22    1    5    5    0    0 -0.31864635029E+02 -0.67181035549E+02  0.22670053869E+04  0.22682244313E+04  0.00000000000E+00 0.  1.
          5    1    4    4  502    0 -0.29368524740E+02 -0.90250447541E+01  0.75315864725E+02  0.81477181820E+02  0.47000000000E+01 0.  1.
         -5    1    4    4    0  502  0.90716104448E+02 -0.86207957420E+02  0.83243715923E+03  0.84180457209E+03  0.47000000000E+01 0.  1.
<mgrwt>
<rscale>  0 0.10012711E+04</rscale>
<asrwt>0</asrwt>
<pdfrwt beam="1">  1        1 0.11743864E-01 0.10012711E+04</pdfrwt>
<pdfrwt beam="2">  1       -1 0.50513287E+00 0.10012711E+04</pdfrwt>
<totfact>-0.29195915E+00</totfact>
</mgrwt>
</event>
<event>
 9    1  0.4296086E-036  0.1002096E+04  0.7818608E-02  0.8679044E-01
          1   -1    0    0  501    0  0.00000000000E+00  0.00000000000E+00  0.20332327421E+04  0.20332327421E+04  0.00000000000E+00 0.  1.
         -1   -1    0    0    0  501 -0.00000000000E+00 -0.00000000000E+00 -0.12347291274E+03  0.12347291274E+03  0.00000000000E+00 0.  1.
         36    2    1    2    0    0  0.00000000000E+00 -0.14210854715E-13  0.19097598293E+04  0.21567056548E+04  0.10020961410E+04 0.  0.
         25    2    3    3    0    0 -0.85254154380E+02  0.40415198984E+02  0.13265894228E+03  0.20516575647E+03  0.12487166817E+03 0.  0.
         35    2    3    3    0    0  0.85254154380E+02 -0.40415198984E+02  0.17771008870E+04  0.19515398983E+04  0.80094865809E+03 0.  0.
         22    1    5    5    0    0 -0.14093849064E+03 -0.22397886331E+03  0.15747978815E+04  0.15968777527E+04  0.00000000000E+00 0.  1.
         22    1    5    5    0    0  0.22619264502E+03  0.18356366432E+03  0.20230300555E+03  0.35466214568E+03  0.00000000000E+00 0.  1.
          5    1    4    4  502    0 -0.31859839251E+02 -0.43786619608E+02  0.64255151089E+02  0.84161344187E+02  0.47000000000E+01 0.  1.
         -5    1    4    4    0  502 -0.53394315129E+02  0.84201818592E+02  0.68403791191E+02  0.12100441228E+03  0.47000000000E+01 0.  1.
<mgrwt>
<rscale>  0 0.10020961E+04</rscale>
<asrwt>0</asrwt>
<pdfrwt beam="1">  1        1 0.31280501E+00 0.10020961E+04</pdfrwt>
<pdfrwt beam="2">  1       -1 0.18995834E-01 0.10020961E+04</pdfrwt>
<totfact> 0.65712067E+01</totfact>
</mgrwt>
</event>
<event>
 9    1  0.4296086E-036  0.1000020E+04  0.7818608E-02  0.8681019E-01
          2   -1    0    0  501    0  0.00000000000E+00  0.00000000000E+00  0.24058024202E+04  0.24058024202E+04  0.00000000000E+00 0. -1.
         -2   -1    0    0    0  501 -0.00000000000E+00 -0.00000000000E+00 -0.10391956436E+03  0.10391956436E+03  0.00000000000E+00 0. -1.
         36    2    1    2    0    0 -0.71054273576E-14  0.00000000000E+00  0.23018828559E+04  0.25097219846E+04  0.10000198787E+04 0.  0.
         25    2    3    3    0    0  0.21261735699E+02  0.33733834797E+02  0.78148643924E+03  0.79249154240E+03  0.12542630124E+03 0.  0.
         35    2    3    3    0    0 -0.21261735699E+02 -0.33733834797E+02  0.15203964166E+04  0.17172304422E+04  0.79729862341E+03 0.  0.
         22    1    5    5    0    0  0.32898780777E+03 -0.62596848059E+02  0.30822421688E+03  0.45514119889E+03  0.00000000000E+00 0.  1.
         22    1    5    5    0    0 -0.35024954347E+03  0.28863013262E+02  0.12121721997E+04  0.12620892433E+04  0.00000000000E+00 0.  1.
          5    1    4    4  502    0  0.28196015193E+02 -0.47859282883E+01  0.37179988595E+02  0.47141933926E+02  0.47000000000E+01 0.  1.
         -5    1    4    4    0  502 -0.69342794932E+01  0.38519763085E+02  0.74430645064E+03  0.74534960847E+03  0.47000000000E+01 0.  1.
<mgrwt>
<rscale>  0 0.10000199E+04</rscale>
<asrwt>0</asrwt>
<pdfrwt beam="1">  1        2 0.37012341E+00 0.10000199E+04</pdfrwt>
<pdfrwt beam="2">  1       -2 0.15987627E-01 0.10000199E+04</pdfrwt>
<totfact> 0.14259012E+02</totfact>
</mgrwt>
</event>
<event>
 9    1  0.4296086E-036  0.9997684E+03  0.7818608E-02  0.8681258E-01
          2   -1    0    0  501    0  0.00000000000E+00  0.00000000000E+00  0.58290444703E+03  0.58290444703E+03  0.00000000000E+00 0. -1.
         -2   -1    0    0    0  501 -0.00000000000E+00 -0.00000000000E+00 -0.42868816324E+03  0.42868816324E+03  0.00000000000E+00 0. -1.
         36    2    1    2    0    0  0.00000000000E+00  0.28421709430E-13  0.15421628379E+03  0.10115926103E+04  0.99976844667E+03 0.  0.
         25    2    3    3    0    0  0.33301499451E+02  0.13271347982E+03  0.56756902168E+02  0.19362593234E+03  0.12469081016E+03 0.  0.
         35    2    3    3    0    0 -0.33301499451E+02 -0.13271347982E+03  0.97459381623E+02  0.81796667792E+03  0.80053063497E+03 0.  0.
         22    1    5    5    0    0 -0.66686388122E+02 -0.23350737862E+03  0.41627705883E+03  0.48193294133E+03  0.00000000000E+00 0.  1.
         22    1    5    5    0    0  0.33384888671E+02  0.10079389880E+03 -0.31881767721E+03  0.33603373659E+03  0.00000000000E+00 0.  1.
          5    1    4    4  502    0  0.23344386053E+02 -0.50084467443E+01 -0.23514123617E+02  0.33838571312E+02  0.47000000000E+01 0.  1.
         -5    1    4    4    0  502  0.99571133987E+01  0.13772192657E+03  0.80271025784E+02  0.15978736103E+03  0.47000000000E+01 0.  1.
<mgrwt>
<rscale>  0 0.99976845E+03</rscale>
<asrwt>0</asrwt>
<pdfrwt beam="1">  1        2 0.89677607E-01 0.99976845E+03</pdfrwt>
<pdfrwt beam="2">  1       -2 0.65952025E-01 0.99976845E+03</pdfrwt>
<totfact> 0.13146823E+02</totfact>
</mgrwt>
</event>
<event>
 9    1  0.4296086E-036  0.9993913E+03  0.7818608E-02  0.8681618E-01
          2   -1    0    0  501    0  0.00000000000E+00  0.00000000000E+00  0.13242927063E+04  0.13242927063E+04  0.00000000000E+00 0. -1.
         -2   -1    0    0    0  501 -0.00000000000E+00 -0.00000000000E+00 -0.18855024839E+03  0.18855024839E+03  0.00000000000E+00 0. -1.
         36    2    1    2    0    0 -0.28421709430E-13  0.14210854715E-13  0.11357424579E+04  0.15128429547E+04  0.99939125212E+03 0.  0.
         25    2    3    3    0    0  0.72769560057E+02  0.10684697197E+03  0.11171093591E+03  0.20751499776E+03  0.11777714891E+03 0.  0.
         35    2    3    3    0    0 -0.72769560057E+02 -0.10684697197E+03  0.10240315220E+04  0.13053279569E+04  0.79907999147E+03 0.  0.
         22    1    5    5    0    0  0.28505195641E+03 -0.10048566582E+03  0.86015830706E+03  0.91171503228E+03  0.00000000000E+00 0. -1.
         22    1    5    5    0    0 -0.35782151646E+03 -0.63613061446E+01  0.16387321493E+03  0.39361292462E+03  0.00000000000E+00 0. -1.
          5    1    4    4  502    0 -0.13827414507E+02  0.31505412158E+02 -0.13799342850E+02  0.37367101176E+02  0.47000000000E+01 0.  1.
         -5    1    4    4    0  502  0.86596974564E+02  0.75341559810E+02  0.12551027876E+03  0.17014789659E+03  0.47000000000E+01 0.  1.
<mgrwt>
<rscale>  0 0.99939125E+03</rscale>
<asrwt>0</asrwt>
<pdfrwt beam="1">  1        2 0.20373733E+00 0.99939125E+03</pdfrwt>
<pdfrwt beam="2">  1       -2 0.29007731E-01 0.99939125E+03</pdfrwt>
<totfact> 0.20973450E+02</totfact>
</mgrwt>
</event>
<event>
 9    1  0.4296086E-036  0.9998537E+03  0.7818608E-02  0.8681177E-01
          2   -1    0    0  501    0  0.00000000000E+00  0.00000000000E+00  0.10441983449E+04  0.10441983449E+04  0.00000000000E+00 0.  1.
         -2   -1    0    0    0  501 -0.00000000000E+00 -0.00000000000E+00 -0.23934807685E+03  0.23934807685E+03  0.00000000000E+00 0.  1.
         36    2    1    2    0    0  0.00000000000E+00  0.35527136788E-14  0.80485026805E+03  0.12835464218E+04  0.99985372071E+03 0.  0.
         25    2    3    3    0    0  0.69052879031E+00 -0.45121972447E+01 -0.34354656345E+02  0.12481280169E+03  0.11990478013E+03 0.  0.
         35    2    3    3    0    0 -0.69052879031E+00  0.45121972447E+01  0.83920492440E+03  0.11587336201E+04  0.79898551951E+03 0.  0.
         22    1    5    5    0    0  0.32680588656E+03  0.27467600851E+02  0.74993939750E+03  0.81851429829E+03  0.00000000000E+00 0.  1.
         22    1    5    5    0    0 -0.32749641535E+03 -0.22955403606E+02  0.89265526900E+02  0.34021932178E+03  0.00000000000E+00 0.  1.
          5    1    4    4  502    0  0.72846333669E+01 -0.40301701504E+02  0.29826709987E+02  0.50882370779E+02  0.47000000000E+01 0. -1.
         -5    1    4    4    0  502 -0.65941045766E+01  0.35789504260E+02 -0.64181366332E+02  0.73930430910E+02  0.47000000000E+01 0. -1.
<mgrwt>
<rscale>  0 0.99985372E+03</rscale>
<asrwt>0</asrwt>
<pdfrwt beam="1">  1        2 0.16064590E+00 0.99985372E+03</pdfrwt>
<pdfrwt beam="2">  1       -2 0.36822781E-01 0.99985372E+03</pdfrwt>
<totfact> 0.19811683E+02</totfact>
</mgrwt>
</event>
<event>
 9    1  0.4296086E-036  0.9996394E+03  0.7818608E-02  0.8681381E-01
         -2   -1    0    0    0  501 -0.00000000000E+00  0.00000000000E+00  0.16969783134E+03  0.16969783134E+03  0.00000000000E+00 0. -1.
          2   -1    0    0  501    0  0.00000000000E+00 -0.00000000000E+00 -0.14721445476E+04  0.14721445476E+04  0.00000000000E+00 0. -1.
         36    2    1    2    0    0  0.00000000000E+00  0.00000000000E+00 -0.13024467163E+04  0.16418423789E+04  0.99963940929E+03 0.  0.
         25    2    3    3    0    0 -0.49275475191E+02 -0.76059038464E+02 -0.71114071635E+02  0.17057028439E+03  0.12579332631E+03 0.  0.
         35    2    3    3    0    0  0.49275475191E+02  0.76059038464E+02 -0.12313326446E+04  0.14712720946E+04  0.80015526288E+03 0.  0.
         22    1    5    5    0    0 -0.10854224615E+03 -0.12513141294E+03 -0.12026058320E+04  0.12139604923E+04  0.00000000000E+00 0. -1.
         22    1    5    5    0    0  0.15781772134E+03  0.20119045140E+03 -0.28726812649E+02  0.25731160228E+03  0.00000000000E+00 0. -1.
          5    1    4    4  502    0 -0.23130787769E+02  0.33987197298E+02 -0.24901809476E+02  0.48294441069E+02  0.47000000000E+01 0.  1.
         -5    1    4    4    0  502 -0.26144687422E+02 -0.11004623576E+03 -0.46212262158E+02  0.12227584332E+03  0.47000000000E+01 0.  1.
<mgrwt>
<rscale>  0 0.99963941E+03</rscale>
<asrwt>0</asrwt>
<pdfrwt beam="1">  1        2 0.22648378E+00 0.99963941E+03</pdfrwt>
<pdfrwt beam="2">  1       -2 0.26107358E-01 0.99963941E+03</pdfrwt>
<totfact> 0.20865518E+02</totfact>
</mgrwt>
</event>
<event>
 9    1  0.4296086E-036  0.9989711E+03  0.7818608E-02  0.8682018E-01
         -1   -1    0    0    0  501 -0.00000000000E+00  0.00000000000E+00  0.50317956944E+03  0.50317956944E+03  0.00000000000E+00 0.  1.
          1   -1    0    0  501    0  0.00000000000E+00 -0.00000000000E+00 -0.49581865132E+03  0.49581865132E+03  0.00000000000E+00 0.  1.
         36    2    1    2    0    0  0.00000000000E+00  0.14210854715E-13  0.73609181252E+01  0.99899822076E+03  0.99897110167E+03 0.  0.
         25    2    3    3    0    0 -0.79617992997E+01 -0.19907871537E+01  0.13971442436E+03  0.18831795776E+03  0.12600071174E+03 0.  0.
         35    2    3    3    0    0  0.79617992997E+01  0.19907871537E+01 -0.13235350623E+03  0.81068026300E+03  0.79976101726E+03 0.  0.
         22    1    5    5    0    0  0.78778835595E+02 -0.33257081365E+03  0.14412770507E+03  0.37092080880E+03  0.00000000000E+00 0.  1.
         22    1    5    5    0    0 -0.70817036295E+02  0.33456160080E+03 -0.27648121130E+03  0.43975945421E+03  0.00000000000E+00 0.  1.
          5    1    4    4  502    0 -0.50913592622E+02  0.38707869189E+02  0.52801398558E+02  0.83069674013E+02  0.47000000000E+01 0. -1.
         -5    1    4    4    0  502  0.42951793322E+02 -0.40698656343E+02  0.86913025798E+02  0.10524828374E+03  0.47000000000E+01 0. -1.
<mgrwt>
<rscale>  0 0.99897110E+03</rscale>
<asrwt>0</asrwt>
<pdfrwt beam="1">  1        1 0.76279792E-01 0.99897110E+03</pdfrwt>
<pdfrwt beam="2">  1       -1 0.77412242E-01 0.99897110E+03</pdfrwt>
<totfact> 0.88570608E+01</totfact>
</mgrwt>
</event>
<event>
 9    1  0.4296086E-036  0.9994829E+03  0.7818608E-02  0.8681531E-01
         -4   -1    0    0    0  501 -0.00000000000E+00  0.00000000000E+00  0.14509543220E+03  0.14509543220E+03  0.00000000000E+00 0.  1.
          4   -1    0    0  501    0  0.00000000000E+00 -0.00000000000E+00 -0.17212224208E+04  0.17212224208E+04  0.00000000000E+00 0.  1.
         36    2    1    2    0    0  0.28421709430E-13 -0.14210854715E-13 -0.15761269886E+04  0.18663178530E+04  0.99948288843E+03 0.  0.
         25    2    3    3    0    0  0.83313484101E+02 -0.76694033688E+02 -0.44221062677E+03  0.47393811607E+03  0.12745190465E+03 0.  0.
         35    2    3    3    0    0 -0.83313484101E+02  0.76694033688E+02 -0.11339163619E+04  0.13923797370E+04  0.80008243624E+03 0.  0.
         22    1    5    5    0    0 -0.15330840311E+03  0.77896639935E+02  0.70555808291E+02  0.18587489088E+03  0.00000000000E+00 0. -1.
         22    1    5    5    0    0  0.69994919009E+02 -0.12026062478E+01 -0.12044721701E+04  0.12065048461E+04  0.00000000000E+00 0. -1.
          5    1    4    4  502    0  0.11105502669E+03 -0.31240645932E+02 -0.33068364376E+03  0.35026127271E+03  0.47000000000E+01 0.  1.
         -5    1    4    4    0  502 -0.27741542588E+02 -0.45453387756E+02 -0.11152698301E+03  0.12367684336E+03  0.47000000000E+01 0.  1.
<mgrwt>
<rscale>  0 0.99948289E+03</rscale>
<asrwt>0</asrwt>
<pdfrwt beam="1">  1        4 0.26480346E+00 0.99948289E+03</pdfrwt>
<pdfrwt beam="2">  1       -4 0.22322373E-01 0.99948289E+03</pdfrwt>
<totfact> 0.15240824E+00</totfact>
</mgrwt>
</event>
<event>
 9    1  0.4296086E-036  0.9997770E+03  0.7818608E-02  0.8681250E-01
         -2   -1    0    0    0  501 -0.00000000000E+00  0.00000000000E+00  0.27090883357E+03  0.27090883357E+03  0.00000000000E+00 0.  1.
          2   -1    0    0  501    0  0.00000000000E+00 -0.00000000000E+00 -0.92240822545E+03  0.92240822545E+03  0.00000000000E+00 0.  1.
         36    2    1    2    0    0 -0.28421709430E-13  0.00000000000E+00 -0.65149939188E+03  0.11933170590E+04  0.99977704801E+03 0.  0.
         25    2    3    3    0    0  0.13666254181E+03 -0.31573715687E+02 -0.12477427918E+03  0.22508953827E+03  0.12418989345E+03 0.  0.
         35    2    3    3    0    0 -0.13666254181E+03  0.31573715687E+02 -0.52672511270E+03  0.96822752075E+03  0.80021974341E+03 0.  0.
         22    1    5    5    0    0 -0.34595457391E+03  0.13388332448E+03  0.22499319284E+02  0.37163897959E+03  0.00000000000E+00 0. -1.
         22    1    5    5    0    0  0.20929203210E+03 -0.10230960879E+03 -0.54922443198E+03  0.59658854116E+03  0.00000000000E+00 0. -1.
          5    1    4    4  502    0  0.41597051765E+02 -0.63583451766E+02 -0.92096524106E+02  0.11948652563E+03  0.47000000000E+01 0.  1.
         -5    1    4    4    0  502  0.95065490046E+02  0.32009736079E+02 -0.32677755073E+02  0.10560301264E+03  0.47000000000E+01 0.  1.
<mgrwt>
<rscale>  0 0.99977705E+03</rscale>
<asrwt>0</asrwt>
<pdfrwt beam="1">  1        2 0.14190896E+00 0.99977705E+03</pdfrwt>
<pdfrwt beam="2">  1       -2 0.41678282E-01 0.99977705E+03</pdfrwt>
<totfact> 0.18685079E+02</totfact>
</mgrwt>
</event>
<event>
 9    1  0.4296086E-036  0.1001477E+04  0.7818608E-02  0.8679633E-01
          2   -1    0    0  501    0  0.00000000000E+00  0.00000000000E+00  0.99886155241E+03  0.99886155241E+03  0.00000000000E+00 0.  1.
         -2   -1    0    0    0  501 -0.00000000000E+00 -0.00000000000E+00 -0.25102475939E+03  0.25102475939E+03  0.00000000000E+00 0.  1.
         36    2    1    2    0    0  0.00000000000E+00 -0.14210854715E-13  0.74783679302E+03  0.12498863118E+04  0.10014768711E+04 0.  0.
         25    2    3    3    0    0 -0.89511548963E+02  0.77886307270E+02  0.23786091954E+03  0.29393361799E+03  0.12546139042E+03 0.  0.
         35    2    3    3    0    0  0.89511548963E+02 -0.77886307270E+02  0.50997587349E+03  0.95595269381E+03  0.79980720615E+03 0.  0.
         22    1    5    5    0    0  0.87497457646E+01  0.36057304952E+03  0.19440770146E+03  0.40973630115E+03  0.00000000000E+00 0.  1.
         22    1    5    5    0    0  0.80761803198E+02 -0.43845935679E+03  0.31556817203E+03  0.54621639266E+03  0.00000000000E+00 0.  1.
          5    1    4    4  502    0  0.15149009544E+02 -0.13344358289E+02  0.28357426407E+01  0.20921181244E+02  0.47000000000E+01 0. -1.
         -5    1    4    4    0  502 -0.10466055851E+03  0.91230665559E+02  0.23502517689E+03  0.27301243675E+03  0.47000000000E+01 0. -1.
<mgrwt>
<rscale>  0 0.10014769E+04</rscale>
<asrwt>0</asrwt>
<pdfrwt beam="1">  1        2 0.15367101E+00 0.10014769E+04</pdfrwt>
<pdfrwt beam="2">  1       -2 0.38619194E-01 0.10014769E+04</pdfrwt>
<totfact> 0.19320518E+02</totfact>
</mgrwt>
</event>
<event>
 9    1  0.4296086E-036  0.9996656E+03  0.7818608E-02  0.8681356E-01
         -2   -1    0    0    0  501 -0.00000000000E+00  0.00000000000E+00  0.30428578625E+04  0.30428578625E+04  0.00000000000E+00 0.  1.
          2   -1    0    0  501    0  0.00000000000E+00 -0.00000000000E+00 -0.82104661324E+02  0.82104661324E+02  0.00000000000E+00 0.  1.
         36    2    1    2    0    0 -0.14210854715E-13 -0.14210854715E-13  0.29607532012E+04  0.31249625238E+04  0.99966557260E+03 0.  0.
         25    2    3    3    0    0 -0.96454467610E+02  0.81415094364E+02  0.74940914142E+03  0.77010547145E+03  0.12456521984E+03 0.  0.
         35    2    3    3    0    0  0.96454467610E+02 -0.81415094364E+02  0.22113440598E+04  0.23548570524E+04  0.79961072067E+03 0.  0.
         22    1    5    5    0    0 -0.17164873506E+03  0.17951719063E+03  0.17171727280E+04  0.17350423303E+04  0.00000000000E+00 0.  1.
         22    1    5    5    0    0  0.26810320267E+03 -0.26093228499E+03  0.49417133173E+03  0.61981472210E+03  0.00000000000E+00 0.  1.
          5    1    4    4  502    0 -0.60579844549E+02  0.10815261986E+03  0.42976243501E+03  0.44730833581E+03  0.47000000000E+01 0. -1.
         -5    1    4    4    0  502 -0.35874623061E+02 -0.26737525492E+02  0.31964670642E+03  0.32279713563E+03  0.47000000000E+01 0. -1.
<mgrwt>
<rscale>  0 0.99966557E+03</rscale>
<asrwt>0</asrwt>
<pdfrwt beam="1">  1        2 0.12631489E-01 0.99966557E+03</pdfrwt>
<pdfrwt beam="2">  1       -2 0.46813189E+00 0.99966557E+03</pdfrwt>
<totfact> 0.25302519E+00</totfact>
</mgrwt>
</event>
<event>
 9    1  0.4296086E-036  0.1001312E+04  0.7818608E-02  0.8679789E-01
          2   -1    0    0  501    0  0.00000000000E+00  0.00000000000E+00  0.17787971940E+03  0.17787971940E+03  0.00000000000E+00 0.  1.
         -2   -1    0    0    0  501 -0.00000000000E+00 -0.00000000000E+00 -0.14091357517E+04  0.14091357517E+04  0.00000000000E+00 0.  1.
         36    2    1    2    0    0 -0.28421709430E-13 -0.42632564146E-13 -0.12312560323E+04  0.15870154711E+04  0.10013124829E+04 0.  0.
         25    2    3    3    0    0 -0.13389694816E+03 -0.69836629534E+02 -0.29546627103E+03  0.35455248001E+03  0.12490634979E+03 0.  0.
         35    2    3    3    0    0  0.13389694816E+03  0.69836629534E+02 -0.93578976123E+03  0.12324629910E+04  0.78769092892E+03 0.  0.
         22    1    5    5    0    0  0.15521716677E+03 -0.26903756028E+03 -0.93594109442E+02  0.32439703301E+03  0.00000000000E+00 0. -1.
         22    1    5    5    0    0 -0.21320218614E+02  0.33887418981E+03 -0.84219565179E+03  0.90806595803E+03  0.00000000000E+00 0. -1.
          5    1    4    4  502    0 -0.11453330370E+03  0.14474534225E+01 -0.13024938602E+03  0.17351358834E+03  0.47000000000E+01 0. -1.
         -5    1    4    4    0  502 -0.19363644461E+02 -0.71284082957E+02 -0.16521688500E+03  0.18103889168E+03  0.47000000000E+01 0. -1.
<mgrwt>
<rscale>  0 0.10013125E+04</rscale>
<asrwt>0</asrwt>
<pdfrwt beam="1">  1        2 0.27366110E-01 0.10013125E+04</pdfrwt>
<pdfrwt beam="2">  1       -2 0.21679012E+00 0.10013125E+04</pdfrwt>
<totfact> 0.22117077E+01</totfact>
</mgrwt>
</event>
<event>
 9    1  0.4296086E-036  0.1001818E+04  0.7818608E-02  0.8679308E-01
          2   -1    0    0  501    0  0.00000000000E+00  0.00000000000E+00  0.48973574455E+03  0.48973574455E+03  0.00000000000E+00 0. -1.
         -2   -1    0    0    0  501 -0.00000000000E+00 -0.00000000000E+00 -0.51233747498E+03  0.51233747498E+03  0.00000000000E+00 0. -1.
         36    2    1    2    0    0  0.28421709430E-13 -0.14210854715E-13 -0.22601730424E+02  0.10020732195E+04  0.10018182964E+04 0.  0.
         25    2    3    3    0    0  0.83536770124E+02  0.11364294355E+03 -0.14064092325E+02  0.18941112744E+03  0.12564102006E+03 0.  0.
         35    2    3    3    0    0 -0.83536770124E+02 -0.11364294355E+03 -0.85376380991E+01  0.81266209209E+03  0.80028349607E+03 0.  0.
         22    1    5    5    0    0 -0.17816995407E+03 -0.42938563440E+03 -0.89089603640E+02  0.47334291274E+03  0.00000000000E+00 0. -1.
         22    1    5    5    0    0  0.94633183944E+02  0.31574269085E+03  0.80551965541E+02  0.33931917936E+03  0.00000000000E+00 0. -1.
          5    1    4    4  502    0  0.10237058183E+03  0.51403434413E+02  0.19159170827E+02  0.11623774310E+03  0.47000000000E+01 0. -1.
         -5    1    4    4    0  502 -0.18833811706E+02  0.62239509140E+02 -0.33223263152E+02  0.73173384341E+02  0.47000000000E+01 0. -1.
<mgrwt>
<rscale>  0 0.10018183E+04</rscale>
<asrwt>0</asrwt>
<pdfrwt beam="1">  1        2 0.75343961E-01 0.10018183E+04</pdfrwt>
<pdfrwt beam="2">  1       -2 0.78821149E-01 0.10018183E+04</pdfrwt>
<totfact> 0.10870538E+02</totfact>
</mgrwt>
</event>
<event>
 9    1  0.4296086E-036  0.9973867E+03  0.7818608E-02  0.8683531E-01
          1   -1    0    0  501    0  0.00000000000E+00  0.00000000000E+00  0.25180936650E+03  0.25180936650E+03  0.00000000000E+00 0. -1.
         -1   -1    0    0    0  501 -0.00000000000E+00 -0.00000000000E+00 -0.98763221732E+03  0.98763221732E+03  0.00000000000E+00 0. -1.
         36    2    1    2    0    0  0.21316282073E-13  0.71054273576E-14 -0.73582285082E+03  0.12394415838E+04  0.99738667120E+03 0.  0.
         25    2    3    3    0    0 -0.28409224444E+02 -0.10240765102E+02 -0.30382064826E+03  0.32994564591E+03  0.12508071652E+03 0.  0.
         35    2    3    3    0    0  0.28409224444E+02  0.10240765102E+02 -0.43200220257E+03  0.90949593790E+03  0.79977809468E+03 0.  0.
         22    1    5    5    0    0 -0.35638838054E+03 -0.68296859283E+02 -0.58578820621E+02  0.36757124071E+03  0.00000000000E+00 0. -1.
         22    1    5    5    0    0  0.38479760498E+03  0.78537624385E+02 -0.37342338194E+03  0.54192469719E+03  0.00000000000E+00 0. -1.
          5    1    4    4  502    0 -0.75584896751E+02  0.63214676236E+01 -0.21322024127E+03  0.22635812081E+03  0.47000000000E+01 0. -1.
         -5    1    4    4    0  502  0.47175672307E+02 -0.16562232725E+02 -0.90600406985E+02  0.10358752510E+03  0.47000000000E+01 0. -1.
<mgrwt>
<rscale>  0 0.99738667E+03</rscale>
<asrwt>0</asrwt>
<pdfrwt beam="1">  1        1 0.38739904E-01 0.99738667E+03</pdfrwt>
<pdfrwt beam="2">  1       -1 0.15194341E+00 0.99738667E+03</pdfrwt>
<totfact> 0.43500721E+01</totfact>
</mgrwt>
</event>
<event>
 9    1  0.4296086E-036  0.1000614E+04  0.7818608E-02  0.8680454E-01
          2   -1    0    0  501    0  0.00000000000E+00  0.00000000000E+00  0.46547980483E+03  0.46547980483E+03  0.00000000000E+00 0.  1.
         -2   -1    0    0    0  501 -0.00000000000E+00 -0.00000000000E+00 -0.53773976474E+03  0.53773976474E+03  0.00000000000E+00 0.  1.
         36    2    1    2    0    0  0.00000000000E+00 -0.28421709430E-13 -0.72259959916E+02  0.10032195696E+04  0.10006138131E+04 0.  0.
         25    2    3    3    0    0 -0.44141375218E+02 -0.13486284049E+03 -0.54567485245E+01  0.18876920323E+03  0.12436876309E+03 0.  0.
         35    2    3    3    0    0  0.44141375218E+02  0.13486284049E+03 -0.66803211392E+02  0.81445036634E+03  0.79920603316E+03 0.  0.
         22    1    5    5    0    0  0.10511974315E+02  0.46701509224E+03  0.26262245862E+02  0.46787103302E+03  0.00000000000E+00 0.  1.
         22    1    5    5    0    0  0.33629400903E+02 -0.33215225175E+03 -0.93065457253E+02  0.34657933332E+03  0.00000000000E+00 0.  1.
          5    1    4    4  502    0 -0.48452408856E+02 -0.53437911642E+00  0.18674288291E+02  0.52141543208E+02  0.47000000000E+01 0. -1.
         -5    1    4    4    0  502  0.43110336381E+01 -0.13432846137E+03 -0.24131036815E+02  0.13662766002E+03  0.47000000000E+01 0. -1.
<mgrwt>
<rscale>  0 0.10006138E+04</rscale>
<asrwt>0</asrwt>
<pdfrwt beam="1">  1        2 0.71612278E-01 0.10006138E+04</pdfrwt>
<pdfrwt beam="2">  1       -2 0.82729195E-01 0.10006138E+04</pdfrwt>
<totfact> 0.10303199E+02</totfact>
</mgrwt>
</event>
<event>
 9    1  0.4296086E-036  0.1000096E+04  0.7818608E-02  0.8680947E-01
          2   -1    0    0  501    0  0.00000000000E+00  0.00000000000E+00  0.80122973025E+03  0.80122973025E+03  0.00000000000E+00 0. -1.
         -2   -1    0    0    0  501 -0.00000000000E+00 -0.00000000000E+00 -0.31208002100E+03  0.31208002100E+03  0.00000000000E+00 0. -1.
         36    2    1    2    0    0 -0.28421709430E-13  0.00000000000E+00  0.48914970925E+03  0.11133097513E+04  0.10000955775E+04 0.  0.
         25    2    3    3    0    0 -0.10102819388E+03 -0.40652627092E+01  0.20096853210E+03  0.25650350848E+03  0.12321719299E+03 0.  0.
         35    2    3    3    0    0  0.10102819388E+03  0.40652627092E+01  0.28818117715E+03  0.85680624277E+03  0.80052815345E+03 0.  0.
         22    1    5    5    0    0 -0.26237308206E+03 -0.13873002096E+03 -0.93119759412E+02  0.31105778000E+03  0.00000000000E+00 0. -1.
         22    1    5    5    0    0  0.36340127594E+03  0.14279528367E+03  0.38130093656E+03  0.54574846277E+03  0.00000000000E+00 0. -1.
          5    1    4    4  502    0 -0.33726497464E+02 -0.61421196564E+02  0.77830234859E+02  0.10483165303E+03  0.47000000000E+01 0. -1.
         -5    1    4    4    0  502 -0.67301696420E+02  0.57355933855E+02  0.12313829724E+03  0.15167185546E+03  0.47000000000E+01 0. -1.
<mgrwt>
<rscale>  0 0.10000956E+04</rscale>
<asrwt>0</asrwt>
<pdfrwt beam="1">  1        2 0.12326611E+00 0.10000956E+04</pdfrwt>
<pdfrwt beam="2">  1       -2 0.48012311E-01 0.10000956E+04</pdfrwt>
<totfact> 0.17099604E+02</totfact>
</mgrwt>
</event>
<event>
 9    1  0.4296086E-036  0.9970403E+03  0.7818608E-02  0.8683862E-01
          2   -1    0    0  501    0  0.00000000000E+00  0.00000000000E+00  0.96374657459E+03  0.96374657459E+03  0.00000000000E+00 0. -1.
         -2   -1    0    0    0  501 -0.00000000000E+00 -0.00000000000E+00 -0.25787104119E+03  0.25787104119E+03  0.00000000000E+00 0. -1.
         36    2    1    2    0    0  0.00000000000E+00  0.14210854715E-13  0.70587553340E+03  0.12216176158E+04  0.99704028531E+03 0.  0.
         25    2    3    3    0    0 -0.13095404818E+03 -0.26247898532E+02  0.16626431502E+03  0.24705296236E+03  0.12471338680E+03 0.  0.
         35    2    3    3    0    0  0.13095404818E+03  0.26247898532E+02  0.53961121838E+03  0.97456465342E+03  0.80047366090E+03 0.  0.
         22    1    5    5    0    0 -0.11481992760E+03  0.25000702952E+03 -0.66739321642E+02  0.28309233058E+03  0.00000000000E+00 0.  1.
         22    1    5    5    0    0  0.24577397579E+03 -0.22375913098E+03  0.60635054002E+03  0.69147232284E+03  0.00000000000E+00 0.  1.
          5    1    4    4  502    0 -0.28471746895E+02  0.10501347242E+02  0.12788237444E+03  0.13151771879E+03  0.47000000000E+01 0. -1.
         -5    1    4    4    0  502 -0.10248230129E+03 -0.36749245774E+02  0.38381940582E+02  0.11553524356E+03  0.47000000000E+01 0. -1.
<mgrwt>
<rscale>  0 0.99704029E+03</rscale>
<asrwt>0</asrwt>
<pdfrwt beam="1">  1        2 0.14826870E+00 0.99704029E+03</pdfrwt>
<pdfrwt beam="2">  1       -2 0.39672468E-01 0.99704029E+03</pdfrwt>
<totfact> 0.19319514E+02</totfact>
</mgrwt>
</event>
<event>
 9    1  0.4296086E-036  0.1000790E+04  0.7818608E-02  0.8680286E-01
          3   -1    0    0  501    0  0.00000000000E+00  0.00000000000E+00  0.53135400469E+03  0.53135400469E+03  0.00000000000E+00 0.  1.
         -3   -1    0    0    0  501 -0.00000000000E+00 -0.00000000000E+00 -0.47123934252E+03  0.47123934252E+03  0.00000000000E+00 0.  1.
         36    2    1    2    0    0 -0.28421709430E-13  0.00000000000E+00  0.60114662170E+02  0.10025933472E+04  0.10007895120E+04 0.  0.
         25    2    3    3    0    0 -0.19758088556E+02  0.94260465881E+02 -0.94087068636E+02  0.18396684451E+03  0.12536349510E+03 0.  0.
         35    2    3    3    0    0  0.19758088556E+02 -0.94260465881E+02  0.15420173081E+03  0.81862650270E+03  0.79818278587E+03 0.  0.
         22    1    5    5    0    0  0.30729327007E+03 -0.16667282015E+03 -0.16187134713E+03  0.38524189262E+03  0.00000000000E+00 0.  1.
         22    1    5    5    0    0 -0.28753518152E+03  0.72412354266E+02  0.31607307794E+03  0.43338461008E+03  0.00000000000E+00 0.  1.
          5    1    4    4  502    0  0.34649317352E+02 -0.26796030111E+01  0.44400731131E+01  0.35349111934E+02  0.47000000000E+01 0. -1.
         -5    1    4    4    0  502 -0.54407405908E+02  0.96940068892E+02 -0.98527141749E+02  0.14861773257E+03  0.47000000000E+01 0. -1.
<mgrwt>
<rscale>  0 0.10007895E+04</rscale>
<asrwt>0</asrwt>
<pdfrwt beam="1">  1        3 0.81746770E-01 0.10007895E+04</pdfrwt>
<pdfrwt beam="2">  1       -3 0.72498360E-01 0.10007895E+04</pdfrwt>
<totfact> 0.10083460E+01</totfact>
</mgrwt>
</event>
<event>
 9    1  0.4296086E-036  0.9998927E+03  0.7818608E-02  0.8681140E-01
         -1   -1    0    0    0  501 -0.00000000000E+00  0.00000000000E+00  0.33750997503E+03  0.33750997503E+03  0.00000000000E+00 0.  1.
          1   -1    0    0  501    0  0.00000000000E+00 -0.00000000000E+00 -0.74055992932E+03  0.74055992932E+03  0.00000000000E+00 0.  1.
         36    2    1    2    0    0  0.00000000000E+00  0.14210854715E-13 -0.40304995429E+03  0.10780699044E+04  0.99989272076E+03 0.  0.
         25    2    3    3    0    0 -0.81855016811E+02  0.50631156891E+02  0.31114784482E+02  0.16199641828E+03  0.12653439017E+03 0.  0.
         35    2    3    3    0    0  0.81855016811E+02 -0.50631156891E+02 -0.43416473877E+03  0.91607348608E+03  0.80089191136E+03 0.  0.
         22    1    5    5    0    0  0.41379247976E+03 -0.15692041160E+03 -0.33083479699E+03  0.55253949613E+03  0.00000000000E+00 0. -1.
         22    1    5    5    0    0 -0.33193746295E+03  0.10628925471E+03 -0.10332994178E+03  0.36353398994E+03  0.00000000000E+00 0. -1.
          5    1    4    4  502    0  0.13499769982E+02  0.37502651566E+02 -0.28004040872E+02  0.48938828850E+02  0.47000000000E+01 0. -1.
         -5    1    4    4    0  502 -0.95354786794E+02  0.13128505326E+02  0.59118825354E+02  0.11305758943E+03  0.47000000000E+01 0. -1.
<mgrwt>
<rscale>  0 0.99989272E+03</rscale>
<asrwt>0</asrwt>
<pdfrwt beam="1">  1        1 0.11393230E+00 0.99989272E+03</pdfrwt>
<pdfrwt beam="2">  1       -1 0.51924612E-01 0.99989272E+03</pdfrwt>
<totfact> 0.10684739E+02</totfact>
</mgrwt>
</event>
<event>
 9    1  0.4296086E-036  0.9999482E+03  0.7818608E-02  0.8681087E-01
          2   -1    0    0  501    0  0.00000000000E+00  0.00000000000E+00  0.15284129630E+04  0.15284129630E+04  0.00000000000E+00 0.  1.
         -2   -1    0    0    0  501 -0.00000000000E+00 -0.00000000000E+00 -0.16355142667E+03  0.16355142667E+03  0.00000000000E+00 0.  1.
         36    2    1    2    0    0  0.00000000000E+00 -0.14210854715E-13  0.13648615363E+04  0.16919643897E+04  0.99994823995E+03 0.  0.
         25    2    3    3    0    0 -0.12068727835E+03 -0.86615884990E+02  0.30188564747E+03  0.35868565597E+03  0.12430898988E+03 0.  0.
         35    2    3    3    0    0  0.12068727835E+03  0.86615884990E+02  0.10629758889E+04  0.13332787337E+04  0.79097832508E+03 0.  0.
         22    1    5    5    0    0  0.41970096393E+03  0.10026411751E+03  0.88614191511E+03  0.98562126910E+03  0.00000000000E+00 0. -1.
         22    1    5    5    0    0 -0.29901368559E+03 -0.13648232522E+02  0.17683397375E+03  0.34765746460E+03  0.00000000000E+00 0. -1.
          5    1    4    4  502    0  0.70407241803E+01  0.18570707382E+02  0.75674058991E+02  0.78377906158E+02  0.47000000000E+01 0.  1.
         -5    1    4    4    0  502 -0.12772800253E+03 -0.10518659237E+03  0.22621158848E+03  0.28030774982E+03  0.47000000000E+01 0.  1.
<mgrwt>
<rscale>  0 0.99994824E+03</rscale>
<asrwt>0</asrwt>
<pdfrwt beam="1">  1        2 0.23514045E+00 0.99994824E+03</pdfrwt>
<pdfrwt beam="2">  1       -2 0.25161759E-01 0.99994824E+03</pdfrwt>
<totfact> 0.20705820E+02</totfact>
</mgrwt>
</event>
<event>
 9    1  0.4296086E-036  0.1000436E+04  0.7818608E-02  0.8680623E-01
          2   -1    0    0  501    0  0.00000000000E+00  0.00000000000E+00  0.10248315537E+04  0.10248315537E+04  0.00000000000E+00 0.  1.
         -2   -1    0    0    0  501 -0.00000000000E+00 -0.00000000000E+00 -0.24415539327E+03  0.24415539327E+03  0.00000000000E+00 0.  1.
         36    2    1    2    0    0  0.00000000000E+00  0.14210854715E-13  0.78067616041E+03  0.12689869469E+04  0.10004362069E+04 0.  0.
         25    2    3    3    0    0 -0.59226456637E+02  0.59553989532E+02  0.24134498756E+01  0.15020967565E+03  0.12450972285E+03 0.  0.
         35    2    3    3    0    0  0.59226456637E+02 -0.59553989532E+02  0.77826271053E+03  0.11187772713E+04  0.79932176583E+03 0.  0.
         22    1    5    5    0    0  0.25133286875E+03 -0.28404360347E+03  0.12092075779E+03  0.39808392237E+03  0.00000000000E+00 0.  1.
         22    1    5    5    0    0 -0.19210641211E+03  0.22448961394E+03  0.65734195275E+03  0.72069334892E+03  0.00000000000E+00 0.  1.
          5    1    4    4  502    0 -0.43632907636E+02  0.15028503738E+02  0.59857354005E+02  0.75727665894E+02  0.47000000000E+01 0. -1.
         -5    1    4    4    0  502 -0.15593549001E+02  0.44525485794E+02 -0.57443904129E+02  0.74482009755E+02  0.47000000000E+01 0. -1.
<mgrwt>
<rscale>  0 0.10004362E+04</rscale>
<asrwt>0</asrwt>
<pdfrwt beam="1">  1        2 0.15766639E+00 0.10004362E+04</pdfrwt>
<pdfrwt beam="2">  1       -2 0.37562369E-01 0.10004362E+04</pdfrwt>
<totfact> 0.19616961E+02</totfact>
</mgrwt>
</event>
<event>
 9    1  0.4296086E-036  0.9997935E+03  0.7818608E-02  0.8681235E-01
          1   -1    0    0  501    0  0.00000000000E+00  0.00000000000E+00  0.12924043176E+04  0.12924043176E+04  0.00000000000E+00 0.  1.
         -1   -1    0    0    0  501 -0.00000000000E+00 -0.00000000000E+00 -0.19335803690E+03  0.19335803690E+03  0.00000000000E+00 0.  1.
         36    2    1    2    0    0 -0.28421709430E-13  0.14210854715E-13  0.10990462807E+04  0.14857623545E+04  0.99979350215E+03 0.  0.
         25    2    3    3    0    0 -0.97894781292E+02  0.90518454821E+02  0.14853640151E+03  0.23577150581E+03  0.12549167906E+03 0.  0.
         35    2    3    3    0    0  0.97894781292E+02 -0.90518454821E+02  0.95050987918E+03  0.12499908487E+04  0.80076907564E+03 0.  0.
         22    1    5    5    0    0 -0.33864980048E+03  0.30460438219E+02  0.54299162194E+03  0.64066483216E+03  0.00000000000E+00 0.  1.
         22    1    5    5    0    0  0.43654458177E+03 -0.12097889304E+03  0.40751825723E+03  0.60932601652E+03  0.00000000000E+00 0.  1.
          5    1    4    4  502    0 -0.51232955696E+02  0.79087829979E+02  0.16037538844E+03  0.18607002934E+03  0.47000000000E+01 0. -1.
         -5    1    4    4    0  502 -0.46661825596E+02  0.11430624842E+02 -0.11838986934E+02  0.49701476476E+02  0.47000000000E+01 0. -1.
<mgrwt>
<rscale>  0 0.99979350E+03</rscale>
<asrwt>0</asrwt>
<pdfrwt beam="1">  1        1 0.19883143E+00 0.99979350E+03</pdfrwt>
<pdfrwt beam="2">  1       -1 0.29747391E-01 0.99979350E+03</pdfrwt>
<totfact> 0.10388354E+02</totfact>
</mgrwt>
</event>
<event>
 9    1  0.4296086E-036  0.9999608E+03  0.7818608E-02  0.8681075E-01
          2   -1    0    0  501    0  0.00000000000E+00  0.00000000000E+00  0.12060101539E+04  0.12060101539E+04  0.00000000000E+00 0. -1.
         -2   -1    0    0    0  501 -0.00000000000E+00 -0.00000000000E+00 -0.20727886376E+03  0.20727886376E+03  0.00000000000E+00 0. -1.
         36    2    1    2    0    0  0.14210854715E-13  0.42632564146E-13  0.99873129009E+03  0.14132890176E+04  0.99996082799E+03 0.  0.
         25    2    3    3    0    0  0.15473034864E+02 -0.36195789937E+02 -0.26153113114E+01  0.13106312774E+03  0.12498461339E+03 0.  0.
         35    2    3    3    0    0 -0.15473034864E+02  0.36195789937E+02  0.10013466014E+04  0.12822258899E+04  0.79991166169E+03 0.  0.
         22    1    5    5    0    0  0.18984884339E+03  0.35969118208E+03  0.40932039322E+03  0.57702990746E+03  0.00000000000E+00 0. -1.
         22    1    5    5    0    0 -0.20532187825E+03 -0.32349539214E+03  0.59202620818E+03  0.70519598241E+03  0.00000000000E+00 0. -1.
          5    1    4    4  502    0 -0.41603071374E+02  0.20163890729E+02 -0.16909507544E+02  0.49451182822E+02  0.47000000000E+01 0.  1.
         -5    1    4    4    0  502  0.57076106239E+02 -0.56359680666E+02  0.14294196233E+02  0.81611944923E+02  0.47000000000E+01 0.  1.
<mgrwt>
<rscale>  0 0.99996083E+03</rscale>
<asrwt>0</asrwt>
<pdfrwt beam="1">  1        2 0.18554002E+00 0.99996083E+03</pdfrwt>
<pdfrwt beam="2">  1       -2 0.31889057E-01 0.99996083E+03</pdfrwt>
<totfact> 0.20681800E+02</totfact>
</mgrwt>
</event>
<event>
 9    1  0.4296086E-036  0.9998943E+03  0.7818608E-02  0.8681139E-01
          1   -1    0    0  501    0  0.00000000000E+00  0.00000000000E+00  0.80001841834E+03  0.80001841834E+03  0.00000000000E+00 0. -1.
         -1   -1    0    0    0  501 -0.00000000000E+00 -0.00000000000E+00 -0.31242677390E+03  0.31242677390E+03  0.00000000000E+00 0. -1.
         36    2    1    2    0    0  0.14210854715E-13  0.00000000000E+00  0.48759164444E+03  0.11124451922E+04  0.99989434142E+03 0.  0.
         25    2    3    3    0    0  0.11518675608E+03 -0.74774346516E+02  0.12438554883E+03  0.22334477613E+03  0.12470738789E+03 0.  0.
         35    2    3    3    0    0 -0.11518675608E+03  0.74774346516E+02  0.36320609561E+03  0.88910041610E+03  0.79982603755E+03 0.  0.
         22    1    5    5    0    0 -0.39333723641E+03  0.15990715243E+03  0.10668237934E+01  0.42460053823E+03  0.00000000000E+00 0.  1.
         22    1    5    5    0    0  0.27815048033E+03 -0.85132805918E+02  0.36213927182E+03  0.46449987788E+03  0.00000000000E+00 0.  1.
          5    1    4    4  502    0  0.39343973849E+02 -0.64568376830E+01 -0.21260439127E+02  0.45428353514E+02  0.47000000000E+01 0. -1.
         -5    1    4    4    0  502  0.75842782228E+02 -0.68317508833E+02  0.14564598796E+03  0.17791642262E+03  0.47000000000E+01 0. -1.
<mgrwt>
<rscale>  0 0.99989434E+03</rscale>
<asrwt>0</asrwt>
<pdfrwt beam="1">  1        1 0.12307976E+00 0.99989434E+03</pdfrwt>
<pdfrwt beam="2">  1       -1 0.48065658E-01 0.99989434E+03</pdfrwt>
<totfact> 0.10892816E+02</totfact>
</mgrwt>
</event>
<event>
 9    1  0.4296086E-036  0.1000110E+04  0.7818608E-02  0.8680933E-01
          1   -1    0    0  501    0  0.00000000000E+00  0.00000000000E+00  0.10150420782E+04  0.10150420782E+04  0.00000000000E+00 0. -1.
         -1   -1    0    0    0  501 -0.00000000000E+00 -0.00000000000E+00 -0.24634953401E+03  0.24634953401E+03  0.00000000000E+00 0. -1.
         36    2    1    2    0    0 -0.28421709430E-13  0.00000000000E+00  0.76869254418E+03  0.12613916122E+04  0.10001102798E+04 0.  0.
         25    2    3    3    0    0 -0.11468092472E+03 -0.26625838804E+02  0.24886488957E+03  0.30021398798E+03  0.11972491608E+03 0.  0.
         35    2    3    3    0    0  0.11468092472E+03  0.26625838804E+02  0.51982765461E+03  0.96117762422E+03  0.79986310392E+03 0.  0.
         22    1    5    5    0    0 -0.18513140739E+03 -0.18139488580E+02  0.61574413632E+03  0.64322897981E+03  0.00000000000E+00 0.  1.
         22    1    5    5    0    0  0.29981233211E+03  0.44765327384E+02 -0.95916481710E+02  0.31794864441E+03  0.00000000000E+00 0.  1.
          5    1    4    4  502    0 -0.12775003039E+03 -0.44918268815E+02  0.16628995247E+03  0.21450445084E+03  0.47000000000E+01 0. -1.
         -5    1    4    4    0  502  0.13069105675E+02  0.18292430011E+02  0.82574937099E+02  0.85709537134E+02  0.47000000000E+01 0. -1.
<mgrwt>
<rscale>  0 0.10001103E+04</rscale>
<asrwt>0</asrwt>
<pdfrwt beam="1">  1        1 0.15616032E+00 0.10001103E+04</pdfrwt>
<pdfrwt beam="2">  1       -1 0.37899929E-01 0.10001103E+04</pdfrwt>
<totfact> 0.11066274E+02</totfact>
</mgrwt>
</event>
<event>
 9    1  0.4296086E-036  0.1000363E+04  0.7818608E-02  0.8680692E-01
          1   -1    0    0  501    0  0.00000000000E+00  0.00000000000E+00  0.13287744735E+04  0.13287744735E+04  0.00000000000E+00 0.  1.
         -1   -1    0    0    0  501 -0.00000000000E+00 -0.00000000000E+00 -0.18828006039E+03  0.18828006039E+03  0.00000000000E+00 0.  1.
         36    2    1    2    0    0  0.00000000000E+00  0.00000000000E+00  0.11404944131E+04  0.15170545339E+04  0.10003634102E+04 0.  0.
         25    2    3    3    0    0 -0.46585729133E+02  0.13326503341E+03  0.24014454682E+03  0.30527281162E+03  0.12486907887E+03 0.  0.
         35    2    3    3    0    0  0.46585729133E+02 -0.13326503341E+03  0.90034986626E+03  0.12117817222E+04  0.79865841347E+03 0.  0.
         22    1    5    5    0    0  0.26971937912E+03 -0.38762552980E+03  0.50458191310E+03  0.69108972055E+03  0.00000000000E+00 0. -1.
         22    1    5    5    0    0 -0.22313364998E+03  0.25436049639E+03  0.39576795316E+03  0.52069200169E+03  0.00000000000E+00 0. -1.
          5    1    4    4  502    0  0.14135597819E+01  0.41007842677E+02 -0.23599038035E+01  0.41367867461E+02  0.47000000000E+01 0. -1.
         -5    1    4    4    0  502 -0.47999288915E+02  0.92257190732E+02  0.24250445063E+03  0.26390494416E+03  0.47000000000E+01 0. -1.
<mgrwt>
<rscale>  0 0.10003634E+04</rscale>
<asrwt>0</asrwt>
<pdfrwt beam="1">  1        1 0.20442684E+00 0.10003634E+04</pdfrwt>
<pdfrwt beam="2">  1       -1 0.28966164E-01 0.10003634E+04</pdfrwt>
<totfact> 0.10226318E+02</totfact>
</mgrwt>
</event>
<event>
 9    1  0.4296086E-036  0.1000390E+04  0.7818608E-02  0.8680667E-01
         -2   -1    0    0    0  501 -0.00000000000E+00  0.00000000000E+00  0.77944468583E+02  0.77944468583E+02  0.00000000000E+00 0.  1.
          2   -1    0    0  501    0  0.00000000000E+00 -0.00000000000E+00 -0.32099124862E+04  0.32099124862E+04  0.00000000000E+00 0.  1.
         36    2    1    2    0    0  0.35527136788E-13  0.56843418861E-13 -0.31319680176E+04  0.32878569547E+04  0.10003897699E+04 0.  0.
         25    2    3    3    0    0 -0.38184225045E+02 -0.12693981467E+03 -0.59481947217E+03  0.62108776319E+03  0.11986681577E+03 0.  0.
         35    2    3    3    0    0  0.38184225045E+02  0.12693981467E+03 -0.25371485454E+04  0.26667691915E+04  0.81053280499E+03 0.  0.
         22    1    5    5    0    0 -0.29054811346E+03 -0.15243057848E+03 -0.61765591939E+03  0.69939411082E+03  0.00000000000E+00 0. -1.
         22    1    5    5    0    0  0.32873233851E+03  0.27937039315E+03 -0.19194926260E+04  0.19673750807E+04  0.00000000000E+00 0. -1.
          5    1    4    4  502    0 -0.20969865270E+02 -0.13928371897E+03 -0.38205192716E+03  0.40721671707E+03  0.47000000000E+01 0.  1.
         -5    1    4    4    0  502 -0.17214359775E+02  0.12343904305E+02 -0.21276754502E+03  0.21387104612E+03  0.47000000000E+01 0.  1.
<mgrwt>
<rscale>  0 0.10003898E+04</rscale>
<asrwt>0</asrwt>
<pdfrwt beam="1">  1        2 0.49383271E+00 0.10003898E+04</pdfrwt>
<pdfrwt beam="2">  1       -2 0.11991456E-01 0.10003898E+04</pdfrwt>
<totfact> 0.69732447E+01</totfact>
</mgrwt>
</event>
<event>
 9    1  0.4296086E-036  0.9976265E+03  0.7818608E-02  0.8683302E-01
          2   -1    0    0  501    0  0.00000000000E+00  0.00000000000E+00  0.20532403127E+03  0.20532403127E+03  0.00000000000E+00 0. -1.
         -2   -1    0    0    0  501 -0.00000000000E+00 -0.00000000000E+00 -0.12118145820E+04  0.12118145820E+04  0.00000000000E+00 0. -1.
         36    2    1    2    0    0  0.00000000000E+00  0.00000000000E+00 -0.10064905508E+04  0.14171386133E+04  0.99762649350E+03 0.  0.
         25    2    3    3    0    0  0.65488816450E+02  0.65506269789E+02 -0.41856996776E+02  0.16130268633E+03  0.12524652481E+03 0.  0.
         35    2    3    3    0    0 -0.65488816450E+02 -0.65506269789E+02 -0.96463355400E+03  0.12558359270E+04  0.79876537576E+03 0.  0.
         22    1    5    5    0    0  0.24370868143E+03  0.14322593701E+03 -0.79924237542E+03  0.84775937925E+03  0.00000000000E+00 0.  1.
         22    1    5    5    0    0 -0.30919749788E+03 -0.20873220680E+03 -0.16539117858E+03  0.40807654773E+03  0.00000000000E+00 0.  1.
          5    1    4    4  502    0 -0.18923638348E+01  0.76899605828E+02  0.66728435395E+01  0.77354684786E+02  0.47000000000E+01 0. -1.
         -5    1    4    4    0  502  0.67381180285E+02 -0.11393336039E+02 -0.48529840316E+02  0.83948001547E+02  0.47000000000E+01 0. -1.
<mgrwt>
<rscale>  0 0.99762649E+03</rscale>
<asrwt>0</asrwt>
<pdfrwt beam="1">  1        2 0.31588313E-01 0.99762649E+03</pdfrwt>
<pdfrwt beam="2">  1       -2 0.18643301E+00 0.99762649E+03</pdfrwt>
<totfact> 0.30244495E+01</totfact>
</mgrwt>
</event>
<event>
 9    1  0.4296086E-036  0.1000376E+04  0.7818608E-02  0.8680680E-01
          2   -1    0    0  501    0  0.00000000000E+00  0.00000000000E+00  0.26837999808E+04  0.26837999808E+04  0.00000000000E+00 0.  1.
         -2   -1    0    0    0  501 -0.00000000000E+00 -0.00000000000E+00 -0.93221474690E+02  0.93221474690E+02  0.00000000000E+00 0.  1.
         36    2    1    2    0    0  0.28421709430E-13 -0.28421709430E-13  0.25905785061E+04  0.27770214555E+04  0.10003755135E+04 0.  0.
         25    2    3    3    0    0  0.13811770488E+03 -0.21716672050E+02  0.47252572599E+03  0.50870270135E+03  0.12629236871E+03 0.  0.
         35    2    3    3    0    0 -0.13811770488E+03  0.21716672050E+02  0.21180527801E+04  0.22683187542E+04  0.79973387871E+03 0.  0.
         22    1    5    5    0    0  0.10410329030E+03 -0.26706294173E+03  0.16122115576E+04  0.16374938829E+04  0.00000000000E+00 0. -1.
         22    1    5    5    0    0 -0.24222099518E+03  0.28877961378E+03  0.50584122251E+03  0.63082487128E+03  0.00000000000E+00 0. -1.
          5    1    4    4  502    0  0.15321998533E+03 -0.32709054667E+02  0.33525029215E+03  0.37008255099E+03  0.47000000000E+01 0. -1.
         -5    1    4    4    0  502 -0.15102280448E+02  0.10992382617E+02  0.13727543384E+03  0.13862015036E+03  0.47000000000E+01 0. -1.
<mgrwt>
<rscale>  0 0.10003755E+04</rscale>
<asrwt>0</asrwt>
<pdfrwt beam="1">  1        2 0.41289225E+00 0.10003755E+04</pdfrwt>
<pdfrwt beam="2">  1       -2 0.14341767E-01 0.10003755E+04</pdfrwt>
<totfact> 0.11555289E+02</totfact>
</mgrwt>
</event>
<event>
 9    1  0.4296086E-036  0.1000159E+04  0.7818608E-02  0.8680887E-01
          1   -1    0    0  501    0  0.00000000000E+00  0.00000000000E+00  0.56305287686E+03  0.56305287686E+03  0.00000000000E+00 0.  1.
         -1   -1    0    0    0  501 -0.00000000000E+00 -0.00000000000E+00 -0.44414886622E+03  0.44414886622E+03  0.00000000000E+00 0.  1.
         36    2    1    2    0    0  0.49737991503E-13  0.00000000000E+00  0.11890401064E+03  0.10072017431E+04  0.10001585812E+04 0.  0.
         25    2    3    3    0    0  0.30200077896E+02 -0.13172945508E+03 -0.18948261685E+02  0.18407178736E+03  0.12352607919E+03 0.  0.
         35    2    3    3    0    0 -0.30200077896E+02  0.13172945508E+03  0.13785227232E+03  0.82312995572E+03  0.80017184466E+03 0.  0.
         22    1    5    5    0    0  0.26740610961E+03 -0.87202932013E+02 -0.18153036057E+03  0.33475909341E+03  0.00000000000E+00 0. -1.
         22    1    5    5    0    0 -0.29760618751E+03  0.21893238709E+03  0.31938263290E+03  0.48837086231E+03  0.00000000000E+00 0. -1.
          5    1    4    4  502    0  0.52364875704E+02 -0.11454807967E+03 -0.55538604728E+02  0.13773151193E+03  0.47000000000E+01 0. -1.
         -5    1    4    4    0  502 -0.22164797808E+02 -0.17181375415E+02  0.36590343043E+02  0.46340275431E+02  0.47000000000E+01 0. -1.
<mgrwt>
<rscale>  0 0.10001586E+04</rscale>
<asrwt>0</asrwt>
<pdfrwt beam="1">  1        1 0.86623520E-01 0.10001586E+04</pdfrwt>
<pdfrwt beam="2">  1       -1 0.68330594E-01 0.10001586E+04</pdfrwt>
<totfact> 0.95164100E+01</totfact>
</mgrwt>
</event>
<event>
 9    1  0.4296086E-036  0.9997790E+03  0.7818608E-02  0.8681248E-01
          2   -1    0    0  501    0  0.00000000000E+00  0.00000000000E+00  0.26242646495E+04  0.26242646495E+04  0.00000000000E+00 0. -1.
         -2   -1    0    0    0  501 -0.00000000000E+00 -0.00000000000E+00 -0.95222679296E+02  0.95222679296E+02  0.00000000000E+00 0. -1.
         36    2    1    2    0    0 -0.71054273576E-14  0.00000000000E+00  0.25290419702E+04  0.27194873288E+04  0.99977899779E+03 0.  0.
         25    2    3    3    0    0 -0.15898900919E+02  0.13073493344E+03  0.34454850931E+03  0.38937239635E+03  0.12471082510E+03 0.  0.
         35    2    3    3    0    0  0.15898900919E+02 -0.13073493344E+03  0.21844934609E+04  0.23301149324E+04  0.80004969836E+03 0.  0.
         22    1    5    5    0    0  0.16856718231E+03  0.16062003674E+03  0.16837279714E+03  0.28733793688E+03  0.00000000000E+00 0. -1.
         22    1    5    5    0    0 -0.15266828139E+03 -0.29135497019E+03  0.20161206637E+04  0.20427769955E+04  0.00000000000E+00 0. -1.
          5    1    4    4  502    0 -0.13036710433E+02  0.14254052601E+03  0.20993955500E+03  0.25413473617E+03  0.47000000000E+01 0.  1.
         -5    1    4    4    0  502 -0.28621904868E+01 -0.11805592568E+02  0.13460895431E+03  0.13523766018E+03  0.47000000000E+01 0.  1.
<mgrwt>
<rscale>  0 0.99977900E+03</rscale>
<asrwt>0</asrwt>
<pdfrwt beam="1">  1        2 0.40373297E+00 0.99977900E+03</pdfrwt>
<pdfrwt beam="2">  1       -2 0.14649645E-01 0.99977900E+03</pdfrwt>
<totfact> 0.12150104E+02</totfact>
</mgrwt>
</event>
<event>
 9    1  0.4296086E-036  0.1001863E+04  0.7818608E-02  0.8679266E-01
          1   -1    0    0  501    0  0.00000000000E+00  0.00000000000E+00  0.44703618626E+03  0.44703618626E+03  0.00000000000E+00 0. -1.
         -1   -1    0    0    0  501 -0.00000000000E+00 -0.00000000000E+00 -0.56132484179E+03  0.56132484179E+03  0.00000000000E+00 0. -1.
         36    2    1    2    0    0  0.23092638912E-13  0.00000000000E+00 -0.11428865554E+03  0.10083610281E+04  0.10018632971E+04 0.  0.
         25    2    3    3    0    0  0.12354392664E+02 -0.13118418629E+03 -0.73643974277E+02  0.19592940619E+03  0.12491187097E+03 0.  0.
         35    2    3    3    0    0 -0.12354392664E+02  0.13118418629E+03 -0.40644681259E+02  0.81243162186E+03  0.80064425829E+03 0.  0.
         22    1    5    5    0    0  0.12952679902E+03  0.25508254729E+03  0.30538518627E+03  0.41845478799E+03  0.00000000000E+00 0. -1.
         22    1    5    5    0    0 -0.14188119168E+03 -0.12389836100E+03 -0.34602986753E+03  0.39397683388E+03  0.00000000000E+00 0. -1.
          5    1    4    4  502    0 -0.11862900884E+02 -0.14632765161E+03 -0.78554420255E+02  0.16656949596E+03  0.47000000000E+01 0.  1.
         -5    1    4    4    0  502  0.24217293548E+02  0.15143465320E+02  0.49104459778E+01  0.29359910224E+02  0.47000000000E+01 0.  1.
<mgrwt>
<rscale>  0 0.10018633E+04</rscale>
<asrwt>0</asrwt>
<pdfrwt beam="1">  1        1 0.68774798E-01 0.10018633E+04</pdfrwt>
<pdfrwt beam="2">  1       -1 0.86357668E-01 0.10018633E+04</pdfrwt>
<totfact> 0.81107460E+01</totfact>
</mgrwt>
</event>
<event>
 9    1  0.4296086E-036  0.1000572E+04  0.7818608E-02  0.8680493E-01
         -2   -1    0    0    0  501 -0.00000000000E+00  0.00000000000E+00  0.15579904894E+03  0.15579904894E+03  0.00000000000E+00 0. -1.
          2   -1    0    0  501    0  0.00000000000E+00 -0.00000000000E+00 -0.16064686908E+04  0.16064686908E+04  0.00000000000E+00 0. -1.
         36    2    1    2    0    0 -0.28421709430E-13  0.00000000000E+00 -0.14506696418E+04  0.17622677397E+04  0.10005724245E+04 0.  0.
         25    2    3    3    0    0 -0.10365363358E+03 -0.10406404143E+03 -0.30430545281E+03  0.36029665556E+03  0.12505387208E+03 0.  0.
         35    2    3    3    0    0  0.10365363358E+03  0.10406404143E+03 -0.11463641890E+04  0.14019710842E+04  0.79359855499E+03 0.  0.
         22    1    5    5    0    0 -0.28868485021E+03  0.17599679416E+03 -0.81869611577E+03  0.88576359390E+03  0.00000000000E+00 0. -1.
         22    1    5    5    0    0  0.39233848380E+03 -0.71932752732E+02 -0.32766807327E+03  0.51620749028E+03  0.00000000000E+00 0. -1.
          5    1    4    4  502    0  0.13861710902E+02 -0.61991409106E+02 -0.14081628255E+03  0.15455224768E+03  0.47000000000E+01 0.  1.
         -5    1    4    4    0  502 -0.11751534449E+03 -0.42072632322E+02 -0.16348917026E+03  0.20574440787E+03  0.47000000000E+01 0.  1.
<mgrwt>
<rscale>  0 0.10005724E+04</rscale>
<asrwt>0</asrwt>
<pdfrwt beam="1">  1        2 0.24714904E+00 0.10005724E+04</pdfrwt>
<pdfrwt beam="2">  1       -2 0.23969083E-01 0.10005724E+04</pdfrwt>
<totfact> 0.20387314E+02</totfact>
</mgrwt>
</event>
<event>
 9    1  0.4296086E-036  0.9998691E+03  0.7818608E-02  0.8681163E-01
          1   -1    0    0  501    0  0.00000000000E+00  0.00000000000E+00  0.17977106127E+04  0.17977106127E+04  0.00000000000E+00 0. -1.
         -1   -1    0    0    0  501 -0.00000000000E+00 -0.00000000000E+00 -0.13902936571E+03  0.13902936571E+03  0.00000000000E+00 0. -1.
         36    2    1    2    0    0  0.00000000000E+00 -0.14210854715E-13  0.16586812470E+04  0.19367399784E+04  0.99986912385E+03 0.  0.
         25    2    3    3    0    0 -0.51927323711E+02 -0.53919040686E+02  0.54257226742E+03  0.56147556511E+03  0.12355741560E+03 0.  0.
         35    2    3    3    0    0  0.51927323711E+02  0.53919040686E+02  0.11161089796E+04  0.13752644133E+04  0.80003077584E+03 0.  0.
         22    1    5    5    0    0 -0.65692629880E+02 -0.30118831196E+03  0.88114663814E+03  0.93351449843E+03  0.00000000000E+00 0.  1.
         22    1    5    5    0    0  0.11761995359E+03  0.35510735265E+03  0.23496234144E+03  0.44174991486E+03  0.00000000000E+00 0.  1.
          5    1    4    4  502    0  0.52724991399E+01 -0.79828779479E+02  0.26514849577E+03  0.27699503260E+03  0.47000000000E+01 0.  1.
         -5    1    4    4    0  502 -0.57199822851E+02  0.25909738793E+02  0.27742377165E+03  0.28448053251E+03  0.47000000000E+01 0.  1.
<mgrwt>
<rscale>  0 0.99986912E+03</rscale>
<asrwt>0</asrwt>
<pdfrwt beam="1">  1        1 0.27657085E+00 0.99986912E+03</pdfrwt>
<pdfrwt beam="2">  1       -1 0.21389134E-01 0.99986912E+03</pdfrwt>
<totfact> 0.79007084E+01</totfact>
</mgrwt>
</event>
<event>
 9    1  0.4296086E-036  0.9997081E+03  0.7818608E-02  0.8681316E-01
         -2   -1    0    0    0  501 -0.00000000000E+00  0.00000000000E+00  0.10064895397E+03  0.10064895397E+03  0.00000000000E+00 0.  1.
          2   -1    0    0  501    0  0.00000000000E+00 -0.00000000000E+00 -0.24824307724E+04  0.24824307724E+04  0.00000000000E+00 0.  1.
         36    2    1    2    0    0  0.00000000000E+00 -0.42632564146E-13 -0.23817818185E+04  0.25830797264E+04  0.99970807848E+03 0.  0.
         25    2    3    3    0    0  0.11851283086E+03  0.66365209911E+02 -0.49648122822E+03  0.52971171072E+03  0.12510497327E+03 0.  0.
         35    2    3    3    0    0 -0.11851283086E+03 -0.66365209911E+02 -0.18853005902E+04  0.20533680157E+04  0.80219215906E+03 0.  0.
         22    1    5    5    0    0 -0.53365294568E+02 -0.27952107835E+03 -0.18702054698E+03  0.34052396817E+03  0.00000000000E+00 0. -1.
         22    1    5    5    0    0 -0.65147536296E+02  0.21315586844E+03 -0.16982800433E+04  0.17128440475E+04  0.00000000000E+00 0. -1.
          5    1    4    4  502    0  0.56211979459E+02  0.45315304977E+02 -0.79284043056E+02  0.10733737924E+03  0.47000000000E+01 0.  1.
         -5    1    4    4    0  502  0.62300851405E+02  0.21049904934E+02 -0.41719718516E+03  0.42237433148E+03  0.47000000000E+01 0.  1.
<mgrwt>
<rscale>  0 0.99970808E+03</rscale>
<asrwt>0</asrwt>
<pdfrwt beam="1">  1        2 0.38191241E+00 0.99970808E+03</pdfrwt>
<pdfrwt beam="2">  1       -2 0.15484455E-01 0.99970808E+03</pdfrwt>
<totfact> 0.13530469E+02</totfact>
</mgrwt>
</event>
<event>
 9    1  0.4296086E-036  0.1000231E+04  0.7818608E-02  0.8680818E-01
          2   -1    0    0  501    0  0.00000000000E+00  0.00000000000E+00  0.34445312126E+03  0.34445312126E+03  0.00000000000E+00 0.  1.
         -2   -1    0    0    0  501 -0.00000000000E+00 -0.00000000000E+00 -0.72612400685E+03  0.72612400685E+03  0.00000000000E+00 0.  1.
         36    2    1    2    0    0  0.00000000000E+00  0.00000000000E+00 -0.38167088559E+03  0.10705771281E+04  0.10002313344E+04 0.  0.
         25    2    3    3    0    0  0.82594877847E+02  0.10972667700E+03 -0.52432063112E+02  0.19440460650E+03  0.12720916749E+03 0.  0.
         35    2    3    3    0    0 -0.82594877847E+02 -0.10972667700E+03 -0.32923882248E+03  0.87617252161E+03  0.80026134975E+03 0.  0.
         22    1    5    5    0    0  0.22302621368E+03 -0.24101196304E+03 -0.41833642147E+03  0.53182028905E+03  0.00000000000E+00 0. -1.
         22    1    5    5    0    0 -0.30562109153E+03  0.13128528604E+03  0.89097598995E+02  0.34435223255E+03  0.00000000000E+00 0. -1.
          5    1    4    4  502    0  0.67417423799E+02  0.79326092098E+02 -0.94117254083E+02  0.14042038825E+03  0.47000000000E+01 0.  1.
         -5    1    4    4    0  502  0.15177454047E+02  0.30400584900E+02  0.41685190972E+02  0.53984218249E+02  0.47000000000E+01 0.  1.
<mgrwt>
<rscale>  0 0.10002313E+04</rscale>
<asrwt>0</asrwt>
<pdfrwt beam="1">  1        2 0.52992788E-01 0.10002313E+04</pdfrwt>
<pdfrwt beam="2">  1       -2 0.11171139E+00 0.10002313E+04</pdfrwt>
<totfact> 0.70048589E+01</totfact>
</mgrwt>
</event>
<event>
 9    1  0.4296086E-036  0.1001538E+04  0.7818608E-02  0.8679574E-01
          2   -1    0    0  501    0  0.00000000000E+00  0.00000000000E+00  0.23686567568E+03  0.23686567568E+03  0.00000000000E+00 0.  1.
         -2   -1    0    0    0  501 -0.00000000000E+00 -0.00000000000E+00 -0.10587002377E+04  0.10587002377E+04  0.00000000000E+00 0.  1.
         36    2    1    2    0    0  0.42632564146E-13 -0.35527136788E-14 -0.82183456205E+03  0.12955659134E+04  0.10015383111E+04 0.  0.
         25    2    3    3    0    0  0.11954037435E+03 -0.16431293053E+02 -0.25122045757E+03  0.30540475965E+03  0.12490180312E+03 0.  0.
         35    2    3    3    0    0 -0.11954037435E+03  0.16431293053E+02 -0.57061410448E+03  0.99016115377E+03  0.80016171223E+03 0.  0.
         22    1    5    5    0    0 -0.44913518768E+03  0.95097354498E+01 -0.19313897318E+03  0.48899439142E+03  0.00000000000E+00 0.  1.
         22    1    5    5    0    0  0.32959481333E+03  0.69215576036E+01 -0.37747513130E+03  0.50116676235E+03  0.00000000000E+00 0.  1.
          5    1    4    4  502    0  0.55573839339E+02 -0.97665853979E+01 -0.12308445042E+02  0.57943296667E+02  0.47000000000E+01 0. -1.
         -5    1    4    4    0  502  0.63966535008E+02 -0.66647076555E+01 -0.23891201253E+03  0.24746146298E+03  0.47000000000E+01 0. -1.
<mgrwt>
<rscale>  0 0.10015383E+04</rscale>
<asrwt>0</asrwt>
<pdfrwt beam="1">  1        2 0.36440873E-01 0.10015383E+04</pdfrwt>
<pdfrwt beam="2">  1       -2 0.16287696E+00 0.10015383E+04</pdfrwt>
<totfact> 0.38387835E+01</totfact>
</mgrwt>
</event>
<event>
 9    1  0.4296086E-036  0.9996849E+03  0.7818608E-02  0.8681338E-01
         -2   -1    0    0    0  501 -0.00000000000E+00  0.00000000000E+00  0.10331234940E+03  0.10331234940E+03  0.00000000000E+00 0. -1.
          2   -1    0    0  501    0  0.00000000000E+00 -0.00000000000E+00 -0.24183213498E+04  0.24183213498E+04  0.00000000000E+00 0. -1.
         36    2    1    2    0    0  0.71054273576E-14  0.14210854715E-13 -0.23150090004E+04  0.25216336992E+04  0.99968487088E+03 0.  0.
         25    2    3    3    0    0 -0.16031812274E+01 -0.10559667106E+03 -0.19718373232E+03  0.25524615218E+03  0.12294692670E+03 0.  0.
         35    2    3    3    0    0  0.16031812274E+01  0.10559667106E+03 -0.21178252681E+04  0.22663875471E+04  0.80010963002E+03 0.  0.
         22    1    5    5    0    0  0.39662989788E+03  0.10702323968E+03 -0.10177122511E+04  0.10975005584E+04  0.00000000000E+00 0.  1.
         22    1    5    5    0    0 -0.39502671665E+03 -0.14265686156E+01 -0.11001130170E+04  0.11688869887E+04  0.00000000000E+00 0.  1.
          5    1    4    4  502    0  0.13051484100E+02 -0.71126582134E+02 -0.21552442221E+02  0.75603767690E+02  0.47000000000E+01 0. -1.
         -5    1    4    4    0  502 -0.14654665328E+02 -0.34470088927E+02 -0.17563129010E+03  0.17964238449E+03  0.47000000000E+01 0. -1.
<mgrwt>
<rscale>  0 0.99968487E+03</rscale>
<asrwt>0</asrwt>
<pdfrwt beam="1">  1        2 0.37204944E+00 0.99968487E+03</pdfrwt>
<pdfrwt beam="2">  1       -2 0.15894207E-01 0.99968487E+03</pdfrwt>
<totfact> 0.14153971E+02</totfact>
</mgrwt>
</event>
<event>
 9    1  0.4296086E-036  0.9999069E+03  0.7818608E-02  0.8681127E-01
          2   -1    0    0  501    0  0.00000000000E+00  0.00000000000E+00  0.55784631637E+03  0.55784631637E+03  0.00000000000E+00 0.  1.
         -2   -1    0    0    0  501 -0.00000000000E+00 -0.00000000000E+00 -0.44806866215E+03  0.44806866215E+03  0.00000000000E+00 0.  1.
         36    2    1    2    0    0  0.00000000000E+00  0.00000000000E+00  0.10977765422E+03  0.10059149785E+04  0.99990690098E+03 0.  0.
         25    2    3    3    0    0  0.12927981128E+03  0.57072677929E+02  0.62386581394E+02  0.19884473391E+03  0.12520615997E+03 0.  0.
         35    2    3    3    0    0 -0.12927981128E+03 -0.57072677929E+02  0.47391072827E+02  0.80707024460E+03  0.79318718205E+03 0.  0.
         22    1    5    5    0    0  0.29755798034E+03 -0.18961726122E+03 -0.27444161703E+02  0.35390484516E+03  0.00000000000E+00 0. -1.
         22    1    5    5    0    0 -0.42683779163E+03  0.13254458329E+03  0.74835234530E+02  0.45316539944E+03  0.00000000000E+00 0. -1.
          5    1    4    4  502    0  0.11647252057E+03  0.14731791227E+02 -0.55661040911E+01  0.11762629483E+03  0.47000000000E+01 0. -1.
         -5    1    4    4    0  502  0.12807290715E+02  0.42340886702E+02  0.67952685485E+02  0.81218439082E+02  0.47000000000E+01 0. -1.
<mgrwt>
<rscale>  0 0.99990690E+03</rscale>
<asrwt>0</asrwt>
<pdfrwt beam="1">  1        2 0.85822510E-01 0.99990690E+03</pdfrwt>
<pdfrwt beam="2">  1       -2 0.68933640E-01 0.99990690E+03</pdfrwt>
<totfact> 0.12587141E+02</totfact>
</mgrwt>
</event>
<event>
 9    1  0.4296086E-036  0.9993320E+03  0.7818608E-02  0.8681674E-01
         -2   -1    0    0    0  501 -0.00000000000E+00  0.00000000000E+00  0.42997713691E+03  0.42997713691E+03  0.00000000000E+00 0. -1.
          2   -1    0    0  501    0  0.00000000000E+00 -0.00000000000E+00 -0.58064970898E+03  0.58064970898E+03  0.00000000000E+00 0. -1.
         36    2    1    2    0    0  0.00000000000E+00  0.28421709430E-13 -0.15067257206E+03  0.10106268459E+04  0.99933197570E+03 0.  0.
         25    2    3    3    0    0 -0.74594031321E+02  0.98695226412E+02 -0.88490076292E+02  0.19825111534E+03  0.12715342664E+03 0.  0.
         35    2    3    3    0    0  0.74594031321E+02 -0.98695226412E+02 -0.62182495772E+02  0.81237573055E+03  0.80048900528E+03 0.  0.
         22    1    5    5    0    0  0.81632882983E+02  0.22550684270E+03  0.26106666414E+03  0.35450397292E+03  0.00000000000E+00 0.  1.
         22    1    5    5    0    0 -0.70388516620E+01 -0.32420206911E+03 -0.32324915991E+03  0.45787175763E+03  0.00000000000E+00 0.  1.
          5    1    4    4  502    0 -0.34044861889E+02  0.35878515126E+02 -0.10967053330E+03  0.12039948647E+03  0.47000000000E+01 0.  1.
         -5    1    4    4    0  502 -0.40549169432E+02  0.62816711286E+02  0.21180457005E+02  0.77851628867E+02  0.47000000000E+01 0.  1.
<mgrwt>
<rscale>  0 0.99933198E+03</rscale>
<asrwt>0</asrwt>
<pdfrwt beam="1">  1        2 0.89330724E-01 0.99933198E+03</pdfrwt>
<pdfrwt beam="2">  1       -2 0.66150329E-01 0.99933198E+03</pdfrwt>
<totfact> 0.13122651E+02</totfact>
</mgrwt>
</event>
<event>
 9    1  0.4296086E-036  0.1000305E+04  0.7818608E-02  0.8680747E-01
          2   -1    0    0  501    0  0.00000000000E+00  0.00000000000E+00  0.72635703634E+03  0.72635703634E+03  0.00000000000E+00 0. -1.
         -2   -1    0    0    0  501 -0.00000000000E+00 -0.00000000000E+00 -0.34439361929E+03  0.34439361929E+03  0.00000000000E+00 0. -1.
         36    2    1    2    0    0  0.00000000000E+00 -0.17763568394E-13  0.38196341705E+03  0.10707506556E+04  0.10003054107E+04 0.  0.
         25    2    3    3    0    0 -0.75356070343E+02 -0.63384453158E+00  0.20371732236E+03  0.24745026551E+03  0.11854091013E+03 0.  0.
         35    2    3    3    0    0  0.75356070343E+02  0.63384453158E+00  0.17824609469E+03  0.82330039013E+03  0.80023304294E+03 0.  0.
         22    1    5    5    0    0 -0.13819770859E+01 -0.12964515860E+03 -0.29727591643E+03  0.32431889785E+03  0.00000000000E+00 0.  1.
         22    1    5    5    0    0  0.76738047429E+02  0.13027900313E+03  0.47552201112E+03  0.49898149228E+03  0.00000000000E+00 0.  1.
          5    1    4    4  502    0 -0.77802688837E-01 -0.31712599408E+02  0.47502214769E+01  0.32409097775E+02  0.47000000000E+01 0. -1.
         -5    1    4    4    0  502 -0.75278267654E+02  0.31078754877E+02  0.19896710088E+03  0.21504116773E+03  0.47000000000E+01 0. -1.
<mgrwt>
<rscale>  0 0.10003054E+04</rscale>
<asrwt>0</asrwt>
<pdfrwt beam="1">  1        2 0.11174724E+00 0.10003054E+04</pdfrwt>
<pdfrwt beam="2">  1       -2 0.52983634E-01 0.10003054E+04</pdfrwt>
<totfact> 0.15892317E+02</totfact>
</mgrwt>
</event>
<event>
 9    1  0.4296086E-036  0.1000083E+04  0.7818608E-02  0.8680959E-01
         -1   -1    0    0    0  501 -0.00000000000E+00  0.00000000000E+00  0.57554887141E+02  0.57554887141E+02  0.00000000000E+00 0.  1.
          1   -1    0    0  501    0  0.00000000000E+00 -0.00000000000E+00 -0.43444001186E+04  0.43444001186E+04  0.00000000000E+00 0.  1.
         36    2    1    2    0    0  0.71054273576E-14 -0.14210854715E-13 -0.42868452315E+04  0.44019550058E+04  0.10000829136E+04 0.  0.
         25    2    3    3    0    0  0.36405914513E+02 -0.11130255556E+03 -0.11470071117E+04  0.11598098401E+04  0.12577718887E+03 0.  0.
         35    2    3    3    0    0 -0.36405914513E+02  0.11130255556E+03 -0.31398381197E+04  0.32421451657E+04  0.79950497672E+03 0.  0.
         22    1    5    5    0    0 -0.11991600514E+03  0.39149987090E+03 -0.25623768002E+04  0.25948847495E+04  0.00000000000E+00 0. -1.
         22    1    5    5    0    0  0.83510090622E+02 -0.28019731534E+03 -0.57746131954E+03  0.64726041616E+03  0.00000000000E+00 0. -1.
          5    1    4    4  502    0  0.82378758236E+02 -0.81191555842E+02 -0.71807522451E+03  0.72734616697E+03  0.47000000000E+01 0.  1.
         -5    1    4    4    0  502 -0.45972843723E+02 -0.30110999722E+02 -0.42893188724E+03  0.43246367310E+03  0.47000000000E+01 0.  1.
<mgrwt>
<rscale>  0 0.10000829E+04</rscale>
<asrwt>0</asrwt>
<pdfrwt beam="1">  1        1 0.66836971E+00 0.10000829E+04</pdfrwt>
<pdfrwt beam="2">  1       -1 0.88545920E-02 0.10000829E+04</pdfrwt>
<totfact> 0.45175910E+00</totfact>
</mgrwt>
</event>
<event>
 9    1  0.4296086E-036  0.1000178E+04  0.7818608E-02  0.8680868E-01
         -2   -1    0    0    0  501 -0.00000000000E+00  0.00000000000E+00  0.22631409348E+03  0.22631409348E+03  0.00000000000E+00 0.  1.
          2   -1    0    0  501    0  0.00000000000E+00 -0.00000000000E+00 -0.11050528466E+04  0.11050528466E+04  0.00000000000E+00 0.  1.
         36    2    1    2    0    0 -0.14210854715E-13  0.14210854715E-13 -0.87873875309E+03  0.13313669401E+04  0.10001780506E+04 0.  0.
         25    2    3    3    0    0 -0.74809603375E+02 -0.87096962984E+02 -0.25867102747E+03  0.31139830250E+03  0.12990706149E+03 0.  0.
         35    2    3    3    0    0  0.74809603375E+02  0.87096962984E+02 -0.62006772562E+03  0.10199686376E+04  0.80166681330E+03 0.  0.
         22    1    5    5    0    0  0.91276534198E+02 -0.35497830623E+03 -0.30547731357E+03  0.47713456456E+03  0.00000000000E+00 0. -1.
         22    1    5    5    0    0 -0.16466930823E+02  0.44207526922E+03 -0.31459041205E+03  0.54283407301E+03  0.00000000000E+00 0. -1.
          5    1    4    4  502    0  0.10316952935E+02 -0.86988210494E+02 -0.14164686978E+03  0.16661126613E+03  0.47000000000E+01 0. -1.
         -5    1    4    4    0  502 -0.85126556310E+02 -0.10875249009E+00 -0.11702415769E+03  0.14478703636E+03  0.47000000000E+01 0. -1.
<mgrwt>
<rscale>  0 0.10001781E+04</rscale>
<asrwt>0</asrwt>
<pdfrwt beam="1">  1        2 0.17000813E+00 0.10001781E+04</pdfrwt>
<pdfrwt beam="2">  1       -2 0.34817553E-01 0.10001781E+04</pdfrwt>
<totfact> 0.20196105E+02</totfact>
</mgrwt>
</event>
<event>
 9    1  0.4296086E-036  0.1000021E+04  0.7818608E-02  0.8681018E-01
         -2   -1    0    0    0  501 -0.00000000000E+00  0.00000000000E+00  0.31646240171E+03  0.31646240171E+03  0.00000000000E+00 0.  1.
          2   -1    0    0  501    0  0.00000000000E+00 -0.00000000000E+00 -0.79001641101E+03  0.79001641101E+03  0.00000000000E+00 0.  1.
         36    2    1    2    0    0  0.00000000000E+00 -0.71054273576E-14 -0.47355400931E+03  0.11064788127E+04  0.10000209814E+04 0.  0.
         25    2    3    3    0    0  0.58609924773E+02 -0.63980375287E+01  0.49779820359E+02  0.14834323633E+03  0.12669501602E+03 0.  0.
         35    2    3    3    0    0 -0.58609924773E+02  0.63980375287E+01 -0.52333382967E+03  0.95813557639E+03  0.80041828272E+03 0.  0.
         22    1    5    5    0    0 -0.22466466914E+03  0.17867748428E+03  0.89143909905E+02  0.30057693462E+03  0.00000000000E+00 0. -1.
         22    1    5    5    0    0  0.16605474437E+03 -0.17227944675E+03 -0.61247773957E+03  0.65755864177E+03  0.00000000000E+00 0. -1.
          5    1    4    4  502    0  0.42762608349E+02 -0.50524462415E+02 -0.15199434677E+02  0.68076976942E+02  0.47000000000E+01 0. -1.
         -5    1    4    4    0  502  0.15847316424E+02  0.44126424886E+02  0.64979255037E+02  0.80266259388E+02  0.47000000000E+01 0. -1.
<mgrwt>
<rscale>  0 0.10000210E+04</rscale>
<asrwt>0</asrwt>
<pdfrwt beam="1">  1        2 0.12154099E+00 0.10000210E+04</pdfrwt>
<pdfrwt beam="2">  1       -2 0.48686524E-01 0.10000210E+04</pdfrwt>
<totfact> 0.16937245E+02</totfact>
</mgrwt>
</event>
<event>
 9    1  0.4296086E-036  0.9996363E+03  0.7818608E-02  0.8681384E-01
          2   -1    0    0  501    0  0.00000000000E+00  0.00000000000E+00  0.19702874032E+04  0.19702874032E+04  0.00000000000E+00 0.  1.
         -2   -1    0    0    0  501 -0.00000000000E+00 -0.00000000000E+00 -0.12679276754E+03  0.12679276754E+03  0.00000000000E+00 0.  1.
         36    2    1    2    0    0 -0.14210854715E-13  0.00000000000E+00  0.18434946357E+04  0.20970801708E+04  0.99963631929E+03 0.  0.
         25    2    3    3    0    0  0.69898835500E+02  0.86560074885E+02  0.56920522294E+03  0.59336995492E+03  0.12535878038E+03 0.  0.
         35    2    3    3    0    0 -0.69898835500E+02 -0.86560074885E+02  0.12742894128E+04  0.15037102159E+04  0.79053931720E+03 0.  0.
         22    1    5    5    0    0  0.17341089248E+03  0.27247337717E+03  0.31603336296E+03  0.45187405923E+03  0.00000000000E+00 0.  1.
         22    1    5    5    0    0 -0.24330972798E+03 -0.35903345206E+03  0.95825604980E+03  0.10518361566E+04  0.00000000000E+00 0.  1.
          5    1    4    4  502    0 -0.34378158012E+02  0.41017388953E+02  0.18272484158E+03  0.19045929139E+03  0.47000000000E+01 0.  1.
         -5    1    4    4    0  502  0.10427699351E+03  0.45542685932E+02  0.38648038136E+03  0.40291066354E+03  0.47000000000E+01 0.  1.
<mgrwt>
<rscale>  0 0.99963632E+03</rscale>
<asrwt>0</asrwt>
<pdfrwt beam="1">  1        2 0.30312112E+00 0.99963632E+03</pdfrwt>
<pdfrwt beam="2">  1       -2 0.19506581E-01 0.99963632E+03</pdfrwt>
<totfact> 0.18197535E+02</totfact>
</mgrwt>
</event>
<event>
 9    1  0.4296086E-036  0.9993341E+03  0.7818608E-02  0.8681672E-01
          2   -1    0    0  501    0  0.00000000000E+00  0.00000000000E+00  0.27480920703E+03  0.27480920703E+03  0.00000000000E+00 0. -1.
         -2   -1    0    0    0  501 -0.00000000000E+00 -0.00000000000E+00 -0.90851082199E+03  0.90851082199E+03  0.00000000000E+00 0. -1.
         36    2    1    2    0    0  0.49737991503E-13  0.28421709430E-13 -0.63370161496E+03  0.11833200290E+04  0.99933405540E+03 0.  0.
         25    2    3    3    0    0 -0.44966379682E+02 -0.11609379990E+03 -0.59169340452E+02  0.18659882558E+03  0.12577108245E+03 0.  0.
         35    2    3    3    0    0  0.44966379682E+02  0.11609379990E+03 -0.57453227450E+03  0.99672120344E+03  0.80490128418E+03 0.  0.
         22    1    5    5    0    0  0.31224210372E+03  0.32581158416E+03 -0.44312132142E+03  0.63245934668E+03  0.00000000000E+00 0.  1.
         22    1    5    5    0    0 -0.26727572404E+03 -0.20971778426E+03 -0.13141095309E+03  0.36426185676E+03  0.00000000000E+00 0.  1.
          5    1    4    4  502    0 -0.12097418187E+02 -0.98588961198E+02 -0.92938072969E+02  0.13610917017E+03  0.47000000000E+01 0.  1.
         -5    1    4    4    0  502 -0.32868961495E+02 -0.17504838702E+02  0.33768732516E+02  0.50489655411E+02  0.47000000000E+01 0.  1.
<mgrwt>
<rscale>  0 0.99933406E+03</rscale>
<asrwt>0</asrwt>
<pdfrwt beam="1">  1        2 0.42278339E-01 0.99933406E+03</pdfrwt>
<pdfrwt beam="2">  1       -2 0.13977090E+00 0.99933406E+03</pdfrwt>
<totfact> 0.49920736E+01</totfact>
</mgrwt>
</event>
<event>
 9    1  0.4296086E-036  0.1001084E+04  0.7818608E-02  0.8680006E-01
         -1   -1    0    0    0  501 -0.00000000000E+00  0.00000000000E+00  0.13154082863E+03  0.13154082863E+03  0.00000000000E+00 0.  1.
          1   -1    0    0  501    0  0.00000000000E+00 -0.00000000000E+00 -0.19046749525E+04  0.19046749525E+04  0.00000000000E+00 0.  1.
         36    2    1    2    0    0  0.00000000000E+00  0.35527136788E-14 -0.17731341239E+04  0.20362157811E+04  0.10010844550E+04 0.  0.
         25    2    3    3    0    0 -0.12884693105E+03 -0.15121913280E+02 -0.21300061038E+03  0.27883959874E+03  0.12470789029E+03 0.  0.
         35    2    3    3    0    0  0.12884693105E+03  0.15121913280E+02 -0.15601335135E+04  0.17573761824E+04  0.79845116482E+03 0.  0.
         22    1    5    5    0    0  0.40377081227E+03  0.92334342160E+02 -0.45214890729E+03  0.61318442083E+03  0.00000000000E+00 0.  1.
         22    1    5    5    0    0 -0.27492388122E+03 -0.77212428880E+02 -0.11079846062E+04  0.11441917616E+04  0.00000000000E+00 0.  1.
          5    1    4    4  502    0 -0.45845353204E+02  0.12651485046E+02 -0.17825954426E+03  0.18455463040E+03  0.47000000000E+01 0. -1.
         -5    1    4    4    0  502 -0.83001577843E+02 -0.27773398326E+02 -0.34741066127E+02  0.94284968339E+02  0.47000000000E+01 0. -1.
<mgrwt>
<rscale>  0 0.10010845E+04</rscale>
<asrwt>0</asrwt>
<pdfrwt beam="1">  1        1 0.29302691E+00 0.10010845E+04</pdfrwt>
<pdfrwt beam="2">  1       -1 0.20237051E-01 0.10010845E+04</pdfrwt>
<totfact> 0.72850755E+01</totfact>
</mgrwt>
</event>
<event>
 9    1  0.4296086E-036  0.1000132E+04  0.7818608E-02  0.8680912E-01
          3   -1    0    0  501    0  0.00000000000E+00  0.00000000000E+00  0.53465209394E+03  0.53465209394E+03  0.00000000000E+00 0.  1.
         -3   -1    0    0    0  501 -0.00000000000E+00 -0.00000000000E+00 -0.46771761960E+03  0.46771761960E+03  0.00000000000E+00 0.  1.
         36    2    1    2    0    0 -0.28421709430E-13 -0.14210854715E-13  0.66934474347E+02  0.10023697135E+04  0.10001324006E+04 0.  0.
         25    2    3    3    0    0 -0.76032054167E+02  0.10502546201E+03 -0.37442402119E+02  0.18436852155E+03  0.12561288680E+03 0.  0.
         35    2    3    3    0    0  0.76032054167E+02 -0.10502546201E+03  0.10437687647E+03  0.81800119199E+03  0.80088713114E+03 0.  0.
         22    1    5    5    0    0 -0.31079817979E+03 -0.73847198179E+02 -0.15109025604E+03  0.35337965803E+03  0.00000000000E+00 0. -1.
         22    1    5    5    0    0  0.38683023396E+03 -0.31178263832E+02  0.25546713250E+03  0.46462153397E+03  0.00000000000E+00 0. -1.
          5    1    4    4  502    0  0.12011684675E+02  0.21391498736E+02  0.34916876082E+02  0.42931981345E+02  0.47000000000E+01 0. -1.
         -5    1    4    4    0  502 -0.88043738842E+02  0.83633963274E+02 -0.72359278201E+02  0.14143654020E+03  0.47000000000E+01 0. -1.
<mgrwt>
<rscale>  0 0.10001324E+04</rscale>
<asrwt>0</asrwt>
<pdfrwt beam="1">  1        3 0.82254169E-01 0.10001324E+04</pdfrwt>
<pdfrwt beam="2">  1       -3 0.71956557E-01 0.10001324E+04</pdfrwt>
<totfact> 0.10120285E+01</totfact>
</mgrwt>
</event>
<event>
 9    1  0.4296086E-036  0.9971407E+03  0.7818608E-02  0.8683766E-01
         -1   -1    0    0    0  501 -0.00000000000E+00  0.00000000000E+00  0.75406618564E+02  0.75406618564E+02  0.00000000000E+00 0.  1.
          1   -1    0    0  501    0  0.00000000000E+00 -0.00000000000E+00 -0.32964267963E+04  0.32964267963E+04  0.00000000000E+00 0.  1.
         36    2    1    2    0    0  0.14210854715E-13  0.00000000000E+00 -0.32210201777E+04  0.33718334149E+04  0.99714070833E+03 0.  0.
         25    2    3    3    0    0 -0.66883336859E+02  0.95563977523E+02 -0.35799338227E+03  0.39668434793E+03  0.12487335822E+03 0.  0.
         35    2    3    3    0    0  0.66883336859E+02 -0.95563977523E+02 -0.28630267955E+04  0.29751490669E+04  0.80061456668E+03 0.  0.
         22    1    5    5    0    0  0.20835049219E+03 -0.38167887633E+03 -0.10884591904E+04  0.11721058406E+04  0.00000000000E+00 0.  1.
         22    1    5    5    0    0 -0.14146715533E+03  0.28611489880E+03 -0.17745676050E+04  0.18030432264E+04  0.00000000000E+00 0.  1.
          5    1    4    4  502    0 -0.33735613084E+02  0.76403622749E+02 -0.34647006454E+03  0.35642558940E+03  0.47000000000E+01 0.  1.
         -5    1    4    4    0  502 -0.33147723775E+02  0.19160354775E+02 -0.11523317732E+02  0.40258758527E+02  0.47000000000E+01 0.  1.
<mgrwt>
<rscale>  0 0.99714071E+03</rscale>
<asrwt>0</asrwt>
<pdfrwt beam="1">  1        1 0.50714257E+00 0.99714071E+03</pdfrwt>
<pdfrwt beam="2">  1       -1 0.11601019E-01 0.99714071E+03</pdfrwt>
<totfact> 0.18333598E+01</totfact>
</mgrwt>
</event>
<event>
 9    1  0.4296086E-036  0.9997955E+03  0.7818608E-02  0.8681233E-01
         -1   -1    0    0    0  501 -0.00000000000E+00  0.00000000000E+00  0.38625353331E+03  0.38625353331E+03  0.00000000000E+00 0. -1.
          1   -1    0    0  501    0  0.00000000000E+00 -0.00000000000E+00 -0.64697863171E+03  0.64697863171E+03  0.00000000000E+00 0. -1.
         36    2    1    2    0    0  0.71054273576E-14 -0.28421709430E-13 -0.26072509840E+03  0.10332321650E+04  0.99979554405E+03 0.  0.
         25    2    3    3    0    0  0.35759416231E+02 -0.13443073661E+03 -0.54603702207E+02  0.19537380902E+03  0.12585309755E+03 0.  0.
         35    2    3    3    0    0 -0.35759416231E+02  0.13443073661E+03 -0.20612139619E+03  0.83785835600E+03  0.80010639040E+03 0.  0.
         22    1    5    5    0    0  0.54059552649E+02 -0.33107151259E+03 -0.52746368488E+02  0.33957762157E+03  0.00000000000E+00 0.  1.
         22    1    5    5    0    0 -0.89818968880E+02  0.46550224920E+03 -0.15337502770E+03  0.49828073443E+03  0.00000000000E+00 0.  1.
          5    1    4    4  502    0  0.20844108558E+02 -0.13209267974E+03  0.48058748844E+01  0.13389600195E+03  0.47000000000E+01 0. -1.
         -5    1    4    4    0  502  0.14915307673E+02 -0.23380568689E+01 -0.59409577092E+02  0.61477807078E+02  0.47000000000E+01 0. -1.
<mgrwt>
<rscale>  0 0.99979554E+03</rscale>
<asrwt>0</asrwt>
<pdfrwt beam="1">  1        1 0.99535173E-01 0.99979554E+03</pdfrwt>
<pdfrwt beam="2">  1       -1 0.59423621E-01 0.99979554E+03</pdfrwt>
<totfact> 0.10185064E+02</totfact>
</mgrwt>
</event>
<event>
 9    1  0.4296086E-036  0.9990619E+03  0.7818608E-02  0.8681932E-01
         -3   -1    0    0    0  501 -0.00000000000E+00  0.00000000000E+00  0.13654966160E+03  0.13654966160E+03  0.00000000000E+00 0.  1.
          3   -1    0    0  501    0  0.00000000000E+00 -0.00000000000E+00 -0.18274024504E+04  0.18274024504E+04  0.00000000000E+00 0.  1.
         36    2    1    2    0    0  0.00000000000E+00  0.35527136788E-14 -0.16908527888E+04  0.19639521120E+04  0.99906193243E+03 0.  0.
         25    2    3    3    0    0  0.13826165348E+03 -0.29740997580E+02 -0.40915807981E+03  0.45080408301E+03  0.12575044819E+03 0.  0.
         35    2    3    3    0    0 -0.13826165348E+03  0.29740997580E+02 -0.12816947090E+04  0.15131480290E+04  0.79175426670E+03 0.  0.
         22    1    5    5    0    0 -0.12552653324E+03 -0.36547061343E+03 -0.81135058057E+03  0.89867427048E+03  0.00000000000E+00 0. -1.
         22    1    5    5    0    0 -0.12735120232E+02  0.39521161101E+03 -0.47034412846E+03  0.61447375855E+03  0.00000000000E+00 0. -1.
          5    1    4    4  502    0  0.52440440197E+01  0.66951316477E+01 -0.19992639042E+03  0.20016237501E+03  0.47000000000E+01 0. -1.
         -5    1    4    4    0  502  0.13301760946E+03 -0.36436129228E+02 -0.20923168939E+03  0.25064170799E+03  0.47000000000E+01 0. -1.
<mgrwt>
<rscale>  0 0.99906193E+03</rscale>
<asrwt>0</asrwt>
<pdfrwt beam="1">  1        3 0.28113882E+00 0.99906193E+03</pdfrwt>
<pdfrwt beam="2">  1       -3 0.21007641E-01 0.99906193E+03</pdfrwt>
<totfact> 0.43637026E+00</totfact>
</mgrwt>
</event>
<event>
 9    1  0.4296086E-036  0.9977572E+03  0.7818608E-02  0.8683177E-01
         -3   -1    0    0    0  501 -0.00000000000E+00  0.00000000000E+00  0.17534105089E+04  0.17534105089E+04  0.00000000000E+00 0.  1.
          3   -1    0    0  501    0  0.00000000000E+00 -0.00000000000E+00 -0.14194044308E+03  0.14194044308E+03  0.00000000000E+00 0.  1.
         36    2    1    2    0    0 -0.14210854715E-13  0.28421709430E-13  0.16114700659E+04  0.18953509520E+04  0.99775721405E+03 0.  0.
         25    2    3    3    0    0 -0.55056341374E+02 -0.12023067338E+03  0.23605251501E+03  0.29924890153E+03  0.12783778658E+03 0.  0.
         35    2    3    3    0    0  0.55056341374E+02  0.12023067338E+03  0.13754175509E+04  0.15961020505E+04  0.79892534124E+03 0.  0.
         22    1    5    5    0    0  0.21653696646E+03  0.41327042093E+03  0.91334144849E+03  0.10256087462E+04  0.00000000000E+00 0. -1.
         22    1    5    5    0    0 -0.16148062509E+03 -0.29303974756E+03  0.46207610236E+03  0.57049330434E+03  0.00000000000E+00 0. -1.
          5    1    4    4  502    0 -0.53343267684E+02 -0.24182307613E+02  0.17674266967E+03  0.18625345498E+03  0.47000000000E+01 0.  1.
         -5    1    4    4    0  502 -0.17130736896E+01 -0.96048365762E+02  0.59309845334E+02  0.11299544655E+03  0.47000000000E+01 0.  1.
<mgrwt>
<rscale>  0 0.99775721E+03</rscale>
<asrwt>0</asrwt>
<pdfrwt beam="1">  1        3 0.21836992E-01 0.99775721E+03</pdfrwt>
<pdfrwt beam="2">  1       -3 0.26975545E+00 0.99775721E+03</pdfrwt>
<totfact> 0.23115142E+00</totfact>
</mgrwt>
</event>
<event>
 9    1  0.4296086E-036  0.9994738E+03  0.7818608E-02  0.8681539E-01
         -2   -1    0    0    0  501 -0.00000000000E+00  0.00000000000E+00  0.17829793849E+03  0.17829793849E+03  0.00000000000E+00 0. -1.
          2   -1    0    0  501    0  0.00000000000E+00 -0.00000000000E+00 -0.14006722346E+04  0.14006722346E+04  0.00000000000E+00 0. -1.
         36    2    1    2    0    0  0.00000000000E+00  0.21316282073E-13 -0.12223742961E+04  0.15789701731E+04  0.99947380541E+03 0.  0.
         25    2    3    3    0    0 -0.91097994704E+02  0.18154212290E+02 -0.39256190978E+03  0.42227060162E+03  0.12481661715E+03 0.  0.
         35    2    3    3    0    0  0.91097994704E+02 -0.18154212290E+02 -0.82981238629E+03  0.11566995714E+04  0.80046041880E+03 0.  0.
         22    1    5    5    0    0 -0.15534101641E+03  0.30215161160E+03 -0.60596505088E+03  0.69470862285E+03  0.00000000000E+00 0. -1.
         22    1    5    5    0    0  0.24643901111E+03 -0.32030582389E+03 -0.22384733541E+03  0.46199094859E+03  0.00000000000E+00 0. -1.
          5    1    4    4  502    0 -0.10046894488E+02  0.20453378926E+02 -0.20002095900E+01  0.23353193288E+02  0.47000000000E+01 0. -1.
         -5    1    4    4    0  502 -0.81051100217E+02 -0.22991666362E+01 -0.39056170019E+03  0.39891740833E+03  0.47000000000E+01 0. -1.
<mgrwt>
<rscale>  0 0.99947381E+03</rscale>
<asrwt>0</asrwt>
<pdfrwt beam="1">  1        2 0.21548805E+00 0.99947381E+03</pdfrwt>
<pdfrwt beam="2">  1       -2 0.27430451E-01 0.99947381E+03</pdfrwt>
<totfact> 0.20973246E+02</totfact>
</mgrwt>
</event>
<event>
 9    1  0.4296086E-036  0.9999175E+03  0.7818608E-02  0.8681116E-01
         -2   -1    0    0    0  501 -0.00000000000E+00  0.00000000000E+00  0.48212753831E+03  0.48212753831E+03  0.00000000000E+00 0. -1.
          2   -1    0    0  501    0  0.00000000000E+00 -0.00000000000E+00 -0.51844946320E+03  0.51844946320E+03  0.00000000000E+00 0. -1.
         36    2    1    2    0    0 -0.14210854715E-13  0.00000000000E+00 -0.36321924894E+02  0.10005770015E+04  0.99991752346E+03 0.  0.
         25    2    3    3    0    0  0.36495950334E+02 -0.96117170022E+02 -0.10296346875E+03  0.19143544040E+03  0.12440091310E+03 0.  0.
         35    2    3    3    0    0 -0.36495950334E+02  0.96117170022E+02  0.66641543855E+02  0.80914156111E+03  0.79981154392E+03 0.  0.
         22    1    5    5    0    0  0.16429574964E+03 -0.81627953272E+02  0.36467730667E+03  0.40822267711E+03  0.00000000000E+00 0. -1.
         22    1    5    5    0    0 -0.20079169998E+03  0.17774512329E+03 -0.29803576281E+03  0.40091888400E+03  0.00000000000E+00 0. -1.
          5    1    4    4  502    0 -0.20410425012E+02 -0.44354009753E+02  0.14317784872E+02  0.51097481288E+02  0.47000000000E+01 0.  1.
         -5    1    4    4    0  502  0.56906375346E+02 -0.51763160269E+02 -0.11728125362E+03  0.14033795911E+03  0.47000000000E+01 0.  1.
<mgrwt>
<rscale>  0 0.99991752E+03</rscale>
<asrwt>0</asrwt>
<pdfrwt beam="1">  1        2 0.79761456E-01 0.99991752E+03</pdfrwt>
<pdfrwt beam="2">  1       -2 0.74173467E-01 0.99991752E+03</pdfrwt>
<totfact> 0.11672967E+02</totfact>
</mgrwt>
</event>
