<event>
 4    1  0.1749575E-004  0.2747618E+03  0.7818608E-02  0.1098585E+00
         -1   -1    0    0    0  501 -0.00000000000E+00  0.00000000000E+00  0.27526409573E+02  0.27526409573E+02  0.00000000000E+00 0.  1.
          1   -1    0    0  501    0  0.00000000000E+00 -0.00000000000E+00 -0.68565101234E+03  0.68565101234E+03  0.00000000000E+00 0.  1.
         25    1    1    2    0    0 -0.14836122181E+02 -0.58853016177E+02 -0.40200444403E+03  0.42390017817E+03  0.12000000000E+03 0.  0.
         25    1    1    2    0    0  0.14836122181E+02  0.58853016177E+02 -0.25612015873E+03  0.28927724373E+03  0.12000000000E+03 0.  0.
<mgrwt>
<rscale>  0 0.27476179E+03</rscale>
<asrwt>0</asrwt>
<pdfrwt beam="1">  1        1 0.10548478E+00 0.27476179E+03</pdfrwt>
<pdfrwt beam="2">  1       -1 0.42348319E-02 0.27476179E+03</pdfrwt>
<totfact> 0.65431977E+03</totfact>
</mgrwt>
</event>
<event>
 4    1  0.1749575E-004  0.4110513E+03  0.7818608E-02  0.1040019E+00
          2   -1    0    0  501    0  0.00000000000E+00  0.00000000000E+00  0.67583313047E+03  0.67583313047E+03  0.00000000000E+00 0. -1.
         -2   -1    0    0    0  501 -0.00000000000E+00 -0.00000000000E+00 -0.62501819157E+02  0.62501819157E+02  0.00000000000E+00 0. -1.
         25    1    1    2    0    0  0.65121683213E+02 -0.14132391817E+03  0.41484941501E+03  0.45903520628E+03  0.12000000000E+03 0.  0.
         25    1    1    2    0    0 -0.65121683213E+02  0.14132391817E+03  0.19848189630E+03  0.27929974335E+03  0.12000000000E+03 0.  0.
<mgrwt>
<rscale>  0 0.41105134E+03</rscale>
<asrwt>0</asrwt>
<pdfrwt beam="1">  1        2 0.10397432E+00 0.41105134E+03</pdfrwt>
<pdfrwt beam="2">  1       -2 0.96156650E-02 0.41105134E+03</pdfrwt>
<totfact> 0.31101483E+03</totfact>
</mgrwt>
</event>
<event>
 4    1  0.1749575E-004  0.2551582E+03  0.7818608E-02  0.1110088E+00
         -2   -1    0    0    0  501 -0.00000000000E+00  0.00000000000E+00  0.23999548956E+03  0.23999548956E+03  0.00000000000E+00 0.  1.
          2   -1    0    0  501    0  0.00000000000E+00 -0.00000000000E+00 -0.67819741475E+02  0.67819741475E+02  0.00000000000E+00 0.  1.
         25    1    1    2    0    0  0.19847290355E+02  0.55120722588E+00  0.13253254142E+03  0.17988633439E+03  0.12000000000E+03 0.  0.
         25    1    1    2    0    0 -0.19847290355E+02 -0.55120722588E+00  0.39643206672E+02  0.12792889665E+03  0.12000000000E+03 0.  0.
<mgrwt>
<rscale>  0 0.25515824E+03</rscale>
<asrwt>0</asrwt>
<pdfrwt beam="1">  1        2 0.10433807E-01 0.25515824E+03</pdfrwt>
<pdfrwt beam="2">  1       -2 0.36922383E-01 0.25515824E+03</pdfrwt>
<totfact> 0.41801677E+03</totfact>
</mgrwt>
</event>
<event>
 4    1  0.1749575E-004  0.2761854E+03  0.7818608E-02  0.1097791E+00
         -2   -1    0    0    0  501 -0.00000000000E+00  0.00000000000E+00  0.91311496650E+02  0.91311496650E+02  0.00000000000E+00 0.  1.
          2   -1    0    0  501    0  0.00000000000E+00 -0.00000000000E+00 -0.20884117095E+03  0.20884117095E+03  0.00000000000E+00 0.  1.
         25    1    1    2    0    0  0.46834029627E+02 -0.51116874707E+01 -0.49715131265E+01  0.12901268008E+03  0.12000000000E+03 0.  0.
         25    1    1    2    0    0 -0.46834029627E+02  0.51116874707E+01 -0.11255816117E+03  0.17113998752E+03  0.12000000000E+03 0.  0.
<mgrwt>
<rscale>  0 0.27618544E+03</rscale>
<asrwt>0</asrwt>
<pdfrwt beam="1">  1        2 0.32129410E-01 0.27618544E+03</pdfrwt>
<pdfrwt beam="2">  1       -2 0.14047923E-01 0.27618544E+03</pdfrwt>
<totfact> 0.61591276E+03</totfact>
</mgrwt>
</event>
<event>
 4    1  0.1749575E-004  0.3888068E+03  0.7818608E-02  0.1047726E+00
          1   -1    0    0  501    0  0.00000000000E+00  0.00000000000E+00  0.10922742452E+04  0.10922742452E+04  0.00000000000E+00 0.  1.
         -1   -1    0    0    0  501 -0.00000000000E+00 -0.00000000000E+00 -0.34599997082E+02  0.34599997082E+02  0.00000000000E+00 0.  1.
         25    1    1    2    0    0 -0.10149661520E+03  0.10904260299E+03  0.42840261016E+03  0.46917017015E+03  0.12000000000E+03 0.  0.
         25    1    1    2    0    0  0.10149661520E+03 -0.10904260299E+03  0.62927163792E+03  0.65770407210E+03  0.12000000000E+03 0.  0.
<mgrwt>
<rscale>  0 0.38880682E+03</rscale>
<asrwt>0</asrwt>
<pdfrwt beam="1">  1        1 0.16804217E+00 0.38880682E+03</pdfrwt>
<pdfrwt beam="2">  1       -1 0.53230773E-02 0.38880682E+03</pdfrwt>
<totfact> 0.21911637E+03</totfact>
</mgrwt>
</event>
<event>
 4    1  0.1749575E-004  0.3873584E+03  0.7818608E-02  0.1048247E+00
          2   -1    0    0  501    0  0.00000000000E+00  0.00000000000E+00  0.73618295575E+03  0.73618295575E+03  0.00000000000E+00 0. -1.
         -2   -1    0    0    0  501 -0.00000000000E+00 -0.00000000000E+00 -0.50954230930E+02  0.50954230930E+02  0.00000000000E+00 0. -1.
         25    1    1    2    0    0  0.11104185517E+03 -0.96638603558E+02  0.26544077305E+03  0.32638645391E+03  0.12000000000E+03 0.  0.
         25    1    1    2    0    0 -0.11104185517E+03  0.96638603558E+02  0.41978795177E+03  0.46075073277E+03  0.12000000000E+03 0.  0.
<mgrwt>
<rscale>  0 0.38735842E+03</rscale>
<asrwt>0</asrwt>
<pdfrwt beam="1">  1        2 0.11325891E+00 0.38735842E+03</pdfrwt>
<pdfrwt beam="2">  1       -2 0.78391130E-02 0.38735842E+03</pdfrwt>
<totfact> 0.38672934E+03</totfact>
</mgrwt>
</event>
<event>
 4    1  0.1749575E-004  0.2998019E+03  0.7818608E-02  0.1085340E+00
         -1   -1    0    0    0  501 -0.00000000000E+00  0.00000000000E+00  0.42816135129E+02  0.42816135129E+02  0.00000000000E+00 0.  1.
          1   -1    0    0  501    0  0.00000000000E+00 -0.00000000000E+00 -0.52480916934E+03  0.52480916934E+03  0.00000000000E+00 0.  1.
         25    1    1    2    0    0  0.71738992103E+02 -0.64055199432E+01 -0.13934038904E+03  0.19749242439E+03  0.12000000000E+03 0.  0.
         25    1    1    2    0    0 -0.71738992103E+02  0.64055199432E+01 -0.34265264516E+03  0.37013288007E+03  0.12000000000E+03 0.  0.
<mgrwt>
<rscale>  0 0.29980194E+03</rscale>
<asrwt>0</asrwt>
<pdfrwt beam="1">  1        1 0.80739876E-01 0.29980194E+03</pdfrwt>
<pdfrwt beam="2">  1       -1 0.65870974E-02 0.29980194E+03</pdfrwt>
<totfact> 0.48988703E+03</totfact>
</mgrwt>
</event>
<event>
 4    1  0.1749575E-004  0.2521214E+03  0.7818608E-02  0.1111971E+00
          2   -1    0    0  501    0  0.00000000000E+00  0.00000000000E+00  0.29244892842E+03  0.29244892842E+03  0.00000000000E+00 0. -1.
         -2   -1    0    0    0  501 -0.00000000000E+00 -0.00000000000E+00 -0.54338702188E+02  0.54338702188E+02  0.00000000000E+00 0. -1.
         25    1    1    2    0    0  0.34561087220E+02 -0.16608484425E+02  0.11275416996E+03  0.16906748164E+03  0.12000000000E+03 0.  0.
         25    1    1    2    0    0 -0.34561087220E+02  0.16608484425E+02  0.12535605627E+03  0.17772014896E+03  0.12000000000E+03 0.  0.
<mgrwt>
<rscale>  0 0.25212136E+03</rscale>
<asrwt>0</asrwt>
<pdfrwt beam="1">  1        2 0.44992142E-01 0.25212136E+03</pdfrwt>
<pdfrwt beam="2">  1       -2 0.83598005E-02 0.25212136E+03</pdfrwt>
<totfact> 0.97853045E+03</totfact>
</mgrwt>
</event>
<event>
 4    1  0.1749575E-004  0.2612969E+03  0.7818608E-02  0.1106367E+00
         -1   -1    0    0    0  501 -0.00000000000E+00  0.00000000000E+00  0.14267944546E+03  0.14267944546E+03  0.00000000000E+00 0. -1.
          1   -1    0    0  501    0  0.00000000000E+00 -0.00000000000E+00 -0.11963193143E+03  0.11963193143E+03  0.00000000000E+00 0. -1.
         25    1    1    2    0    0 -0.23665953103E+02  0.14349710429E+02 -0.32269297853E+02  0.12730789099E+03  0.12000000000E+03 0.  0.
         25    1    1    2    0    0  0.23665953103E+02 -0.14349710429E+02  0.55316811891E+02  0.13500348589E+03  0.12000000000E+03 0.  0.
<mgrwt>
<rscale>  0 0.26129690E+03</rscale>
<asrwt>0</asrwt>
<pdfrwt beam="1">  1        1 0.18404912E-01 0.26129690E+03</pdfrwt>
<pdfrwt beam="2">  1       -1 0.21950684E-01 0.26129690E+03</pdfrwt>
<totfact> 0.48772233E+03</totfact>
</mgrwt>
</event>
<event>
 4    1  0.1749575E-004  0.2542213E+03  0.7818608E-02  0.1110666E+00
         -2   -1    0    0    0  501 -0.00000000000E+00  0.00000000000E+00  0.53912229504E+01  0.53912229504E+01  0.00000000000E+00 0.  1.
          2   -1    0    0  501    0  0.00000000000E+00 -0.00000000000E+00 -0.29969288463E+04  0.29969288463E+04  0.00000000000E+00 0.  1.
         25    1    1    2    0    0 -0.31030663356E+02  0.28180602096E+02 -0.14928004589E+04  0.14982023423E+04  0.12000000000E+03 0.  0.
         25    1    1    2    0    0  0.31030663356E+02 -0.28180602096E+02 -0.14987371645E+04  0.15041177269E+04  0.12000000000E+03 0.  0.
<mgrwt>
<rscale>  0 0.25422125E+03</rscale>
<asrwt>0</asrwt>
<pdfrwt beam="1">  1        2 0.46106620E+00 0.25422125E+03</pdfrwt>
<pdfrwt beam="2">  1       -2 0.82941852E-03 0.25422125E+03</pdfrwt>
<totfact> 0.58583314E+03</totfact>
</mgrwt>
</event>
<event>
 4    1  0.1749575E-004  0.3371203E+03  0.7818608E-02  0.1068029E+00
         -2   -1    0    0    0  501 -0.00000000000E+00  0.00000000000E+00  0.59417155842E+02  0.59417155842E+02  0.00000000000E+00 0.  1.
          2   -1    0    0  501    0  0.00000000000E+00 -0.00000000000E+00 -0.47818728045E+03  0.47818728045E+03  0.00000000000E+00 0.  1.
         25    1    1    2    0    0 -0.30877945480E+02  0.79482625883E+02 -0.34032109205E+03  0.37079560546E+03  0.12000000000E+03 0.  0.
         25    1    1    2    0    0  0.30877945480E+02 -0.79482625883E+02 -0.78449032556E+02  0.16680883083E+03  0.12000000000E+03 0.  0.
<mgrwt>
<rscale>  0 0.33712032E+03</rscale>
<asrwt>0</asrwt>
<pdfrwt beam="1">  1        2 0.73567277E-01 0.33712032E+03</pdfrwt>
<pdfrwt beam="2">  1       -2 0.91411005E-02 0.33712032E+03</pdfrwt>
<totfact> 0.50266903E+03</totfact>
</mgrwt>
</event>
<event>
 4    1  0.1749575E-004  0.3761113E+03  0.7818608E-02  0.1052380E+00
         -2   -1    0    0    0  501 -0.00000000000E+00  0.00000000000E+00  0.11801086275E+02  0.11801086275E+02  0.00000000000E+00 0.  1.
          2   -1    0    0  501    0  0.00000000000E+00 -0.00000000000E+00 -0.29967517864E+04  0.29967517864E+04  0.00000000000E+00 0.  1.
         25    1    1    2    0    0  0.11533255864E+03 -0.31525031257E+02 -0.21457381109E+04  0.21524143345E+04  0.12000000000E+03 0.  0.
         25    1    1    2    0    0 -0.11533255864E+03  0.31525031257E+02 -0.83921258920E+03  0.85613853818E+03  0.12000000000E+03 0.  0.
<mgrwt>
<rscale>  0 0.37611129E+03</rscale>
<asrwt>0</asrwt>
<pdfrwt beam="1">  1        2 0.46103859E+00 0.37611129E+03</pdfrwt>
<pdfrwt beam="2">  1       -2 0.18155523E-02 0.37611129E+03</pdfrwt>
<totfact> 0.18428559E+03</totfact>
</mgrwt>
</event>
<event>
 4    1  0.1749575E-004  0.2491236E+03  0.7818608E-02  0.1113860E+00
          1   -1    0    0  501    0  0.00000000000E+00  0.00000000000E+00  0.90196398553E+02  0.90196398553E+02  0.00000000000E+00 0.  1.
         -1   -1    0    0    0  501 -0.00000000000E+00 -0.00000000000E+00 -0.17202066808E+03  0.17202066808E+03  0.00000000000E+00 0.  1.
         25    1    1    2    0    0  0.90102451889E+01  0.64374815779E+01 -0.77437108284E+01  0.12075839824E+03  0.12000000000E+03 0.  0.
         25    1    1    2    0    0 -0.90102451889E+01 -0.64374815779E+01 -0.74080558701E+02  0.14145866840E+03  0.12000000000E+03 0.  0.
<mgrwt>
<rscale>  0 0.24912362E+03</rscale>
<asrwt>0</asrwt>
<pdfrwt beam="1">  1        1 0.13876369E-01 0.24912362E+03</pdfrwt>
<pdfrwt beam="2">  1       -1 0.26464718E-01 0.24912362E+03</pdfrwt>
<totfact> 0.51653800E+03</totfact>
</mgrwt>
</event>
<event>
 4    1  0.1749575E-004  0.2693600E+03  0.7818608E-02  0.1101646E+00
         -1   -1    0    0    0  501 -0.00000000000E+00  0.00000000000E+00  0.48118878088E+02  0.48118878088E+02  0.00000000000E+00 0. -1.
          1   -1    0    0  501    0  0.00000000000E+00 -0.00000000000E+00 -0.37695612509E+03  0.37695612509E+03  0.00000000000E+00 0. -1.
         25    1    1    2    0    0  0.31726307728E+02  0.27548489203E+02 -0.94318133524E+02  0.15830789043E+03  0.12000000000E+03 0.  0.
         25    1    1    2    0    0 -0.31726307728E+02 -0.27548489203E+02 -0.23451911347E+03  0.26676711275E+03  0.12000000000E+03 0.  0.
<mgrwt>
<rscale>  0 0.26936003E+03</rscale>
<asrwt>0</asrwt>
<pdfrwt beam="1">  1        1 0.57993253E-01 0.26936003E+03</pdfrwt>
<pdfrwt beam="2">  1       -1 0.74029039E-02 0.26936003E+03</pdfrwt>
<totfact> 0.62999306E+03</totfact>
</mgrwt>
</event>
<event>
 4    1  0.1749575E-004  0.4196198E+03  0.7818608E-02  0.1037190E+00
         -1   -1    0    0    0  501 -0.00000000000E+00  0.00000000000E+00  0.15595066249E+03  0.15595066249E+03  0.00000000000E+00 0. -1.
          1   -1    0    0  501    0  0.00000000000E+00 -0.00000000000E+00 -0.28226996051E+03  0.28226996051E+03  0.00000000000E+00 0. -1.
         25    1    1    2    0    0 -0.10989088228E+03 -0.12664375286E+03 -0.22638365344E+02  0.20742984774E+03  0.12000000000E+03 0.  0.
         25    1    1    2    0    0  0.10989088228E+03  0.12664375286E+03 -0.10368093267E+03  0.23079077526E+03  0.12000000000E+03 0.  0.
<mgrwt>
<rscale>  0 0.41961977E+03</rscale>
<asrwt>0</asrwt>
<pdfrwt beam="1">  1        1 0.43426147E-01 0.41961977E+03</pdfrwt>
<pdfrwt beam="2">  1       -1 0.23992410E-01 0.41961977E+03</pdfrwt>
<totfact> 0.14192235E+03</totfact>
</mgrwt>
</event>
<event>
 4    1  0.1749575E-004  0.3291098E+03  0.7818608E-02  0.1071531E+00
          2   -1    0    0  501    0  0.00000000000E+00  0.00000000000E+00  0.35640073978E+03  0.35640073978E+03  0.00000000000E+00 0. -1.
         -2   -1    0    0    0  501 -0.00000000000E+00 -0.00000000000E+00 -0.75977149714E+02  0.75977149714E+02  0.00000000000E+00 0. -1.
         25    1    1    2    0    0 -0.84250812351E+02  0.70640030917E+02  0.17212608081E+03  0.23688731718E+03  0.12000000000E+03 0.  0.
         25    1    1    2    0    0  0.84250812351E+02 -0.70640030917E+02  0.10829750926E+03  0.19549057231E+03  0.12000000000E+03 0.  0.
<mgrwt>
<rscale>  0 0.32910978E+03</rscale>
<asrwt>0</asrwt>
<pdfrwt beam="1">  1        2 0.54830882E-01 0.32910978E+03</pdfrwt>
<pdfrwt beam="2">  1       -2 0.11688792E-01 0.32910978E+03</pdfrwt>
<totfact> 0.46816127E+03</totfact>
</mgrwt>
</event>
<event>
 4    1  0.1749575E-004  0.2713482E+03  0.7818608E-02  0.1100510E+00
          2   -1    0    0  501    0  0.00000000000E+00  0.00000000000E+00  0.10507342666E+04  0.10507342666E+04  0.00000000000E+00 0. -1.
         -2   -1    0    0    0  501 -0.00000000000E+00 -0.00000000000E+00 -0.17518669544E+02  0.17518669544E+02  0.00000000000E+00 0. -1.
         25    1    1    2    0    0 -0.10488315605E+02 -0.60879293769E+02  0.46217500549E+03  0.48147900149E+03  0.12000000000E+03 0.  0.
         25    1    1    2    0    0  0.10488315605E+02  0.60879293769E+02  0.57104059153E+03  0.58677393462E+03  0.12000000000E+03 0.  0.
<mgrwt>
<rscale>  0 0.27134824E+03</rscale>
<asrwt>0</asrwt>
<pdfrwt beam="1">  1        2 0.16165138E+00 0.27134824E+03</pdfrwt>
<pdfrwt beam="2">  1       -2 0.26951808E-02 0.27134824E+03</pdfrwt>
<totfact> 0.12116516E+04</totfact>
</mgrwt>
</event>
<event>
 4    1  0.1749575E-004  0.2937668E+03  0.7818608E-02  0.1088399E+00
         -1   -1    0    0    0  501 -0.00000000000E+00  0.00000000000E+00  0.33821344066E+02  0.33821344066E+02  0.00000000000E+00 0.  1.
          1   -1    0    0  501    0  0.00000000000E+00 -0.00000000000E+00 -0.63790306491E+03  0.63790306491E+03  0.00000000000E+00 0.  1.
         25    1    1    2    0    0  0.54510896402E+02  0.63324914872E+02 -0.27025344141E+03  0.30727578047E+03  0.12000000000E+03 0.  0.
         25    1    1    2    0    0 -0.54510896402E+02 -0.63324914872E+02 -0.33382827943E+03  0.36444862850E+03  0.12000000000E+03 0.  0.
<mgrwt>
<rscale>  0 0.29376684E+03</rscale>
<asrwt>0</asrwt>
<pdfrwt beam="1">  1        1 0.98138924E-01 0.29376684E+03</pdfrwt>
<pdfrwt beam="2">  1       -1 0.52032842E-02 0.29376684E+03</pdfrwt>
<totfact> 0.53407031E+03</totfact>
</mgrwt>
</event>
<event>
 4    1  0.1749575E-004  0.2970464E+03  0.7818608E-02  0.1086726E+00
         -2   -1    0    0    0  501 -0.00000000000E+00  0.00000000000E+00  0.39769395102E+02  0.39769395102E+02  0.00000000000E+00 0.  1.
          2   -1    0    0  501    0  0.00000000000E+00 -0.00000000000E+00 -0.55467634591E+03  0.55467634591E+03  0.00000000000E+00 0.  1.
         25    1    1    2    0    0  0.64178803301E+02  0.18696646131E+02 -0.14441452129E+03  0.19930889927E+03  0.12000000000E+03 0.  0.
         25    1    1    2    0    0 -0.64178803301E+02 -0.18696646131E+02 -0.37049242952E+03  0.39513684174E+03  0.12000000000E+03 0.  0.
<mgrwt>
<rscale>  0 0.29704641E+03</rscale>
<asrwt>0</asrwt>
<pdfrwt beam="1">  1        2 0.85334818E-01 0.29704641E+03</pdfrwt>
<pdfrwt beam="2">  1       -2 0.61183688E-02 0.29704641E+03</pdfrwt>
<totfact> 0.79277682E+03</totfact>
</mgrwt>
</event>
<event>
 4    1  0.1749575E-004  0.2717544E+03  0.7818608E-02  0.1100280E+00
          1   -1    0    0  501    0  0.00000000000E+00  0.00000000000E+00  0.37381326775E+03  0.37381326775E+03  0.00000000000E+00 0. -1.
         -1   -1    0    0    0  501 -0.00000000000E+00 -0.00000000000E+00 -0.49389949941E+02  0.49389949941E+02  0.00000000000E+00 0. -1.
         25    1    1    2    0    0 -0.45291816164E+02 -0.34155919135E+02  0.20747107542E+03  0.24629702101E+03  0.12000000000E+03 0.  0.
         25    1    1    2    0    0  0.45291816164E+02  0.34155919135E+02  0.11695224239E+03  0.17690619668E+03  0.12000000000E+03 0.  0.
<mgrwt>
<rscale>  0 0.27175444E+03</rscale>
<asrwt>0</asrwt>
<pdfrwt beam="1">  1        1 0.57509732E-01 0.27175444E+03</pdfrwt>
<pdfrwt beam="2">  1       -1 0.75984541E-02 0.27175444E+03</pdfrwt>
<totfact> 0.61215062E+03</totfact>
</mgrwt>
</event>
<event>
 4    1  0.1749575E-004  0.2583293E+03  0.7818608E-02  0.1108151E+00
          1   -1    0    0  501    0  0.00000000000E+00  0.00000000000E+00  0.14850065459E+04  0.14850065459E+04  0.00000000000E+00 0.  1.
         -1   -1    0    0    0  501 -0.00000000000E+00 -0.00000000000E+00 -0.11234633054E+02  0.11234633054E+02  0.00000000000E+00 0.  1.
         25    1    1    2    0    0  0.89078898270E+01  0.20488340779E+02  0.98155091570E+03  0.98911138035E+03  0.12000000000E+03 0.  0.
         25    1    1    2    0    0 -0.89078898270E+01 -0.20488340779E+02  0.49222099713E+03  0.50712979859E+03  0.12000000000E+03 0.  0.
<mgrwt>
<rscale>  0 0.25832928E+03</rscale>
<asrwt>0</asrwt>
<pdfrwt beam="1">  1        1 0.22846239E+00 0.25832928E+03</pdfrwt>
<pdfrwt beam="2">  1       -1 0.17284063E-02 0.25832928E+03</pdfrwt>
<totfact> 0.62085286E+03</totfact>
</mgrwt>
</event>
<event>
 4    1  0.1749575E-004  0.2505883E+03  0.7818608E-02  0.1112934E+00
         -2   -1    0    0    0  501 -0.00000000000E+00  0.00000000000E+00  0.34131374504E+03  0.34131374504E+03  0.00000000000E+00 0.  1.
          2   -1    0    0  501    0  0.00000000000E+00 -0.00000000000E+00 -0.45994719116E+02  0.45994719116E+02  0.00000000000E+00 0.  1.
         25    1    1    2    0    0 -0.20893398123E+02 -0.29219044586E+02  0.14319512460E+03  0.19025017835E+03  0.12000000000E+03 0.  0.
         25    1    1    2    0    0  0.20893398123E+02  0.29219044586E+02  0.15212390132E+03  0.19705828580E+03  0.12000000000E+03 0.  0.
<mgrwt>
<rscale>  0 0.25058835E+03</rscale>
<asrwt>0</asrwt>
<pdfrwt beam="1">  1        2 0.70761109E-02 0.25058835E+03</pdfrwt>
<pdfrwt beam="2">  1       -2 0.52509805E-01 0.25058835E+03</pdfrwt>
<totfact> 0.34358731E+03</totfact>
</mgrwt>
</event>
<event>
 4    1  0.1749575E-004  0.2492702E+03  0.7818608E-02  0.1113767E+00
          1   -1    0    0  501    0  0.00000000000E+00  0.00000000000E+00  0.27858444213E+03  0.27858444213E+03  0.00000000000E+00 0. -1.
         -1   -1    0    0    0  501 -0.00000000000E+00 -0.00000000000E+00 -0.55760146242E+02  0.55760146242E+02  0.00000000000E+00 0. -1.
         25    1    1    2    0    0  0.17560905742E+02  0.28454801293E+02  0.11675179578E+03  0.17073090799E+03  0.12000000000E+03 0.  0.
         25    1    1    2    0    0 -0.17560905742E+02 -0.28454801293E+02  0.10607250011E+03  0.16361368038E+03  0.12000000000E+03 0.  0.
<mgrwt>
<rscale>  0 0.24927021E+03</rscale>
<asrwt>0</asrwt>
<pdfrwt beam="1">  1        1 0.42859144E-01 0.24927021E+03</pdfrwt>
<pdfrwt beam="2">  1       -1 0.85784842E-02 0.24927021E+03</pdfrwt>
<totfact> 0.73465140E+03</totfact>
</mgrwt>
</event>
<event>
 4    1  0.1749575E-004  0.3925770E+03  0.7818608E-02  0.1046381E+00
          2   -1    0    0  501    0  0.00000000000E+00  0.00000000000E+00  0.27871030016E+04  0.27871030016E+04  0.00000000000E+00 0.  1.
         -2   -1    0    0    0  501 -0.00000000000E+00 -0.00000000000E+00 -0.13824093767E+02  0.13824093767E+02  0.00000000000E+00 0.  1.
         25    1    1    2    0    0  0.14058565816E+03  0.30107890764E+02  0.18062168836E+04  0.18158992932E+04  0.12000000000E+03 0.  0.
         25    1    1    2    0    0 -0.14058565816E+03 -0.30107890764E+02  0.96706202418E+03  0.98502780213E+03  0.12000000000E+03 0.  0.
<mgrwt>
<rscale>  0 0.39257699E+03</rscale>
<asrwt>0</asrwt>
<pdfrwt beam="1">  1        2 0.42878463E+00 0.39257699E+03</pdfrwt>
<pdfrwt beam="2">  1       -2 0.21267859E-02 0.39257699E+03</pdfrwt>
<totfact> 0.19318188E+03</totfact>
</mgrwt>
</event>
<event>
 4    1  0.1749575E-004  0.2476711E+03  0.7818608E-02  0.1114786E+00
         -1   -1    0    0    0  501 -0.00000000000E+00  0.00000000000E+00  0.78518621782E+02  0.78518621782E+02  0.00000000000E+00 0. -1.
          1   -1    0    0  501    0  0.00000000000E+00 -0.00000000000E+00 -0.19530712969E+03  0.19530712969E+03  0.00000000000E+00 0. -1.
         25    1    1    2    0    0 -0.12810735872E+02  0.20719888228E+02 -0.37953527464E+02  0.12819476966E+03  0.12000000000E+03 0.  0.
         25    1    1    2    0    0  0.12810735872E+02 -0.20719888228E+02 -0.78834980447E+02  0.14563098181E+03  0.12000000000E+03 0.  0.
<mgrwt>
<rscale>  0 0.24767113E+03</rscale>
<asrwt>0</asrwt>
<pdfrwt beam="1">  1        1 0.30047251E-01 0.24767113E+03</pdfrwt>
<pdfrwt beam="2">  1       -1 0.12079788E-01 0.24767113E+03</pdfrwt>
<totfact> 0.67583326E+03</totfact>
</mgrwt>
</event>
<event>
 4    1  0.1749575E-004  0.2634125E+03  0.7818608E-02  0.1105110E+00
         -1   -1    0    0    0  501 -0.00000000000E+00  0.00000000000E+00  0.15615442268E+03  0.15615442268E+03  0.00000000000E+00 0. -1.
          1   -1    0    0  501    0  0.00000000000E+00 -0.00000000000E+00 -0.11108575310E+03  0.11108575310E+03  0.00000000000E+00 0. -1.
         25    1    1    2    0    0  0.62908233186E+01 -0.33640403714E+02  0.65280672132E+02  0.14082903598E+03  0.12000000000E+03 0.  0.
         25    1    1    2    0    0 -0.62908233186E+01  0.33640403714E+02 -0.20212002555E+02  0.12641113981E+03  0.12000000000E+03 0.  0.
<mgrwt>
<rscale>  0 0.26341246E+03</rscale>
<asrwt>0</asrwt>
<pdfrwt beam="1">  1        1 0.17090116E-01 0.26341246E+03</pdfrwt>
<pdfrwt beam="2">  1       -1 0.24023757E-01 0.26341246E+03</pdfrwt>
<totfact> 0.46292459E+03</totfact>
</mgrwt>
</event>
<event>
 4    1  0.1749575E-004  0.3007129E+03  0.7818608E-02  0.1084885E+00
         -4   -1    0    0    0  501 -0.00000000000E+00  0.00000000000E+00  0.19319943631E+03  0.19319943631E+03  0.00000000000E+00 0. -1.
          4   -1    0    0  501    0  0.00000000000E+00 -0.00000000000E+00 -0.11701409105E+03  0.11701409105E+03  0.00000000000E+00 0. -1.
         25    1    1    2    0    0  0.19602798397E+02  0.87381569255E+02  0.23976485232E+02  0.15163996899E+03  0.12000000000E+03 0.  0.
         25    1    1    2    0    0 -0.19602798397E+02 -0.87381569255E+02  0.52208860028E+02  0.15857355838E+03  0.12000000000E+03 0.  0.
<mgrwt>
<rscale>  0 0.30071286E+03</rscale>
<asrwt>0</asrwt>
<pdfrwt beam="1">  1        4 0.18002168E-01 0.30071286E+03</pdfrwt>
<pdfrwt beam="2">  1       -4 0.29722990E-01 0.30071286E+03</pdfrwt>
<totfact> 0.55942078E+02</totfact>
</mgrwt>
</event>
<event>
 4    1  0.1749575E-004  0.2536897E+03  0.7818608E-02  0.1110995E+00
          1   -1    0    0  501    0  0.00000000000E+00  0.00000000000E+00  0.15112468024E+03  0.15112468024E+03  0.00000000000E+00 0.  1.
         -1   -1    0    0    0  501 -0.00000000000E+00 -0.00000000000E+00 -0.10646586446E+03  0.10646586446E+03  0.00000000000E+00 0.  1.
         25    1    1    2    0    0  0.24820638870E+01 -0.30043116839E+02 -0.60443239650E+01  0.12387608067E+03  0.12000000000E+03 0.  0.
         25    1    1    2    0    0 -0.24820638870E+01  0.30043116839E+02  0.50703139741E+02  0.13371446403E+03  0.12000000000E+03 0.  0.
<mgrwt>
<rscale>  0 0.25368973E+03</rscale>
<asrwt>0</asrwt>
<pdfrwt beam="1">  1        1 0.23249951E-01 0.25368973E+03</pdfrwt>
<pdfrwt beam="2">  1       -1 0.16379364E-01 0.25368973E+03</pdfrwt>
<totfact> 0.57921632E+03</totfact>
</mgrwt>
</event>
<event>
 4    1  0.1749575E-004  0.3704226E+03  0.7818608E-02  0.1054531E+00
          1   -1    0    0  501    0  0.00000000000E+00  0.00000000000E+00  0.19913005952E+03  0.19913005952E+03  0.00000000000E+00 0. -1.
         -1   -1    0    0    0  501 -0.00000000000E+00 -0.00000000000E+00 -0.17226545458E+03  0.17226545458E+03  0.00000000000E+00 0. -1.
         25    1    1    2    0    0 -0.13398193409E+03  0.89889244717E+01 -0.29939499825E+02  0.18256049155E+03  0.12000000000E+03 0.  0.
         25    1    1    2    0    0  0.13398193409E+03 -0.89889244717E+01  0.56804104768E+02  0.18883502256E+03  0.12000000000E+03 0.  0.
<mgrwt>
<rscale>  0 0.37042262E+03</rscale>
<asrwt>0</asrwt>
<pdfrwt beam="1">  1        1 0.30635394E-01 0.37042262E+03</pdfrwt>
<pdfrwt beam="2">  1       -1 0.26502378E-01 0.37042262E+03</pdfrwt>
<totfact> 0.18693647E+03</totfact>
</mgrwt>
</event>
<event>
 4    1  0.1749575E-004  0.2666166E+03  0.7818608E-02  0.1103232E+00
         -2   -1    0    0    0  501 -0.00000000000E+00  0.00000000000E+00  0.15022109311E+02  0.15022109311E+02  0.00000000000E+00 0.  1.
          2   -1    0    0  501    0  0.00000000000E+00 -0.00000000000E+00 -0.11829962965E+04  0.11829962965E+04  0.00000000000E+00 0.  1.
         25    1    1    2    0    0  0.14501663081E+02 -0.19904184328E+02 -0.34772478107E+03  0.36867193839E+03  0.12000000000E+03 0.  0.
         25    1    1    2    0    0 -0.14501663081E+02  0.19904184328E+02 -0.82024940612E+03  0.82934646742E+03  0.12000000000E+03 0.  0.
<mgrwt>
<rscale>  0 0.26661658E+03</rscale>
<asrwt>0</asrwt>
<pdfrwt beam="1">  1        2 0.18199941E+00 0.26661658E+03</pdfrwt>
<pdfrwt beam="2">  1       -2 0.23110939E-02 0.26661658E+03</pdfrwt>
<totfact> 0.12726166E+04</totfact>
</mgrwt>
</event>
<event>
 4    1  0.1749575E-004  0.2767255E+03  0.7818608E-02  0.1097491E+00
         -1   -1    0    0    0  501 -0.00000000000E+00  0.00000000000E+00  0.20327944477E+02  0.20327944477E+02  0.00000000000E+00 0.  1.
          1   -1    0    0  501    0  0.00000000000E+00 -0.00000000000E+00 -0.94177008752E+03  0.94177008752E+03  0.00000000000E+00 0.  1.
         25    1    1    2    0    0  0.50340225649E+02 -0.68610553946E+01 -0.29902398643E+03  0.32618485076E+03  0.12000000000E+03 0.  0.
         25    1    1    2    0    0 -0.50340225649E+02  0.68610553946E+01 -0.62241815661E+03  0.63591318124E+03  0.12000000000E+03 0.  0.
<mgrwt>
<rscale>  0 0.27672550E+03</rscale>
<asrwt>0</asrwt>
<pdfrwt beam="1">  1        1 0.14488771E+00 0.27672550E+03</pdfrwt>
<pdfrwt beam="2">  1       -1 0.31273760E-02 0.27672550E+03</pdfrwt>
<totfact> 0.62774641E+03</totfact>
</mgrwt>
</event>
<event>
 4    1  0.1749575E-004  0.4008530E+03  0.7818608E-02  0.1043485E+00
         -1   -1    0    0    0  501 -0.00000000000E+00  0.00000000000E+00  0.13834775853E+02  0.13834775853E+02  0.00000000000E+00 0.  1.
          1   -1    0    0  501    0  0.00000000000E+00 -0.00000000000E+00 -0.29036095327E+04  0.29036095327E+04  0.00000000000E+00 0.  1.
         25    1    1    2    0    0  0.17982197482E+02  0.67181138965E+02 -0.24979271785E+04  0.25017747408E+04  0.12000000000E+03 0.  0.
         25    1    1    2    0    0 -0.17982197482E+02 -0.67181138965E+02 -0.39184757836E+03  0.41566956771E+03  0.12000000000E+03 0.  0.
<mgrwt>
<rscale>  0 0.40085303E+03</rscale>
<asrwt>0</asrwt>
<pdfrwt beam="1">  1        1 0.44670927E+00 0.40085303E+03</pdfrwt>
<pdfrwt beam="2">  1       -1 0.21284265E-02 0.40085303E+03</pdfrwt>
<totfact> 0.51844072E+02</totfact>
</mgrwt>
</event>
<event>
 4    1  0.1749575E-004  0.3019505E+03  0.7818608E-02  0.1084270E+00
         -1   -1    0    0    0  501 -0.00000000000E+00  0.00000000000E+00  0.11202810979E+02  0.11202810979E+02  0.00000000000E+00 0. -1.
          1   -1    0    0  501    0  0.00000000000E+00 -0.00000000000E+00 -0.20346259300E+04  0.20346259300E+04  0.00000000000E+00 0. -1.
         25    1    1    2    0    0 -0.65829184383E+02 -0.45499762738E+02 -0.70947961857E+03  0.72399243027E+03  0.12000000000E+03 0.  0.
         25    1    1    2    0    0  0.65829184383E+02  0.45499762738E+02 -0.13139435005E+04  0.13218363107E+04  0.12000000000E+03 0.  0.
<mgrwt>
<rscale>  0 0.30195052E+03</rscale>
<asrwt>0</asrwt>
<pdfrwt beam="1">  1        1 0.31301978E+00 0.30195052E+03</pdfrwt>
<pdfrwt beam="2">  1       -1 0.17235071E-02 0.30195052E+03</pdfrwt>
<totfact> 0.27282150E+03</totfact>
</mgrwt>
</event>
<event>
 4    1  0.1749575E-004  0.2570586E+03  0.7818608E-02  0.1108923E+00
          2   -1    0    0  501    0  0.00000000000E+00  0.00000000000E+00  0.90163713070E+03  0.90163713070E+03  0.00000000000E+00 0. -1.
         -2   -1    0    0    0  501 -0.00000000000E+00 -0.00000000000E+00 -0.18321984955E+02  0.18321984955E+02  0.00000000000E+00 0. -1.
         25    1    1    2    0    0 -0.17507088182E+01  0.43921798707E+02  0.49067428555E+03  0.50704382836E+03  0.12000000000E+03 0.  0.
         25    1    1    2    0    0  0.17507088182E+01 -0.43921798707E+02  0.39264086020E+03  0.41291528729E+03  0.12000000000E+03 0.  0.
<mgrwt>
<rscale>  0 0.25705861E+03</rscale>
<asrwt>0</asrwt>
<pdfrwt beam="1">  1        2 0.13871337E+00 0.25705861E+03</pdfrwt>
<pdfrwt beam="2">  1       -2 0.28187676E-02 0.25705861E+03</pdfrwt>
<totfact> 0.13997554E+04</totfact>
</mgrwt>
</event>
<event>
 4    1  0.1749575E-004  0.3233736E+03  0.7818608E-02  0.1074107E+00
          2   -1    0    0  501    0  0.00000000000E+00  0.00000000000E+00  0.56451449512E+03  0.56451449512E+03  0.00000000000E+00 0.  1.
         -2   -1    0    0    0  501 -0.00000000000E+00 -0.00000000000E+00 -0.46309920597E+02  0.46309920597E+02  0.00000000000E+00 0.  1.
         25    1    1    2    0    0 -0.10599720664E+02  0.36737789695E+02  0.45062536068E+03  0.46789446989E+03  0.12000000000E+03 0.  0.
         25    1    1    2    0    0  0.10599720664E+02 -0.36737789695E+02  0.67579213847E+02  0.14292994583E+03  0.12000000000E+03 0.  0.
<mgrwt>
<rscale>  0 0.32337360E+03</rscale>
<asrwt>0</asrwt>
<pdfrwt beam="1">  1        2 0.86848379E-01 0.32337360E+03</pdfrwt>
<pdfrwt beam="2">  1       -2 0.71246036E-02 0.32337360E+03</pdfrwt>
<totfact> 0.61527857E+03</totfact>
</mgrwt>
</event>
<event>
 4    1  0.1749575E-004  0.3342173E+03  0.7818608E-02  0.1069286E+00
         -1   -1    0    0    0  501 -0.00000000000E+00  0.00000000000E+00  0.13988930034E+04  0.13988930034E+04  0.00000000000E+00 0. -1.
          1   -1    0    0  501    0  0.00000000000E+00 -0.00000000000E+00 -0.19962423792E+02  0.19962423792E+02  0.00000000000E+00 0. -1.
         25    1    1    2    0    0 -0.26139897787E+02  0.47148565229E+02  0.25199219125E+03  0.28426457027E+03  0.12000000000E+03 0.  0.
         25    1    1    2    0    0  0.26139897787E+02 -0.47148565229E+02  0.11269383883E+04  0.11345908569E+04  0.12000000000E+03 0.  0.
<mgrwt>
<rscale>  0 0.33421726E+03</rscale>
<asrwt>0</asrwt>
<pdfrwt beam="1">  1        1 0.30711432E-02 0.33421726E+03</pdfrwt>
<pdfrwt beam="2">  1       -1 0.21521423E+00 0.33421726E+03</pdfrwt>
<totfact> 0.43666404E+02</totfact>
</mgrwt>
</event>
<event>
 4    1  0.1749575E-004  0.5517904E+03  0.7818608E-02  0.1001080E+00
          1   -1    0    0  501    0  0.00000000000E+00  0.00000000000E+00  0.12468022394E+04  0.12468022394E+04  0.00000000000E+00 0. -1.
         -1   -1    0    0    0  501 -0.00000000000E+00 -0.00000000000E+00 -0.61050714535E+02  0.61050714535E+02  0.00000000000E+00 0. -1.
         25    1    1    2    0    0  0.62293649866E+02  0.33325105994E+02  0.28354799175E+02  0.14210931053E+03  0.12000000000E+03 0.  0.
         25    1    1    2    0    0 -0.62293649866E+02 -0.33325105994E+02  0.11573967257E+04  0.11657436434E+04  0.12000000000E+03 0.  0.
<mgrwt>
<rscale>  0 0.55179042E+03</rscale>
<asrwt>0</asrwt>
<pdfrwt beam="1">  1        1 0.19181571E+00 0.55179042E+03</pdfrwt>
<pdfrwt beam="2">  1       -1 0.93924185E-02 0.55179042E+03</pdfrwt>
<totfact> 0.70286381E+02</totfact>
</mgrwt>
</event>
<event>
 4    1  0.1749575E-004  0.2705242E+03  0.7818608E-02  0.1100980E+00
         -1   -1    0    0    0  501 -0.00000000000E+00  0.00000000000E+00  0.36776595244E+03  0.36776595244E+03  0.00000000000E+00 0. -1.
          1   -1    0    0  501    0  0.00000000000E+00 -0.00000000000E+00 -0.49748600957E+02  0.49748600957E+02  0.00000000000E+00 0. -1.
         25    1    1    2    0    0  0.95021646227E+01  0.42432183673E+02  0.89900545585E+02  0.15611819061E+03  0.12000000000E+03 0.  0.
         25    1    1    2    0    0 -0.95021646227E+01 -0.42432183673E+02  0.22811680589E+03  0.26139636278E+03  0.12000000000E+03 0.  0.
<mgrwt>
<rscale>  0 0.27052424E+03</rscale>
<asrwt>0</asrwt>
<pdfrwt beam="1">  1        1 0.76536312E-02 0.27052424E+03</pdfrwt>
<pdfrwt beam="2">  1       -1 0.56579375E-01 0.27052424E+03</pdfrwt>
<totfact> 0.29940569E+03</totfact>
</mgrwt>
</event>
<event>
 4    1  0.1749575E-004  0.3893022E+03  0.7818608E-02  0.1047548E+00
          1   -1    0    0  501    0  0.00000000000E+00  0.00000000000E+00  0.21230726834E+02  0.21230726834E+02  0.00000000000E+00 0.  1.
         -1   -1    0    0    0  501 -0.00000000000E+00 -0.00000000000E+00 -0.17846327872E+04  0.17846327872E+04  0.00000000000E+00 0.  1.
         25    1    1    2    0    0  0.15113292294E+03 -0.18248644343E+02 -0.96401415237E+03  0.98330944234E+03  0.12000000000E+03 0.  0.
         25    1    1    2    0    0 -0.15113292294E+03  0.18248644343E+02 -0.79938790804E+03  0.82255407175E+03  0.12000000000E+03 0.  0.
<mgrwt>
<rscale>  0 0.38930220E+03</rscale>
<asrwt>0</asrwt>
<pdfrwt beam="1">  1        1 0.32662647E-02 0.38930220E+03</pdfrwt>
<pdfrwt beam="2">  1       -1 0.27455897E+00 0.38930220E+03</pdfrwt>
<totfact> 0.16673855E+02</totfact>
</mgrwt>
</event>
<event>
 4    1  0.1749575E-004  0.2453997E+03  0.7818608E-02  0.1116247E+00
          1   -1    0    0  501    0  0.00000000000E+00  0.00000000000E+00  0.35939713192E+03  0.35939713192E+03  0.00000000000E+00 0.  1.
         -1   -1    0    0    0  501 -0.00000000000E+00 -0.00000000000E+00 -0.41890298738E+02  0.41890298738E+02  0.00000000000E+00 0.  1.
         25    1    1    2    0    0 -0.22075363997E+02 -0.68446770670E+01  0.14075968733E+03  0.18640670824E+03  0.12000000000E+03 0.  0.
         25    1    1    2    0    0  0.22075363997E+02  0.68446770670E+01  0.17674714585E+03  0.21488072242E+03  0.12000000000E+03 0.  0.
<mgrwt>
<rscale>  0 0.24539970E+03</rscale>
<asrwt>0</asrwt>
<pdfrwt beam="1">  1        1 0.55291864E-01 0.24539970E+03</pdfrwt>
<pdfrwt beam="2">  1       -1 0.64446616E-02 0.24539970E+03</pdfrwt>
<totfact> 0.82292209E+03</totfact>
</mgrwt>
</event>
<event>
 4    1  0.1749575E-004  0.4333640E+03  0.7818608E-02  0.1032803E+00
          2   -1    0    0  501    0  0.00000000000E+00  0.00000000000E+00  0.26878399011E+02  0.26878399011E+02  0.00000000000E+00 0.  1.
         -2   -1    0    0    0  501 -0.00000000000E+00 -0.00000000000E+00 -0.17467959553E+04  0.17467959553E+04  0.00000000000E+00 0.  1.
         25    1    1    2    0    0  0.12750662529E+03 -0.35538024318E+02 -0.13617271818E+04  0.13733979061E+04  0.12000000000E+03 0.  0.
         25    1    1    2    0    0 -0.12750662529E+03  0.35538024318E+02 -0.35819037450E+03  0.40027644828E+03  0.12000000000E+03 0.  0.
<mgrwt>
<rscale>  0 0.43336395E+03</rscale>
<asrwt>0</asrwt>
<pdfrwt beam="1">  1        2 0.41351366E-02 0.43336395E+03</pdfrwt>
<pdfrwt beam="2">  1       -2 0.26873795E+00 0.43336395E+03</pdfrwt>
<totfact> 0.11153283E+02</totfact>
</mgrwt>
</event>
<event>
 4    1  0.1749575E-004  0.2509528E+03  0.7818608E-02  0.1112704E+00
          1   -1    0    0  501    0  0.00000000000E+00  0.00000000000E+00  0.11036096638E+04  0.11036096638E+04  0.00000000000E+00 0.  1.
         -1   -1    0    0    0  501 -0.00000000000E+00 -0.00000000000E+00 -0.14266215431E+02  0.14266215431E+02  0.00000000000E+00 0.  1.
         25    1    1    2    0    0 -0.18224065446E+02 -0.88721672488E+01  0.40857147591E+03  0.42631148570E+03  0.12000000000E+03 0.  0.
         25    1    1    2    0    0  0.18224065446E+02  0.88721672488E+01  0.68077197245E+03  0.69156439352E+03  0.12000000000E+03 0.  0.
<mgrwt>
<rscale>  0 0.25095285E+03</rscale>
<asrwt>0</asrwt>
<pdfrwt beam="1">  1        1 0.16978603E+00 0.25095285E+03</pdfrwt>
<pdfrwt beam="2">  1       -1 0.21948032E-02 0.25095285E+03</pdfrwt>
<totfact> 0.79933503E+03</totfact>
</mgrwt>
</event>
<event>
 4    1  0.1749575E-004  0.2517903E+03  0.7818608E-02  0.1112179E+00
          1   -1    0    0  501    0  0.00000000000E+00  0.00000000000E+00  0.29066537040E+03  0.29066537040E+03  0.00000000000E+00 0.  1.
         -1   -1    0    0    0  501 -0.00000000000E+00 -0.00000000000E+00 -0.54528662391E+02  0.54528662391E+02  0.00000000000E+00 0.  1.
         25    1    1    2    0    0 -0.18730705308E+02  0.20379242926E+02  0.15390890896E+03  0.19711444676E+03  0.12000000000E+03 0.  0.
         25    1    1    2    0    0  0.18730705308E+02 -0.20379242926E+02  0.82227799053E+02  0.14807958604E+03  0.12000000000E+03 0.  0.
<mgrwt>
<rscale>  0 0.25179034E+03</rscale>
<asrwt>0</asrwt>
<pdfrwt beam="1">  1        1 0.44717748E-01 0.25179034E+03</pdfrwt>
<pdfrwt beam="2">  1       -1 0.83890252E-02 0.25179034E+03</pdfrwt>
<totfact> 0.72108898E+03</totfact>
</mgrwt>
</event>
<event>
 4    1  0.1749575E-004  0.2700619E+03  0.7818608E-02  0.1101244E+00
         -3   -1    0    0    0  501 -0.00000000000E+00  0.00000000000E+00  0.10236527420E+04  0.10236527420E+04  0.00000000000E+00 0. -1.
          3   -1    0    0  501    0  0.00000000000E+00 -0.00000000000E+00 -0.17812050640E+02  0.17812050640E+02  0.00000000000E+00 0. -1.
         25    1    1    2    0    0  0.37270797889E+02  0.39915696553E+02  0.39042338211E+03  0.41208347759E+03  0.12000000000E+03 0.  0.
         25    1    1    2    0    0 -0.37270797889E+02 -0.39915696553E+02  0.61541730924E+03  0.62938131504E+03  0.12000000000E+03 0.  0.
<mgrwt>
<rscale>  0 0.27006188E+03</rscale>
<asrwt>0</asrwt>
<pdfrwt beam="1">  1        3 0.27403163E-02 0.27006188E+03</pdfrwt>
<pdfrwt beam="2">  1       -3 0.15748499E+00 0.27006188E+03</pdfrwt>
<totfact> 0.44849093E+02</totfact>
</mgrwt>
</event>
<event>
 4    1  0.1749575E-004  0.3000474E+03  0.7818608E-02  0.1085217E+00
          3   -1    0    0  501    0  0.00000000000E+00  0.00000000000E+00  0.96309947630E+02  0.96309947630E+02  0.00000000000E+00 0. -1.
         -3   -1    0    0    0  501 -0.00000000000E+00 -0.00000000000E+00 -0.23369457501E+03  0.23369457501E+03  0.00000000000E+00 0. -1.
         25    1    1    2    0    0  0.96830009338E+01 -0.79434880021E+02 -0.11408594312E+03  0.18390014434E+03  0.12000000000E+03 0.  0.
         25    1    1    2    0    0 -0.96830009338E+01  0.79434880021E+02 -0.23298684265E+02  0.14610437830E+03  0.12000000000E+03 0.  0.
<mgrwt>
<rscale>  0 0.30004741E+03</rscale>
<asrwt>0</asrwt>
<pdfrwt beam="1">  1        3 0.14816915E-01 0.30004741E+03</pdfrwt>
<pdfrwt beam="2">  1       -3 0.35953011E-01 0.30004741E+03</pdfrwt>
<totfact> 0.74119461E+02</totfact>
</mgrwt>
</event>
<event>
 4    1  0.1749575E-004  0.2837301E+03  0.7818608E-02  0.1093669E+00
          3   -1    0    0  501    0  0.00000000000E+00  0.00000000000E+00  0.51017042663E+03  0.51017042663E+03  0.00000000000E+00 0. -1.
         -3   -1    0    0    0  501 -0.00000000000E+00 -0.00000000000E+00 -0.39448962634E+02  0.39448962634E+02  0.00000000000E+00 0. -1.
         25    1    1    2    0    0  0.40452202130E+02  0.59991506977E+02  0.19246619648E+03  0.23807267453E+03  0.12000000000E+03 0.  0.
         25    1    1    2    0    0 -0.40452202130E+02 -0.59991506977E+02  0.27825526752E+03  0.31154671474E+03  0.12000000000E+03 0.  0.
<mgrwt>
<rscale>  0 0.28373011E+03</rscale>
<asrwt>0</asrwt>
<pdfrwt beam="1">  1        3 0.78487754E-01 0.28373011E+03</pdfrwt>
<pdfrwt beam="2">  1       -3 0.60690715E-02 0.28373011E+03</pdfrwt>
<totfact> 0.66254009E+02</totfact>
</mgrwt>
</event>
<event>
 4    1  0.1749575E-004  0.4227695E+03  0.7818608E-02  0.1036169E+00
         -1   -1    0    0    0  501 -0.00000000000E+00  0.00000000000E+00  0.37256131632E+02  0.37256131632E+02  0.00000000000E+00 0. -1.
          1   -1    0    0  501    0  0.00000000000E+00 -0.00000000000E+00 -0.11993599469E+04  0.11993599469E+04  0.00000000000E+00 0. -1.
         25    1    1    2    0    0  0.16632777963E+03  0.32482355904E+02 -0.69671030674E+03  0.72699744514E+03  0.12000000000E+03 0.  0.
         25    1    1    2    0    0 -0.16632777963E+03 -0.32482355904E+02 -0.46539350854E+03  0.50961863340E+03  0.12000000000E+03 0.  0.
<mgrwt>
<rscale>  0 0.42276950E+03</rscale>
<asrwt>0</asrwt>
<pdfrwt beam="1">  1        1 0.18451692E+00 0.42276950E+03</pdfrwt>
<pdfrwt beam="2">  1       -1 0.57317123E-02 0.42276950E+03</pdfrwt>
<totfact> 0.16381815E+03</totfact>
</mgrwt>
</event>
<event>
 4    1  0.1749575E-004  0.2686649E+03  0.7818608E-02  0.1102046E+00
         -1   -1    0    0    0  501 -0.00000000000E+00  0.00000000000E+00  0.90196315975E+02  0.90196315975E+02  0.00000000000E+00 0.  1.
          1   -1    0    0  501    0  0.00000000000E+00 -0.00000000000E+00 -0.20006586850E+03  0.20006586850E+03  0.00000000000E+00 0.  1.
         25    1    1    2    0    0  0.40011969678E+02 -0.42147331554E+02 -0.37253052953E+02  0.13843823615E+03  0.12000000000E+03 0.  0.
         25    1    1    2    0    0 -0.40011969678E+02  0.42147331554E+02 -0.72616499577E+02  0.15182394833E+03  0.12000000000E+03 0.  0.
<mgrwt>
<rscale>  0 0.26866488E+03</rscale>
<asrwt>0</asrwt>
<pdfrwt beam="1">  1        1 0.30779364E-01 0.26866488E+03</pdfrwt>
<pdfrwt beam="2">  1       -1 0.13876356E-01 0.26866488E+03</pdfrwt>
<totfact> 0.52913510E+03</totfact>
</mgrwt>
</event>
<event>
 4    1  0.1749575E-004  0.2833107E+03  0.7818608E-02  0.1093894E+00
         -2   -1    0    0    0  501 -0.00000000000E+00  0.00000000000E+00  0.86937945971E+02  0.86937945971E+02  0.00000000000E+00 0. -1.
          2   -1    0    0  501    0  0.00000000000E+00 -0.00000000000E+00 -0.23081110857E+03  0.23081110857E+03  0.00000000000E+00 0. -1.
         25    1    1    2    0    0 -0.72723715190E+02 -0.18816069051E+02 -0.66504207031E+02  0.15641480991E+03  0.12000000000E+03 0.  0.
         25    1    1    2    0    0  0.72723715190E+02  0.18816069051E+02 -0.77368955566E+02  0.16133424463E+03  0.12000000000E+03 0.  0.
<mgrwt>
<rscale>  0 0.28331074E+03</rscale>
<asrwt>0</asrwt>
<pdfrwt beam="1">  1        2 0.35509401E-01 0.28331074E+03</pdfrwt>
<pdfrwt beam="2">  1       -2 0.13375069E-01 0.28331074E+03</pdfrwt>
<totfact> 0.59910877E+03</totfact>
</mgrwt>
</event>
<event>
 4    1  0.1749575E-004  0.2493882E+03  0.7818608E-02  0.1113692E+00
          2   -1    0    0  501    0  0.00000000000E+00  0.00000000000E+00  0.65295068965E+02  0.65295068965E+02  0.00000000000E+00 0. -1.
         -2   -1    0    0    0  501 -0.00000000000E+00 -0.00000000000E+00 -0.23812847990E+03  0.23812847990E+03  0.00000000000E+00 0. -1.
         25    1    1    2    0    0 -0.30076807971E+02 -0.11456461530E+01 -0.67462824676E+02  0.14091543420E+03  0.12000000000E+03 0.  0.
         25    1    1    2    0    0  0.30076807971E+02  0.11456461530E+01 -0.10537058626E+03  0.16250811466E+03  0.12000000000E+03 0.  0.
<mgrwt>
<rscale>  0 0.24938818E+03</rscale>
<asrwt>0</asrwt>
<pdfrwt beam="1">  1        2 0.10045395E-01 0.24938818E+03</pdfrwt>
<pdfrwt beam="2">  1       -2 0.36635151E-01 0.24938818E+03</pdfrwt>
<totfact> 0.44419169E+03</totfact>
</mgrwt>
</event>
<event>
 4    1  0.1749575E-004  0.2556541E+03  0.7818608E-02  0.1109783E+00
         -1   -1    0    0    0  501 -0.00000000000E+00  0.00000000000E+00  0.29464093778E+02  0.29464093778E+02  0.00000000000E+00 0. -1.
          1   -1    0    0  501    0  0.00000000000E+00 -0.00000000000E+00 -0.55456483367E+03  0.55456483367E+03  0.00000000000E+00 0. -1.
         25    1    1    2    0    0 -0.31889861792E+01 -0.34210430465E+02 -0.32549627765E+03  0.34860916504E+03  0.12000000000E+03 0.  0.
         25    1    1    2    0    0  0.31889861792E+01  0.34210430465E+02 -0.19960446225E+03  0.23541976241E+03  0.12000000000E+03 0.  0.
<mgrwt>
<rscale>  0 0.25565407E+03</rscale>
<asrwt>0</asrwt>
<pdfrwt beam="1">  1        1 0.85317668E-01 0.25565407E+03</pdfrwt>
<pdfrwt beam="2">  1       -1 0.45329374E-02 0.25565407E+03</pdfrwt>
<totfact> 0.79390782E+03</totfact>
</mgrwt>
</event>
<event>
 4    1  0.1749575E-004  0.2729577E+03  0.7818608E-02  0.1099599E+00
         -2   -1    0    0    0  501 -0.00000000000E+00  0.00000000000E+00  0.13128644848E+02  0.13128644848E+02  0.00000000000E+00 0.  1.
          2   -1    0    0  501    0  0.00000000000E+00 -0.00000000000E+00 -0.14187656604E+04  0.14187656604E+04  0.00000000000E+00 0.  1.
         25    1    1    2    0    0  0.47067082296E+02  0.96614156770E+01 -0.93254934575E+03  0.94146531293E+03  0.12000000000E+03 0.  0.
         25    1    1    2    0    0 -0.47067082296E+02 -0.96614156770E+01 -0.47308766981E+03  0.49042899233E+03  0.12000000000E+03 0.  0.
<mgrwt>
<rscale>  0 0.27295766E+03</rscale>
<asrwt>0</asrwt>
<pdfrwt beam="1">  1        2 0.21827174E+00 0.27295766E+03</pdfrwt>
<pdfrwt beam="2">  1       -2 0.20197906E-02 0.27295766E+03</pdfrwt>
<totfact> 0.11495764E+04</totfact>
</mgrwt>
</event>
<event>
 4    1  0.1749575E-004  0.2705499E+03  0.7818608E-02  0.1100965E+00
          3   -1    0    0  501    0  0.00000000000E+00  0.00000000000E+00  0.31321754567E+02  0.31321754567E+02  0.00000000000E+00 0. -1.
         -3   -1    0    0    0  501 -0.00000000000E+00 -0.00000000000E+00 -0.58423650821E+03  0.58423650821E+03  0.00000000000E+00 0. -1.
         25    1    1    2    0    0  0.27405336120E+02 -0.32873605233E+02 -0.17300187545E+03  0.21485198458E+03  0.12000000000E+03 0.  0.
         25    1    1    2    0    0 -0.27405336120E+02  0.32873605233E+02 -0.37991287819E+03  0.40070627819E+03  0.12000000000E+03 0.  0.
<mgrwt>
<rscale>  0 0.27054990E+03</rscale>
<asrwt>0</asrwt>
<pdfrwt beam="1">  1        3 0.48187315E-02 0.27054990E+03</pdfrwt>
<pdfrwt beam="2">  1       -3 0.89882540E-01 0.27054990E+03</pdfrwt>
<totfact> 0.70608031E+02</totfact>
</mgrwt>
</event>
<event>
 4    1  0.1749575E-004  0.3103890E+03  0.7818608E-02  0.1080160E+00
         -2   -1    0    0    0  501 -0.00000000000E+00  0.00000000000E+00  0.71674490088E+02  0.71674490088E+02  0.00000000000E+00 0. -1.
          2   -1    0    0  501    0  0.00000000000E+00 -0.00000000000E+00 -0.33603773593E+03  0.33603773593E+03  0.00000000000E+00 0. -1.
         25    1    1    2    0    0  0.83097537681E+02  0.50495895543E+02 -0.11224775031E+03  0.19093086101E+03  0.12000000000E+03 0.  0.
         25    1    1    2    0    0 -0.83097537681E+02 -0.50495895543E+02 -0.15211549553E+03  0.21678136501E+03  0.12000000000E+03 0.  0.
<mgrwt>
<rscale>  0 0.31038900E+03</rscale>
<asrwt>0</asrwt>
<pdfrwt beam="1">  1        2 0.51698113E-01 0.31038900E+03</pdfrwt>
<pdfrwt beam="2">  1       -2 0.11026845E-01 0.31038900E+03</pdfrwt>
<totfact> 0.54733462E+03</totfact>
</mgrwt>
</event>
<event>
 4    1  0.1749575E-004  0.2424904E+03  0.7818608E-02  0.1118145E+00
         -2   -1    0    0    0  501 -0.00000000000E+00  0.00000000000E+00  0.10692511595E+02  0.10692511595E+02  0.00000000000E+00 0. -1.
          2   -1    0    0  501    0  0.00000000000E+00 -0.00000000000E+00 -0.13748310651E+04  0.13748310651E+04  0.00000000000E+00 0. -1.
         25    1    1    2    0    0  0.49017087982E+01 -0.12829996247E+02 -0.74247326321E+03  0.75223346252E+03  0.12000000000E+03 0.  0.
         25    1    1    2    0    0 -0.49017087982E+01  0.12829996247E+02 -0.62166529026E+03  0.63329011414E+03  0.12000000000E+03 0.  0.
<mgrwt>
<rscale>  0 0.24249039E+03</rscale>
<asrwt>0</asrwt>
<pdfrwt beam="1">  1        2 0.21151255E+00 0.24249039E+03</pdfrwt>
<pdfrwt beam="2">  1       -2 0.16450012E-02 0.24249039E+03</pdfrwt>
<totfact> 0.16349393E+04</totfact>
</mgrwt>
</event>
<event>
 4    1  0.1749575E-004  0.2459521E+03  0.7818608E-02  0.1115890E+00
         -1   -1    0    0    0  501 -0.00000000000E+00  0.00000000000E+00  0.17743923148E+03  0.17743923148E+03  0.00000000000E+00 0. -1.
          1   -1    0    0  501    0  0.00000000000E+00 -0.00000000000E+00 -0.85229788031E+02  0.85229788031E+02  0.00000000000E+00 0. -1.
         25    1    1    2    0    0 -0.14424908310E+02 -0.64489971720E+01  0.69342309984E+02  0.13949201948E+03  0.12000000000E+03 0.  0.
         25    1    1    2    0    0  0.14424908310E+02  0.64489971720E+01  0.22867133465E+02  0.12317700003E+03  0.12000000000E+03 0.  0.
<mgrwt>
<rscale>  0 0.24595209E+03</rscale>
<asrwt>0</asrwt>
<pdfrwt beam="1">  1        1 0.13112275E-01 0.24595209E+03</pdfrwt>
<pdfrwt beam="2">  1       -1 0.27298343E-01 0.24595209E+03</pdfrwt>
<totfact> 0.52814899E+03</totfact>
</mgrwt>
</event>
<event>
 4    1  0.1749575E-004  0.2415705E+03  0.7818608E-02  0.1118751E+00
         -2   -1    0    0    0  501 -0.00000000000E+00  0.00000000000E+00  0.33661479943E+02  0.33661479943E+02  0.00000000000E+00 0.  1.
          2   -1    0    0  501    0  0.00000000000E+00 -0.00000000000E+00 -0.43340568552E+03  0.43340568552E+03  0.00000000000E+00 0.  1.
         25    1    1    2    0    0 -0.54339056697E+01  0.12453744569E+02 -0.19579176414E+03  0.23004138322E+03  0.12000000000E+03 0.  0.
         25    1    1    2    0    0  0.54339056697E+01 -0.12453744569E+02 -0.20395244144E+03  0.23702578225E+03  0.12000000000E+03 0.  0.
<mgrwt>
<rscale>  0 0.24157050E+03</rscale>
<asrwt>0</asrwt>
<pdfrwt beam="1">  1        2 0.66677796E-01 0.24157050E+03</pdfrwt>
<pdfrwt beam="2">  1       -2 0.51786894E-02 0.24157050E+03</pdfrwt>
<totfact> 0.13357392E+04</totfact>
</mgrwt>
</event>
<event>
 4    1  0.1749575E-004  0.2656870E+03  0.7818608E-02  0.1103774E+00
         -3   -1    0    0    0  501 -0.00000000000E+00  0.00000000000E+00  0.15320283326E+03  0.15320283326E+03  0.00000000000E+00 0.  1.
          3   -1    0    0  501    0  0.00000000000E+00 -0.00000000000E+00 -0.11518974401E+03  0.11518974401E+03  0.00000000000E+00 0.  1.
         25    1    1    2    0    0 -0.14119663406E+02  0.16800228826E+02 -0.34119712153E+02  0.12667188852E+03  0.12000000000E+03 0.  0.
         25    1    1    2    0    0  0.14119663406E+02 -0.16800228826E+02  0.72132801396E+02  0.14172068875E+03  0.12000000000E+03 0.  0.
<mgrwt>
<rscale>  0 0.26568700E+03</rscale>
<asrwt>0</asrwt>
<pdfrwt beam="1">  1        3 0.17721499E-01 0.26568700E+03</pdfrwt>
<pdfrwt beam="2">  1       -3 0.23569667E-01 0.26568700E+03</pdfrwt>
<totfact> 0.11770294E+03</totfact>
</mgrwt>
</event>
<event>
 4    1  0.1749575E-004  0.2838762E+03  0.7818608E-02  0.1093591E+00
          2   -1    0    0  501    0  0.00000000000E+00  0.00000000000E+00  0.29860845829E+03  0.29860845829E+03  0.00000000000E+00 0. -1.
         -2   -1    0    0    0  501 -0.00000000000E+00 -0.00000000000E+00 -0.67467672145E+02  0.67467672145E+02  0.00000000000E+00 0. -1.
         25    1    1    2    0    0  0.37834287918E+02  0.28169022857E+02  0.39044967470E+02  0.13471984514E+03  0.12000000000E+03 0.  0.
         25    1    1    2    0    0 -0.37834287918E+02 -0.28169022857E+02  0.19209581868E+03  0.23135628529E+03  0.12000000000E+03 0.  0.
<mgrwt>
<rscale>  0 0.28387615E+03</rscale>
<asrwt>0</asrwt>
<pdfrwt beam="1">  1        2 0.45939762E-01 0.28387615E+03</pdfrwt>
<pdfrwt beam="2">  1       -2 0.10379642E-01 0.28387615E+03</pdfrwt>
<totfact> 0.68305601E+03</totfact>
</mgrwt>
</event>
<event>
 4    1  0.1749575E-004  0.3046821E+03  0.7818608E-02  0.1082923E+00
          1   -1    0    0  501    0  0.00000000000E+00  0.00000000000E+00  0.19022331508E+04  0.19022331508E+04  0.00000000000E+00 0.  1.
         -1   -1    0    0    0  501 -0.00000000000E+00 -0.00000000000E+00 -0.12200292920E+02  0.12200292920E+02  0.00000000000E+00 0.  1.
         25    1    1    2    0    0  0.92340499498E+02 -0.24871804538E+01  0.10491856341E+04  0.10600582290E+04  0.12000000000E+03 0.  0.
         25    1    1    2    0    0 -0.92340499498E+02  0.24871804538E+01  0.84084722375E+03  0.85437521476E+03  0.12000000000E+03 0.  0.
<mgrwt>
<rscale>  0 0.30468214E+03</rscale>
<asrwt>0</asrwt>
<pdfrwt beam="1">  1        1 0.29265102E+00 0.30468214E+03</pdfrwt>
<pdfrwt beam="2">  1       -1 0.18769697E-02 0.30468214E+03</pdfrwt>
<totfact> 0.29364892E+03</totfact>
</mgrwt>
</event>
<event>
 4    1  0.1749575E-004  0.3449673E+03  0.7818608E-02  0.1064700E+00
          1   -1    0    0  501    0  0.00000000000E+00  0.00000000000E+00  0.19336560280E+04  0.19336560280E+04  0.00000000000E+00 0. -1.
         -1   -1    0    0    0  501 -0.00000000000E+00 -0.00000000000E+00 -0.15385680601E+02  0.15385680601E+02  0.00000000000E+00 0. -1.
         25    1    1    2    0    0 -0.33209108846E+02 -0.61630981063E+02  0.15366839483E+04  0.15429513212E+04  0.12000000000E+03 0.  0.
         25    1    1    2    0    0  0.33209108846E+02  0.61630981063E+02  0.38158639917E+03  0.40609038743E+03  0.12000000000E+03 0.  0.
<mgrwt>
<rscale>  0 0.34496733E+03</rscale>
<asrwt>0</asrwt>
<pdfrwt beam="1">  1        1 0.29748535E+00 0.34496733E+03</pdfrwt>
<pdfrwt beam="2">  1       -1 0.23670293E-02 0.34496733E+03</pdfrwt>
<totfact> 0.19880299E+03</totfact>
</mgrwt>
</event>
<event>
 4    1  0.1749575E-004  0.2892540E+03  0.7818608E-02  0.1090739E+00
         -2   -1    0    0    0  501 -0.00000000000E+00  0.00000000000E+00  0.84848735536E+02  0.84848735536E+02  0.00000000000E+00 0. -1.
          2   -1    0    0  501    0  0.00000000000E+00 -0.00000000000E+00 -0.24652062383E+03  0.24652062383E+03  0.00000000000E+00 0. -1.
         25    1    1    2    0    0 -0.75828330782E+01 -0.75197260129E+02 -0.11333619503E+03  0.18154123607E+03  0.12000000000E+03 0.  0.
         25    1    1    2    0    0  0.75828330782E+01  0.75197260129E+02 -0.48335693263E+02  0.14982812330E+03  0.12000000000E+03 0.  0.
<mgrwt>
<rscale>  0 0.28925396E+03</rscale>
<asrwt>0</asrwt>
<pdfrwt beam="1">  1        2 0.37926249E-01 0.28925396E+03</pdfrwt>
<pdfrwt beam="2">  1       -2 0.13053652E-01 0.28925396E+03</pdfrwt>
<totfact> 0.58078972E+03</totfact>
</mgrwt>
</event>
<event>
 4    1  0.1749575E-004  0.2724314E+03  0.7818608E-02  0.1099896E+00
         -1   -1    0    0    0  501 -0.00000000000E+00  0.00000000000E+00  0.83360528807E+01  0.83360528807E+01  0.00000000000E+00 0. -1.
          1   -1    0    0  501    0  0.00000000000E+00 -0.00000000000E+00 -0.22258402125E+04  0.22258402125E+04  0.00000000000E+00 0. -1.
         25    1    1    2    0    0 -0.48566571084E+02  0.32210504652E+02 -0.13346103949E+04  0.13412610241E+04  0.12000000000E+03 0.  0.
         25    1    1    2    0    0  0.48566571084E+02 -0.32210504652E+02 -0.88289376474E+03  0.89291524136E+03  0.12000000000E+03 0.  0.
<mgrwt>
<rscale>  0 0.27243144E+03</rscale>
<asrwt>0</asrwt>
<pdfrwt beam="1">  1        1 0.34243705E+00 0.27243144E+03</pdfrwt>
<pdfrwt beam="2">  1       -1 0.12824693E-02 0.27243144E+03</pdfrwt>
<totfact> 0.31522362E+03</totfact>
</mgrwt>
</event>
<event>
 4    1  0.1749575E-004  0.2628548E+03  0.7818608E-02  0.1105440E+00
         -2   -1    0    0    0  501 -0.00000000000E+00  0.00000000000E+00  0.27324993173E+02  0.27324993173E+02  0.00000000000E+00 0.  1.
          2   -1    0    0  501    0  0.00000000000E+00 -0.00000000000E+00 -0.63213781948E+03  0.63213781948E+03  0.00000000000E+00 0.  1.
         25    1    1    2    0    0 -0.55996747402E+01  0.53211164737E+02 -0.31048832898E+03  0.33714357007E+03  0.12000000000E+03 0.  0.
         25    1    1    2    0    0  0.55996747402E+01 -0.53211164737E+02 -0.29432449733E+03  0.32231924258E+03  0.12000000000E+03 0.  0.
<mgrwt>
<rscale>  0 0.26285480E+03</rscale>
<asrwt>0</asrwt>
<pdfrwt beam="1">  1        2 0.97251972E-01 0.26285480E+03</pdfrwt>
<pdfrwt beam="2">  1       -2 0.42038451E-02 0.26285480E+03</pdfrwt>
<totfact> 0.12008103E+04</totfact>
</mgrwt>
</event>
<event>
 4    1  0.1749575E-004  0.2668149E+03  0.7818608E-02  0.1103116E+00
         -1   -1    0    0    0  501 -0.00000000000E+00  0.00000000000E+00  0.11262997555E+04  0.11262997555E+04  0.00000000000E+00 0.  1.
          1   -1    0    0  501    0  0.00000000000E+00 -0.00000000000E+00 -0.15801785025E+02  0.15801785025E+02  0.00000000000E+00 0.  1.
         25    1    1    2    0    0 -0.20083449475E+02  0.17703654162E+02  0.33362057789E+03  0.35555513539E+03  0.12000000000E+03 0.  0.
         25    1    1    2    0    0  0.20083449475E+02 -0.17703654162E+02  0.77687739260E+03  0.78654640514E+03  0.12000000000E+03 0.  0.
<mgrwt>
<rscale>  0 0.26681489E+03</rscale>
<asrwt>0</asrwt>
<pdfrwt beam="1">  1        1 0.24310447E-02 0.26681489E+03</pdfrwt>
<pdfrwt beam="2">  1       -1 0.17327682E+00 0.26681489E+03</pdfrwt>
<totfact> 0.11691602E+03</totfact>
</mgrwt>
</event>
<event>
 4    1  0.1749575E-004  0.2551017E+03  0.7818608E-02  0.1110122E+00
         -1   -1    0    0    0  501 -0.00000000000E+00  0.00000000000E+00  0.11053157078E+02  0.11053157078E+02  0.00000000000E+00 0.  1.
          1   -1    0    0  501    0  0.00000000000E+00 -0.00000000000E+00 -0.14719075305E+04  0.14719075305E+04  0.00000000000E+00 0.  1.
         25    1    1    2    0    0 -0.22738787153E+02  0.83141741496E+01 -0.52219995480E+03  0.53635712983E+03  0.12000000000E+03 0.  0.
         25    1    1    2    0    0  0.22738787153E+02 -0.83141741496E+01 -0.93865441866E+03  0.94660355778E+03  0.12000000000E+03 0.  0.
<mgrwt>
<rscale>  0 0.25510175E+03</rscale>
<asrwt>0</asrwt>
<pdfrwt beam="1">  1        1 0.22644720E+00 0.25510175E+03</pdfrwt>
<pdfrwt beam="2">  1       -1 0.17004866E-02 0.25510175E+03</pdfrwt>
<totfact> 0.64846938E+03</totfact>
</mgrwt>
</event>
<event>
 4    1  0.1749575E-004  0.2733497E+03  0.7818608E-02  0.1099378E+00
         -1   -1    0    0    0  501 -0.00000000000E+00  0.00000000000E+00  0.85214738148E+01  0.85214738148E+01  0.00000000000E+00 0.  1.
          1   -1    0    0  501    0  0.00000000000E+00 -0.00000000000E+00 -0.21921101123E+04  0.21921101123E+04  0.00000000000E+00 0.  1.
         25    1    1    2    0    0 -0.44058077735E+02 -0.11226108408E+02 -0.71308440152E+03  0.72453882119E+03  0.12000000000E+03 0.  0.
         25    1    1    2    0    0  0.44058077735E+02  0.11226108408E+02 -0.14705042370E+04  0.14760927649E+04  0.12000000000E+03 0.  0.
<mgrwt>
<rscale>  0 0.27334966E+03</rscale>
<asrwt>0</asrwt>
<pdfrwt beam="1">  1        1 0.33724796E+00 0.27334966E+03</pdfrwt>
<pdfrwt beam="2">  1       -1 0.13109950E-02 0.27334966E+03</pdfrwt>
<totfact> 0.32119137E+03</totfact>
</mgrwt>
</event>
<event>
 4    1  0.1749575E-004  0.2953028E+03  0.7818608E-02  0.1087613E+00
         -1   -1    0    0    0  501 -0.00000000000E+00  0.00000000000E+00  0.13065222166E+04  0.13065222166E+04  0.00000000000E+00 0.  1.
          1   -1    0    0  501    0  0.00000000000E+00 -0.00000000000E+00 -0.16686234271E+02  0.16686234271E+02  0.00000000000E+00 0.  1.
         25    1    1    2    0    0 -0.37061014715E+01 -0.44767321010E+02  0.97367606302E+03  0.98207073265E+03  0.12000000000E+03 0.  0.
         25    1    1    2    0    0  0.37061014715E+01  0.44767321010E+02  0.31615991930E+03  0.34113771821E+03  0.12000000000E+03 0.  0.
<mgrwt>
<rscale>  0 0.29530280E+03</rscale>
<asrwt>0</asrwt>
<pdfrwt beam="1">  1        1 0.25671140E-02 0.29530280E+03</pdfrwt>
<pdfrwt beam="2">  1       -1 0.20100334E+00 0.29530280E+03</pdfrwt>
<totfact> 0.69883426E+02</totfact>
</mgrwt>
</event>
<event>
 4    1  0.1749575E-004  0.3575616E+03  0.7818608E-02  0.1059554E+00
          2   -1    0    0  501    0  0.00000000000E+00  0.00000000000E+00  0.87395507083E+03  0.87395507083E+03  0.00000000000E+00 0. -1.
         -2   -1    0    0    0  501 -0.00000000000E+00 -0.00000000000E+00 -0.36572322532E+02  0.36572322532E+02  0.00000000000E+00 0. -1.
         25    1    1    2    0    0 -0.11900087179E+02 -0.66408584942E+02  0.12822550617E+03  0.18813158337E+03  0.12000000000E+03 0.  0.
         25    1    1    2    0    0  0.11900087179E+02  0.66408584942E+02  0.70915724213E+03  0.72239580999E+03  0.12000000000E+03 0.  0.
<mgrwt>
<rscale>  0 0.35756156E+03</rscale>
<asrwt>0</asrwt>
<pdfrwt beam="1">  1        2 0.13445461E+00 0.35756156E+03</pdfrwt>
<pdfrwt beam="2">  1       -2 0.56265118E-02 0.35756156E+03</pdfrwt>
<totfact> 0.51865196E+03</totfact>
</mgrwt>
</event>
<event>
 4    1  0.1749575E-004  0.2921705E+03  0.7818608E-02  0.1089221E+00
          2   -1    0    0  501    0  0.00000000000E+00  0.00000000000E+00  0.73590566189E+03  0.73590566189E+03  0.00000000000E+00 0. -1.
         -2   -1    0    0    0  501 -0.00000000000E+00 -0.00000000000E+00 -0.28999510725E+02  0.28999510725E+02  0.00000000000E+00 0. -1.
         25    1    1    2    0    0  0.52285878486E+02 -0.49426759676E+02  0.46341216371E+03  0.48407401411E+03  0.12000000000E+03 0.  0.
         25    1    1    2    0    0 -0.52285878486E+02  0.49426759676E+02  0.24349398745E+03  0.28083115850E+03  0.12000000000E+03 0.  0.
<mgrwt>
<rscale>  0 0.29217053E+03</rscale>
<asrwt>0</asrwt>
<pdfrwt beam="1">  1        2 0.11321624E+00 0.29217053E+03</pdfrwt>
<pdfrwt beam="2">  1       -2 0.44614637E-02 0.29217053E+03</pdfrwt>
<totfact> 0.91744069E+03</totfact>
</mgrwt>
</event>
<event>
 4    1  0.1749575E-004  0.2697577E+03  0.7818608E-02  0.1101418E+00
         -2   -1    0    0    0  501 -0.00000000000E+00  0.00000000000E+00  0.10916960842E+03  0.10916960842E+03  0.00000000000E+00 0.  1.
          2   -1    0    0  501    0  0.00000000000E+00 -0.00000000000E+00 -0.16664260469E+03  0.16664260469E+03  0.00000000000E+00 0.  1.
         25    1    1    2    0    0  0.85418367346E+01 -0.32546329648E+02 -0.81470054083E+02  0.14889458103E+03  0.12000000000E+03 0.  0.
         25    1    1    2    0    0 -0.85418367346E+01  0.32546329648E+02  0.23997057806E+02  0.12691763208E+03  0.12000000000E+03 0.  0.
<mgrwt>
<rscale>  0 0.26975773E+03</rscale>
<asrwt>0</asrwt>
<pdfrwt beam="1">  1        2 0.25637324E-01 0.26975773E+03</pdfrwt>
<pdfrwt beam="2">  1       -2 0.16795324E-01 0.26975773E+03</pdfrwt>
<totfact> 0.58706835E+03</totfact>
</mgrwt>
</event>
<event>
 4    1  0.1749575E-004  0.2841318E+03  0.7818608E-02  0.1093453E+00
         -1   -1    0    0    0  501 -0.00000000000E+00  0.00000000000E+00  0.13946449995E+02  0.13946449995E+02  0.00000000000E+00 0.  1.
          1   -1    0    0  501    0  0.00000000000E+00 -0.00000000000E+00 -0.14471585562E+04  0.14471585562E+04  0.00000000000E+00 0.  1.
         25    1    1    2    0    0  0.87219201049E+01 -0.13762990519E+02 -0.10985698363E+04  0.11052244917E+04  0.12000000000E+03 0.  0.
         25    1    1    2    0    0 -0.87219201049E+01  0.13762990519E+02 -0.33464226990E+03  0.35588051450E+03  0.12000000000E+03 0.  0.
<mgrwt>
<rscale>  0 0.28413183E+03</rscale>
<asrwt>0</asrwt>
<pdfrwt beam="1">  1        1 0.22263988E+00 0.28413183E+03</pdfrwt>
<pdfrwt beam="2">  1       -1 0.21456067E-02 0.28413183E+03</pdfrwt>
<totfact> 0.48021176E+03</totfact>
</mgrwt>
</event>
<event>
 4    1  0.1749575E-004  0.4115753E+03  0.7818608E-02  0.1039844E+00
          2   -1    0    0  501    0  0.00000000000E+00  0.00000000000E+00  0.24118995404E+03  0.24118995404E+03  0.00000000000E+00 0.  1.
         -2   -1    0    0    0  501 -0.00000000000E+00 -0.00000000000E+00 -0.17558174139E+03  0.17558174139E+03  0.00000000000E+00 0.  1.
         25    1    1    2    0    0  0.10622149399E+01  0.12061767583E+03 -0.84410542779E+02  0.18993391418E+03  0.12000000000E+03 0.  0.
         25    1    1    2    0    0 -0.10622149399E+01 -0.12061767583E+03  0.15001875543E+03  0.22683778125E+03  0.12000000000E+03 0.  0.
<mgrwt>
<rscale>  0 0.41157528E+03</rscale>
<asrwt>0</asrwt>
<pdfrwt beam="1">  1        2 0.37106147E-01 0.41157528E+03</pdfrwt>
<pdfrwt beam="2">  1       -2 0.27012576E-01 0.41157528E+03</pdfrwt>
<totfact> 0.17286931E+03</totfact>
</mgrwt>
</event>
<event>
 4    1  0.1749575E-004  0.3193868E+03  0.7818608E-02  0.1075932E+00
         -1   -1    0    0    0  501 -0.00000000000E+00  0.00000000000E+00  0.13662763294E+03  0.13662763294E+03  0.00000000000E+00 0.  1.
          1   -1    0    0  501    0  0.00000000000E+00 -0.00000000000E+00 -0.18665312478E+03  0.18665312478E+03  0.00000000000E+00 0.  1.
         25    1    1    2    0    0  0.79978745437E+02 -0.27491018600E+02  0.38599473095E+02  0.15179682193E+03  0.12000000000E+03 0.  0.
         25    1    1    2    0    0 -0.79978745437E+02  0.27491018600E+02 -0.88624964936E+02  0.17148393579E+03  0.12000000000E+03 0.  0.
<mgrwt>
<rscale>  0 0.31938675E+03</rscale>
<asrwt>0</asrwt>
<pdfrwt beam="1">  1        1 0.28715865E-01 0.31938675E+03</pdfrwt>
<pdfrwt beam="2">  1       -1 0.21019636E-01 0.31938675E+03</pdfrwt>
<totfact> 0.29777605E+03</totfact>
</mgrwt>
</event>
<event>
 4    1  0.1749575E-004  0.3226410E+03  0.7818608E-02  0.1074440E+00
          1   -1    0    0  501    0  0.00000000000E+00  0.00000000000E+00  0.20696061599E+03  0.20696061599E+03  0.00000000000E+00 0. -1.
         -1   -1    0    0    0  501 -0.00000000000E+00 -0.00000000000E+00 -0.12574521608E+03  0.12574521608E+03  0.00000000000E+00 0. -1.
         25    1    1    2    0    0 -0.10645260490E+03  0.61752981283E+01  0.57042762018E+02  0.17036480885E+03  0.12000000000E+03 0.  0.
         25    1    1    2    0    0  0.10645260490E+03 -0.61752981283E+01  0.24172637894E+02  0.16234102322E+03  0.12000000000E+03 0.  0.
<mgrwt>
<rscale>  0 0.32264102E+03</rscale>
<asrwt>0</asrwt>
<pdfrwt beam="1">  1        1 0.31840095E-01 0.32264102E+03</pdfrwt>
<pdfrwt beam="2">  1       -1 0.19345418E-01 0.32264102E+03</pdfrwt>
<totfact> 0.29923756E+03</totfact>
</mgrwt>
</event>
<event>
 4    1  0.1749575E-004  0.3197629E+03  0.7818608E-02  0.1075758E+00
          4   -1    0    0  501    0  0.00000000000E+00  0.00000000000E+00  0.40498118386E+02  0.40498118386E+02  0.00000000000E+00 0.  1.
         -4   -1    0    0    0  501 -0.00000000000E+00 -0.00000000000E+00 -0.63119175274E+03  0.63119175274E+03  0.00000000000E+00 0.  1.
         25    1    1    2    0    0  0.91691585712E+02 -0.27328788058E+01 -0.40544770641E+03  0.43266922487E+03  0.12000000000E+03 0.  0.
         25    1    1    2    0    0 -0.91691585712E+02  0.27328788058E+01 -0.18524592795E+03  0.23902064626E+03  0.12000000000E+03 0.  0.
<mgrwt>
<rscale>  0 0.31976290E+03</rscale>
<asrwt>0</asrwt>
<pdfrwt beam="1">  1        4 0.62304801E-02 0.31976290E+03</pdfrwt>
<pdfrwt beam="2">  1       -4 0.97106418E-01 0.31976290E+03</pdfrwt>
<totfact> 0.29039148E+02</totfact>
</mgrwt>
</event>
<event>
 4    1  0.1749575E-004  0.2519143E+03  0.7818608E-02  0.1112101E+00
         -2   -1    0    0    0  501 -0.00000000000E+00  0.00000000000E+00  0.11637193074E+02  0.11637193074E+02  0.00000000000E+00 0. -1.
          2   -1    0    0  501    0  0.00000000000E+00 -0.00000000000E+00 -0.13633190970E+04  0.13633190970E+04  0.00000000000E+00 0. -1.
         25    1    1    2    0    0  0.85957437696E+01 -0.12368593829E+02 -0.86790926756E+03  0.87629525027E+03  0.12000000000E+03 0.  0.
         25    1    1    2    0    0 -0.85957437696E+01  0.12368593829E+02 -0.48377263633E+03  0.49866103977E+03  0.12000000000E+03 0.  0.
<mgrwt>
<rscale>  0 0.25191433E+03</rscale>
<asrwt>0</asrwt>
<pdfrwt beam="1">  1        2 0.20974143E+00 0.25191433E+03</pdfrwt>
<pdfrwt beam="2">  1       -2 0.17903371E-02 0.25191433E+03</pdfrwt>
<totfact> 0.14673986E+04</totfact>
</mgrwt>
</event>
<event>
 4    1  0.1749575E-004  0.3081570E+03  0.7818608E-02  0.1081233E+00
         -2   -1    0    0    0  501 -0.00000000000E+00  0.00000000000E+00  0.12856141126E+03  0.12856141126E+03  0.00000000000E+00 0. -1.
          2   -1    0    0  501    0  0.00000000000E+00 -0.00000000000E+00 -0.18466026189E+03  0.18466026189E+03  0.00000000000E+00 0. -1.
         25    1    1    2    0    0 -0.67686998527E+02 -0.68328003122E+02 -0.37688860901E+02  0.15833728562E+03  0.12000000000E+03 0.  0.
         25    1    1    2    0    0  0.67686998527E+02  0.68328003122E+02 -0.18409989720E+02  0.15488438753E+03  0.12000000000E+03 0.  0.
<mgrwt>
<rscale>  0 0.30815700E+03</rscale>
<asrwt>0</asrwt>
<pdfrwt beam="1">  1        2 0.28409271E-01 0.30815700E+03</pdfrwt>
<pdfrwt beam="2">  1       -2 0.19778679E-01 0.30815700E+03</pdfrwt>
<totfact> 0.39887038E+03</totfact>
</mgrwt>
</event>
<event>
 4    1  0.1749575E-004  0.5131228E+03  0.7818608E-02  0.1010409E+00
          2   -1    0    0  501    0  0.00000000000E+00  0.00000000000E+00  0.34956264251E+04  0.34956264251E+04  0.00000000000E+00 0. -1.
         -2   -1    0    0    0  501 -0.00000000000E+00 -0.00000000000E+00 -0.18830314237E+02  0.18830314237E+02  0.00000000000E+00 0. -1.
         25    1    1    2    0    0 -0.12822405911E+03 -0.44934533229E+02  0.49488100050E+03  0.52703674091E+03  0.12000000000E+03 0.  0.
         25    1    1    2    0    0  0.12822405911E+03  0.44934533229E+02  0.29819151103E+04  0.29874199984E+04  0.12000000000E+03 0.  0.
<mgrwt>
<rscale>  0 0.51312277E+03</rscale>
<asrwt>0</asrwt>
<pdfrwt beam="1">  1        2 0.53778816E+00 0.51312277E+03</pdfrwt>
<pdfrwt beam="2">  1       -2 0.28969742E-02 0.51312277E+03</pdfrwt>
<totfact> 0.43402743E+02</totfact>
</mgrwt>
</event>
<event>
 4    1  0.1749575E-004  0.2859668E+03  0.7818608E-02  0.1092474E+00
          1   -1    0    0  501    0  0.00000000000E+00  0.00000000000E+00  0.20625549504E+03  0.20625549504E+03  0.00000000000E+00 0. -1.
         -1   -1    0    0    0  501 -0.00000000000E+00 -0.00000000000E+00 -0.99121030296E+02  0.99121030296E+02  0.00000000000E+00 0. -1.
         25    1    1    2    0    0 -0.64592733335E+02  0.21972801885E+02  0.93369458915E+02  0.16665197593E+03  0.12000000000E+03 0.  0.
         25    1    1    2    0    0  0.64592733335E+02 -0.21972801885E+02  0.13765005825E+02  0.13872454941E+03  0.12000000000E+03 0.  0.
<mgrwt>
<rscale>  0 0.28596683E+03</rscale>
<asrwt>0</asrwt>
<pdfrwt beam="1">  1        1 0.31731615E-01 0.28596683E+03</pdfrwt>
<pdfrwt beam="2">  1       -1 0.15249389E-01 0.28596683E+03</pdfrwt>
<totfact> 0.43937845E+03</totfact>
</mgrwt>
</event>
<event>
 4    1  0.1749575E-004  0.2759579E+03  0.7818608E-02  0.1097917E+00
         -2   -1    0    0    0  501 -0.00000000000E+00  0.00000000000E+00  0.69416411807E+01  0.69416411807E+01  0.00000000000E+00 0. -1.
          2   -1    0    0  501    0  0.00000000000E+00 -0.00000000000E+00 -0.27426067293E+04  0.27426067293E+04  0.00000000000E+00 0. -1.
         25    1    1    2    0    0 -0.44716509737E+02 -0.34936490329E+01 -0.85720926878E+03  0.86672919779E+03  0.12000000000E+03 0.  0.
         25    1    1    2    0    0  0.44716509737E+02  0.34936490329E+01 -0.18784558194E+04  0.18828191727E+04  0.12000000000E+03 0.  0.
<mgrwt>
<rscale>  0 0.27595791E+03</rscale>
<asrwt>0</asrwt>
<pdfrwt beam="1">  1        2 0.42193944E+00 0.27595791E+03</pdfrwt>
<pdfrwt beam="2">  1       -2 0.10679449E-02 0.27595791E+03</pdfrwt>
<totfact> 0.56918488E+03</totfact>
</mgrwt>
</event>
<event>
 4    1  0.1749575E-004  0.3345637E+03  0.7818608E-02  0.1069135E+00
         -1   -1    0    0    0  501 -0.00000000000E+00  0.00000000000E+00  0.11768076614E+03  0.11768076614E+03  0.00000000000E+00 0. -1.
          1   -1    0    0  501    0  0.00000000000E+00 -0.00000000000E+00 -0.23778926315E+03  0.23778926315E+03  0.00000000000E+00 0. -1.
         25    1    1    2    0    0  0.15573309294E+02 -0.10684235628E+03 -0.13432855399E+02  0.16198227885E+03  0.12000000000E+03 0.  0.
         25    1    1    2    0    0 -0.15573309294E+02  0.10684235628E+03 -0.10667564161E+03  0.19348775044E+03  0.12000000000E+03 0.  0.
<mgrwt>
<rscale>  0 0.33456373E+03</rscale>
<asrwt>0</asrwt>
<pdfrwt beam="1">  1        1 0.36582963E-01 0.33456373E+03</pdfrwt>
<pdfrwt beam="2">  1       -1 0.18104734E-01 0.33456373E+03</pdfrwt>
<totfact> 0.27976366E+03</totfact>
</mgrwt>
</event>
<event>
 4    1  0.1749575E-004  0.2995375E+03  0.7818608E-02  0.1085472E+00
          1   -1    0    0  501    0  0.00000000000E+00  0.00000000000E+00  0.10353863635E+03  0.10353863635E+03  0.00000000000E+00 0. -1.
         -1   -1    0    0    0  501 -0.00000000000E+00 -0.00000000000E+00 -0.21664072817E+03  0.21664072817E+03  0.00000000000E+00 0. -1.
         25    1    1    2    0    0 -0.49554019416E+02 -0.16181152211E+02 -0.13446628372E+03  0.18761293128E+03  0.12000000000E+03 0.  0.
         25    1    1    2    0    0  0.49554019416E+02  0.16181152211E+02  0.21364191893E+02  0.13256643324E+03  0.12000000000E+03 0.  0.
<mgrwt>
<rscale>  0 0.29953755E+03</rscale>
<asrwt>0</asrwt>
<pdfrwt beam="1">  1        1 0.15929021E-01 0.29953755E+03</pdfrwt>
<pdfrwt beam="2">  1       -1 0.33329343E-01 0.29953755E+03</pdfrwt>
<totfact> 0.29280964E+03</totfact>
</mgrwt>
</event>
<event>
 4    1  0.1749575E-004  0.2811966E+03  0.7818608E-02  0.1095037E+00
         -2   -1    0    0    0  501 -0.00000000000E+00  0.00000000000E+00  0.30919473463E+02  0.30919473463E+02  0.00000000000E+00 0.  1.
          2   -1    0    0  501    0  0.00000000000E+00 -0.00000000000E+00 -0.63933415797E+03  0.63933415797E+03  0.00000000000E+00 0.  1.
         25    1    1    2    0    0 -0.53359082182E+02  0.45008164899E+02 -0.25117883591E+03  0.28699082593E+03  0.12000000000E+03 0.  0.
         25    1    1    2    0    0  0.53359082182E+02 -0.45008164899E+02 -0.35723584860E+03  0.38326280550E+03  0.12000000000E+03 0.  0.
<mgrwt>
<rscale>  0 0.28119655E+03</rscale>
<asrwt>0</asrwt>
<pdfrwt beam="1">  1        2 0.98359104E-01 0.28119655E+03</pdfrwt>
<pdfrwt beam="2">  1       -2 0.47568419E-02 0.28119655E+03</pdfrwt>
<totfact> 0.98555793E+03</totfact>
</mgrwt>
</event>
<event>
 4    1  0.1749575E-004  0.3950066E+03  0.7818608E-02  0.1045523E+00
          1   -1    0    0  501    0  0.00000000000E+00  0.00000000000E+00  0.11944347725E+04  0.11944347725E+04  0.00000000000E+00 0.  1.
         -1   -1    0    0    0  501 -0.00000000000E+00 -0.00000000000E+00 -0.32657748345E+02  0.32657748345E+02  0.00000000000E+00 0.  1.
         25    1    1    2    0    0  0.12562459406E+03  0.83043040830E+02  0.71735827421E+03  0.74275203052E+03  0.12000000000E+03 0.  0.
         25    1    1    2    0    0 -0.12562459406E+03 -0.83043040830E+02  0.44441874991E+03  0.48434049029E+03  0.12000000000E+03 0.  0.
<mgrwt>
<rscale>  0 0.39500658E+03</rscale>
<asrwt>0</asrwt>
<pdfrwt beam="1">  1        1 0.18375916E+00 0.39500658E+03</pdfrwt>
<pdfrwt beam="2">  1       -1 0.50242699E-02 0.39500658E+03</pdfrwt>
<totfact> 0.20185644E+03</totfact>
</mgrwt>
</event>
<event>
 4    1  0.1749575E-004  0.2559278E+03  0.7818608E-02  0.1109615E+00
          2   -1    0    0  501    0  0.00000000000E+00  0.00000000000E+00  0.98694582187E+03  0.98694582187E+03  0.00000000000E+00 0.  1.
         -2   -1    0    0    0  501 -0.00000000000E+00 -0.00000000000E+00 -0.16591347134E+02  0.16591347134E+02  0.00000000000E+00 0.  1.
         25    1    1    2    0    0  0.61710182899E-01  0.37361640736E+01  0.65881029512E+03  0.66966033755E+03  0.12000000000E+03 0.  0.
         25    1    1    2    0    0 -0.61710182899E-01 -0.37361640736E+01  0.31154417962E+03  0.33387683146E+03  0.12000000000E+03 0.  0.
<mgrwt>
<rscale>  0 0.25592781E+03</rscale>
<asrwt>0</asrwt>
<pdfrwt beam="1">  1        2 0.15183777E+00 0.25592781E+03</pdfrwt>
<pdfrwt beam="2">  1       -2 0.25525157E-02 0.25592781E+03</pdfrwt>
<totfact> 0.14326596E+04</totfact>
</mgrwt>
</event>
<event>
 4    1  0.1749575E-004  0.4755316E+03  0.7818608E-02  0.1020370E+00
          2   -1    0    0  501    0  0.00000000000E+00  0.00000000000E+00  0.19155434449E+04  0.19155434449E+04  0.00000000000E+00 0.  1.
         -2   -1    0    0    0  501 -0.00000000000E+00 -0.00000000000E+00 -0.29512557719E+02  0.29512557719E+02  0.00000000000E+00 0.  1.
         25    1    1    2    0    0  0.36722419596E+02  0.99881760894E+02  0.16609456291E+04  0.16686717128E+04  0.12000000000E+03 0.  0.
         25    1    1    2    0    0 -0.36722419596E+02 -0.99881760894E+02  0.22508525813E+03  0.27638428987E+03  0.12000000000E+03 0.  0.
<mgrwt>
<rscale>  0 0.47553165E+03</rscale>
<asrwt>0</asrwt>
<pdfrwt beam="1">  1        2 0.29469890E+00 0.47553165E+03</pdfrwt>
<pdfrwt beam="2">  1       -2 0.45403950E-02 0.47553165E+03</pdfrwt>
<totfact> 0.18452242E+03</totfact>
</mgrwt>
</event>
<event>
 4    1  0.1749575E-004  0.2941367E+03  0.7818608E-02  0.1088209E+00
         -2   -1    0    0    0  501 -0.00000000000E+00  0.00000000000E+00  0.36925150110E+02  0.36925150110E+02  0.00000000000E+00 0. -1.
          2   -1    0    0  501    0  0.00000000000E+00 -0.00000000000E+00 -0.58575538829E+03  0.58575538829E+03  0.00000000000E+00 0. -1.
         25    1    1    2    0    0  0.29079147828E+02  0.58004962583E+02 -0.15809823453E+03  0.20881863969E+03  0.12000000000E+03 0.  0.
         25    1    1    2    0    0 -0.29079147828E+02 -0.58004962583E+02 -0.39073200365E+03  0.41386189871E+03  0.12000000000E+03 0.  0.
<mgrwt>
<rscale>  0 0.29413674E+03</rscale>
<asrwt>0</asrwt>
<pdfrwt beam="1">  1        2 0.90116213E-01 0.29413674E+03</pdfrwt>
<pdfrwt beam="2">  1       -2 0.56807924E-02 0.29413674E+03</pdfrwt>
<totfact> 0.83417529E+03</totfact>
</mgrwt>
</event>
<event>
 4    1  0.1749575E-004  0.2706268E+03  0.7818608E-02  0.1100921E+00
         -2   -1    0    0    0  501 -0.00000000000E+00  0.00000000000E+00  0.13104736062E+02  0.13104736062E+02  0.00000000000E+00 0. -1.
          2   -1    0    0  501    0  0.00000000000E+00 -0.00000000000E+00 -0.13971835977E+04  0.13971835977E+04  0.00000000000E+00 0. -1.
         25    1    1    2    0    0 -0.47682815742E+02  0.28135253421E+02 -0.84347623441E+03  0.85376659656E+03  0.12000000000E+03 0.  0.
         25    1    1    2    0    0  0.47682815742E+02 -0.28135253421E+02 -0.54060262719E+03  0.55652173715E+03  0.12000000000E+03 0.  0.
<mgrwt>
<rscale>  0 0.27062684E+03</rscale>
<asrwt>0</asrwt>
<pdfrwt beam="1">  1        2 0.21495119E+00 0.27062684E+03</pdfrwt>
<pdfrwt beam="2">  1       -2 0.20161144E-02 0.27062684E+03</pdfrwt>
<totfact> 0.11838936E+04</totfact>
</mgrwt>
</event>
<event>
 4    1  0.1749575E-004  0.2770685E+03  0.7818608E-02  0.1097301E+00
          2   -1    0    0  501    0  0.00000000000E+00  0.00000000000E+00  0.77221769311E+03  0.77221769311E+03  0.00000000000E+00 0.  1.
         -2   -1    0    0    0  501 -0.00000000000E+00 -0.00000000000E+00 -0.24852754576E+02  0.24852754576E+02  0.00000000000E+00 0.  1.
         25    1    1    2    0    0  0.61075211494E+02  0.19962750030E+02  0.44775901681E+03  0.46799233966E+03  0.12000000000E+03 0.  0.
         25    1    1    2    0    0 -0.61075211494E+02 -0.19962750030E+02  0.29960592172E+03  0.32907810802E+03  0.12000000000E+03 0.  0.
<mgrwt>
<rscale>  0 0.27706849E+03</rscale>
<asrwt>0</asrwt>
<pdfrwt beam="1">  1        2 0.11880270E+00 0.27706849E+03</pdfrwt>
<pdfrwt beam="2">  1       -2 0.38235013E-02 0.27706849E+03</pdfrwt>
<totfact> 0.10884540E+04</totfact>
</mgrwt>
</event>
<event>
 4    1  0.1749575E-004  0.2719954E+03  0.7818608E-02  0.1100143E+00
         -2   -1    0    0    0  501 -0.00000000000E+00  0.00000000000E+00  0.40129024565E+02  0.40129024565E+02  0.00000000000E+00 0.  1.
          2   -1    0    0  501    0  0.00000000000E+00 -0.00000000000E+00 -0.46089756657E+03  0.46089756657E+03  0.00000000000E+00 0.  1.
         25    1    1    2    0    0 -0.63027911753E+02  0.10663519528E+02 -0.20481488779E+03  0.24583605628E+03  0.12000000000E+03 0.  0.
         25    1    1    2    0    0  0.63027911753E+02 -0.10663519528E+02 -0.21595365421E+03  0.25519053485E+03  0.12000000000E+03 0.  0.
<mgrwt>
<rscale>  0 0.27199537E+03</rscale>
<asrwt>0</asrwt>
<pdfrwt beam="1">  1        2 0.70907319E-01 0.27199537E+03</pdfrwt>
<pdfrwt beam="2">  1       -2 0.61736960E-02 0.27199537E+03</pdfrwt>
<totfact> 0.95968912E+03</totfact>
</mgrwt>
</event>
<event>
 4    1  0.1749575E-004  0.3258401E+03  0.7818608E-02  0.1072992E+00
          1   -1    0    0  501    0  0.00000000000E+00  0.00000000000E+00  0.11455204225E+03  0.11455204225E+03  0.00000000000E+00 0. -1.
         -1   -1    0    0    0  501 -0.00000000000E+00 -0.00000000000E+00 -0.23171071307E+03  0.23171071307E+03  0.00000000000E+00 0. -1.
         25    1    1    2    0    0  0.78214871020E+02  0.40162313604E+02 -0.12916827804E+03  0.19701528249E+03  0.12000000000E+03 0.  0.
         25    1    1    2    0    0 -0.78214871020E+02 -0.40162313604E+02  0.12009607219E+02  0.14924747284E+03  0.12000000000E+03 0.  0.
<mgrwt>
<rscale>  0 0.32584006E+03</rscale>
<asrwt>0</asrwt>
<pdfrwt beam="1">  1        1 0.17623391E-01 0.32584006E+03</pdfrwt>
<pdfrwt beam="2">  1       -1 0.35647802E-01 0.32584006E+03</pdfrwt>
<totfact> 0.22857745E+03</totfact>
</mgrwt>
</event>
<event>
 4    1  0.1749575E-004  0.2849239E+03  0.7818608E-02  0.1093030E+00
          2   -1    0    0  501    0  0.00000000000E+00  0.00000000000E+00  0.48376925833E+03  0.48376925833E+03  0.00000000000E+00 0.  1.
         -2   -1    0    0    0  501 -0.00000000000E+00 -0.00000000000E+00 -0.41952668734E+02  0.41952668734E+02  0.00000000000E+00 0.  1.
         25    1    1    2    0    0 -0.92644780161E+01  0.63999482899E+02  0.29728973755E+03  0.32705191089E+03  0.12000000000E+03 0.  0.
         25    1    1    2    0    0  0.92644780161E+01 -0.63999482899E+02  0.14452685204E+03  0.19867001617E+03  0.12000000000E+03 0.  0.
<mgrwt>
<rscale>  0 0.28492393E+03</rscale>
<asrwt>0</asrwt>
<pdfrwt beam="1">  1        2 0.74426036E-01 0.28492393E+03</pdfrwt>
<pdfrwt beam="2">  1       -2 0.64542571E-02 0.28492393E+03</pdfrwt>
<totfact> 0.85081696E+03</totfact>
</mgrwt>
</event>
<event>
 4    1  0.1749575E-004  0.3792272E+03  0.7818608E-02  0.1051220E+00
          2   -1    0    0  501    0  0.00000000000E+00  0.00000000000E+00  0.10305118996E+03  0.10305118996E+03  0.00000000000E+00 0. -1.
         -2   -1    0    0    0  501 -0.00000000000E+00 -0.00000000000E+00 -0.34888794989E+03  0.34888794989E+03  0.00000000000E+00 0. -1.
         25    1    1    2    0    0 -0.25716002483E+02  0.12026752747E+03 -0.21846365071E+03  0.27794236386E+03  0.12000000000E+03 0.  0.
         25    1    1    2    0    0  0.25716002483E+02 -0.12026752747E+03 -0.27373109219E+02  0.17399677599E+03  0.12000000000E+03 0.  0.
<mgrwt>
<rscale>  0 0.37922721E+03</rscale>
<asrwt>0</asrwt>
<pdfrwt beam="1">  1        2 0.15854029E-01 0.37922721E+03</pdfrwt>
<pdfrwt beam="2">  1       -2 0.53675070E-01 0.37922721E+03</pdfrwt>
<totfact> 0.12216946E+03</totfact>
</mgrwt>
</event>
<event>
 4    1  0.1749575E-004  0.6011067E+03  0.7818608E-02  0.9903113E-01
         -4   -1    0    0    0  501 -0.00000000000E+00  0.00000000000E+00  0.47621272515E+03  0.47621272515E+03  0.00000000000E+00 0.  1.
          4   -1    0    0  501    0  0.00000000000E+00 -0.00000000000E+00 -0.18968900456E+03  0.18968900456E+03  0.00000000000E+00 0.  1.
         25    1    1    2    0    0  0.25920236238E+03 -0.92426187844E+02  0.15907860299E+03  0.33975648160E+03  0.12000000000E+03 0.  0.
         25    1    1    2    0    0 -0.25920236238E+03  0.92426187844E+02  0.12744511760E+03  0.32614524811E+03  0.12000000000E+03 0.  0.
<mgrwt>
<rscale>  0 0.60110671E+03</rscale>
<asrwt>0</asrwt>
<pdfrwt beam="1">  1        4 0.29182924E-01 0.60110671E+03</pdfrwt>
<pdfrwt beam="2">  1       -4 0.73263496E-01 0.60110671E+03</pdfrwt>
<totfact> 0.37854011E+01</totfact>
</mgrwt>
</event>
<event>
 4    1  0.1749575E-004  0.3508574E+03  0.7818608E-02  0.1062264E+00
          2   -1    0    0  501    0  0.00000000000E+00  0.00000000000E+00  0.49892265166E+03  0.49892265166E+03  0.00000000000E+00 0. -1.
         -2   -1    0    0    0  501 -0.00000000000E+00 -0.00000000000E+00 -0.61683361258E+02  0.61683361258E+02  0.00000000000E+00 0. -1.
         25    1    1    2    0    0  0.10215737087E+03 -0.26864415003E+02  0.33403251380E+03  0.37031816792E+03  0.12000000000E+03 0.  0.
         25    1    1    2    0    0 -0.10215737087E+03  0.26864415003E+02  0.10320677661E+03  0.19028784500E+03  0.12000000000E+03 0.  0.
<mgrwt>
<rscale>  0 0.35085739E+03</rscale>
<asrwt>0</asrwt>
<pdfrwt beam="1">  1        2 0.76757328E-01 0.35085739E+03</pdfrwt>
<pdfrwt beam="2">  1       -2 0.94897482E-02 0.35085739E+03</pdfrwt>
<totfact> 0.45194582E+03</totfact>
</mgrwt>
</event>
<event>
 4    1  0.1749575E-004  0.2615570E+03  0.7818608E-02  0.1106211E+00
         -2   -1    0    0    0  501 -0.00000000000E+00  0.00000000000E+00  0.44942464258E+03  0.44942464258E+03  0.00000000000E+00 0. -1.
          2   -1    0    0  501    0  0.00000000000E+00 -0.00000000000E+00 -0.38055355413E+02  0.38055355413E+02  0.00000000000E+00 0. -1.
         25    1    1    2    0    0 -0.31065706110E+02 -0.31208434200E+02  0.25719904262E+03  0.28721140643E+03  0.12000000000E+03 0.  0.
         25    1    1    2    0    0  0.31065706110E+02  0.31208434200E+02  0.15417024455E+03  0.20026859156E+03  0.12000000000E+03 0.  0.
<mgrwt>
<rscale>  0 0.26155699E+03</rscale>
<asrwt>0</asrwt>
<pdfrwt beam="1">  1        2 0.58546704E-02 0.26155699E+03</pdfrwt>
<pdfrwt beam="2">  1       -2 0.69142249E-01 0.26155699E+03</pdfrwt>
<totfact> 0.24867546E+03</totfact>
</mgrwt>
</event>
<event>
 4    1  0.1749575E-004  0.2960130E+03  0.7818608E-02  0.1087251E+00
         -1   -1    0    0    0  501 -0.00000000000E+00  0.00000000000E+00  0.67310904079E+02  0.67310904079E+02  0.00000000000E+00 0. -1.
          1   -1    0    0  501    0  0.00000000000E+00 -0.00000000000E+00 -0.32544381225E+03  0.32544381225E+03  0.00000000000E+00 0. -1.
         25    1    1    2    0    0 -0.24188961031E+02 -0.48092560335E+02 -0.21913289834E+03  0.25557235244E+03  0.12000000000E+03 0.  0.
         25    1    1    2    0    0  0.24188961031E+02  0.48092560335E+02 -0.39000009828E+02  0.13718236389E+03  0.12000000000E+03 0.  0.
<mgrwt>
<rscale>  0 0.29601295E+03</rscale>
<asrwt>0</asrwt>
<pdfrwt beam="1">  1        1 0.50068279E-01 0.29601295E+03</pdfrwt>
<pdfrwt beam="2">  1       -1 0.10355524E-01 0.29601295E+03</pdfrwt>
<totfact> 0.45466388E+03</totfact>
</mgrwt>
</event>
<event>
 4    1  0.1749575E-004  0.6449648E+03  0.7818608E-02  0.9816274E-01
          2   -1    0    0  501    0  0.00000000000E+00  0.00000000000E+00  0.16523164623E+03  0.16523164623E+03  0.00000000000E+00 0. -1.
         -2   -1    0    0    0  501 -0.00000000000E+00 -0.00000000000E+00 -0.62938850249E+03  0.62938850249E+03  0.00000000000E+00 0. -1.
         25    1    1    2    0    0  0.27640388583E+03 -0.86328019859E+02 -0.32544747433E+03  0.45184919349E+03  0.12000000000E+03 0.  0.
         25    1    1    2    0    0 -0.27640388583E+03  0.86328019859E+02 -0.13870938192E+03  0.34277095523E+03  0.12000000000E+03 0.  0.
<mgrwt>
<rscale>  0 0.64496480E+03</rscale>
<asrwt>0</asrwt>
<pdfrwt beam="1">  1        2 0.25420253E-01 0.64496480E+03</pdfrwt>
<pdfrwt beam="2">  1       -2 0.96829001E-01 0.64496480E+03</pdfrwt>
<totfact> 0.19379066E+02</totfact>
</mgrwt>
</event>
<event>
 4    1  0.1749575E-004  0.3650265E+03  0.7818608E-02  0.1056611E+00
         -2   -1    0    0    0  501 -0.00000000000E+00  0.00000000000E+00  0.17406176502E+02  0.17406176502E+02  0.00000000000E+00 0. -1.
          2   -1    0    0  501    0  0.00000000000E+00 -0.00000000000E+00 -0.19137509078E+04  0.19137509078E+04  0.00000000000E+00 0. -1.
         25    1    1    2    0    0 -0.33572667308E+02  0.10505625879E+03 -0.13827358373E+04  0.13923082767E+04  0.12000000000E+03 0.  0.
         25    1    1    2    0    0  0.33572667308E+02 -0.10505625879E+03 -0.51360889394E+03  0.53884880759E+03  0.12000000000E+03 0.  0.
<mgrwt>
<rscale>  0 0.36502650E+03</rscale>
<asrwt>0</asrwt>
<pdfrwt beam="1">  1        2 0.29442337E+00 0.36502650E+03</pdfrwt>
<pdfrwt beam="2">  1       -2 0.26778719E-02 0.36502650E+03</pdfrwt>
<totfact> 0.41327614E+03</totfact>
</mgrwt>
</event>
<event>
 4    1  0.1749575E-004  0.3743676E+03  0.7818608E-02  0.1053035E+00
          1   -1    0    0  501    0  0.00000000000E+00  0.00000000000E+00  0.13868602294E+04  0.13868602294E+04  0.00000000000E+00 0. -1.
         -1   -1    0    0    0  501 -0.00000000000E+00 -0.00000000000E+00 -0.25264099265E+02  0.25264099265E+02  0.00000000000E+00 0. -1.
         25    1    1    2    0    0 -0.10028925793E+03  0.41117589632E+02  0.10364339761E+04  0.10489728205E+04  0.12000000000E+03 0.  0.
         25    1    1    2    0    0  0.10028925793E+03 -0.41117589632E+02  0.32516215408E+03  0.36315150817E+03  0.12000000000E+03 0.  0.
<mgrwt>
<rscale>  0 0.37436760E+03</rscale>
<asrwt>0</asrwt>
<pdfrwt beam="1">  1        1 0.21336305E+00 0.37436760E+03</pdfrwt>
<pdfrwt beam="2">  1       -1 0.38867856E-02 0.37436760E+03</pdfrwt>
<totfact> 0.21859002E+03</totfact>
</mgrwt>
</event>
<event>
 4    1  0.1749575E-004  0.2950334E+03  0.7818608E-02  0.1087750E+00
          1   -1    0    0  501    0  0.00000000000E+00  0.00000000000E+00  0.30218011718E+03  0.30218011718E+03  0.00000000000E+00 0.  1.
         -1   -1    0    0    0  501 -0.00000000000E+00 -0.00000000000E+00 -0.72013927281E+02  0.72013927281E+02  0.00000000000E+00 0.  1.
         25    1    1    2    0    0  0.36209588362E+02 -0.52409852250E+02  0.18797787202E+03  0.23193448918E+03  0.12000000000E+03 0.  0.
         25    1    1    2    0    0 -0.36209588362E+02  0.52409852250E+02  0.42188317874E+02  0.14225955528E+03  0.12000000000E+03 0.  0.
<mgrwt>
<rscale>  0 0.29503340E+03</rscale>
<asrwt>0</asrwt>
<pdfrwt beam="1">  1        1 0.46489248E-01 0.29503340E+03</pdfrwt>
<pdfrwt beam="2">  1       -1 0.11079066E-01 0.29503340E+03</pdfrwt>
<totfact> 0.44951126E+03</totfact>
</mgrwt>
</event>
<event>
 4    1  0.1749575E-004  0.3017351E+03  0.7818608E-02  0.1084376E+00
          1   -1    0    0  501    0  0.00000000000E+00  0.00000000000E+00  0.92418912581E+03  0.92418912581E+03  0.00000000000E+00 0.  1.
         -1   -1    0    0    0  501 -0.00000000000E+00 -0.00000000000E+00 -0.24628099435E+02  0.24628099435E+02  0.00000000000E+00 0.  1.
         25    1    1    2    0    0  0.79934684296E+02 -0.42258543122E+02  0.49262977123E+03  0.51503342583E+03  0.12000000000E+03 0.  0.
         25    1    1    2    0    0 -0.79934684296E+02  0.42258543122E+02  0.40693125514E+03  0.43378379941E+03  0.12000000000E+03 0.  0.
<mgrwt>
<rscale>  0 0.30173513E+03</rscale>
<asrwt>0</asrwt>
<pdfrwt beam="1">  1        1 0.14218292E+00 0.30173513E+03</pdfrwt>
<pdfrwt beam="2">  1       -1 0.37889391E-02 0.30173513E+03</pdfrwt>
<totfact> 0.48807067E+03</totfact>
</mgrwt>
</event>
<event>
 4    1  0.1749575E-004  0.2977189E+03  0.7818608E-02  0.1086386E+00
         -2   -1    0    0    0  501 -0.00000000000E+00  0.00000000000E+00  0.68093210561E+02  0.68093210561E+02  0.00000000000E+00 0. -1.
          2   -1    0    0  501    0  0.00000000000E+00 -0.00000000000E+00 -0.32542363445E+03  0.32542363445E+03  0.00000000000E+00 0. -1.
         25    1    1    2    0    0 -0.36190201134E+01 -0.87709606928E+02 -0.13829400022E+03  0.20305492594E+03  0.12000000000E+03 0.  0.
         25    1    1    2    0    0  0.36190201134E+01  0.87709606928E+02 -0.11903642367E+03  0.19046191907E+03  0.12000000000E+03 0.  0.
<mgrwt>
<rscale>  0 0.29771893E+03</rscale>
<asrwt>0</asrwt>
<pdfrwt beam="1">  1        2 0.50065174E-01 0.29771893E+03</pdfrwt>
<pdfrwt beam="2">  1       -2 0.10475879E-01 0.29771893E+03</pdfrwt>
<totfact> 0.61441968E+03</totfact>
</mgrwt>
</event>
<event>
 4    1  0.1749575E-004  0.3062616E+03  0.7818608E-02  0.1082152E+00
          2   -1    0    0  501    0  0.00000000000E+00  0.00000000000E+00  0.11571171254E+03  0.11571171254E+03  0.00000000000E+00 0.  1.
         -2   -1    0    0    0  501 -0.00000000000E+00 -0.00000000000E+00 -0.20265055122E+03  0.20265055122E+03  0.00000000000E+00 0.  1.
         25    1    1    2    0    0 -0.13626543852E+02 -0.92196398554E+01 -0.14086419784E+03  0.18577784230E+03  0.12000000000E+03 0.  0.
         25    1    1    2    0    0  0.13626543852E+02  0.92196398554E+01  0.53925359152E+02  0.13258442147E+03  0.12000000000E+03 0.  0.
<mgrwt>
<rscale>  0 0.30626160E+03</rscale>
<asrwt>0</asrwt>
<pdfrwt beam="1">  1        2 0.17801802E-01 0.30626160E+03</pdfrwt>
<pdfrwt beam="2">  1       -2 0.31177008E-01 0.30626160E+03</pdfrwt>
<totfact> 0.30300609E+03</totfact>
</mgrwt>
</event>
<event>
 4    1  0.1749575E-004  0.2796515E+03  0.7818608E-02  0.1095879E+00
         -2   -1    0    0    0  501 -0.00000000000E+00  0.00000000000E+00  0.18121977532E+02  0.18121977532E+02  0.00000000000E+00 0. -1.
          2   -1    0    0  501    0  0.00000000000E+00 -0.00000000000E+00 -0.10788693739E+04  0.10788693739E+04  0.00000000000E+00 0. -1.
         25    1    1    2    0    0 -0.43882942656E+02 -0.53015649126E+02 -0.61027328508E+03  0.62575542682E+03  0.12000000000E+03 0.  0.
         25    1    1    2    0    0  0.43882942656E+02  0.53015649126E+02 -0.45047411132E+03  0.47123592465E+03  0.12000000000E+03 0.  0.
<mgrwt>
<rscale>  0 0.27965154E+03</rscale>
<asrwt>0</asrwt>
<pdfrwt beam="1">  1        2 0.16597994E+00 0.27965154E+03</pdfrwt>
<pdfrwt beam="2">  1       -2 0.27879959E-02 0.27965154E+03</pdfrwt>
<totfact> 0.11096801E+04</totfact>
</mgrwt>
</event>
<event>
 4    1  0.1749575E-004  0.3672554E+03  0.7818608E-02  0.1055747E+00
         -2   -1    0    0    0  501 -0.00000000000E+00  0.00000000000E+00  0.16121219249E+02  0.16121219249E+02  0.00000000000E+00 0.  1.
          2   -1    0    0  501    0  0.00000000000E+00 -0.00000000000E+00 -0.20915998968E+04  0.20915998968E+04  0.00000000000E+00 0.  1.
         25    1    1    2    0    0 -0.11839884424E+03  0.61965847177E+02 -0.12571122946E+04  0.12698777004E+04  0.12000000000E+03 0.  0.
         25    1    1    2    0    0  0.11839884424E+03 -0.61965847177E+02 -0.81836638288E+03  0.83784341566E+03  0.12000000000E+03 0.  0.
<mgrwt>
<rscale>  0 0.36725545E+03</rscale>
<asrwt>0</asrwt>
<pdfrwt beam="1">  1        2 0.32178461E+00 0.36725545E+03</pdfrwt>
<pdfrwt beam="2">  1       -2 0.24801875E-02 0.36725545E+03</pdfrwt>
<totfact> 0.37266674E+03</totfact>
</mgrwt>
</event>
<event>
 4    1  0.1749575E-004  0.3219880E+03  0.7818608E-02  0.1074738E+00
          2   -1    0    0  501    0  0.00000000000E+00  0.00000000000E+00  0.26000151139E+04  0.26000151139E+04  0.00000000000E+00 0. -1.
         -2   -1    0    0    0  501 -0.00000000000E+00 -0.00000000000E+00 -0.99688171041E+01  0.99688171041E+01  0.00000000000E+00 0. -1.
         25    1    1    2    0    0 -0.88757932876E+02 -0.35505076312E+02  0.16905096246E+04  0.16974573255E+04  0.12000000000E+03 0.  0.
         25    1    1    2    0    0  0.88757932876E+02  0.35505076312E+02  0.89953667216E+03  0.91252660545E+03  0.12000000000E+03 0.  0.
<mgrwt>
<rscale>  0 0.32198804E+03</rscale>
<asrwt>0</asrwt>
<pdfrwt beam="1">  1        2 0.40000179E+00 0.32198804E+03</pdfrwt>
<pdfrwt beam="2">  1       -2 0.15336662E-02 0.32198804E+03</pdfrwt>
<totfact> 0.40241269E+03</totfact>
</mgrwt>
</event>
<event>
 4    1  0.1749575E-004  0.3053487E+03  0.7818608E-02  0.1082597E+00
          2   -1    0    0  501    0  0.00000000000E+00  0.00000000000E+00  0.75177986903E+03  0.75177986903E+03  0.00000000000E+00 0.  1.
         -2   -1    0    0    0  501 -0.00000000000E+00 -0.00000000000E+00 -0.31005700154E+02  0.31005700154E+02  0.00000000000E+00 0.  1.
         25    1    1    2    0    0  0.49270807502E+02 -0.75233903808E+02  0.43387324769E+03  0.45905745590E+03  0.12000000000E+03 0.  0.
         25    1    1    2    0    0 -0.49270807502E+02  0.75233903808E+02  0.28690092119E+03  0.32372811328E+03  0.12000000000E+03 0.  0.
<mgrwt>
<rscale>  0 0.30534873E+03</rscale>
<asrwt>0</asrwt>
<pdfrwt beam="1">  1        2 0.11565843E+00 0.30534873E+03</pdfrwt>
<pdfrwt beam="2">  1       -2 0.47701083E-02 0.30534873E+03</pdfrwt>
<totfact> 0.80822272E+03</totfact>
</mgrwt>
</event>
<event>
 4    1  0.1749575E-004  0.2965181E+03  0.7818608E-02  0.1086994E+00
         -2   -1    0    0    0  501 -0.00000000000E+00  0.00000000000E+00  0.30061831965E+02  0.30061831965E+02  0.00000000000E+00 0. -1.
          2   -1    0    0  501    0  0.00000000000E+00 -0.00000000000E+00 -0.73118466780E+03  0.73118466780E+03  0.00000000000E+00 0. -1.
         25    1    1    2    0    0 -0.73927015507E+02  0.20238434624E+02 -0.24452438815E+03  0.28296108259E+03  0.12000000000E+03 0.  0.
         25    1    1    2    0    0  0.73927015507E+02 -0.20238434624E+02 -0.45659844768E+03  0.47828541718E+03  0.12000000000E+03 0.  0.
<mgrwt>
<rscale>  0 0.29651813E+03</rscale>
<asrwt>0</asrwt>
<pdfrwt beam="1">  1        2 0.11248995E+00 0.29651813E+03</pdfrwt>
<pdfrwt beam="2">  1       -2 0.46248971E-02 0.29651813E+03</pdfrwt>
<totfact> 0.87607784E+03</totfact>
</mgrwt>
</event>
<event>
 4    1  0.1749575E-004  0.3074630E+03  0.7818608E-02  0.1081568E+00
         -1   -1    0    0    0  501 -0.00000000000E+00  0.00000000000E+00  0.13707931781E+04  0.13707931781E+04  0.00000000000E+00 0. -1.
          1   -1    0    0  501    0  0.00000000000E+00 -0.00000000000E+00 -0.17240658233E+02  0.17240658233E+02  0.00000000000E+00 0. -1.
         25    1    1    2    0    0 -0.95561464426E+02  0.99526594091E+01  0.68366402060E+03  0.70073357418E+03  0.12000000000E+03 0.  0.
         25    1    1    2    0    0  0.95561464426E+02 -0.99526594091E+01  0.66988849928E+03  0.68730026217E+03  0.12000000000E+03 0.  0.
<mgrwt>
<rscale>  0 0.30746302E+03</rscale>
<asrwt>0</asrwt>
<pdfrwt beam="1">  1        1 0.26524100E-02 0.30746302E+03</pdfrwt>
<pdfrwt beam="2">  1       -1 0.21089117E+00 0.30746302E+03</pdfrwt>
<totfact> 0.57380630E+02</totfact>
</mgrwt>
</event>
<event>
 4    1  0.1749575E-004  0.2572089E+03  0.7818608E-02  0.1108832E+00
          1   -1    0    0  501    0  0.00000000000E+00  0.00000000000E+00  0.68004808990E+03  0.68004808990E+03  0.00000000000E+00 0. -1.
         -1   -1    0    0    0  501 -0.00000000000E+00 -0.00000000000E+00 -0.24320483775E+02  0.24320483775E+02  0.00000000000E+00 0. -1.
         25    1    1    2    0    0 -0.37328105990E+02  0.14584636902E+02  0.39108714094E+03  0.41104166570E+03  0.12000000000E+03 0.  0.
         25    1    1    2    0    0  0.37328105990E+02 -0.14584636902E+02  0.26464046519E+03  0.29332690798E+03  0.12000000000E+03 0.  0.
<mgrwt>
<rscale>  0 0.25720885E+03</rscale>
<asrwt>0</asrwt>
<pdfrwt beam="1">  1        1 0.10462277E+00 0.25720885E+03</pdfrwt>
<pdfrwt beam="2">  1       -1 0.37416134E-02 0.25720885E+03</pdfrwt>
<totfact> 0.79427938E+03</totfact>
</mgrwt>
</event>
<event>
 4    1  0.1749575E-004  0.3369807E+03  0.7818608E-02  0.1068089E+00
         -2   -1    0    0    0  501 -0.00000000000E+00  0.00000000000E+00  0.20233239525E+03  0.20233239525E+03  0.00000000000E+00 0. -1.
          2   -1    0    0  501    0  0.00000000000E+00 -0.00000000000E+00 -0.14030868071E+03  0.14030868071E+03  0.00000000000E+00 0. -1.
         25    1    1    2    0    0  0.78964415226E+02 -0.66133497758E+02  0.90125955096E+02  0.18202116959E+03  0.12000000000E+03 0.  0.
         25    1    1    2    0    0 -0.78964415226E+02  0.66133497758E+02 -0.28102240547E+02  0.16061990637E+03  0.12000000000E+03 0.  0.
<mgrwt>
<rscale>  0 0.33698066E+03</rscale>
<asrwt>0</asrwt>
<pdfrwt beam="1">  1        2 0.21585951E-01 0.33698066E+03</pdfrwt>
<pdfrwt beam="2">  1       -2 0.31128061E-01 0.33698066E+03</pdfrwt>
<totfact> 0.24382421E+03</totfact>
</mgrwt>
</event>
<event>
 4    1  0.1749575E-004  0.2875501E+03  0.7818608E-02  0.1091635E+00
          2   -1    0    0  501    0  0.00000000000E+00  0.00000000000E+00  0.20037020851E+03  0.20037020851E+03  0.00000000000E+00 0.  1.
         -2   -1    0    0    0  501 -0.00000000000E+00 -0.00000000000E+00 -0.10316539325E+03  0.10316539325E+03  0.00000000000E+00 0.  1.
         25    1    1    2    0    0 -0.11184400243E+02  0.62973694029E+02  0.97894078031E+02  0.16755305865E+03  0.12000000000E+03 0.  0.
         25    1    1    2    0    0  0.11184400243E+02 -0.62973694029E+02 -0.68926277876E+00  0.13598254311E+03  0.12000000000E+03 0.  0.
<mgrwt>
<rscale>  0 0.28755014E+03</rscale>
<asrwt>0</asrwt>
<pdfrwt beam="1">  1        2 0.30826186E-01 0.28755014E+03</pdfrwt>
<pdfrwt beam="2">  1       -2 0.15871599E-01 0.28755014E+03</pdfrwt>
<totfact> 0.52746761E+03</totfact>
</mgrwt>
</event>
<event>
 4    1  0.1749575E-004  0.2800155E+03  0.7818608E-02  0.1095680E+00
         -1   -1    0    0    0  501 -0.00000000000E+00  0.00000000000E+00  0.92163971315E+03  0.92163971315E+03  0.00000000000E+00 0.  1.
          1   -1    0    0  501    0  0.00000000000E+00 -0.00000000000E+00 -0.21268805917E+02  0.21268805917E+02  0.00000000000E+00 0.  1.
         25    1    1    2    0    0 -0.42651356280E+02 -0.34297143165E+02  0.60836975953E+03  0.62250236669E+03  0.12000000000E+03 0.  0.
         25    1    1    2    0    0  0.42651356280E+02  0.34297143165E+02  0.29200114770E+03  0.32040615237E+03  0.12000000000E+03 0.  0.
<mgrwt>
<rscale>  0 0.28001554E+03</rscale>
<asrwt>0</asrwt>
<pdfrwt beam="1">  1        1 0.32721247E-02 0.28001554E+03</pdfrwt>
<pdfrwt beam="2">  1       -1 0.14179069E+00 0.28001554E+03</pdfrwt>
<totfact> 0.13197920E+03</totfact>
</mgrwt>
</event>
<event>
 4    1  0.1749575E-004  0.2769335E+03  0.7818608E-02  0.1097376E+00
         -2   -1    0    0    0  501 -0.00000000000E+00  0.00000000000E+00  0.35455253724E+02  0.35455253724E+02  0.00000000000E+00 0.  1.
          2   -1    0    0  501    0  0.00000000000E+00 -0.00000000000E+00 -0.54076714279E+03  0.54076714279E+03  0.00000000000E+00 0.  1.
         25    1    1    2    0    0 -0.11803538099E+02  0.60832140276E+02 -0.31621735885E+03  0.34385068102E+03  0.12000000000E+03 0.  0.
         25    1    1    2    0    0  0.11803538099E+02 -0.60832140276E+02 -0.18909453022E+03  0.23237171549E+03  0.12000000000E+03 0.  0.
<mgrwt>
<rscale>  0 0.27693347E+03</rscale>
<asrwt>0</asrwt>
<pdfrwt beam="1">  1        2 0.83194944E-01 0.27693347E+03</pdfrwt>
<pdfrwt beam="2">  1       -2 0.54546545E-02 0.27693347E+03</pdfrwt>
<totfact> 0.97078489E+03</totfact>
</mgrwt>
</event>
<event>
 4    1  0.1749575E-004  0.2668309E+03  0.7818608E-02  0.1103107E+00
         -3   -1    0    0    0  501 -0.00000000000E+00  0.00000000000E+00  0.26639077811E+03  0.26639077811E+03  0.00000000000E+00 0.  1.
          3   -1    0    0  501    0  0.00000000000E+00 -0.00000000000E+00 -0.66817944739E+02  0.66817944739E+02  0.00000000000E+00 0.  1.
         25    1    1    2    0    0 -0.17139944034E+02  0.53605997191E+02  0.11881946088E+03  0.17800405866E+03  0.12000000000E+03 0.  0.
         25    1    1    2    0    0  0.17139944034E+02 -0.53605997191E+02  0.80753372493E+02  0.15520466419E+03  0.12000000000E+03 0.  0.
<mgrwt>
<rscale>  0 0.26683091E+03</rscale>
<asrwt>0</asrwt>
<pdfrwt beam="1">  1        3 0.10279684E-01 0.26683091E+03</pdfrwt>
<pdfrwt beam="2">  1       -3 0.40983196E-01 0.26683091E+03</pdfrwt>
<totfact> 0.10579807E+03</totfact>
</mgrwt>
</event>
<event>
 4    1  0.1749575E-004  0.2911448E+03  0.7818608E-02  0.1089753E+00
          2   -1    0    0  501    0  0.00000000000E+00  0.00000000000E+00  0.18713621580E+03  0.18713621580E+03  0.00000000000E+00 0.  1.
         -2   -1    0    0    0  501 -0.00000000000E+00 -0.00000000000E+00 -0.11324012016E+03  0.11324012016E+03  0.00000000000E+00 0.  1.
         25    1    1    2    0    0  0.20313738490E+02  0.79541179888E+02  0.29516866640E+02  0.14836001040E+03  0.12000000000E+03 0.  0.
         25    1    1    2    0    0 -0.20313738490E+02 -0.79541179888E+02  0.44379229000E+02  0.15201632556E+03  0.12000000000E+03 0.  0.
<mgrwt>
<rscale>  0 0.29114483E+03</rscale>
<asrwt>0</asrwt>
<pdfrwt beam="1">  1        2 0.28790187E-01 0.29114483E+03</pdfrwt>
<pdfrwt beam="2">  1       -2 0.17421557E-01 0.29114483E+03</pdfrwt>
<totfact> 0.48672949E+03</totfact>
</mgrwt>
</event>
<event>
 4    1  0.1749575E-004  0.2950824E+03  0.7818608E-02  0.1087725E+00
         -2   -1    0    0    0  501 -0.00000000000E+00  0.00000000000E+00  0.11020394563E+02  0.11020394563E+02  0.00000000000E+00 0. -1.
          2   -1    0    0  501    0  0.00000000000E+00 -0.00000000000E+00 -0.19752842997E+04  0.19752842997E+04  0.00000000000E+00 0. -1.
         25    1    1    2    0    0  0.42093529790E+02 -0.92815467785E+01 -0.48244954656E+03  0.49901460633E+03  0.12000000000E+03 0.  0.
         25    1    1    2    0    0 -0.42093529790E+02  0.92815467785E+01 -0.14818143586E+04  0.14872900880E+04  0.12000000000E+03 0.  0.
<mgrwt>
<rscale>  0 0.29508245E+03</rscale>
<asrwt>0</asrwt>
<pdfrwt beam="1">  1        2 0.30388988E+00 0.29508245E+03</pdfrwt>
<pdfrwt beam="2">  1       -2 0.16954454E-02 0.29508245E+03</pdfrwt>
<totfact> 0.75513391E+03</totfact>
</mgrwt>
</event>
<event>
 4    1  0.1749575E-004  0.2480652E+03  0.7818608E-02  0.1114534E+00
         -2   -1    0    0    0  501 -0.00000000000E+00  0.00000000000E+00  0.15936219369E+02  0.15936219369E+02  0.00000000000E+00 0.  1.
          2   -1    0    0  501    0  0.00000000000E+00 -0.00000000000E+00 -0.96535346267E+03  0.96535346267E+03  0.00000000000E+00 0.  1.
         25    1    1    2    0    0 -0.43890840626E+00  0.27422442722E+02 -0.41446886226E+03  0.43236167822E+03  0.12000000000E+03 0.  0.
         25    1    1    2    0    0  0.43890840626E+00 -0.27422442722E+02 -0.53494838104E+03  0.54892800383E+03  0.12000000000E+03 0.  0.
<mgrwt>
<rscale>  0 0.24806519E+03</rscale>
<asrwt>0</asrwt>
<pdfrwt beam="1">  1        2 0.14851600E+00 0.24806519E+03</pdfrwt>
<pdfrwt beam="2">  1       -2 0.24517247E-02 0.24806519E+03</pdfrwt>
<totfact> 0.15659796E+04</totfact>
</mgrwt>
</event>
<event>
 4    1  0.1749575E-004  0.3542258E+03  0.7818608E-02  0.1060894E+00
          2   -1    0    0  501    0  0.00000000000E+00  0.00000000000E+00  0.42882361756E+03  0.42882361756E+03  0.00000000000E+00 0.  1.
         -2   -1    0    0    0  501 -0.00000000000E+00 -0.00000000000E+00 -0.73151235364E+02  0.73151235364E+02  0.00000000000E+00 0.  1.
         25    1    1    2    0    0 -0.82382045706E+02 -0.87172393513E+02  0.10581230085E+03  0.19995517162E+03  0.12000000000E+03 0.  0.
         25    1    1    2    0    0  0.82382045706E+02  0.87172393513E+02  0.24986008135E+03  0.30201968131E+03  0.12000000000E+03 0.  0.
<mgrwt>
<rscale>  0 0.35422579E+03</rscale>
<asrwt>0</asrwt>
<pdfrwt beam="1">  1        2 0.65972862E-01 0.35422579E+03</pdfrwt>
<pdfrwt beam="2">  1       -2 0.11254037E-01 0.35422579E+03</pdfrwt>
<totfact> 0.40717686E+03</totfact>
</mgrwt>
</event>
<event>
 4    1  0.1749575E-004  0.2990895E+03  0.7818608E-02  0.1085697E+00
          2   -1    0    0  501    0  0.00000000000E+00  0.00000000000E+00  0.28697382218E+04  0.28697382218E+04  0.00000000000E+00 0. -1.
         -2   -1    0    0    0  501 -0.00000000000E+00 -0.00000000000E+00 -0.77929168474E+01  0.77929168474E+01  0.00000000000E+00 0. -1.
         25    1    1    2    0    0  0.44740923522E+02  0.26628477266E+02  0.73368090419E+03  0.74525062577E+03  0.12000000000E+03 0.  0.
         25    1    1    2    0    0 -0.44740923522E+02 -0.26628477266E+02  0.21282644008E+04  0.21322805129E+04  0.12000000000E+03 0.  0.
<mgrwt>
<rscale>  0 0.29908949E+03</rscale>
<asrwt>0</asrwt>
<pdfrwt beam="1">  1        2 0.44149734E+00 0.29908949E+03</pdfrwt>
<pdfrwt beam="2">  1       -2 0.11989126E-02 0.29908949E+03</pdfrwt>
<totfact> 0.40601153E+03</totfact>
</mgrwt>
</event>
<event>
 4    1  0.1749575E-004  0.3128209E+03  0.7818608E-02  0.1079002E+00
          2   -1    0    0  501    0  0.00000000000E+00  0.00000000000E+00  0.21703529479E+03  0.21703529479E+03  0.00000000000E+00 0. -1.
         -2   -1    0    0    0  501 -0.00000000000E+00 -0.00000000000E+00 -0.11272008043E+03  0.11272008043E+03  0.00000000000E+00 0. -1.
         25    1    1    2    0    0 -0.78332975219E+00 -0.20639664913E+02 -0.51328274969E+02  0.13214083844E+03  0.12000000000E+03 0.  0.
         25    1    1    2    0    0  0.78332975219E+00  0.20639664913E+02  0.15564348933E+03  0.19761453677E+03  0.12000000000E+03 0.  0.
<mgrwt>
<rscale>  0 0.31282094E+03</rscale>
<asrwt>0</asrwt>
<pdfrwt beam="1">  1        2 0.33390045E-01 0.31282094E+03</pdfrwt>
<pdfrwt beam="2">  1       -2 0.17341551E-01 0.31282094E+03</pdfrwt>
<totfact> 0.41768076E+03</totfact>
</mgrwt>
</event>
<event>
 4    1  0.1749575E-004  0.2753316E+03  0.7818608E-02  0.1098266E+00
          3   -1    0    0  501    0  0.00000000000E+00  0.00000000000E+00  0.62141658863E+02  0.62141658863E+02  0.00000000000E+00 0.  1.
         -3   -1    0    0    0  501 -0.00000000000E+00 -0.00000000000E+00 -0.30497863058E+03  0.30497863058E+03  0.00000000000E+00 0.  1.
         25    1    1    2    0    0  0.14255692739E+02 -0.60604134588E+02 -0.86756070185E+02  0.16063219359E+03  0.12000000000E+03 0.  0.
         25    1    1    2    0    0 -0.14255692739E+02  0.60604134588E+02 -0.15608090153E+03  0.20648809585E+03  0.12000000000E+03 0.  0.
<mgrwt>
<rscale>  0 0.27533164E+03</rscale>
<asrwt>0</asrwt>
<pdfrwt beam="1">  1        3 0.95602552E-02 0.27533164E+03</pdfrwt>
<pdfrwt beam="2">  1       -3 0.46919789E-01 0.27533164E+03</pdfrwt>
<totfact> 0.91730840E+02</totfact>
</mgrwt>
</event>
<event>
 4    1  0.1749575E-004  0.2837146E+03  0.7818608E-02  0.1093677E+00
          1   -1    0    0  501    0  0.00000000000E+00  0.00000000000E+00  0.83146446630E+02  0.83146446630E+02  0.00000000000E+00 0. -1.
         -1   -1    0    0    0  501 -0.00000000000E+00 -0.00000000000E+00 -0.24202463160E+03  0.24202463160E+03  0.00000000000E+00 0. -1.
         25    1    1    2    0    0  0.25084684066E+02 -0.60782401311E+02 -0.12231911148E+03  0.18353666314E+03  0.12000000000E+03 0.  0.
         25    1    1    2    0    0 -0.25084684066E+02  0.60782401311E+02 -0.36559073492E+02  0.14163441509E+03  0.12000000000E+03 0.  0.
<mgrwt>
<rscale>  0 0.28371456E+03</rscale>
<asrwt>0</asrwt>
<pdfrwt beam="1">  1        1 0.12791761E-01 0.28371456E+03</pdfrwt>
<pdfrwt beam="2">  1       -1 0.37234558E-01 0.28371456E+03</pdfrwt>
<totfact> 0.32197192E+03</totfact>
</mgrwt>
</event>
<event>
 4    1  0.1749575E-004  0.2916968E+03  0.7818608E-02  0.1089467E+00
         -1   -1    0    0    0  501 -0.00000000000E+00  0.00000000000E+00  0.10527564458E+03  0.10527564458E+03  0.00000000000E+00 0.  1.
          1   -1    0    0  501    0  0.00000000000E+00 -0.00000000000E+00 -0.20205772063E+03  0.20205772063E+03  0.00000000000E+00 0.  1.
         25    1    1    2    0    0  0.72460110303E+01 -0.74962369742E+02 -0.11894665612E+02  0.14217364251E+03  0.12000000000E+03 0.  0.
         25    1    1    2    0    0 -0.72460110303E+01  0.74962369742E+02 -0.84887410436E+02  0.16515972270E+03  0.12000000000E+03 0.  0.
<mgrwt>
<rscale>  0 0.29169681E+03</rscale>
<asrwt>0</asrwt>
<pdfrwt beam="1">  1        1 0.31085803E-01 0.29169681E+03</pdfrwt>
<pdfrwt beam="2">  1       -1 0.16196253E-01 0.29169681E+03</pdfrwt>
<totfact> 0.40984544E+03</totfact>
</mgrwt>
</event>
<event>
 4    1  0.1749575E-004  0.2885463E+03  0.7818608E-02  0.1091111E+00
          3   -1    0    0  501    0  0.00000000000E+00  0.00000000000E+00  0.50704375413E+03  0.50704375413E+03  0.00000000000E+00 0. -1.
         -3   -1    0    0    0  501 -0.00000000000E+00 -0.00000000000E+00 -0.41051182041E+02  0.41051182041E+02  0.00000000000E+00 0. -1.
         25    1    1    2    0    0 -0.18515970285E+02  0.67514587540E+02  0.15909398479E+03  0.21121542719E+03  0.12000000000E+03 0.  0.
         25    1    1    2    0    0  0.18515970285E+02 -0.67514587540E+02  0.30689858730E+03  0.33687950899E+03  0.12000000000E+03 0.  0.
<mgrwt>
<rscale>  0 0.28854633E+03</rscale>
<asrwt>0</asrwt>
<pdfrwt beam="1">  1        3 0.78006727E-01 0.28854633E+03</pdfrwt>
<pdfrwt beam="2">  1       -3 0.63155668E-02 0.28854633E+03</pdfrwt>
<totfact> 0.63060149E+02</totfact>
</mgrwt>
</event>
<event>
 4    1  0.1749575E-004  0.3825802E+03  0.7818608E-02  0.1049984E+00
         -1   -1    0    0    0  501 -0.00000000000E+00  0.00000000000E+00  0.14344145187E+02  0.14344145187E+02  0.00000000000E+00 0.  1.
          1   -1    0    0  501    0  0.00000000000E+00 -0.00000000000E+00 -0.25509989311E+04  0.25509989311E+04  0.00000000000E+00 0.  1.
         25    1    1    2    0    0  0.86327304681E+02  0.11228314019E+03 -0.95871683485E+03  0.97652336199E+03  0.12000000000E+03 0.  0.
         25    1    1    2    0    0 -0.86327304681E+02 -0.11228314019E+03 -0.15779379511E+04  0.15888197143E+04  0.12000000000E+03 0.  0.
<mgrwt>
<rscale>  0 0.38258018E+03</rscale>
<asrwt>0</asrwt>
<pdfrwt beam="1">  1        1 0.39246122E+00 0.38258018E+03</pdfrwt>
<pdfrwt beam="2">  1       -1 0.22067924E-02 0.38258018E+03</pdfrwt>
<totfact> 0.85922907E+02</totfact>
</mgrwt>
</event>
<event>
 4    1  0.1749575E-004  0.2483500E+03  0.7818608E-02  0.1114352E+00
          1   -1    0    0  501    0  0.00000000000E+00  0.00000000000E+00  0.61333196412E+03  0.61333196412E+03  0.00000000000E+00 0.  1.
         -1   -1    0    0    0  501 -0.00000000000E+00 -0.00000000000E+00 -0.25140426462E+02  0.25140426462E+02  0.00000000000E+00 0.  1.
         25    1    1    2    0    0  0.22537553172E+02  0.12518660727E+02  0.24567286598E+03  0.27462668342E+03  0.12000000000E+03 0.  0.
         25    1    1    2    0    0 -0.22537553172E+02 -0.12518660727E+02  0.34251867168E+03  0.36384570716E+03  0.12000000000E+03 0.  0.
<mgrwt>
<rscale>  0 0.24834997E+03</rscale>
<asrwt>0</asrwt>
<pdfrwt beam="1">  1        1 0.94358753E-01 0.24834997E+03</pdfrwt>
<pdfrwt beam="2">  1       -1 0.38677584E-02 0.24834997E+03</pdfrwt>
<totfact> 0.87423596E+03</totfact>
</mgrwt>
</event>
<event>
 4    1  0.1749575E-004  0.2557611E+03  0.7818608E-02  0.1109717E+00
          2   -1    0    0  501    0  0.00000000000E+00  0.00000000000E+00  0.11128440483E+02  0.11128440483E+02  0.00000000000E+00 0.  1.
         -2   -1    0    0    0  501 -0.00000000000E+00 -0.00000000000E+00 -0.14695175301E+04  0.14695175301E+04  0.00000000000E+00 0.  1.
         25    1    1    2    0    0 -0.31366769935E+02  0.25125303388E+02 -0.83567182233E+03  0.84519970998E+03  0.12000000000E+03 0.  0.
         25    1    1    2    0    0  0.31366769935E+02 -0.25125303388E+02 -0.62271726729E+03  0.63544626059E+03  0.12000000000E+03 0.  0.
<mgrwt>
<rscale>  0 0.25576113E+03</rscale>
<asrwt>0</asrwt>
<pdfrwt beam="1">  1        2 0.17120688E-02 0.25576113E+03</pdfrwt>
<pdfrwt beam="2">  1       -2 0.22607948E+00 0.25576113E+03</pdfrwt>
<totfact> 0.67560423E+02</totfact>
</mgrwt>
</event>
<event>
 4    1  0.1749575E-004  0.3443581E+03  0.7818608E-02  0.1064955E+00
         -1   -1    0    0    0  501 -0.00000000000E+00  0.00000000000E+00  0.86799193768E+01  0.86799193768E+01  0.00000000000E+00 0. -1.
          1   -1    0    0  501    0  0.00000000000E+00 -0.00000000000E+00 -0.34154263141E+04  0.34154263141E+04  0.00000000000E+00 0. -1.
         25    1    1    2    0    0  0.31753862190E+02 -0.10145254583E+03 -0.23278895596E+04  0.23334032503E+04  0.12000000000E+03 0.  0.
         25    1    1    2    0    0 -0.31753862190E+02  0.10145254583E+03 -0.10788568352E+04  0.10907029832E+04  0.12000000000E+03 0.  0.
<mgrwt>
<rscale>  0 0.34435810E+03</rscale>
<asrwt>0</asrwt>
<pdfrwt beam="1">  1        1 0.52545104E+00 0.34435810E+03</pdfrwt>
<pdfrwt beam="2">  1       -1 0.13353701E-02 0.34435810E+03</pdfrwt>
<totfact> 0.44318476E+02</totfact>
</mgrwt>
</event>
<event>
 4    1  0.1749575E-004  0.2567942E+03  0.7818608E-02  0.1109085E+00
         -3   -1    0    0    0  501 -0.00000000000E+00  0.00000000000E+00  0.83377650826E+02  0.83377650826E+02  0.00000000000E+00 0. -1.
          3   -1    0    0  501    0  0.00000000000E+00 -0.00000000000E+00 -0.19772463875E+03  0.19772463875E+03  0.00000000000E+00 0. -1.
         25    1    1    2    0    0 -0.38252148030E+02 -0.24951714808E+02 -0.57139077609E+02  0.14053714488E+03  0.12000000000E+03 0.  0.
         25    1    1    2    0    0  0.38252148030E+02  0.24951714808E+02 -0.57207910315E+02  0.14056514470E+03  0.12000000000E+03 0.  0.
<mgrwt>
<rscale>  0 0.25679420E+03</rscale>
<asrwt>0</asrwt>
<pdfrwt beam="1">  1        3 0.30419175E-01 0.25679420E+03</pdfrwt>
<pdfrwt beam="2">  1       -3 0.12827331E-01 0.25679420E+03</pdfrwt>
<totfact> 0.12817977E+03</totfact>
</mgrwt>
</event>
<event>
 4    1  0.1749575E-004  0.2915209E+03  0.7818608E-02  0.1089558E+00
          1   -1    0    0  501    0  0.00000000000E+00  0.00000000000E+00  0.13967590960E+02  0.13967590960E+02  0.00000000000E+00 0.  1.
         -1   -1    0    0    0  501 -0.00000000000E+00 -0.00000000000E+00 -0.15211008863E+04  0.15211008863E+04  0.00000000000E+00 0.  1.
         25    1    1    2    0    0 -0.23908464939E+02  0.73148404124E+02 -0.59351887984E+03  0.61039902068E+03  0.12000000000E+03 0.  0.
         25    1    1    2    0    0  0.23908464939E+02 -0.73148404124E+02 -0.91361441547E+03  0.92466945655E+03  0.12000000000E+03 0.  0.
<mgrwt>
<rscale>  0 0.29152094E+03</rscale>
<asrwt>0</asrwt>
<pdfrwt beam="1">  1        1 0.21488590E-02 0.29152094E+03</pdfrwt>
<pdfrwt beam="2">  1       -1 0.23401565E+00 0.29152094E+03</pdfrwt>
<totfact> 0.54756251E+02</totfact>
</mgrwt>
</event>
<event>
 4    1  0.1749575E-004  0.3049361E+03  0.7818608E-02  0.1082799E+00
          2   -1    0    0  501    0  0.00000000000E+00  0.00000000000E+00  0.83409837144E+02  0.83409837144E+02  0.00000000000E+00 0.  1.
         -2   -1    0    0    0  501 -0.00000000000E+00 -0.00000000000E+00 -0.27870225696E+03  0.27870225696E+03  0.00000000000E+00 0.  1.
         25    1    1    2    0    0 -0.34829540958E+00 -0.71429576642E+02 -0.17030930858E+03  0.22024433322E+03  0.12000000000E+03 0.  0.
         25    1    1    2    0    0  0.34829540958E+00  0.71429576642E+02 -0.24983111235E+02  0.14186776088E+03  0.12000000000E+03 0.  0.
<mgrwt>
<rscale>  0 0.30493612E+03</rscale>
<asrwt>0</asrwt>
<pdfrwt beam="1">  1        2 0.12832283E-01 0.30493612E+03</pdfrwt>
<pdfrwt beam="2">  1       -2 0.42877270E-01 0.30493612E+03</pdfrwt>
<totfact> 0.24523188E+03</totfact>
</mgrwt>
</event>
<event>
 4    1  0.1749575E-004  0.2946492E+03  0.7818608E-02  0.1087946E+00
          1   -1    0    0  501    0  0.00000000000E+00  0.00000000000E+00  0.40001463604E+03  0.40001463604E+03  0.00000000000E+00 0. -1.
         -1   -1    0    0    0  501 -0.00000000000E+00 -0.00000000000E+00 -0.54259343399E+02  0.54259343399E+02  0.00000000000E+00 0. -1.
         25    1    1    2    0    0  0.32793363248E+02  0.78309973374E+02  0.15771868235E+03  0.21559925641E+03  0.12000000000E+03 0.  0.
         25    1    1    2    0    0 -0.32793363248E+02 -0.78309973374E+02  0.18803661030E+03  0.23867472303E+03  0.12000000000E+03 0.  0.
<mgrwt>
<rscale>  0 0.29464916E+03</rscale>
<asrwt>0</asrwt>
<pdfrwt beam="1">  1        1 0.61540711E-01 0.29464916E+03</pdfrwt>
<pdfrwt beam="2">  1       -1 0.83475915E-02 0.29464916E+03</pdfrwt>
<totfact> 0.48732472E+03</totfact>
</mgrwt>
</event>
<event>
 4    1  0.1749575E-004  0.2515821E+03  0.7818608E-02  0.1112309E+00
         -2   -1    0    0    0  501 -0.00000000000E+00  0.00000000000E+00  0.10173728513E+02  0.10173728513E+02  0.00000000000E+00 0. -1.
          2   -1    0    0  501    0  0.00000000000E+00 -0.00000000000E+00 -0.15553186092E+04  0.15553186092E+04  0.00000000000E+00 0. -1.
         25    1    1    2    0    0  0.13410965599E+02 -0.32525888698E+02 -0.68779850553E+03  0.69907408165E+03  0.12000000000E+03 0.  0.
         25    1    1    2    0    0 -0.13410965599E+02  0.32525888698E+02 -0.85734637515E+03  0.86641825605E+03  0.12000000000E+03 0.  0.
<mgrwt>
<rscale>  0 0.25158211E+03</rscale>
<asrwt>0</asrwt>
<pdfrwt beam="1">  1        2 0.23927978E+00 0.25158211E+03</pdfrwt>
<pdfrwt beam="2">  1       -2 0.15651891E-02 0.25158211E+03</pdfrwt>
<totfact> 0.14087515E+04</totfact>
</mgrwt>
</event>
<event>
 4    1  0.1749575E-004  0.2861534E+03  0.7818608E-02  0.1092375E+00
         -2   -1    0    0    0  501 -0.00000000000E+00  0.00000000000E+00  0.62526776885E+02  0.62526776885E+02  0.00000000000E+00 0. -1.
          2   -1    0    0  501    0  0.00000000000E+00 -0.00000000000E+00 -0.32739472042E+03  0.32739472042E+03  0.00000000000E+00 0. -1.
         25    1    1    2    0    0  0.29110915331E+02 -0.56362004463E+02 -0.70786155619E+02  0.15308429301E+03  0.12000000000E+03 0.  0.
         25    1    1    2    0    0 -0.29110915331E+02  0.56362004463E+02 -0.19408178791E+03  0.23683720430E+03  0.12000000000E+03 0.  0.
<mgrwt>
<rscale>  0 0.28615336E+03</rscale>
<asrwt>0</asrwt>
<pdfrwt beam="1">  1        2 0.50368419E-01 0.28615336E+03</pdfrwt>
<pdfrwt beam="2">  1       -2 0.96195040E-02 0.28615336E+03</pdfrwt>
<totfact> 0.69832647E+03</totfact>
</mgrwt>
</event>
<event>
 4    1  0.1749575E-004  0.2988168E+03  0.7818608E-02  0.1085834E+00
         -1   -1    0    0    0  501 -0.00000000000E+00  0.00000000000E+00  0.18348224601E+03  0.18348224601E+03  0.00000000000E+00 0. -1.
          1   -1    0    0  501    0  0.00000000000E+00 -0.00000000000E+00 -0.12166226664E+03  0.12166226664E+03  0.00000000000E+00 0. -1.
         25    1    1    2    0    0  0.93552132901E+01  0.81163563911E+02 -0.51625633303E+01  0.14526422885E+03  0.12000000000E+03 0.  0.
         25    1    1    2    0    0 -0.93552132901E+01 -0.81163563911E+02  0.66982542698E+02  0.15988028380E+03  0.12000000000E+03 0.  0.
<mgrwt>
<rscale>  0 0.29881677E+03</rscale>
<asrwt>0</asrwt>
<pdfrwt beam="1">  1        1 0.18717272E-01 0.29881677E+03</pdfrwt>
<pdfrwt beam="2">  1       -1 0.28228038E-01 0.29881677E+03</pdfrwt>
<totfact> 0.31519918E+03</totfact>
</mgrwt>
</event>
<event>
 4    1  0.1749575E-004  0.3493996E+03  0.7818608E-02  0.1062862E+00
         -2   -1    0    0    0  501 -0.00000000000E+00  0.00000000000E+00  0.20976090745E+02  0.20976090745E+02  0.00000000000E+00 0.  1.
          2   -1    0    0  501    0  0.00000000000E+00 -0.00000000000E+00 -0.14549905081E+04  0.14549905081E+04  0.00000000000E+00 0.  1.
         25    1    1    2    0    0 -0.90634905696E+02 -0.53941099046E+01 -0.34210898509E+03  0.37374100689E+03  0.12000000000E+03 0.  0.
         25    1    1    2    0    0  0.90634905696E+02  0.53941099046E+01 -0.10919054323E+04  0.11022255920E+04  0.12000000000E+03 0.  0.
<mgrwt>
<rscale>  0 0.34939956E+03</rscale>
<asrwt>0</asrwt>
<pdfrwt beam="1">  1        2 0.22384472E+00 0.34939956E+03</pdfrwt>
<pdfrwt beam="2">  1       -2 0.32270905E-02 0.34939956E+03</pdfrwt>
<totfact> 0.54944511E+03</totfact>
</mgrwt>
</event>
<event>
 4    1  0.1749575E-004  0.2538341E+03  0.7818608E-02  0.1110905E+00
         -1   -1    0    0    0  501 -0.00000000000E+00  0.00000000000E+00  0.55272705486E+01  0.55272705486E+01  0.00000000000E+00 0. -1.
          1   -1    0    0  501    0  0.00000000000E+00 -0.00000000000E+00 -0.29142668181E+04  0.29142668181E+04  0.00000000000E+00 0. -1.
         25    1    1    2    0    0  0.10769814815E+02  0.14255875086E+01 -0.99571085740E+03  0.10029746421E+04  0.12000000000E+03 0.  0.
         25    1    1    2    0    0 -0.10769814815E+02 -0.14255875086E+01 -0.19130286902E+04  0.19168194465E+04  0.12000000000E+03 0.  0.
<mgrwt>
<rscale>  0 0.25383413E+03</rscale>
<asrwt>0</asrwt>
<pdfrwt beam="1">  1        1 0.44834887E+00 0.25383413E+03</pdfrwt>
<pdfrwt beam="2">  1       -1 0.85034908E-03 0.25383413E+03</pdfrwt>
<totfact> 0.19782166E+03</totfact>
</mgrwt>
</event>
<event>
 4    1  0.1749575E-004  0.3132891E+03  0.7818608E-02  0.1078780E+00
         -1   -1    0    0    0  501 -0.00000000000E+00  0.00000000000E+00  0.40179952396E+02  0.40179952396E+02  0.00000000000E+00 0. -1.
          1   -1    0    0  501    0  0.00000000000E+00 -0.00000000000E+00 -0.61069052532E+03  0.61069052532E+03  0.00000000000E+00 0. -1.
         25    1    1    2    0    0 -0.85134385354E+02 -0.49084392523E+02 -0.33078967523E+03  0.36534771163E+03  0.12000000000E+03 0.  0.
         25    1    1    2    0    0  0.85134385354E+02  0.49084392523E+02 -0.23972089770E+03  0.28552276609E+03  0.12000000000E+03 0.  0.
<mgrwt>
<rscale>  0 0.31328911E+03</rscale>
<asrwt>0</asrwt>
<pdfrwt beam="1">  1        1 0.93952382E-01 0.31328911E+03</pdfrwt>
<pdfrwt beam="2">  1       -1 0.61815316E-02 0.31328911E+03</pdfrwt>
<totfact> 0.43849104E+03</totfact>
</mgrwt>
</event>
<event>
 4    1  0.1749575E-004  0.2675440E+03  0.7818608E-02  0.1102693E+00
         -1   -1    0    0    0  501 -0.00000000000E+00  0.00000000000E+00  0.16361528403E+02  0.16361528403E+02  0.00000000000E+00 0. -1.
          1   -1    0    0  501    0  0.00000000000E+00 -0.00000000000E+00 -0.10937214008E+04  0.10937214008E+04  0.00000000000E+00 0. -1.
         25    1    1    2    0    0 -0.57338794134E+02 -0.94869370909E+01 -0.58360107569E+03  0.59863841744E+03  0.12000000000E+03 0.  0.
         25    1    1    2    0    0  0.57338794134E+02  0.94869370909E+01 -0.49375879673E+03  0.51144451178E+03  0.12000000000E+03 0.  0.
<mgrwt>
<rscale>  0 0.26754404E+03</rscale>
<asrwt>0</asrwt>
<pdfrwt beam="1">  1        1 0.16826487E+00 0.26754404E+03</pdfrwt>
<pdfrwt beam="2">  1       -1 0.25171576E-02 0.26754404E+03</pdfrwt>
<totfact> 0.66573985E+03</totfact>
</mgrwt>
</event>
<event>
 4    1  0.1749575E-004  0.3322158E+03  0.7818608E-02  0.1070161E+00
         -2   -1    0    0    0  501 -0.00000000000E+00  0.00000000000E+00  0.80811235886E+02  0.80811235886E+02  0.00000000000E+00 0.  1.
          2   -1    0    0  501    0  0.00000000000E+00 -0.00000000000E+00 -0.34143553475E+03  0.34143553475E+03  0.00000000000E+00 0.  1.
         25    1    1    2    0    0  0.63674918371E+02  0.94448751624E+02 -0.11159924007E+03  0.19957317529E+03  0.12000000000E+03 0.  0.
         25    1    1    2    0    0 -0.63674918371E+02 -0.94448751624E+02 -0.14902505879E+03  0.22267359534E+03  0.12000000000E+03 0.  0.
<mgrwt>
<rscale>  0 0.33221576E+03</rscale>
<asrwt>0</asrwt>
<pdfrwt beam="1">  1        2 0.52528543E-01 0.33221576E+03</pdfrwt>
<pdfrwt beam="2">  1       -2 0.12432498E-01 0.33221576E+03</pdfrwt>
<totfact> 0.44387555E+03</totfact>
</mgrwt>
</event>
<event>
 4    1  0.1749575E-004  0.2860928E+03  0.7818608E-02  0.1092407E+00
          2   -1    0    0  501    0  0.00000000000E+00  0.00000000000E+00  0.35124922830E+03  0.35124922830E+03  0.00000000000E+00 0. -1.
         -2   -1    0    0    0  501 -0.00000000000E+00 -0.00000000000E+00 -0.58255708601E+02  0.58255708601E+02  0.00000000000E+00 0. -1.
         25    1    1    2    0    0 -0.56587131161E+02 -0.13846025430E+02  0.22043724657E+03  0.25765557535E+03  0.12000000000E+03 0.  0.
         25    1    1    2    0    0  0.56587131161E+02  0.13846025430E+02  0.72556273129E+02  0.15184936155E+03  0.12000000000E+03 0.  0.
<mgrwt>
<rscale>  0 0.28609280E+03</rscale>
<asrwt>0</asrwt>
<pdfrwt beam="1">  1        2 0.54038341E-01 0.28609280E+03</pdfrwt>
<pdfrwt beam="2">  1       -2 0.89624170E-02 0.28609280E+03</pdfrwt>
<totfact> 0.72390332E+03</totfact>
</mgrwt>
</event>
<event>
 4    1  0.1749575E-004  0.2630771E+03  0.7818608E-02  0.1105308E+00
          1   -1    0    0  501    0  0.00000000000E+00  0.00000000000E+00  0.29479997615E+03  0.29479997615E+03  0.00000000000E+00 0.  1.
         -1   -1    0    0    0  501 -0.00000000000E+00 -0.00000000000E+00 -0.58691950855E+02  0.58691950855E+02  0.00000000000E+00 0.  1.
         25    1    1    2    0    0  0.16288948976E+02 -0.51273322275E+02  0.12187873608E+03  0.17930061278E+03  0.12000000000E+03 0.  0.
         25    1    1    2    0    0 -0.16288948976E+02  0.51273322275E+02  0.11422928921E+03  0.17419131422E+03  0.12000000000E+03 0.  0.
<mgrwt>
<rscale>  0 0.26307707E+03</rscale>
<asrwt>0</asrwt>
<pdfrwt beam="1">  1        1 0.45353842E-01 0.26307707E+03</pdfrwt>
<pdfrwt beam="2">  1       -1 0.90295311E-02 0.26307707E+03</pdfrwt>
<totfact> 0.63397322E+03</totfact>
</mgrwt>
</event>
<event>
 4    1  0.1749575E-004  0.2437230E+03  0.7818608E-02  0.1117337E+00
          4   -1    0    0  501    0  0.00000000000E+00  0.00000000000E+00  0.37240933497E+03  0.37240933497E+03  0.00000000000E+00 0.  1.
         -4   -1    0    0    0  501 -0.00000000000E+00 -0.00000000000E+00 -0.39876077147E+02  0.39876077147E+02  0.00000000000E+00 0.  1.
         25    1    1    2    0    0 -0.84858620784E+01 -0.19397402423E+02  0.16863144074E+03  0.20805007061E+03  0.12000000000E+03 0.  0.
         25    1    1    2    0    0  0.84858620784E+01  0.19397402423E+02  0.16390181708E+03  0.20423534150E+03  0.12000000000E+03 0.  0.
<mgrwt>
<rscale>  0 0.24372299E+03</rscale>
<asrwt>0</asrwt>
<pdfrwt beam="1">  1        4 0.57293742E-01 0.24372299E+03</pdfrwt>
<pdfrwt beam="2">  1       -4 0.61347813E-02 0.24372299E+03</pdfrwt>
<totfact> 0.92281241E+02</totfact>
</mgrwt>
</event>
<event>
 4    1  0.1749575E-004  0.3615847E+03  0.7818608E-02  0.1057958E+00
         -3   -1    0    0    0  501 -0.00000000000E+00  0.00000000000E+00  0.53824790378E+02  0.53824790378E+02  0.00000000000E+00 0.  1.
          3   -1    0    0  501    0  0.00000000000E+00 -0.00000000000E+00 -0.60726424809E+03  0.60726424809E+03  0.00000000000E+00 0.  1.
         25    1    1    2    0    0  0.10032820420E+03  0.88651801489E+02 -0.31145668305E+03  0.35962502121E+03  0.12000000000E+03 0.  0.
         25    1    1    2    0    0 -0.10032820420E+03 -0.88651801489E+02 -0.24198277466E+03  0.30146401725E+03  0.12000000000E+03 0.  0.
<mgrwt>
<rscale>  0 0.36158468E+03</rscale>
<asrwt>0</asrwt>
<pdfrwt beam="1">  1        3 0.93425271E-01 0.36158468E+03</pdfrwt>
<pdfrwt beam="2">  1       -3 0.82807368E-02 0.36158468E+03</pdfrwt>
<totfact> 0.27586010E+02</totfact>
</mgrwt>
</event>
<event>
 4    1  0.1749575E-004  0.3872060E+03  0.7818608E-02  0.1048302E+00
         -2   -1    0    0    0  501 -0.00000000000E+00  0.00000000000E+00  0.28989847043E+02  0.28989847043E+02  0.00000000000E+00 0.  1.
          2   -1    0    0  501    0  0.00000000000E+00 -0.00000000000E+00 -0.12929398964E+04  0.12929398964E+04  0.00000000000E+00 0.  1.
         25    1    1    2    0    0 -0.13661259654E+03  0.47648744204E+02 -0.47372028910E+03  0.50965117156E+03  0.12000000000E+03 0.  0.
         25    1    1    2    0    0  0.13661259654E+03 -0.47648744204E+02 -0.79022976023E+03  0.81227857186E+03  0.12000000000E+03 0.  0.
<mgrwt>
<rscale>  0 0.38720604E+03</rscale>
<asrwt>0</asrwt>
<pdfrwt beam="1">  1        2 0.19891388E+00 0.38720604E+03</pdfrwt>
<pdfrwt beam="2">  1       -2 0.44599754E-02 0.38720604E+03</pdfrwt>
<totfact> 0.41393343E+03</totfact>
</mgrwt>
</event>
<event>
 4    1  0.1749575E-004  0.3378790E+03  0.7818608E-02  0.1067703E+00
          2   -1    0    0  501    0  0.00000000000E+00  0.00000000000E+00  0.22642258823E+03  0.22642258823E+03  0.00000000000E+00 0. -1.
         -2   -1    0    0    0  501 -0.00000000000E+00 -0.00000000000E+00 -0.12604995882E+03  0.12604995882E+03  0.00000000000E+00 0. -1.
         25    1    1    2    0    0  0.11319101106E+03  0.35901625288E+02  0.56736547854E+02  0.17810156525E+03  0.12000000000E+03 0.  0.
         25    1    1    2    0    0 -0.11319101106E+03 -0.35901625288E+02  0.43636081555E+02  0.17437098181E+03  0.12000000000E+03 0.  0.
<mgrwt>
<rscale>  0 0.33787902E+03</rscale>
<asrwt>0</asrwt>
<pdfrwt beam="1">  1        2 0.34834244E-01 0.33787902E+03</pdfrwt>
<pdfrwt beam="2">  1       -2 0.19392301E-01 0.33787902E+03</pdfrwt>
<totfact> 0.33047088E+03</totfact>
</mgrwt>
</event>
<event>
 4    1  0.1749575E-004  0.2461756E+03  0.7818608E-02  0.1115746E+00
         -2   -1    0    0    0  501 -0.00000000000E+00  0.00000000000E+00  0.33148277286E+03  0.33148277286E+03  0.00000000000E+00 0. -1.
          2   -1    0    0  501    0  0.00000000000E+00 -0.00000000000E+00 -0.45705569877E+02  0.45705569877E+02  0.00000000000E+00 0. -1.
         25    1    1    2    0    0  0.21968977930E+02  0.13201893726E+02  0.15771868951E+03  0.19983020545E+03  0.12000000000E+03 0.  0.
         25    1    1    2    0    0 -0.21968977930E+02 -0.13201893726E+02  0.12805851347E+03  0.17735813729E+03  0.12000000000E+03 0.  0.
<mgrwt>
<rscale>  0 0.24617562E+03</rscale>
<asrwt>0</asrwt>
<pdfrwt beam="1">  1        2 0.70316264E-02 0.24617562E+03</pdfrwt>
<pdfrwt beam="2">  1       -2 0.50997348E-01 0.24617562E+03</pdfrwt>
<totfact> 0.36704977E+03</totfact>
</mgrwt>
</event>
<event>
 4    1  0.1749575E-004  0.2861665E+03  0.7818608E-02  0.1092368E+00
         -2   -1    0    0    0  501 -0.00000000000E+00  0.00000000000E+00  0.58018878021E+02  0.58018878021E+02  0.00000000000E+00 0.  1.
          2   -1    0    0  501    0  0.00000000000E+00 -0.00000000000E+00 -0.35286463698E+03  0.35286463698E+03  0.00000000000E+00 0.  1.
         25    1    1    2    0    0  0.62250525801E+02 -0.23944334580E+02 -0.89554681534E+02  0.16391613742E+03  0.12000000000E+03 0.  0.
         25    1    1    2    0    0 -0.62250525801E+02  0.23944334580E+02 -0.20529107743E+03  0.24696737759E+03  0.12000000000E+03 0.  0.
<mgrwt>
<rscale>  0 0.28616646E+03</rscale>
<asrwt>0</asrwt>
<pdfrwt beam="1">  1        2 0.54286867E-01 0.28616646E+03</pdfrwt>
<pdfrwt beam="2">  1       -2 0.89259813E-02 0.28616646E+03</pdfrwt>
<totfact> 0.72496958E+03</totfact>
</mgrwt>
</event>
<event>
 4    1  0.1749575E-004  0.4196848E+03  0.7818608E-02  0.1037169E+00
          2   -1    0    0  501    0  0.00000000000E+00  0.00000000000E+00  0.12511890737E+03  0.12511890737E+03  0.00000000000E+00 0.  1.
         -2   -1    0    0    0  501 -0.00000000000E+00 -0.00000000000E+00 -0.35193591727E+03  0.35193591727E+03  0.00000000000E+00 0.  1.
         25    1    1    2    0    0  0.16090211539E+03  0.23729598979E+02 -0.49295796766E+02  0.20804485138E+03  0.12000000000E+03 0.  0.
         25    1    1    2    0    0 -0.16090211539E+03 -0.23729598979E+02 -0.17752121313E+03  0.26900997327E+03  0.12000000000E+03 0.  0.
<mgrwt>
<rscale>  0 0.41968482E+03</rscale>
<asrwt>0</asrwt>
<pdfrwt beam="1">  1        2 0.19249063E-01 0.41968482E+03</pdfrwt>
<pdfrwt beam="2">  1       -2 0.54143987E-01 0.41968482E+03</pdfrwt>
<totfact> 0.95577005E+02</totfact>
</mgrwt>
</event>
<event>
 4    1  0.1749575E-004  0.2883981E+03  0.7818608E-02  0.1091189E+00
         -1   -1    0    0    0  501 -0.00000000000E+00  0.00000000000E+00  0.74726965839E+02  0.74726965839E+02  0.00000000000E+00 0.  1.
          1   -1    0    0  501    0  0.00000000000E+00 -0.00000000000E+00 -0.27825781308E+03  0.27825781308E+03  0.00000000000E+00 0.  1.
         25    1    1    2    0    0 -0.48828911222E+01 -0.24002162413E+02 -0.86051041015E+01  0.12277619575E+03  0.12000000000E+03 0.  0.
         25    1    1    2    0    0  0.48828911222E+01  0.24002162413E+02 -0.19492574314E+03  0.23020858317E+03  0.12000000000E+03 0.  0.
<mgrwt>
<rscale>  0 0.28839807E+03</rscale>
<asrwt>0</asrwt>
<pdfrwt beam="1">  1        1 0.42808895E-01 0.28839807E+03</pdfrwt>
<pdfrwt beam="2">  1       -1 0.11496456E-01 0.28839807E+03</pdfrwt>
<totfact> 0.47047375E+03</totfact>
</mgrwt>
</event>
<event>
 4    1  0.1749575E-004  0.2979705E+03  0.7818608E-02  0.1086260E+00
          1   -1    0    0  501    0  0.00000000000E+00  0.00000000000E+00  0.12459250591E+04  0.12459250591E+04  0.00000000000E+00 0. -1.
         -1   -1    0    0    0  501 -0.00000000000E+00 -0.00000000000E+00 -0.17815357847E+02  0.17815357847E+02  0.00000000000E+00 0. -1.
         25    1    1    2    0    0 -0.67847798110E+02  0.36933152807E+02  0.43266310057E+03  0.45559273489E+03  0.12000000000E+03 0.  0.
         25    1    1    2    0    0  0.67847798110E+02 -0.36933152807E+02  0.79544660071E+03  0.80814768209E+03  0.12000000000E+03 0.  0.
<mgrwt>
<rscale>  0 0.29797047E+03</rscale>
<asrwt>0</asrwt>
<pdfrwt beam="1">  1        1 0.19168071E+00 0.29797047E+03</pdfrwt>
<pdfrwt beam="2">  1       -1 0.27408253E-02 0.29797047E+03</pdfrwt>
<totfact> 0.45921652E+03</totfact>
</mgrwt>
</event>
<event>
 4    1  0.1749575E-004  0.2462931E+03  0.7818608E-02  0.1115670E+00
          2   -1    0    0  501    0  0.00000000000E+00  0.00000000000E+00  0.33207935910E+03  0.33207935910E+03  0.00000000000E+00 0.  1.
         -2   -1    0    0    0  501 -0.00000000000E+00 -0.00000000000E+00 -0.45667000587E+02  0.45667000587E+02  0.00000000000E+00 0.  1.
         25    1    1    2    0    0 -0.25838968625E+02 -0.35417922611E+01  0.12907658975E+03  0.17815993549E+03  0.12000000000E+03 0.  0.
         25    1    1    2    0    0  0.25838968625E+02  0.35417922611E+01  0.15733576876E+03  0.19958642420E+03  0.12000000000E+03 0.  0.
<mgrwt>
<rscale>  0 0.24629306E+03</rscale>
<asrwt>0</asrwt>
<pdfrwt beam="1">  1        2 0.51089131E-01 0.24629306E+03</pdfrwt>
<pdfrwt beam="2">  1       -2 0.70256926E-02 0.24629306E+03</pdfrwt>
<totfact> 0.11175692E+04</totfact>
</mgrwt>
</event>
<event>
 4    1  0.1749575E-004  0.4971999E+03  0.7818608E-02  0.1014512E+00
          2   -1    0    0  501    0  0.00000000000E+00  0.00000000000E+00  0.24446504333E+03  0.24446504333E+03  0.00000000000E+00 0. -1.
         -2   -1    0    0    0  501 -0.00000000000E+00 -0.00000000000E+00 -0.25280478470E+03  0.25280478470E+03  0.00000000000E+00 0. -1.
         25    1    1    2    0    0 -0.68379944493E+02 -0.12419013738E+03 -0.16942908292E+03  0.25140648593E+03  0.12000000000E+03 0.  0.
         25    1    1    2    0    0  0.68379944493E+02  0.12419013738E+03  0.16108934155E+03  0.24586334210E+03  0.12000000000E+03 0.  0.
<mgrwt>
<rscale>  0 0.49719989E+03</rscale>
<asrwt>0</asrwt>
<pdfrwt beam="1">  1        2 0.37610007E-01 0.49719989E+03</pdfrwt>
<pdfrwt beam="2">  1       -2 0.38893044E-01 0.49719989E+03</pdfrwt>
<totfact> 0.86478161E+02</totfact>
</mgrwt>
</event>
<event>
 4    1  0.1749575E-004  0.3262945E+03  0.7818608E-02  0.1072788E+00
         -2   -1    0    0    0  501 -0.00000000000E+00  0.00000000000E+00  0.22961052156E+03  0.22961052156E+03  0.00000000000E+00 0.  1.
          2   -1    0    0  501    0  0.00000000000E+00 -0.00000000000E+00 -0.11592251379E+03  0.11592251379E+03  0.00000000000E+00 0.  1.
         25    1    1    2    0    0 -0.10588849717E+03 -0.18569666833E+02  0.29642472774E+02  0.16381661256E+03  0.12000000000E+03 0.  0.
         25    1    1    2    0    0  0.10588849717E+03  0.18569666833E+02  0.84045534990E+02  0.18171642279E+03  0.12000000000E+03 0.  0.
<mgrwt>
<rscale>  0 0.32629452E+03</rscale>
<asrwt>0</asrwt>
<pdfrwt beam="1">  1        2 0.17834233E-01 0.32629452E+03</pdfrwt>
<pdfrwt beam="2">  1       -2 0.35324696E-01 0.32629452E+03</pdfrwt>
<totfact> 0.24023301E+03</totfact>
</mgrwt>
</event>
<event>
 4    1  0.1749575E-004  0.2889448E+03  0.7818608E-02  0.1090901E+00
          2   -1    0    0  501    0  0.00000000000E+00  0.00000000000E+00  0.11698902531E+04  0.11698902531E+04  0.00000000000E+00 0. -1.
         -2   -1    0    0    0  501 -0.00000000000E+00 -0.00000000000E+00 -0.17841224702E+02  0.17841224702E+02  0.00000000000E+00 0. -1.
         25    1    1    2    0    0  0.30884025740E+02 -0.49258535678E+02  0.34745067306E+03  0.37215883248E+03  0.12000000000E+03 0.  0.
         25    1    1    2    0    0 -0.30884025740E+02  0.49258535678E+02  0.80459835529E+03  0.81557264528E+03  0.12000000000E+03 0.  0.
<mgrwt>
<rscale>  0 0.28894480E+03</rscale>
<asrwt>0</asrwt>
<pdfrwt beam="1">  1        2 0.17998306E+00 0.28894480E+03</pdfrwt>
<pdfrwt beam="2">  1       -2 0.27448047E-02 0.28894480E+03</pdfrwt>
<totfact> 0.10058960E+04</totfact>
</mgrwt>
</event>
<event>
 4    1  0.1749575E-004  0.2819145E+03  0.7818608E-02  0.1094648E+00
          2   -1    0    0  501    0  0.00000000000E+00  0.00000000000E+00  0.21386366856E+03  0.21386366856E+03  0.00000000000E+00 0.  1.
         -2   -1    0    0    0  501 -0.00000000000E+00 -0.00000000000E+00 -0.92904709917E+02  0.92904709917E+02  0.00000000000E+00 0.  1.
         25    1    1    2    0    0 -0.27001628537E+02  0.33953298874E-01  0.13539566531E+03  0.18292368705E+03  0.12000000000E+03 0.  0.
         25    1    1    2    0    0  0.27001628537E+02 -0.33953298874E-01 -0.14436706671E+02  0.12384469143E+03  0.12000000000E+03 0.  0.
<mgrwt>
<rscale>  0 0.28191447E+03</rscale>
<asrwt>0</asrwt>
<pdfrwt beam="1">  1        2 0.32902103E-01 0.28191447E+03</pdfrwt>
<pdfrwt beam="2">  1       -2 0.14293032E-01 0.28191447E+03</pdfrwt>
<totfact> 0.58375524E+03</totfact>
</mgrwt>
</event>
<event>
 4    1  0.1749575E-004  0.2621323E+03  0.7818608E-02  0.1105869E+00
         -2   -1    0    0    0  501 -0.00000000000E+00  0.00000000000E+00  0.42205313926E+03  0.42205313926E+03  0.00000000000E+00 0. -1.
          2   -1    0    0  501    0  0.00000000000E+00 -0.00000000000E+00 -0.40701822346E+02  0.40701822346E+02  0.00000000000E+00 0. -1.
         25    1    1    2    0    0  0.40021387337E+01 -0.33849609842E+02  0.11969811583E+03  0.17288566203E+03  0.12000000000E+03 0.  0.
         25    1    1    2    0    0 -0.40021387337E+01  0.33849609842E+02  0.26165320108E+03  0.28986929958E+03  0.12000000000E+03 0.  0.
<mgrwt>
<rscale>  0 0.26213227E+03</rscale>
<asrwt>0</asrwt>
<pdfrwt beam="1">  1        2 0.62618191E-02 0.26213227E+03</pdfrwt>
<pdfrwt beam="2">  1       -2 0.64931249E-01 0.26213227E+03</pdfrwt>
<totfact> 0.26031364E+03</totfact>
</mgrwt>
</event>
<event>
 4    1  0.1749575E-004  0.2498234E+03  0.7818608E-02  0.1113416E+00
         -1   -1    0    0    0  501 -0.00000000000E+00  0.00000000000E+00  0.40286263098E+02  0.40286263098E+02  0.00000000000E+00 0.  1.
          1   -1    0    0  501    0  0.00000000000E+00 -0.00000000000E+00 -0.38730157847E+03  0.38730157847E+03  0.00000000000E+00 0.  1.
         25    1    1    2    0    0 -0.28513753658E+02  0.72802792637E+01 -0.14209240276E+03  0.18829840025E+03  0.12000000000E+03 0.  0.
         25    1    1    2    0    0  0.28513753658E+02 -0.72802792637E+01 -0.20492291260E+03  0.23928944131E+03  0.12000000000E+03 0.  0.
<mgrwt>
<rscale>  0 0.24982340E+03</rscale>
<asrwt>0</asrwt>
<pdfrwt beam="1">  1        1 0.59584858E-01 0.24982340E+03</pdfrwt>
<pdfrwt beam="2">  1       -1 0.61978867E-02 0.24982340E+03</pdfrwt>
<totfact> 0.79430190E+03</totfact>
</mgrwt>
</event>
<event>
 4    1  0.1749575E-004  0.2732628E+03  0.7818608E-02  0.1099427E+00
         -2   -1    0    0    0  501 -0.00000000000E+00  0.00000000000E+00  0.61904518084E+01  0.61904518084E+01  0.00000000000E+00 0.  1.
          2   -1    0    0  501    0  0.00000000000E+00 -0.00000000000E+00 -0.30156346507E+04  0.30156346507E+04  0.00000000000E+00 0.  1.
         25    1    1    2    0    0  0.13947565225E+02  0.25589581775E+02 -0.85813899568E+03  0.86697860249E+03  0.12000000000E+03 0.  0.
         25    1    1    2    0    0 -0.13947565225E+02 -0.25589581775E+02 -0.21513052032E+04  0.21548465000E+04  0.12000000000E+03 0.  0.
<mgrwt>
<rscale>  0 0.27326281E+03</rscale>
<asrwt>0</asrwt>
<pdfrwt beam="1">  1        2 0.46394259E+00 0.27326281E+03</pdfrwt>
<pdfrwt beam="2">  1       -2 0.95237966E-03 0.27326281E+03</pdfrwt>
<totfact> 0.46685858E+03</totfact>
</mgrwt>
</event>
<event>
 4    1  0.1749575E-004  0.2483501E+03  0.7818608E-02  0.1114352E+00
          2   -1    0    0  501    0  0.00000000000E+00  0.00000000000E+00  0.13681810133E+04  0.13681810133E+04  0.00000000000E+00 0. -1.
         -2   -1    0    0    0  501 -0.00000000000E+00 -0.00000000000E+00 -0.11270033496E+02  0.11270033496E+02  0.00000000000E+00 0. -1.
         25    1    1    2    0    0  0.25906452161E+02  0.18592610447E+02  0.66947094969E+03  0.68088778951E+03  0.12000000000E+03 0.  0.
         25    1    1    2    0    0 -0.25906452161E+02 -0.18592610447E+02  0.68744003016E+03  0.69856325733E+03  0.12000000000E+03 0.  0.
<mgrwt>
<rscale>  0 0.24835012E+03</rscale>
<asrwt>0</asrwt>
<pdfrwt beam="1">  1        2 0.21048925E+00 0.24835012E+03</pdfrwt>
<pdfrwt beam="2">  1       -2 0.17338524E-02 0.24835012E+03</pdfrwt>
<totfact> 0.15278403E+04</totfact>
</mgrwt>
</event>
<event>
 4    1  0.1749575E-004  0.3741025E+03  0.7818608E-02  0.1053135E+00
         -2   -1    0    0    0  501 -0.00000000000E+00  0.00000000000E+00  0.29704546404E+03  0.29704546404E+03  0.00000000000E+00 0. -1.
          2   -1    0    0  501    0  0.00000000000E+00 -0.00000000000E+00 -0.11778726416E+03  0.11778726416E+03  0.00000000000E+00 0. -1.
         25    1    1    2    0    0  0.10603369240E+03  0.12987745734E+02  0.19585179182E+03  0.25331748819E+03  0.12000000000E+03 0.  0.
         25    1    1    2    0    0 -0.10603369240E+03 -0.12987745734E+02 -0.16593591932E+02  0.16151524001E+03  0.12000000000E+03 0.  0.
<mgrwt>
<rscale>  0 0.37410251E+03</rscale>
<asrwt>0</asrwt>
<pdfrwt beam="1">  1        2 0.18121118E-01 0.37410251E+03</pdfrwt>
<pdfrwt beam="2">  1       -2 0.45699302E-01 0.37410251E+03</pdfrwt>
<totfact> 0.14404020E+03</totfact>
</mgrwt>
</event>
<event>
 4    1  0.1749575E-004  0.2980807E+03  0.7818608E-02  0.1086204E+00
         -2   -1    0    0    0  501 -0.00000000000E+00  0.00000000000E+00  0.42282771530E+02  0.42282771530E+02  0.00000000000E+00 0. -1.
          2   -1    0    0  501    0  0.00000000000E+00 -0.00000000000E+00 -0.52534470087E+03  0.52534470087E+03  0.00000000000E+00 0. -1.
         25    1    1    2    0    0 -0.46681745166E+02 -0.64235935226E+02 -0.16759239815E+03  0.22089058971E+03  0.12000000000E+03 0.  0.
         25    1    1    2    0    0  0.46681745166E+02  0.64235935226E+02 -0.31546953119E+03  0.34673688269E+03  0.12000000000E+03 0.  0.
<mgrwt>
<rscale>  0 0.29808073E+03</rscale>
<asrwt>0</asrwt>
<pdfrwt beam="1">  1        2 0.80822259E-01 0.29808073E+03</pdfrwt>
<pdfrwt beam="2">  1       -2 0.65050420E-02 0.29808073E+03</pdfrwt>
<totfact> 0.76737332E+03</totfact>
</mgrwt>
</event>
<event>
 4    1  0.1749575E-004  0.2609776E+03  0.7818608E-02  0.1106557E+00
          2   -1    0    0  501    0  0.00000000000E+00  0.00000000000E+00  0.79931737065E+03  0.79931737065E+03  0.00000000000E+00 0. -1.
         -2   -1    0    0    0  501 -0.00000000000E+00 -0.00000000000E+00 -0.21302341635E+02  0.21302341635E+02  0.00000000000E+00 0. -1.
         25    1    1    2    0    0  0.36130249753E+02 -0.19768819041E+02  0.48495728479E+03  0.50127813559E+03  0.12000000000E+03 0.  0.
         25    1    1    2    0    0 -0.36130249753E+02  0.19768819041E+02  0.29305774422E+03  0.31934157669E+03  0.12000000000E+03 0.  0.
<mgrwt>
<rscale>  0 0.26097764E+03</rscale>
<asrwt>0</asrwt>
<pdfrwt beam="1">  1        2 0.12297188E+00 0.26097764E+03</pdfrwt>
<pdfrwt beam="2">  1       -2 0.32772839E-02 0.26097764E+03</pdfrwt>
<totfact> 0.13094798E+04</totfact>
</mgrwt>
</event>
<event>
 4    1  0.1749575E-004  0.3276665E+03  0.7818608E-02  0.1072174E+00
         -2   -1    0    0    0  501 -0.00000000000E+00  0.00000000000E+00  0.17190286615E+02  0.17190286615E+02  0.00000000000E+00 0.  1.
          2   -1    0    0  501    0  0.00000000000E+00 -0.00000000000E+00 -0.15614244414E+04  0.15614244414E+04  0.00000000000E+00 0.  1.
         25    1    1    2    0    0 -0.68806978243E+02  0.67432982674E+02 -0.10429296604E+04  0.10542219329E+04  0.12000000000E+03 0.  0.
         25    1    1    2    0    0  0.68806978243E+02 -0.67432982674E+02 -0.50130449441E+03  0.52439279507E+03  0.12000000000E+03 0.  0.
<mgrwt>
<rscale>  0 0.32766650E+03</rscale>
<asrwt>0</asrwt>
<pdfrwt beam="1">  1        2 0.24021909E+00 0.32766650E+03</pdfrwt>
<pdfrwt beam="2">  1       -2 0.26446600E-02 0.32766650E+03</pdfrwt>
<totfact> 0.64811677E+03</totfact>
</mgrwt>
</event>
<event>
 4    1  0.1749575E-004  0.2596656E+03  0.7818608E-02  0.1107344E+00
         -1   -1    0    0    0  501 -0.00000000000E+00  0.00000000000E+00  0.49366768131E+02  0.49366768131E+02  0.00000000000E+00 0. -1.
          1   -1    0    0  501    0  0.00000000000E+00 -0.00000000000E+00 -0.34145547065E+03  0.34145547065E+03  0.00000000000E+00 0. -1.
         25    1    1    2    0    0 -0.40965867528E+02 -0.23380606305E+02 -0.12313430202E+03  0.17828884258E+03  0.12000000000E+03 0.  0.
         25    1    1    2    0    0  0.40965867528E+02  0.23380606305E+02 -0.16895440049E+03  0.21253339620E+03  0.12000000000E+03 0.  0.
<mgrwt>
<rscale>  0 0.25966558E+03</rscale>
<asrwt>0</asrwt>
<pdfrwt beam="1">  1        1 0.52531611E-01 0.25966558E+03</pdfrwt>
<pdfrwt beam="2">  1       -1 0.75948873E-02 0.25966558E+03</pdfrwt>
<totfact> 0.68608099E+03</totfact>
</mgrwt>
</event>
<event>
 4    1  0.1749575E-004  0.2494876E+03  0.7818608E-02  0.1113629E+00
         -2   -1    0    0    0  501 -0.00000000000E+00  0.00000000000E+00  0.76458086996E+02  0.76458086996E+02  0.00000000000E+00 0.  1.
          2   -1    0    0  501    0  0.00000000000E+00 -0.00000000000E+00 -0.20352353996E+03  0.20352353996E+03  0.00000000000E+00 0.  1.
         25    1    1    2    0    0 -0.19778706034E+01  0.32480963349E+02 -0.74871966635E+02  0.14513695718E+03  0.12000000000E+03 0.  0.
         25    1    1    2    0    0  0.19778706034E+01 -0.32480963349E+02 -0.52193486334E+02  0.13484466978E+03  0.12000000000E+03 0.  0.
<mgrwt>
<rscale>  0 0.24948764E+03</rscale>
<asrwt>0</asrwt>
<pdfrwt beam="1">  1        2 0.31311313E-01 0.24948764E+03</pdfrwt>
<pdfrwt beam="2">  1       -2 0.11762783E-01 0.24948764E+03</pdfrwt>
<totfact> 0.84180737E+03</totfact>
</mgrwt>
</event>
<event>
 4    1  0.1749575E-004  0.3077009E+03  0.7818608E-02  0.1081453E+00
          2   -1    0    0  501    0  0.00000000000E+00  0.00000000000E+00  0.63160014598E+03  0.63160014598E+03  0.00000000000E+00 0. -1.
         -2   -1    0    0    0  501 -0.00000000000E+00 -0.00000000000E+00 -0.37476183771E+02  0.37476183771E+02  0.00000000000E+00 0. -1.
         25    1    1    2    0    0  0.54667604659E+02  0.52567142122E+02  0.16808812279E+03  0.22001242796E+03  0.12000000000E+03 0.  0.
         25    1    1    2    0    0 -0.54667604659E+02 -0.52567142122E+02  0.42603583941E+03  0.44906390179E+03  0.12000000000E+03 0.  0.
<mgrwt>
<rscale>  0 0.30770091E+03</rscale>
<asrwt>0</asrwt>
<pdfrwt beam="1">  1        2 0.97169246E-01 0.30770091E+03</pdfrwt>
<pdfrwt beam="2">  1       -2 0.57655672E-02 0.30770091E+03</pdfrwt>
<totfact> 0.74763399E+03</totfact>
</mgrwt>
</event>
<event>
 4    1  0.1749575E-004  0.3479316E+03  0.7818608E-02  0.1063467E+00
          1   -1    0    0  501    0  0.00000000000E+00  0.00000000000E+00  0.10890998674E+04  0.10890998674E+04  0.00000000000E+00 0. -1.
         -1   -1    0    0    0  501 -0.00000000000E+00 -0.00000000000E+00 -0.27788170054E+02  0.27788170054E+02  0.00000000000E+00 0. -1.
         25    1    1    2    0    0  0.29774550229E+02  0.43709969883E+02  0.89760330312E+03  0.90713217068E+03  0.12000000000E+03 0.  0.
         25    1    1    2    0    0 -0.29774550229E+02 -0.43709969883E+02  0.16370839425E+03  0.20975586680E+03  0.12000000000E+03 0.  0.
<mgrwt>
<rscale>  0 0.34793156E+03</rscale>
<asrwt>0</asrwt>
<pdfrwt beam="1">  1        1 0.16755379E+00 0.34793156E+03</pdfrwt>
<pdfrwt beam="2">  1       -1 0.42751039E-02 0.34793156E+03</pdfrwt>
<totfact> 0.30665897E+03</totfact>
</mgrwt>
</event>
<event>
 4    1  0.1749575E-004  0.2492139E+03  0.7818608E-02  0.1113803E+00
         -1   -1    0    0    0  501 -0.00000000000E+00  0.00000000000E+00  0.15292519645E+02  0.15292519645E+02  0.00000000000E+00 0.  1.
          1   -1    0    0  501    0  0.00000000000E+00 -0.00000000000E+00 -0.10153261603E+04  0.10153261603E+04  0.00000000000E+00 0.  1.
         25    1    1    2    0    0  0.11592651886E+02 -0.63488438117E+00 -0.63027469740E+03  0.64170163382E+03  0.12000000000E+03 0.  0.
         25    1    1    2    0    0 -0.11592651886E+02  0.63488438117E+00 -0.36975894327E+03  0.38891704615E+03  0.12000000000E+03 0.  0.
<mgrwt>
<rscale>  0 0.24921393E+03</rscale>
<asrwt>0</asrwt>
<pdfrwt beam="1">  1        1 0.15620402E+00 0.24921393E+03</pdfrwt>
<pdfrwt beam="2">  1       -1 0.23526954E-02 0.24921393E+03</pdfrwt>
<totfact> 0.83729199E+03</totfact>
</mgrwt>
</event>
<event>
 4    1  0.1749575E-004  0.2854357E+03  0.7818608E-02  0.1092757E+00
         -2   -1    0    0    0  501 -0.00000000000E+00  0.00000000000E+00  0.34054727991E+03  0.34054727991E+03  0.00000000000E+00 0. -1.
          2   -1    0    0  501    0  0.00000000000E+00 -0.00000000000E+00 -0.59810751123E+02  0.59810751123E+02  0.00000000000E+00 0. -1.
         25    1    1    2    0    0  0.21272152573E+02  0.73669198509E-01  0.36197088502E+02  0.12713276178E+03  0.12000000000E+03 0.  0.
         25    1    1    2    0    0 -0.21272152573E+02 -0.73669198509E-01  0.24453944029E+03  0.27322526925E+03  0.12000000000E+03 0.  0.
<mgrwt>
<rscale>  0 0.28543573E+03</rscale>
<asrwt>0</asrwt>
<pdfrwt beam="1">  1        2 0.92016543E-02 0.28543573E+03</pdfrwt>
<pdfrwt beam="2">  1       -2 0.52391888E-01 0.28543573E+03</pdfrwt>
<totfact> 0.24830998E+03</totfact>
</mgrwt>
</event>
<event>
 4    1  0.1749575E-004  0.2950758E+03  0.7818608E-02  0.1087728E+00
         -1   -1    0    0    0  501 -0.00000000000E+00  0.00000000000E+00  0.62704154537E+03  0.62704154537E+03  0.00000000000E+00 0.  1.
          1   -1    0    0  501    0  0.00000000000E+00 -0.00000000000E+00 -0.34714493665E+02  0.34714493665E+02  0.00000000000E+00 0.  1.
         25    1    1    2    0    0 -0.35203205943E+02  0.98431403269E+01  0.12199528472E+03  0.17498286378E+03  0.12000000000E+03 0.  0.
         25    1    1    2    0    0  0.35203205943E+02 -0.98431403269E+01  0.47033176698E+03  0.48677317526E+03  0.12000000000E+03 0.  0.
<mgrwt>
<rscale>  0 0.29507579E+03</rscale>
<asrwt>0</asrwt>
<pdfrwt beam="1">  1        1 0.53406918E-02 0.29507579E+03</pdfrwt>
<pdfrwt beam="2">  1       -1 0.96467922E-01 0.29507579E+03</pdfrwt>
<totfact> 0.16594772E+03</totfact>
</mgrwt>
</event>
<event>
 4    1  0.1749575E-004  0.2913792E+03  0.7818608E-02  0.1089631E+00
          3   -1    0    0  501    0  0.00000000000E+00  0.00000000000E+00  0.83616668599E+02  0.83616668599E+02  0.00000000000E+00 0.  1.
         -3   -1    0    0    0  501 -0.00000000000E+00 -0.00000000000E+00 -0.25384244781E+03  0.25384244781E+03  0.00000000000E+00 0.  1.
         25    1    1    2    0    0  0.70825637821E+02  0.18548948357E+02 -0.12944312229E+03  0.19109122524E+03  0.12000000000E+03 0.  0.
         25    1    1    2    0    0 -0.70825637821E+02 -0.18548948357E+02 -0.40782656922E+02  0.14636789116E+03  0.12000000000E+03 0.  0.
<mgrwt>
<rscale>  0 0.29137920E+03</rscale>
<asrwt>0</asrwt>
<pdfrwt beam="1">  1        3 0.12864103E-01 0.29137920E+03</pdfrwt>
<pdfrwt beam="2">  1       -3 0.39052683E-01 0.29137920E+03</pdfrwt>
<totfact> 0.80314248E+02</totfact>
</mgrwt>
</event>
<event>
 4    1  0.1749575E-004  0.2466168E+03  0.7818608E-02  0.1115462E+00
         -4   -1    0    0    0  501 -0.00000000000E+00  0.00000000000E+00  0.86487016034E+02  0.86487016034E+02  0.00000000000E+00 0.  1.
          4   -1    0    0  501    0  0.00000000000E+00 -0.00000000000E+00 -0.17580631285E+03  0.17580631285E+03  0.00000000000E+00 0.  1.
         25    1    1    2    0    0 -0.73603324197E+00  0.10596800855E+02 -0.72640326098E+02  0.14067498324E+03  0.12000000000E+03 0.  0.
         25    1    1    2    0    0  0.73603324197E+00 -0.10596800855E+02 -0.16678970716E+02  0.12161834565E+03  0.12000000000E+03 0.  0.
<mgrwt>
<rscale>  0 0.24661682E+03</rscale>
<asrwt>0</asrwt>
<pdfrwt beam="1">  1        4 0.27047125E-01 0.24661682E+03</pdfrwt>
<pdfrwt beam="2">  1       -4 0.13305695E-01 0.24661682E+03</pdfrwt>
<totfact> 0.11101538E+03</totfact>
</mgrwt>
</event>
<event>
 4    1  0.1749575E-004  0.2995597E+03  0.7818608E-02  0.1085461E+00
         -2   -1    0    0    0  501 -0.00000000000E+00  0.00000000000E+00  0.47343058624E+03  0.47343058624E+03  0.00000000000E+00 0.  1.
          2   -1    0    0  501    0  0.00000000000E+00 -0.00000000000E+00 -0.47386059690E+02  0.47386059690E+02  0.00000000000E+00 0.  1.
         25    1    1    2    0    0  0.32741982437E+02  0.17209526106E+02  0.71074778224E+02  0.14429078038E+03  0.12000000000E+03 0.  0.
         25    1    1    2    0    0 -0.32741982437E+02 -0.17209526106E+02  0.35496974832E+03  0.37652586555E+03  0.12000000000E+03 0.  0.
<mgrwt>
<rscale>  0 0.29955974E+03</rscale>
<asrwt>0</asrwt>
<pdfrwt beam="1">  1        2 0.72901633E-02 0.29955974E+03</pdfrwt>
<pdfrwt beam="2">  1       -2 0.72835472E-01 0.29955974E+03</pdfrwt>
<totfact> 0.16797401E+03</totfact>
</mgrwt>
</event>
<event>
 4    1  0.1749575E-004  0.2602748E+03  0.7818608E-02  0.1106978E+00
          2   -1    0    0  501    0  0.00000000000E+00  0.00000000000E+00  0.99855787499E+03  0.99855787499E+03  0.00000000000E+00 0. -1.
         -2   -1    0    0    0  501 -0.00000000000E+00 -0.00000000000E+00 -0.16960197255E+02  0.16960197255E+02  0.00000000000E+00 0. -1.
         25    1    1    2    0    0 -0.20195419112E+02  0.45642108315E+02  0.46471811803E+03  0.48254946506E+03  0.12000000000E+03 0.  0.
         25    1    1    2    0    0  0.20195419112E+02 -0.45642108315E+02  0.51687955971E+03  0.53296860719E+03  0.12000000000E+03 0.  0.
<mgrwt>
<rscale>  0 0.26027477E+03</rscale>
<asrwt>0</asrwt>
<pdfrwt beam="1">  1        2 0.15362424E+00 0.26027477E+03</pdfrwt>
<pdfrwt beam="2">  1       -2 0.26092619E-02 0.26027477E+03</pdfrwt>
<totfact> 0.13651167E+04</totfact>
</mgrwt>
</event>
<event>
 4    1  0.1749575E-004  0.3123474E+03  0.7818608E-02  0.1079226E+00
          2   -1    0    0  501    0  0.00000000000E+00  0.00000000000E+00  0.10806124699E+04  0.10806124699E+04  0.00000000000E+00 0. -1.
         -2   -1    0    0    0  501 -0.00000000000E+00 -0.00000000000E+00 -0.22570742085E+02  0.22570742085E+02  0.00000000000E+00 0. -1.
         25    1    1    2    0    0 -0.40567524985E+02 -0.90977539671E+02  0.49998422873E+03  0.52374312958E+03  0.12000000000E+03 0.  0.
         25    1    1    2    0    0  0.40567524985E+02  0.90977539671E+02  0.55805749912E+03  0.57944008244E+03  0.12000000000E+03 0.  0.
<mgrwt>
<rscale>  0 0.31234740E+03</rscale>
<asrwt>0</asrwt>
<pdfrwt beam="1">  1        2 0.16624803E+00 0.31234740E+03</pdfrwt>
<pdfrwt beam="2">  1       -2 0.34724227E-02 0.31234740E+03</pdfrwt>
<totfact> 0.79973776E+03</totfact>
</mgrwt>
</event>
<event>
 4    1  0.1749575E-004  0.2547115E+03  0.7818608E-02  0.1110363E+00
          2   -1    0    0  501    0  0.00000000000E+00  0.00000000000E+00  0.13900187903E+04  0.13900187903E+04  0.00000000000E+00 0. -1.
         -2   -1    0    0    0  501 -0.00000000000E+00 -0.00000000000E+00 -0.11668541066E+02  0.11668541066E+02  0.00000000000E+00 0. -1.
         25    1    1    2    0    0  0.23159099944E+02 -0.14530836488E+02  0.86935255106E+03  0.87802126805E+03  0.12000000000E+03 0.  0.
         25    1    1    2    0    0 -0.23159099944E+02  0.14530836488E+02  0.50899769816E+03  0.52366606330E+03  0.12000000000E+03 0.  0.
<mgrwt>
<rscale>  0 0.25471153E+03</rscale>
<asrwt>0</asrwt>
<pdfrwt beam="1">  1        2 0.21384891E+00 0.25471153E+03</pdfrwt>
<pdfrwt beam="2">  1       -2 0.17951613E-02 0.25471153E+03</pdfrwt>
<totfact> 0.14140774E+04</totfact>
</mgrwt>
</event>
<event>
 4    1  0.1749575E-004  0.3612916E+03  0.7818608E-02  0.1058074E+00
         -1   -1    0    0    0  501 -0.00000000000E+00  0.00000000000E+00  0.21595349360E+03  0.21595349360E+03  0.00000000000E+00 0. -1.
          1   -1    0    0  501    0  0.00000000000E+00 -0.00000000000E+00 -0.15111079153E+03  0.15111079153E+03  0.00000000000E+00 0. -1.
         25    1    1    2    0    0 -0.58369046308E+02  0.14135366824E+02  0.15529231819E+03  0.20523756540E+03  0.12000000000E+03 0.  0.
         25    1    1    2    0    0  0.58369046308E+02 -0.14135366824E+02 -0.90449616119E+02  0.16182671973E+03  0.12000000000E+03 0.  0.
<mgrwt>
<rscale>  0 0.36129159E+03</rscale>
<asrwt>0</asrwt>
<pdfrwt beam="1">  1        1 0.23247814E-01 0.36129159E+03</pdfrwt>
<pdfrwt beam="2">  1       -1 0.33223615E-01 0.36129159E+03</pdfrwt>
<totfact> 0.18069698E+03</totfact>
</mgrwt>
</event>
<event>
 4    1  0.1749575E-004  0.2456045E+03  0.7818608E-02  0.1116115E+00
         -2   -1    0    0    0  501 -0.00000000000E+00  0.00000000000E+00  0.50373419084E+01  0.50373419084E+01  0.00000000000E+00 0.  1.
          2   -1    0    0  501    0  0.00000000000E+00 -0.00000000000E+00 -0.29937210338E+04  0.29937210338E+04  0.00000000000E+00 0.  1.
         25    1    1    2    0    0 -0.17479130762E+01 -0.25590430130E+02 -0.14364633316E+04  0.14416951233E+04  0.12000000000E+03 0.  0.
         25    1    1    2    0    0  0.17479130762E+01  0.25590430130E+02 -0.15522203603E+04  0.15570632525E+04  0.12000000000E+03 0.  0.
<mgrwt>
<rscale>  0 0.24560453E+03</rscale>
<asrwt>0</asrwt>
<pdfrwt beam="1">  1        2 0.46057472E+00 0.24560453E+03</pdfrwt>
<pdfrwt beam="2">  1       -2 0.77497188E-03 0.24560453E+03</pdfrwt>
<totfact> 0.64927004E+03</totfact>
</mgrwt>
</event>
<event>
 4    1  0.1749575E-004  0.2864824E+03  0.7818608E-02  0.1092200E+00
          2   -1    0    0  501    0  0.00000000000E+00  0.00000000000E+00  0.33436266711E+03  0.33436266711E+03  0.00000000000E+00 0.  1.
         -2   -1    0    0    0  501 -0.00000000000E+00 -0.00000000000E+00 -0.61364648611E+02  0.61364648611E+02  0.00000000000E+00 0.  1.
         25    1    1    2    0    0  0.36970394453E+02  0.47892745792E+02  0.20497633016E+03  0.24510369457E+03  0.12000000000E+03 0.  0.
         25    1    1    2    0    0 -0.36970394453E+02 -0.47892745792E+02  0.68021688348E+02  0.15062362116E+03  0.12000000000E+03 0.  0.
<mgrwt>
<rscale>  0 0.28648244E+03</rscale>
<asrwt>0</asrwt>
<pdfrwt beam="1">  1        2 0.51440409E-01 0.28648244E+03</pdfrwt>
<pdfrwt beam="2">  1       -2 0.94407154E-02 0.28648244E+03</pdfrwt>
<totfact> 0.70327101E+03</totfact>
</mgrwt>
</event>
<event>
 4    1  0.1749575E-004  0.3570491E+03  0.7818608E-02  0.1059758E+00
         -3   -1    0    0    0  501 -0.00000000000E+00  0.00000000000E+00  0.15584731008E+03  0.15584731008E+03  0.00000000000E+00 0.  1.
          3   -1    0    0  501    0  0.00000000000E+00 -0.00000000000E+00 -0.20450156006E+03  0.20450156006E+03  0.00000000000E+00 0.  1.
         25    1    1    2    0    0  0.10100864978E+03 -0.57414868053E+02  0.39277557004E+02  0.17158654052E+03  0.12000000000E+03 0.  0.
         25    1    1    2    0    0 -0.10100864978E+03  0.57414868053E+02 -0.87931806980E+02  0.18876232962E+03  0.12000000000E+03 0.  0.
<mgrwt>
<rscale>  0 0.35704912E+03</rscale>
<asrwt>0</asrwt>
<pdfrwt beam="1">  1        3 0.31461778E-01 0.35704912E+03</pdfrwt>
<pdfrwt beam="2">  1       -3 0.23976509E-01 0.35704912E+03</pdfrwt>
<totfact> 0.41299664E+02</totfact>
</mgrwt>
</event>
<event>
 4    1  0.1749575E-004  0.3025404E+03  0.7818608E-02  0.1083978E+00
          2   -1    0    0  501    0  0.00000000000E+00  0.00000000000E+00  0.11324456617E+04  0.11324456617E+04  0.00000000000E+00 0.  1.
         -2   -1    0    0    0  501 -0.00000000000E+00 -0.00000000000E+00 -0.20206424599E+02  0.20206424599E+02  0.00000000000E+00 0.  1.
         25    1    1    2    0    0  0.56219452796E+02  0.23180630766E+02  0.29258200875E+03  0.32202826019E+03  0.12000000000E+03 0.  0.
         25    1    1    2    0    0 -0.56219452796E+02 -0.23180630766E+02  0.81965722832E+03  0.83062382608E+03  0.12000000000E+03 0.  0.
<mgrwt>
<rscale>  0 0.30254043E+03</rscale>
<asrwt>0</asrwt>
<pdfrwt beam="1">  1        2 0.17422236E+00 0.30254043E+03</pdfrwt>
<pdfrwt beam="2">  1       -2 0.31086816E-02 0.30254043E+03</pdfrwt>
<totfact> 0.87925226E+03</totfact>
</mgrwt>
</event>
<event>
 4    1  0.1749575E-004  0.2563554E+03  0.7818608E-02  0.1109353E+00
         -2   -1    0    0    0  501 -0.00000000000E+00  0.00000000000E+00  0.80629679008E+01  0.80629679008E+01  0.00000000000E+00 0.  1.
          2   -1    0    0  501    0  0.00000000000E+00 -0.00000000000E+00 -0.20376515368E+04  0.20376515368E+04  0.00000000000E+00 0.  1.
         25    1    1    2    0    0 -0.98306349148E+01  0.43150886710E+02 -0.94761119859E+03  0.95620375658E+03  0.12000000000E+03 0.  0.
         25    1    1    2    0    0  0.98306349148E+01 -0.43150886710E+02 -0.10819773703E+04  0.10895107481E+04  0.12000000000E+03 0.  0.
<mgrwt>
<rscale>  0 0.25635537E+03</rscale>
<asrwt>0</asrwt>
<pdfrwt beam="1">  1        2 0.31348486E+00 0.25635537E+03</pdfrwt>
<pdfrwt beam="2">  1       -2 0.12404566E-02 0.25635537E+03</pdfrwt>
<totfact> 0.11041154E+04</totfact>
</mgrwt>
</event>
<event>
 4    1  0.1749575E-004  0.3380293E+03  0.7818608E-02  0.1067638E+00
         -4   -1    0    0    0  501 -0.00000000000E+00  0.00000000000E+00  0.17514792859E+03  0.17514792859E+03  0.00000000000E+00 0. -1.
          4   -1    0    0  501    0  0.00000000000E+00 -0.00000000000E+00 -0.16309619231E+03  0.16309619231E+03  0.00000000000E+00 0. -1.
         25    1    1    2    0    0  0.55684055978E+01  0.11738692639E+03 -0.12834518982E+02  0.16845005938E+03  0.12000000000E+03 0.  0.
         25    1    1    2    0    0 -0.55684055978E+01 -0.11738692639E+03  0.24886255257E+02  0.16979406152E+03  0.12000000000E+03 0.  0.
<mgrwt>
<rscale>  0 0.33802935E+03</rscale>
<asrwt>0</asrwt>
<pdfrwt beam="1">  1        4 0.25091722E-01 0.33802935E+03</pdfrwt>
<pdfrwt beam="2">  1       -4 0.26945835E-01 0.33802935E+03</pdfrwt>
<totfact> 0.37186331E+02</totfact>
</mgrwt>
</event>
<event>
 4    1  0.1749575E-004  0.2728229E+03  0.7818608E-02  0.1099675E+00
         -2   -1    0    0    0  501 -0.00000000000E+00  0.00000000000E+00  0.40420582683E+02  0.40420582683E+02  0.00000000000E+00 0. -1.
          2   -1    0    0  501    0  0.00000000000E+00 -0.00000000000E+00 -0.46036147931E+03  0.46036147931E+03  0.00000000000E+00 0. -1.
         25    1    1    2    0    0 -0.22043596062E+02 -0.11881404099E+02 -0.31981275155E+03  0.34250150941E+03  0.12000000000E+03 0.  0.
         25    1    1    2    0    0  0.22043596062E+02  0.11881404099E+02 -0.10012814507E+03  0.15828055258E+03  0.12000000000E+03 0.  0.
<mgrwt>
<rscale>  0 0.27282287E+03</rscale>
<asrwt>0</asrwt>
<pdfrwt beam="1">  1        2 0.70824845E-01 0.27282287E+03</pdfrwt>
<pdfrwt beam="2">  1       -2 0.62185510E-02 0.27282287E+03</pdfrwt>
<totfact> 0.95040445E+03</totfact>
</mgrwt>
</event>
<event>
 4    1  0.1749575E-004  0.2530218E+03  0.7818608E-02  0.1111410E+00
         -1   -1    0    0    0  501 -0.00000000000E+00  0.00000000000E+00  0.38529654370E+03  0.38529654370E+03  0.00000000000E+00 0.  1.
          1   -1    0    0  501    0  0.00000000000E+00 -0.00000000000E+00 -0.41539460849E+02  0.41539460849E+02  0.00000000000E+00 0.  1.
         25    1    1    2    0    0  0.16763806283E+02 -0.21901011215E+02  0.22089698130E+03  0.25289554334E+03  0.12000000000E+03 0.  0.
         25    1    1    2    0    0 -0.16763806283E+02  0.21901011215E+02  0.12286010156E+03  0.17394046122E+03  0.12000000000E+03 0.  0.
<mgrwt>
<rscale>  0 0.25302182E+03</rscale>
<asrwt>0</asrwt>
<pdfrwt beam="1">  1        1 0.63906865E-02 0.25302182E+03</pdfrwt>
<pdfrwt beam="2">  1       -1 0.59276389E-01 0.25302182E+03</pdfrwt>
<totfact> 0.34984098E+03</totfact>
</mgrwt>
</event>
<event>
 4    1  0.1749575E-004  0.2652207E+03  0.7818608E-02  0.1104047E+00
          2   -1    0    0  501    0  0.00000000000E+00  0.00000000000E+00  0.15708572878E+04  0.15708572878E+04  0.00000000000E+00 0.  1.
         -2   -1    0    0    0  501 -0.00000000000E+00 -0.00000000000E+00 -0.11194841860E+02  0.11194841860E+02  0.00000000000E+00 0.  1.
         25    1    1    2    0    0  0.97083592610E+01  0.55598581347E+02  0.77857382266E+03  0.78978645964E+03  0.12000000000E+03 0.  0.
         25    1    1    2    0    0 -0.97083592610E+01 -0.55598581347E+02  0.78108862332E+03  0.79226567007E+03  0.12000000000E+03 0.  0.
<mgrwt>
<rscale>  0 0.26522065E+03</rscale>
<asrwt>0</asrwt>
<pdfrwt beam="1">  1        2 0.24167018E+00 0.26522065E+03</pdfrwt>
<pdfrwt beam="2">  1       -2 0.17222846E-02 0.26522065E+03</pdfrwt>
<totfact> 0.12034115E+04</totfact>
</mgrwt>
</event>
<event>
 4    1  0.1749575E-004  0.3834819E+03  0.7818608E-02  0.1049654E+00
          2   -1    0    0  501    0  0.00000000000E+00  0.00000000000E+00  0.15921440203E+04  0.15921440203E+04  0.00000000000E+00 0.  1.
         -2   -1    0    0    0  501 -0.00000000000E+00 -0.00000000000E+00 -0.23091251014E+02  0.23091251014E+02  0.00000000000E+00 0.  1.
         25    1    1    2    0    0 -0.28642185026E+02  0.10490553471E+03  0.12169323193E+04  0.12276603015E+04  0.12000000000E+03 0.  0.
         25    1    1    2    0    0  0.28642185026E+02 -0.10490553471E+03  0.35212045000E+03  0.38757496989E+03  0.12000000000E+03 0.  0.
<mgrwt>
<rscale>  0 0.38348193E+03</rscale>
<asrwt>0</asrwt>
<pdfrwt beam="1">  1        2 0.24494515E+00 0.38348193E+03</pdfrwt>
<pdfrwt beam="2">  1       -2 0.35525014E-02 0.38348193E+03</pdfrwt>
<totfact> 0.40082195E+03</totfact>
</mgrwt>
</event>
<event>
 4    1  0.1749575E-004  0.3517343E+03  0.7818608E-02  0.1061905E+00
         -2   -1    0    0    0  501 -0.00000000000E+00  0.00000000000E+00  0.51700012705E+02  0.51700012705E+02  0.00000000000E+00 0.  1.
          2   -1    0    0  501    0  0.00000000000E+00 -0.00000000000E+00 -0.59824478957E+03  0.59824478957E+03  0.00000000000E+00 0.  1.
         25    1    1    2    0    0 -0.39364271824E+02  0.66104338104E+01 -0.49910108497E+03  0.51487390373E+03  0.12000000000E+03 0.  0.
         25    1    1    2    0    0  0.39364271824E+02 -0.66104338104E+01 -0.47443691895E+02  0.13507089854E+03  0.12000000000E+03 0.  0.
<mgrwt>
<rscale>  0 0.35173435E+03</rscale>
<asrwt>0</asrwt>
<pdfrwt beam="1">  1        2 0.92037659E-01 0.35173435E+03</pdfrwt>
<pdfrwt beam="2">  1       -2 0.79538482E-02 0.35173435E+03</pdfrwt>
<totfact> 0.48507364E+03</totfact>
</mgrwt>
</event>
<event>
 4    1  0.1749575E-004  0.2712171E+03  0.7818608E-02  0.1100585E+00
          1   -1    0    0  501    0  0.00000000000E+00  0.00000000000E+00  0.58031361327E+03  0.58031361327E+03  0.00000000000E+00 0. -1.
         -1   -1    0    0    0  501 -0.00000000000E+00 -0.00000000000E+00 -0.31689219075E+02  0.31689219075E+02  0.00000000000E+00 0. -1.
         25    1    1    2    0    0  0.31673077507E+02 -0.23324662397E+02  0.16279286678E+03  0.20603092289E+03  0.12000000000E+03 0.  0.
         25    1    1    2    0    0 -0.31673077507E+02  0.23324662397E+02  0.38583152742E+03  0.40597190945E+03  0.12000000000E+03 0.  0.
<mgrwt>
<rscale>  0 0.27121715E+03</rscale>
<asrwt>0</asrwt>
<pdfrwt beam="1">  1        1 0.89279010E-01 0.27121715E+03</pdfrwt>
<pdfrwt beam="2">  1       -1 0.48752649E-02 0.27121715E+03</pdfrwt>
<totfact> 0.67060103E+03</totfact>
</mgrwt>
</event>
<event>
 4    1  0.1749575E-004  0.2411678E+03  0.7818608E-02  0.1119017E+00
         -2   -1    0    0    0  501 -0.00000000000E+00  0.00000000000E+00  0.36918289384E+02  0.36918289384E+02  0.00000000000E+00 0.  1.
          2   -1    0    0  501    0  0.00000000000E+00 -0.00000000000E+00 -0.39385578173E+03  0.39385578173E+03  0.00000000000E+00 0.  1.
         25    1    1    2    0    0  0.92092454730E+01  0.62277329204E+01 -0.17112860030E+03  0.20930502311E+03  0.12000000000E+03 0.  0.
         25    1    1    2    0    0 -0.92092454730E+01 -0.62277329204E+01 -0.18580889205E+03  0.22146904801E+03  0.12000000000E+03 0.  0.
<mgrwt>
<rscale>  0 0.24116784E+03</rscale>
<asrwt>0</asrwt>
<pdfrwt beam="1">  1        2 0.60593191E-01 0.24116784E+03</pdfrwt>
<pdfrwt beam="2">  1       -2 0.56797374E-02 0.24116784E+03</pdfrwt>
<totfact> 0.12876603E+04</totfact>
</mgrwt>
</event>
<event>
 4    1  0.1749575E-004  0.4308190E+03  0.7818608E-02  0.1033602E+00
          2   -1    0    0  501    0  0.00000000000E+00  0.00000000000E+00  0.13788299466E+04  0.13788299466E+04  0.00000000000E+00 0.  1.
         -2   -1    0    0    0  501 -0.00000000000E+00 -0.00000000000E+00 -0.33652630918E+02  0.33652630918E+02  0.00000000000E+00 0.  1.
         25    1    1    2    0    0  0.21748296363E+02  0.17612830406E+03  0.59875920478E+03  0.63592983354E+03  0.12000000000E+03 0.  0.
         25    1    1    2    0    0 -0.21748296363E+02 -0.17612830406E+03  0.74641811087E+03  0.77655274394E+03  0.12000000000E+03 0.  0.
<mgrwt>
<rscale>  0 0.43081901E+03</rscale>
<asrwt>0</asrwt>
<pdfrwt beam="1">  1        2 0.21212764E+00 0.43081901E+03</pdfrwt>
<pdfrwt beam="2">  1       -2 0.51773289E-02 0.43081901E+03</pdfrwt>
<totfact> 0.29477394E+03</totfact>
</mgrwt>
</event>
<event>
 4    1  0.1749575E-004  0.2793907E+03  0.7818608E-02  0.1096022E+00
         -2   -1    0    0    0  501 -0.00000000000E+00  0.00000000000E+00  0.95742830844E+01  0.95742830844E+01  0.00000000000E+00 0. -1.
          2   -1    0    0  501    0  0.00000000000E+00 -0.00000000000E+00 -0.20382511692E+04  0.20382511692E+04  0.00000000000E+00 0. -1.
         25    1    1    2    0    0  0.40048920921E+02 -0.31917870994E+02 -0.13802415151E+04  0.13863943546E+04  0.12000000000E+03 0.  0.
         25    1    1    2    0    0 -0.40048920921E+02  0.31917870994E+02 -0.64843537105E+03  0.66143109769E+03  0.12000000000E+03 0.  0.
<mgrwt>
<rscale>  0 0.27939072E+03</rscale>
<asrwt>0</asrwt>
<pdfrwt beam="1">  1        2 0.31357723E+00 0.27939072E+03</pdfrwt>
<pdfrwt beam="2">  1       -2 0.14729660E-02 0.27939072E+03</pdfrwt>
<totfact> 0.85949927E+03</totfact>
</mgrwt>
</event>
<event>
 4    1  0.1749575E-004  0.2453167E+03  0.7818608E-02  0.1116301E+00
          1   -1    0    0  501    0  0.00000000000E+00  0.00000000000E+00  0.20635365650E+03  0.20635365650E+03  0.00000000000E+00 0. -1.
         -1   -1    0    0    0  501 -0.00000000000E+00 -0.00000000000E+00 -0.72909151799E+02  0.72909151799E+02  0.00000000000E+00 0. -1.
         25    1    1    2    0    0  0.98171773630E+01  0.42762014117E+01  0.40504787050E+02  0.12710350366E+03  0.12000000000E+03 0.  0.
         25    1    1    2    0    0 -0.98171773630E+01 -0.42762014117E+01  0.92939717651E+02  0.15215930463E+03  0.12000000000E+03 0.  0.
<mgrwt>
<rscale>  0 0.24531669E+03</rscale>
<asrwt>0</asrwt>
<pdfrwt beam="1">  1        1 0.31746716E-01 0.24531669E+03</pdfrwt>
<pdfrwt beam="2">  1       -1 0.11216793E-01 0.24531669E+03</pdfrwt>
<totfact> 0.70746693E+03</totfact>
</mgrwt>
</event>
<event>
 4    1  0.1749575E-004  0.2904662E+03  0.7818608E-02  0.1090106E+00
          2   -1    0    0  501    0  0.00000000000E+00  0.00000000000E+00  0.19563385054E+04  0.19563385054E+04  0.00000000000E+00 0.  1.
         -2   -1    0    0    0  501 -0.00000000000E+00 -0.00000000000E+00 -0.10781700340E+02  0.10781700340E+02  0.00000000000E+00 0.  1.
         25    1    1    2    0    0 -0.10499564107E+02 -0.12702365460E+02  0.15154521256E+04  0.15202850838E+04  0.12000000000E+03 0.  0.
         25    1    1    2    0    0  0.10499564107E+02  0.12702365460E+02  0.43010467943E+03  0.44683512194E+03  0.12000000000E+03 0.  0.
<mgrwt>
<rscale>  0 0.29046622E+03</rscale>
<asrwt>0</asrwt>
<pdfrwt beam="1">  1        2 0.30097487E+00 0.29046622E+03</pdfrwt>
<pdfrwt beam="2">  1       -2 0.16587247E-02 0.29046622E+03</pdfrwt>
<totfact> 0.79786912E+03</totfact>
</mgrwt>
</event>
<event>
 4    1  0.1749575E-004  0.3395475E+03  0.7818608E-02  0.1066989E+00
         -1   -1    0    0    0  501 -0.00000000000E+00  0.00000000000E+00  0.32768870076E+02  0.32768870076E+02  0.00000000000E+00 0.  1.
          1   -1    0    0  501    0  0.00000000000E+00 -0.00000000000E+00 -0.87958850838E+03  0.87958850838E+03  0.00000000000E+00 0.  1.
         25    1    1    2    0    0 -0.84357113851E+01 -0.10665050127E+03 -0.27678755623E+03  0.32008880320E+03  0.12000000000E+03 0.  0.
         25    1    1    2    0    0  0.84357113851E+01  0.10665050127E+03 -0.57003208207E+03  0.59226857526E+03  0.12000000000E+03 0.  0.
<mgrwt>
<rscale>  0 0.33954747E+03</rscale>
<asrwt>0</asrwt>
<pdfrwt beam="1">  1        1 0.13532131E+00 0.33954747E+03</pdfrwt>
<pdfrwt beam="2">  1       -1 0.50413647E-02 0.33954747E+03</pdfrwt>
<totfact> 0.34556418E+03</totfact>
</mgrwt>
</event>
<event>
 4    1  0.1749575E-004  0.2439083E+03  0.7818608E-02  0.1117216E+00
          2   -1    0    0  501    0  0.00000000000E+00  0.00000000000E+00  0.22811596092E+03  0.22811596092E+03  0.00000000000E+00 0.  1.
         -2   -1    0    0    0  501 -0.00000000000E+00 -0.00000000000E+00 -0.65198499396E+02  0.65198499396E+02  0.00000000000E+00 0.  1.
         25    1    1    2    0    0  0.12032536760E+02 -0.18111259867E+02  0.81294434738E+02  0.14656597420E+03  0.12000000000E+03 0.  0.
         25    1    1    2    0    0 -0.12032536760E+02  0.18111259867E+02  0.81623026786E+02  0.14674848611E+03  0.12000000000E+03 0.  0.
<mgrwt>
<rscale>  0 0.24390833E+03</rscale>
<asrwt>0</asrwt>
<pdfrwt beam="1">  1        2 0.35094763E-01 0.24390833E+03</pdfrwt>
<pdfrwt beam="2">  1       -2 0.10030539E-01 0.24390833E+03</pdfrwt>
<totfact> 0.95813938E+03</totfact>
</mgrwt>
</event>
<event>
 4    1  0.1749575E-004  0.2459289E+03  0.7818608E-02  0.1115905E+00
         -2   -1    0    0    0  501 -0.00000000000E+00  0.00000000000E+00  0.11547940813E+03  0.11547940813E+03  0.00000000000E+00 0.  1.
          2   -1    0    0  501    0  0.00000000000E+00 -0.00000000000E+00 -0.13093468096E+03  0.13093468096E+03  0.00000000000E+00 0.  1.
         25    1    1    2    0    0  0.10433342328E+02 -0.19671818220E+02  0.72827181451E+01  0.12226558407E+03  0.12000000000E+03 0.  0.
         25    1    1    2    0    0 -0.10433342328E+02  0.19671818220E+02 -0.22737990971E+02  0.12414850502E+03  0.12000000000E+03 0.  0.
<mgrwt>
<rscale>  0 0.24592893E+03</rscale>
<asrwt>0</asrwt>
<pdfrwt beam="1">  1        2 0.20143797E-01 0.24592893E+03</pdfrwt>
<pdfrwt beam="2">  1       -2 0.17766063E-01 0.24592893E+03</pdfrwt>
<totfact> 0.69858548E+03</totfact>
</mgrwt>
</event>
<event>
 4    1  0.1749575E-004  0.3473318E+03  0.7818608E-02  0.1063716E+00
          1   -1    0    0  501    0  0.00000000000E+00  0.00000000000E+00  0.16950502677E+04  0.16950502677E+04  0.00000000000E+00 0. -1.
         -1   -1    0    0    0  501 -0.00000000000E+00 -0.00000000000E+00 -0.17792891668E+02  0.17792891668E+02  0.00000000000E+00 0. -1.
         25    1    1    2    0    0  0.41651901401E+02  0.10001493543E+03  0.52588189388E+03  0.55017236800E+03  0.12000000000E+03 0.  0.
         25    1    1    2    0    0 -0.41651901401E+02 -0.10001493543E+03  0.11513754821E+04  0.11626707913E+04  0.12000000000E+03 0.  0.
<mgrwt>
<rscale>  0 0.34733181E+03</rscale>
<asrwt>0</asrwt>
<pdfrwt beam="1">  1        1 0.26077684E+00 0.34733181E+03</pdfrwt>
<pdfrwt beam="2">  1       -1 0.27373693E-02 0.34733181E+03</pdfrwt>
<totfact> 0.22975482E+03</totfact>
</mgrwt>
</event>
<event>
 4    1  0.1749575E-004  0.3088247E+03  0.7818608E-02  0.1080911E+00
          2   -1    0    0  501    0  0.00000000000E+00  0.00000000000E+00  0.56275000852E+03  0.56275000852E+03  0.00000000000E+00 0. -1.
         -2   -1    0    0    0  501 -0.00000000000E+00 -0.00000000000E+00 -0.42369032830E+02  0.42369032830E+02  0.00000000000E+00 0. -1.
         25    1    1    2    0    0  0.45448206210E+02  0.75468426770E+02  0.34055443204E+03  0.37166967063E+03  0.12000000000E+03 0.  0.
         25    1    1    2    0    0 -0.45448206210E+02 -0.75468426770E+02  0.17982654365E+03  0.23344937072E+03  0.12000000000E+03 0.  0.
<mgrwt>
<rscale>  0 0.30882470E+03</rscale>
<asrwt>0</asrwt>
<pdfrwt beam="1">  1        2 0.86576919E-01 0.30882470E+03</pdfrwt>
<pdfrwt beam="2">  1       -2 0.65183131E-02 0.30882470E+03</pdfrwt>
<totfact> 0.70799094E+03</totfact>
</mgrwt>
</event>
<event>
 4    1  0.1749575E-004  0.3079255E+03  0.7818608E-02  0.1081344E+00
          1   -1    0    0  501    0  0.00000000000E+00  0.00000000000E+00  0.25561950625E+03  0.25561950625E+03  0.00000000000E+00 0. -1.
         -1   -1    0    0    0  501 -0.00000000000E+00 -0.00000000000E+00 -0.92733650990E+02  0.92733650990E+02  0.00000000000E+00 0. -1.
         25    1    1    2    0    0 -0.83163142261E+02 -0.38924943284E+02  0.48011993691E+02  0.15854466556E+03  0.12000000000E+03 0.  0.
         25    1    1    2    0    0  0.83163142261E+02  0.38924943284E+02  0.11487386157E+03  0.18980849167E+03  0.12000000000E+03 0.  0.
<mgrwt>
<rscale>  0 0.30792551E+03</rscale>
<asrwt>0</asrwt>
<pdfrwt beam="1">  1        1 0.39326078E-01 0.30792551E+03</pdfrwt>
<pdfrwt beam="2">  1       -1 0.14266716E-01 0.30792551E+03</pdfrwt>
<totfact> 0.37339558E+03</totfact>
</mgrwt>
</event>
<event>
 4    1  0.1749575E-004  0.2805675E+03  0.7818608E-02  0.1095379E+00
         -1   -1    0    0    0  501 -0.00000000000E+00  0.00000000000E+00  0.12955710156E+03  0.12955710156E+03  0.00000000000E+00 0.  1.
          1   -1    0    0  501    0  0.00000000000E+00 -0.00000000000E+00 -0.15189852006E+03  0.15189852006E+03  0.00000000000E+00 0.  1.
         25    1    1    2    0    0 -0.70670107961E+02 -0.80919616031E+01 -0.26042885608E+02  0.14190833623E+03  0.12000000000E+03 0.  0.
         25    1    1    2    0    0  0.70670107961E+02  0.80919616031E+01  0.37014671104E+01  0.13954728539E+03  0.12000000000E+03 0.  0.
<mgrwt>
<rscale>  0 0.28056751E+03</rscale>
<asrwt>0</asrwt>
<pdfrwt beam="1">  1        1 0.23369003E-01 0.28056751E+03</pdfrwt>
<pdfrwt beam="2">  1       -1 0.19931862E-01 0.28056751E+03</pdfrwt>
<totfact> 0.42095509E+03</totfact>
</mgrwt>
</event>
<event>
 4    1  0.1749575E-004  0.3137143E+03  0.7818608E-02  0.1078579E+00
          2   -1    0    0  501    0  0.00000000000E+00  0.00000000000E+00  0.10647844631E+04  0.10647844631E+04  0.00000000000E+00 0.  1.
         -2   -1    0    0    0  501 -0.00000000000E+00 -0.00000000000E+00 -0.23107178733E+02  0.23107178733E+02  0.00000000000E+00 0.  1.
         25    1    1    2    0    0  0.63479239447E+02  0.53500456319E+02  0.72041680974E+03  0.73504577573E+03  0.12000000000E+03 0.  0.
         25    1    1    2    0    0 -0.63479239447E+02 -0.53500456319E+02  0.32126047465E+03  0.35284586612E+03  0.12000000000E+03 0.  0.
<mgrwt>
<rscale>  0 0.31371430E+03</rscale>
<asrwt>0</asrwt>
<pdfrwt beam="1">  1        2 0.16381296E+00 0.31371430E+03</pdfrwt>
<pdfrwt beam="2">  1       -2 0.35549514E-02 0.31371430E+03</pdfrwt>
<totfact> 0.78906133E+03</totfact>
</mgrwt>
</event>
<event>
 4    1  0.1749575E-004  0.2602876E+03  0.7818608E-02  0.1106971E+00
         -1   -1    0    0    0  501 -0.00000000000E+00  0.00000000000E+00  0.12023903286E+02  0.12023903286E+02  0.00000000000E+00 0.  1.
          1   -1    0    0  501    0  0.00000000000E+00 -0.00000000000E+00 -0.14086450536E+04  0.14086450536E+04  0.00000000000E+00 0.  1.
         25    1    1    2    0    0  0.45557836080E+02  0.15793017621E+02 -0.61875064954E+03  0.63212127170E+03  0.12000000000E+03 0.  0.
         25    1    1    2    0    0 -0.45557836080E+02 -0.15793017621E+02 -0.77787050078E+03  0.78854768519E+03  0.12000000000E+03 0.  0.
<mgrwt>
<rscale>  0 0.26028762E+03</rscale>
<asrwt>0</asrwt>
<pdfrwt beam="1">  1        1 0.21671461E+00 0.26028762E+03</pdfrwt>
<pdfrwt beam="2">  1       -1 0.18498314E-02 0.26028762E+03</pdfrwt>
<totfact> 0.63231419E+03</totfact>
</mgrwt>
</event>
<event>
 4    1  0.1749575E-004  0.2582973E+03  0.7818608E-02  0.1108171E+00
         -2   -1    0    0    0  501 -0.00000000000E+00  0.00000000000E+00  0.19483051989E+02  0.19483051989E+02  0.00000000000E+00 0.  1.
          2   -1    0    0  501    0  0.00000000000E+00 -0.00000000000E+00 -0.85609647299E+03  0.85609647299E+03  0.00000000000E+00 0.  1.
         25    1    1    2    0    0  0.85267851126E+01 -0.51915878686E-01 -0.57754363905E+03  0.58994013575E+03  0.12000000000E+03 0.  0.
         25    1    1    2    0    0 -0.85267851126E+01  0.51915878686E-01 -0.25906978195E+03  0.28563938923E+03  0.12000000000E+03 0.  0.
<mgrwt>
<rscale>  0 0.25829729E+03</rscale>
<asrwt>0</asrwt>
<pdfrwt beam="1">  1        2 0.13170715E+00 0.25829729E+03</pdfrwt>
<pdfrwt beam="2">  1       -2 0.29973926E-02 0.25829729E+03</pdfrwt>
<totfact> 0.13685406E+04</totfact>
</mgrwt>
</event>
<event>
 4    1  0.1749575E-004  0.3537219E+03  0.7818608E-02  0.1061098E+00
          2   -1    0    0  501    0  0.00000000000E+00  0.00000000000E+00  0.72110868571E+03  0.72110868571E+03  0.00000000000E+00 0.  1.
         -2   -1    0    0    0  501 -0.00000000000E+00 -0.00000000000E+00 -0.43377377649E+02  0.43377377649E+02  0.00000000000E+00 0.  1.
         25    1    1    2    0    0  0.92580502467E+02 -0.34462009179E+02  0.15648498693E+03  0.22055913186E+03  0.12000000000E+03 0.  0.
         25    1    1    2    0    0 -0.92580502467E+02  0.34462009179E+02  0.52124632113E+03  0.54392693150E+03  0.12000000000E+03 0.  0.
<mgrwt>
<rscale>  0 0.35372195E+03</rscale>
<asrwt>0</asrwt>
<pdfrwt beam="1">  1        2 0.11093979E+00 0.35372195E+03</pdfrwt>
<pdfrwt beam="2">  1       -2 0.66734433E-02 0.35372195E+03</pdfrwt>
<totfact> 0.50977228E+03</totfact>
</mgrwt>
</event>
<event>
 4    1  0.1749575E-004  0.2727777E+03  0.7818608E-02  0.1099700E+00
          2   -1    0    0  501    0  0.00000000000E+00  0.00000000000E+00  0.33289873179E+03  0.33289873179E+03  0.00000000000E+00 0. -1.
         -2   -1    0    0    0  501 -0.00000000000E+00 -0.00000000000E+00 -0.55878603885E+02  0.55878603885E+02  0.00000000000E+00 0. -1.
         25    1    1    2    0    0 -0.64151370437E+02 -0.80710536438E+01  0.14509962765E+03  0.19908400785E+03  0.12000000000E+03 0.  0.
         25    1    1    2    0    0  0.64151370437E+02  0.80710536438E+01  0.13192050025E+03  0.18969332783E+03  0.12000000000E+03 0.  0.
<mgrwt>
<rscale>  0 0.27277769E+03</rscale>
<asrwt>0</asrwt>
<pdfrwt beam="1">  1        2 0.51215188E-01 0.27277769E+03</pdfrwt>
<pdfrwt beam="2">  1       -2 0.85967085E-02 0.27277769E+03</pdfrwt>
<totfact> 0.81759010E+03</totfact>
</mgrwt>
</event>
<event>
 4    1  0.1749575E-004  0.2537481E+03  0.7818608E-02  0.1110959E+00
          2   -1    0    0  501    0  0.00000000000E+00  0.00000000000E+00  0.17567561134E+02  0.17567561134E+02  0.00000000000E+00 0.  1.
         -2   -1    0    0    0  501 -0.00000000000E+00 -0.00000000000E+00 -0.91629270699E+03  0.91629270699E+03  0.00000000000E+00 0.  1.
         25    1    1    2    0    0 -0.22825919774E+02  0.34053722113E+02 -0.46424356437E+03  0.48125125004E+03  0.12000000000E+03 0.  0.
         25    1    1    2    0    0  0.22825919774E+02 -0.34053722113E+02 -0.43448158149E+03  0.45260901809E+03  0.12000000000E+03 0.  0.
<mgrwt>
<rscale>  0 0.25374813E+03</rscale>
<asrwt>0</asrwt>
<pdfrwt beam="1">  1        2 0.27027010E-02 0.25374813E+03</pdfrwt>
<pdfrwt beam="2">  1       -2 0.14096815E+00 0.25374813E+03</pdfrwt>
<totfact> 0.13402179E+03</totfact>
</mgrwt>
</event>
<event>
 4    1  0.1749575E-004  0.2581891E+03  0.7818608E-02  0.1108236E+00
          3   -1    0    0  501    0  0.00000000000E+00  0.00000000000E+00  0.37458531112E+02  0.37458531112E+02  0.00000000000E+00 0.  1.
         -3   -1    0    0    0  501 -0.00000000000E+00 -0.00000000000E+00 -0.44490282885E+03  0.44490282885E+03  0.00000000000E+00 0.  1.
         25    1    1    2    0    0  0.35863164255E+02  0.31193787776E+02 -0.20836936128E+03  0.24510611920E+03  0.12000000000E+03 0.  0.
         25    1    1    2    0    0 -0.35863164255E+02 -0.31193787776E+02 -0.19907493646E+03  0.23725524077E+03  0.12000000000E+03 0.  0.
<mgrwt>
<rscale>  0 0.25818913E+03</rscale>
<asrwt>0</asrwt>
<pdfrwt beam="1">  1        3 0.57628504E-02 0.25818913E+03</pdfrwt>
<pdfrwt beam="2">  1       -3 0.68446595E-01 0.25818913E+03</pdfrwt>
<totfact> 0.95709619E+02</totfact>
</mgrwt>
</event>
<event>
 4    1  0.1749575E-004  0.2463041E+03  0.7818608E-02  0.1115663E+00
          2   -1    0    0  501    0  0.00000000000E+00  0.00000000000E+00  0.12797801993E+03  0.12797801993E+03  0.00000000000E+00 0. -1.
         -2   -1    0    0    0  501 -0.00000000000E+00 -0.00000000000E+00 -0.11850803515E+03  0.11850803515E+03  0.00000000000E+00 0. -1.
         25    1    1    2    0    0 -0.14373749764E+02 -0.21108763934E+02  0.15431158260E+02  0.12365397382E+03  0.12000000000E+03 0.  0.
         25    1    1    2    0    0  0.14373749764E+02  0.21108763934E+02 -0.59611734779E+01  0.12283208126E+03  0.12000000000E+03 0.  0.
<mgrwt>
<rscale>  0 0.24630407E+03</rscale>
<asrwt>0</asrwt>
<pdfrwt beam="1">  1        2 0.19688926E-01 0.24630407E+03</pdfrwt>
<pdfrwt beam="2">  1       -2 0.18232005E-01 0.24630407E+03</pdfrwt>
<totfact> 0.68652159E+03</totfact>
</mgrwt>
</event>
<event>
 4    1  0.1749575E-004  0.5327553E+03  0.7818608E-02  0.1005566E+00
          2   -1    0    0  501    0  0.00000000000E+00  0.00000000000E+00  0.48517939576E+03  0.48517939576E+03  0.00000000000E+00 0.  1.
         -2   -1    0    0    0  501 -0.00000000000E+00 -0.00000000000E+00 -0.14624910606E+03  0.14624910606E+03  0.00000000000E+00 0.  1.
         25    1    1    2    0    0  0.79322702280E+02 -0.18556601909E+03  0.31858648536E+03  0.39575773801E+03  0.12000000000E+03 0.  0.
         25    1    1    2    0    0 -0.79322702280E+02  0.18556601909E+03  0.20343804338E+02  0.23567076381E+03  0.12000000000E+03 0.  0.
<mgrwt>
<rscale>  0 0.53275530E+03</rscale>
<asrwt>0</asrwt>
<pdfrwt beam="1">  1        2 0.74642983E-01 0.53275530E+03</pdfrwt>
<pdfrwt beam="2">  1       -2 0.22499863E-01 0.53275530E+03</pdfrwt>
<totfact> 0.11067629E+03</totfact>
</mgrwt>
</event>
<event>
 4    1  0.1749575E-004  0.2505091E+03  0.7818608E-02  0.1112984E+00
          2   -1    0    0  501    0  0.00000000000E+00  0.00000000000E+00  0.17678297794E+03  0.17678297794E+03  0.00000000000E+00 0. -1.
         -2   -1    0    0    0  501 -0.00000000000E+00 -0.00000000000E+00 -0.88745533912E+02  0.88745533912E+02  0.00000000000E+00 0. -1.
         25    1    1    2    0    0 -0.35172838677E+02 -0.61755703710E+01  0.47903645819E+02  0.13405232386E+03  0.12000000000E+03 0.  0.
         25    1    1    2    0    0  0.35172838677E+02  0.61755703710E+01  0.40133798211E+02  0.13147618799E+03  0.12000000000E+03 0.  0.
<mgrwt>
<rscale>  0 0.25050908E+03</rscale>
<asrwt>0</asrwt>
<pdfrwt beam="1">  1        2 0.27197381E-01 0.25050908E+03</pdfrwt>
<pdfrwt beam="2">  1       -2 0.13653159E-01 0.25050908E+03</pdfrwt>
<totfact> 0.77188918E+03</totfact>
</mgrwt>
</event>
<event>
 4    1  0.1749575E-004  0.3321386E+03  0.7818608E-02  0.1070195E+00
          2   -1    0    0  501    0  0.00000000000E+00  0.00000000000E+00  0.67882092351E+02  0.67882092351E+02  0.00000000000E+00 0.  1.
         -2   -1    0    0    0  501 -0.00000000000E+00 -0.00000000000E+00 -0.40627809854E+03  0.40627809854E+03  0.00000000000E+00 0.  1.
         25    1    1    2    0    0 -0.29378979531E+01  0.14964013969E+02 -0.33163359731E+03  0.35300622632E+03  0.12000000000E+03 0.  0.
         25    1    1    2    0    0  0.29378979531E+01 -0.14964013969E+02 -0.67624088871E+01  0.12115396458E+03  0.12000000000E+03 0.  0.
<mgrwt>
<rscale>  0 0.33213857E+03</rscale>
<asrwt>0</asrwt>
<pdfrwt beam="1">  1        2 0.10443399E-01 0.33213857E+03</pdfrwt>
<pdfrwt beam="2">  1       -2 0.62504324E-01 0.33213857E+03</pdfrwt>
<totfact> 0.14794689E+03</totfact>
</mgrwt>
</event>
<event>
 4    1  0.1749575E-004  0.2576209E+03  0.7818608E-02  0.1108581E+00
         -1   -1    0    0    0  501 -0.00000000000E+00  0.00000000000E+00  0.18361060356E+03  0.18361060356E+03  0.00000000000E+00 0. -1.
          1   -1    0    0  501    0  0.00000000000E+00 -0.00000000000E+00 -0.90365848078E+02  0.90365848078E+02  0.00000000000E+00 0. -1.
         25    1    1    2    0    0 -0.27798510879E+02  0.37499482528E+02  0.50480287451E+02  0.13830122132E+03  0.12000000000E+03 0.  0.
         25    1    1    2    0    0  0.27798510879E+02 -0.37499482528E+02  0.42764468035E+02  0.13567523032E+03  0.12000000000E+03 0.  0.
<mgrwt>
<rscale>  0 0.25762087E+03</rscale>
<asrwt>0</asrwt>
<pdfrwt beam="1">  1        1 0.13902438E-01 0.25762087E+03</pdfrwt>
<pdfrwt beam="2">  1       -1 0.28247785E-01 0.25762087E+03</pdfrwt>
<totfact> 0.46240810E+03</totfact>
</mgrwt>
</event>
<event>
 4    1  0.1749575E-004  0.4628420E+03  0.7818608E-02  0.1023960E+00
          2   -1    0    0  501    0  0.00000000000E+00  0.00000000000E+00  0.41729185612E+03  0.41729185612E+03  0.00000000000E+00 0.  1.
         -2   -1    0    0    0  501 -0.00000000000E+00 -0.00000000000E+00 -0.12834108641E+03  0.12834108641E+03  0.00000000000E+00 0.  1.
         25    1    1    2    0    0  0.10557125189E+03  0.13745274085E+03  0.31911983607E+02  0.21320628483E+03  0.12000000000E+03 0.  0.
         25    1    1    2    0    0 -0.10557125189E+03 -0.13745274085E+03  0.25703878609E+03  0.33242665770E+03  0.12000000000E+03 0.  0.
<mgrwt>
<rscale>  0 0.46284205E+03</rscale>
<asrwt>0</asrwt>
<pdfrwt beam="1">  1        2 0.64198746E-01 0.46284205E+03</pdfrwt>
<pdfrwt beam="2">  1       -2 0.19744783E-01 0.46284205E+03</pdfrwt>
<totfact> 0.16477895E+03</totfact>
</mgrwt>
</event>
<event>
 4    1  0.1749575E-004  0.2625308E+03  0.7818608E-02  0.1105632E+00
         -2   -1    0    0    0  501 -0.00000000000E+00  0.00000000000E+00  0.23327547439E+02  0.23327547439E+02  0.00000000000E+00 0.  1.
          2   -1    0    0  501    0  0.00000000000E+00 -0.00000000000E+00 -0.73863764115E+03  0.73863764115E+03  0.00000000000E+00 0.  1.
         25    1    1    2    0    0  0.30801228464E+01  0.26275372875E+02 -0.22368173431E+03  0.25521246176E+03  0.12000000000E+03 0.  0.
         25    1    1    2    0    0 -0.30801228464E+01 -0.26275372875E+02 -0.49162835940E+03  0.50675272683E+03  0.12000000000E+03 0.  0.
<mgrwt>
<rscale>  0 0.26253080E+03</rscale>
<asrwt>0</asrwt>
<pdfrwt beam="1">  1        2 0.11363654E+00 0.26253080E+03</pdfrwt>
<pdfrwt beam="2">  1       -2 0.35888541E-02 0.26253080E+03</pdfrwt>
<totfact> 0.12623952E+04</totfact>
</mgrwt>
</event>
<event>
 4    1  0.1749575E-004  0.3034587E+03  0.7818608E-02  0.1083524E+00
          2   -1    0    0  501    0  0.00000000000E+00  0.00000000000E+00  0.20551574122E+04  0.20551574122E+04  0.00000000000E+00 0.  1.
         -2   -1    0    0    0  501 -0.00000000000E+00 -0.00000000000E+00 -0.11201961889E+02  0.11201961889E+02  0.00000000000E+00 0.  1.
         25    1    1    2    0    0  0.83815636236E+02 -0.34201712720E+02  0.11626823903E+04  0.11723588012E+04  0.12000000000E+03 0.  0.
         25    1    1    2    0    0 -0.83815636236E+02  0.34201712720E+02  0.88127306006E+03  0.89400057294E+03  0.12000000000E+03 0.  0.
<mgrwt>
<rscale>  0 0.30345870E+03</rscale>
<asrwt>0</asrwt>
<pdfrwt beam="1">  1        2 0.31617776E+00 0.30345870E+03</pdfrwt>
<pdfrwt beam="2">  1       -2 0.17233804E-02 0.30345870E+03</pdfrwt>
<totfact> 0.66902524E+03</totfact>
</mgrwt>
</event>
<event>
 4    1  0.1749575E-004  0.2548949E+03  0.7818608E-02  0.1110250E+00
         -2   -1    0    0    0  501 -0.00000000000E+00  0.00000000000E+00  0.80780959679E+01  0.80780959679E+01  0.00000000000E+00 0. -1.
          2   -1    0    0  501    0  0.00000000000E+00 -0.00000000000E+00 -0.20107283879E+04  0.20107283879E+04  0.00000000000E+00 0. -1.
         25    1    1    2    0    0 -0.12501965066E+02  0.40727127778E+02 -0.95952143748E+03  0.96793408197E+03  0.12000000000E+03 0.  0.
         25    1    1    2    0    0  0.12501965066E+02 -0.40727127778E+02 -0.10431288545E+04  0.10508724019E+04  0.12000000000E+03 0.  0.
<mgrwt>
<rscale>  0 0.25489493E+03</rscale>
<asrwt>0</asrwt>
<pdfrwt beam="1">  1        2 0.30934337E+00 0.25489493E+03</pdfrwt>
<pdfrwt beam="2">  1       -2 0.12427818E-02 0.25489493E+03</pdfrwt>
<totfact> 0.11374436E+04</totfact>
</mgrwt>
</event>
<event>
 4    1  0.1749575E-004  0.2482574E+03  0.7818608E-02  0.1114411E+00
          1   -1    0    0  501    0  0.00000000000E+00  0.00000000000E+00  0.10635974436E+04  0.10635974436E+04  0.00000000000E+00 0.  1.
         -1   -1    0    0    0  501 -0.00000000000E+00 -0.00000000000E+00 -0.14486624534E+02  0.14486624534E+02  0.00000000000E+00 0.  1.
         25    1    1    2    0    0 -0.64556167590E+01  0.18637035824E+02  0.63259143625E+03  0.64417461864E+03  0.12000000000E+03 0.  0.
         25    1    1    2    0    0  0.64556167590E+01 -0.18637035824E+02  0.41651938280E+03  0.43390944947E+03  0.12000000000E+03 0.  0.
<mgrwt>
<rscale>  0 0.24825742E+03</rscale>
<asrwt>0</asrwt>
<pdfrwt beam="1">  1        1 0.16363031E+00 0.24825742E+03</pdfrwt>
<pdfrwt beam="2">  1       -1 0.22287123E-02 0.24825742E+03</pdfrwt>
<totfact> 0.83517496E+03</totfact>
</mgrwt>
</event>
<event>
 4    1  0.1749575E-004  0.2867879E+03  0.7818608E-02  0.1092038E+00
          2   -1    0    0  501    0  0.00000000000E+00  0.00000000000E+00  0.28985596839E+04  0.28985596839E+04  0.00000000000E+00 0. -1.
         -2   -1    0    0    0  501 -0.00000000000E+00 -0.00000000000E+00 -0.70938096330E+01  0.70938096330E+01  0.00000000000E+00 0. -1.
         25    1    1    2    0    0 -0.71362234953E+02  0.35456563259E+01  0.11163835883E+04  0.11250855330E+04  0.12000000000E+03 0.  0.
         25    1    1    2    0    0  0.71362234953E+02 -0.35456563259E+01  0.17750822859E+04  0.17805679605E+04  0.12000000000E+03 0.  0.
<mgrwt>
<rscale>  0 0.28678794E+03</rscale>
<asrwt>0</asrwt>
<pdfrwt beam="1">  1        2 0.44593132E+00 0.28678794E+03</pdfrwt>
<pdfrwt beam="2">  1       -2 0.10913576E-02 0.28678794E+03</pdfrwt>
<totfact> 0.44839145E+03</totfact>
</mgrwt>
</event>
<event>
 4    1  0.1749575E-004  0.3203927E+03  0.7818608E-02  0.1075469E+00
         -1   -1    0    0    0  501 -0.00000000000E+00  0.00000000000E+00  0.59798064034E+03  0.59798064034E+03  0.00000000000E+00 0.  1.
          1   -1    0    0  501    0  0.00000000000E+00 -0.00000000000E+00 -0.42915890369E+02  0.42915890369E+02  0.00000000000E+00 0.  1.
         25    1    1    2    0    0  0.14467709759E+02 -0.10488832452E+03  0.29195657580E+03  0.33294071153E+03  0.12000000000E+03 0.  0.
         25    1    1    2    0    0 -0.14467709759E+02  0.10488832452E+03  0.26310817418E+03  0.30795581918E+03  0.12000000000E+03 0.  0.
<mgrwt>
<rscale>  0 0.32039271E+03</rscale>
<asrwt>0</asrwt>
<pdfrwt beam="1">  1        1 0.66024451E-02 0.32039271E+03</pdfrwt>
<pdfrwt beam="2">  1       -1 0.91997016E-01 0.32039271E+03</pdfrwt>
<totfact> 0.13746685E+03</totfact>
</mgrwt>
</event>
<event>
 4    1  0.1749575E-004  0.3494081E+03  0.7818608E-02  0.1062858E+00
          2   -1    0    0  501    0  0.00000000000E+00  0.00000000000E+00  0.28065522238E+04  0.28065522238E+04  0.00000000000E+00 0.  1.
         -2   -1    0    0    0  501 -0.00000000000E+00 -0.00000000000E+00 -0.10875091591E+02  0.10875091591E+02  0.00000000000E+00 0.  1.
         25    1    1    2    0    0 -0.69916815491E+02  0.63672857827E+02  0.20810406988E+04  0.20866415562E+04  0.12000000000E+03 0.  0.
         25    1    1    2    0    0  0.69916815491E+02 -0.63672857827E+02  0.71463643344E+03  0.73078575924E+03  0.12000000000E+03 0.  0.
<mgrwt>
<rscale>  0 0.34940814E+03</rscale>
<asrwt>0</asrwt>
<pdfrwt beam="1">  1        2 0.43177669E+00 0.34940814E+03</pdfrwt>
<pdfrwt beam="2">  1       -2 0.16730932E-02 0.34940814E+03</pdfrwt>
<totfact> 0.26970833E+03</totfact>
</mgrwt>
</event>
<event>
 4    1  0.1749575E-004  0.2594605E+03  0.7818608E-02  0.1107468E+00
          1   -1    0    0  501    0  0.00000000000E+00  0.00000000000E+00  0.10448309147E+04  0.10448309147E+04  0.00000000000E+00 0. -1.
         -1   -1    0    0    0  501 -0.00000000000E+00 -0.00000000000E+00 -0.16107809912E+02  0.16107809912E+02  0.00000000000E+00 0. -1.
         25    1    1    2    0    0 -0.43284833055E+02  0.63233459260E+00  0.41794729275E+03  0.43698274123E+03  0.12000000000E+03 0.  0.
         25    1    1    2    0    0  0.43284833055E+02 -0.63233459260E+00  0.61077581199E+03  0.62395598333E+03  0.12000000000E+03 0.  0.
<mgrwt>
<rscale>  0 0.25946050E+03</rscale>
<asrwt>0</asrwt>
<pdfrwt beam="1">  1        1 0.16074316E+00 0.25946050E+03</pdfrwt>
<pdfrwt beam="2">  1       -1 0.24781254E-02 0.25946050E+03</pdfrwt>
<totfact> 0.73880892E+03</totfact>
</mgrwt>
</event>
<event>
 4    1  0.1749575E-004  0.2482418E+03  0.7818608E-02  0.1114421E+00
          2   -1    0    0  501    0  0.00000000000E+00  0.00000000000E+00  0.73305845876E+02  0.73305845876E+02  0.00000000000E+00 0. -1.
         -2   -1    0    0    0  501 -0.00000000000E+00 -0.00000000000E+00 -0.21016058971E+03  0.21016058971E+03  0.00000000000E+00 0. -1.
         25    1    1    2    0    0  0.27313428048E+02  0.14883706683E+01 -0.50094290162E+02  0.13288219033E+03  0.12000000000E+03 0.  0.
         25    1    1    2    0    0 -0.27313428048E+02 -0.14883706683E+01 -0.86760453671E+02  0.15058424526E+03  0.12000000000E+03 0.  0.
<mgrwt>
<rscale>  0 0.24824182E+03</rscale>
<asrwt>0</asrwt>
<pdfrwt beam="1">  1        2 0.11277822E-01 0.24824182E+03</pdfrwt>
<pdfrwt beam="2">  1       -2 0.32332398E-01 0.24824182E+03</pdfrwt>
<totfact> 0.48563144E+03</totfact>
</mgrwt>
</event>
<event>
 4    1  0.1749575E-004  0.3858737E+03  0.7818608E-02  0.1048784E+00
          2   -1    0    0  501    0  0.00000000000E+00  0.00000000000E+00  0.12457667721E+04  0.12457667721E+04  0.00000000000E+00 0. -1.
         -2   -1    0    0    0  501 -0.00000000000E+00 -0.00000000000E+00 -0.29880898443E+02  0.29880898443E+02  0.00000000000E+00 0. -1.
         25    1    1    2    0    0  0.12158162454E+03 -0.73645978626E+02  0.77711842711E+03  0.79907375839E+03  0.12000000000E+03 0.  0.
         25    1    1    2    0    0 -0.12158162454E+03  0.73645978626E+02  0.43876744650E+03  0.47657391211E+03  0.12000000000E+03 0.  0.
<mgrwt>
<rscale>  0 0.38587371E+03</rscale>
<asrwt>0</asrwt>
<pdfrwt beam="1">  1        2 0.19165639E+00 0.38587371E+03</pdfrwt>
<pdfrwt beam="2">  1       -2 0.45970623E-02 0.38587371E+03</pdfrwt>
<totfact> 0.42028921E+03</totfact>
</mgrwt>
</event>
<event>
 4    1  0.1749575E-004  0.2571109E+03  0.7818608E-02  0.1108892E+00
          2   -1    0    0  501    0  0.00000000000E+00  0.00000000000E+00  0.37309940330E+03  0.37309940330E+03  0.00000000000E+00 0.  1.
         -2   -1    0    0    0  501 -0.00000000000E+00 -0.00000000000E+00 -0.44295173127E+02  0.44295173127E+02  0.00000000000E+00 0.  1.
         25    1    1    2    0    0  0.13043840639E+02  0.24839459617E+02  0.10498995610E+03  0.16189512474E+03  0.12000000000E+03 0.  0.
         25    1    1    2    0    0 -0.13043840639E+02 -0.24839459617E+02  0.22381427408E+03  0.25549945169E+03  0.12000000000E+03 0.  0.
<mgrwt>
<rscale>  0 0.25711089E+03</rscale>
<asrwt>0</asrwt>
<pdfrwt beam="1">  1        2 0.57399906E-01 0.25711089E+03</pdfrwt>
<pdfrwt beam="2">  1       -2 0.68146422E-02 0.25711089E+03</pdfrwt>
<totfact> 0.10353810E+04</totfact>
</mgrwt>
</event>
<event>
 4    1  0.1749575E-004  0.2458413E+03  0.7818608E-02  0.1115962E+00
         -1   -1    0    0    0  501 -0.00000000000E+00  0.00000000000E+00  0.16773422841E+02  0.16773422841E+02  0.00000000000E+00 0.  1.
          1   -1    0    0  501    0  0.00000000000E+00 -0.00000000000E+00 -0.90079905449E+03  0.90079905449E+03  0.00000000000E+00 0.  1.
         25    1    1    2    0    0 -0.20221082623E+02 -0.16960730247E+02 -0.45543115871E+03  0.47171400115E+03  0.12000000000E+03 0.  0.
         25    1    1    2    0    0  0.20221082623E+02  0.16960730247E+02 -0.42859447294E+03  0.44585847619E+03  0.12000000000E+03 0.  0.
<mgrwt>
<rscale>  0 0.24584128E+03</rscale>
<asrwt>0</asrwt>
<pdfrwt beam="1">  1        1 0.13858446E+00 0.24584128E+03</pdfrwt>
<pdfrwt beam="2">  1       -1 0.25805268E-02 0.24584128E+03</pdfrwt>
<totfact> 0.89333385E+03</totfact>
</mgrwt>
</event>
<event>
 4    1  0.1749575E-004  0.2479297E+03  0.7818608E-02  0.1114620E+00
         -1   -1    0    0    0  501 -0.00000000000E+00  0.00000000000E+00  0.13128151173E+02  0.13128151173E+02  0.00000000000E+00 0. -1.
          1   -1    0    0  501    0  0.00000000000E+00 -0.00000000000E+00 -0.11705594595E+04  0.11705594595E+04  0.00000000000E+00 0. -1.
         25    1    1    2    0    0 -0.45308901678E+01 -0.30769256242E+02 -0.57836330811E+03  0.59149927495E+03  0.12000000000E+03 0.  0.
         25    1    1    2    0    0  0.45308901678E+01  0.30769256242E+02 -0.57906800025E+03  0.59218833576E+03  0.12000000000E+03 0.  0.
<mgrwt>
<rscale>  0 0.24792968E+03</rscale>
<asrwt>0</asrwt>
<pdfrwt beam="1">  1        1 0.18008609E+00 0.24792968E+03</pdfrwt>
<pdfrwt beam="2">  1       -1 0.20197154E-02 0.24792968E+03</pdfrwt>
<totfact> 0.80869340E+03</totfact>
</mgrwt>
</event>
<event>
 4    1  0.1749575E-004  0.2657695E+03  0.7818608E-02  0.1103726E+00
         -1   -1    0    0    0  501 -0.00000000000E+00  0.00000000000E+00  0.14755193821E+03  0.14755193821E+03  0.00000000000E+00 0.  1.
          1   -1    0    0  501    0  0.00000000000E+00 -0.00000000000E+00 -0.11967552413E+03  0.11967552413E+03  0.00000000000E+00 0.  1.
         25    1    1    2    0    0 -0.84327553637E+01 -0.39430623113E+02  0.54563694644E+02  0.13785166729E+03  0.12000000000E+03 0.  0.
         25    1    1    2    0    0  0.84327553637E+01  0.39430623113E+02 -0.26687280565E+02  0.12937579505E+03  0.12000000000E+03 0.  0.
<mgrwt>
<rscale>  0 0.26576949E+03</rscale>
<asrwt>0</asrwt>
<pdfrwt beam="1">  1        1 0.18411619E-01 0.26576949E+03</pdfrwt>
<pdfrwt beam="2">  1       -1 0.22700298E-01 0.26576949E+03</pdfrwt>
<totfact> 0.46160599E+03</totfact>
</mgrwt>
</event>
<event>
 4    1  0.1749575E-004  0.2993413E+03  0.7818608E-02  0.1085570E+00
         -2   -1    0    0    0  501 -0.00000000000E+00  0.00000000000E+00  0.19904419122E+02  0.19904419122E+02  0.00000000000E+00 0. -1.
          2   -1    0    0  501    0  0.00000000000E+00 -0.00000000000E+00 -0.11254434486E+04  0.11254434486E+04  0.00000000000E+00 0. -1.
         25    1    1    2    0    0 -0.49797574077E+02 -0.61335209628E+02 -0.71326559997E+03  0.72759165912E+03  0.12000000000E+03 0.  0.
         25    1    1    2    0    0  0.49797574077E+02  0.61335209628E+02 -0.39227342947E+03  0.41775620856E+03  0.12000000000E+03 0.  0.
<mgrwt>
<rscale>  0 0.29934126E+03</rscale>
<asrwt>0</asrwt>
<pdfrwt beam="1">  1        2 0.17314513E+00 0.29934126E+03</pdfrwt>
<pdfrwt beam="2">  1       -2 0.30622187E-02 0.29934126E+03</pdfrwt>
<totfact> 0.90754198E+03</totfact>
</mgrwt>
</event>
<event>
 4    1  0.1749575E-004  0.2469108E+03  0.7818608E-02  0.1115273E+00
         -2   -1    0    0    0  501 -0.00000000000E+00  0.00000000000E+00  0.53344138589E+02  0.53344138589E+02  0.00000000000E+00 0.  1.
          2   -1    0    0  501    0  0.00000000000E+00 -0.00000000000E+00 -0.28571531446E+03  0.28571531446E+03  0.00000000000E+00 0.  1.
         25    1    1    2    0    0 -0.10028996916E+02  0.25432870775E+02 -0.12948696202E+03  0.17864569692E+03  0.12000000000E+03 0.  0.
         25    1    1    2    0    0  0.10028996916E+02 -0.25432870775E+02 -0.10288421385E+03  0.16041375613E+03  0.12000000000E+03 0.  0.
<mgrwt>
<rscale>  0 0.24691081E+03</rscale>
<asrwt>0</asrwt>
<pdfrwt beam="1">  1        2 0.43956202E-01 0.24691081E+03</pdfrwt>
<pdfrwt beam="2">  1       -2 0.82067906E-02 0.24691081E+03</pdfrwt>
<totfact> 0.10316925E+04</totfact>
</mgrwt>
</event>
<event>
 4    1  0.1749575E-004  0.3665399E+03  0.7818608E-02  0.1056024E+00
          1   -1    0    0  501    0  0.00000000000E+00  0.00000000000E+00  0.78713524396E+02  0.78713524396E+02  0.00000000000E+00 0.  1.
         -1   -1    0    0    0  501 -0.00000000000E+00 -0.00000000000E+00 -0.42671042485E+03  0.42671042485E+03  0.00000000000E+00 0.  1.
         25    1    1    2    0    0  0.19985078632E+02 -0.81712841472E+02 -0.32575005621E+03  0.35719671184E+03  0.12000000000E+03 0.  0.
         25    1    1    2    0    0 -0.19985078632E+02  0.81712841472E+02 -0.22246844241E+02  0.14822723740E+03  0.12000000000E+03 0.  0.
<mgrwt>
<rscale>  0 0.36653994E+03</rscale>
<asrwt>0</asrwt>
<pdfrwt beam="1">  1        1 0.12109773E-01 0.36653994E+03</pdfrwt>
<pdfrwt beam="2">  1       -1 0.65647757E-01 0.36653994E+03</pdfrwt>
<totfact> 0.12123416E+03</totfact>
</mgrwt>
</event>
<event>
 4    1  0.1749575E-004  0.2883726E+03  0.7818608E-02  0.1091202E+00
          2   -1    0    0  501    0  0.00000000000E+00  0.00000000000E+00  0.15457762589E+04  0.15457762589E+04  0.00000000000E+00 0.  1.
         -2   -1    0    0    0  501 -0.00000000000E+00 -0.00000000000E+00 -0.13449350001E+02  0.13449350001E+02  0.00000000000E+00 0.  1.
         25    1    1    2    0    0  0.55450004191E+01 -0.52250475325E+02  0.10918787212E+04  0.10997090529E+04  0.12000000000E+03 0.  0.
         25    1    1    2    0    0 -0.55450004191E+01  0.52250475325E+02  0.44044818771E+03  0.45951655602E+03  0.12000000000E+03 0.  0.
<mgrwt>
<rscale>  0 0.28837258E+03</rscale>
<asrwt>0</asrwt>
<pdfrwt beam="1">  1        2 0.23781159E+00 0.28837258E+03</pdfrwt>
<pdfrwt beam="2">  1       -2 0.20691320E-02 0.28837258E+03</pdfrwt>
<totfact> 0.94918743E+03</totfact>
</mgrwt>
</event>
<event>
 4    1  0.1749575E-004  0.2900385E+03  0.7818608E-02  0.1090329E+00
          2   -1    0    0  501    0  0.00000000000E+00  0.00000000000E+00  0.12939139707E+04  0.12939139707E+04  0.00000000000E+00 0. -1.
         -2   -1    0    0    0  501 -0.00000000000E+00 -0.00000000000E+00 -0.16253462126E+02  0.16253462126E+02  0.00000000000E+00 0. -1.
         25    1    1    2    0    0 -0.71358508408E+02 -0.33012721068E+02  0.54314351983E+03  0.56177109182E+03  0.12000000000E+03 0.  0.
         25    1    1    2    0    0  0.71358508408E+02  0.33012721068E+02  0.73451698879E+03  0.74839634105E+03  0.12000000000E+03 0.  0.
<mgrwt>
<rscale>  0 0.29003849E+03</rscale>
<asrwt>0</asrwt>
<pdfrwt beam="1">  1        2 0.19906361E+00 0.29003849E+03</pdfrwt>
<pdfrwt beam="2">  1       -2 0.25005337E-02 0.29003849E+03</pdfrwt>
<totfact> 0.98316477E+03</totfact>
</mgrwt>
</event>
<event>
 4    1  0.1749575E-004  0.2786955E+03  0.7818608E-02  0.1096404E+00
          2   -1    0    0  501    0  0.00000000000E+00  0.00000000000E+00  0.37912842808E+03  0.37912842808E+03  0.00000000000E+00 0.  1.
         -2   -1    0    0    0  501 -0.00000000000E+00 -0.00000000000E+00 -0.51216918141E+02  0.51216918141E+02  0.00000000000E+00 0.  1.
         25    1    1    2    0    0 -0.68308362968E+02  0.17314557083E+02  0.15282471617E+03  0.20669112272E+03  0.12000000000E+03 0.  0.
         25    1    1    2    0    0  0.68308362968E+02 -0.17314557083E+02  0.17508679378E+03  0.22365422351E+03  0.12000000000E+03 0.  0.
<mgrwt>
<rscale>  0 0.27869546E+03</rscale>
<asrwt>0</asrwt>
<pdfrwt beam="1">  1        2 0.58327449E-01 0.27869546E+03</pdfrwt>
<pdfrwt beam="2">  1       -2 0.78795261E-02 0.27869546E+03</pdfrwt>
<totfact> 0.81492346E+03</totfact>
</mgrwt>
</event>
<event>
 4    1  0.1749575E-004  0.2622091E+03  0.7818608E-02  0.1105823E+00
          2   -1    0    0  501    0  0.00000000000E+00  0.00000000000E+00  0.67193375433E+02  0.67193375433E+02  0.00000000000E+00 0.  1.
         -2   -1    0    0    0  501 -0.00000000000E+00 -0.00000000000E+00 -0.25580511295E+03  0.25580511295E+03  0.00000000000E+00 0.  1.
         25    1    1    2    0    0 -0.14132554667E+02  0.44891255963E+02 -0.64807205419E+02  0.14427379470E+03  0.12000000000E+03 0.  0.
         25    1    1    2    0    0  0.14132554667E+02 -0.44891255963E+02 -0.12380453210E+03  0.17872469368E+03  0.12000000000E+03 0.  0.
<mgrwt>
<rscale>  0 0.26220915E+03</rscale>
<asrwt>0</asrwt>
<pdfrwt beam="1">  1        2 0.10337442E-01 0.26220915E+03</pdfrwt>
<pdfrwt beam="2">  1       -2 0.39354633E-01 0.26220915E+03</pdfrwt>
<totfact> 0.37514421E+03</totfact>
</mgrwt>
</event>
<event>
 4    1  0.1749575E-004  0.3785275E+03  0.7818608E-02  0.1051479E+00
          2   -1    0    0  501    0  0.00000000000E+00  0.00000000000E+00  0.34659258743E+03  0.34659258743E+03  0.00000000000E+00 0. -1.
         -2   -1    0    0    0  501 -0.00000000000E+00 -0.00000000000E+00 -0.10335121810E+03  0.10335121810E+03  0.00000000000E+00 0. -1.
         25    1    1    2    0    0 -0.68597043563E+02 -0.99988070961E+02  0.21904510531E+03  0.27763992306E+03  0.12000000000E+03 0.  0.
         25    1    1    2    0    0  0.68597043563E+02  0.99988070961E+02  0.24196264031E+02  0.17230388247E+03  0.12000000000E+03 0.  0.
<mgrwt>
<rscale>  0 0.37852749E+03</rscale>
<asrwt>0</asrwt>
<pdfrwt beam="1">  1        2 0.53321936E-01 0.37852749E+03</pdfrwt>
<pdfrwt beam="2">  1       -2 0.15900188E-01 0.37852749E+03</pdfrwt>
<totfact> 0.29163237E+03</totfact>
</mgrwt>
</event>
<event>
 4    1  0.1749575E-004  0.2439896E+03  0.7818608E-02  0.1117163E+00
         -1   -1    0    0    0  501 -0.00000000000E+00  0.00000000000E+00  0.14284526592E+02  0.14284526592E+02  0.00000000000E+00 0. -1.
          1   -1    0    0  501    0  0.00000000000E+00 -0.00000000000E+00 -0.10418774140E+04  0.10418774140E+04  0.00000000000E+00 0. -1.
         25    1    1    2    0    0  0.13269387137E+02 -0.48814509613E+01 -0.58659364223E+03  0.59890901338E+03  0.12000000000E+03 0.  0.
         25    1    1    2    0    0 -0.13269387137E+02  0.48814509613E+01 -0.44099924514E+03  0.45725292718E+03  0.12000000000E+03 0.  0.
<mgrwt>
<rscale>  0 0.24398955E+03</rscale>
<asrwt>0</asrwt>
<pdfrwt beam="1">  1        1 0.16028878E+00 0.24398955E+03</pdfrwt>
<pdfrwt beam="2">  1       -1 0.21976203E-02 0.24398955E+03</pdfrwt>
<totfact> 0.88376622E+03</totfact>
</mgrwt>
</event>
<event>
 4    1  0.1749575E-004  0.2522661E+03  0.7818608E-02  0.1111881E+00
          2   -1    0    0  501    0  0.00000000000E+00  0.00000000000E+00  0.91613931254E+03  0.91613931254E+03  0.00000000000E+00 0. -1.
         -2   -1    0    0    0  501 -0.00000000000E+00 -0.00000000000E+00 -0.17365860163E+02  0.17365860163E+02  0.00000000000E+00 0. -1.
         25    1    1    2    0    0 -0.21725345245E+02  0.32189995271E+02  0.45370340878E+03  0.47090866372E+03  0.12000000000E+03 0.  0.
         25    1    1    2    0    0  0.21725345245E+02 -0.32189995271E+02  0.44507004360E+03  0.46259650899E+03  0.12000000000E+03 0.  0.
<mgrwt>
<rscale>  0 0.25226611E+03</rscale>
<asrwt>0</asrwt>
<pdfrwt beam="1">  1        2 0.14094447E+00 0.25226611E+03</pdfrwt>
<pdfrwt beam="2">  1       -2 0.26716715E-02 0.25226611E+03</pdfrwt>
<totfact> 0.14822207E+04</totfact>
</mgrwt>
</event>
<event>
 4    1  0.1749575E-004  0.2955046E+03  0.7818608E-02  0.1087510E+00
         -4   -1    0    0    0  501 -0.00000000000E+00  0.00000000000E+00  0.27027089728E+03  0.27027089728E+03  0.00000000000E+00 0. -1.
          4   -1    0    0  501    0  0.00000000000E+00 -0.00000000000E+00 -0.80773531349E+02  0.80773531349E+02  0.00000000000E+00 0. -1.
         25    1    1    2    0    0 -0.58552322005E+02  0.50876436869E+01  0.19837421662E+02  0.13508435079E+03  0.12000000000E+03 0.  0.
         25    1    1    2    0    0  0.58552322005E+02 -0.50876436869E+01  0.16965994427E+03  0.21596007784E+03  0.12000000000E+03 0.  0.
<mgrwt>
<rscale>  0 0.29550455E+03</rscale>
<asrwt>0</asrwt>
<pdfrwt beam="1">  1        4 0.12426697E-01 0.29550455E+03</pdfrwt>
<pdfrwt beam="2">  1       -4 0.41580138E-01 0.29550455E+03</pdfrwt>
<totfact> 0.55724118E+02</totfact>
</mgrwt>
</event>
<event>
 4    1  0.1749575E-004  0.3730502E+03  0.7818608E-02  0.1053533E+00
          2   -1    0    0  501    0  0.00000000000E+00  0.00000000000E+00  0.12642264189E+04  0.12642264189E+04  0.00000000000E+00 0.  1.
         -2   -1    0    0    0  501 -0.00000000000E+00 -0.00000000000E+00 -0.27520075967E+02  0.27520075967E+02  0.00000000000E+00 0.  1.
         25    1    1    2    0    0  0.86012088480E+02  0.10469169345E+03  0.46221911247E+03  0.49639191973E+03  0.12000000000E+03 0.  0.
         25    1    1    2    0    0 -0.86012088480E+02 -0.10469169345E+03  0.77448723049E+03  0.79535457516E+03  0.12000000000E+03 0.  0.
<mgrwt>
<rscale>  0 0.37305017E+03</rscale>
<asrwt>0</asrwt>
<pdfrwt beam="1">  1        2 0.19449633E+00 0.37305017E+03</pdfrwt>
<pdfrwt beam="2">  1       -2 0.42338588E-02 0.37305017E+03</pdfrwt>
<totfact> 0.46505309E+03</totfact>
</mgrwt>
</event>
<event>
 4    1  0.1749575E-004  0.2478124E+03  0.7818608E-02  0.1114695E+00
         -4   -1    0    0    0  501 -0.00000000000E+00  0.00000000000E+00  0.80735928115E+01  0.80735928115E+01  0.00000000000E+00 0. -1.
          4   -1    0    0  501    0  0.00000000000E+00 -0.00000000000E+00 -0.19015997814E+04  0.19015997814E+04  0.00000000000E+00 0. -1.
         25    1    1    2    0    0 -0.11495891834E+01 -0.15697804574E+02 -0.74215133785E+03  0.75195501919E+03  0.12000000000E+03 0.  0.
         25    1    1    2    0    0  0.11495891834E+01  0.15697804574E+02 -0.11513748508E+04  0.11577183551E+04  0.12000000000E+03 0.  0.
<mgrwt>
<rscale>  0 0.24781237E+03</rscale>
<asrwt>0</asrwt>
<pdfrwt beam="1">  1        4 0.29255367E+00 0.24781237E+03</pdfrwt>
<pdfrwt beam="2">  1       -4 0.12420918E-02 0.24781237E+03</pdfrwt>
<totfact> 0.15752191E+02</totfact>
</mgrwt>
</event>
<event>
 4    1  0.1749575E-004  0.2505031E+03  0.7818608E-02  0.1112987E+00
          2   -1    0    0  501    0  0.00000000000E+00  0.00000000000E+00  0.37094322532E+02  0.37094322532E+02  0.00000000000E+00 0. -1.
         -2   -1    0    0    0  501 -0.00000000000E+00 -0.00000000000E+00 -0.42292061960E+03  0.42292061960E+03  0.00000000000E+00 0. -1.
         25    1    1    2    0    0  0.26871058189E+02 -0.49338091453E+01 -0.23564789481E+03  0.26585019573E+03  0.12000000000E+03 0.  0.
         25    1    1    2    0    0 -0.26871058189E+02  0.49338091453E+01 -0.15017840226E+03  0.19416474640E+03  0.12000000000E+03 0.  0.
<mgrwt>
<rscale>  0 0.25050312E+03</rscale>
<asrwt>0</asrwt>
<pdfrwt beam="1">  1        2 0.57068184E-02 0.25050312E+03</pdfrwt>
<pdfrwt beam="2">  1       -2 0.65064716E-01 0.25050312E+03</pdfrwt>
<totfact> 0.29203992E+03</totfact>
</mgrwt>
</event>
<event>
 4    1  0.1749575E-004  0.3389869E+03  0.7818608E-02  0.1067228E+00
          3   -1    0    0  501    0  0.00000000000E+00  0.00000000000E+00  0.37767508428E+03  0.37767508428E+03  0.00000000000E+00 0. -1.
         -3   -1    0    0    0  501 -0.00000000000E+00 -0.00000000000E+00 -0.76065457025E+02  0.76065457025E+02  0.00000000000E+00 0. -1.
         25    1    1    2    0    0  0.55763015430E+02  0.70182515061E+02  0.44622769006E+02  0.15628912574E+03  0.12000000000E+03 0.  0.
         25    1    1    2    0    0 -0.55763015430E+02 -0.70182515061E+02  0.25698685825E+03  0.29745141557E+03  0.12000000000E+03 0.  0.
<mgrwt>
<rscale>  0 0.33898689E+03</rscale>
<asrwt>0</asrwt>
<pdfrwt beam="1">  1        3 0.58103858E-01 0.33898689E+03</pdfrwt>
<pdfrwt beam="2">  1       -3 0.11702378E-01 0.33898689E+03</pdfrwt>
<totfact> 0.43114124E+02</totfact>
</mgrwt>
</event>
<event>
 4    1  0.1749575E-004  0.4096379E+03  0.7818608E-02  0.1040493E+00
          2   -1    0    0  501    0  0.00000000000E+00  0.00000000000E+00  0.28029378005E+03  0.28029378005E+03  0.00000000000E+00 0. -1.
         -2   -1    0    0    0  501 -0.00000000000E+00 -0.00000000000E+00 -0.14966723119E+03  0.14966723119E+03  0.00000000000E+00 0. -1.
         25    1    1    2    0    0 -0.79704932563E+02  0.54428518246E+02  0.20705159380E+03  0.25804205543E+03  0.12000000000E+03 0.  0.
         25    1    1    2    0    0  0.79704932563E+02 -0.54428518246E+02 -0.76425044943E+02  0.17191895581E+03  0.12000000000E+03 0.  0.
<mgrwt>
<rscale>  0 0.40963786E+03</rscale>
<asrwt>0</asrwt>
<pdfrwt beam="1">  1        2 0.43122120E-01 0.40963786E+03</pdfrwt>
<pdfrwt beam="2">  1       -2 0.23025728E-01 0.40963786E+03</pdfrwt>
<totfact> 0.19490982E+03</totfact>
</mgrwt>
</event>
<event>
 4    1  0.1749575E-004  0.2651885E+03  0.7818608E-02  0.1104065E+00
         -1   -1    0    0    0  501 -0.00000000000E+00  0.00000000000E+00  0.10020735930E+02  0.10020735930E+02  0.00000000000E+00 0.  1.
          1   -1    0    0  501    0  0.00000000000E+00 -0.00000000000E+00 -0.17544857215E+04  0.17544857215E+04  0.00000000000E+00 0.  1.
         25    1    1    2    0    0  0.60084908247E+01  0.56045843196E+02 -0.88553940019E+03  0.89540899470E+03  0.12000000000E+03 0.  0.
         25    1    1    2    0    0 -0.60084908247E+01 -0.56045843196E+02 -0.85892558538E+03  0.86909746273E+03  0.12000000000E+03 0.  0.
<mgrwt>
<rscale>  0 0.26518852E+03</rscale>
<asrwt>0</asrwt>
<pdfrwt beam="1">  1        1 0.26992104E+00 0.26518852E+03</pdfrwt>
<pdfrwt beam="2">  1       -1 0.15416508E-02 0.26518852E+03</pdfrwt>
<totfact> 0.48841147E+03</totfact>
</mgrwt>
</event>
<event>
 4    1  0.1749575E-004  0.2939444E+03  0.7818608E-02  0.1088308E+00
         -1   -1    0    0    0  501 -0.00000000000E+00  0.00000000000E+00  0.10480334113E+03  0.10480334113E+03  0.00000000000E+00 0. -1.
          1   -1    0    0  501    0  0.00000000000E+00 -0.00000000000E+00 -0.20610823306E+03  0.20610823306E+03  0.00000000000E+00 0. -1.
         25    1    1    2    0    0  0.56532386809E+02  0.17844991585E+02 -0.11487349905E+03  0.17638105133E+03  0.12000000000E+03 0.  0.
         25    1    1    2    0    0 -0.56532386809E+02 -0.17844991585E+02  0.13568607123E+02  0.13453052286E+03  0.12000000000E+03 0.  0.
<mgrwt>
<rscale>  0 0.29394443E+03</rscale>
<asrwt>0</asrwt>
<pdfrwt beam="1">  1        1 0.31708959E-01 0.29394443E+03</pdfrwt>
<pdfrwt beam="2">  1       -1 0.16123591E-01 0.29394443E+03</pdfrwt>
<totfact> 0.40266575E+03</totfact>
</mgrwt>
</event>
<event>
 4    1  0.1749575E-004  0.2672293E+03  0.7818608E-02  0.1102876E+00
          2   -1    0    0  501    0  0.00000000000E+00  0.00000000000E+00  0.13475961611E+03  0.13475961611E+03  0.00000000000E+00 0. -1.
         -2   -1    0    0    0  501 -0.00000000000E+00 -0.00000000000E+00 -0.13247944019E+03  0.13247944019E+03  0.00000000000E+00 0. -1.
         25    1    1    2    0    0 -0.21608533876E+01 -0.99451873707E+01  0.59015353093E+02  0.13411333990E+03  0.12000000000E+03 0.  0.
         25    1    1    2    0    0  0.21608533876E+01  0.99451873707E+01 -0.56735177173E+02  0.13312571640E+03  0.12000000000E+03 0.  0.
<mgrwt>
<rscale>  0 0.26722933E+03</rscale>
<asrwt>0</asrwt>
<pdfrwt beam="1">  1        2 0.20732249E-01 0.26722933E+03</pdfrwt>
<pdfrwt beam="2">  1       -2 0.20381452E-01 0.26722933E+03</pdfrwt>
<totfact> 0.53724118E+03</totfact>
</mgrwt>
</event>
<event>
 4    1  0.1749575E-004  0.2604371E+03  0.7818608E-02  0.1106881E+00
          2   -1    0    0  501    0  0.00000000000E+00  0.00000000000E+00  0.67733961797E+03  0.67733961797E+03  0.00000000000E+00 0. -1.
         -2   -1    0    0    0  501 -0.00000000000E+00 -0.00000000000E+00 -0.25034511670E+02  0.25034511670E+02  0.00000000000E+00 0. -1.
         25    1    1    2    0    0  0.16622690586E+02  0.47753744099E+02  0.32713480738E+03  0.35209929866E+03  0.12000000000E+03 0.  0.
         25    1    1    2    0    0 -0.16622690586E+02 -0.47753744099E+02  0.32517029891E+03  0.35027483097E+03  0.12000000000E+03 0.  0.
<mgrwt>
<rscale>  0 0.26043707E+03</rscale>
<asrwt>0</asrwt>
<pdfrwt beam="1">  1        2 0.10420608E+00 0.26043707E+03</pdfrwt>
<pdfrwt beam="2">  1       -2 0.38514638E-02 0.26043707E+03</pdfrwt>
<totfact> 0.12613842E+04</totfact>
</mgrwt>
</event>
<event>
 4    1  0.1749575E-004  0.2496537E+03  0.7818608E-02  0.1113524E+00
         -1   -1    0    0    0  501 -0.00000000000E+00  0.00000000000E+00  0.84291509870E+01  0.84291509870E+01  0.00000000000E+00 0.  1.
          1   -1    0    0  501    0  0.00000000000E+00 -0.00000000000E+00 -0.18485548293E+04  0.18485548293E+04  0.00000000000E+00 0.  1.
         25    1    1    2    0    0 -0.18633900836E+02 -0.19932634628E+02 -0.10755941713E+04  0.10826113585E+04  0.12000000000E+03 0.  0.
         25    1    1    2    0    0  0.18633900836E+02  0.19932634628E+02 -0.76453150708E+03  0.77437262187E+03  0.12000000000E+03 0.  0.
<mgrwt>
<rscale>  0 0.24965374E+03</rscale>
<asrwt>0</asrwt>
<pdfrwt beam="1">  1        1 0.28439287E+00 0.24965374E+03</pdfrwt>
<pdfrwt beam="2">  1       -1 0.12967933E-02 0.24965374E+03</pdfrwt>
<totfact> 0.54527065E+03</totfact>
</mgrwt>
</event>
<event>
 4    1  0.1749575E-004  0.2732856E+03  0.7818608E-02  0.1099414E+00
          2   -1    0    0  501    0  0.00000000000E+00  0.00000000000E+00  0.19243347860E+04  0.19243347860E+04  0.00000000000E+00 0. -1.
         -2   -1    0    0    0  501 -0.00000000000E+00 -0.00000000000E+00 -0.97027083469E+01  0.97027083469E+01  0.00000000000E+00 0. -1.
         25    1    1    2    0    0 -0.52276277939E+01  0.41735556710E+02  0.60332016507E+03  0.61657473705E+03  0.12000000000E+03 0.  0.
         25    1    1    2    0    0  0.52276277939E+01 -0.41735556710E+02  0.13113119126E+04  0.13174627573E+04  0.12000000000E+03 0.  0.
<mgrwt>
<rscale>  0 0.27328563E+03</rscale>
<asrwt>0</asrwt>
<pdfrwt beam="1">  1        2 0.29605120E+00 0.27328563E+03</pdfrwt>
<pdfrwt beam="2">  1       -2 0.14927259E-02 0.27328563E+03</pdfrwt>
<totfact> 0.96740994E+03</totfact>
</mgrwt>
</event>
<event>
 4    1  0.1749575E-004  0.2929923E+03  0.7818608E-02  0.1088797E+00
          2   -1    0    0  501    0  0.00000000000E+00  0.00000000000E+00  0.12703424364E+04  0.12703424364E+04  0.00000000000E+00 0.  1.
         -2   -1    0    0    0  501 -0.00000000000E+00 -0.00000000000E+00 -0.16893960820E+02  0.16893960820E+02  0.00000000000E+00 0.  1.
         25    1    1    2    0    0  0.13339321556E+02  0.40444685577E+02  0.30846979567E+03  0.33371743277E+03  0.12000000000E+03 0.  0.
         25    1    1    2    0    0 -0.13339321556E+02 -0.40444685577E+02  0.94497867994E+03  0.95351896448E+03  0.12000000000E+03 0.  0.
<mgrwt>
<rscale>  0 0.29299225E+03</rscale>
<asrwt>0</asrwt>
<pdfrwt beam="1">  1        2 0.19543722E+00 0.29299225E+03</pdfrwt>
<pdfrwt beam="2">  1       -2 0.25990719E-02 0.29299225E+03</pdfrwt>
<totfact> 0.95711154E+03</totfact>
</mgrwt>
</event>
<event>
 4    1  0.1749575E-004  0.2725187E+03  0.7818608E-02  0.1099847E+00
          2   -1    0    0  501    0  0.00000000000E+00  0.00000000000E+00  0.14165367962E+04  0.14165367962E+04  0.00000000000E+00 0.  1.
         -2   -1    0    0    0  501 -0.00000000000E+00 -0.00000000000E+00 -0.13107047864E+02  0.13107047864E+02  0.00000000000E+00 0.  1.
         25    1    1    2    0    0  0.20807793984E+02 -0.56867304749E+02  0.81899182033E+03  0.82994846612E+03  0.12000000000E+03 0.  0.
         25    1    1    2    0    0 -0.20807793984E+02  0.56867304749E+02  0.58443792798E+03  0.59969537792E+03  0.12000000000E+03 0.  0.
<mgrwt>
<rscale>  0 0.27251874E+03</rscale>
<asrwt>0</asrwt>
<pdfrwt beam="1">  1        2 0.21792862E+00 0.27251874E+03</pdfrwt>
<pdfrwt beam="2">  1       -2 0.20164700E-02 0.27251874E+03</pdfrwt>
<totfact> 0.11555272E+04</totfact>
</mgrwt>
</event>
<event>
 4    1  0.1749575E-004  0.2777715E+03  0.7818608E-02  0.1096912E+00
          1   -1    0    0  501    0  0.00000000000E+00  0.00000000000E+00  0.19723536476E+02  0.19723536476E+02  0.00000000000E+00 0. -1.
         -1   -1    0    0    0  501 -0.00000000000E+00 -0.00000000000E+00 -0.97798162844E+03  0.97798162844E+03  0.00000000000E+00 0. -1.
         25    1    1    2    0    0  0.59856068263E+02 -0.21051150373E+02 -0.58466721606E+03  0.60021800488E+03  0.12000000000E+03 0.  0.
         25    1    1    2    0    0 -0.59856068263E+02  0.21051150373E+02 -0.37359087590E+03  0.39748716004E+03  0.12000000000E+03 0.  0.
<mgrwt>
<rscale>  0 0.27777153E+03</rscale>
<asrwt>0</asrwt>
<pdfrwt beam="1">  1        1 0.30343903E-02 0.27777153E+03</pdfrwt>
<pdfrwt beam="2">  1       -1 0.15045871E+00 0.27777153E+03</pdfrwt>
<totfact> 0.12578382E+03</totfact>
</mgrwt>
</event>
<event>
 4    1  0.1749575E-004  0.2428270E+03  0.7818608E-02  0.1117924E+00
         -1   -1    0    0    0  501 -0.00000000000E+00  0.00000000000E+00  0.10630718685E+02  0.10630718685E+02  0.00000000000E+00 0. -1.
          1   -1    0    0  501    0  0.00000000000E+00 -0.00000000000E+00 -0.13866646428E+04  0.13866646428E+04  0.00000000000E+00 0. -1.
         25    1    1    2    0    0  0.74480396190E+01  0.14508518666E+02 -0.73794056872E+03  0.74781164298E+03  0.12000000000E+03 0.  0.
         25    1    1    2    0    0 -0.74480396190E+01 -0.14508518666E+02 -0.63809335541E+03  0.64948371852E+03  0.12000000000E+03 0.  0.
<mgrwt>
<rscale>  0 0.24282703E+03</rscale>
<asrwt>0</asrwt>
<pdfrwt beam="1">  1        1 0.21333285E+00 0.24282703E+03</pdfrwt>
<pdfrwt beam="2">  1       -1 0.16354965E-02 0.24282703E+03</pdfrwt>
<totfact> 0.78150188E+03</totfact>
</mgrwt>
</event>
<event>
 4    1  0.1749575E-004  0.2665608E+03  0.7818608E-02  0.1103264E+00
          2   -1    0    0  501    0  0.00000000000E+00  0.00000000000E+00  0.18930653639E+04  0.18930653639E+04  0.00000000000E+00 0. -1.
         -2   -1    0    0    0  501 -0.00000000000E+00 -0.00000000000E+00 -0.93835434331E+01  0.93835434331E+01  0.00000000000E+00 0. -1.
         25    1    1    2    0    0 -0.28573364180E+02  0.36785852157E+02  0.11884581758E+04  0.11954089140E+04  0.12000000000E+03 0.  0.
         25    1    1    2    0    0  0.28573364180E+02 -0.36785852157E+02  0.69522364467E+03  0.70703999332E+03  0.12000000000E+03 0.  0.
<mgrwt>
<rscale>  0 0.26656077E+03</rscale>
<asrwt>0</asrwt>
<pdfrwt beam="1">  1        2 0.29124052E+00 0.26656077E+03</pdfrwt>
<pdfrwt beam="2">  1       -2 0.14436236E-02 0.26656077E+03</pdfrwt>
<totfact> 0.10546339E+04</totfact>
</mgrwt>
</event>
<event>
 4    1  0.1749575E-004  0.2737889E+03  0.7818608E-02  0.1099130E+00
          2   -1    0    0  501    0  0.00000000000E+00  0.00000000000E+00  0.13700718993E+03  0.13700718993E+03  0.00000000000E+00 0. -1.
         -2   -1    0    0    0  501 -0.00000000000E+00 -0.00000000000E+00 -0.13678182830E+03  0.13678182830E+03  0.00000000000E+00 0. -1.
         25    1    1    2    0    0 -0.38164612240E+02  0.46710180439E+02  0.26602600044E+02  0.13691631354E+03  0.12000000000E+03 0.  0.
         25    1    1    2    0    0  0.38164612240E+02 -0.46710180439E+02 -0.26377238409E+02  0.13687270469E+03  0.12000000000E+03 0.  0.
<mgrwt>
<rscale>  0 0.27378893E+03</rscale>
<asrwt>0</asrwt>
<pdfrwt beam="1">  1        2 0.21078029E-01 0.27378893E+03</pdfrwt>
<pdfrwt beam="2">  1       -2 0.21043358E-01 0.27378893E+03</pdfrwt>
<totfact> 0.49948335E+03</totfact>
</mgrwt>
</event>
<event>
 4    1  0.1749575E-004  0.3225867E+03  0.7818608E-02  0.1074465E+00
         -2   -1    0    0    0  501 -0.00000000000E+00  0.00000000000E+00  0.16183957830E+03  0.16183957830E+03  0.00000000000E+00 0. -1.
          2   -1    0    0  501    0  0.00000000000E+00 -0.00000000000E+00 -0.16074896601E+03  0.16074896601E+03  0.00000000000E+00 0. -1.
         25    1    1    2    0    0 -0.49033639084E+02  0.90111093885E+02  0.33579384606E+02  0.16140595427E+03  0.12000000000E+03 0.  0.
         25    1    1    2    0    0  0.49033639084E+02 -0.90111093885E+02 -0.32488772317E+02  0.16118259003E+03  0.12000000000E+03 0.  0.
<mgrwt>
<rscale>  0 0.32258670E+03</rscale>
<asrwt>0</asrwt>
<pdfrwt beam="1">  1        2 0.24730610E-01 0.32258670E+03</pdfrwt>
<pdfrwt beam="2">  1       -2 0.24898397E-01 0.32258670E+03</pdfrwt>
<totfact> 0.31224946E+03</totfact>
</mgrwt>
</event>
<event>
 4    1  0.1749575E-004  0.2873868E+03  0.7818608E-02  0.1091721E+00
         -2   -1    0    0    0  501 -0.00000000000E+00  0.00000000000E+00  0.75913036117E+02  0.75913036117E+02  0.00000000000E+00 0. -1.
          2   -1    0    0  501    0  0.00000000000E+00 -0.00000000000E+00 -0.27199264895E+03  0.27199264895E+03  0.00000000000E+00 0. -1.
         25    1    1    2    0    0  0.52054960628E+02 -0.52793818968E+02 -0.13121248024E+03  0.19264895852E+03  0.12000000000E+03 0.  0.
         25    1    1    2    0    0 -0.52054960628E+02  0.52793818968E+02 -0.64867132585E+02  0.15525672654E+03  0.12000000000E+03 0.  0.
<mgrwt>
<rscale>  0 0.28738676E+03</rscale>
<asrwt>0</asrwt>
<pdfrwt beam="1">  1        2 0.41845023E-01 0.28738676E+03</pdfrwt>
<pdfrwt beam="2">  1       -2 0.11678929E-01 0.28738676E+03</pdfrwt>
<totfact> 0.62538187E+03</totfact>
</mgrwt>
</event>
<event>
 4    1  0.1749575E-004  0.2795895E+03  0.7818608E-02  0.1095913E+00
         -1   -1    0    0    0  501 -0.00000000000E+00  0.00000000000E+00  0.12304462496E+02  0.12304462496E+02  0.00000000000E+00 0. -1.
          1   -1    0    0  501    0  0.00000000000E+00 -0.00000000000E+00 -0.15882507463E+04  0.15882507463E+04  0.00000000000E+00 0. -1.
         25    1    1    2    0    0  0.46117499919E+02  0.34505526867E+02 -0.54340768921E+03  0.55947240493E+03  0.12000000000E+03 0.  0.
         25    1    1    2    0    0 -0.46117499919E+02 -0.34505526867E+02 -0.10325385946E+04  0.10410828039E+04  0.12000000000E+03 0.  0.
<mgrwt>
<rscale>  0 0.27958950E+03</rscale>
<asrwt>0</asrwt>
<pdfrwt beam="1">  1        1 0.24434629E+00 0.27958950E+03</pdfrwt>
<pdfrwt beam="2">  1       -1 0.18929941E-02 0.27958950E+03</pdfrwt>
<totfact> 0.46509764E+03</totfact>
</mgrwt>
</event>
<event>
 4    1  0.1749575E-004  0.3744236E+03  0.7818608E-02  0.1053014E+00
         -3   -1    0    0    0  501 -0.00000000000E+00  0.00000000000E+00  0.27358339665E+03  0.27358339665E+03  0.00000000000E+00 0.  1.
          3   -1    0    0  501    0  0.00000000000E+00 -0.00000000000E+00 -0.12810811675E+03  0.12810811675E+03  0.00000000000E+00 0.  1.
         25    1    1    2    0    0  0.28200319027E+00 -0.14324586875E+03  0.84912933498E+02  0.20525512105E+03  0.12000000000E+03 0.  0.
         25    1    1    2    0    0 -0.28200319027E+00  0.14324586875E+03  0.60562346400E+02  0.19643639236E+03  0.12000000000E+03 0.  0.
<mgrwt>
<rscale>  0 0.37442358E+03</rscale>
<asrwt>0</asrwt>
<pdfrwt beam="1">  1        3 0.19708941E-01 0.37442358E+03</pdfrwt>
<pdfrwt beam="2">  1       -3 0.42089753E-01 0.37442358E+03</pdfrwt>
<totfact> 0.33662322E+02</totfact>
</mgrwt>
</event>
<event>
 4    1  0.1749575E-004  0.2681301E+03  0.7818608E-02  0.1102355E+00
          3   -1    0    0  501    0  0.00000000000E+00  0.00000000000E+00  0.13780044360E+03  0.13780044360E+03  0.00000000000E+00 0. -1.
         -3   -1    0    0    0  501 -0.00000000000E+00 -0.00000000000E+00 -0.13043093456E+03  0.13043093456E+03  0.00000000000E+00 0. -1.
         25    1    1    2    0    0  0.48492703409E+02  0.29961099044E+02  0.21697967176E+02  0.13461059215E+03  0.12000000000E+03 0.  0.
         25    1    1    2    0    0 -0.48492703409E+02 -0.29961099044E+02 -0.14328458132E+02  0.13362078600E+03  0.12000000000E+03 0.  0.
<mgrwt>
<rscale>  0 0.26813012E+03</rscale>
<asrwt>0</asrwt>
<pdfrwt beam="1">  1        3 0.21200068E-01 0.26813012E+03</pdfrwt>
<pdfrwt beam="2">  1       -3 0.20066297E-01 0.26813012E+03</pdfrwt>
<totfact> 0.11448267E+03</totfact>
</mgrwt>
</event>
<event>
 4    1  0.1749575E-004  0.2779249E+03  0.7818608E-02  0.1096828E+00
          1   -1    0    0  501    0  0.00000000000E+00  0.00000000000E+00  0.10253513343E+04  0.10253513343E+04  0.00000000000E+00 0.  1.
         -1   -1    0    0    0  501 -0.00000000000E+00 -0.00000000000E+00 -0.18833113068E+02  0.18833113068E+02  0.00000000000E+00 0.  1.
         25    1    1    2    0    0 -0.96902117613E+01  0.60280910590E+02  0.37404254793E+03  0.39753681093E+03  0.12000000000E+03 0.  0.
         25    1    1    2    0    0  0.96902117613E+01 -0.60280910590E+02  0.63247567328E+03  0.64664763641E+03  0.12000000000E+03 0.  0.
<mgrwt>
<rscale>  0 0.27792486E+03</rscale>
<asrwt>0</asrwt>
<pdfrwt beam="1">  1        1 0.15774632E+00 0.27792486E+03</pdfrwt>
<pdfrwt beam="2">  1       -1 0.28974028E-02 0.27792486E+03</pdfrwt>
<totfact> 0.60775029E+03</totfact>
</mgrwt>
</event>
<event>
 4    1  0.1749575E-004  0.3012500E+03  0.7818608E-02  0.1084617E+00
          1   -1    0    0  501    0  0.00000000000E+00  0.00000000000E+00  0.19566798865E+03  0.19566798865E+03  0.00000000000E+00 0.  1.
         -1   -1    0    0    0  501 -0.00000000000E+00 -0.00000000000E+00 -0.11595095086E+03  0.11595095086E+03  0.00000000000E+00 0.  1.
         25    1    1    2    0    0  0.55677892429E+02 -0.10079792036E+02  0.11363128299E+03  0.17468170593E+03  0.12000000000E+03 0.  0.
         25    1    1    2    0    0 -0.55677892429E+02  0.10079792036E+02 -0.33914245193E+02  0.13693723358E+03  0.12000000000E+03 0.  0.
<mgrwt>
<rscale>  0 0.30124999E+03</rscale>
<asrwt>0</asrwt>
<pdfrwt beam="1">  1        1 0.30102767E-01 0.30124999E+03</pdfrwt>
<pdfrwt beam="2">  1       -1 0.17838608E-01 0.30124999E+03</pdfrwt>
<totfact> 0.36581177E+03</totfact>
</mgrwt>
</event>
<event>
 4    1  0.1749575E-004  0.2986956E+03  0.7818608E-02  0.1085894E+00
          1   -1    0    0  501    0  0.00000000000E+00  0.00000000000E+00  0.60358851943E+02  0.60358851943E+02  0.00000000000E+00 0.  1.
         -1   -1    0    0    0  501 -0.00000000000E+00 -0.00000000000E+00 -0.36953606819E+03  0.36953606819E+03  0.00000000000E+00 0.  1.
         25    1    1    2    0    0  0.80680130930E+02 -0.33048226863E+02 -0.12952333243E+03  0.19692070097E+03  0.12000000000E+03 0.  0.
         25    1    1    2    0    0 -0.80680130930E+02  0.33048226863E+02 -0.17965388382E+03  0.23297421917E+03  0.12000000000E+03 0.  0.
<mgrwt>
<rscale>  0 0.29869565E+03</rscale>
<asrwt>0</asrwt>
<pdfrwt beam="1">  1        1 0.92859770E-02 0.29869565E+03</pdfrwt>
<pdfrwt beam="2">  1       -1 0.56851704E-01 0.29869565E+03</pdfrwt>
<totfact> 0.22870544E+03</totfact>
</mgrwt>
</event>
<event>
 4    1  0.1749575E-004  0.2598147E+03  0.7818608E-02  0.1107255E+00
          2   -1    0    0  501    0  0.00000000000E+00  0.00000000000E+00  0.12392233955E+03  0.12392233955E+03  0.00000000000E+00 0. -1.
         -2   -1    0    0    0  501 -0.00000000000E+00 -0.00000000000E+00 -0.13618140553E+03  0.13618140553E+03  0.00000000000E+00 0. -1.
         25    1    1    2    0    0  0.38210861374E+02 -0.29915282935E+02 -0.17138325530E+02  0.13057073287E+03  0.12000000000E+03 0.  0.
         25    1    1    2    0    0 -0.38210861374E+02  0.29915282935E+02  0.48792595527E+01  0.12953301222E+03  0.12000000000E+03 0.  0.
<mgrwt>
<rscale>  0 0.25981469E+03</rscale>
<asrwt>0</asrwt>
<pdfrwt beam="1">  1        2 0.19064975E-01 0.25981469E+03</pdfrwt>
<pdfrwt beam="2">  1       -2 0.20950985E-01 0.25981469E+03</pdfrwt>
<totfact> 0.56343313E+03</totfact>
</mgrwt>
</event>
<event>
 4    1  0.1749575E-004  0.4135272E+03  0.7818608E-02  0.1039194E+00
          2   -1    0    0  501    0  0.00000000000E+00  0.00000000000E+00  0.19424368311E+03  0.19424368311E+03  0.00000000000E+00 0.  1.
         -2   -1    0    0    0  501 -0.00000000000E+00 -0.00000000000E+00 -0.22009045708E+03  0.22009045708E+03  0.00000000000E+00 0.  1.
         25    1    1    2    0    0 -0.70558648538E+01  0.16282080880E+03  0.29476801058E+02  0.20452208391E+03  0.12000000000E+03 0.  0.
         25    1    1    2    0    0  0.70558648538E+01 -0.16282080880E+03 -0.55323575023E+02  0.20981205628E+03  0.12000000000E+03 0.  0.
<mgrwt>
<rscale>  0 0.41352717E+03</rscale>
<asrwt>0</asrwt>
<pdfrwt beam="1">  1        2 0.29883644E-01 0.41352717E+03</pdfrwt>
<pdfrwt beam="2">  1       -2 0.33860070E-01 0.41352717E+03</pdfrwt>
<totfact> 0.14501419E+03</totfact>
</mgrwt>
</event>
<event>
 4    1  0.1749575E-004  0.2844272E+03  0.7818608E-02  0.1093295E+00
         -1   -1    0    0    0  501 -0.00000000000E+00  0.00000000000E+00  0.55378415159E+03  0.55378415159E+03  0.00000000000E+00 0.  1.
          1   -1    0    0  501    0  0.00000000000E+00 -0.00000000000E+00 -0.36520914508E+02  0.36520914508E+02  0.00000000000E+00 0.  1.
         25    1    1    2    0    0  0.67286452585E+02 -0.20006917769E+02  0.19647433635E+03  0.24068632763E+03  0.12000000000E+03 0.  0.
         25    1    1    2    0    0 -0.67286452585E+02  0.20006917769E+02  0.32078890072E+03  0.34961873847E+03  0.12000000000E+03 0.  0.
<mgrwt>
<rscale>  0 0.28442717E+03</rscale>
<asrwt>0</asrwt>
<pdfrwt beam="1">  1        1 0.56186027E-02 0.28442717E+03</pdfrwt>
<pdfrwt beam="2">  1       -1 0.85197555E-01 0.28442717E+03</pdfrwt>
<totfact> 0.20213837E+03</totfact>
</mgrwt>
</event>
<event>
 4    1  0.1749575E-004  0.2406481E+03  0.7818608E-02  0.1119362E+00
          1   -1    0    0  501    0  0.00000000000E+00  0.00000000000E+00  0.31031356647E+02  0.31031356647E+02  0.00000000000E+00 0.  1.
         -1   -1    0    0    0  501 -0.00000000000E+00 -0.00000000000E+00 -0.46655646972E+03  0.46655646972E+03  0.00000000000E+00 0.  1.
         25    1    1    2    0    0 -0.78505108168E+01 -0.25187054948E+01 -0.21125478555E+03  0.24309783795E+03  0.12000000000E+03 0.  0.
         25    1    1    2    0    0  0.78505108168E+01  0.25187054948E+01 -0.22427032752E+03  0.25448998842E+03  0.12000000000E+03 0.  0.
<mgrwt>
<rscale>  0 0.24064813E+03</rscale>
<asrwt>0</asrwt>
<pdfrwt beam="1">  1        1 0.47740547E-02 0.24064813E+03</pdfrwt>
<pdfrwt beam="2">  1       -1 0.71777921E-01 0.24064813E+03</pdfrwt>
<totfact> 0.35871953E+03</totfact>
</mgrwt>
</event>
<event>
 4    1  0.1749575E-004  0.2854171E+03  0.7818608E-02  0.1092767E+00
         -1   -1    0    0    0  501 -0.00000000000E+00  0.00000000000E+00  0.64343712216E+01  0.64343712216E+01  0.00000000000E+00 0. -1.
          1   -1    0    0  501    0  0.00000000000E+00 -0.00000000000E+00 -0.31651458528E+04  0.31651458528E+04  0.00000000000E+00 0. -1.
         25    1    1    2    0    0 -0.40633179799E+02  0.48466483136E+02 -0.10866916826E+04  0.10951250469E+04  0.12000000000E+03 0.  0.
         25    1    1    2    0    0  0.40633179799E+02 -0.48466483136E+02 -0.20720197990E+04  0.20764551771E+04  0.12000000000E+03 0.  0.
<mgrwt>
<rscale>  0 0.28541705E+03</rscale>
<asrwt>0</asrwt>
<pdfrwt beam="1">  1        1 0.48694577E+00 0.28541705E+03</pdfrwt>
<pdfrwt beam="2">  1       -1 0.98990275E-03 0.28541705E+03</pdfrwt>
<totfact> 0.10540687E+03</totfact>
</mgrwt>
</event>
<event>
 4    1  0.1749575E-004  0.2863678E+03  0.7818608E-02  0.1092261E+00
          1   -1    0    0  501    0  0.00000000000E+00  0.00000000000E+00  0.82634735619E+03  0.82634735619E+03  0.00000000000E+00 0.  1.
         -1   -1    0    0    0  501 -0.00000000000E+00 -0.00000000000E+00 -0.24809939676E+02  0.24809939676E+02  0.00000000000E+00 0.  1.
         25    1    1    2    0    0  0.25463492554E+02  0.65229905295E+02  0.29787991262E+03  0.32868795588E+03  0.12000000000E+03 0.  0.
         25    1    1    2    0    0 -0.25463492554E+02 -0.65229905295E+02  0.50365750389E+03  0.52246933998E+03  0.12000000000E+03 0.  0.
<mgrwt>
<rscale>  0 0.28636779E+03</rscale>
<asrwt>0</asrwt>
<pdfrwt beam="1">  1        1 0.12713034E+00 0.28636779E+03</pdfrwt>
<pdfrwt beam="2">  1       -1 0.38169144E-02 0.28636779E+03</pdfrwt>
<totfact> 0.57745504E+03</totfact>
</mgrwt>
</event>
<event>
 4    1  0.1749575E-004  0.2455735E+03  0.7818608E-02  0.1116135E+00
          2   -1    0    0  501    0  0.00000000000E+00  0.00000000000E+00  0.88091254135E+03  0.88091254135E+03  0.00000000000E+00 0.  1.
         -2   -1    0    0    0  501 -0.00000000000E+00 -0.00000000000E+00 -0.17114739673E+02  0.17114739673E+02  0.00000000000E+00 0.  1.
         25    1    1    2    0    0  0.17331175784E+01 -0.21351132030E+02  0.48585635509E+03  0.50091443612E+03  0.12000000000E+03 0.  0.
         25    1    1    2    0    0 -0.17331175784E+01  0.21351132030E+02  0.37794144659E+03  0.39711284490E+03  0.12000000000E+03 0.  0.
<mgrwt>
<rscale>  0 0.24557352E+03</rscale>
<asrwt>0</asrwt>
<pdfrwt beam="1">  1        2 0.13552497E+00 0.24557352E+03</pdfrwt>
<pdfrwt beam="2">  1       -2 0.26330376E-02 0.24557352E+03</pdfrwt>
<totfact> 0.15939574E+04</totfact>
</mgrwt>
</event>
<event>
 4    1  0.1749575E-004  0.3306217E+03  0.7818608E-02  0.1070862E+00
         -1   -1    0    0    0  501 -0.00000000000E+00  0.00000000000E+00  0.13802625119E+04  0.13802625119E+04  0.00000000000E+00 0.  1.
          1   -1    0    0  501    0  0.00000000000E+00 -0.00000000000E+00 -0.19798897153E+02  0.19798897153E+02  0.00000000000E+00 0.  1.
         25    1    1    2    0    0  0.78686923458E+02 -0.65404387473E+02  0.89019058710E+03  0.90405124146E+03  0.12000000000E+03 0.  0.
         25    1    1    2    0    0 -0.78686923458E+02  0.65404387473E+02  0.47027302767E+03  0.49601016761E+03  0.12000000000E+03 0.  0.
<mgrwt>
<rscale>  0 0.33062169E+03</rscale>
<asrwt>0</asrwt>
<pdfrwt beam="1">  1        1 0.30459853E-02 0.33062169E+03</pdfrwt>
<pdfrwt beam="2">  1       -1 0.21234800E+00 0.33062169E+03</pdfrwt>
<totfact> 0.46138789E+02</totfact>
</mgrwt>
</event>
<event>
 4    1  0.1749575E-004  0.3551974E+03  0.7818608E-02  0.1060502E+00
         -2   -1    0    0    0  501 -0.00000000000E+00  0.00000000000E+00  0.17931605410E+03  0.17931605410E+03  0.00000000000E+00 0. -1.
          2   -1    0    0  501    0  0.00000000000E+00 -0.00000000000E+00 -0.17589780133E+03  0.17589780133E+03  0.00000000000E+00 0. -1.
         25    1    1    2    0    0 -0.66874689251E+02 -0.10964183232E+03  0.27161124175E+02  0.17785185443E+03  0.12000000000E+03 0.  0.
         25    1    1    2    0    0  0.66874689251E+02  0.10964183232E+03 -0.23742871402E+02  0.17736200100E+03  0.12000000000E+03 0.  0.
<mgrwt>
<rscale>  0 0.35519741E+03</rscale>
<asrwt>0</asrwt>
<pdfrwt beam="1">  1        2 0.27061200E-01 0.35519741E+03</pdfrwt>
<pdfrwt beam="2">  1       -2 0.27587085E-01 0.35519741E+03</pdfrwt>
<totfact> 0.23548357E+03</totfact>
</mgrwt>
</event>
<event>
 4    1  0.1749575E-004  0.2527282E+03  0.7818608E-02  0.1111593E+00
         -1   -1    0    0    0  501 -0.00000000000E+00  0.00000000000E+00  0.22252932087E+02  0.22252932087E+02  0.00000000000E+00 0. -1.
          1   -1    0    0  501    0  0.00000000000E+00 -0.00000000000E+00 -0.71756339959E+03  0.71756339959E+03  0.00000000000E+00 0. -1.
         25    1    1    2    0    0  0.23776622647E+01 -0.30421021915E+02 -0.27378475443E+03  0.30048158614E+03  0.12000000000E+03 0.  0.
         25    1    1    2    0    0 -0.23776622647E+01  0.30421021915E+02 -0.42152571307E+03  0.43933474553E+03  0.12000000000E+03 0.  0.
<mgrwt>
<rscale>  0 0.25272823E+03</rscale>
<asrwt>0</asrwt>
<pdfrwt beam="1">  1        1 0.11039439E+00 0.25272823E+03</pdfrwt>
<pdfrwt beam="2">  1       -1 0.34235273E-02 0.25272823E+03</pdfrwt>
<totfact> 0.83730624E+03</totfact>
</mgrwt>
</event>
<event>
 4    1  0.1749575E-004  0.2715283E+03  0.7818608E-02  0.1100408E+00
          2   -1    0    0  501    0  0.00000000000E+00  0.00000000000E+00  0.91256024166E+03  0.91256024166E+03  0.00000000000E+00 0. -1.
         -2   -1    0    0    0  501 -0.00000000000E+00 -0.00000000000E+00 -0.20198010743E+02  0.20198010743E+02  0.00000000000E+00 0. -1.
         25    1    1    2    0    0  0.46347330538E+02 -0.43277550626E+02  0.43485004231E+03  0.45553878071E+03  0.12000000000E+03 0.  0.
         25    1    1    2    0    0 -0.46347330538E+02  0.43277550626E+02  0.45751218860E+03  0.47721947169E+03  0.12000000000E+03 0.  0.
<mgrwt>
<rscale>  0 0.27152828E+03</rscale>
<asrwt>0</asrwt>
<pdfrwt beam="1">  1        2 0.14039385E+00 0.27152828E+03</pdfrwt>
<pdfrwt beam="2">  1       -2 0.31073870E-02 0.27152828E+03</pdfrwt>
<totfact> 0.11939426E+04</totfact>
</mgrwt>
</event>
<event>
 4    1  0.1749575E-004  0.2824566E+03  0.7818608E-02  0.1094355E+00
          2   -1    0    0  501    0  0.00000000000E+00  0.00000000000E+00  0.20862848923E+03  0.20862848923E+03  0.00000000000E+00 0. -1.
         -2   -1    0    0    0  501 -0.00000000000E+00 -0.00000000000E+00 -0.95602637424E+02  0.95602637424E+02  0.00000000000E+00 0. -1.
         25    1    1    2    0    0  0.11516575609E+02 -0.17390090576E+02  0.13351081226E+03  0.18072128749E+03  0.12000000000E+03 0.  0.
         25    1    1    2    0    0 -0.11516575609E+02  0.17390090576E+02 -0.20484960454E+02  0.12350983916E+03  0.12000000000E+03 0.  0.
<mgrwt>
<rscale>  0 0.28245661E+03</rscale>
<asrwt>0</asrwt>
<pdfrwt beam="1">  1        2 0.32096691E-01 0.28245661E+03</pdfrwt>
<pdfrwt beam="2">  1       -2 0.14708098E-01 0.28245661E+03</pdfrwt>
<totfact> 0.57217931E+03</totfact>
</mgrwt>
</event>
<event>
 4    1  0.1749575E-004  0.2744787E+03  0.7818608E-02  0.1098743E+00
          1   -1    0    0  501    0  0.00000000000E+00  0.00000000000E+00  0.41653725600E+02  0.41653725600E+02  0.00000000000E+00 0.  1.
         -1   -1    0    0    0  501 -0.00000000000E+00 -0.00000000000E+00 -0.45217192354E+03  0.45217192354E+03  0.00000000000E+00 0.  1.
         25    1    1    2    0    0  0.11608534783E+02 -0.65249017926E+02 -0.19353665588E+03  0.23716793541E+03  0.12000000000E+03 0.  0.
         25    1    1    2    0    0 -0.11608534783E+02  0.65249017926E+02 -0.21698154207E+03  0.25665771373E+03  0.12000000000E+03 0.  0.
<mgrwt>
<rscale>  0 0.27447874E+03</rscale>
<asrwt>0</asrwt>
<pdfrwt beam="1">  1        1 0.64082656E-02 0.27447874E+03</pdfrwt>
<pdfrwt beam="2">  1       -1 0.69564910E-01 0.27447874E+03</pdfrwt>
<totfact> 0.25548521E+03</totfact>
</mgrwt>
</event>
<event>
 4    1  0.1749575E-004  0.2549327E+03  0.7818608E-02  0.1110227E+00
          2   -1    0    0  501    0  0.00000000000E+00  0.00000000000E+00  0.65507595529E+03  0.65507595529E+03  0.00000000000E+00 0. -1.
         -2   -1    0    0    0  501 -0.00000000000E+00 -0.00000000000E+00 -0.24802730448E+02  0.24802730448E+02  0.00000000000E+00 0. -1.
         25    1    1    2    0    0 -0.38733792013E+02 -0.18117366436E+02  0.30347318375E+03  0.32912690389E+03  0.12000000000E+03 0.  0.
         25    1    1    2    0    0  0.38733792013E+02  0.18117366436E+02  0.32680004109E+03  0.35075178184E+03  0.12000000000E+03 0.  0.
<mgrwt>
<rscale>  0 0.25493272E+03</rscale>
<asrwt>0</asrwt>
<pdfrwt beam="1">  1        2 0.10078090E+00 0.25493272E+03</pdfrwt>
<pdfrwt beam="2">  1       -2 0.38158052E-02 0.25493272E+03</pdfrwt>
<totfact> 0.13299081E+04</totfact>
</mgrwt>
</event>
<event>
 4    1  0.1749575E-004  0.2876363E+03  0.7818608E-02  0.1091590E+00
          1   -1    0    0  501    0  0.00000000000E+00  0.00000000000E+00  0.16192837542E+04  0.16192837542E+04  0.00000000000E+00 0. -1.
         -1   -1    0    0    0  501 -0.00000000000E+00 -0.00000000000E+00 -0.12773338683E+02  0.12773338683E+02  0.00000000000E+00 0. -1.
         25    1    1    2    0    0 -0.65731487308E+02 -0.89623422822E+01  0.55705800129E+03  0.57368507807E+03  0.12000000000E+03 0.  0.
         25    1    1    2    0    0  0.65731487308E+02  0.89623422822E+01  0.10494524142E+04  0.10583720148E+04  0.12000000000E+03 0.  0.
<mgrwt>
<rscale>  0 0.28763630E+03</rscale>
<asrwt>0</asrwt>
<pdfrwt beam="1">  1        1 0.24912041E+00 0.28763630E+03</pdfrwt>
<pdfrwt beam="2">  1       -1 0.19651303E-02 0.28763630E+03</pdfrwt>
<totfact> 0.42018884E+03</totfact>
</mgrwt>
</event>
<event>
 4    1  0.1749575E-004  0.3416837E+03  0.7818608E-02  0.1066081E+00
         -2   -1    0    0    0  501 -0.00000000000E+00  0.00000000000E+00  0.98343004083E+02  0.98343004083E+02  0.00000000000E+00 0.  1.
          2   -1    0    0  501    0  0.00000000000E+00 -0.00000000000E+00 -0.29678711822E+03  0.29678711822E+03  0.00000000000E+00 0.  1.
         25    1    1    2    0    0  0.10935269540E+03 -0.38261011574E+02 -0.14194738030E+03  0.21902277455E+03  0.12000000000E+03 0.  0.
         25    1    1    2    0    0 -0.10935269540E+03  0.38261011574E+02 -0.56496733835E+02  0.17610734775E+03  0.12000000000E+03 0.  0.
<mgrwt>
<rscale>  0 0.34168369E+03</rscale>
<asrwt>0</asrwt>
<pdfrwt beam="1">  1        2 0.45659556E-01 0.34168369E+03</pdfrwt>
<pdfrwt beam="2">  1       -2 0.15129693E-01 0.34168369E+03</pdfrwt>
<totfact> 0.37433080E+03</totfact>
</mgrwt>
</event>
<event>
 4    1  0.1749575E-004  0.3045406E+03  0.7818608E-02  0.1082993E+00
          1   -1    0    0  501    0  0.00000000000E+00  0.00000000000E+00  0.23014930777E+04  0.23014930777E+04  0.00000000000E+00 0. -1.
         -1   -1    0    0    0  501 -0.00000000000E+00 -0.00000000000E+00 -0.10074436019E+02  0.10074436019E+02  0.00000000000E+00 0. -1.
         25    1    1    2    0    0 -0.42060404565E+02 -0.81313892841E+02  0.12985031171E+04  0.13072457198E+04  0.12000000000E+03 0.  0.
         25    1    1    2    0    0  0.42060404565E+02  0.81313892841E+02  0.99291552458E+03  0.10043217939E+04  0.12000000000E+03 0.  0.
<mgrwt>
<rscale>  0 0.30454060E+03</rscale>
<asrwt>0</asrwt>
<pdfrwt beam="1">  1        1 0.35407544E+00 0.30454060E+03</pdfrwt>
<pdfrwt beam="2">  1       -1 0.15499151E-02 0.30454060E+03</pdfrwt>
<totfact> 0.21310329E+03</totfact>
</mgrwt>
</event>
<event>
 4    1  0.1749575E-004  0.3067624E+03  0.7818608E-02  0.1081908E+00
         -1   -1    0    0    0  501 -0.00000000000E+00  0.00000000000E+00  0.64299557171E+02  0.64299557171E+02  0.00000000000E+00 0. -1.
          1   -1    0    0  501    0  0.00000000000E+00 -0.00000000000E+00 -0.36587787859E+03  0.36587787859E+03  0.00000000000E+00 0. -1.
         25    1    1    2    0    0 -0.90581442721E+02  0.40402540701E+01 -0.19296281594E+03  0.24465479712E+03  0.12000000000E+03 0.  0.
         25    1    1    2    0    0  0.90581442721E+02 -0.40402540701E+01 -0.10861550548E+03  0.18552263864E+03  0.12000000000E+03 0.  0.
<mgrwt>
<rscale>  0 0.30676235E+03</rscale>
<asrwt>0</asrwt>
<pdfrwt beam="1">  1        1 0.56288906E-01 0.30676235E+03</pdfrwt>
<pdfrwt beam="2">  1       -1 0.98922393E-02 0.30676235E+03</pdfrwt>
<totfact> 0.42095932E+03</totfact>
</mgrwt>
</event>
<event>
 4    1  0.1749575E-004  0.2975959E+03  0.7818608E-02  0.1086449E+00
          1   -1    0    0  501    0  0.00000000000E+00  0.00000000000E+00  0.18907445592E+02  0.18907445592E+02  0.00000000000E+00 0.  1.
         -1   -1    0    0    0  501 -0.00000000000E+00 -0.00000000000E+00 -0.11710115546E+04  0.11710115546E+04  0.00000000000E+00 0.  1.
         25    1    1    2    0    0  0.51352958716E+02 -0.15740011407E+02 -0.29742193258E+03  0.32518407142E+03  0.12000000000E+03 0.  0.
         25    1    1    2    0    0 -0.51352958716E+02  0.15740011407E+02 -0.85468217646E+03  0.86473492880E+03  0.12000000000E+03 0.  0.
<mgrwt>
<rscale>  0 0.29759595E+03</rscale>
<asrwt>0</asrwt>
<pdfrwt beam="1">  1        1 0.29088371E-02 0.29759595E+03</pdfrwt>
<pdfrwt beam="2">  1       -1 0.18015567E+00 0.29759595E+03</pdfrwt>
<totfact> 0.81289409E+02</totfact>
</mgrwt>
</event>
<event>
 4    1  0.1749575E-004  0.2634553E+03  0.7818608E-02  0.1105085E+00
         -2   -1    0    0    0  501 -0.00000000000E+00  0.00000000000E+00  0.67789565484E+01  0.67789565484E+01  0.00000000000E+00 0. -1.
          2   -1    0    0  501    0  0.00000000000E+00 -0.00000000000E+00 -0.25597113297E+04  0.25597113297E+04  0.00000000000E+00 0. -1.
         25    1    1    2    0    0 -0.29646139567E+00  0.50909192742E+02 -0.10915445228E+04  0.10993003589E+04  0.12000000000E+03 0.  0.
         25    1    1    2    0    0  0.29646139567E+00 -0.50909192742E+02 -0.14613878504E+04  0.14671899274E+04  0.12000000000E+03 0.  0.
<mgrwt>
<rscale>  0 0.26345529E+03</rscale>
<asrwt>0</asrwt>
<pdfrwt beam="1">  1        2 0.39380152E+00 0.26345529E+03</pdfrwt>
<pdfrwt beam="2">  1       -2 0.10429170E-02 0.26345529E+03</pdfrwt>
<totfact> 0.74579028E+03</totfact>
</mgrwt>
</event>
<event>
 4    1  0.1749575E-004  0.2576450E+03  0.7818608E-02  0.1108566E+00
          2   -1    0    0  501    0  0.00000000000E+00  0.00000000000E+00  0.79476000758E+03  0.79476000758E+03  0.00000000000E+00 0. -1.
         -2   -1    0    0    0  501 -0.00000000000E+00 -0.00000000000E+00 -0.20880818421E+02  0.20880818421E+02  0.00000000000E+00 0. -1.
         25    1    1    2    0    0 -0.19562840762E+02 -0.12205603575E+02  0.25781880866E+03  0.28531074216E+03  0.12000000000E+03 0.  0.
         25    1    1    2    0    0  0.19562840762E+02  0.12205603575E+02  0.51606038050E+03  0.53033008383E+03  0.12000000000E+03 0.  0.
<mgrwt>
<rscale>  0 0.25764502E+03</rscale>
<asrwt>0</asrwt>
<pdfrwt beam="1">  1        2 0.12227075E+00 0.25764502E+03</pdfrwt>
<pdfrwt beam="2">  1       -2 0.32124342E-02 0.25764502E+03</pdfrwt>
<totfact> 0.13581936E+04</totfact>
</mgrwt>
</event>
<event>
 4    1  0.1749575E-004  0.3148798E+03  0.7818608E-02  0.1078030E+00
          2   -1    0    0  501    0  0.00000000000E+00  0.00000000000E+00  0.93378059903E+03  0.93378059903E+03  0.00000000000E+00 0.  1.
         -2   -1    0    0    0  501 -0.00000000000E+00 -0.00000000000E+00 -0.26545125033E+02  0.26545125033E+02  0.00000000000E+00 0.  1.
         25    1    1    2    0    0 -0.81433623055E+02  0.60547933326E+02  0.48252439587E+03  0.50747145713E+03  0.12000000000E+03 0.  0.
         25    1    1    2    0    0  0.81433623055E+02 -0.60547933326E+02  0.42471107813E+03  0.45285426693E+03  0.12000000000E+03 0.  0.
<mgrwt>
<rscale>  0 0.31487980E+03</rscale>
<asrwt>0</asrwt>
<pdfrwt beam="1">  1        2 0.14365853E+00 0.31487980E+03</pdfrwt>
<pdfrwt beam="2">  1       -2 0.40838661E-02 0.31487980E+03</pdfrwt>
<totfact> 0.77123387E+03</totfact>
</mgrwt>
</event>
<event>
 4    1  0.1749575E-004  0.3097988E+03  0.7818608E-02  0.1080442E+00
          2   -1    0    0  501    0  0.00000000000E+00  0.00000000000E+00  0.24742293098E+04  0.24742293098E+04  0.00000000000E+00 0.  1.
         -2   -1    0    0    0  501 -0.00000000000E+00 -0.00000000000E+00 -0.96974943115E+01  0.96974943115E+01  0.00000000000E+00 0.  1.
         25    1    1    2    0    0 -0.14021643586E+02  0.90789070863E+02  0.15047040025E+04  0.15122742467E+04  0.12000000000E+03 0.  0.
         25    1    1    2    0    0  0.14021643586E+02 -0.90789070863E+02  0.95982781301E+03  0.97165255751E+03  0.12000000000E+03 0.  0.
<mgrwt>
<rscale>  0 0.30979880E+03</rscale>
<asrwt>0</asrwt>
<pdfrwt beam="1">  1        2 0.38065016E+00 0.30979880E+03</pdfrwt>
<pdfrwt beam="2">  1       -2 0.14919242E-02 0.30979880E+03</pdfrwt>
<totfact> 0.49220550E+03</totfact>
</mgrwt>
</event>
<event>
 4    1  0.1749575E-004  0.2657760E+03  0.7818608E-02  0.1103722E+00
          2   -1    0    0  501    0  0.00000000000E+00  0.00000000000E+00  0.13382768761E+04  0.13382768761E+04  0.00000000000E+00 0. -1.
         -2   -1    0    0    0  501 -0.00000000000E+00 -0.00000000000E+00 -0.13195488233E+02  0.13195488233E+02  0.00000000000E+00 0. -1.
         25    1    1    2    0    0 -0.54111852898E+02 -0.58056722473E+01  0.75023579043E+03  0.76171880618E+03  0.12000000000E+03 0.  0.
         25    1    1    2    0    0  0.54111852898E+02  0.58056722473E+01  0.57484559741E+03  0.58975355812E+03  0.12000000000E+03 0.  0.
<mgrwt>
<rscale>  0 0.26577597E+03</rscale>
<asrwt>0</asrwt>
<pdfrwt beam="1">  1        2 0.20588864E+00 0.26577597E+03</pdfrwt>
<pdfrwt beam="2">  1       -2 0.20300762E-02 0.26577597E+03</pdfrwt>
<totfact> 0.12613750E+04</totfact>
</mgrwt>
</event>
<event>
 4    1  0.1749575E-004  0.2656050E+03  0.7818608E-02  0.1103822E+00
         -1   -1    0    0    0  501 -0.00000000000E+00  0.00000000000E+00  0.36604885385E+02  0.36604885385E+02  0.00000000000E+00 0.  1.
          1   -1    0    0  501    0  0.00000000000E+00 -0.00000000000E+00 -0.48180726979E+03  0.48180726979E+03  0.00000000000E+00 0.  1.
         25    1    1    2    0    0 -0.29505874186E+02  0.25308867242E+02 -0.30367478349E+03  0.32883051789E+03  0.12000000000E+03 0.  0.
         25    1    1    2    0    0  0.29505874186E+02 -0.25308867242E+02 -0.14152760092E+03  0.18958163728E+03  0.12000000000E+03 0.  0.
<mgrwt>
<rscale>  0 0.26560497E+03</rscale>
<asrwt>0</asrwt>
<pdfrwt beam="1">  1        1 0.74124198E-01 0.26560497E+03</pdfrwt>
<pdfrwt beam="2">  1       -1 0.56315206E-02 0.26560497E+03</pdfrwt>
<totfact> 0.69323665E+03</totfact>
</mgrwt>
</event>
<event>
 4    1  0.1749575E-004  0.4251442E+03  0.7818608E-02  0.1035405E+00
         -3   -1    0    0    0  501 -0.00000000000E+00  0.00000000000E+00  0.86385651507E+02  0.86385651507E+02  0.00000000000E+00 0. -1.
          3   -1    0    0  501    0  0.00000000000E+00 -0.00000000000E+00 -0.52308338906E+03  0.52308338906E+03  0.00000000000E+00 0. -1.
         25    1    1    2    0    0 -0.29935532455E+02  0.15782886699E+03 -0.11717567551E+03  0.23224174106E+03  0.12000000000E+03 0.  0.
         25    1    1    2    0    0  0.29935532455E+02 -0.15782886699E+03 -0.31952206204E+03  0.37722729950E+03  0.12000000000E+03 0.  0.
<mgrwt>
<rscale>  0 0.42514421E+03</rscale>
<asrwt>0</asrwt>
<pdfrwt beam="1">  1        3 0.80474366E-01 0.42514421E+03</pdfrwt>
<pdfrwt beam="2">  1       -3 0.13290100E-01 0.42514421E+03</pdfrwt>
<totfact> 0.17527618E+02</totfact>
</mgrwt>
</event>
<event>
 4    1  0.1749575E-004  0.2672513E+03  0.7818608E-02  0.1102863E+00
         -2   -1    0    0    0  501 -0.00000000000E+00  0.00000000000E+00  0.11542588265E+03  0.11542588265E+03  0.00000000000E+00 0. -1.
          2   -1    0    0  501    0  0.00000000000E+00 -0.00000000000E+00 -0.15469503627E+03  0.15469503627E+03  0.00000000000E+00 0. -1.
         25    1    1    2    0    0 -0.21299007657E+02 -0.23683412644E+02 -0.69574214856E+02  0.14232049443E+03  0.12000000000E+03 0.  0.
         25    1    1    2    0    0  0.21299007657E+02  0.23683412644E+02  0.30305061238E+02  0.12780042448E+03  0.12000000000E+03 0.  0.
<mgrwt>
<rscale>  0 0.26725128E+03</rscale>
<asrwt>0</asrwt>
<pdfrwt beam="1">  1        2 0.23799236E-01 0.26725128E+03</pdfrwt>
<pdfrwt beam="2">  1       -2 0.17757828E-01 0.26725128E+03</pdfrwt>
<totfact> 0.58084370E+03</totfact>
</mgrwt>
</event>
<event>
 4    1  0.1749575E-004  0.3196314E+03  0.7818608E-02  0.1075819E+00
         -1   -1    0    0    0  501 -0.00000000000E+00  0.00000000000E+00  0.33714310938E+03  0.33714310938E+03  0.00000000000E+00 0. -1.
          1   -1    0    0  501    0  0.00000000000E+00 -0.00000000000E+00 -0.75757312960E+02  0.75757312960E+02  0.00000000000E+00 0. -1.
         25    1    1    2    0    0  0.87690126701E+02 -0.62309048715E+01  0.55228297276E+02  0.15867749468E+03  0.12000000000E+03 0.  0.
         25    1    1    2    0    0 -0.87690126701E+02  0.62309048715E+01  0.20615749914E+03  0.25422292766E+03  0.12000000000E+03 0.  0.
<mgrwt>
<rscale>  0 0.31963139E+03</rscale>
<asrwt>0</asrwt>
<pdfrwt beam="1">  1        1 0.11654971E-01 0.31963139E+03</pdfrwt>
<pdfrwt beam="2">  1       -1 0.51868170E-01 0.31963139E+03</pdfrwt>
<totfact> 0.20049631E+03</totfact>
</mgrwt>
</event>
<event>
 4    1  0.1749575E-004  0.3400331E+03  0.7818608E-02  0.1066782E+00
          2   -1    0    0  501    0  0.00000000000E+00  0.00000000000E+00  0.78004706064E+03  0.78004706064E+03  0.00000000000E+00 0.  1.
         -2   -1    0    0    0  501 -0.00000000000E+00 -0.00000000000E+00 -0.37056251656E+02  0.37056251656E+02  0.00000000000E+00 0.  1.
         25    1    1    2    0    0 -0.60750958253E+02  0.10219319541E+03  0.41781135706E+03  0.45066668193E+03  0.12000000000E+03 0.  0.
         25    1    1    2    0    0  0.60750958253E+02 -0.10219319541E+03  0.32517945193E+03  0.36643663036E+03  0.12000000000E+03 0.  0.
<mgrwt>
<rscale>  0 0.34003306E+03</rscale>
<asrwt>0</asrwt>
<pdfrwt beam="1">  1        2 0.12000723E+00 0.34003306E+03</pdfrwt>
<pdfrwt beam="2">  1       -2 0.57009624E-02 0.34003306E+03</pdfrwt>
<totfact> 0.58889778E+03</totfact>
</mgrwt>
</event>
<event>
 4    1  0.1749575E-004  0.3733904E+03  0.7818608E-02  0.1053404E+00
         -4   -1    0    0    0  501 -0.00000000000E+00  0.00000000000E+00  0.25188715180E+03  0.25188715180E+03  0.00000000000E+00 0.  1.
          4   -1    0    0  501    0  0.00000000000E+00 -0.00000000000E+00 -0.13837581247E+03  0.13837581247E+03  0.00000000000E+00 0.  1.
         25    1    1    2    0    0  0.47502729121E+02 -0.37078179842E+02 -0.78812004306E+02  0.15570045831E+03  0.12000000000E+03 0.  0.
         25    1    1    2    0    0 -0.47502729121E+02  0.37078179842E+02  0.19232334364E+03  0.23456250596E+03  0.12000000000E+03 0.  0.
<mgrwt>
<rscale>  0 0.37339035E+03</rscale>
<asrwt>0</asrwt>
<pdfrwt beam="1">  1        4 0.21288587E-01 0.37339035E+03</pdfrwt>
<pdfrwt beam="2">  1       -4 0.38751870E-01 0.37339035E+03</pdfrwt>
<totfact> 0.25219988E+02</totfact>
</mgrwt>
</event>
<event>
 4    1  0.1749575E-004  0.2546438E+03  0.7818608E-02  0.1110405E+00
          2   -1    0    0  501    0  0.00000000000E+00  0.00000000000E+00  0.14492356190E+04  0.14492356190E+04  0.00000000000E+00 0.  1.
         -2   -1    0    0    0  501 -0.00000000000E+00 -0.00000000000E+00 -0.11185805601E+02  0.11185805601E+02  0.00000000000E+00 0.  1.
         25    1    1    2    0    0  0.17345812338E+02  0.31028316229E+02  0.58486222891E+03  0.59810321887E+03  0.12000000000E+03 0.  0.
         25    1    1    2    0    0 -0.17345812338E+02 -0.31028316229E+02  0.85318758447E+03  0.86231820571E+03  0.12000000000E+03 0.  0.
<mgrwt>
<rscale>  0 0.25464381E+03</rscale>
<asrwt>0</asrwt>
<pdfrwt beam="1">  1        2 0.22295918E+00 0.25464381E+03</pdfrwt>
<pdfrwt beam="2">  1       -2 0.17208943E-02 0.25464381E+03</pdfrwt>
<totfact> 0.13975680E+04</totfact>
</mgrwt>
</event>
<event>
 4    1  0.1749575E-004  0.3235289E+03  0.7818608E-02  0.1074037E+00
         -2   -1    0    0    0  501 -0.00000000000E+00  0.00000000000E+00  0.38377176741E+02  0.38377176741E+02  0.00000000000E+00 0. -1.
          2   -1    0    0  501    0  0.00000000000E+00 -0.00000000000E+00 -0.68185673276E+03  0.68185673276E+03  0.00000000000E+00 0. -1.
         25    1    1    2    0    0  0.65197556203E+02  0.40762537908E+02 -0.15139065304E+03  0.20792170560E+03  0.12000000000E+03 0.  0.
         25    1    1    2    0    0 -0.65197556203E+02 -0.40762537908E+02 -0.49208890299E+03  0.51231220391E+03  0.12000000000E+03 0.  0.
<mgrwt>
<rscale>  0 0.32352889E+03</rscale>
<asrwt>0</asrwt>
<pdfrwt beam="1">  1        2 0.10490104E+00 0.32352889E+03</pdfrwt>
<pdfrwt beam="2">  1       -2 0.59041811E-02 0.32352889E+03</pdfrwt>
<totfact> 0.65858474E+03</totfact>
</mgrwt>
</event>
<event>
 4    1  0.1749575E-004  0.3030504E+03  0.7818608E-02  0.1083726E+00
          1   -1    0    0  501    0  0.00000000000E+00  0.00000000000E+00  0.11890347898E+04  0.11890347898E+04  0.00000000000E+00 0.  1.
         -1   -1    0    0    0  501 -0.00000000000E+00 -0.00000000000E+00 -0.19309683934E+02  0.19309683934E+02  0.00000000000E+00 0.  1.
         25    1    1    2    0    0 -0.49201875585E+02 -0.77923738951E+02  0.55223693607E+03  0.57258935304E+03  0.12000000000E+03 0.  0.
         25    1    1    2    0    0  0.49201875585E+02  0.77923738951E+02  0.61748816981E+03  0.63575512071E+03  0.12000000000E+03 0.  0.
<mgrwt>
<rscale>  0 0.30305040E+03</rscale>
<asrwt>0</asrwt>
<pdfrwt beam="1">  1        1 0.18292837E+00 0.30305040E+03</pdfrwt>
<pdfrwt beam="2">  1       -1 0.29707215E-02 0.30305040E+03</pdfrwt>
<totfact> 0.44685634E+03</totfact>
</mgrwt>
</event>
<event>
 4    1  0.1749575E-004  0.3028312E+03  0.7818608E-02  0.1083834E+00
          2   -1    0    0  501    0  0.00000000000E+00  0.00000000000E+00  0.57680652828E+03  0.57680652828E+03  0.00000000000E+00 0.  1.
         -2   -1    0    0    0  501 -0.00000000000E+00 -0.00000000000E+00 -0.39747618388E+02  0.39747618388E+02  0.00000000000E+00 0.  1.
         25    1    1    2    0    0 -0.70824811756E+02 -0.34729817674E+02  0.36626371801E+03  0.39340999647E+03  0.12000000000E+03 0.  0.
         25    1    1    2    0    0  0.70824811756E+02  0.34729817674E+02  0.17079519188E+03  0.22314415020E+03  0.12000000000E+03 0.  0.
<mgrwt>
<rscale>  0 0.30283121E+03</rscale>
<asrwt>0</asrwt>
<pdfrwt beam="1">  1        2 0.88739460E-01 0.30283121E+03</pdfrwt>
<pdfrwt beam="2">  1       -2 0.61150186E-02 0.30283121E+03</pdfrwt>
<totfact> 0.75900055E+03</totfact>
</mgrwt>
</event>
<event>
 4    1  0.1749575E-004  0.3050682E+03  0.7818608E-02  0.1082734E+00
         -2   -1    0    0    0  501 -0.00000000000E+00  0.00000000000E+00  0.10230684663E+03  0.10230684663E+03  0.00000000000E+00 0.  1.
          2   -1    0    0  501    0  0.00000000000E+00 -0.00000000000E+00 -0.22742031495E+03  0.22742031495E+03  0.00000000000E+00 0.  1.
         25    1    1    2    0    0 -0.48065569570E+02  0.80735783819E+02 -0.55886202165E+02  0.16233247783E+03  0.12000000000E+03 0.  0.
         25    1    1    2    0    0  0.48065569570E+02 -0.80735783819E+02 -0.69227266154E+02  0.16739468375E+03  0.12000000000E+03 0.  0.
<mgrwt>
<rscale>  0 0.30506822E+03</rscale>
<asrwt>0</asrwt>
<pdfrwt beam="1">  1        2 0.34987740E-01 0.30506822E+03</pdfrwt>
<pdfrwt beam="2">  1       -2 0.15739515E-01 0.30506822E+03</pdfrwt>
<totfact> 0.46654081E+03</totfact>
</mgrwt>
</event>
<event>
 4    1  0.1749575E-004  0.2829062E+03  0.7818608E-02  0.1094112E+00
         -2   -1    0    0    0  501 -0.00000000000E+00  0.00000000000E+00  0.37391215263E+02  0.37391215263E+02  0.00000000000E+00 0. -1.
          2   -1    0    0  501    0  0.00000000000E+00 -0.00000000000E+00 -0.53512511292E+03  0.53512511292E+03  0.00000000000E+00 0. -1.
         25    1    1    2    0    0  0.37411470375E+02  0.56915814401E+02 -0.18584088953E+03  0.23146460694E+03  0.12000000000E+03 0.  0.
         25    1    1    2    0    0 -0.37411470375E+02 -0.56915814401E+02 -0.31189300812E+03  0.34105172124E+03  0.12000000000E+03 0.  0.
<mgrwt>
<rscale>  0 0.28290619E+03</rscale>
<asrwt>0</asrwt>
<pdfrwt beam="1">  1        2 0.82326941E-01 0.28290619E+03</pdfrwt>
<pdfrwt beam="2">  1       -2 0.57524946E-02 0.28290619E+03</pdfrwt>
<totfact> 0.90640786E+03</totfact>
</mgrwt>
</event>
<event>
 4    1  0.1749575E-004  0.3909110E+03  0.7818608E-02  0.1046973E+00
         -1   -1    0    0    0  501 -0.00000000000E+00  0.00000000000E+00  0.10915573568E+03  0.10915573568E+03  0.00000000000E+00 0. -1.
          1   -1    0    0  501    0  0.00000000000E+00 -0.00000000000E+00 -0.34998490717E+03  0.34998490717E+03  0.00000000000E+00 0. -1.
         25    1    1    2    0    0  0.46697412699E+02 -0.14564086263E+03 -0.96604403541E+02  0.21708136724E+03  0.12000000000E+03 0.  0.
         25    1    1    2    0    0 -0.46697412699E+02  0.14564086263E+03 -0.14422476794E+03  0.24205927561E+03  0.12000000000E+03 0.  0.
<mgrwt>
<rscale>  0 0.39091104E+03</rscale>
<asrwt>0</asrwt>
<pdfrwt beam="1">  1        1 0.53843831E-01 0.39091104E+03</pdfrwt>
<pdfrwt beam="2">  1       -1 0.16793190E-01 0.39091104E+03</pdfrwt>
<totfact> 0.19378420E+03</totfact>
</mgrwt>
</event>
<event>
 4    1  0.1749575E-004  0.3067369E+03  0.7818608E-02  0.1081921E+00
         -1   -1    0    0    0  501 -0.00000000000E+00  0.00000000000E+00  0.20922415747E+02  0.20922415747E+02  0.00000000000E+00 0. -1.
          1   -1    0    0  501    0  0.00000000000E+00 -0.00000000000E+00 -0.11242428586E+04  0.11242428586E+04  0.00000000000E+00 0. -1.
         25    1    1    2    0    0 -0.54402056356E+02  0.75272777637E+02 -0.46848861829E+03  0.49245016017E+03  0.12000000000E+03 0.  0.
         25    1    1    2    0    0  0.54402056356E+02 -0.75272777637E+02 -0.63483182452E+03  0.65271511413E+03  0.12000000000E+03 0.  0.
<mgrwt>
<rscale>  0 0.30673687E+03</rscale>
<asrwt>0</asrwt>
<pdfrwt beam="1">  1        1 0.17296045E+00 0.30673687E+03</pdfrwt>
<pdfrwt beam="2">  1       -1 0.32188330E-02 0.30673687E+03</pdfrwt>
<totfact> 0.44124893E+03</totfact>
</mgrwt>
</event>
<event>
 4    1  0.1749575E-004  0.2428501E+03  0.7818608E-02  0.1117909E+00
         -4   -1    0    0    0  501 -0.00000000000E+00  0.00000000000E+00  0.18833117157E+03  0.18833117157E+03  0.00000000000E+00 0.  1.
          4   -1    0    0  501    0  0.00000000000E+00 -0.00000000000E+00 -0.78287876432E+02  0.78287876432E+02  0.00000000000E+00 0.  1.
         25    1    1    2    0    0 -0.13206693315E+02  0.60831131236E+01  0.67665165521E+02  0.13852795977E+03  0.12000000000E+03 0.  0.
         25    1    1    2    0    0  0.13206693315E+02 -0.60831131236E+01  0.42378129615E+02  0.12809108823E+03  0.12000000000E+03 0.  0.
<mgrwt>
<rscale>  0 0.24285014E+03</rscale>
<asrwt>0</asrwt>
<pdfrwt beam="1">  1        4 0.12044289E-01 0.24285014E+03</pdfrwt>
<pdfrwt beam="2">  1       -4 0.28974026E-01 0.24285014E+03</pdfrwt>
<totfact> 0.11557035E+03</totfact>
</mgrwt>
</event>
<event>
 4    1  0.1749575E-004  0.2863920E+03  0.7818608E-02  0.1092248E+00
          1   -1    0    0  501    0  0.00000000000E+00  0.00000000000E+00  0.10936655695E+04  0.10936655695E+04  0.00000000000E+00 0. -1.
         -1   -1    0    0    0  501 -0.00000000000E+00 -0.00000000000E+00 -0.18748961124E+02  0.18748961124E+02  0.00000000000E+00 0. -1.
         25    1    1    2    0    0 -0.12531639360E+02  0.74839598934E+02  0.60982256637E+03  0.62613223045E+03  0.12000000000E+03 0.  0.
         25    1    1    2    0    0  0.12531639360E+02 -0.74839598934E+02  0.46509404201E+03  0.48628230018E+03  0.12000000000E+03 0.  0.
<mgrwt>
<rscale>  0 0.28639199E+03</rscale>
<asrwt>0</asrwt>
<pdfrwt beam="1">  1        1 0.16825619E+00 0.28639199E+03</pdfrwt>
<pdfrwt beam="2">  1       -1 0.28844564E-02 0.28639199E+03</pdfrwt>
<totfact> 0.54552312E+03</totfact>
</mgrwt>
</event>
<event>
 4    1  0.1749575E-004  0.2768706E+03  0.7818608E-02  0.1097411E+00
          2   -1    0    0  501    0  0.00000000000E+00  0.00000000000E+00  0.23370392336E+04  0.23370392336E+04  0.00000000000E+00 0.  1.
         -2   -1    0    0    0  501 -0.00000000000E+00 -0.00000000000E+00 -0.82002633239E+01  0.82002633239E+01  0.00000000000E+00 0.  1.
         25    1    1    2    0    0  0.22942618468E+02 -0.62376426239E+02  0.10065959004E+04  0.10158998420E+04  0.12000000000E+03 0.  0.
         25    1    1    2    0    0 -0.22942618468E+02  0.62376426239E+02  0.13222430699E+04  0.13293396549E+04  0.12000000000E+03 0.  0.
<mgrwt>
<rscale>  0 0.27687063E+03</rscale>
<asrwt>0</asrwt>
<pdfrwt beam="1">  1        2 0.35954397E+00 0.27687063E+03</pdfrwt>
<pdfrwt beam="2">  1       -2 0.12615808E-02 0.27687063E+03</pdfrwt>
<totfact> 0.74736183E+03</totfact>
</mgrwt>
</event>
<event>
 4    1  0.1749575E-004  0.3986124E+03  0.7818608E-02  0.1044261E+00
         -2   -1    0    0    0  501 -0.00000000000E+00  0.00000000000E+00  0.33048234332E+02  0.33048234332E+02  0.00000000000E+00 0.  1.
          2   -1    0    0  501    0  0.00000000000E+00 -0.00000000000E+00 -0.12019694595E+04  0.12019694595E+04  0.00000000000E+00 0.  1.
         25    1    1    2    0    0  0.29352952552E+02 -0.40189100797E+02 -0.10527662727E+04  0.10607514245E+04  0.12000000000E+03 0.  0.
         25    1    1    2    0    0 -0.29352952552E+02  0.40189100797E+02 -0.11615495249E+03  0.17426626935E+03  0.12000000000E+03 0.  0.
<mgrwt>
<rscale>  0 0.39861244E+03</rscale>
<asrwt>0</asrwt>
<pdfrwt beam="1">  1        2 0.18491836E+00 0.39861244E+03</pdfrwt>
<pdfrwt beam="2">  1       -2 0.50843442E-02 0.39861244E+03</pdfrwt>
<totfact> 0.38163460E+03</totfact>
</mgrwt>
</event>
<event>
 4    1  0.1749575E-004  0.2813105E+03  0.7818608E-02  0.1094975E+00
         -3   -1    0    0    0  501 -0.00000000000E+00  0.00000000000E+00  0.26285086732E+02  0.26285086732E+02  0.00000000000E+00 0.  1.
          3   -1    0    0  501    0  0.00000000000E+00 -0.00000000000E+00 -0.75266646809E+03  0.75266646809E+03  0.00000000000E+00 0.  1.
         25    1    1    2    0    0 -0.54632145885E+02  0.93147634363E+01 -0.23003422682E+03  0.26530582671E+03  0.12000000000E+03 0.  0.
         25    1    1    2    0    0  0.54632145885E+02 -0.93147634363E+01 -0.49634715454E+03  0.51364572811E+03  0.12000000000E+03 0.  0.
<mgrwt>
<rscale>  0 0.28131053E+03</rscale>
<asrwt>0</asrwt>
<pdfrwt beam="1">  1        3 0.11579483E+00 0.28131053E+03</pdfrwt>
<pdfrwt beam="2">  1       -3 0.40438598E-02 0.28131053E+03</pdfrwt>
<totfact> 0.52316287E+02</totfact>
</mgrwt>
</event>
<event>
 4    1  0.1749575E-004  0.3391095E+03  0.7818608E-02  0.1067176E+00
         -2   -1    0    0    0  501 -0.00000000000E+00  0.00000000000E+00  0.28944620513E+02  0.28944620513E+02  0.00000000000E+00 0. -1.
          2   -1    0    0  501    0  0.00000000000E+00 -0.00000000000E+00 -0.99323508001E+03  0.99323508001E+03  0.00000000000E+00 0. -1.
         25    1    1    2    0    0  0.46038085328E+02  0.31180714964E+02 -0.80196108330E+03  0.81279352939E+03  0.12000000000E+03 0.  0.
         25    1    1    2    0    0 -0.46038085328E+02 -0.31180714964E+02 -0.16232937620E+03  0.20938617114E+03  0.12000000000E+03 0.  0.
<mgrwt>
<rscale>  0 0.33910950E+03</rscale>
<asrwt>0</asrwt>
<pdfrwt beam="1">  1        2 0.15280540E+00 0.33910950E+03</pdfrwt>
<pdfrwt beam="2">  1       -2 0.44530186E-02 0.33910950E+03</pdfrwt>
<totfact> 0.62157899E+03</totfact>
</mgrwt>
</event>
<event>
 4    1  0.1749575E-004  0.2436141E+03  0.7818608E-02  0.1117408E+00
         -2   -1    0    0    0  501 -0.00000000000E+00  0.00000000000E+00  0.83755866828E+01  0.83755866828E+01  0.00000000000E+00 0. -1.
          2   -1    0    0  501    0  0.00000000000E+00 -0.00000000000E+00 -0.17714523690E+04  0.17714523690E+04  0.00000000000E+00 0. -1.
         25    1    1    2    0    0 -0.19606306979E+02 -0.72314483963E+01 -0.87787264832E+03  0.88628273580E+03  0.12000000000E+03 0.  0.
         25    1    1    2    0    0  0.19606306979E+02  0.72314483963E+01 -0.88520413402E+03  0.89354521990E+03  0.12000000000E+03 0.  0.
<mgrwt>
<rscale>  0 0.24361406E+03</rscale>
<asrwt>0</asrwt>
<pdfrwt beam="1">  1        2 0.27253123E+00 0.24361406E+03</pdfrwt>
<pdfrwt beam="2">  1       -2 0.12885513E-02 0.24361406E+03</pdfrwt>
<totfact> 0.14383749E+04</totfact>
</mgrwt>
</event>
<event>
 4    1  0.1749575E-004  0.2782499E+03  0.7818608E-02  0.1096649E+00
         -1   -1    0    0    0  501 -0.00000000000E+00  0.00000000000E+00  0.97567579289E+01  0.97567579289E+01  0.00000000000E+00 0. -1.
          1   -1    0    0  501    0  0.00000000000E+00 -0.00000000000E+00 -0.19838297395E+04  0.19838297395E+04  0.00000000000E+00 0. -1.
         25    1    1    2    0    0 -0.43068669562E+02 -0.34983615327E+02 -0.67663036540E+03  0.68942542383E+03  0.12000000000E+03 0.  0.
         25    1    1    2    0    0  0.43068669562E+02  0.34983615327E+02 -0.12974426162E+04  0.13041610736E+04  0.12000000000E+03 0.  0.
<mgrwt>
<rscale>  0 0.27824986E+03</rscale>
<asrwt>0</asrwt>
<pdfrwt beam="1">  1        1 0.30520444E+00 0.27824986E+03</pdfrwt>
<pdfrwt beam="2">  1       -1 0.15010404E-02 0.27824986E+03</pdfrwt>
<totfact> 0.36037630E+03</totfact>
</mgrwt>
</event>
<event>
 4    1  0.1749575E-004  0.2737347E+03  0.7818608E-02  0.1099161E+00
          2   -1    0    0  501    0  0.00000000000E+00  0.00000000000E+00  0.39207338272E+02  0.39207338272E+02  0.00000000000E+00 0.  1.
         -2   -1    0    0    0  501 -0.00000000000E+00 -0.00000000000E+00 -0.47778483661E+03  0.47778483661E+03  0.00000000000E+00 0.  1.
         25    1    1    2    0    0  0.31174972969E+02  0.56807625223E+02 -0.24112599527E+03  0.27702117395E+03  0.12000000000E+03 0.  0.
         25    1    1    2    0    0 -0.31174972969E+02 -0.56807625223E+02 -0.19745150307E+03  0.23997100093E+03  0.12000000000E+03 0.  0.
<mgrwt>
<rscale>  0 0.27373470E+03</rscale>
<asrwt>0</asrwt>
<pdfrwt beam="1">  1        2 0.60318984E-02 0.27373470E+03</pdfrwt>
<pdfrwt beam="2">  1       -2 0.73505357E-01 0.27373470E+03</pdfrwt>
<totfact> 0.21000172E+03</totfact>
</mgrwt>
</event>
<event>
 4    1  0.1749575E-004  0.2548621E+03  0.7818608E-02  0.1110270E+00
          2   -1    0    0  501    0  0.00000000000E+00  0.00000000000E+00  0.62309066115E+02  0.62309066115E+02  0.00000000000E+00 0. -1.
         -2   -1    0    0    0  501 -0.00000000000E+00 -0.00000000000E+00 -0.26061483218E+03  0.26061483218E+03  0.00000000000E+00 0. -1.
         25    1    1    2    0    0 -0.21122973943E+02 -0.30645882683E+01 -0.52031175051E+02  0.13252477092E+03  0.12000000000E+03 0.  0.
         25    1    1    2    0    0  0.21122973943E+02  0.30645882683E+01 -0.14627459101E+03  0.19039912737E+03  0.12000000000E+03 0.  0.
<mgrwt>
<rscale>  0 0.25486206E+03</rscale>
<asrwt>0</asrwt>
<pdfrwt beam="1">  1        2 0.95860102E-02 0.25486206E+03</pdfrwt>
<pdfrwt beam="2">  1       -2 0.40094589E-01 0.25486206E+03</pdfrwt>
<totfact> 0.39721861E+03</totfact>
</mgrwt>
</event>
<event>
 4    1  0.1749575E-004  0.4227851E+03  0.7818608E-02  0.1036164E+00
         -2   -1    0    0    0  501 -0.00000000000E+00  0.00000000000E+00  0.17326192024E+03  0.17326192024E+03  0.00000000000E+00 0.  1.
          2   -1    0    0  501    0  0.00000000000E+00 -0.00000000000E+00 -0.25791472802E+03  0.25791472802E+03  0.00000000000E+00 0.  1.
         25    1    1    2    0    0  0.91145343221E+02 -0.13998956916E+03  0.74506382613E+01  0.20581560940E+03  0.12000000000E+03 0.  0.
         25    1    1    2    0    0 -0.91145343221E+02  0.13998956916E+03 -0.92103446033E+02  0.22536103886E+03  0.12000000000E+03 0.  0.
<mgrwt>
<rscale>  0 0.42278506E+03</rscale>
<asrwt>0</asrwt>
<pdfrwt beam="1">  1        2 0.39679189E-01 0.42278506E+03</pdfrwt>
<pdfrwt beam="2">  1       -2 0.26655680E-01 0.42278506E+03</pdfrwt>
<totfact> 0.16454766E+03</totfact>
</mgrwt>
</event>
<event>
 4    1  0.1749575E-004  0.2933904E+03  0.7818608E-02  0.1088592E+00
          3   -1    0    0  501    0  0.00000000000E+00  0.00000000000E+00  0.21013168997E+03  0.21013168997E+03  0.00000000000E+00 0.  1.
         -3   -1    0    0    0  501 -0.00000000000E+00 -0.00000000000E+00 -0.10240950409E+03  0.10240950409E+03  0.00000000000E+00 0.  1.
         25    1    1    2    0    0  0.31947156248E+02  0.68430037818E+02  0.13772360619E+02  0.14245339162E+03  0.12000000000E+03 0.  0.
         25    1    1    2    0    0 -0.31947156248E+02 -0.68430037818E+02  0.93949825262E+02  0.17008780243E+03  0.12000000000E+03 0.  0.
<mgrwt>
<rscale>  0 0.29339040E+03</rscale>
<asrwt>0</asrwt>
<pdfrwt beam="1">  1        3 0.32327952E-01 0.29339040E+03</pdfrwt>
<pdfrwt beam="2">  1       -3 0.15755308E-01 0.29339040E+03</pdfrwt>
<totfact> 0.81424621E+02</totfact>
</mgrwt>
</event>
<event>
 4    1  0.1749575E-004  0.3001500E+03  0.7818608E-02  0.1085166E+00
          1   -1    0    0  501    0  0.00000000000E+00  0.00000000000E+00  0.36137348480E+03  0.36137348480E+03  0.00000000000E+00 0. -1.
         -1   -1    0    0    0  501 -0.00000000000E+00 -0.00000000000E+00 -0.62324725229E+02  0.62324725229E+02  0.00000000000E+00 0. -1.
         25    1    1    2    0    0 -0.77886057395E+02  0.19157753118E+02  0.91506117495E+02  0.17089946454E+03  0.12000000000E+03 0.  0.
         25    1    1    2    0    0  0.77886057395E+02 -0.19157753118E+02  0.20754264208E+03  0.25279874549E+03  0.12000000000E+03 0.  0.
<mgrwt>
<rscale>  0 0.30014998E+03</rscale>
<asrwt>0</asrwt>
<pdfrwt beam="1">  1        1 0.55595920E-01 0.30014998E+03</pdfrwt>
<pdfrwt beam="2">  1       -1 0.95884195E-02 0.30014998E+03</pdfrwt>
<totfact> 0.44858171E+03</totfact>
</mgrwt>
</event>
<event>
 4    1  0.1749575E-004  0.2525379E+03  0.7818608E-02  0.1111711E+00
         -2   -1    0    0    0  501 -0.00000000000E+00  0.00000000000E+00  0.68211251172E+01  0.68211251172E+01  0.00000000000E+00 0. -1.
          2   -1    0    0  501    0  0.00000000000E+00 -0.00000000000E+00 -0.23374216948E+04  0.23374216948E+04  0.00000000000E+00 0. -1.
         25    1    1    2    0    0  0.15392803014E+02  0.35853514241E+02 -0.12082754119E+04  0.12148464446E+04  0.12000000000E+03 0.  0.
         25    1    1    2    0    0 -0.15392803014E+02 -0.35853514241E+02 -0.11223251577E+04  0.11293963753E+04  0.12000000000E+03 0.  0.
<mgrwt>
<rscale>  0 0.25253788E+03</rscale>
<asrwt>0</asrwt>
<pdfrwt beam="1">  1        2 0.35960325E+00 0.25253788E+03</pdfrwt>
<pdfrwt beam="2">  1       -2 0.10494041E-02 0.25253788E+03</pdfrwt>
<totfact> 0.97612646E+03</totfact>
</mgrwt>
</event>
<event>
 4    1  0.1749575E-004  0.2927513E+03  0.7818608E-02  0.1088921E+00
          1   -1    0    0  501    0  0.00000000000E+00  0.00000000000E+00  0.12628819114E+04  0.12628819114E+04  0.00000000000E+00 0. -1.
         -1   -1    0    0    0  501 -0.00000000000E+00 -0.00000000000E+00 -0.16965821471E+02  0.16965821471E+02  0.00000000000E+00 0. -1.
         25    1    1    2    0    0  0.13343078879E+02  0.34247621908E+02  0.29362274860E+03  0.31931998975E+03  0.12000000000E+03 0.  0.
         25    1    1    2    0    0 -0.13343078879E+02 -0.34247621908E+02  0.95229334130E+03  0.96052774309E+03  0.12000000000E+03 0.  0.
<mgrwt>
<rscale>  0 0.29275129E+03</rscale>
<asrwt>0</asrwt>
<pdfrwt beam="1">  1        1 0.19428945E+00 0.29275129E+03</pdfrwt>
<pdfrwt beam="2">  1       -1 0.26101274E-02 0.29275129E+03</pdfrwt>
<totfact> 0.48027580E+03</totfact>
</mgrwt>
</event>
<event>
 4    1  0.1749575E-004  0.2872792E+03  0.7818608E-02  0.1091778E+00
          1   -1    0    0  501    0  0.00000000000E+00  0.00000000000E+00  0.76727579149E+03  0.76727579149E+03  0.00000000000E+00 0.  1.
         -1   -1    0    0    0  501 -0.00000000000E+00 -0.00000000000E+00 -0.26890375176E+02  0.26890375176E+02  0.00000000000E+00 0.  1.
         25    1    1    2    0    0  0.96424745239E+01  0.70382071836E+02  0.46538425398E+03  0.48582827954E+03  0.12000000000E+03 0.  0.
         25    1    1    2    0    0 -0.96424745239E+01 -0.70382071836E+02  0.27500116233E+03  0.30833788712E+03  0.12000000000E+03 0.  0.
<mgrwt>
<rscale>  0 0.28727919E+03</rscale>
<asrwt>0</asrwt>
<pdfrwt beam="1">  1        1 0.11804241E+00 0.28727919E+03</pdfrwt>
<pdfrwt beam="2">  1       -1 0.41369814E-02 0.28727919E+03</pdfrwt>
<totfact> 0.57422235E+03</totfact>
</mgrwt>
</event>
<event>
 4    1  0.1749575E-004  0.2737843E+03  0.7818608E-02  0.1099133E+00
          1   -1    0    0  501    0  0.00000000000E+00  0.00000000000E+00  0.27655268076E+03  0.27655268076E+03  0.00000000000E+00 0. -1.
         -1   -1    0    0    0  501 -0.00000000000E+00 -0.00000000000E+00 -0.67760887928E+02  0.67760887928E+02  0.00000000000E+00 0. -1.
         25    1    1    2    0    0 -0.14309568360E+01 -0.62933613346E+02  0.12880672931E+03  0.18695951658E+03  0.12000000000E+03 0.  0.
         25    1    1    2    0    0  0.14309568360E+01  0.62933613346E+02  0.79985063521E+02  0.15735405210E+03  0.12000000000E+03 0.  0.
<mgrwt>
<rscale>  0 0.27378426E+03</rscale>
<asrwt>0</asrwt>
<pdfrwt beam="1">  1        1 0.42546565E-01 0.27378426E+03</pdfrwt>
<pdfrwt beam="2">  1       -1 0.10424752E-01 0.27378426E+03</pdfrwt>
<totfact> 0.55114887E+03</totfact>
</mgrwt>
</event>
<event>
 4    1  0.1749575E-004  0.2634564E+03  0.7818608E-02  0.1105084E+00
         -4   -1    0    0    0  501 -0.00000000000E+00  0.00000000000E+00  0.23324837754E+02  0.23324837754E+02  0.00000000000E+00 0. -1.
          4   -1    0    0  501    0  0.00000000000E+00 -0.00000000000E+00 -0.74394168077E+03  0.74394168077E+03  0.00000000000E+00 0. -1.
         25    1    1    2    0    0  0.16606976173E+02 -0.55572797837E+01 -0.51010544751E+03  0.52432265124E+03  0.12000000000E+03 0.  0.
         25    1    1    2    0    0 -0.16606976173E+02  0.55572797837E+01 -0.21051139550E+03  0.24294386728E+03  0.12000000000E+03 0.  0.
<mgrwt>
<rscale>  0 0.26345640E+03</rscale>
<asrwt>0</asrwt>
<pdfrwt beam="1">  1        4 0.11445255E+00 0.26345640E+03</pdfrwt>
<pdfrwt beam="2">  1       -4 0.35884372E-02 0.26345640E+03</pdfrwt>
<totfact> 0.46940978E+02</totfact>
</mgrwt>
</event>
<event>
 4    1  0.1749575E-004  0.3070832E+03  0.7818608E-02  0.1081752E+00
          2   -1    0    0  501    0  0.00000000000E+00  0.00000000000E+00  0.10468606189E+04  0.10468606189E+04  0.00000000000E+00 0.  1.
         -2   -1    0    0    0  501 -0.00000000000E+00 -0.00000000000E+00 -0.22519737721E+02  0.22519737721E+02  0.00000000000E+00 0.  1.
         25    1    1    2    0    0  0.12616707991E+02  0.87164638200E+02  0.38102885630E+03  0.40907193109E+03  0.12000000000E+03 0.  0.
         25    1    1    2    0    0 -0.12616707991E+02 -0.87164638200E+02  0.64331202489E+03  0.66030842554E+03  0.12000000000E+03 0.  0.
<mgrwt>
<rscale>  0 0.30708322E+03</rscale>
<asrwt>0</asrwt>
<pdfrwt beam="1">  1        2 0.16105544E+00 0.30708322E+03</pdfrwt>
<pdfrwt beam="2">  1       -2 0.34645759E-02 0.30708322E+03</pdfrwt>
<totfact> 0.84037911E+03</totfact>
</mgrwt>
</event>
<event>
 4    1  0.1749575E-004  0.3522328E+03  0.7818608E-02  0.1061702E+00
         -2   -1    0    0    0  501 -0.00000000000E+00  0.00000000000E+00  0.55329780862E+03  0.55329780862E+03  0.00000000000E+00 0. -1.
          2   -1    0    0  501    0  0.00000000000E+00 -0.00000000000E+00 -0.56058402058E+02  0.56058402058E+02  0.00000000000E+00 0. -1.
         25    1    1    2    0    0 -0.73438388873E+02  0.10588116610E+03  0.25485069112E+03  0.30976263987E+03  0.12000000000E+03 0.  0.
         25    1    1    2    0    0  0.73438388873E+02 -0.10588116610E+03  0.24238871545E+03  0.29959357081E+03  0.12000000000E+03 0.  0.
<mgrwt>
<rscale>  0 0.35223283E+03</rscale>
<asrwt>0</asrwt>
<pdfrwt beam="1">  1        2 0.86243699E-02 0.35223283E+03</pdfrwt>
<pdfrwt beam="2">  1       -2 0.85122736E-01 0.35223283E+03</pdfrwt>
<totfact> 0.96326475E+02</totfact>
</mgrwt>
</event>
<event>
 4    1  0.1749575E-004  0.2724290E+03  0.7818608E-02  0.1099897E+00
         -2   -1    0    0    0  501 -0.00000000000E+00  0.00000000000E+00  0.65590222518E+02  0.65590222518E+02  0.00000000000E+00 0.  1.
          2   -1    0    0  501    0  0.00000000000E+00 -0.00000000000E+00 -0.28288343192E+03  0.28288343192E+03  0.00000000000E+00 0.  1.
         25    1    1    2    0    0  0.19699959602E+02 -0.54087699639E+02 -0.14573756313E+03  0.19736515642E+03  0.12000000000E+03 0.  0.
         25    1    1    2    0    0 -0.19699959602E+02  0.54087699639E+02 -0.71555646272E+02  0.15110849802E+03  0.12000000000E+03 0.  0.
<mgrwt>
<rscale>  0 0.27242898E+03</rscale>
<asrwt>0</asrwt>
<pdfrwt beam="1">  1        2 0.43520527E-01 0.27242898E+03</pdfrwt>
<pdfrwt beam="2">  1       -2 0.10090804E-01 0.27242898E+03</pdfrwt>
<totfact> 0.75613076E+03</totfact>
</mgrwt>
</event>
<event>
 4    1  0.1749575E-004  0.3565310E+03  0.7818608E-02  0.1059966E+00
         -1   -1    0    0    0  501 -0.00000000000E+00  0.00000000000E+00  0.20959949313E+03  0.20959949313E+03  0.00000000000E+00 0. -1.
          1   -1    0    0  501    0  0.00000000000E+00 -0.00000000000E+00 -0.15161572783E+03  0.15161572783E+03  0.00000000000E+00 0. -1.
         25    1    1    2    0    0  0.60280226086E+02 -0.16889954628E+02 -0.88547914822E+02  0.16173963473E+03  0.12000000000E+03 0.  0.
         25    1    1    2    0    0 -0.60280226086E+02  0.16889954628E+02  0.14653168012E+03  0.19947558623E+03  0.12000000000E+03 0.  0.
<mgrwt>
<rscale>  0 0.35653095E+03</rscale>
<asrwt>0</asrwt>
<pdfrwt beam="1">  1        1 0.23325496E-01 0.35653095E+03</pdfrwt>
<pdfrwt beam="2">  1       -1 0.32246076E-01 0.35653095E+03</pdfrwt>
<totfact> 0.18945565E+03</totfact>
</mgrwt>
</event>
<event>
 4    1  0.1749575E-004  0.3569201E+03  0.7818608E-02  0.1059810E+00
         -2   -1    0    0    0  501 -0.00000000000E+00  0.00000000000E+00  0.20051430600E+02  0.20051430600E+02  0.00000000000E+00 0.  1.
          2   -1    0    0  501    0  0.00000000000E+00 -0.00000000000E+00 -0.15883147927E+04  0.15883147927E+04  0.00000000000E+00 0.  1.
         25    1    1    2    0    0  0.11366125657E+03  0.58248021727E+02 -0.63223270276E+03  0.65607156905E+03  0.12000000000E+03 0.  0.
         25    1    1    2    0    0 -0.11366125657E+03 -0.58248021727E+02 -0.93603065929E+03  0.95229465420E+03  0.12000000000E+03 0.  0.
<mgrwt>
<rscale>  0 0.35692007E+03</rscale>
<asrwt>0</asrwt>
<pdfrwt beam="1">  1        2 0.24435622E+00 0.35692007E+03</pdfrwt>
<pdfrwt beam="2">  1       -2 0.30848343E-02 0.35692007E+03</pdfrwt>
<totfact> 0.49819180E+03</totfact>
</mgrwt>
</event>
<event>
 4    1  0.1749575E-004  0.2822930E+03  0.7818608E-02  0.1094443E+00
         -2   -1    0    0    0  501 -0.00000000000E+00  0.00000000000E+00  0.32749210214E+02  0.32749210214E+02  0.00000000000E+00 0. -1.
          2   -1    0    0  501    0  0.00000000000E+00 -0.00000000000E+00 -0.60833041903E+03  0.60833041903E+03  0.00000000000E+00 0. -1.
         25    1    1    2    0    0  0.23785688938E+02  0.47608359706E+02 -0.40557561538E+03  0.42629085693E+03  0.12000000000E+03 0.  0.
         25    1    1    2    0    0 -0.23785688938E+02 -0.47608359706E+02 -0.17000559344E+03  0.21478877231E+03  0.12000000000E+03 0.  0.
<mgrwt>
<rscale>  0 0.28229304E+03</rscale>
<asrwt>0</asrwt>
<pdfrwt beam="1">  1        2 0.93589290E-01 0.28229304E+03</pdfrwt>
<pdfrwt beam="2">  1       -2 0.50383403E-02 0.28229304E+03</pdfrwt>
<totfact> 0.95755187E+03</totfact>
</mgrwt>
</event>
<event>
 4    1  0.1749575E-004  0.2477442E+03  0.7818608E-02  0.1114739E+00
          1   -1    0    0  501    0  0.00000000000E+00  0.00000000000E+00  0.25279372463E+03  0.25279372463E+03  0.00000000000E+00 0. -1.
         -1   -1    0    0    0  501 -0.00000000000E+00 -0.00000000000E+00 -0.60698861875E+02  0.60698861875E+02  0.00000000000E+00 0. -1.
         25    1    1    2    0    0 -0.26065153280E+02  0.66753082354E+00  0.75469648950E+02  0.14413710739E+03  0.12000000000E+03 0.  0.
         25    1    1    2    0    0  0.26065153280E+02 -0.66753082354E+00  0.11662521381E+03  0.16935547912E+03  0.12000000000E+03 0.  0.
<mgrwt>
<rscale>  0 0.24774415E+03</rscale>
<asrwt>0</asrwt>
<pdfrwt beam="1">  1        1 0.38891342E-01 0.24774415E+03</pdfrwt>
<pdfrwt beam="2">  1       -1 0.93382866E-02 0.24774415E+03</pdfrwt>
<totfact> 0.72824077E+03</totfact>
</mgrwt>
</event>
<event>
 4    1  0.1749575E-004  0.3448743E+03  0.7818608E-02  0.1064739E+00
         -1   -1    0    0    0  501 -0.00000000000E+00  0.00000000000E+00  0.35021882934E+03  0.35021882934E+03  0.00000000000E+00 0.  1.
          1   -1    0    0  501    0  0.00000000000E+00 -0.00000000000E+00 -0.84902827246E+02  0.84902827246E+02  0.00000000000E+00 0.  1.
         25    1    1    2    0    0 -0.75489219627E+01  0.77724933022E+01  0.28829643072E+03  0.31246156538E+03  0.12000000000E+03 0.  0.
         25    1    1    2    0    0  0.75489219627E+01 -0.77724933022E+01 -0.22980428624E+02  0.12266009121E+03  0.12000000000E+03 0.  0.
<mgrwt>
<rscale>  0 0.34487429E+03</rscale>
<asrwt>0</asrwt>
<pdfrwt beam="1">  1        1 0.13061974E-01 0.34487429E+03</pdfrwt>
<pdfrwt beam="2">  1       -1 0.53879819E-01 0.34487429E+03</pdfrwt>
<totfact> 0.16045873E+03</totfact>
</mgrwt>
</event>
<event>
 4    1  0.1749575E-004  0.3230964E+03  0.7818608E-02  0.1074233E+00
          2   -1    0    0  501    0  0.00000000000E+00  0.00000000000E+00  0.78186239366E+02  0.78186239366E+02  0.00000000000E+00 0. -1.
         -2   -1    0    0    0  501 -0.00000000000E+00 -0.00000000000E+00 -0.33379041038E+03  0.33379041038E+03  0.00000000000E+00 0. -1.
         25    1    1    2    0    0  0.16819395040E+02  0.63254498063E+02 -0.18012598975E+02  0.13787123448E+03  0.12000000000E+03 0.  0.
         25    1    1    2    0    0 -0.16819395040E+02 -0.63254498063E+02 -0.23759157203E+03  0.27410541526E+03  0.12000000000E+03 0.  0.
<mgrwt>
<rscale>  0 0.32309638E+03</rscale>
<asrwt>0</asrwt>
<pdfrwt beam="1">  1        2 0.12028652E-01 0.32309638E+03</pdfrwt>
<pdfrwt beam="2">  1       -2 0.51352372E-01 0.32309638E+03</pdfrwt>
<totfact> 0.18600977E+03</totfact>
</mgrwt>
</event>
<event>
 4    1  0.1749575E-004  0.2731457E+03  0.7818608E-02  0.1099493E+00
         -1   -1    0    0    0  501 -0.00000000000E+00  0.00000000000E+00  0.85221081027E+03  0.85221081027E+03  0.00000000000E+00 0. -1.
          1   -1    0    0  501    0  0.00000000000E+00 -0.00000000000E+00 -0.21886763860E+02  0.21886763860E+02  0.00000000000E+00 0. -1.
         25    1    1    2    0    0 -0.39988146508E+02 -0.21731006545E+02  0.26571806979E+03  0.29508876820E+03  0.12000000000E+03 0.  0.
         25    1    1    2    0    0  0.39988146508E+02  0.21731006545E+02  0.56460597662E+03  0.57900880593E+03  0.12000000000E+03 0.  0.
<mgrwt>
<rscale>  0 0.27314565E+03</rscale>
<asrwt>0</asrwt>
<pdfrwt beam="1">  1        1 0.33671951E-02 0.27314565E+03</pdfrwt>
<pdfrwt beam="2">  1       -1 0.13110933E+00 0.27314565E+03</pdfrwt>
<totfact> 0.15429986E+03</totfact>
</mgrwt>
</event>
<event>
 4    1  0.1749575E-004  0.4367177E+03  0.7818608E-02  0.1031759E+00
          2   -1    0    0  501    0  0.00000000000E+00  0.00000000000E+00  0.58721085199E+03  0.58721085199E+03  0.00000000000E+00 0. -1.
         -2   -1    0    0    0  501 -0.00000000000E+00 -0.00000000000E+00 -0.81198415641E+02  0.81198415641E+02  0.00000000000E+00 0. -1.
         25    1    1    2    0    0 -0.17853332983E+03 -0.36905965087E+02  0.26320357687E+03  0.34192444048E+03  0.12000000000E+03 0.  0.
         25    1    1    2    0    0  0.17853332983E+03  0.36905965087E+02  0.24280885949E+03  0.32648482716E+03  0.12000000000E+03 0.  0.
<mgrwt>
<rscale>  0 0.43671772E+03</rscale>
<asrwt>0</asrwt>
<pdfrwt beam="1">  1        2 0.90340128E-01 0.43671772E+03</pdfrwt>
<pdfrwt beam="2">  1       -2 0.12492064E-01 0.43671772E+03</pdfrwt>
<totfact> 0.24098008E+03</totfact>
</mgrwt>
</event>
<event>
 4    1  0.1749575E-004  0.3038855E+03  0.7818608E-02  0.1083314E+00
         -2   -1    0    0    0  501 -0.00000000000E+00  0.00000000000E+00  0.15398862744E+02  0.15398862744E+02  0.00000000000E+00 0.  1.
          2   -1    0    0  501    0  0.00000000000E+00 -0.00000000000E+00 -0.14992406921E+04  0.14992406921E+04  0.00000000000E+00 0.  1.
         25    1    1    2    0    0 -0.61129169052E+02  0.20063081568E+02 -0.10780267510E+04  0.10865914496E+04  0.12000000000E+03 0.  0.
         25    1    1    2    0    0  0.61129169052E+02 -0.20063081568E+02 -0.40581507836E+03  0.42804810521E+03  0.12000000000E+03 0.  0.
<mgrwt>
<rscale>  0 0.30388552E+03</rscale>
<asrwt>0</asrwt>
<pdfrwt beam="1">  1        2 0.23065256E+00 0.30388552E+03</pdfrwt>
<pdfrwt beam="2">  1       -2 0.23690543E-02 0.30388552E+03</pdfrwt>
<totfact> 0.82357432E+03</totfact>
</mgrwt>
</event>
<event>
 4    1  0.1749575E-004  0.3838243E+03  0.7818608E-02  0.1049529E+00
         -3   -1    0    0    0  501 -0.00000000000E+00  0.00000000000E+00  0.24772034160E+04  0.24772034160E+04  0.00000000000E+00 0.  1.
          3   -1    0    0  501    0  0.00000000000E+00 -0.00000000000E+00 -0.14867679961E+02  0.14867679961E+02  0.00000000000E+00 0.  1.
         25    1    1    2    0    0  0.99679601673E+02  0.10837296752E+03  0.10534108693E+04  0.10703995435E+04  0.12000000000E+03 0.  0.
         25    1    1    2    0    0 -0.99679601673E+02 -0.10837296752E+03  0.14089248668E+04  0.14216715525E+04  0.12000000000E+03 0.  0.
<mgrwt>
<rscale>  0 0.38382427E+03</rscale>
<asrwt>0</asrwt>
<pdfrwt beam="1">  1        3 0.22873373E-02 0.38382427E+03</pdfrwt>
<pdfrwt beam="2">  1       -3 0.38110789E+00 0.38382427E+03</pdfrwt>
<totfact> 0.31714742E+01</totfact>
</mgrwt>
</event>
<event>
 4    1  0.1749575E-004  0.2625084E+03  0.7818608E-02  0.1105645E+00
         -1   -1    0    0    0  501 -0.00000000000E+00  0.00000000000E+00  0.12762205056E+02  0.12762205056E+02  0.00000000000E+00 0.  1.
          1   -1    0    0  501    0  0.00000000000E+00 -0.00000000000E+00 -0.13498974754E+04  0.13498974754E+04  0.00000000000E+00 0.  1.
         25    1    1    2    0    0  0.60956054458E+01  0.51916452855E+02 -0.71921405194E+03  0.73102758292E+03  0.12000000000E+03 0.  0.
         25    1    1    2    0    0 -0.60956054458E+01 -0.51916452855E+02 -0.61792121837E+03  0.63163209750E+03  0.12000000000E+03 0.  0.
<mgrwt>
<rscale>  0 0.26250843E+03</rscale>
<asrwt>0</asrwt>
<pdfrwt beam="1">  1        1 0.20767644E+00 0.26250843E+03</pdfrwt>
<pdfrwt beam="2">  1       -1 0.19634171E-02 0.26250843E+03</pdfrwt>
<totfact> 0.63497949E+03</totfact>
</mgrwt>
</event>
<event>
 4    1  0.1749575E-004  0.2695759E+03  0.7818608E-02  0.1101523E+00
         -1   -1    0    0    0  501 -0.00000000000E+00  0.00000000000E+00  0.46400687624E+02  0.46400687624E+02  0.00000000000E+00 0. -1.
          1   -1    0    0  501    0  0.00000000000E+00 -0.00000000000E+00 -0.39154136324E+03  0.39154136324E+03  0.00000000000E+00 0. -1.
         25    1    1    2    0    0 -0.19364990119E+02 -0.21584267100E+02 -0.84680242128E+02  0.14970513296E+03  0.12000000000E+03 0.  0.
         25    1    1    2    0    0  0.19364990119E+02  0.21584267100E+02 -0.26046043348E+03  0.28823691790E+03  0.12000000000E+03 0.  0.
<mgrwt>
<rscale>  0 0.26957588E+03</rscale>
<asrwt>0</asrwt>
<pdfrwt beam="1">  1        1 0.60237132E-01 0.26957588E+03</pdfrwt>
<pdfrwt beam="2">  1       -1 0.71385674E-02 0.26957588E+03</pdfrwt>
<totfact> 0.63431461E+03</totfact>
</mgrwt>
</event>
<event>
 4    1  0.1749575E-004  0.2948835E+03  0.7818608E-02  0.1087827E+00
         -2   -1    0    0    0  501 -0.00000000000E+00  0.00000000000E+00  0.71293831392E+02  0.71293831392E+02  0.00000000000E+00 0. -1.
          2   -1    0    0  501    0  0.00000000000E+00 -0.00000000000E+00 -0.30492214010E+03  0.30492214010E+03  0.00000000000E+00 0. -1.
         25    1    1    2    0    0  0.42480147539E+02 -0.74374632660E+02 -0.11463452130E+03  0.18675444410E+03  0.12000000000E+03 0.  0.
         25    1    1    2    0    0 -0.42480147539E+02  0.74374632660E+02 -0.11899378740E+03  0.18946152739E+03  0.12000000000E+03 0.  0.
<mgrwt>
<rscale>  0 0.29488349E+03</rscale>
<asrwt>0</asrwt>
<pdfrwt beam="1">  1        2 0.46911098E-01 0.29488349E+03</pdfrwt>
<pdfrwt beam="2">  1       -2 0.10968282E-01 0.29488349E+03</pdfrwt>
<totfact> 0.61216856E+03</totfact>
</mgrwt>
</event>
<event>
 4    1  0.1749575E-004  0.3896148E+03  0.7818608E-02  0.1047436E+00
          1   -1    0    0  501    0  0.00000000000E+00  0.00000000000E+00  0.29571528200E+04  0.29571528200E+04  0.00000000000E+00 0.  1.
         -1   -1    0    0    0  501 -0.00000000000E+00 -0.00000000000E+00 -0.12833267105E+02  0.12833267105E+02  0.00000000000E+00 0.  1.
         25    1    1    2    0    0 -0.28593195660E+02  0.14589767104E+03  0.11822667857E+04  0.11976052996E+04  0.12000000000E+03 0.  0.
         25    1    1    2    0    0  0.28593195660E+02 -0.14589767104E+03  0.17620527672E+04  0.17723807875E+04  0.12000000000E+03 0.  0.
<mgrwt>
<rscale>  0 0.38961485E+03</rscale>
<asrwt>0</asrwt>
<pdfrwt beam="1">  1        1 0.45494604E+00 0.38961485E+03</pdfrwt>
<pdfrwt beam="2">  1       -1 0.19743511E-02 0.38961485E+03</pdfrwt>
<totfact> 0.53221138E+02</totfact>
</mgrwt>
</event>
<event>
 4    1  0.1749575E-004  0.3246729E+03  0.7818608E-02  0.1073519E+00
         -3   -1    0    0    0  501 -0.00000000000E+00  0.00000000000E+00  0.33680501800E+02  0.33680501800E+02  0.00000000000E+00 0. -1.
          3   -1    0    0  501    0  0.00000000000E+00 -0.00000000000E+00 -0.78244432787E+03  0.78244432787E+03  0.00000000000E+00 0. -1.
         25    1    1    2    0    0  0.16161172853E+02 -0.10804110835E+03 -0.38535407428E+03  0.41812895997E+03  0.12000000000E+03 0.  0.
         25    1    1    2    0    0 -0.16161172853E+02  0.10804110835E+03 -0.36340975178E+03  0.39799586969E+03  0.12000000000E+03 0.  0.
<mgrwt>
<rscale>  0 0.32467287E+03</rscale>
<asrwt>0</asrwt>
<pdfrwt beam="1">  1        3 0.12037606E+00 0.32467287E+03</pdfrwt>
<pdfrwt beam="2">  1       -3 0.51816154E-02 0.32467287E+03</pdfrwt>
<totfact> 0.32521318E+02</totfact>
</mgrwt>
</event>
<event>
 4    1  0.1749575E-004  0.4483164E+03  0.7818608E-02  0.1028225E+00
         -1   -1    0    0    0  501 -0.00000000000E+00  0.00000000000E+00  0.15312643448E+03  0.15312643448E+03  0.00000000000E+00 0.  1.
          1   -1    0    0  501    0  0.00000000000E+00 -0.00000000000E+00 -0.32813998204E+03  0.32813998204E+03  0.00000000000E+00 0.  1.
         25    1    1    2    0    0 -0.86356172589E+02 -0.16284138249E+03 -0.41057690703E+02  0.22374190122E+03  0.12000000000E+03 0.  0.
         25    1    1    2    0    0  0.86356172589E+02  0.16284138249E+03 -0.13395585685E+03  0.25752451530E+03  0.12000000000E+03 0.  0.
<mgrwt>
<rscale>  0 0.44831643E+03</rscale>
<asrwt>0</asrwt>
<pdfrwt beam="1">  1        1 0.50483074E-01 0.44831643E+03</pdfrwt>
<pdfrwt beam="2">  1       -1 0.23557913E-01 0.44831643E+03</pdfrwt>
<totfact> 0.12072328E+03</totfact>
</mgrwt>
</event>
<event>
 4    1  0.1749575E-004  0.2494086E+03  0.7818608E-02  0.1113679E+00
          2   -1    0    0  501    0  0.00000000000E+00  0.00000000000E+00  0.11825751504E+04  0.11825751504E+04  0.00000000000E+00 0. -1.
         -2   -1    0    0    0  501 -0.00000000000E+00 -0.00000000000E+00 -0.13150248281E+02  0.13150248281E+02  0.00000000000E+00 0. -1.
         25    1    1    2    0    0  0.25754640863E+02 -0.15951783105E+02  0.65795555565E+03  0.66949479021E+03  0.12000000000E+03 0.  0.
         25    1    1    2    0    0 -0.25754640863E+02  0.15951783105E+02  0.51146934643E+03  0.52623060842E+03  0.12000000000E+03 0.  0.
<mgrwt>
<rscale>  0 0.24940856E+03</rscale>
<asrwt>0</asrwt>
<pdfrwt beam="1">  1        2 0.18193456E+00 0.24940856E+03</pdfrwt>
<pdfrwt beam="2">  1       -2 0.20231160E-02 0.24940856E+03</pdfrwt>
<totfact> 0.15453951E+04</totfact>
</mgrwt>
</event>
<event>
 4    1  0.1749575E-004  0.3051883E+03  0.7818608E-02  0.1082675E+00
         -2   -1    0    0    0  501 -0.00000000000E+00  0.00000000000E+00  0.17777338247E+02  0.17777338247E+02  0.00000000000E+00 0. -1.
          2   -1    0    0  501    0  0.00000000000E+00 -0.00000000000E+00 -0.13098119247E+04  0.13098119247E+04  0.00000000000E+00 0. -1.
         25    1    1    2    0    0 -0.21166283075E+01  0.22457909450E+02 -0.24789394361E+03  0.27633357576E+03  0.12000000000E+03 0.  0.
         25    1    1    2    0    0  0.21166283075E+01 -0.22457909450E+02 -0.10441406428E+04  0.10512556872E+04  0.12000000000E+03 0.  0.
<mgrwt>
<rscale>  0 0.30518827E+03</rscale>
<asrwt>0</asrwt>
<pdfrwt beam="1">  1        2 0.20150952E+00 0.30518827E+03</pdfrwt>
<pdfrwt beam="2">  1       -2 0.27349752E-02 0.30518827E+03</pdfrwt>
<totfact> 0.84414026E+03</totfact>
</mgrwt>
</event>
<event>
 4    1  0.1749575E-004  0.3388407E+03  0.7818608E-02  0.1067291E+00
         -1   -1    0    0    0  501 -0.00000000000E+00  0.00000000000E+00  0.37477432981E+02  0.37477432981E+02  0.00000000000E+00 0.  1.
          1   -1    0    0  501    0  0.00000000000E+00 -0.00000000000E+00 -0.76588119582E+03  0.76588119582E+03  0.00000000000E+00 0.  1.
         25    1    1    2    0    0  0.75270717400E+01 -0.34535918728E+02 -0.93317749414E+02  0.15606917968E+03  0.12000000000E+03 0.  0.
         25    1    1    2    0    0 -0.75270717400E+01  0.34535918728E+02 -0.63508601343E+03  0.64728944912E+03  0.12000000000E+03 0.  0.
<mgrwt>
<rscale>  0 0.33884074E+03</rscale>
<asrwt>0</asrwt>
<pdfrwt beam="1">  1        1 0.11782788E+00 0.33884074E+03</pdfrwt>
<pdfrwt beam="2">  1       -1 0.57657588E-02 0.33884074E+03</pdfrwt>
<totfact> 0.35063240E+03</totfact>
</mgrwt>
</event>
<event>
 4    1  0.1749575E-004  0.3812374E+03  0.7818608E-02  0.1050477E+00
          2   -1    0    0  501    0  0.00000000000E+00  0.00000000000E+00  0.93133888513E+03  0.93133888513E+03  0.00000000000E+00 0.  1.
         -2   -1    0    0    0  501 -0.00000000000E+00 -0.00000000000E+00 -0.39014254224E+02  0.39014254224E+02  0.00000000000E+00 0.  1.
         25    1    1    2    0    0  0.14527003278E+03  0.69478868624E+01  0.37490211629E+03  0.41964658029E+03  0.12000000000E+03 0.  0.
         25    1    1    2    0    0 -0.14527003278E+03 -0.69478868624E+01  0.51742251463E+03  0.55070655907E+03  0.12000000000E+03 0.  0.
<mgrwt>
<rscale>  0 0.38123742E+03</rscale>
<asrwt>0</asrwt>
<pdfrwt beam="1">  1        2 0.14328289E+00 0.38123742E+03</pdfrwt>
<pdfrwt beam="2">  1       -2 0.60021936E-02 0.38123742E+03</pdfrwt>
<totfact> 0.43092182E+03</totfact>
</mgrwt>
</event>
<event>
 4    1  0.1749575E-004  0.3115366E+03  0.7818608E-02  0.1079612E+00
          2   -1    0    0  501    0  0.00000000000E+00  0.00000000000E+00  0.69367590693E+03  0.69367590693E+03  0.00000000000E+00 0. -1.
         -2   -1    0    0    0  501 -0.00000000000E+00 -0.00000000000E+00 -0.34978519268E+02  0.34978519268E+02  0.00000000000E+00 0. -1.
         25    1    1    2    0    0 -0.59445593875E+02 -0.48398436811E+02  0.18165338935E+03  0.23081191733E+03  0.12000000000E+03 0.  0.
         25    1    1    2    0    0  0.59445593875E+02  0.48398436811E+02  0.47704399831E+03  0.49784250887E+03  0.12000000000E+03 0.  0.
<mgrwt>
<rscale>  0 0.31153655E+03</rscale>
<asrwt>0</asrwt>
<pdfrwt beam="1">  1        2 0.10671936E+00 0.31153655E+03</pdfrwt>
<pdfrwt beam="2">  1       -2 0.53813112E-02 0.31153655E+03</pdfrwt>
<totfact> 0.74291398E+03</totfact>
</mgrwt>
</event>
<event>
 4    1  0.1749575E-004  0.3433224E+03  0.7818608E-02  0.1065390E+00
         -1   -1    0    0    0  501 -0.00000000000E+00  0.00000000000E+00  0.49628269402E+03  0.49628269402E+03  0.00000000000E+00 0. -1.
          1   -1    0    0  501    0  0.00000000000E+00 -0.00000000000E+00 -0.59376591303E+02  0.59376591303E+02  0.00000000000E+00 0. -1.
         25    1    1    2    0    0 -0.97710278647E+01  0.16205607890E+02  0.22159946914E+02  0.12348748098E+03  0.12000000000E+03 0.  0.
         25    1    1    2    0    0  0.97710278647E+01 -0.16205607890E+02  0.41474615580E+03  0.43217180434E+03  0.12000000000E+03 0.  0.
<mgrwt>
<rscale>  0 0.34332244E+03</rscale>
<asrwt>0</asrwt>
<pdfrwt beam="1">  1        1 0.91348605E-02 0.34332244E+03</pdfrwt>
<pdfrwt beam="2">  1       -1 0.76351181E-01 0.34332244E+03</pdfrwt>
<totfact> 0.13076132E+03</totfact>
</mgrwt>
</event>
<event>
 4    1  0.1749575E-004  0.3309590E+03  0.7818608E-02  0.1070713E+00
          1   -1    0    0  501    0  0.00000000000E+00  0.00000000000E+00  0.79255014206E+03  0.79255014206E+03  0.00000000000E+00 0. -1.
         -1   -1    0    0    0  501 -0.00000000000E+00 -0.00000000000E+00 -0.34551085176E+02  0.34551085176E+02  0.00000000000E+00 0. -1.
         25    1    1    2    0    0  0.10975754561E+03  0.29652730785E+02  0.39794402825E+03  0.43091234941E+03  0.12000000000E+03 0.  0.
         25    1    1    2    0    0 -0.10975754561E+03 -0.29652730785E+02  0.36005502864E+03  0.39618887783E+03  0.12000000000E+03 0.  0.
<mgrwt>
<rscale>  0 0.33095902E+03</rscale>
<asrwt>0</asrwt>
<pdfrwt beam="1">  1        1 0.12193078E+00 0.33095902E+03</pdfrwt>
<pdfrwt beam="2">  1       -1 0.53155522E-02 0.33095902E+03</pdfrwt>
<totfact> 0.37610721E+03</totfact>
</mgrwt>
</event>
<event>
 4    1  0.1749575E-004  0.2707374E+03  0.7818608E-02  0.1100858E+00
         -1   -1    0    0    0  501 -0.00000000000E+00  0.00000000000E+00  0.25188920400E+03  0.25188920400E+03  0.00000000000E+00 0.  1.
          1   -1    0    0  501    0  0.00000000000E+00 -0.00000000000E+00 -0.72748974526E+02  0.72748974526E+02  0.00000000000E+00 0.  1.
         25    1    1    2    0    0 -0.60116168695E+02 -0.17577958915E+02  0.87987087088E+02  0.16144555080E+03  0.12000000000E+03 0.  0.
         25    1    1    2    0    0  0.60116168695E+02  0.17577958915E+02  0.91153142388E+02  0.16319262773E+03  0.12000000000E+03 0.  0.
<mgrwt>
<rscale>  0 0.27073737E+03</rscale>
<asrwt>0</asrwt>
<pdfrwt beam="1">  1        1 0.11192150E-01 0.27073737E+03</pdfrwt>
<pdfrwt beam="2">  1       -1 0.38752185E-01 0.27073737E+03</pdfrwt>
<totfact> 0.35804325E+03</totfact>
</mgrwt>
</event>
<event>
 4    1  0.1749575E-004  0.2728959E+03  0.7818608E-02  0.1099634E+00
         -2   -1    0    0    0  501 -0.00000000000E+00  0.00000000000E+00  0.61992525889E+03  0.61992525889E+03  0.00000000000E+00 0. -1.
          2   -1    0    0  501    0  0.00000000000E+00 -0.00000000000E+00 -0.30032732469E+02  0.30032732469E+02  0.00000000000E+00 0. -1.
         25    1    1    2    0    0  0.54878436877E+02 -0.92115765301E+01  0.37470865988E+03  0.39737019990E+03  0.12000000000E+03 0.  0.
         25    1    1    2    0    0 -0.54878436877E+02  0.92115765301E+01  0.21518386654E+03  0.25258779146E+03  0.12000000000E+03 0.  0.
<mgrwt>
<rscale>  0 0.27289595E+03</rscale>
<asrwt>0</asrwt>
<pdfrwt beam="1">  1        2 0.46204208E-02 0.27289595E+03</pdfrwt>
<pdfrwt beam="2">  1       -2 0.95373107E-01 0.27289595E+03</pdfrwt>
<totfact> 0.16695945E+03</totfact>
</mgrwt>
</event>
<event>
 4    1  0.1749575E-004  0.2430603E+03  0.7818608E-02  0.1117771E+00
         -2   -1    0    0    0  501 -0.00000000000E+00  0.00000000000E+00  0.25632678652E+02  0.25632678652E+02  0.00000000000E+00 0. -1.
          2   -1    0    0  501    0  0.00000000000E+00 -0.00000000000E+00 -0.57620112038E+03  0.57620112038E+03  0.00000000000E+00 0. -1.
         25    1    1    2    0    0 -0.60644620569E+01 -0.16187969587E+02 -0.25445725251E+03  0.28186401227E+03  0.12000000000E+03 0.  0.
         25    1    1    2    0    0  0.60644620569E+01  0.16187969587E+02 -0.29611118922E+03  0.31996978677E+03  0.12000000000E+03 0.  0.
<mgrwt>
<rscale>  0 0.24306031E+03</rscale>
<asrwt>0</asrwt>
<pdfrwt beam="1">  1        2 0.88646317E-01 0.24306031E+03</pdfrwt>
<pdfrwt beam="2">  1       -2 0.39434894E-02 0.24306031E+03</pdfrwt>
<totfact> 0.14667752E+04</totfact>
</mgrwt>
</event>
<event>
 4    1  0.1749575E-004  0.3173639E+03  0.7818608E-02  0.1076869E+00
          2   -1    0    0  501    0  0.00000000000E+00  0.00000000000E+00  0.10351419988E+04  0.10351419988E+04  0.00000000000E+00 0.  1.
         -2   -1    0    0    0  501 -0.00000000000E+00 -0.00000000000E+00 -0.24325132214E+02  0.24325132214E+02  0.00000000000E+00 0.  1.
         25    1    1    2    0    0 -0.33194205892E+00 -0.10353509717E+03  0.47947675687E+03  0.50499266025E+03  0.12000000000E+03 0.  0.
         25    1    1    2    0    0  0.33194205892E+00  0.10353509717E+03  0.53134010975E+03  0.55447447079E+03  0.12000000000E+03 0.  0.
<mgrwt>
<rscale>  0 0.31736393E+03</rscale>
<asrwt>0</asrwt>
<pdfrwt beam="1">  1        2 0.15925258E+00 0.31736393E+03</pdfrwt>
<pdfrwt beam="2">  1       -2 0.37423289E-02 0.31736393E+03</pdfrwt>
<totfact> 0.76122685E+03</totfact>
</mgrwt>
</event>
<event>
 4    1  0.1749575E-004  0.2499877E+03  0.7818608E-02  0.1113313E+00
         -1   -1    0    0    0  501 -0.00000000000E+00  0.00000000000E+00  0.85667902919E+01  0.85667902919E+01  0.00000000000E+00 0.  1.
          1   -1    0    0  501    0  0.00000000000E+00 -0.00000000000E+00 -0.18237242704E+04  0.18237242704E+04  0.00000000000E+00 0.  1.
         25    1    1    2    0    0 -0.20200126082E+02 -0.28459219654E+02 -0.89040339843E+03  0.89913079371E+03  0.12000000000E+03 0.  0.
         25    1    1    2    0    0  0.20200126082E+02  0.28459219654E+02 -0.92475408164E+03  0.93316026693E+03  0.12000000000E+03 0.  0.
<mgrwt>
<rscale>  0 0.24998771E+03</rscale>
<asrwt>0</asrwt>
<pdfrwt beam="1">  1        1 0.28057305E+00 0.24998771E+03</pdfrwt>
<pdfrwt beam="2">  1       -1 0.13179673E-02 0.24998771E+03</pdfrwt>
<totfact> 0.55272311E+03</totfact>
</mgrwt>
</event>
<event>
 4    1  0.1749575E-004  0.2409662E+03  0.7818608E-02  0.1119151E+00
         -3   -1    0    0    0  501 -0.00000000000E+00  0.00000000000E+00  0.52605294405E+02  0.52605294405E+02  0.00000000000E+00 0.  1.
          3   -1    0    0  501    0  0.00000000000E+00 -0.00000000000E+00 -0.27594514998E+03  0.27594514998E+03  0.00000000000E+00 0.  1.
         25    1    1    2    0    0 -0.59122679433E+01  0.77139632997E+01 -0.11802371981E+03  0.16859436105E+03  0.12000000000E+03 0.  0.
         25    1    1    2    0    0  0.59122679433E+01 -0.77139632997E+01 -0.10531613577E+03  0.15995608334E+03  0.12000000000E+03 0.  0.
<mgrwt>
<rscale>  0 0.24096619E+03</rscale>
<asrwt>0</asrwt>
<pdfrwt beam="1">  1        3 0.42453100E-01 0.24096619E+03</pdfrwt>
<pdfrwt beam="2">  1       -3 0.80931223E-02 0.24096619E+03</pdfrwt>
<totfact> 0.14509431E+03</totfact>
</mgrwt>
</event>
<event>
 4    1  0.1749575E-004  0.3285934E+03  0.7818608E-02  0.1071761E+00
          1   -1    0    0  501    0  0.00000000000E+00  0.00000000000E+00  0.46748124507E+03  0.46748124507E+03  0.00000000000E+00 0. -1.
         -1   -1    0    0    0  501 -0.00000000000E+00 -0.00000000000E+00 -0.57742228903E+02  0.57742228903E+02  0.00000000000E+00 0. -1.
         25    1    1    2    0    0  0.33859809321E+02  0.79091537681E+02  0.32003693014E+03  0.35245651458E+03  0.12000000000E+03 0.  0.
         25    1    1    2    0    0 -0.33859809321E+02 -0.79091537681E+02  0.89702086034E+02  0.17276695940E+03  0.12000000000E+03 0.  0.
<mgrwt>
<rscale>  0 0.32859342E+03</rscale>
<asrwt>0</asrwt>
<pdfrwt beam="1">  1        1 0.71920189E-01 0.32859342E+03</pdfrwt>
<pdfrwt beam="2">  1       -1 0.88834201E-02 0.32859342E+03</pdfrwt>
<totfact> 0.36237745E+03</totfact>
</mgrwt>
</event>
<event>
 4    1  0.1749575E-004  0.2971526E+03  0.7818608E-02  0.1086673E+00
         -1   -1    0    0    0  501 -0.00000000000E+00  0.00000000000E+00  0.38286197015E+03  0.38286197015E+03  0.00000000000E+00 0. -1.
          1   -1    0    0  501    0  0.00000000000E+00 -0.00000000000E+00 -0.57657644130E+02  0.57657644130E+02  0.00000000000E+00 0. -1.
         25    1    1    2    0    0  0.27318660359E+02  0.72387709314E+02  0.22352118004E+03  0.26523198825E+03  0.12000000000E+03 0.  0.
         25    1    1    2    0    0 -0.27318660359E+02 -0.72387709314E+02  0.10168314598E+03  0.17528762603E+03  0.12000000000E+03 0.  0.
<mgrwt>
<rscale>  0 0.29715262E+03</rscale>
<asrwt>0</asrwt>
<pdfrwt beam="1">  1        1 0.88704070E-02 0.29715262E+03</pdfrwt>
<pdfrwt beam="2">  1       -1 0.58901840E-01 0.29715262E+03</pdfrwt>
<totfact> 0.22737682E+03</totfact>
</mgrwt>
</event>
<event>
 4    1  0.1749575E-004  0.2505577E+03  0.7818608E-02  0.1112953E+00
         -2   -1    0    0    0  501 -0.00000000000E+00  0.00000000000E+00  0.10364267420E+03  0.10364267420E+03  0.00000000000E+00 0.  1.
          2   -1    0    0  501    0  0.00000000000E+00 -0.00000000000E+00 -0.15143177730E+03  0.15143177730E+03  0.00000000000E+00 0.  1.
         25    1    1    2    0    0 -0.15758543144E+02 -0.16975280351E+02  0.41391473572E+01  0.12228501284E+03  0.12000000000E+03 0.  0.
         25    1    1    2    0    0  0.15758543144E+02  0.16975280351E+02 -0.51928250459E+02  0.13278943866E+03  0.12000000000E+03 0.  0.
<mgrwt>
<rscale>  0 0.25055773E+03</rscale>
<asrwt>0</asrwt>
<pdfrwt beam="1">  1        2 0.23297196E-01 0.25055773E+03</pdfrwt>
<pdfrwt beam="2">  1       -2 0.15945027E-01 0.25055773E+03</pdfrwt>
<totfact> 0.71042074E+03</totfact>
</mgrwt>
</event>
<event>
 4    1  0.1749575E-004  0.2548521E+03  0.7818608E-02  0.1110276E+00
         -1   -1    0    0    0  501 -0.00000000000E+00  0.00000000000E+00  0.58899724182E+02  0.58899724182E+02  0.00000000000E+00 0.  1.
          1   -1    0    0  501    0  0.00000000000E+00 -0.00000000000E+00 -0.27567857653E+03  0.27567857653E+03  0.00000000000E+00 0.  1.
         25    1    1    2    0    0 -0.18057485915E+02 -0.38268089656E+02 -0.99401296512E+02  0.16146559148E+03  0.12000000000E+03 0.  0.
         25    1    1    2    0    0  0.18057485915E+02  0.38268089656E+02 -0.11737755583E+03  0.17311270923E+03  0.12000000000E+03 0.  0.
<mgrwt>
<rscale>  0 0.25485205E+03</rscale>
<asrwt>0</asrwt>
<pdfrwt beam="1">  1        1 0.42412087E-01 0.25485205E+03</pdfrwt>
<pdfrwt beam="2">  1       -1 0.90614963E-02 0.25485205E+03</pdfrwt>
<totfact> 0.68504157E+03</totfact>
</mgrwt>
</event>
<event>
 4    1  0.1749575E-004  0.3216128E+03  0.7818608E-02  0.1074909E+00
         -2   -1    0    0    0  501 -0.00000000000E+00  0.00000000000E+00  0.28464268522E+02  0.28464268522E+02  0.00000000000E+00 0.  1.
          2   -1    0    0  501    0  0.00000000000E+00 -0.00000000000E+00 -0.90846185049E+03  0.90846185049E+03  0.00000000000E+00 0.  1.
         25    1    1    2    0    0  0.28258290998E+02  0.93623927840E+02 -0.31319104286E+03  0.34936027279E+03  0.12000000000E+03 0.  0.
         25    1    1    2    0    0 -0.28258290998E+02 -0.93623927840E+02 -0.56680653910E+03  0.58756584622E+03  0.12000000000E+03 0.  0.
<mgrwt>
<rscale>  0 0.32161282E+03</rscale>
<asrwt>0</asrwt>
<pdfrwt beam="1">  1        2 0.13976338E+00 0.32161282E+03</pdfrwt>
<pdfrwt beam="2">  1       -2 0.43791178E-02 0.32161282E+03</pdfrwt>
<totfact> 0.72069502E+03</totfact>
</mgrwt>
</event>
<event>
 4    1  0.1749575E-004  0.3355816E+03  0.7818608E-02  0.1068694E+00
         -2   -1    0    0    0  501 -0.00000000000E+00  0.00000000000E+00  0.24218856866E+02  0.24218856866E+02  0.00000000000E+00 0.  1.
          2   -1    0    0  501    0  0.00000000000E+00 -0.00000000000E+00 -0.11624721542E+04  0.11624721542E+04  0.00000000000E+00 0.  1.
         25    1    1    2    0    0 -0.74181557724E+02 -0.77254951921E+02 -0.40018122369E+03  0.43129600381E+03  0.12000000000E+03 0.  0.
         25    1    1    2    0    0  0.74181557724E+02  0.77254951921E+02 -0.73807207359E+03  0.75539500721E+03  0.12000000000E+03 0.  0.
<mgrwt>
<rscale>  0 0.33558157E+03</rscale>
<asrwt>0</asrwt>
<pdfrwt beam="1">  1        2 0.17884186E+00 0.33558157E+03</pdfrwt>
<pdfrwt beam="2">  1       -2 0.37259782E-02 0.33558157E+03</pdfrwt>
<totfact> 0.64472191E+03</totfact>
</mgrwt>
</event>
<event>
 4    1  0.1749575E-004  0.2533373E+03  0.7818608E-02  0.1111214E+00
          2   -1    0    0  501    0  0.00000000000E+00  0.00000000000E+00  0.86342852351E+03  0.86342852351E+03  0.00000000000E+00 0.  1.
         -2   -1    0    0    0  501 -0.00000000000E+00 -0.00000000000E+00 -0.18582825858E+02  0.18582825858E+02  0.00000000000E+00 0.  1.
         25    1    1    2    0    0 -0.21490147053E+02  0.34055840333E+02  0.43923389669E+03  0.45710834895E+03  0.12000000000E+03 0.  0.
         25    1    1    2    0    0  0.21490147053E+02 -0.34055840333E+02  0.40561180096E+03  0.42490300041E+03  0.12000000000E+03 0.  0.
<mgrwt>
<rscale>  0 0.25333726E+03</rscale>
<asrwt>0</asrwt>
<pdfrwt beam="1">  1        2 0.13283513E+00 0.25333726E+03</pdfrwt>
<pdfrwt beam="2">  1       -2 0.28588970E-02 0.25333726E+03</pdfrwt>
<totfact> 0.14506982E+04</totfact>
</mgrwt>
</event>
<event>
 4    1  0.1749575E-004  0.3920362E+03  0.7818608E-02  0.1046573E+00
         -2   -1    0    0    0  501 -0.00000000000E+00  0.00000000000E+00  0.11483900797E+02  0.11483900797E+02  0.00000000000E+00 0.  1.
          2   -1    0    0  501    0  0.00000000000E+00 -0.00000000000E+00 -0.33458224558E+04  0.33458224558E+04  0.00000000000E+00 0.  1.
         25    1    1    2    0    0 -0.36960080097E+02  0.12326122672E+03 -0.92732152746E+03  0.94386683003E+03  0.12000000000E+03 0.  0.
         25    1    1    2    0    0  0.36960080097E+02 -0.12326122672E+03 -0.24070170275E+04  0.24134395265E+04  0.12000000000E+03 0.  0.
<mgrwt>
<rscale>  0 0.39203619E+03</rscale>
<asrwt>0</asrwt>
<pdfrwt beam="1">  1        2 0.51474293E+00 0.39203619E+03</pdfrwt>
<pdfrwt beam="2">  1       -2 0.17667505E-02 0.39203619E+03</pdfrwt>
<totfact> 0.11626593E+03</totfact>
</mgrwt>
</event>
<event>
 4    1  0.1749575E-004  0.3921718E+03  0.7818608E-02  0.1046525E+00
          1   -1    0    0  501    0  0.00000000000E+00  0.00000000000E+00  0.16397712242E+04  0.16397712242E+04  0.00000000000E+00 0.  1.
         -1   -1    0    0    0  501 -0.00000000000E+00 -0.00000000000E+00 -0.23448192560E+02  0.23448192560E+02  0.00000000000E+00 0.  1.
         25    1    1    2    0    0 -0.60032143012E+02 -0.80310654580E+02  0.13098976591E+04  0.13191988238E+04  0.12000000000E+03 0.  0.
         25    1    1    2    0    0  0.60032143012E+02  0.80310654580E+02  0.30642537252E+03  0.34402059293E+03  0.12000000000E+03 0.  0.
<mgrwt>
<rscale>  0 0.39217176E+03</rscale>
<asrwt>0</asrwt>
<pdfrwt beam="1">  1        1 0.25227241E+00 0.39217176E+03</pdfrwt>
<pdfrwt beam="2">  1       -1 0.36074155E-02 0.39217176E+03</pdfrwt>
<totfact> 0.16534517E+03</totfact>
</mgrwt>
</event>
<event>
 4    1  0.1749575E-004  0.3096297E+03  0.7818608E-02  0.1080523E+00
         -1   -1    0    0    0  501 -0.00000000000E+00  0.00000000000E+00  0.13875893126E+03  0.13875893126E+03  0.00000000000E+00 0. -1.
          1   -1    0    0  501    0  0.00000000000E+00 -0.00000000000E+00 -0.17272865738E+03  0.17272865738E+03  0.00000000000E+00 0. -1.
         25    1    1    2    0    0 -0.64124105388E+02  0.57405858153E+02 -0.63742888513E+02  0.16084305791E+03  0.12000000000E+03 0.  0.
         25    1    1    2    0    0  0.64124105388E+02 -0.57405858153E+02  0.29773162393E+02  0.15064453074E+03  0.12000000000E+03 0.  0.
<mgrwt>
<rscale>  0 0.30962974E+03</rscale>
<asrwt>0</asrwt>
<pdfrwt beam="1">  1        1 0.26573639E-01 0.30962974E+03</pdfrwt>
<pdfrwt beam="2">  1       -1 0.21347528E-01 0.30962974E+03</pdfrwt>
<totfact> 0.32017866E+03</totfact>
</mgrwt>
</event>
<event>
 4    1  0.1749575E-004  0.2619626E+03  0.7818608E-02  0.1105970E+00
         -1   -1    0    0    0  501 -0.00000000000E+00  0.00000000000E+00  0.15408979321E+03  0.15408979321E+03  0.00000000000E+00 0.  1.
          1   -1    0    0  501    0  0.00000000000E+00 -0.00000000000E+00 -0.11133836550E+03  0.11133836550E+03  0.00000000000E+00 0.  1.
         25    1    1    2    0    0  0.23359419603E+02 -0.93845606426E+01  0.68054389289E+02  0.14023242266E+03  0.12000000000E+03 0.  0.
         25    1    1    2    0    0 -0.23359419603E+02  0.93845606426E+01 -0.25302961577E+02  0.12519573606E+03  0.12000000000E+03 0.  0.
<mgrwt>
<rscale>  0 0.26196264E+03</rscale>
<asrwt>0</asrwt>
<pdfrwt beam="1">  1        1 0.17128979E-01 0.26196264E+03</pdfrwt>
<pdfrwt beam="2">  1       -1 0.23706122E-01 0.26196264E+03</pdfrwt>
<totfact> 0.47174133E+03</totfact>
</mgrwt>
</event>
<event>
 4    1  0.1749575E-004  0.3774089E+03  0.7818608E-02  0.1051896E+00
          2   -1    0    0  501    0  0.00000000000E+00  0.00000000000E+00  0.44123733421E+02  0.44123733421E+02  0.00000000000E+00 0.  1.
         -2   -1    0    0    0  501 -0.00000000000E+00 -0.00000000000E+00 -0.80703453418E+03  0.80703453418E+03  0.00000000000E+00 0.  1.
         25    1    1    2    0    0  0.11500445634E+03 -0.64347597661E+02 -0.52125906244E+03  0.55088805440E+03  0.12000000000E+03 0.  0.
         25    1    1    2    0    0 -0.11500445634E+03  0.64347597661E+02 -0.24165173831E+03  0.30027021320E+03  0.12000000000E+03 0.  0.
<mgrwt>
<rscale>  0 0.37740894E+03</rscale>
<asrwt>0</asrwt>
<pdfrwt beam="1">  1        2 0.67882671E-02 0.37740894E+03</pdfrwt>
<pdfrwt beam="2">  1       -2 0.12415915E+00 0.37740894E+03</pdfrwt>
<totfact> 0.53984123E+02</totfact>
</mgrwt>
</event>
<event>
 4    1  0.1749575E-004  0.3142060E+03  0.7818608E-02  0.1078347E+00
          1   -1    0    0  501    0  0.00000000000E+00  0.00000000000E+00  0.16109048954E+03  0.16109048954E+03  0.00000000000E+00 0.  1.
         -1   -1    0    0    0  501 -0.00000000000E+00 -0.00000000000E+00 -0.15321419940E+03  0.15321419940E+03  0.00000000000E+00 0.  1.
         25    1    1    2    0    0  0.89364192292E+02 -0.40249212728E+02  0.29934621591E+02  0.15780380084E+03  0.12000000000E+03 0.  0.
         25    1    1    2    0    0 -0.89364192292E+02  0.40249212728E+02 -0.22058331447E+02  0.15650088810E+03  0.12000000000E+03 0.  0.
<mgrwt>
<rscale>  0 0.31420599E+03</rscale>
<asrwt>0</asrwt>
<pdfrwt beam="1">  1        1 0.24783152E-01 0.31420599E+03</pdfrwt>
<pdfrwt beam="2">  1       -1 0.23571415E-01 0.31420599E+03</pdfrwt>
<totfact> 0.29729325E+03</totfact>
</mgrwt>
</event>
<event>
 4    1  0.1749575E-004  0.2875511E+03  0.7818608E-02  0.1091635E+00
          1   -1    0    0  501    0  0.00000000000E+00  0.00000000000E+00  0.12238755220E+02  0.12238755220E+02  0.00000000000E+00 0.  1.
         -1   -1    0    0    0  501 -0.00000000000E+00 -0.00000000000E+00 -0.16890124071E+04  0.16890124071E+04  0.00000000000E+00 0.  1.
         25    1    1    2    0    0  0.59667703648E+02 -0.41988868005E+02 -0.10205592548E+04  0.10301769228E+04  0.12000000000E+03 0.  0.
         25    1    1    2    0    0 -0.59667703648E+02  0.41988868005E+02 -0.65621439713E+03  0.67107423948E+03  0.12000000000E+03 0.  0.
<mgrwt>
<rscale>  0 0.28755110E+03</rscale>
<asrwt>0</asrwt>
<pdfrwt beam="1">  1        1 0.18828858E-02 0.28755110E+03</pdfrwt>
<pdfrwt beam="2">  1       -1 0.25984802E+00 0.28755110E+03</pdfrwt>
<totfact> 0.45332243E+02</totfact>
</mgrwt>
</event>
<event>
 4    1  0.1749575E-004  0.3012201E+03  0.7818608E-02  0.1084632E+00
          1   -1    0    0  501    0  0.00000000000E+00  0.00000000000E+00  0.10296406688E+04  0.10296406688E+04  0.00000000000E+00 0. -1.
         -1   -1    0    0    0  501 -0.00000000000E+00 -0.00000000000E+00 -0.22030385335E+02  0.22030385335E+02  0.00000000000E+00 0. -1.
         25    1    1    2    0    0 -0.81366077802E+02  0.39473187354E+02  0.46806169158E+03  0.49158958315E+03  0.12000000000E+03 0.  0.
         25    1    1    2    0    0  0.81366077802E+02 -0.39473187354E+02  0.53954859190E+03  0.56008147100E+03  0.12000000000E+03 0.  0.
<mgrwt>
<rscale>  0 0.30122006E+03</rscale>
<asrwt>0</asrwt>
<pdfrwt beam="1">  1        1 0.15840622E+00 0.30122006E+03</pdfrwt>
<pdfrwt beam="2">  1       -1 0.33892908E-02 0.30122006E+03</pdfrwt>
<totfact> 0.47902600E+03</totfact>
</mgrwt>
</event>
<event>
 4    1  0.1749575E-004  0.2874329E+03  0.7818608E-02  0.1091697E+00
         -2   -1    0    0    0  501 -0.00000000000E+00  0.00000000000E+00  0.29207850431E+03  0.29207850431E+03  0.00000000000E+00 0.  1.
          2   -1    0    0  501    0  0.00000000000E+00 -0.00000000000E+00 -0.70715275877E+02  0.70715275877E+02  0.00000000000E+00 0.  1.
         25    1    1    2    0    0 -0.27806247419E+02  0.49532811277E+02  0.41230111264E+02  0.13902017430E+03  0.12000000000E+03 0.  0.
         25    1    1    2    0    0  0.27806247419E+02 -0.49532811277E+02  0.18013311717E+03  0.22377360588E+03  0.12000000000E+03 0.  0.
<mgrwt>
<rscale>  0 0.28743286E+03</rscale>
<asrwt>0</asrwt>
<pdfrwt beam="1">  1        2 0.10879273E-01 0.28743286E+03</pdfrwt>
<pdfrwt beam="2">  1       -2 0.44935154E-01 0.28743286E+03</pdfrwt>
<totfact> 0.27349851E+03</totfact>
</mgrwt>
</event>
<event>
 4    1  0.1749575E-004  0.2941170E+03  0.7818608E-02  0.1088219E+00
         -1   -1    0    0    0  501 -0.00000000000E+00  0.00000000000E+00  0.16007675711E+02  0.16007675711E+02  0.00000000000E+00 0.  1.
          1   -1    0    0  501    0  0.00000000000E+00 -0.00000000000E+00 -0.13509893925E+04  0.13509893925E+04  0.00000000000E+00 0.  1.
         25    1    1    2    0    0  0.57752689310E+02 -0.57797077925E+02 -0.55845809996E+03  0.57701934522E+03  0.12000000000E+03 0.  0.
         25    1    1    2    0    0 -0.57752689310E+02  0.57797077925E+02 -0.77652361681E+03  0.78997772298E+03  0.12000000000E+03 0.  0.
<mgrwt>
<rscale>  0 0.29411698E+03</rscale>
<asrwt>0</asrwt>
<pdfrwt beam="1">  1        1 0.20784451E+00 0.29411698E+03</pdfrwt>
<pdfrwt beam="2">  1       -1 0.24627195E-02 0.29411698E+03</pdfrwt>
<totfact> 0.45537226E+03</totfact>
</mgrwt>
</event>
<event>
 4    1  0.1749575E-004  0.3565926E+03  0.7818608E-02  0.1059941E+00
          4   -1    0    0  501    0  0.00000000000E+00  0.00000000000E+00  0.62671429054E+02  0.62671429054E+02  0.00000000000E+00 0.  1.
         -4   -1    0    0    0  501 -0.00000000000E+00 -0.00000000000E+00 -0.50724177267E+03  0.50724177267E+03  0.00000000000E+00 0.  1.
         25    1    1    2    0    0 -0.29449297184E+02  0.12721944722E+03 -0.25164711752E+03  0.30786087866E+03  0.12000000000E+03 0.  0.
         25    1    1    2    0    0  0.29449297184E+02 -0.12721944722E+03 -0.19292322610E+03  0.26205232307E+03  0.12000000000E+03 0.  0.
<mgrwt>
<rscale>  0 0.35659258E+03</rscale>
<asrwt>0</asrwt>
<pdfrwt beam="1">  1        4 0.96417583E-02 0.35659258E+03</pdfrwt>
<pdfrwt beam="2">  1       -4 0.78037196E-01 0.35659258E+03</pdfrwt>
<totfact> 0.23290708E+02</totfact>
</mgrwt>
</event>
<event>
 4    1  0.1749575E-004  0.3047108E+03  0.7818608E-02  0.1082909E+00
          2   -1    0    0  501    0  0.00000000000E+00  0.00000000000E+00  0.90276660070E+03  0.90276660070E+03  0.00000000000E+00 0.  1.
         -2   -1    0    0    0  501 -0.00000000000E+00 -0.00000000000E+00 -0.25712256819E+02  0.25712256819E+02  0.00000000000E+00 0.  1.
         25    1    1    2    0    0  0.30832347840E+02 -0.32327341698E+02  0.18695410891E+03  0.22659993277E+03  0.12000000000E+03 0.  0.
         25    1    1    2    0    0 -0.30832347840E+02  0.32327341698E+02  0.69010023498E+03  0.70187892475E+03  0.12000000000E+03 0.  0.
<mgrwt>
<rscale>  0 0.30471079E+03</rscale>
<asrwt>0</asrwt>
<pdfrwt beam="1">  1        2 0.13888714E+00 0.30471079E+03</pdfrwt>
<pdfrwt beam="2">  1       -2 0.39557325E-02 0.30471079E+03</pdfrwt>
<totfact> 0.84658150E+03</totfact>
</mgrwt>
</event>
<event>
 4    1  0.1749575E-004  0.3194028E+03  0.7818608E-02  0.1075924E+00
         -1   -1    0    0    0  501 -0.00000000000E+00  0.00000000000E+00  0.11359793279E+04  0.11359793279E+04  0.00000000000E+00 0.  1.
          1   -1    0    0  501    0  0.00000000000E+00 -0.00000000000E+00 -0.22451587301E+02  0.22451587301E+02  0.00000000000E+00 0.  1.
         25    1    1    2    0    0  0.57765564041E+02 -0.30979182469E+02  0.25750971736E+03  0.29156101363E+03  0.12000000000E+03 0.  0.
         25    1    1    2    0    0 -0.57765564041E+02  0.30979182469E+02  0.85601802326E+03  0.86686990158E+03  0.12000000000E+03 0.  0.
<mgrwt>
<rscale>  0 0.31940281E+03</rscale>
<asrwt>0</asrwt>
<pdfrwt beam="1">  1        1 0.34540912E-02 0.31940281E+03</pdfrwt>
<pdfrwt beam="2">  1       -1 0.17476601E+00 0.31940281E+03</pdfrwt>
<totfact> 0.69646895E+02</totfact>
</mgrwt>
</event>
<event>
 4    1  0.1749575E-004  0.2518372E+03  0.7818608E-02  0.1112149E+00
         -1   -1    0    0    0  501 -0.00000000000E+00  0.00000000000E+00  0.13991598622E+03  0.13991598622E+03  0.00000000000E+00 0.  1.
          1   -1    0    0  501    0  0.00000000000E+00 -0.00000000000E+00 -0.11332152263E+03  0.11332152263E+03  0.00000000000E+00 0.  1.
         25    1    1    2    0    0  0.16525312277E+02  0.31820494387E+02  0.26402843430E+02  0.12799507784E+03  0.12000000000E+03 0.  0.
         25    1    1    2    0    0 -0.16525312277E+02 -0.31820494387E+02  0.19162015310E+00  0.12524243102E+03  0.12000000000E+03 0.  0.
<mgrwt>
<rscale>  0 0.25183719E+03</rscale>
<asrwt>0</asrwt>
<pdfrwt beam="1">  1        1 0.17434080E-01 0.25183719E+03</pdfrwt>
<pdfrwt beam="2">  1       -1 0.21525536E-01 0.25183719E+03</pdfrwt>
<totfact> 0.53950356E+03</totfact>
</mgrwt>
</event>
<event>
 4    1  0.1749575E-004  0.5499638E+03  0.7818608E-02  0.1001502E+00
          1   -1    0    0  501    0  0.00000000000E+00  0.00000000000E+00  0.32212833456E+04  0.32212833456E+04  0.00000000000E+00 0. -1.
         -1   -1    0    0    0  501 -0.00000000000E+00 -0.00000000000E+00 -0.23473575501E+02  0.23473575501E+02  0.00000000000E+00 0. -1.
         25    1    1    2    0    0 -0.17567843983E+03  0.91871176042E+02  0.24722526592E+04  0.24830900987E+04  0.12000000000E+03 0.  0.
         25    1    1    2    0    0  0.17567843983E+03 -0.91871176042E+02  0.72555711087E+03  0.76166682239E+03  0.12000000000E+03 0.  0.
<mgrwt>
<rscale>  0 0.54996377E+03</rscale>
<asrwt>0</asrwt>
<pdfrwt beam="1">  1        1 0.49558170E+00 0.54996377E+03</pdfrwt>
<pdfrwt beam="2">  1       -1 0.36113219E-02 0.54996377E+03</pdfrwt>
<totfact> 0.13654501E+02</totfact>
</mgrwt>
</event>
<event>
 4    1  0.1749575E-004  0.2692930E+03  0.7818608E-02  0.1101685E+00
          1   -1    0    0  501    0  0.00000000000E+00  0.00000000000E+00  0.29273735692E+03  0.29273735692E+03  0.00000000000E+00 0.  1.
         -1   -1    0    0    0  501 -0.00000000000E+00 -0.00000000000E+00 -0.61931546602E+02  0.61931546602E+02  0.00000000000E+00 0.  1.
         25    1    1    2    0    0 -0.39380092320E+02 -0.23021930298E+02  0.61922816301E+02  0.14253152677E+03  0.12000000000E+03 0.  0.
         25    1    1    2    0    0  0.39380092320E+02  0.23021930298E+02  0.16888299401E+03  0.21213737675E+03  0.12000000000E+03 0.  0.
<mgrwt>
<rscale>  0 0.26929298E+03</rscale>
<asrwt>0</asrwt>
<pdfrwt beam="1">  1        1 0.45036516E-01 0.26929298E+03</pdfrwt>
<pdfrwt beam="2">  1       -1 0.95279304E-02 0.26929298E+03</pdfrwt>
<totfact> 0.58934332E+03</totfact>
</mgrwt>
</event>
<event>
 4    1  0.1749575E-004  0.2515298E+03  0.7818608E-02  0.1112342E+00
         -2   -1    0    0    0  501 -0.00000000000E+00  0.00000000000E+00  0.24751669592E+02  0.24751669592E+02  0.00000000000E+00 0. -1.
          2   -1    0    0  501    0  0.00000000000E+00 -0.00000000000E+00 -0.63901974120E+03  0.63901974120E+03  0.00000000000E+00 0. -1.
         25    1    1    2    0    0  0.19129494017E+02 -0.25911982736E+01 -0.39240700105E+03  0.41079910701E+03  0.12000000000E+03 0.  0.
         25    1    1    2    0    0 -0.19129494017E+02  0.25911982736E+01 -0.22186107056E+03  0.25297230378E+03  0.12000000000E+03 0.  0.
<mgrwt>
<rscale>  0 0.25152976E+03</rscale>
<asrwt>0</asrwt>
<pdfrwt beam="1">  1        2 0.98310722E-01 0.25152976E+03</pdfrwt>
<pdfrwt beam="2">  1       -2 0.38079495E-02 0.25152976E+03</pdfrwt>
<totfact> 0.13729134E+04</totfact>
</mgrwt>
</event>
<event>
 4    1  0.1749575E-004  0.3882004E+03  0.7818608E-02  0.1047944E+00
         -2   -1    0    0    0  501 -0.00000000000E+00  0.00000000000E+00  0.47908615990E+02  0.47908615990E+02  0.00000000000E+00 0. -1.
          2   -1    0    0  501    0  0.00000000000E+00 -0.00000000000E+00 -0.78639076653E+03  0.78639076653E+03  0.00000000000E+00 0. -1.
         25    1    1    2    0    0  0.14996818854E+03  0.10838982957E+01 -0.42938878829E+03  0.47038958738E+03  0.12000000000E+03 0.  0.
         25    1    1    2    0    0 -0.14996818854E+03 -0.10838982957E+01 -0.30909336225E+03  0.36390979514E+03  0.12000000000E+03 0.  0.
<mgrwt>
<rscale>  0 0.38820043E+03</rscale>
<asrwt>0</asrwt>
<pdfrwt beam="1">  1        2 0.12098319E+00 0.38820043E+03</pdfrwt>
<pdfrwt beam="2">  1       -2 0.73705566E-02 0.38820043E+03</pdfrwt>
<totfact> 0.39189624E+03</totfact>
</mgrwt>
</event>
<event>
 4    1  0.1749575E-004  0.2571690E+03  0.7818608E-02  0.1108856E+00
          1   -1    0    0  501    0  0.00000000000E+00  0.00000000000E+00  0.17101630862E+03  0.17101630862E+03  0.00000000000E+00 0.  1.
         -1   -1    0    0    0  501 -0.00000000000E+00 -0.00000000000E+00 -0.96680673456E+02  0.96680673456E+02  0.00000000000E+00 0.  1.
         25    1    1    2    0    0 -0.60269220494E+01 -0.79583556505E+01 -0.97819811213E+01  0.12081120134E+03  0.12000000000E+03 0.  0.
         25    1    1    2    0    0  0.60269220494E+01  0.79583556505E+01  0.84117616290E+02  0.14688578074E+03  0.12000000000E+03 0.  0.
<mgrwt>
<rscale>  0 0.25716899E+03</rscale>
<asrwt>0</asrwt>
<pdfrwt beam="1">  1        1 0.26310201E-01 0.25716899E+03</pdfrwt>
<pdfrwt beam="2">  1       -1 0.14873950E-01 0.25716899E+03</pdfrwt>
<totfact> 0.57719532E+03</totfact>
</mgrwt>
</event>
<event>
 4    1  0.1749575E-004  0.3583333E+03  0.7818608E-02  0.1059246E+00
         -2   -1    0    0    0  501 -0.00000000000E+00  0.00000000000E+00  0.21233700899E+02  0.21233700899E+02  0.00000000000E+00 0.  1.
          2   -1    0    0  501    0  0.00000000000E+00 -0.00000000000E+00 -0.15117805882E+04  0.15117805882E+04  0.00000000000E+00 0.  1.
         25    1    1    2    0    0  0.10188581181E+03  0.54904156959E+02 -0.10259921578E+04  0.10394494182E+04  0.12000000000E+03 0.  0.
         25    1    1    2    0    0 -0.10188581181E+03 -0.54904156959E+02 -0.46455472954E+03  0.49356487095E+03  0.12000000000E+03 0.  0.
<mgrwt>
<rscale>  0 0.35833335E+03</rscale>
<asrwt>0</asrwt>
<pdfrwt beam="1">  1        2 0.23258165E+00 0.35833335E+03</pdfrwt>
<pdfrwt beam="2">  1       -2 0.32667229E-02 0.35833335E+03</pdfrwt>
<totfact> 0.50258148E+03</totfact>
</mgrwt>
</event>
<event>
 4    1  0.1749575E-004  0.3207804E+03  0.7818608E-02  0.1075291E+00
         -2   -1    0    0    0  501 -0.00000000000E+00  0.00000000000E+00  0.14404462269E+02  0.14404462269E+02  0.00000000000E+00 0. -1.
          2   -1    0    0  501    0  0.00000000000E+00 -0.00000000000E+00 -0.17859060862E+04  0.17859060862E+04  0.00000000000E+00 0. -1.
         25    1    1    2    0    0 -0.83880710899E+02 -0.47410432457E+02 -0.63218401571E+03  0.65064610387E+03  0.12000000000E+03 0.  0.
         25    1    1    2    0    0  0.83880710899E+02  0.47410432457E+02 -0.11393176083E+04  0.11496644446E+04  0.12000000000E+03 0.  0.
<mgrwt>
<rscale>  0 0.32078040E+03</rscale>
<asrwt>0</asrwt>
<pdfrwt beam="1">  1        2 0.27475466E+00 0.32078040E+03</pdfrwt>
<pdfrwt beam="2">  1       -2 0.22160721E-02 0.32078040E+03</pdfrwt>
<totfact> 0.64039296E+03</totfact>
</mgrwt>
</event>
<event>
 4    1  0.1749575E-004  0.2593255E+03  0.7818608E-02  0.1107549E+00
          1   -1    0    0  501    0  0.00000000000E+00  0.00000000000E+00  0.76083873451E+02  0.76083873451E+02  0.00000000000E+00 0.  1.
         -1   -1    0    0    0  501 -0.00000000000E+00 -0.00000000000E+00 -0.22097229411E+03  0.22097229411E+03  0.00000000000E+00 0.  1.
         25    1    1    2    0    0  0.23060271631E+02 -0.43198998671E+02 -0.76805893466E+02  0.15065548409E+03  0.12000000000E+03 0.  0.
         25    1    1    2    0    0 -0.23060271631E+02  0.43198998671E+02 -0.68082527197E+02  0.14640068348E+03  0.12000000000E+03 0.  0.
<mgrwt>
<rscale>  0 0.25932549E+03</rscale>
<asrwt>0</asrwt>
<pdfrwt beam="1">  1        1 0.11705212E-01 0.25932549E+03</pdfrwt>
<pdfrwt beam="2">  1       -1 0.33995737E-01 0.25932549E+03</pdfrwt>
<totfact> 0.42336831E+03</totfact>
</mgrwt>
</event>
<event>
 4    1  0.1749575E-004  0.2464061E+03  0.7818608E-02  0.1115597E+00
          1   -1    0    0  501    0  0.00000000000E+00  0.00000000000E+00  0.12438021218E+02  0.12438021218E+02  0.00000000000E+00 0.  1.
         -1   -1    0    0    0  501 -0.00000000000E+00 -0.00000000000E+00 -0.12203701784E+04  0.12203701784E+04  0.00000000000E+00 0.  1.
         25    1    1    2    0    0  0.11001227936E+02 -0.15263714455E+02 -0.50082552983E+03  0.51534475773E+03  0.12000000000E+03 0.  0.
         25    1    1    2    0    0 -0.11001227936E+02  0.15263714455E+02 -0.70710662740E+03  0.71746344193E+03  0.12000000000E+03 0.  0.
<mgrwt>
<rscale>  0 0.24640609E+03</rscale>
<asrwt>0</asrwt>
<pdfrwt beam="1">  1        1 0.19135408E-02 0.24640609E+03</pdfrwt>
<pdfrwt beam="2">  1       -1 0.18774935E+00 0.24640609E+03</pdfrwt>
<totfact> 0.12982395E+03</totfact>
</mgrwt>
</event>
<event>
 4    1  0.1749575E-004  0.2510296E+03  0.7818608E-02  0.1112656E+00
          1   -1    0    0  501    0  0.00000000000E+00  0.00000000000E+00  0.96900425682E+03  0.96900425682E+03  0.00000000000E+00 0.  1.
         -1   -1    0    0    0  501 -0.00000000000E+00 -0.00000000000E+00 -0.16257884909E+02  0.16257884909E+02  0.00000000000E+00 0.  1.
         25    1    1    2    0    0  0.29014995652E+02  0.18709295688E+02  0.42640954404E+03  0.44431633660E+03  0.12000000000E+03 0.  0.
         25    1    1    2    0    0 -0.29014995652E+02 -0.18709295688E+02  0.52633682787E+03  0.54094580513E+03  0.12000000000E+03 0.  0.
<mgrwt>
<rscale>  0 0.25102956E+03</rscale>
<asrwt>0</asrwt>
<pdfrwt beam="1">  1        1 0.14907753E+00 0.25102956E+03</pdfrwt>
<pdfrwt beam="2">  1       -1 0.25012138E-02 0.25102956E+03</pdfrwt>
<totfact> 0.82929966E+03</totfact>
</mgrwt>
</event>
<event>
 4    1  0.1749575E-004  0.4880106E+03  0.7818608E-02  0.1016957E+00
          2   -1    0    0  501    0  0.00000000000E+00  0.00000000000E+00  0.18177168436E+04  0.18177168436E+04  0.00000000000E+00 0. -1.
         -2   -1    0    0    0  501 -0.00000000000E+00 -0.00000000000E+00 -0.32754597450E+02  0.32754597450E+02  0.00000000000E+00 0. -1.
         25    1    1    2    0    0  0.86351708052E+02  0.68142694699E+02  0.15817101514E+04  0.15900651079E+04  0.12000000000E+03 0.  0.
         25    1    1    2    0    0 -0.86351708052E+02 -0.68142694699E+02  0.20325209476E+03  0.26040633316E+03  0.12000000000E+03 0.  0.
<mgrwt>
<rscale>  0 0.48801059E+03</rscale>
<asrwt>0</asrwt>
<pdfrwt beam="1">  1        2 0.27964867E+00 0.48801059E+03</pdfrwt>
<pdfrwt beam="2">  1       -2 0.50391703E-02 0.48801059E+03</pdfrwt>
<totfact> 0.17723012E+03</totfact>
</mgrwt>
</event>
<event>
 4    1  0.1749575E-004  0.2705617E+03  0.7818608E-02  0.1100959E+00
          1   -1    0    0  501    0  0.00000000000E+00  0.00000000000E+00  0.22273617738E+02  0.22273617738E+02  0.00000000000E+00 0.  1.
         -1   -1    0    0    0  501 -0.00000000000E+00 -0.00000000000E+00 -0.82164088807E+03  0.82164088807E+03  0.00000000000E+00 0.  1.
         25    1    1    2    0    0 -0.56855471987E+02 -0.16638857947E+01 -0.48015461939E+03  0.49818046101E+03  0.12000000000E+03 0.  0.
         25    1    1    2    0    0  0.56855471987E+02  0.16638857947E+01 -0.31921265094E+03  0.34573404480E+03  0.12000000000E+03 0.  0.
<mgrwt>
<rscale>  0 0.27056175E+03</rscale>
<asrwt>0</asrwt>
<pdfrwt beam="1">  1        1 0.34267107E-02 0.27056175E+03</pdfrwt>
<pdfrwt beam="2">  1       -1 0.12640628E+00 0.27056175E+03</pdfrwt>
<totfact> 0.16462917E+03</totfact>
</mgrwt>
</event>
<event>
 4    1  0.1749575E-004  0.2606649E+03  0.7818608E-02  0.1106744E+00
         -2   -1    0    0    0  501 -0.00000000000E+00  0.00000000000E+00  0.89684933043E+01  0.89684933043E+01  0.00000000000E+00 0.  1.
          2   -1    0    0  501    0  0.00000000000E+00 -0.00000000000E+00 -0.18940239697E+04  0.18940239697E+04  0.00000000000E+00 0.  1.
         25    1    1    2    0    0  0.29713585722E+02 -0.14824191866E+02 -0.12237534818E+04  0.12300712329E+04  0.12000000000E+03 0.  0.
         25    1    1    2    0    0 -0.29713585722E+02  0.14824191866E+02 -0.66130199459E+03  0.67292123007E+03  0.12000000000E+03 0.  0.
<mgrwt>
<rscale>  0 0.26066485E+03</rscale>
<asrwt>0</asrwt>
<pdfrwt beam="1">  1        2 0.29138846E+00 0.26066485E+03</pdfrwt>
<pdfrwt beam="2">  1       -2 0.13797675E-02 0.26066485E+03</pdfrwt>
<totfact> 0.11249180E+04</totfact>
</mgrwt>
</event>
<event>
 4    1  0.1749575E-004  0.3308117E+03  0.7818608E-02  0.1070778E+00
          2   -1    0    0  501    0  0.00000000000E+00  0.00000000000E+00  0.21435928040E+04  0.21435928040E+04  0.00000000000E+00 0.  1.
         -2   -1    0    0    0  501 -0.00000000000E+00 -0.00000000000E+00 -0.12763195144E+02  0.12763195144E+02  0.00000000000E+00 0.  1.
         25    1    1    2    0    0  0.91935006438E+02 -0.17122340980E+02  0.14885511709E+04  0.14963053861E+04  0.12000000000E+03 0.  0.
         25    1    1    2    0    0 -0.91935006438E+02  0.17122340980E+02  0.64227843799E+03  0.66005061312E+03  0.12000000000E+03 0.  0.
<mgrwt>
<rscale>  0 0.33081169E+03</rscale>
<asrwt>0</asrwt>
<pdfrwt beam="1">  1        2 0.32978322E+00 0.33081169E+03</pdfrwt>
<pdfrwt beam="2">  1       -2 0.19635702E-02 0.33081169E+03</pdfrwt>
<totfact> 0.49515047E+03</totfact>
</mgrwt>
</event>
<event>
 4    1  0.1749575E-004  0.2694940E+03  0.7818608E-02  0.1101570E+00
          2   -1    0    0  501    0  0.00000000000E+00  0.00000000000E+00  0.11141355660E+04  0.11141355660E+04  0.00000000000E+00 0.  1.
         -2   -1    0    0    0  501 -0.00000000000E+00 -0.00000000000E+00 -0.16296713638E+02  0.16296713638E+02  0.00000000000E+00 0.  1.
         25    1    1    2    0    0  0.31391883200E+02 -0.31388721500E+02  0.72619212279E+03  0.73737758399E+03  0.12000000000E+03 0.  0.
         25    1    1    2    0    0 -0.31391883200E+02  0.31388721500E+02  0.37164672954E+03  0.39305469561E+03  0.12000000000E+03 0.  0.
<mgrwt>
<rscale>  0 0.26949396E+03</rscale>
<asrwt>0</asrwt>
<pdfrwt beam="1">  1        2 0.17140541E+00 0.26949396E+03</pdfrwt>
<pdfrwt beam="2">  1       -2 0.25071876E-02 0.26949396E+03</pdfrwt>
<totfact> 0.12368444E+04</totfact>
</mgrwt>
</event>
<event>
 4    1  0.1749575E-004  0.2919415E+03  0.7818608E-02  0.1089340E+00
         -2   -1    0    0    0  501 -0.00000000000E+00  0.00000000000E+00  0.30999179802E+02  0.30999179802E+02  0.00000000000E+00 0.  1.
          2   -1    0    0  501    0  0.00000000000E+00 -0.00000000000E+00 -0.68735563214E+03  0.68735563214E+03  0.00000000000E+00 0.  1.
         25    1    1    2    0    0 -0.14268824028E+02 -0.12071293001E+02 -0.12891200733E+03  0.17710906551E+03  0.12000000000E+03 0.  0.
         25    1    1    2    0    0  0.14268824028E+02  0.12071293001E+02 -0.52744444501E+03  0.54124574643E+03  0.12000000000E+03 0.  0.
<mgrwt>
<rscale>  0 0.29194151E+03</rscale>
<asrwt>0</asrwt>
<pdfrwt beam="1">  1        2 0.10574701E+00 0.29194151E+03</pdfrwt>
<pdfrwt beam="2">  1       -2 0.47691048E-02 0.29194151E+03</pdfrwt>
<totfact> 0.90137336E+03</totfact>
</mgrwt>
</event>
<event>
 4    1  0.1749575E-004  0.2904969E+03  0.7818608E-02  0.1090090E+00
          1   -1    0    0  501    0  0.00000000000E+00  0.00000000000E+00  0.56510583443E+02  0.56510583443E+02  0.00000000000E+00 0.  1.
         -1   -1    0    0    0  501 -0.00000000000E+00 -0.00000000000E+00 -0.37333028920E+03  0.37333028920E+03  0.00000000000E+00 0.  1.
         25    1    1    2    0    0  0.22217197461E+02 -0.12456342876E+02 -0.27348580963E+03  0.29973864017E+03  0.12000000000E+03 0.  0.
         25    1    1    2    0    0 -0.22217197461E+02  0.12456342876E+02 -0.43333896124E+02  0.13010223247E+03  0.12000000000E+03 0.  0.
<mgrwt>
<rscale>  0 0.29049690E+03</rscale>
<asrwt>0</asrwt>
<pdfrwt beam="1">  1        1 0.86939358E-02 0.29049690E+03</pdfrwt>
<pdfrwt beam="2">  1       -1 0.57435430E-01 0.29049690E+03</pdfrwt>
<totfact> 0.24510393E+03</totfact>
</mgrwt>
</event>
<event>
 4    1  0.1749575E-004  0.2743390E+03  0.7818608E-02  0.1098822E+00
         -1   -1    0    0    0  501 -0.00000000000E+00  0.00000000000E+00  0.12189765414E+03  0.12189765414E+03  0.00000000000E+00 0. -1.
          1   -1    0    0  501    0  0.00000000000E+00 -0.00000000000E+00 -0.15435464733E+03  0.15435464733E+03  0.00000000000E+00 0. -1.
         25    1    1    2    0    0  0.53375546263E+02 -0.30916330836E+02 -0.41113212259E+02  0.14104986591E+03  0.12000000000E+03 0.  0.
         25    1    1    2    0    0 -0.53375546263E+02  0.30916330836E+02  0.86562190697E+01  0.13520243555E+03  0.12000000000E+03 0.  0.
<mgrwt>
<rscale>  0 0.27433898E+03</rscale>
<asrwt>0</asrwt>
<pdfrwt beam="1">  1        1 0.23746869E-01 0.27433898E+03</pdfrwt>
<pdfrwt beam="2">  1       -1 0.18753485E-01 0.27433898E+03</pdfrwt>
<totfact> 0.45493074E+03</totfact>
</mgrwt>
</event>
<event>
 4    1  0.1749575E-004  0.2621271E+03  0.7818608E-02  0.1105872E+00
          2   -1    0    0  501    0  0.00000000000E+00  0.00000000000E+00  0.23773520613E+04  0.23773520613E+04  0.00000000000E+00 0. -1.
         -2   -1    0    0    0  501 -0.00000000000E+00 -0.00000000000E+00 -0.72255420374E+01  0.72255420374E+01  0.00000000000E+00 0. -1.
         25    1    1    2    0    0  0.45843203508E+02 -0.54469600870E+01  0.14163476561E+04  0.14221715619E+04  0.12000000000E+03 0.  0.
         25    1    1    2    0    0 -0.45843203508E+02  0.54469600870E+01  0.95377886320E+03  0.96240604143E+03  0.12000000000E+03 0.  0.
<mgrwt>
<rscale>  0 0.26212712E+03</rscale>
<asrwt>0</asrwt>
<pdfrwt beam="1">  1        2 0.36574585E+00 0.26212712E+03</pdfrwt>
<pdfrwt beam="2">  1       -2 0.11116238E-02 0.26212712E+03</pdfrwt>
<totfact> 0.85465395E+03</totfact>
</mgrwt>
</event>
<event>
 4    1  0.1749575E-004  0.2782287E+03  0.7818608E-02  0.1096660E+00
         -2   -1    0    0    0  501 -0.00000000000E+00  0.00000000000E+00  0.12283413077E+03  0.12283413077E+03  0.00000000000E+00 0.  1.
          2   -1    0    0  501    0  0.00000000000E+00 -0.00000000000E+00 -0.15755230232E+03  0.15755230232E+03  0.00000000000E+00 0.  1.
         25    1    1    2    0    0  0.68421592204E+02 -0.16455032166E+02 -0.16633961637E+02  0.14010342980E+03  0.12000000000E+03 0.  0.
         25    1    1    2    0    0 -0.68421592204E+02  0.16455032166E+02 -0.18084209906E+02  0.14028300329E+03  0.12000000000E+03 0.  0.
<mgrwt>
<rscale>  0 0.27822868E+03</rscale>
<asrwt>0</asrwt>
<pdfrwt beam="1">  1        2 0.24238816E-01 0.27822868E+03</pdfrwt>
<pdfrwt beam="2">  1       -2 0.18897559E-01 0.27822868E+03</pdfrwt>
<totfact> 0.51297772E+03</totfact>
</mgrwt>
</event>
<event>
 4    1  0.1749575E-004  0.5918362E+03  0.7818608E-02  0.9922490E-01
         -1   -1    0    0    0  501 -0.00000000000E+00  0.00000000000E+00  0.22046101262E+03  0.22046101262E+03  0.00000000000E+00 0. -1.
          1   -1    0    0  501    0  0.00000000000E+00 -0.00000000000E+00 -0.39720189814E+03  0.39720189814E+03  0.00000000000E+00 0. -1.
         25    1    1    2    0    0  0.17523059876E+03 -0.27992977052E+02  0.12469070235E+03  0.24786516649E+03  0.12000000000E+03 0.  0.
         25    1    1    2    0    0 -0.17523059876E+03  0.27992977052E+02 -0.30143158787E+03  0.36979774427E+03  0.12000000000E+03 0.  0.
<mgrwt>
<rscale>  0 0.59183624E+03</rscale>
<asrwt>0</asrwt>
<pdfrwt beam="1">  1        1 0.61107983E-01 0.59183624E+03</pdfrwt>
<pdfrwt beam="2">  1       -1 0.33917079E-01 0.59183624E+03</pdfrwt>
<totfact> 0.50252723E+02</totfact>
</mgrwt>
</event>
<event>
 4    1  0.1749575E-004  0.3218304E+03  0.7818608E-02  0.1074810E+00
         -2   -1    0    0    0  501 -0.00000000000E+00  0.00000000000E+00  0.21167681299E+02  0.21167681299E+02  0.00000000000E+00 0.  1.
          2   -1    0    0  501    0  0.00000000000E+00 -0.00000000000E+00 -0.12232659289E+04  0.12232659289E+04  0.00000000000E+00 0.  1.
         25    1    1    2    0    0 -0.44955501010E+02  0.97299730497E+02 -0.59200666117E+03  0.61348196510E+03  0.12000000000E+03 0.  0.
         25    1    1    2    0    0  0.44955501010E+02 -0.97299730497E+02 -0.61009158642E+03  0.63095164510E+03  0.12000000000E+03 0.  0.
<mgrwt>
<rscale>  0 0.32183041E+03</rscale>
<asrwt>0</asrwt>
<pdfrwt beam="1">  1        2 0.18819477E+00 0.32183041E+03</pdfrwt>
<pdfrwt beam="2">  1       -2 0.32565661E-02 0.32183041E+03</pdfrwt>
<totfact> 0.72803429E+03</totfact>
</mgrwt>
</event>
<event>
 4    1  0.1749575E-004  0.3882524E+03  0.7818608E-02  0.1047925E+00
         -2   -1    0    0    0  501 -0.00000000000E+00  0.00000000000E+00  0.38000041351E+03  0.38000041351E+03  0.00000000000E+00 0.  1.
          2   -1    0    0  501    0  0.00000000000E+00 -0.00000000000E+00 -0.99170881860E+02  0.99170881860E+02  0.00000000000E+00 0.  1.
         25    1    1    2    0    0 -0.30473039367E+02 -0.13732735541E+03  0.21340415426E+03  0.28236278389E+03  0.12000000000E+03 0.  0.
         25    1    1    2    0    0  0.30473039367E+02  0.13732735541E+03  0.67425377387E+02  0.19680851147E+03  0.12000000000E+03 0.  0.
<mgrwt>
<rscale>  0 0.38825237E+03</rscale>
<asrwt>0</asrwt>
<pdfrwt beam="1">  1        2 0.15257059E-01 0.38825237E+03</pdfrwt>
<pdfrwt beam="2">  1       -2 0.58461601E-01 0.38825237E+03</pdfrwt>
<totfact> 0.10731214E+03</totfact>
</mgrwt>
</event>
<event>
 4    1  0.1749575E-004  0.2612090E+03  0.7818608E-02  0.1106419E+00
          1   -1    0    0  501    0  0.00000000000E+00  0.00000000000E+00  0.19155126924E+03  0.19155126924E+03  0.00000000000E+00 0. -1.
         -1   -1    0    0    0  501 -0.00000000000E+00 -0.00000000000E+00 -0.89049421206E+02  0.89049421206E+02  0.00000000000E+00 0. -1.
         25    1    1    2    0    0  0.33216017048E+02 -0.93479176269E+01  0.92393585793E+02  0.15532952729E+03  0.12000000000E+03 0.  0.
         25    1    1    2    0    0 -0.33216017048E+02  0.93479176269E+01  0.10108262239E+02  0.12527116315E+03  0.12000000000E+03 0.  0.
<mgrwt>
<rscale>  0 0.26120896E+03</rscale>
<asrwt>0</asrwt>
<pdfrwt beam="1">  1        1 0.29469426E-01 0.26120896E+03</pdfrwt>
<pdfrwt beam="2">  1       -1 0.13699911E-01 0.26120896E+03</pdfrwt>
<totfact> 0.56977620E+03</totfact>
</mgrwt>
</event>
<event>
 4    1  0.1749575E-004  0.3142855E+03  0.7818608E-02  0.1078310E+00
          2   -1    0    0  501    0  0.00000000000E+00  0.00000000000E+00  0.53618767000E+03  0.53618767000E+03  0.00000000000E+00 0.  1.
         -2   -1    0    0    0  501 -0.00000000000E+00 -0.00000000000E+00 -0.46054489565E+02  0.46054489565E+02  0.00000000000E+00 0.  1.
         25    1    1    2    0    0  0.27542488983E+02  0.97647228380E+02  0.24408709248E+03  0.29029653567E+03  0.12000000000E+03 0.  0.
         25    1    1    2    0    0 -0.27542488983E+02 -0.97647228380E+02  0.24604608795E+03  0.29194562389E+03  0.12000000000E+03 0.  0.
<mgrwt>
<rscale>  0 0.31428554E+03</rscale>
<asrwt>0</asrwt>
<pdfrwt beam="1">  1        2 0.82490406E-01 0.31428554E+03</pdfrwt>
<pdfrwt beam="2">  1       -2 0.70853065E-02 0.31428554E+03</pdfrwt>
<totfact> 0.65778677E+03</totfact>
</mgrwt>
</event>
<event>
 4    1  0.1749575E-004  0.2558549E+03  0.7818608E-02  0.1109660E+00
         -4   -1    0    0    0  501 -0.00000000000E+00  0.00000000000E+00  0.23014182649E+02  0.23014182649E+02  0.00000000000E+00 0.  1.
          4   -1    0    0  501    0  0.00000000000E+00 -0.00000000000E+00 -0.71110208552E+03  0.71110208552E+03  0.00000000000E+00 0.  1.
         25    1    1    2    0    0  0.47000766022E+01  0.36843656405E+02 -0.27459299513E+03  0.30196168418E+03  0.12000000000E+03 0.  0.
         25    1    1    2    0    0 -0.47000766022E+01 -0.36843656405E+02 -0.41349490774E+03  0.43215458399E+03  0.12000000000E+03 0.  0.
<mgrwt>
<rscale>  0 0.25585491E+03</rscale>
<asrwt>0</asrwt>
<pdfrwt beam="1">  1        4 0.10940031E+00 0.25585491E+03</pdfrwt>
<pdfrwt beam="2">  1       -4 0.35406438E-02 0.25585491E+03</pdfrwt>
<totfact> 0.53216313E+02</totfact>
</mgrwt>
</event>
<event>
 4    1  0.1749575E-004  0.2527350E+03  0.7818608E-02  0.1111588E+00
          1   -1    0    0  501    0  0.00000000000E+00  0.00000000000E+00  0.14034753705E+04  0.14034753705E+04  0.00000000000E+00 0. -1.
         -1   -1    0    0    0  501 -0.00000000000E+00 -0.00000000000E+00 -0.11378003523E+02  0.11378003523E+02  0.00000000000E+00 0. -1.
         25    1    1    2    0    0 -0.83161256129E+01  0.37537743077E+02  0.74930713740E+03  0.75982855057E+03  0.12000000000E+03 0.  0.
         25    1    1    2    0    0  0.83161256129E+01 -0.37537743077E+02  0.64279022955E+03  0.65502482343E+03  0.12000000000E+03 0.  0.
<mgrwt>
<rscale>  0 0.25273502E+03</rscale>
<asrwt>0</asrwt>
<pdfrwt beam="1">  1        1 0.21591915E+00 0.25273502E+03</pdfrwt>
<pdfrwt beam="2">  1       -1 0.17504632E-02 0.25273502E+03</pdfrwt>
<totfact> 0.69042364E+03</totfact>
</mgrwt>
</event>
<event>
 4    1  0.1749575E-004  0.2799757E+03  0.7818608E-02  0.1095702E+00
         -2   -1    0    0    0  501 -0.00000000000E+00  0.00000000000E+00  0.25048817363E+02  0.25048817363E+02  0.00000000000E+00 0.  1.
          2   -1    0    0  501    0  0.00000000000E+00 -0.00000000000E+00 -0.78233634655E+03  0.78233634655E+03  0.00000000000E+00 0.  1.
         25    1    1    2    0    0 -0.45918900758E+02  0.39033601587E+02 -0.26458232377E+03  0.29670856670E+03  0.12000000000E+03 0.  0.
         25    1    1    2    0    0  0.45918900758E+02 -0.39033601587E+02 -0.49270520541E+03  0.51067659721E+03  0.12000000000E+03 0.  0.
<mgrwt>
<rscale>  0 0.27997572E+03</rscale>
<asrwt>0</asrwt>
<pdfrwt beam="1">  1        2 0.12035941E+00 0.27997572E+03</pdfrwt>
<pdfrwt beam="2">  1       -2 0.38536651E-02 0.27997572E+03</pdfrwt>
<totfact> 0.10585689E+04</totfact>
</mgrwt>
</event>
<event>
 4    1  0.1749575E-004  0.2465466E+03  0.7818608E-02  0.1115507E+00
          2   -1    0    0  501    0  0.00000000000E+00  0.00000000000E+00  0.14247881509E+04  0.14247881509E+04  0.00000000000E+00 0.  1.
         -2   -1    0    0    0  501 -0.00000000000E+00 -0.00000000000E+00 -0.10665657998E+02  0.10665657998E+02  0.00000000000E+00 0.  1.
         25    1    1    2    0    0 -0.17723522745E+02 -0.21774958072E+02  0.69056150236E+03  0.70147235199E+03  0.12000000000E+03 0.  0.
         25    1    1    2    0    0  0.17723522745E+02  0.21774958072E+02  0.72356099057E+03  0.73398145694E+03  0.12000000000E+03 0.  0.
<mgrwt>
<rscale>  0 0.24654657E+03</rscale>
<asrwt>0</asrwt>
<pdfrwt beam="1">  1        2 0.21919803E+00 0.24654657E+03</pdfrwt>
<pdfrwt beam="2">  1       -2 0.16408716E-02 0.24654657E+03</pdfrwt>
<totfact> 0.15428748E+04</totfact>
</mgrwt>
</event>
<event>
 4    1  0.1749575E-004  0.2828187E+03  0.7818608E-02  0.1094159E+00
         -1   -1    0    0    0  501 -0.00000000000E+00  0.00000000000E+00  0.13096914525E+03  0.13096914525E+03  0.00000000000E+00 0. -1.
          1   -1    0    0  501    0  0.00000000000E+00 -0.00000000000E+00 -0.15268177963E+03  0.15268177963E+03  0.00000000000E+00 0. -1.
         25    1    1    2    0    0  0.42589230419E+02  0.28966066561E+02 -0.65272095099E+02  0.14599082834E+03  0.12000000000E+03 0.  0.
         25    1    1    2    0    0 -0.42589230419E+02 -0.28966066561E+02  0.43559460720E+02  0.13766009653E+03  0.12000000000E+03 0.  0.
<mgrwt>
<rscale>  0 0.28281869E+03</rscale>
<asrwt>0</asrwt>
<pdfrwt beam="1">  1        1 0.23489504E-01 0.28281869E+03</pdfrwt>
<pdfrwt beam="2">  1       -1 0.20149099E-01 0.28281869E+03</pdfrwt>
<totfact> 0.41097568E+03</totfact>
</mgrwt>
</event>
<event>
 4    1  0.1749575E-004  0.2603528E+03  0.7818608E-02  0.1106931E+00
         -1   -1    0    0    0  501 -0.00000000000E+00  0.00000000000E+00  0.49746665099E+03  0.49746665099E+03  0.00000000000E+00 0.  1.
          1   -1    0    0  501    0  0.00000000000E+00 -0.00000000000E+00 -0.34064373782E+02  0.34064373782E+02  0.00000000000E+00 0.  1.
         25    1    1    2    0    0 -0.28447083717E+02  0.37207193135E+02  0.27001970796E+03  0.29917261653E+03  0.12000000000E+03 0.  0.
         25    1    1    2    0    0  0.28447083717E+02 -0.37207193135E+02  0.19338256925E+03  0.23235840824E+03  0.12000000000E+03 0.  0.
<mgrwt>
<rscale>  0 0.26035276E+03</rscale>
<asrwt>0</asrwt>
<pdfrwt beam="1">  1        1 0.52406732E-02 0.26035276E+03</pdfrwt>
<pdfrwt beam="2">  1       -1 0.76533326E-01 0.26035276E+03</pdfrwt>
<totfact> 0.27757281E+03</totfact>
</mgrwt>
</event>
<event>
 4    1  0.1749575E-004  0.2793296E+03  0.7818608E-02  0.1096056E+00
         -2   -1    0    0    0  501 -0.00000000000E+00  0.00000000000E+00  0.18161506063E+02  0.18161506063E+02  0.00000000000E+00 0. -1.
          2   -1    0    0  501    0  0.00000000000E+00 -0.00000000000E+00 -0.10740437128E+04  0.10740437128E+04  0.00000000000E+00 0. -1.
         25    1    1    2    0    0  0.13129134740E+01  0.62572113508E+02 -0.66278318040E+03  0.67646029990E+03  0.12000000000E+03 0.  0.
         25    1    1    2    0    0 -0.13129134740E+01 -0.62572113508E+02 -0.39309902635E+03  0.41574491897E+03  0.12000000000E+03 0.  0.
<mgrwt>
<rscale>  0 0.27932956E+03</rscale>
<asrwt>0</asrwt>
<pdfrwt beam="1">  1        2 0.16523752E+00 0.27932956E+03</pdfrwt>
<pdfrwt beam="2">  1       -2 0.27940773E-02 0.27932956E+03</pdfrwt>
<totfact> 0.11133709E+04</totfact>
</mgrwt>
</event>
<event>
 4    1  0.1749575E-004  0.2555623E+03  0.7818608E-02  0.1109839E+00
          2   -1    0    0  501    0  0.00000000000E+00  0.00000000000E+00  0.45978760984E+03  0.45978760984E+03  0.00000000000E+00 0. -1.
         -2   -1    0    0    0  501 -0.00000000000E+00 -0.00000000000E+00 -0.35512109245E+02  0.35512109245E+02  0.00000000000E+00 0. -1.
         25    1    1    2    0    0 -0.24977518604E+01 -0.14993183780E+02  0.29197605568E+03  0.31603963583E+03  0.12000000000E+03 0.  0.
         25    1    1    2    0    0  0.24977518604E+01  0.14993183780E+02  0.13229944491E+03  0.17926008326E+03  0.12000000000E+03 0.  0.
<mgrwt>
<rscale>  0 0.25556234E+03</rscale>
<asrwt>0</asrwt>
<pdfrwt beam="1">  1        2 0.70736551E-01 0.25556234E+03</pdfrwt>
<pdfrwt beam="2">  1       -2 0.54634018E-02 0.25556234E+03</pdfrwt>
<totfact> 0.11570902E+04</totfact>
</mgrwt>
</event>
<event>
 4    1  0.1749575E-004  0.3809809E+03  0.7818608E-02  0.1050572E+00
          1   -1    0    0  501    0  0.00000000000E+00  0.00000000000E+00  0.72604193698E+03  0.72604193698E+03  0.00000000000E+00 0. -1.
         -1   -1    0    0    0  501 -0.00000000000E+00 -0.00000000000E+00 -0.49978670220E+02  0.49978670220E+02  0.00000000000E+00 0. -1.
         25    1    1    2    0    0  0.92908724122E+02 -0.10931831404E+03  0.26447478243E+03  0.32392813299E+03  0.12000000000E+03 0.  0.
         25    1    1    2    0    0 -0.92908724122E+02  0.10931831404E+03  0.41158848433E+03  0.45209247421E+03  0.12000000000E+03 0.  0.
<mgrwt>
<rscale>  0 0.38098089E+03</rscale>
<asrwt>0</asrwt>
<pdfrwt beam="1">  1        1 0.11169875E+00 0.38098089E+03</pdfrwt>
<pdfrwt beam="2">  1       -1 0.76890267E-02 0.38098089E+03</pdfrwt>
<totfact> 0.24515187E+03</totfact>
</mgrwt>
</event>
<event>
 4    1  0.1749575E-004  0.3156934E+03  0.7818608E-02  0.1077649E+00
         -1   -1    0    0    0  501 -0.00000000000E+00  0.00000000000E+00  0.50377854316E+02  0.50377854316E+02  0.00000000000E+00 0.  1.
          1   -1    0    0  501    0  0.00000000000E+00 -0.00000000000E+00 -0.49457406730E+03  0.49457406730E+03  0.00000000000E+00 0.  1.
         25    1    1    2    0    0 -0.96779344465E+02  0.18407407257E+02 -0.27124214556E+03  0.31253379927E+03  0.12000000000E+03 0.  0.
         25    1    1    2    0    0  0.96779344465E+02 -0.18407407257E+02 -0.17295406742E+03  0.23241812235E+03  0.12000000000E+03 0.  0.
<mgrwt>
<rscale>  0 0.31569340E+03</rscale>
<asrwt>0</asrwt>
<pdfrwt beam="1">  1        1 0.76088319E-01 0.31569340E+03</pdfrwt>
<pdfrwt beam="2">  1       -1 0.77504391E-02 0.31569340E+03</pdfrwt>
<totfact> 0.41441159E+03</totfact>
</mgrwt>
</event>
<event>
 4    1  0.1749575E-004  0.4626279E+03  0.7818608E-02  0.1024022E+00
          2   -1    0    0  501    0  0.00000000000E+00  0.00000000000E+00  0.21136054448E+03  0.21136054448E+03  0.00000000000E+00 0.  1.
         -2   -1    0    0    0  501 -0.00000000000E+00 -0.00000000000E+00 -0.25315105256E+03  0.25315105256E+03  0.00000000000E+00 0.  1.
         25    1    1    2    0    0 -0.31932145746E+02 -0.20832497720E+02  0.17393732738E+03  0.21472738239E+03  0.12000000000E+03 0.  0.
         25    1    1    2    0    0  0.31932145746E+02  0.20832497720E+02 -0.21572783546E+03  0.24978421465E+03  0.12000000000E+03 0.  0.
<mgrwt>
<rscale>  0 0.46262790E+03</rscale>
<asrwt>0</asrwt>
<pdfrwt beam="1">  1        2 0.32517007E-01 0.46262790E+03</pdfrwt>
<pdfrwt beam="2">  1       -2 0.38946316E-01 0.46262790E+03</pdfrwt>
<totfact> 0.10131001E+03</totfact>
</mgrwt>
</event>
<event>
 4    1  0.1749575E-004  0.2883740E+03  0.7818608E-02  0.1091201E+00
          4   -1    0    0  501    0  0.00000000000E+00  0.00000000000E+00  0.11856996469E+03  0.11856996469E+03  0.00000000000E+00 0.  1.
         -4   -1    0    0    0  501 -0.00000000000E+00 -0.00000000000E+00 -0.17533864370E+03  0.17533864370E+03  0.00000000000E+00 0.  1.
         25    1    1    2    0    0 -0.36518183540E+01 -0.67550022160E+02  0.15018842714E+02  0.13857094539E+03  0.12000000000E+03 0.  0.
         25    1    1    2    0    0  0.36518183540E+01  0.67550022160E+02 -0.71787521714E+02  0.15533766300E+03  0.12000000000E+03 0.  0.
<mgrwt>
<rscale>  0 0.28837404E+03</rscale>
<asrwt>0</asrwt>
<pdfrwt beam="1">  1        4 0.18241533E-01 0.28837404E+03</pdfrwt>
<pdfrwt beam="2">  1       -4 0.26975176E-01 0.28837404E+03</pdfrwt>
<totfact> 0.65308580E+02</totfact>
</mgrwt>
</event>
<event>
 4    1  0.1749575E-004  0.5291060E+03  0.7818608E-02  0.1006449E+00
         -2   -1    0    0    0  501 -0.00000000000E+00  0.00000000000E+00  0.42272297011E+02  0.42272297011E+02  0.00000000000E+00 0. -1.
          2   -1    0    0  501    0  0.00000000000E+00 -0.00000000000E+00 -0.16556538725E+04  0.16556538725E+04  0.00000000000E+00 0. -1.
         25    1    1    2    0    0 -0.10297645865E+02  0.12894997798E+03 -0.17414082259E+03  0.24790958921E+03  0.12000000000E+03 0.  0.
         25    1    1    2    0    0  0.10297645865E+02 -0.12894997798E+03 -0.14392407529E+04  0.14500165803E+04  0.12000000000E+03 0.  0.
<mgrwt>
<rscale>  0 0.52910601E+03</rscale>
<asrwt>0</asrwt>
<pdfrwt beam="1">  1        2 0.25471594E+00 0.52910601E+03</pdfrwt>
<pdfrwt beam="2">  1       -2 0.65034314E-02 0.52910601E+03</pdfrwt>
<totfact> 0.14542772E+03</totfact>
</mgrwt>
</event>
<event>
 4    1  0.1749575E-004  0.2883377E+03  0.7818608E-02  0.1091220E+00
         -1   -1    0    0    0  501 -0.00000000000E+00  0.00000000000E+00  0.40699780292E+02  0.40699780292E+02  0.00000000000E+00 0. -1.
          1   -1    0    0  501    0  0.00000000000E+00 -0.00000000000E+00 -0.51068243377E+03  0.51068243377E+03  0.00000000000E+00 0. -1.
         25    1    1    2    0    0 -0.33725519453E+02 -0.66298737249E+02 -0.17918259630E+03  0.22812131869E+03  0.12000000000E+03 0.  0.
         25    1    1    2    0    0  0.33725519453E+02  0.66298737249E+02 -0.29080005718E+03  0.32326089538E+03  0.12000000000E+03 0.  0.
<mgrwt>
<rscale>  0 0.28833774E+03</rscale>
<asrwt>0</asrwt>
<pdfrwt beam="1">  1        1 0.78566522E-01 0.28833774E+03</pdfrwt>
<pdfrwt beam="2">  1       -1 0.62615052E-02 0.28833774E+03</pdfrwt>
<totfact> 0.54821338E+03</totfact>
</mgrwt>
</event>
<event>
 4    1  0.1749575E-004  0.3190645E+03  0.7818608E-02  0.1076081E+00
         -2   -1    0    0    0  501 -0.00000000000E+00  0.00000000000E+00  0.54224064859E+02  0.54224064859E+02  0.00000000000E+00 0.  1.
          2   -1    0    0  501    0  0.00000000000E+00 -0.00000000000E+00 -0.46935879787E+03  0.46935879787E+03  0.00000000000E+00 0.  1.
         25    1    1    2    0    0  0.78811639329E+02  0.68157747801E+02 -0.23041132005E+03  0.27990378613E+03  0.12000000000E+03 0.  0.
         25    1    1    2    0    0 -0.78811639329E+02 -0.68157747801E+02 -0.18472341296E+03  0.24367907660E+03  0.12000000000E+03 0.  0.
<mgrwt>
<rscale>  0 0.31906452E+03</rscale>
<asrwt>0</asrwt>
<pdfrwt beam="1">  1        2 0.72209044E-01 0.31906452E+03</pdfrwt>
<pdfrwt beam="2">  1       -2 0.83421640E-02 0.31906452E+03</pdfrwt>
<totfact> 0.59216184E+03</totfact>
</mgrwt>
</event>
<event>
 4    1  0.1749575E-004  0.3986958E+03  0.7818608E-02  0.1044232E+00
         -2   -1    0    0    0  501 -0.00000000000E+00  0.00000000000E+00  0.27711316389E+02  0.27711316389E+02  0.00000000000E+00 0.  1.
          2   -1    0    0  501    0  0.00000000000E+00 -0.00000000000E+00 -0.14340564063E+04  0.14340564063E+04  0.00000000000E+00 0.  1.
         25    1    1    2    0    0  0.99525340211E+02 -0.96346333004E+02 -0.99073593857E+03  0.10075443460E+04  0.12000000000E+03 0.  0.
         25    1    1    2    0    0 -0.99525340211E+02  0.96346333004E+02 -0.41560915129E+03  0.45422337662E+03  0.12000000000E+03 0.  0.
<mgrwt>
<rscale>  0 0.39869583E+03</rscale>
<asrwt>0</asrwt>
<pdfrwt beam="1">  1        2 0.22062415E+00 0.39869583E+03</pdfrwt>
<pdfrwt beam="2">  1       -2 0.42632777E-02 0.39869583E+03</pdfrwt>
<totfact> 0.37021843E+03</totfact>
</mgrwt>
</event>
<event>
 4    1  0.1749575E-004  0.3004874E+03  0.7818608E-02  0.1084997E+00
          2   -1    0    0  501    0  0.00000000000E+00  0.00000000000E+00  0.69536145994E+03  0.69536145994E+03  0.00000000000E+00 0.  1.
         -2   -1    0    0    0  501 -0.00000000000E+00 -0.00000000000E+00 -0.32462504087E+02  0.32462504087E+02  0.00000000000E+00 0.  1.
         25    1    1    2    0    0  0.32132188269E+02  0.81000929509E+02  0.38975961250E+03  0.41702060337E+03  0.12000000000E+03 0.  0.
         25    1    1    2    0    0 -0.32132188269E+02 -0.81000929509E+02  0.27313934335E+03  0.31080336065E+03  0.12000000000E+03 0.  0.
<mgrwt>
<rscale>  0 0.30048743E+03</rscale>
<asrwt>0</asrwt>
<pdfrwt beam="1">  1        2 0.10697868E+00 0.30048743E+03</pdfrwt>
<pdfrwt beam="2">  1       -2 0.49942319E-02 0.30048743E+03</pdfrwt>
<totfact> 0.82930675E+03</totfact>
</mgrwt>
</event>
<event>
 4    1  0.1749575E-004  0.2723029E+03  0.7818608E-02  0.1099969E+00
          1   -1    0    0  501    0  0.00000000000E+00  0.00000000000E+00  0.12617754007E+03  0.12617754007E+03  0.00000000000E+00 0.  1.
         -1   -1    0    0    0  501 -0.00000000000E+00 -0.00000000000E+00 -0.14691374856E+03  0.14691374856E+03  0.00000000000E+00 0.  1.
         25    1    1    2    0    0  0.14539945435E+02 -0.26585676824E+02 -0.67268668735E+02  0.14086618480E+03  0.12000000000E+03 0.  0.
         25    1    1    2    0    0 -0.14539945435E+02  0.26585676824E+02  0.46532460245E+02  0.13222510383E+03  0.12000000000E+03 0.  0.
<mgrwt>
<rscale>  0 0.27230289E+03</rscale>
<asrwt>0</asrwt>
<pdfrwt beam="1">  1        1 0.19411929E-01 0.27230289E+03</pdfrwt>
<pdfrwt beam="2">  1       -1 0.22602115E-01 0.27230289E+03</pdfrwt>
<totfact> 0.43451964E+03</totfact>
</mgrwt>
</event>
<event>
 4    1  0.1749575E-004  0.2666515E+03  0.7818608E-02  0.1103211E+00
          2   -1    0    0  501    0  0.00000000000E+00  0.00000000000E+00  0.16767936236E+04  0.16767936236E+04  0.00000000000E+00 0. -1.
         -2   -1    0    0    0  501 -0.00000000000E+00 -0.00000000000E+00 -0.10601041187E+02  0.10601041187E+02  0.00000000000E+00 0. -1.
         25    1    1    2    0    0  0.17209671635E+01  0.48146233853E+02  0.62758076482E+03  0.64076410475E+03  0.12000000000E+03 0.  0.
         25    1    1    2    0    0 -0.17209671635E+01 -0.48146233853E+02  0.10386118176E+04  0.10466305600E+04  0.12000000000E+03 0.  0.
<mgrwt>
<rscale>  0 0.26665152E+03</rscale>
<asrwt>0</asrwt>
<pdfrwt beam="1">  1        2 0.25796804E+00 0.26665152E+03</pdfrwt>
<pdfrwt beam="2">  1       -2 0.16309307E-02 0.26665152E+03</pdfrwt>
<totfact> 0.11459060E+04</totfact>
</mgrwt>
</event>
<event>
 4    1  0.1749575E-004  0.2569290E+03  0.7818608E-02  0.1109002E+00
         -2   -1    0    0    0  501 -0.00000000000E+00  0.00000000000E+00  0.17273053604E+03  0.17273053604E+03  0.00000000000E+00 0. -1.
          2   -1    0    0  501    0  0.00000000000E+00 -0.00000000000E+00 -0.95542631661E+02  0.95542631661E+02  0.00000000000E+00 0. -1.
         25    1    1    2    0    0 -0.39995696457E+02 -0.19079786496E+02  0.26264280031E+02  0.13058907456E+03  0.12000000000E+03 0.  0.
         25    1    1    2    0    0  0.39995696457E+02  0.19079786496E+02  0.50923624344E+02  0.13768409314E+03  0.12000000000E+03 0.  0.
<mgrwt>
<rscale>  0 0.25692902E+03</rscale>
<asrwt>0</asrwt>
<pdfrwt beam="1">  1        2 0.14698866E-01 0.25692902E+03</pdfrwt>
<pdfrwt beam="2">  1       -2 0.26573929E-01 0.25692902E+03</pdfrwt>
<totfact> 0.50367127E+03</totfact>
</mgrwt>
</event>
<event>
 4    1  0.1749575E-004  0.2826961E+03  0.7818608E-02  0.1094225E+00
          1   -1    0    0  501    0  0.00000000000E+00  0.00000000000E+00  0.13198069061E+03  0.13198069061E+03  0.00000000000E+00 0.  1.
         -1   -1    0    0    0  501 -0.00000000000E+00 -0.00000000000E+00 -0.15138030205E+03  0.15138030205E+03  0.00000000000E+00 0.  1.
         25    1    1    2    0    0  0.48318519486E+02 -0.16969886806E+02  0.44802888856E+02  0.13794910378E+03  0.12000000000E+03 0.  0.
         25    1    1    2    0    0 -0.48318519486E+02  0.16969886806E+02 -0.64202500303E+02  0.14541188888E+03  0.12000000000E+03 0.  0.
<mgrwt>
<rscale>  0 0.28269614E+03</rscale>
<asrwt>0</asrwt>
<pdfrwt beam="1">  1        1 0.20304722E-01 0.28269614E+03</pdfrwt>
<pdfrwt beam="2">  1       -1 0.23289277E-01 0.28269614E+03</pdfrwt>
<totfact> 0.39072094E+03</totfact>
</mgrwt>
</event>
<event>
 4    1  0.1749575E-004  0.2701826E+03  0.7818608E-02  0.1101175E+00
          2   -1    0    0  501    0  0.00000000000E+00  0.00000000000E+00  0.82251957386E+03  0.82251957386E+03  0.00000000000E+00 0.  1.
         -2   -1    0    0    0  501 -0.00000000000E+00 -0.00000000000E+00 -0.22187504314E+02  0.22187504314E+02  0.00000000000E+00 0.  1.
         25    1    1    2    0    0  0.42098637660E+02  0.20243196044E+02  0.27249529117E+03  0.30138972443E+03  0.12000000000E+03 0.  0.
         25    1    1    2    0    0 -0.42098637660E+02 -0.20243196044E+02  0.52783677837E+03  0.54331735374E+03  0.12000000000E+03 0.  0.
<mgrwt>
<rscale>  0 0.27018258E+03</rscale>
<asrwt>0</asrwt>
<pdfrwt beam="1">  1        2 0.12654145E+00 0.27018258E+03</pdfrwt>
<pdfrwt beam="2">  1       -2 0.34134628E-02 0.27018258E+03</pdfrwt>
<totfact> 0.11895690E+04</totfact>
</mgrwt>
</event>
<event>
 4    1  0.1749575E-004  0.2755835E+03  0.7818608E-02  0.1098126E+00
          2   -1    0    0  501    0  0.00000000000E+00  0.00000000000E+00  0.28789233054E+03  0.28789233054E+03  0.00000000000E+00 0. -1.
         -2   -1    0    0    0  501 -0.00000000000E+00 -0.00000000000E+00 -0.65950256143E+02  0.65950256143E+02  0.00000000000E+00 0. -1.
         25    1    1    2    0    0 -0.90887022999E+01 -0.41712393570E+02  0.43467063015E+02  0.13458051068E+03  0.12000000000E+03 0.  0.
         25    1    1    2    0    0  0.90887022999E+01  0.41712393570E+02  0.17847501138E+03  0.21926207601E+03  0.12000000000E+03 0.  0.
<mgrwt>
<rscale>  0 0.27558355E+03</rscale>
<asrwt>0</asrwt>
<pdfrwt beam="1">  1        2 0.44291127E-01 0.27558355E+03</pdfrwt>
<pdfrwt beam="2">  1       -2 0.10146193E-01 0.27558355E+03</pdfrwt>
<totfact> 0.73588451E+03</totfact>
</mgrwt>
</event>
<event>
 4    1  0.1749575E-004  0.2516856E+03  0.7818608E-02  0.1112244E+00
          1   -1    0    0  501    0  0.00000000000E+00  0.00000000000E+00  0.34651078275E+03  0.34651078275E+03  0.00000000000E+00 0.  1.
         -1   -1    0    0    0  501 -0.00000000000E+00 -0.00000000000E+00 -0.45702508691E+02  0.45702508691E+02  0.00000000000E+00 0.  1.
         25    1    1    2    0    0  0.56461306587E+01 -0.16098769614E+02  0.20314357141E+03  0.23655519394E+03  0.12000000000E+03 0.  0.
         25    1    1    2    0    0 -0.56461306587E+01  0.16098769614E+02  0.97664702653E+02  0.15565809750E+03  0.12000000000E+03 0.  0.
<mgrwt>
<rscale>  0 0.25168561E+03</rscale>
<asrwt>0</asrwt>
<pdfrwt beam="1">  1        1 0.53309350E-01 0.25168561E+03</pdfrwt>
<pdfrwt beam="2">  1       -1 0.70311554E-02 0.25168561E+03</pdfrwt>
<totfact> 0.75624078E+03</totfact>
</mgrwt>
</event>
<event>
 4    1  0.1749575E-004  0.5229810E+03  0.7818608E-02  0.1007949E+00
         -2   -1    0    0    0  501 -0.00000000000E+00  0.00000000000E+00  0.27053388554E+02  0.27053388554E+02  0.00000000000E+00 0. -1.
          2   -1    0    0  501    0  0.00000000000E+00 -0.00000000000E+00 -0.25274939820E+04  0.25274939820E+04  0.00000000000E+00 0. -1.
         25    1    1    2    0    0 -0.14952991294E+03  0.14778103986E+03 -0.76719278054E+03  0.80447696867E+03  0.12000000000E+03 0.  0.
         25    1    1    2    0    0  0.14952991294E+03 -0.14778103986E+03 -0.17332478129E+04  0.17500704019E+04  0.12000000000E+03 0.  0.
<mgrwt>
<rscale>  0 0.52298098E+03</rscale>
<asrwt>0</asrwt>
<pdfrwt beam="1">  1        2 0.38884525E+00 0.52298098E+03</pdfrwt>
<pdfrwt beam="2">  1       -2 0.41620596E-02 0.52298098E+03</pdfrwt>
<totfact> 0.97353258E+02</totfact>
</mgrwt>
</event>
<event>
 4    1  0.1749575E-004  0.2640244E+03  0.7818608E-02  0.1104749E+00
         -2   -1    0    0    0  501 -0.00000000000E+00  0.00000000000E+00  0.57023833762E+01  0.57023833762E+01  0.00000000000E+00 0.  1.
          2   -1    0    0  501    0  0.00000000000E+00 -0.00000000000E+00 -0.30561287080E+04  0.30561287080E+04  0.00000000000E+00 0.  1.
         25    1    1    2    0    0  0.19338237379E+02  0.33452007208E+02 -0.10709786979E+04  0.10783730224E+04  0.12000000000E+03 0.  0.
         25    1    1    2    0    0 -0.19338237379E+02 -0.33452007208E+02 -0.19794476267E+04  0.19834580689E+04  0.12000000000E+03 0.  0.
<mgrwt>
<rscale>  0 0.26402437E+03</rscale>
<asrwt>0</asrwt>
<pdfrwt beam="1">  1        2 0.47017302E+00 0.26402437E+03</pdfrwt>
<pdfrwt beam="2">  1       -2 0.87729092E-03 0.26402437E+03</pdfrwt>
<totfact> 0.49778384E+03</totfact>
</mgrwt>
</event>
<event>
 4    1  0.1749575E-004  0.2795077E+03  0.7818608E-02  0.1095958E+00
         -2   -1    0    0    0  501 -0.00000000000E+00  0.00000000000E+00  0.45889450172E+02  0.45889450172E+02  0.00000000000E+00 0.  1.
          2   -1    0    0  501    0  0.00000000000E+00 -0.00000000000E+00 -0.42561289684E+03  0.42561289684E+03  0.00000000000E+00 0.  1.
         25    1    1    2    0    0 -0.51215486225E+02  0.48338227711E+02 -0.21195509674E+03  0.25354402640E+03  0.12000000000E+03 0.  0.
         25    1    1    2    0    0  0.51215486225E+02 -0.48338227711E+02 -0.16776834992E+03  0.21795832061E+03  0.12000000000E+03 0.  0.
<mgrwt>
<rscale>  0 0.27950772E+03</rscale>
<asrwt>0</asrwt>
<pdfrwt beam="1">  1        2 0.65478910E-01 0.27950772E+03</pdfrwt>
<pdfrwt beam="2">  1       -2 0.70599151E-02 0.27950772E+03</pdfrwt>
<totfact> 0.85252242E+03</totfact>
</mgrwt>
</event>
<event>
 4    1  0.1749575E-004  0.2674059E+03  0.7818608E-02  0.1102774E+00
          2   -1    0    0  501    0  0.00000000000E+00  0.00000000000E+00  0.23788902195E+03  0.23788902195E+03  0.00000000000E+00 0. -1.
         -2   -1    0    0    0  501 -0.00000000000E+00 -0.00000000000E+00 -0.75146268475E+02  0.75146268475E+02  0.00000000000E+00 0. -1.
         25    1    1    2    0    0 -0.58677929288E+02  0.29277459342E+01  0.75541505028E+02  0.15348677488E+03  0.12000000000E+03 0.  0.
         25    1    1    2    0    0  0.58677929288E+02 -0.29277459342E+01  0.87201248451E+02  0.15954851555E+03  0.12000000000E+03 0.  0.
<mgrwt>
<rscale>  0 0.26740585E+03</rscale>
<asrwt>0</asrwt>
<pdfrwt beam="1">  1        2 0.36598311E-01 0.26740585E+03</pdfrwt>
<pdfrwt beam="2">  1       -2 0.11560964E-01 0.26740585E+03</pdfrwt>
<totfact> 0.73272197E+03</totfact>
</mgrwt>
</event>
<event>
 4    1  0.1749575E-004  0.3761318E+03  0.7818608E-02  0.1052373E+00
         -1   -1    0    0    0  501 -0.00000000000E+00  0.00000000000E+00  0.18603969846E+03  0.18603969846E+03  0.00000000000E+00 0. -1.
          1   -1    0    0  501    0  0.00000000000E+00 -0.00000000000E+00 -0.19011421641E+03  0.19011421641E+03  0.00000000000E+00 0. -1.
         25    1    1    2    0    0  0.11346676015E+03 -0.89928604010E+02 -0.46702852898E+01  0.18810547851E+03  0.12000000000E+03 0.  0.
         25    1    1    2    0    0 -0.11346676015E+03  0.89928604010E+02  0.59576734451E+00  0.18804843636E+03  0.12000000000E+03 0.  0.
<mgrwt>
<rscale>  0 0.37613185E+03</rscale>
<asrwt>0</asrwt>
<pdfrwt beam="1">  1        1 0.29248341E-01 0.37613185E+03</pdfrwt>
<pdfrwt beam="2">  1       -1 0.28621492E-01 0.37613185E+03</pdfrwt>
<totfact> 0.17406871E+03</totfact>
</mgrwt>
</event>
<event>
 4    1  0.1749575E-004  0.2819518E+03  0.7818608E-02  0.1094628E+00
          2   -1    0    0  501    0  0.00000000000E+00  0.00000000000E+00  0.15736543128E+03  0.15736543128E+03  0.00000000000E+00 0.  1.
         -2   -1    0    0    0  501 -0.00000000000E+00 -0.00000000000E+00 -0.12629333081E+03  0.12629333081E+03  0.00000000000E+00 0.  1.
         25    1    1    2    0    0 -0.55691977021E+02 -0.22505717158E+02 -0.27923866242E+02  0.13706876346E+03  0.12000000000E+03 0.  0.
         25    1    1    2    0    0  0.55691977021E+02  0.22505717158E+02  0.58995966715E+02  0.14658999863E+03  0.12000000000E+03 0.  0.
<mgrwt>
<rscale>  0 0.28195180E+03</rscale>
<asrwt>0</asrwt>
<pdfrwt beam="1">  1        2 0.24210066E-01 0.28195180E+03</pdfrwt>
<pdfrwt beam="2">  1       -2 0.19429743E-01 0.28195180E+03</pdfrwt>
<totfact> 0.49016636E+03</totfact>
</mgrwt>
</event>
<event>
 4    1  0.1749575E-004  0.2699926E+03  0.7818608E-02  0.1101284E+00
         -1   -1    0    0    0  501 -0.00000000000E+00  0.00000000000E+00  0.52634872151E+02  0.52634872151E+02  0.00000000000E+00 0.  1.
          1   -1    0    0  501    0  0.00000000000E+00 -0.00000000000E+00 -0.34623440222E+03  0.34623440222E+03  0.00000000000E+00 0.  1.
         25    1    1    2    0    0  0.22956738719E+02 -0.42619027657E+02 -0.20364565234E+03  0.24127773434E+03  0.12000000000E+03 0.  0.
         25    1    1    2    0    0 -0.22956738719E+02  0.42619027657E+02 -0.89953877731E+02  0.15759154003E+03  0.12000000000E+03 0.  0.
<mgrwt>
<rscale>  0 0.26999262E+03</rscale>
<asrwt>0</asrwt>
<pdfrwt beam="1">  1        1 0.53266830E-01 0.26999262E+03</pdfrwt>
<pdfrwt beam="2">  1       -1 0.80976727E-02 0.26999262E+03</pdfrwt>
<totfact> 0.61219341E+03</totfact>
</mgrwt>
</event>
<event>
 4    1  0.1749575E-004  0.2411186E+03  0.7818608E-02  0.1119050E+00
         -4   -1    0    0    0  501 -0.00000000000E+00  0.00000000000E+00  0.59393558869E+03  0.59393558869E+03  0.00000000000E+00 0. -1.
          4   -1    0    0  501    0  0.00000000000E+00 -0.00000000000E+00 -0.24471587395E+02  0.24471587395E+02  0.00000000000E+00 0. -1.
         25    1    1    2    0    0  0.52444184053E+01  0.93417180331E+01  0.29613719055E+03  0.31970612639E+03  0.12000000000E+03 0.  0.
         25    1    1    2    0    0 -0.52444184053E+01 -0.93417180331E+01  0.27332681074E+03  0.29870104970E+03  0.12000000000E+03 0.  0.
<mgrwt>
<rscale>  0 0.24111862E+03</rscale>
<asrwt>0</asrwt>
<pdfrwt beam="1">  1        4 0.37648600E-02 0.24111862E+03</pdfrwt>
<pdfrwt beam="2">  1       -4 0.91374695E-01 0.24111862E+03</pdfrwt>
<totfact> 0.72913004E+02</totfact>
</mgrwt>
</event>
<event>
 4    1  0.1749575E-004  0.2482837E+03  0.7818608E-02  0.1114394E+00
          2   -1    0    0  501    0  0.00000000000E+00  0.00000000000E+00  0.11093447721E+03  0.11093447721E+03  0.00000000000E+00 0.  1.
         -2   -1    0    0    0  501 -0.00000000000E+00 -0.00000000000E+00 -0.13892158584E+03  0.13892158584E+03  0.00000000000E+00 0.  1.
         25    1    1    2    0    0 -0.16861867365E+02  0.17597432865E+02  0.65613083038E+01  0.12262562123E+03  0.12000000000E+03 0.  0.
         25    1    1    2    0    0  0.16861867365E+02 -0.17597432865E+02 -0.34548416931E+02  0.12723044182E+03  0.12000000000E+03 0.  0.
<mgrwt>
<rscale>  0 0.24828366E+03</rscale>
<asrwt>0</asrwt>
<pdfrwt beam="1">  1        2 0.17066843E-01 0.24828366E+03</pdfrwt>
<pdfrwt beam="2">  1       -2 0.21372551E-01 0.24828366E+03</pdfrwt>
<totfact> 0.61776794E+03</totfact>
</mgrwt>
</event>
<event>
 4    1  0.1749575E-004  0.2744896E+03  0.7818608E-02  0.1098737E+00
         -2   -1    0    0    0  501 -0.00000000000E+00  0.00000000000E+00  0.16085584977E+03  0.16085584977E+03  0.00000000000E+00 0.  1.
          2   -1    0    0  501    0  0.00000000000E+00 -0.00000000000E+00 -0.11709944343E+03  0.11709944343E+03  0.00000000000E+00 0.  1.
         25    1    1    2    0    0  0.34922732117E+02 -0.69923897671E+00 -0.35548002381E+02  0.12993747199E+03  0.12000000000E+03 0.  0.
         25    1    1    2    0    0 -0.34922732117E+02  0.69923897671E+00  0.79304408718E+02  0.14801782121E+03  0.12000000000E+03 0.  0.
<mgrwt>
<rscale>  0 0.27448957E+03</rscale>
<asrwt>0</asrwt>
<pdfrwt beam="1">  1        2 0.18015299E-01 0.27448957E+03</pdfrwt>
<pdfrwt beam="2">  1       -2 0.24747054E-01 0.27448957E+03</pdfrwt>
<totfact> 0.45109594E+03</totfact>
</mgrwt>
</event>
<event>
 4    1  0.1749575E-004  0.3190037E+03  0.7818608E-02  0.1076109E+00
          2   -1    0    0  501    0  0.00000000000E+00  0.00000000000E+00  0.31677794264E+04  0.31677794264E+04  0.00000000000E+00 0. -1.
         -2   -1    0    0    0  501 -0.00000000000E+00 -0.00000000000E+00 -0.80311288134E+01  0.80311288134E+01  0.00000000000E+00 0. -1.
         25    1    1    2    0    0 -0.22884365554E+02  0.20261010360E+02  0.25807086504E+04  0.25836778710E+04  0.12000000000E+03 0.  0.
         25    1    1    2    0    0  0.22884365554E+02 -0.20261010360E+02  0.57903964722E+03  0.59213268427E+03  0.12000000000E+03 0.  0.
<mgrwt>
<rscale>  0 0.31900373E+03</rscale>
<asrwt>0</asrwt>
<pdfrwt beam="1">  1        2 0.48734968E+00 0.31900373E+03</pdfrwt>
<pdfrwt beam="2">  1       -2 0.12355608E-02 0.31900373E+03</pdfrwt>
<totfact> 0.25733405E+03</totfact>
</mgrwt>
</event>
<event>
 4    1  0.1749575E-004  0.3002125E+03  0.7818608E-02  0.1085134E+00
          4   -1    0    0  501    0  0.00000000000E+00  0.00000000000E+00  0.32600518819E+03  0.32600518819E+03  0.00000000000E+00 0.  1.
         -4   -1    0    0    0  501 -0.00000000000E+00 -0.00000000000E+00 -0.69115115767E+02  0.69115115767E+02  0.00000000000E+00 0.  1.
         25    1    1    2    0    0  0.82167273735E+02 -0.37101689302E+02  0.13104089449E+03  0.19924786636E+03  0.12000000000E+03 0.  0.
         25    1    1    2    0    0 -0.82167273735E+02  0.37101689302E+02  0.12584917794E+03  0.19587243759E+03  0.12000000000E+03 0.  0.
<mgrwt>
<rscale>  0 0.30021250E+03</rscale>
<asrwt>0</asrwt>
<pdfrwt beam="1">  1        4 0.50154643E-01 0.30021250E+03</pdfrwt>
<pdfrwt beam="2">  1       -4 0.10633095E-01 0.30021250E+03</pdfrwt>
<totfact> 0.49900979E+02</totfact>
</mgrwt>
</event>
<event>
 4    1  0.1749575E-004  0.3489048E+03  0.7818608E-02  0.1063065E+00
          2   -1    0    0  501    0  0.00000000000E+00  0.00000000000E+00  0.99981373594E+03  0.99981373594E+03  0.00000000000E+00 0. -1.
         -2   -1    0    0    0  501 -0.00000000000E+00 -0.00000000000E+00 -0.30439301440E+02  0.30439301440E+02  0.00000000000E+00 0. -1.
         25    1    1    2    0    0  0.25680934973E+02  0.11965118148E+03  0.58072045324E+03  0.60548506213E+03  0.12000000000E+03 0.  0.
         25    1    1    2    0    0 -0.25680934973E+02 -0.11965118148E+03  0.38865398126E+03  0.42476797525E+03  0.12000000000E+03 0.  0.
<mgrwt>
<rscale>  0 0.34890475E+03</rscale>
<asrwt>0</asrwt>
<pdfrwt beam="1">  1        2 0.15381747E+00 0.34890475E+03</pdfrwt>
<pdfrwt beam="2">  1       -2 0.46829702E-02 0.34890475E+03</pdfrwt>
<totfact> 0.57057215E+03</totfact>
</mgrwt>
</event>
<event>
 4    1  0.1749575E-004  0.2650931E+03  0.7818608E-02  0.1104121E+00
          1   -1    0    0  501    0  0.00000000000E+00  0.00000000000E+00  0.32159062662E+03  0.32159062662E+03  0.00000000000E+00 0. -1.
         -1   -1    0    0    0  501 -0.00000000000E+00 -0.00000000000E+00 -0.54630284717E+02  0.54630284717E+02  0.00000000000E+00 0. -1.
         25    1    1    2    0    0 -0.28215381611E+02 -0.28618770601E+01  0.20248743825E+03  0.23707690893E+03  0.12000000000E+03 0.  0.
         25    1    1    2    0    0  0.28215381611E+02  0.28618770601E+01  0.64472903654E+02  0.13914400241E+03  0.12000000000E+03 0.  0.
<mgrwt>
<rscale>  0 0.26509310E+03</rscale>
<asrwt>0</asrwt>
<pdfrwt beam="1">  1        1 0.49475479E-01 0.26509310E+03</pdfrwt>
<pdfrwt beam="2">  1       -1 0.84046595E-02 0.26509310E+03</pdfrwt>
<totfact> 0.63447533E+03</totfact>
</mgrwt>
</event>
<event>
 4    1  0.1749575E-004  0.2987250E+03  0.7818608E-02  0.1085880E+00
          2   -1    0    0  501    0  0.00000000000E+00  0.00000000000E+00  0.35501349972E+04  0.35501349972E+04  0.00000000000E+00 0. -1.
         -2   -1    0    0    0  501 -0.00000000000E+00 -0.00000000000E+00 -0.62840313545E+01  0.62840313545E+01  0.00000000000E+00 0. -1.
         25    1    1    2    0    0 -0.22723475753E+02  0.16263534693E+02  0.76676748968E+03  0.77660365834E+03  0.12000000000E+03 0.  0.
         25    1    1    2    0    0  0.22723475753E+02 -0.16263534693E+02  0.27770834762E+04  0.27798153702E+04  0.12000000000E+03 0.  0.
<mgrwt>
<rscale>  0 0.29872502E+03</rscale>
<asrwt>0</asrwt>
<pdfrwt beam="1">  1        2 0.54617301E+00 0.29872502E+03</pdfrwt>
<pdfrwt beam="2">  1       -2 0.96677689E-03 0.29872502E+03</pdfrwt>
<totfact> 0.20954142E+03</totfact>
</mgrwt>
</event>
<event>
 4    1  0.1749575E-004  0.2635293E+03  0.7818608E-02  0.1105041E+00
          1   -1    0    0  501    0  0.00000000000E+00  0.00000000000E+00  0.17825747373E+03  0.17825747373E+03  0.00000000000E+00 0.  1.
         -1   -1    0    0    0  501 -0.00000000000E+00 -0.00000000000E+00 -0.97398037897E+02  0.97398037897E+02  0.00000000000E+00 0.  1.
         25    1    1    2    0    0 -0.14951041774E+01  0.35424769883E+02 -0.27591370384E+01  0.12515894892E+03  0.12000000000E+03 0.  0.
         25    1    1    2    0    0  0.14951041774E+01 -0.35424769883E+02  0.83618572873E+02  0.15049656271E+03  0.12000000000E+03 0.  0.
<mgrwt>
<rscale>  0 0.26352934E+03</rscale>
<asrwt>0</asrwt>
<pdfrwt beam="1">  1        1 0.27424227E-01 0.26352934E+03</pdfrwt>
<pdfrwt beam="2">  1       -1 0.14984314E-01 0.26352934E+03</pdfrwt>
<totfact> 0.54176060E+03</totfact>
</mgrwt>
</event>
<event>
 4    1  0.1749575E-004  0.2908344E+03  0.7818608E-02  0.1089914E+00
         -2   -1    0    0    0  501 -0.00000000000E+00  0.00000000000E+00  0.16180192284E+02  0.16180192284E+02  0.00000000000E+00 0. -1.
          2   -1    0    0  501    0  0.00000000000E+00 -0.00000000000E+00 -0.13069165171E+04  0.13069165171E+04  0.00000000000E+00 0. -1.
         25    1    1    2    0    0 -0.17774381263E+02 -0.40694161871E+02 -0.33103014232E+03  0.35489843415E+03  0.12000000000E+03 0.  0.
         25    1    1    2    0    0  0.17774381263E+02  0.40694161871E+02 -0.95970618253E+03  0.96819827526E+03  0.12000000000E+03 0.  0.
<mgrwt>
<rscale>  0 0.29083439E+03</rscale>
<asrwt>0</asrwt>
<pdfrwt beam="1">  1        2 0.20106407E+00 0.29083439E+03</pdfrwt>
<pdfrwt beam="2">  1       -2 0.24892604E-02 0.29083439E+03</pdfrwt>
<totfact> 0.97351409E+03</totfact>
</mgrwt>
</event>
<event>
 4    1  0.1749575E-004  0.2461671E+03  0.7818608E-02  0.1115751E+00
          2   -1    0    0  501    0  0.00000000000E+00  0.00000000000E+00  0.18014952956E+04  0.18014952956E+04  0.00000000000E+00 0. -1.
         -2   -1    0    0    0  501 -0.00000000000E+00 -0.00000000000E+00 -0.84094369920E+01  0.84094369920E+01  0.00000000000E+00 0. -1.
         25    1    1    2    0    0  0.17353875041E+02  0.29747796588E+01  0.74239693279E+03  0.75223879992E+03  0.12000000000E+03 0.  0.
         25    1    1    2    0    0 -0.17353875041E+02 -0.29747796588E+01  0.10506889258E+04  0.10576659327E+04  0.12000000000E+03 0.  0.
<mgrwt>
<rscale>  0 0.24616711E+03</rscale>
<asrwt>0</asrwt>
<pdfrwt beam="1">  1        2 0.27715282E+00 0.24616711E+03</pdfrwt>
<pdfrwt beam="2">  1       -2 0.12937610E-02 0.24616711E+03</pdfrwt>
<totfact> 0.13795308E+04</totfact>
</mgrwt>
</event>
<event>
 4    1  0.1749575E-004  0.3059885E+03  0.7818608E-02  0.1082285E+00
          1   -1    0    0  501    0  0.00000000000E+00  0.00000000000E+00  0.25119998628E+03  0.25119998628E+03  0.00000000000E+00 0. -1.
         -1   -1    0    0    0  501 -0.00000000000E+00 -0.00000000000E+00 -0.93181711617E+02  0.93181711617E+02  0.00000000000E+00 0. -1.
         25    1    1    2    0    0  0.52074470536E+02  0.66316388128E+02  0.29981520031E+02  0.14969470719E+03  0.12000000000E+03 0.  0.
         25    1    1    2    0    0 -0.52074470536E+02 -0.66316388128E+02  0.12803675463E+03  0.19468699071E+03  0.12000000000E+03 0.  0.
<mgrwt>
<rscale>  0 0.30598853E+03</rscale>
<asrwt>0</asrwt>
<pdfrwt beam="1">  1        1 0.38646151E-01 0.30598853E+03</pdfrwt>
<pdfrwt beam="2">  1       -1 0.14335648E-01 0.30598853E+03</pdfrwt>
<totfact> 0.37872984E+03</totfact>
</mgrwt>
</event>
<event>
 4    1  0.1749575E-004  0.2472197E+03  0.7818608E-02  0.1115075E+00
          2   -1    0    0  501    0  0.00000000000E+00  0.00000000000E+00  0.48411516673E+03  0.48411516673E+03  0.00000000000E+00 0. -1.
         -2   -1    0    0    0  501 -0.00000000000E+00 -0.00000000000E+00 -0.31561500349E+02  0.31561500349E+02  0.00000000000E+00 0. -1.
         25    1    1    2    0    0 -0.16436938110E+01  0.15878383570E+02  0.27840675096E+03  0.30358712716E+03  0.12000000000E+03 0.  0.
         25    1    1    2    0    0  0.16436938110E+01 -0.15878383570E+02  0.17414691542E+03  0.21208953992E+03  0.12000000000E+03 0.  0.
<mgrwt>
<rscale>  0 0.24721975E+03</rscale>
<asrwt>0</asrwt>
<pdfrwt beam="1">  1        2 0.74479251E-01 0.24721975E+03</pdfrwt>
<pdfrwt beam="2">  1       -2 0.48556158E-02 0.24721975E+03</pdfrwt>
<totfact> 0.13054265E+04</totfact>
</mgrwt>
</event>
<event>
 4    1  0.1749575E-004  0.4347558E+03  0.7818608E-02  0.1032368E+00
          1   -1    0    0  501    0  0.00000000000E+00  0.00000000000E+00  0.91499904191E+03  0.91499904191E+03  0.00000000000E+00 0. -1.
         -1   -1    0    0    0  501 -0.00000000000E+00 -0.00000000000E+00 -0.51642834815E+02  0.51642834815E+02  0.00000000000E+00 0. -1.
         25    1    1    2    0    0  0.74407785473E+02 -0.13203773701E+03  0.65271115586E+03  0.68073661244E+03  0.12000000000E+03 0.  0.
         25    1    1    2    0    0 -0.74407785473E+02  0.13203773701E+03  0.21064505124E+03  0.28590526429E+03  0.12000000000E+03 0.  0.
<mgrwt>
<rscale>  0 0.43475577E+03</rscale>
<asrwt>0</asrwt>
<pdfrwt beam="1">  1        1 0.14076907E+00 0.43475577E+03</pdfrwt>
<pdfrwt beam="2">  1       -1 0.79450522E-02 0.43475577E+03</pdfrwt>
<totfact> 0.16175659E+03</totfact>
</mgrwt>
</event>
<event>
 4    1  0.1749575E-004  0.2495458E+03  0.7818608E-02  0.1113592E+00
          2   -1    0    0  501    0  0.00000000000E+00  0.00000000000E+00  0.23361584533E+04  0.23361584533E+04  0.00000000000E+00 0.  1.
         -2   -1    0    0    0  501 -0.00000000000E+00 -0.00000000000E+00 -0.66640491411E+01  0.66640491411E+01  0.00000000000E+00 0.  1.
         25    1    1    2    0    0  0.29671361890E+02  0.12863696120E+02  0.12686191318E+04  0.12746922633E+04  0.12000000000E+03 0.  0.
         25    1    1    2    0    0 -0.29671361890E+02 -0.12863696120E+02  0.10608752724E+04  0.10681302392E+04  0.12000000000E+03 0.  0.
<mgrwt>
<rscale>  0 0.24954579E+03</rscale>
<asrwt>0</asrwt>
<pdfrwt beam="1">  1        2 0.35940834E+00 0.24954579E+03</pdfrwt>
<pdfrwt beam="2">  1       -2 0.10252402E-02 0.24954579E+03</pdfrwt>
<totfact> 0.10111454E+04</totfact>
</mgrwt>
</event>
<event>
 4    1  0.1749575E-004  0.3046911E+03  0.7818608E-02  0.1082919E+00
          2   -1    0    0  501    0  0.00000000000E+00  0.00000000000E+00  0.85354082890E+03  0.85354082890E+03  0.00000000000E+00 0.  1.
         -2   -1    0    0    0  501 -0.00000000000E+00 -0.00000000000E+00 -0.27191636305E+02  0.27191636305E+02  0.00000000000E+00 0.  1.
         25    1    1    2    0    0 -0.12111292230E+02 -0.14444604440E+02  0.67894783349E+03  0.68972856299E+03  0.12000000000E+03 0.  0.
         25    1    1    2    0    0  0.12111292230E+02  0.14444604440E+02  0.14740135911E+03  0.19100390222E+03  0.12000000000E+03 0.  0.
<mgrwt>
<rscale>  0 0.30469113E+03</rscale>
<asrwt>0</asrwt>
<pdfrwt beam="1">  1        2 0.13131395E+00 0.30469113E+03</pdfrwt>
<pdfrwt beam="2">  1       -2 0.41833293E-02 0.30469113E+03</pdfrwt>
<totfact> 0.83824258E+03</totfact>
</mgrwt>
</event>
<event>
 4    1  0.1749575E-004  0.3472810E+03  0.7818608E-02  0.1063737E+00
          2   -1    0    0  501    0  0.00000000000E+00  0.00000000000E+00  0.27910757181E+04  0.27910757181E+04  0.00000000000E+00 0. -1.
         -2   -1    0    0    0  501 -0.00000000000E+00 -0.00000000000E+00 -0.10802652786E+02  0.10802652786E+02  0.00000000000E+00 0. -1.
         25    1    1    2    0    0 -0.68578438050E+02  0.15250274919E+02  0.55108132236E+03  0.56835393630E+03  0.12000000000E+03 0.  0.
         25    1    1    2    0    0  0.68578438050E+02 -0.15250274919E+02  0.22291917430E+04  0.22335244346E+04  0.12000000000E+03 0.  0.
<mgrwt>
<rscale>  0 0.34728099E+03</rscale>
<asrwt>0</asrwt>
<pdfrwt beam="1">  1        2 0.42939569E+00 0.34728099E+03</pdfrwt>
<pdfrwt beam="2">  1       -2 0.16619488E-02 0.34728099E+03</pdfrwt>
<totfact> 0.27808652E+03</totfact>
</mgrwt>
</event>
<event>
 4    1  0.1749575E-004  0.2790725E+03  0.7818608E-02  0.1096197E+00
          2   -1    0    0  501    0  0.00000000000E+00  0.00000000000E+00  0.10020322633E+04  0.10020322633E+04  0.00000000000E+00 0. -1.
         -2   -1    0    0    0  501 -0.00000000000E+00 -0.00000000000E+00 -0.19430879591E+02  0.19430879591E+02  0.00000000000E+00 0. -1.
         25    1    1    2    0    0  0.22698774081E+02 -0.52086725529E+02  0.33420544651E+03  0.35961304453E+03  0.12000000000E+03 0.  0.
         25    1    1    2    0    0 -0.22698774081E+02  0.52086725529E+02  0.64839593720E+03  0.66185009836E+03  0.12000000000E+03 0.  0.
<mgrwt>
<rscale>  0 0.27907252E+03</rscale>
<asrwt>0</asrwt>
<pdfrwt beam="1">  1        2 0.15415877E+00 0.27907252E+03</pdfrwt>
<pdfrwt beam="2">  1       -2 0.29893669E-02 0.27907252E+03</pdfrwt>
<totfact> 0.11127511E+04</totfact>
</mgrwt>
</event>
<event>
 4    1  0.1749575E-004  0.2773071E+03  0.7818608E-02  0.1097169E+00
         -2   -1    0    0    0  501 -0.00000000000E+00  0.00000000000E+00  0.11562015771E+02  0.11562015771E+02  0.00000000000E+00 0. -1.
          2   -1    0    0  501    0  0.00000000000E+00 -0.00000000000E+00 -0.16627562195E+04  0.16627562195E+04  0.00000000000E+00 0. -1.
         25    1    1    2    0    0  0.42415306959E+02  0.32723913539E+02 -0.55864133309E+03  0.57389027855E+03  0.12000000000E+03 0.  0.
         25    1    1    2    0    0 -0.42415306959E+02 -0.32723913539E+02 -0.10925528706E+04  0.11004279567E+04  0.12000000000E+03 0.  0.
<mgrwt>
<rscale>  0 0.27730715E+03</rscale>
<asrwt>0</asrwt>
<pdfrwt beam="1">  1        2 0.25580886E+00 0.27730715E+03</pdfrwt>
<pdfrwt beam="2">  1       -2 0.17787702E-02 0.27730715E+03</pdfrwt>
<totfact> 0.10271190E+04</totfact>
</mgrwt>
</event>
<event>
 4    1  0.1749575E-004  0.4304949E+03  0.7818608E-02  0.1033704E+00
          2   -1    0    0  501    0  0.00000000000E+00  0.00000000000E+00  0.87340127425E+03  0.87340127425E+03  0.00000000000E+00 0. -1.
         -2   -1    0    0    0  501 -0.00000000000E+00 -0.00000000000E+00 -0.53047173582E+02  0.53047173582E+02  0.00000000000E+00 0. -1.
         25    1    1    2    0    0 -0.43944241201E+02  0.17319193490E+03  0.41495361899E+03  0.46745379297E+03  0.12000000000E+03 0.  0.
         25    1    1    2    0    0  0.43944241201E+02 -0.17319193490E+03  0.40540048167E+03  0.45899465486E+03  0.12000000000E+03 0.  0.
<mgrwt>
<rscale>  0 0.43049492E+03</rscale>
<asrwt>0</asrwt>
<pdfrwt beam="1">  1        2 0.13436942E+00 0.43049492E+03</pdfrwt>
<pdfrwt beam="2">  1       -2 0.81611043E-02 0.43049492E+03</pdfrwt>
<totfact> 0.29102146E+03</totfact>
</mgrwt>
</event>
<event>
 4    1  0.1749575E-004  0.2486728E+03  0.7818608E-02  0.1114146E+00
          2   -1    0    0  501    0  0.00000000000E+00  0.00000000000E+00  0.78959666525E+03  0.78959666525E+03  0.00000000000E+00 0. -1.
         -2   -1    0    0    0  501 -0.00000000000E+00 -0.00000000000E+00 -0.19579033188E+02  0.19579033188E+02  0.00000000000E+00 0. -1.
         25    1    1    2    0    0 -0.16019391471E+01 -0.13739799987E+02  0.28913010171E+03  0.31334894930E+03  0.12000000000E+03 0.  0.
         25    1    1    2    0    0  0.16019391471E+01  0.13739799987E+02  0.48088753036E+03  0.49582674914E+03  0.12000000000E+03 0.  0.
<mgrwt>
<rscale>  0 0.24867279E+03</rscale>
<asrwt>0</asrwt>
<pdfrwt beam="1">  1        2 0.12147639E+00 0.24867279E+03</pdfrwt>
<pdfrwt beam="2">  1       -2 0.30121596E-02 0.24867279E+03</pdfrwt>
<totfact> 0.15047879E+04</totfact>
</mgrwt>
</event>
<event>
 4    1  0.1749575E-004  0.2785798E+03  0.7818608E-02  0.1096467E+00
         -1   -1    0    0    0  501 -0.00000000000E+00  0.00000000000E+00  0.25326520609E+02  0.25326520609E+02  0.00000000000E+00 0.  1.
          1   -1    0    0  501    0  0.00000000000E+00 -0.00000000000E+00 -0.76606171564E+03  0.76606171564E+03  0.00000000000E+00 0.  1.
         25    1    1    2    0    0  0.18810605109E+02 -0.64105197998E+02 -0.30445364230E+03  0.33399900536E+03  0.12000000000E+03 0.  0.
         25    1    1    2    0    0 -0.18810605109E+02  0.64105197998E+02 -0.43628155274E+03  0.45738923089E+03  0.12000000000E+03 0.  0.
<mgrwt>
<rscale>  0 0.27857981E+03</rscale>
<asrwt>0</asrwt>
<pdfrwt beam="1">  1        1 0.11785565E+00 0.27857981E+03</pdfrwt>
<pdfrwt beam="2">  1       -1 0.38963878E-02 0.27857981E+03</pdfrwt>
<totfact> 0.62884821E+03</totfact>
</mgrwt>
</event>
<event>
 4    1  0.1749575E-004  0.2566919E+03  0.7818608E-02  0.1109147E+00
          1   -1    0    0  501    0  0.00000000000E+00  0.00000000000E+00  0.62832256763E+02  0.62832256763E+02  0.00000000000E+00 0.  1.
         -1   -1    0    0    0  501 -0.00000000000E+00 -0.00000000000E+00 -0.26216920911E+03  0.26216920911E+03  0.00000000000E+00 0.  1.
         25    1    1    2    0    0 -0.18631906908E+02 -0.27221966253E+02 -0.59941918190E+02  0.13813477823E+03  0.12000000000E+03 0.  0.
         25    1    1    2    0    0  0.18631906908E+02  0.27221966253E+02 -0.13939503416E+03  0.18686668764E+03  0.12000000000E+03 0.  0.
<mgrwt>
<rscale>  0 0.25669190E+03</rscale>
<asrwt>0</asrwt>
<pdfrwt beam="1">  1        1 0.96665009E-02 0.25669190E+03</pdfrwt>
<pdfrwt beam="2">  1       -1 0.40333725E-01 0.25669190E+03</pdfrwt>
<totfact> 0.40526279E+03</totfact>
</mgrwt>
</event>
<event>
 4    1  0.1749575E-004  0.2944189E+03  0.7818608E-02  0.1088064E+00
         -2   -1    0    0    0  501 -0.00000000000E+00  0.00000000000E+00  0.62552762142E+02  0.62552762142E+02  0.00000000000E+00 0. -1.
          2   -1    0    0  501    0  0.00000000000E+00 -0.00000000000E+00 -0.34643753220E+03  0.34643753220E+03  0.00000000000E+00 0. -1.
         25    1    1    2    0    0 -0.15901839146E-01  0.34176570311E+02 -0.33423765967E+02  0.12917115136E+03  0.12000000000E+03 0.  0.
         25    1    1    2    0    0  0.15901839146E-01 -0.34176570311E+02 -0.25046100409E+03  0.27981914299E+03  0.12000000000E+03 0.  0.
<mgrwt>
<rscale>  0 0.29441892E+03</rscale>
<asrwt>0</asrwt>
<pdfrwt beam="1">  1        2 0.53298080E-01 0.29441892E+03</pdfrwt>
<pdfrwt beam="2">  1       -2 0.96235022E-02 0.29441892E+03</pdfrwt>
<totfact> 0.65714400E+03</totfact>
</mgrwt>
</event>
<event>
 4    1  0.1749575E-004  0.2628354E+03  0.7818608E-02  0.1105452E+00
          4   -1    0    0  501    0  0.00000000000E+00  0.00000000000E+00  0.10296256118E+04  0.10296256118E+04  0.00000000000E+00 0.  1.
         -4   -1    0    0    0  501 -0.00000000000E+00 -0.00000000000E+00 -0.16773687602E+02  0.16773687602E+02  0.00000000000E+00 0.  1.
         25    1    1    2    0    0 -0.31230873568E+02 -0.40932244393E+02  0.44740183384E+03  0.46606782448E+03  0.12000000000E+03 0.  0.
         25    1    1    2    0    0  0.31230873568E+02  0.40932244393E+02  0.56545009033E+03  0.58033147489E+03  0.12000000000E+03 0.  0.
<mgrwt>
<rscale>  0 0.26283545E+03</rscale>
<asrwt>0</asrwt>
<pdfrwt beam="1">  1        4 0.15840389E+00 0.26283545E+03</pdfrwt>
<pdfrwt beam="2">  1       -4 0.25805681E-02 0.26283545E+03</pdfrwt>
<totfact> 0.34908390E+02</totfact>
</mgrwt>
</event>
<event>
 4    1  0.1749575E-004  0.2500052E+03  0.7818608E-02  0.1113302E+00
         -2   -1    0    0    0  501 -0.00000000000E+00  0.00000000000E+00  0.30276287738E+02  0.30276287738E+02  0.00000000000E+00 0. -1.
          2   -1    0    0  501    0  0.00000000000E+00 -0.00000000000E+00 -0.51610190907E+03  0.51610190907E+03  0.00000000000E+00 0. -1.
         25    1    1    2    0    0 -0.34678713055E+02 -0.38680255270E+01 -0.24912320762E+03  0.27871122571E+03  0.12000000000E+03 0.  0.
         25    1    1    2    0    0  0.34678713055E+02  0.38680255270E+01 -0.23670241371E+03  0.26766697110E+03  0.12000000000E+03 0.  0.
<mgrwt>
<rscale>  0 0.25000520E+03</rscale>
<asrwt>0</asrwt>
<pdfrwt beam="1">  1        2 0.79400293E-01 0.25000520E+03</pdfrwt>
<pdfrwt beam="2">  1       -2 0.46578905E-02 0.25000520E+03</pdfrwt>
<totfact> 0.12950906E+04</totfact>
</mgrwt>
</event>
<event>
 4    1  0.1749575E-004  0.2579563E+03  0.7818608E-02  0.1108377E+00
          2   -1    0    0  501    0  0.00000000000E+00  0.00000000000E+00  0.61825965831E+03  0.61825965831E+03  0.00000000000E+00 0.  1.
         -2   -1    0    0    0  501 -0.00000000000E+00 -0.00000000000E+00 -0.26906753404E+02  0.26906753404E+02  0.00000000000E+00 0.  1.
         25    1    1    2    0    0  0.32377949839E+02 -0.34444256561E+02  0.29370437904E+03  0.32077562363E+03  0.12000000000E+03 0.  0.
         25    1    1    2    0    0 -0.32377949839E+02  0.34444256561E+02  0.29764852586E+03  0.32439078808E+03  0.12000000000E+03 0.  0.
<mgrwt>
<rscale>  0 0.25795628E+03</rscale>
<asrwt>0</asrwt>
<pdfrwt beam="1">  1        2 0.95116860E-01 0.25795628E+03</pdfrwt>
<pdfrwt beam="2">  1       -2 0.41395010E-02 0.25795628E+03</pdfrwt>
<totfact> 0.12604077E+04</totfact>
</mgrwt>
</event>
<event>
 4    1  0.1749575E-004  0.2462255E+03  0.7818608E-02  0.1115714E+00
          2   -1    0    0  501    0  0.00000000000E+00  0.00000000000E+00  0.16941532348E+04  0.16941532348E+04  0.00000000000E+00 0. -1.
         -2   -1    0    0    0  501 -0.00000000000E+00 -0.00000000000E+00 -0.89465068082E+01  0.89465068082E+01  0.00000000000E+00 0. -1.
         25    1    1    2    0    0 -0.12401025152E+02  0.24342278050E+02  0.86493253522E+03  0.87364444851E+03  0.12000000000E+03 0.  0.
         25    1    1    2    0    0  0.12401025152E+02 -0.24342278050E+02  0.82027419275E+03  0.82945529308E+03  0.12000000000E+03 0.  0.
<mgrwt>
<rscale>  0 0.24622553E+03</rscale>
<asrwt>0</asrwt>
<pdfrwt beam="1">  1        2 0.26063870E+00 0.24622553E+03</pdfrwt>
<pdfrwt beam="2">  1       -2 0.13763870E-02 0.24622553E+03</pdfrwt>
<totfact> 0.14348507E+04</totfact>
</mgrwt>
</event>
<event>
 4    1  0.1749575E-004  0.2979439E+03  0.7818608E-02  0.1086273E+00
         -2   -1    0    0    0  501 -0.00000000000E+00  0.00000000000E+00  0.20222436758E+03  0.20222436758E+03  0.00000000000E+00 0.  1.
          2   -1    0    0  501    0  0.00000000000E+00 -0.00000000000E+00 -0.10974264995E+03  0.10974264995E+03  0.00000000000E+00 0.  1.
         25    1    1    2    0    0  0.64111237465E+02  0.23440673243E+02  0.10484779467E+03  0.17335736494E+03  0.12000000000E+03 0.  0.
         25    1    1    2    0    0 -0.64111237465E+02 -0.23440673243E+02 -0.12366077042E+02  0.13860965260E+03  0.12000000000E+03 0.  0.
<mgrwt>
<rscale>  0 0.29794387E+03</rscale>
<asrwt>0</asrwt>
<pdfrwt beam="1">  1        2 0.16883485E-01 0.29794387E+03</pdfrwt>
<pdfrwt beam="2">  1       -2 0.31111441E-01 0.29794387E+03</pdfrwt>
<totfact> 0.32337426E+03</totfact>
</mgrwt>
</event>
<event>
 4    1  0.1749575E-004  0.2978360E+03  0.7818608E-02  0.1086327E+00
          2   -1    0    0  501    0  0.00000000000E+00  0.00000000000E+00  0.27340960151E+03  0.27340960151E+03  0.00000000000E+00 0. -1.
         -2   -1    0    0    0  501 -0.00000000000E+00 -0.00000000000E+00 -0.81111137809E+02  0.81111137809E+02  0.00000000000E+00 0. -1.
         25    1    1    2    0    0 -0.26879942712E+02  0.83375485635E+02  0.84094556402E+02  0.17072169558E+03  0.12000000000E+03 0.  0.
         25    1    1    2    0    0  0.26879942712E+02 -0.83375485635E+02  0.10820390730E+03  0.18379904374E+03  0.12000000000E+03 0.  0.
<mgrwt>
<rscale>  0 0.29783595E+03</rscale>
<asrwt>0</asrwt>
<pdfrwt beam="1">  1        2 0.42063015E-01 0.29783595E+03</pdfrwt>
<pdfrwt beam="2">  1       -2 0.12478637E-01 0.29783595E+03</pdfrwt>
<totfact> 0.55930992E+03</totfact>
</mgrwt>
</event>
<event>
 4    1  0.1749575E-004  0.3260584E+03  0.7818608E-02  0.1072894E+00
          3   -1    0    0  501    0  0.00000000000E+00  0.00000000000E+00  0.80390599497E+02  0.80390599497E+02  0.00000000000E+00 0.  1.
         -3   -1    0    0    0  501 -0.00000000000E+00 -0.00000000000E+00 -0.33061725569E+03  0.33061725569E+03  0.00000000000E+00 0.  1.
         25    1    1    2    0    0  0.74461535454E+02  0.94331839740E+00 -0.22777617672E+03  0.26800633723E+03  0.12000000000E+03 0.  0.
         25    1    1    2    0    0 -0.74461535454E+02 -0.94331839740E+00 -0.22450479477E+02  0.14300151797E+03  0.12000000000E+03 0.  0.
<mgrwt>
<rscale>  0 0.32605840E+03</rscale>
<asrwt>0</asrwt>
<pdfrwt beam="1">  1        3 0.12367784E-01 0.32605840E+03</pdfrwt>
<pdfrwt beam="2">  1       -3 0.50864194E-01 0.32605840E+03</pdfrwt>
<totfact> 0.51364200E+02</totfact>
</mgrwt>
</event>
<event>
 4    1  0.1749575E-004  0.3296101E+03  0.7818608E-02  0.1071309E+00
         -1   -1    0    0    0  501 -0.00000000000E+00  0.00000000000E+00  0.33527014355E+02  0.33527014355E+02  0.00000000000E+00 0. -1.
          1   -1    0    0  501    0  0.00000000000E+00 -0.00000000000E+00 -0.81011426602E+03  0.81011426602E+03  0.00000000000E+00 0. -1.
         25    1    1    2    0    0 -0.39570925329E+02 -0.17214744322E+02 -0.12109098172E+03  0.17585571190E+03  0.12000000000E+03 0.  0.
         25    1    1    2    0    0  0.39570925329E+02  0.17214744322E+02 -0.65549626994E+03  0.66778556848E+03  0.12000000000E+03 0.  0.
<mgrwt>
<rscale>  0 0.32961015E+03</rscale>
<asrwt>0</asrwt>
<pdfrwt beam="1">  1        1 0.12463295E+00 0.32961015E+03</pdfrwt>
<pdfrwt beam="2">  1       -1 0.51580027E-02 0.32961015E+03</pdfrwt>
<totfact> 0.38038749E+03</totfact>
</mgrwt>
</event>
<event>
 4    1  0.1749575E-004  0.2578767E+03  0.7818608E-02  0.1108426E+00
         -1   -1    0    0    0  501 -0.00000000000E+00  0.00000000000E+00  0.69561420317E+02  0.69561420317E+02  0.00000000000E+00 0. -1.
          1   -1    0    0  501    0  0.00000000000E+00 -0.00000000000E+00 -0.23899891344E+03  0.23899891344E+03  0.00000000000E+00 0. -1.
         25    1    1    2    0    0 -0.42293621086E+01 -0.16543218012E+02 -0.32104384799E+02  0.12538842486E+03  0.12000000000E+03 0.  0.
         25    1    1    2    0    0  0.42293621086E+01  0.16543218012E+02 -0.13733310832E+03  0.18317190889E+03  0.12000000000E+03 0.  0.
<mgrwt>
<rscale>  0 0.25787674E+03</rscale>
<asrwt>0</asrwt>
<pdfrwt beam="1">  1        1 0.36769064E-01 0.25787674E+03</pdfrwt>
<pdfrwt beam="2">  1       -1 0.10701757E-01 0.25787674E+03</pdfrwt>
<totfact> 0.63414307E+03</totfact>
</mgrwt>
</event>
<event>
 4    1  0.1749575E-004  0.2723337E+03  0.7818608E-02  0.1099951E+00
         -1   -1    0    0    0  501 -0.00000000000E+00  0.00000000000E+00  0.52677959746E+02  0.52677959746E+02  0.00000000000E+00 0. -1.
          1   -1    0    0  501    0  0.00000000000E+00 -0.00000000000E+00 -0.35197663286E+03  0.35197663286E+03  0.00000000000E+00 0. -1.
         25    1    1    2    0    0  0.51030854548E+02 -0.35175069710E+02 -0.12391415419E+03  0.18329252918E+03  0.12000000000E+03 0.  0.
         25    1    1    2    0    0 -0.51030854548E+02  0.35175069710E+02 -0.17538451892E+03  0.22136206342E+03  0.12000000000E+03 0.  0.
<mgrwt>
<rscale>  0 0.27233370E+03</rscale>
<asrwt>0</asrwt>
<pdfrwt beam="1">  1        1 0.54150248E-01 0.27233370E+03</pdfrwt>
<pdfrwt beam="2">  1       -1 0.81043020E-02 0.27233370E+03</pdfrwt>
<totfact> 0.59898658E+03</totfact>
</mgrwt>
</event>
<event>
 4    1  0.1749575E-004  0.3255335E+03  0.7818608E-02  0.1073130E+00
         -2   -1    0    0    0  501 -0.00000000000E+00  0.00000000000E+00  0.35062083536E+03  0.35062083536E+03  0.00000000000E+00 0.  1.
          2   -1    0    0  501    0  0.00000000000E+00 -0.00000000000E+00 -0.75560279579E+02  0.75560279579E+02  0.00000000000E+00 0.  1.
         25    1    1    2    0    0 -0.96725011266E+02 -0.83186744634E+01  0.20515383429E+03  0.25673531871E+03  0.12000000000E+03 0.  0.
         25    1    1    2    0    0  0.96725011266E+02  0.83186744634E+01  0.69906721486E+02  0.16944579622E+03  0.12000000000E+03 0.  0.
<mgrwt>
<rscale>  0 0.32553346E+03</rscale>
<asrwt>0</asrwt>
<pdfrwt beam="1">  1        2 0.11624659E-01 0.32553346E+03</pdfrwt>
<pdfrwt beam="2">  1       -2 0.53941666E-01 0.32553346E+03</pdfrwt>
<totfact> 0.17561419E+03</totfact>
</mgrwt>
</event>
<event>
 4    1  0.1749575E-004  0.2679066E+03  0.7818608E-02  0.1102484E+00
          2   -1    0    0  501    0  0.00000000000E+00  0.00000000000E+00  0.11349263587E+04  0.11349263587E+04  0.00000000000E+00 0.  1.
         -2   -1    0    0    0  501 -0.00000000000E+00 -0.00000000000E+00 -0.15810265125E+02  0.15810265125E+02  0.00000000000E+00 0.  1.
         25    1    1    2    0    0  0.13649581069E+02 -0.48884384470E+02  0.42595500993E+03  0.44543648772E+03  0.12000000000E+03 0.  0.
         25    1    1    2    0    0 -0.13649581069E+02  0.48884384470E+02  0.69316108366E+03  0.70530013611E+03  0.12000000000E+03 0.  0.
<mgrwt>
<rscale>  0 0.26790660E+03</rscale>
<asrwt>0</asrwt>
<pdfrwt beam="1">  1        2 0.17460399E+00 0.26790660E+03</pdfrwt>
<pdfrwt beam="2">  1       -2 0.24323494E-02 0.26790660E+03</pdfrwt>
<totfact> 0.12577690E+04</totfact>
</mgrwt>
</event>
<event>
 4    1  0.1749575E-004  0.2766941E+03  0.7818608E-02  0.1097508E+00
          2   -1    0    0  501    0  0.00000000000E+00  0.00000000000E+00  0.72953043655E+02  0.72953043655E+02  0.00000000000E+00 0.  1.
         -2   -1    0    0    0  501 -0.00000000000E+00 -0.00000000000E+00 -0.26235923099E+03  0.26235923099E+03  0.00000000000E+00 0.  1.
         25    1    1    2    0    0 -0.64642314398E+02  0.50144600568E+01 -0.12276291859E+03  0.18350615194E+03  0.12000000000E+03 0.  0.
         25    1    1    2    0    0  0.64642314398E+02 -0.50144600568E+01 -0.66643268744E+02  0.15180612270E+03  0.12000000000E+03 0.  0.
<mgrwt>
<rscale>  0 0.27669409E+03</rscale>
<asrwt>0</asrwt>
<pdfrwt beam="1">  1        2 0.11223545E-01 0.27669409E+03</pdfrwt>
<pdfrwt beam="2">  1       -2 0.40362959E-01 0.27669409E+03</pdfrwt>
<totfact> 0.32358908E+03</totfact>
</mgrwt>
</event>
<event>
 4    1  0.1749575E-004  0.3344252E+03  0.7818608E-02  0.1069195E+00
          2   -1    0    0  501    0  0.00000000000E+00  0.00000000000E+00  0.12560888197E+04  0.12560888197E+04  0.00000000000E+00 0. -1.
         -2   -1    0    0    0  501 -0.00000000000E+00 -0.00000000000E+00 -0.22259610674E+02  0.22259610674E+02  0.00000000000E+00 0. -1.
         25    1    1    2    0    0 -0.94602054905E+02 -0.18415569967E+02  0.36709087498E+03  0.39805074112E+03  0.12000000000E+03 0.  0.
         25    1    1    2    0    0  0.94602054905E+02  0.18415569967E+02  0.86673833406E+03  0.88029768927E+03  0.12000000000E+03 0.  0.
<mgrwt>
<rscale>  0 0.33442517E+03</rscale>
<asrwt>0</asrwt>
<pdfrwt beam="1">  1        2 0.19324438E+00 0.33442517E+03</pdfrwt>
<pdfrwt beam="2">  1       -2 0.34245565E-02 0.33442517E+03</pdfrwt>
<totfact> 0.64714442E+03</totfact>
</mgrwt>
</event>
<event>
 4    1  0.1749575E-004  0.3662790E+03  0.7818608E-02  0.1056125E+00
          2   -1    0    0  501    0  0.00000000000E+00  0.00000000000E+00  0.85258044109E+03  0.85258044109E+03  0.00000000000E+00 0.  1.
         -2   -1    0    0    0  501 -0.00000000000E+00 -0.00000000000E+00 -0.39339495555E+02  0.39339495555E+02  0.00000000000E+00 0.  1.
         25    1    1    2    0    0 -0.93301691747E+02 -0.19670423688E+02  0.65071194238E+03  0.66851938133E+03  0.12000000000E+03 0.  0.
         25    1    1    2    0    0  0.93301691747E+02  0.19670423688E+02  0.16252900315E+03  0.22340055532E+03  0.12000000000E+03 0.  0.
<mgrwt>
<rscale>  0 0.36627904E+03</rscale>
<asrwt>0</asrwt>
<pdfrwt beam="1">  1        2 0.13116621E+00 0.36627904E+03</pdfrwt>
<pdfrwt beam="2">  1       -2 0.60522308E-02 0.36627904E+03</pdfrwt>
<totfact> 0.47910948E+03</totfact>
</mgrwt>
</event>
<event>
 4    1  0.1749575E-004  0.3619356E+03  0.7818608E-02  0.1057820E+00
          1   -1    0    0  501    0  0.00000000000E+00  0.00000000000E+00  0.22348443889E+03  0.22348443889E+03  0.00000000000E+00 0. -1.
         -1   -1    0    0    0  501 -0.00000000000E+00 -0.00000000000E+00 -0.14653974647E+03  0.14653974647E+03  0.00000000000E+00 0. -1.
         25    1    1    2    0    0 -0.38394470980E+02  0.93405744315E+02 -0.53825832524E+02  0.16581914461E+03  0.12000000000E+03 0.  0.
         25    1    1    2    0    0  0.38394470980E+02 -0.93405744315E+02  0.13077052494E+03  0.20420504075E+03  0.12000000000E+03 0.  0.
<mgrwt>
<rscale>  0 0.36193565E+03</rscale>
<asrwt>0</asrwt>
<pdfrwt beam="1">  1        1 0.34382222E-01 0.36193565E+03</pdfrwt>
<pdfrwt beam="2">  1       -1 0.22544576E-01 0.36193565E+03</pdfrwt>
<totfact> 0.21153402E+03</totfact>
</mgrwt>
</event>
<event>
 4    1  0.1749575E-004  0.2784549E+03  0.7818608E-02  0.1096536E+00
         -2   -1    0    0    0  501 -0.00000000000E+00  0.00000000000E+00  0.31653101497E+02  0.31653101497E+02  0.00000000000E+00 0. -1.
          2   -1    0    0  501    0  0.00000000000E+00 -0.00000000000E+00 -0.61239737612E+03  0.61239737612E+03  0.00000000000E+00 0. -1.
         25    1    1    2    0    0 -0.14899113003E+02 -0.67867653327E+02 -0.26145808325E+03  0.29595325852E+03  0.12000000000E+03 0.  0.
         25    1    1    2    0    0  0.14899113003E+02  0.67867653327E+02 -0.31928619138E+03  0.34809721909E+03  0.12000000000E+03 0.  0.
<mgrwt>
<rscale>  0 0.27845485E+03</rscale>
<asrwt>0</asrwt>
<pdfrwt beam="1">  1        2 0.94214977E-01 0.27845485E+03</pdfrwt>
<pdfrwt beam="2">  1       -2 0.48697081E-02 0.27845485E+03</pdfrwt>
<totfact> 0.10000917E+04</totfact>
</mgrwt>
</event>
<event>
 4    1  0.1749575E-004  0.2494483E+03  0.7818608E-02  0.1113654E+00
         -1   -1    0    0    0  501 -0.00000000000E+00  0.00000000000E+00  0.16364282236E+02  0.16364282236E+02  0.00000000000E+00 0.  1.
          1   -1    0    0  501    0  0.00000000000E+00 -0.00000000000E+00 -0.95061355066E+03  0.95061355066E+03  0.00000000000E+00 0.  1.
         25    1    1    2    0    0  0.16997326594E+02 -0.14004305374E+02 -0.56754522878E+03  0.58051065140E+03  0.12000000000E+03 0.  0.
         25    1    1    2    0    0 -0.16997326594E+02  0.14004305374E+02 -0.36670403964E+03  0.38646718149E+03  0.12000000000E+03 0.  0.
<mgrwt>
<rscale>  0 0.24944826E+03</rscale>
<asrwt>0</asrwt>
<pdfrwt beam="1">  1        1 0.14624829E+00 0.24944826E+03</pdfrwt>
<pdfrwt beam="2">  1       -1 0.25175809E-02 0.24944826E+03</pdfrwt>
<totfact> 0.84810684E+03</totfact>
</mgrwt>
</event>
<event>
 4    1  0.1749575E-004  0.3754600E+03  0.7818608E-02  0.1052625E+00
          2   -1    0    0  501    0  0.00000000000E+00  0.00000000000E+00  0.34092457398E+02  0.34092457398E+02  0.00000000000E+00 0. -1.
         -2   -1    0    0    0  501 -0.00000000000E+00 -0.00000000000E+00 -0.10337346262E+04  0.10337346262E+04  0.00000000000E+00 0. -1.
         25    1    1    2    0    0  0.10165941844E+03  0.99309805838E+02 -0.42756436391E+03  0.46627069410E+03  0.12000000000E+03 0.  0.
         25    1    1    2    0    0 -0.10165941844E+03 -0.99309805838E+02 -0.57207780490E+03  0.60155638950E+03  0.12000000000E+03 0.  0.
<mgrwt>
<rscale>  0 0.37546000E+03</rscale>
<asrwt>0</asrwt>
<pdfrwt beam="1">  1        2 0.52449939E-02 0.37546000E+03</pdfrwt>
<pdfrwt beam="2">  1       -2 0.15903608E+00 0.37546000E+03</pdfrwt>
<totfact> 0.40277153E+02</totfact>
</mgrwt>
</event>
<event>
 4    1  0.1749575E-004  0.2674613E+03  0.7818608E-02  0.1102741E+00
         -2   -1    0    0    0  501 -0.00000000000E+00  0.00000000000E+00  0.14670818648E+02  0.14670818648E+02  0.00000000000E+00 0. -1.
          2   -1    0    0  501    0  0.00000000000E+00 -0.00000000000E+00 -0.12190110565E+04  0.12190110565E+04  0.00000000000E+00 0. -1.
         25    1    1    2    0    0  0.26631959791E+02 -0.38182687526E+02 -0.76954391338E+03  0.78023394795E+03  0.12000000000E+03 0.  0.
         25    1    1    2    0    0 -0.26631959791E+02  0.38182687526E+02 -0.43479632449E+03  0.45344792722E+03  0.12000000000E+03 0.  0.
<mgrwt>
<rscale>  0 0.26746133E+03</rscale>
<asrwt>0</asrwt>
<pdfrwt beam="1">  1        2 0.18754021E+00 0.26746133E+03</pdfrwt>
<pdfrwt beam="2">  1       -2 0.22570485E-02 0.26746133E+03</pdfrwt>
<totfact> 0.12573651E+04</totfact>
</mgrwt>
</event>
<event>
 4    1  0.1749575E-004  0.2467348E+03  0.7818608E-02  0.1115386E+00
         -2   -1    0    0    0  501 -0.00000000000E+00  0.00000000000E+00  0.47639504630E+03  0.47639504630E+03  0.00000000000E+00 0.  1.
          2   -1    0    0  501    0  0.00000000000E+00 -0.00000000000E+00 -0.31947247012E+02  0.31947247012E+02  0.00000000000E+00 0.  1.
         25    1    1    2    0    0 -0.13101869466E+02 -0.17235432333E+02  0.18363608371E+03  0.22043350551E+03  0.12000000000E+03 0.  0.
         25    1    1    2    0    0  0.13101869466E+02  0.17235432333E+02  0.26081171558E+03  0.28790878780E+03  0.12000000000E+03 0.  0.
<mgrwt>
<rscale>  0 0.24673476E+03</rscale>
<asrwt>0</asrwt>
<pdfrwt beam="1">  1        2 0.49149614E-02 0.24673476E+03</pdfrwt>
<pdfrwt beam="2">  1       -2 0.73291540E-01 0.24673476E+03</pdfrwt>
<totfact> 0.27553916E+03</totfact>
</mgrwt>
</event>
<event>
 4    1  0.1749575E-004  0.3178017E+03  0.7818608E-02  0.1076665E+00
         -1   -1    0    0    0  501 -0.00000000000E+00  0.00000000000E+00  0.32307586061E+02  0.32307586061E+02  0.00000000000E+00 0.  1.
          1   -1    0    0  501    0  0.00000000000E+00 -0.00000000000E+00 -0.78153425132E+03  0.78153425132E+03  0.00000000000E+00 0.  1.
         25    1    1    2    0    0 -0.39618250251E+02  0.69324668400E+02 -0.20332401796E+03  0.24923116113E+03  0.12000000000E+03 0.  0.
         25    1    1    2    0    0  0.39618250251E+02 -0.69324668400E+02 -0.54590264730E+03  0.56461067624E+03  0.12000000000E+03 0.  0.
<mgrwt>
<rscale>  0 0.31780173E+03</rscale>
<asrwt>0</asrwt>
<pdfrwt beam="1">  1        1 0.12023604E+00 0.31780173E+03</pdfrwt>
<pdfrwt beam="2">  1       -1 0.49703977E-02 0.31780173E+03</pdfrwt>
<totfact> 0.42496334E+03</totfact>
</mgrwt>
</event>
<event>
 4    1  0.1749575E-004  0.2695849E+03  0.7818608E-02  0.1101517E+00
          2   -1    0    0  501    0  0.00000000000E+00  0.00000000000E+00  0.80526216429E+03  0.80526216429E+03  0.00000000000E+00 0. -1.
         -2   -1    0    0    0  501 -0.00000000000E+00 -0.00000000000E+00 -0.22562849229E+02  0.22562849229E+02  0.00000000000E+00 0. -1.
         25    1    1    2    0    0  0.24744392527E+02 -0.39904305856E+02  0.51280390316E+03  0.52874614106E+03  0.12000000000E+03 0.  0.
         25    1    1    2    0    0 -0.24744392527E+02  0.39904305856E+02  0.26989541191E+03  0.29907887247E+03  0.12000000000E+03 0.  0.
<mgrwt>
<rscale>  0 0.26958493E+03</rscale>
<asrwt>0</asrwt>
<pdfrwt beam="1">  1        2 0.12388646E+00 0.26958493E+03</pdfrwt>
<pdfrwt beam="2">  1       -2 0.34712082E-02 0.26958493E+03</pdfrwt>
<totfact> 0.11919531E+04</totfact>
</mgrwt>
</event>
<event>
 4    1  0.1749575E-004  0.2663269E+03  0.7818608E-02  0.1103400E+00
          2   -1    0    0  501    0  0.00000000000E+00  0.00000000000E+00  0.92833640572E+03  0.92833640572E+03  0.00000000000E+00 0. -1.
         -2   -1    0    0    0  501 -0.00000000000E+00 -0.00000000000E+00 -0.19101382633E+02  0.19101382633E+02  0.00000000000E+00 0. -1.
         25    1    1    2    0    0  0.65846973362E+01 -0.56458391061E+02  0.41875967824E+03  0.43930692720E+03  0.12000000000E+03 0.  0.
         25    1    1    2    0    0 -0.65846973362E+01  0.56458391061E+02  0.49047534484E+03  0.50813086115E+03  0.12000000000E+03 0.  0.
<mgrwt>
<rscale>  0 0.26632693E+03</rscale>
<asrwt>0</asrwt>
<pdfrwt beam="1">  1        2 0.14282095E+00 0.26632693E+03</pdfrwt>
<pdfrwt beam="2">  1       -2 0.29386750E-02 0.26632693E+03</pdfrwt>
<totfact> 0.12667811E+04</totfact>
</mgrwt>
</event>
<event>
 4    1  0.1749575E-004  0.3597454E+03  0.7818608E-02  0.1058685E+00
          4   -1    0    0  501    0  0.00000000000E+00  0.00000000000E+00  0.13165543377E+03  0.13165543377E+03  0.00000000000E+00 0. -1.
         -4   -1    0    0    0  501 -0.00000000000E+00 -0.00000000000E+00 -0.24574894434E+03  0.24574894434E+03  0.00000000000E+00 0. -1.
         25    1    1    2    0    0  0.47940301028E+02 -0.66071046553E+02  0.54426027720E+02  0.15500273594E+03  0.12000000000E+03 0.  0.
         25    1    1    2    0    0 -0.47940301028E+02  0.66071046553E+02 -0.16851953829E+03  0.22240164217E+03  0.12000000000E+03 0.  0.
<mgrwt>
<rscale>  0 0.35974538E+03</rscale>
<asrwt>0</asrwt>
<pdfrwt beam="1">  1        4 0.20254682E-01 0.35974538E+03</pdfrwt>
<pdfrwt beam="2">  1       -4 0.37807530E-01 0.35974538E+03</pdfrwt>
<totfact> 0.28904103E+02</totfact>
</mgrwt>
</event>
<event>
 4    1  0.1749575E-004  0.5238301E+03  0.7818608E-02  0.1007740E+00
         -2   -1    0    0    0  501 -0.00000000000E+00  0.00000000000E+00  0.19318507739E+02  0.19318507739E+02  0.00000000000E+00 0. -1.
          2   -1    0    0  501    0  0.00000000000E+00 -0.00000000000E+00 -0.35509721585E+04  0.35509721585E+04  0.00000000000E+00 0. -1.
         25    1    1    2    0    0 -0.20691713831E+03  0.85124242925E+02 -0.22042991697E+04  0.22188726120E+04  0.12000000000E+03 0.  0.
         25    1    1    2    0    0  0.20691713831E+03 -0.85124242925E+02 -0.13273544811E+04  0.13514180542E+04  0.12000000000E+03 0.  0.
<mgrwt>
<rscale>  0 0.52383006E+03</rscale>
<asrwt>0</asrwt>
<pdfrwt beam="1">  1        2 0.54630317E+00 0.52383006E+03</pdfrwt>
<pdfrwt beam="2">  1       -2 0.29720794E-02 0.52383006E+03</pdfrwt>
<totfact> 0.38230259E+02</totfact>
</mgrwt>
</event>
<event>
 4    1  0.1749575E-004  0.3062644E+03  0.7818608E-02  0.1082150E+00
          2   -1    0    0  501    0  0.00000000000E+00  0.00000000000E+00  0.31953854521E+03  0.31953854521E+03  0.00000000000E+00 0.  1.
         -2   -1    0    0    0  501 -0.00000000000E+00 -0.00000000000E+00 -0.73385420939E+02  0.73385420939E+02  0.00000000000E+00 0.  1.
         25    1    1    2    0    0 -0.50338988808E+02 -0.56032886142E+01  0.19768190876E+02  0.13174290117E+03  0.12000000000E+03 0.  0.
         25    1    1    2    0    0  0.50338988808E+02  0.56032886142E+01  0.22638493340E+03  0.26118106499E+03  0.12000000000E+03 0.  0.
<mgrwt>
<rscale>  0 0.30626440E+03</rscale>
<asrwt>0</asrwt>
<pdfrwt beam="1">  1        2 0.49159776E-01 0.30626440E+03</pdfrwt>
<pdfrwt beam="2">  1       -2 0.11290065E-01 0.30626440E+03</pdfrwt>
<totfact> 0.55621383E+03</totfact>
</mgrwt>
</event>
<event>
 4    1  0.1749575E-004  0.2618518E+03  0.7818608E-02  0.1106036E+00
          2   -1    0    0  501    0  0.00000000000E+00  0.00000000000E+00  0.11980508343E+04  0.11980508343E+04  0.00000000000E+00 0.  1.
         -2   -1    0    0    0  501 -0.00000000000E+00 -0.00000000000E+00 -0.14307898274E+02  0.14307898274E+02  0.00000000000E+00 0.  1.
         25    1    1    2    0    0  0.11988900478E+02  0.48877857150E+02  0.52496746657E+03  0.54085452721E+03  0.12000000000E+03 0.  0.
         25    1    1    2    0    0 -0.11988900478E+02 -0.48877857150E+02  0.65877546948E+03  0.67150420538E+03  0.12000000000E+03 0.  0.
<mgrwt>
<rscale>  0 0.26185179E+03</rscale>
<asrwt>0</asrwt>
<pdfrwt beam="1">  1        2 0.18431543E+00 0.26185179E+03</pdfrwt>
<pdfrwt beam="2">  1       -2 0.22012161E-02 0.26185179E+03</pdfrwt>
<totfact> 0.13399165E+04</totfact>
</mgrwt>
</event>
<event>
 4    1  0.1749575E-004  0.2586940E+03  0.7818608E-02  0.1107930E+00
         -1   -1    0    0    0  501 -0.00000000000E+00  0.00000000000E+00  0.38665362203E+02  0.38665362203E+02  0.00000000000E+00 0. -1.
          1   -1    0    0  501    0  0.00000000000E+00 -0.00000000000E+00 -0.43270360932E+03  0.43270360932E+03  0.00000000000E+00 0. -1.
         25    1    1    2    0    0 -0.11289748101E+02  0.35647390038E+02 -0.25265907754E+03  0.28219639312E+03  0.12000000000E+03 0.  0.
         25    1    1    2    0    0  0.11289748101E+02 -0.35647390038E+02 -0.14137916959E+03  0.18917257841E+03  0.12000000000E+03 0.  0.
<mgrwt>
<rscale>  0 0.25869396E+03</rscale>
<asrwt>0</asrwt>
<pdfrwt beam="1">  1        1 0.66569786E-01 0.25869396E+03</pdfrwt>
<pdfrwt beam="2">  1       -1 0.59485172E-02 0.25869396E+03</pdfrwt>
<totfact> 0.73388315E+03</totfact>
</mgrwt>
</event>
<event>
 4    1  0.1749575E-004  0.2853874E+03  0.7818608E-02  0.1092782E+00
         -1   -1    0    0    0  501 -0.00000000000E+00  0.00000000000E+00  0.34168775072E+02  0.34168775072E+02  0.00000000000E+00 0. -1.
          1   -1    0    0  501    0  0.00000000000E+00 -0.00000000000E+00 -0.59590915376E+03  0.59590915376E+03  0.00000000000E+00 0. -1.
         25    1    1    2    0    0  0.54915917999E+02  0.18514412193E+02 -0.16823036156E+03  0.21461592686E+03  0.12000000000E+03 0.  0.
         25    1    1    2    0    0 -0.54915917999E+02 -0.18514412193E+02 -0.39351001713E+03  0.41546200198E+03  0.12000000000E+03 0.  0.
<mgrwt>
<rscale>  0 0.28538736E+03</rscale>
<asrwt>0</asrwt>
<pdfrwt beam="1">  1        1 0.91678326E-01 0.28538736E+03</pdfrwt>
<pdfrwt beam="2">  1       -1 0.52567349E-02 0.28538736E+03</pdfrwt>
<totfact> 0.57824801E+03</totfact>
</mgrwt>
</event>
<event>
 4    1  0.1749575E-004  0.2491064E+03  0.7818608E-02  0.1113871E+00
         -3   -1    0    0    0  501 -0.00000000000E+00  0.00000000000E+00  0.69613159579E+02  0.69613159579E+02  0.00000000000E+00 0. -1.
          3   -1    0    0  501    0  0.00000000000E+00 -0.00000000000E+00 -0.22285300181E+03  0.22285300181E+03  0.00000000000E+00 0. -1.
         25    1    1    2    0    0  0.22707932482E+02  0.14837172013E+01 -0.10527398812E+03  0.16124659435E+03  0.12000000000E+03 0.  0.
         25    1    1    2    0    0 -0.22707932482E+02 -0.14837172013E+01 -0.47965854117E+02  0.13121956705E+03  0.12000000000E+03 0.  0.
<mgrwt>
<rscale>  0 0.24910642E+03</rscale>
<asrwt>0</asrwt>
<pdfrwt beam="1">  1        3 0.34285077E-01 0.24910642E+03</pdfrwt>
<pdfrwt beam="2">  1       -3 0.10709717E-01 0.24910642E+03</pdfrwt>
<totfact> 0.13825258E+03</totfact>
</mgrwt>
</event>
<event>
 4    1  0.1749575E-004  0.2872184E+03  0.7818608E-02  0.1091810E+00
          1   -1    0    0  501    0  0.00000000000E+00  0.00000000000E+00  0.10231369775E+04  0.10231369775E+04  0.00000000000E+00 0. -1.
         -1   -1    0    0    0  501 -0.00000000000E+00 -0.00000000000E+00 -0.20157229495E+02  0.20157229495E+02  0.00000000000E+00 0. -1.
         25    1    1    2    0    0  0.41649100948E+02 -0.36987630007E+02  0.29856623572E+03  0.32656474013E+03  0.12000000000E+03 0.  0.
         25    1    1    2    0    0 -0.41649100948E+02  0.36987630007E+02  0.70441351227E+03  0.71672946685E+03  0.12000000000E+03 0.  0.
<mgrwt>
<rscale>  0 0.28721843E+03</rscale>
<asrwt>0</asrwt>
<pdfrwt beam="1">  1        1 0.15740565E+00 0.28721843E+03</pdfrwt>
<pdfrwt beam="2">  1       -1 0.31011130E-02 0.28721843E+03</pdfrwt>
<totfact> 0.55213861E+03</totfact>
</mgrwt>
</event>
<event>
 4    1  0.1749575E-004  0.2469624E+03  0.7818608E-02  0.1115240E+00
          2   -1    0    0  501    0  0.00000000000E+00  0.00000000000E+00  0.35265710510E+03  0.35265710510E+03  0.00000000000E+00 0. -1.
         -2   -1    0    0    0  501 -0.00000000000E+00 -0.00000000000E+00 -0.43236364416E+02  0.43236364416E+02  0.00000000000E+00 0. -1.
         25    1    1    2    0    0  0.17596609158E+01 -0.28675079849E+02  0.14714802770E+03  0.19203619104E+03  0.12000000000E+03 0.  0.
         25    1    1    2    0    0 -0.17596609158E+01  0.28675079849E+02  0.16227271298E+03  0.20385727848E+03  0.12000000000E+03 0.  0.
<mgrwt>
<rscale>  0 0.24696244E+03</rscale>
<asrwt>0</asrwt>
<pdfrwt beam="1">  1        2 0.54254937E-01 0.24696244E+03</pdfrwt>
<pdfrwt beam="2">  1       -2 0.66517486E-02 0.24696244E+03</pdfrwt>
<totfact> 0.11399978E+04</totfact>
</mgrwt>
</event>
<event>
 4    1  0.1749575E-004  0.2642941E+03  0.7818608E-02  0.1104590E+00
          1   -1    0    0  501    0  0.00000000000E+00  0.00000000000E+00  0.63034919734E+02  0.63034919734E+02  0.00000000000E+00 0.  1.
         -1   -1    0    0    0  501 -0.00000000000E+00 -0.00000000000E+00 -0.27703440669E+03  0.27703440669E+03  0.00000000000E+00 0.  1.
         25    1    1    2    0    0 -0.48458847114E+02 -0.17954134509E+02 -0.81516726478E+02  0.15399866073E+03  0.12000000000E+03 0.  0.
         25    1    1    2    0    0  0.48458847114E+02  0.17954134509E+02 -0.13248276048E+03  0.18607066570E+03  0.12000000000E+03 0.  0.
<mgrwt>
<rscale>  0 0.26429409E+03</rscale>
<asrwt>0</asrwt>
<pdfrwt beam="1">  1        1 0.96976801E-02 0.26429409E+03</pdfrwt>
<pdfrwt beam="2">  1       -1 0.42620677E-01 0.26429409E+03</pdfrwt>
<totfact> 0.36603010E+03</totfact>
</mgrwt>
</event>
<event>
 4    1  0.1749575E-004  0.2421574E+03  0.7818608E-02  0.1118364E+00
          3   -1    0    0  501    0  0.00000000000E+00  0.00000000000E+00  0.43578429458E+02  0.43578429458E+02  0.00000000000E+00 0.  1.
         -3   -1    0    0    0  501 -0.00000000000E+00 -0.00000000000E+00 -0.33640626550E+03  0.33640626550E+03  0.00000000000E+00 0.  1.
         25    1    1    2    0    0  0.12205790577E+02  0.74885139575E+01 -0.13477694739E+03  0.18102454174E+03  0.12000000000E+03 0.  0.
         25    1    1    2    0    0 -0.12205790577E+02 -0.74885139575E+01 -0.15805088866E+03  0.19896015322E+03  0.12000000000E+03 0.  0.
<mgrwt>
<rscale>  0 0.24215744E+03</rscale>
<asrwt>0</asrwt>
<pdfrwt beam="1">  1        3 0.67043740E-02 0.24215744E+03</pdfrwt>
<pdfrwt beam="2">  1       -3 0.51754808E-01 0.24215744E+03</pdfrwt>
<totfact> 0.13294772E+03</totfact>
</mgrwt>
</event>
<event>
 4    1  0.1749575E-004  0.3201517E+03  0.7818608E-02  0.1075580E+00
          2   -1    0    0  501    0  0.00000000000E+00  0.00000000000E+00  0.26402552834E+04  0.26402552834E+04  0.00000000000E+00 0. -1.
         -2   -1    0    0    0  501 -0.00000000000E+00 -0.00000000000E+00 -0.97052257500E+01  0.97052257500E+01  0.00000000000E+00 0. -1.
         25    1    1    2    0    0  0.55093246742E+02  0.86905735218E+02  0.11064661209E+04  0.11177008317E+04  0.12000000000E+03 0.  0.
         25    1    1    2    0    0 -0.55093246742E+02 -0.86905735218E+02  0.15240839368E+04  0.15322596774E+04  0.12000000000E+03 0.  0.
<mgrwt>
<rscale>  0 0.32015167E+03</rscale>
<asrwt>0</asrwt>
<pdfrwt beam="1">  1        2 0.40619255E+00 0.32015167E+03</pdfrwt>
<pdfrwt beam="2">  1       -2 0.14931138E-02 0.32015167E+03</pdfrwt>
<totfact> 0.39746189E+03</totfact>
</mgrwt>
</event>
<event>
 4    1  0.1749575E-004  0.2674883E+03  0.7818608E-02  0.1102726E+00
         -2   -1    0    0    0  501 -0.00000000000E+00  0.00000000000E+00  0.14774823610E+03  0.14774823610E+03  0.00000000000E+00 0.  1.
          2   -1    0    0  501    0  0.00000000000E+00 -0.00000000000E+00 -0.12106738241E+03  0.12106738241E+03  0.00000000000E+00 0.  1.
         25    1    1    2    0    0  0.42711374820E+02  0.32584318667E+02  0.37987480145E+02  0.13685411214E+03  0.12000000000E+03 0.  0.
         25    1    1    2    0    0 -0.42711374820E+02 -0.32584318667E+02 -0.11306626457E+02  0.13196150637E+03  0.12000000000E+03 0.  0.
<mgrwt>
<rscale>  0 0.26748826E+03</rscale>
<asrwt>0</asrwt>
<pdfrwt beam="1">  1        2 0.18625751E-01 0.26748826E+03</pdfrwt>
<pdfrwt beam="2">  1       -2 0.22730498E-01 0.26748826E+03</pdfrwt>
<totfact> 0.50320960E+03</totfact>
</mgrwt>
</event>
<event>
 4    1  0.1749575E-004  0.3142047E+03  0.7818608E-02  0.1078348E+00
         -2   -1    0    0    0  501 -0.00000000000E+00  0.00000000000E+00  0.62223515010E+02  0.62223515010E+02  0.00000000000E+00 0.  1.
          2   -1    0    0  501    0  0.00000000000E+00 -0.00000000000E+00 -0.39665311367E+03  0.39665311367E+03  0.00000000000E+00 0.  1.
         25    1    1    2    0    0 -0.90051946434E+02 -0.53178288510E+01 -0.23483039344E+03  0.27871660526E+03  0.12000000000E+03 0.  0.
         25    1    1    2    0    0  0.90051946434E+02  0.53178288510E+01 -0.99599205214E+02  0.18016002342E+03  0.12000000000E+03 0.  0.
<mgrwt>
<rscale>  0 0.31420472E+03</rscale>
<asrwt>0</asrwt>
<pdfrwt beam="1">  1        2 0.61023554E-01 0.31420472E+03</pdfrwt>
<pdfrwt beam="2">  1       -2 0.95728487E-02 0.31420472E+03</pdfrwt>
<totfact> 0.57319721E+03</totfact>
</mgrwt>
</event>
<event>
 4    1  0.1749575E-004  0.2896217E+03  0.7818608E-02  0.1090547E+00
         -2   -1    0    0    0  501 -0.00000000000E+00  0.00000000000E+00  0.67149086533E+02  0.67149086533E+02  0.00000000000E+00 0.  1.
          2   -1    0    0  501    0  0.00000000000E+00 -0.00000000000E+00 -0.31229298150E+03  0.31229298150E+03  0.00000000000E+00 0.  1.
         25    1    1    2    0    0 -0.78529801810E+02 -0.10851303565E+02 -0.10043471308E+03  0.17541896178E+03  0.12000000000E+03 0.  0.
         25    1    1    2    0    0  0.78529801810E+02  0.10851303565E+02 -0.14470918188E+03  0.20402310625E+03  0.12000000000E+03 0.  0.
<mgrwt>
<rscale>  0 0.28962174E+03</rscale>
<asrwt>0</asrwt>
<pdfrwt beam="1">  1        2 0.48045073E-01 0.28962174E+03</pdfrwt>
<pdfrwt beam="2">  1       -2 0.10330629E-01 0.28962174E+03</pdfrwt>
<totfact> 0.65624130E+03</totfact>
</mgrwt>
</event>
<event>
 4    1  0.1749575E-004  0.2776226E+03  0.7818608E-02  0.1096995E+00
          2   -1    0    0  501    0  0.00000000000E+00  0.00000000000E+00  0.21062564118E+04  0.21062564118E+04  0.00000000000E+00 0.  1.
         -2   -1    0    0    0  501 -0.00000000000E+00 -0.00000000000E+00 -0.91482583836E+01  0.91482583836E+01  0.00000000000E+00 0.  1.
         25    1    1    2    0    0 -0.38117797347E+02 -0.49958320230E+02  0.81746466012E+03  0.82861165257E+03  0.12000000000E+03 0.  0.
         25    1    1    2    0    0  0.38117797347E+02  0.49958320230E+02  0.12796434933E+04  0.12867930176E+04  0.12000000000E+03 0.  0.
<mgrwt>
<rscale>  0 0.27762261E+03</rscale>
<asrwt>0</asrwt>
<pdfrwt beam="1">  1        2 0.32403906E+00 0.27762261E+03</pdfrwt>
<pdfrwt beam="2">  1       -2 0.14074261E-02 0.27762261E+03</pdfrwt>
<totfact> 0.84572187E+03</totfact>
</mgrwt>
</event>
<event>
 4    1  0.1749575E-004  0.2662509E+03  0.7818608E-02  0.1103445E+00
         -2   -1    0    0    0  501 -0.00000000000E+00  0.00000000000E+00  0.97939359153E+01  0.97939359153E+01  0.00000000000E+00 0. -1.
          2   -1    0    0  501    0  0.00000000000E+00 -0.00000000000E+00 -0.18095263660E+04  0.18095263660E+04  0.00000000000E+00 0. -1.
         25    1    1    2    0    0  0.29699058149E+02 -0.27910721997E+02 -0.11783806516E+04  0.11851759373E+04  0.12000000000E+03 0.  0.
         25    1    1    2    0    0 -0.29699058149E+02  0.27910721997E+02 -0.62135177848E+03  0.63414436454E+03  0.12000000000E+03 0.  0.
<mgrwt>
<rscale>  0 0.26625090E+03</rscale>
<asrwt>0</asrwt>
<pdfrwt beam="1">  1        2 0.27838872E+00 0.26625090E+03</pdfrwt>
<pdfrwt beam="2">  1       -2 0.15067591E-02 0.26625090E+03</pdfrwt>
<totfact> 0.10957810E+04</totfact>
</mgrwt>
</event>
<event>
 4    1  0.1749575E-004  0.2636370E+03  0.7818608E-02  0.1104978E+00
         -2   -1    0    0    0  501 -0.00000000000E+00  0.00000000000E+00  0.81991814535E+01  0.81991814535E+01  0.00000000000E+00 0.  1.
          2   -1    0    0  501    0  0.00000000000E+00 -0.00000000000E+00 -0.21192500910E+04  0.21192500910E+04  0.00000000000E+00 0.  1.
         25    1    1    2    0    0  0.23857427101E+02  0.49041674174E+02 -0.10665114229E+04  0.10746259246E+04  0.12000000000E+03 0.  0.
         25    1    1    2    0    0 -0.23857427101E+02 -0.49041674174E+02 -0.10445394866E+04  0.10528233478E+04  0.12000000000E+03 0.  0.
<mgrwt>
<rscale>  0 0.26363699E+03</rscale>
<asrwt>0</asrwt>
<pdfrwt beam="1">  1        2 0.32603817E+00 0.26363699E+03</pdfrwt>
<pdfrwt beam="2">  1       -2 0.12614137E-02 0.26363699E+03</pdfrwt>
<totfact> 0.97630667E+03</totfact>
</mgrwt>
</event>
<event>
 4    1  0.1749575E-004  0.3133633E+03  0.7818608E-02  0.1078745E+00
         -1   -1    0    0    0  501 -0.00000000000E+00  0.00000000000E+00  0.63472284976E+03  0.63472284976E+03  0.00000000000E+00 0.  1.
          1   -1    0    0  501    0  0.00000000000E+00 -0.00000000000E+00 -0.38676954239E+02  0.38676954239E+02  0.00000000000E+00 0.  1.
         25    1    1    2    0    0 -0.41400129657E+02  0.14696240706E+01  0.10068243401E+03  0.16202803168E+03  0.12000000000E+03 0.  0.
         25    1    1    2    0    0  0.41400129657E+02 -0.14696240706E+01  0.49536346151E+03  0.51137177233E+03  0.12000000000E+03 0.  0.
<mgrwt>
<rscale>  0 0.31336335E+03</rscale>
<asrwt>0</asrwt>
<pdfrwt beam="1">  1        1 0.59503011E-02 0.31336335E+03</pdfrwt>
<pdfrwt beam="2">  1       -1 0.97649662E-01 0.31336335E+03</pdfrwt>
<totfact> 0.13919956E+03</totfact>
</mgrwt>
</event>
<event>
 4    1  0.1749575E-004  0.2779415E+03  0.7818608E-02  0.1096819E+00
         -2   -1    0    0    0  501 -0.00000000000E+00  0.00000000000E+00  0.14535521872E+02  0.14535521872E+02  0.00000000000E+00 0. -1.
          2   -1    0    0  501    0  0.00000000000E+00 -0.00000000000E+00 -0.13286674949E+04  0.13286674949E+04  0.00000000000E+00 0. -1.
         25    1    1    2    0    0  0.65499021746E+02 -0.82851398266E+01 -0.54330687193E+03  0.56030449086E+03  0.12000000000E+03 0.  0.
         25    1    1    2    0    0 -0.65499021746E+02  0.82851398266E+01 -0.77082510107E+03  0.78289852588E+03  0.12000000000E+03 0.  0.
<mgrwt>
<rscale>  0 0.27794154E+03</rscale>
<asrwt>0</asrwt>
<pdfrwt beam="1">  1        2 0.20441035E+00 0.27794154E+03</pdfrwt>
<pdfrwt beam="2">  1       -2 0.22362345E-02 0.27794154E+03</pdfrwt>
<totfact> 0.11085141E+04</totfact>
</mgrwt>
</event>
<event>
 4    1  0.1749575E-004  0.2672120E+03  0.7818608E-02  0.1102886E+00
          2   -1    0    0  501    0  0.00000000000E+00  0.00000000000E+00  0.54511034546E+03  0.54511034546E+03  0.00000000000E+00 0. -1.
         -2   -1    0    0    0  501 -0.00000000000E+00 -0.00000000000E+00 -0.32746688585E+02  0.32746688585E+02  0.00000000000E+00 0. -1.
         25    1    1    2    0    0  0.37621908344E+02 -0.77246672020E+01  0.16006468657E+03  0.20370513581E+03  0.12000000000E+03 0.  0.
         25    1    1    2    0    0 -0.37621908344E+02  0.77246672020E+01  0.35229897031E+03  0.37415189823E+03  0.12000000000E+03 0.  0.
<mgrwt>
<rscale>  0 0.26721197E+03</rscale>
<asrwt>0</asrwt>
<pdfrwt beam="1">  1        2 0.83863123E-01 0.26721197E+03</pdfrwt>
<pdfrwt beam="2">  1       -2 0.50379525E-02 0.26721197E+03</pdfrwt>
<totfact> 0.10842524E+04</totfact>
</mgrwt>
</event>
<event>
 4    1  0.1749575E-004  0.2616109E+03  0.7818608E-02  0.1106179E+00
         -3   -1    0    0    0  501 -0.00000000000E+00  0.00000000000E+00  0.10306060414E+02  0.10306060414E+02  0.00000000000E+00 0. -1.
          3   -1    0    0  501    0  0.00000000000E+00 -0.00000000000E+00 -0.16601948621E+04  0.16601948621E+04  0.00000000000E+00 0. -1.
         25    1    1    2    0    0 -0.25776489427E+02  0.21689703471E+02 -0.10783746274E+04  0.10855536411E+04  0.12000000000E+03 0.  0.
         25    1    1    2    0    0  0.25776489427E+02 -0.21689703471E+02 -0.57151417423E+03  0.58494728138E+03  0.12000000000E+03 0.  0.
<mgrwt>
<rscale>  0 0.26161092E+03</rscale>
<asrwt>0</asrwt>
<pdfrwt beam="1">  1        3 0.25541461E+00 0.26161092E+03</pdfrwt>
<pdfrwt beam="2">  1       -3 0.15855477E-02 0.26161092E+03</pdfrwt>
<totfact> 0.26516040E+02</totfact>
</mgrwt>
</event>
<event>
 4    1  0.1749575E-004  0.2800281E+03  0.7818608E-02  0.1095674E+00
          2   -1    0    0  501    0  0.00000000000E+00  0.00000000000E+00  0.19023790551E+04  0.19023790551E+04  0.00000000000E+00 0.  1.
         -2   -1    0    0    0  501 -0.00000000000E+00 -0.00000000000E+00 -0.10304959854E+02  0.10304959854E+02  0.00000000000E+00 0.  1.
         25    1    1    2    0    0 -0.29452395608E+02 -0.29990343733E+02  0.54559830727E+03  0.56021815145E+03  0.12000000000E+03 0.  0.
         25    1    1    2    0    0  0.29452395608E+02  0.29990343733E+02  0.13464757880E+04  0.13524658635E+04  0.12000000000E+03 0.  0.
<mgrwt>
<rscale>  0 0.28002814E+03</rscale>
<asrwt>0</asrwt>
<pdfrwt beam="1">  1        2 0.29267342E+00 0.28002814E+03</pdfrwt>
<pdfrwt beam="2">  1       -2 0.15853800E-02 0.28002814E+03</pdfrwt>
<totfact> 0.90985931E+03</totfact>
</mgrwt>
</event>
<event>
 4    1  0.1749575E-004  0.3166499E+03  0.7818608E-02  0.1077202E+00
         -2   -1    0    0    0  501 -0.00000000000E+00  0.00000000000E+00  0.14550229362E+02  0.14550229362E+02  0.00000000000E+00 0. -1.
          2   -1    0    0  501    0  0.00000000000E+00 -0.00000000000E+00 -0.17227766863E+04  0.17227766863E+04  0.00000000000E+00 0. -1.
         25    1    1    2    0    0 -0.95096933142E+02 -0.10002602683E+02 -0.10682529869E+04  0.10792163467E+04  0.12000000000E+03 0.  0.
         25    1    1    2    0    0  0.95096933142E+02  0.10002602683E+02 -0.63997346999E+03  0.65811056901E+03  0.12000000000E+03 0.  0.
<mgrwt>
<rscale>  0 0.31664994E+03</rscale>
<asrwt>0</asrwt>
<pdfrwt beam="1">  1        2 0.26504260E+00 0.31664994E+03</pdfrwt>
<pdfrwt beam="2">  1       -2 0.22384966E-02 0.31664994E+03</pdfrwt>
<totfact> 0.68126812E+03</totfact>
</mgrwt>
</event>
<event>
 4    1  0.1749575E-004  0.3388494E+03  0.7818608E-02  0.1067287E+00
         -1   -1    0    0    0  501 -0.00000000000E+00  0.00000000000E+00  0.16960208126E+03  0.16960208126E+03  0.00000000000E+00 0.  1.
          1   -1    0    0  501    0  0.00000000000E+00 -0.00000000000E+00 -0.16924748938E+03  0.16924748938E+03  0.00000000000E+00 0.  1.
         25    1    1    2    0    0 -0.13529819191E+02  0.11368603986E+03  0.34777239471E+02  0.16946099272E+03  0.12000000000E+03 0.  0.
         25    1    1    2    0    0  0.13529819191E+02 -0.11368603986E+03 -0.34422647590E+02  0.16938857793E+03  0.12000000000E+03 0.  0.
<mgrwt>
<rscale>  0 0.33884939E+03</rscale>
<asrwt>0</asrwt>
<pdfrwt beam="1">  1        1 0.26038075E-01 0.33884939E+03</pdfrwt>
<pdfrwt beam="2">  1       -1 0.26092628E-01 0.33884939E+03</pdfrwt>
<totfact> 0.23587575E+03</totfact>
</mgrwt>
</event>
<event>
 4    1  0.1749575E-004  0.2781038E+03  0.7818608E-02  0.1096729E+00
         -2   -1    0    0    0  501 -0.00000000000E+00  0.00000000000E+00  0.18186418596E+02  0.18186418596E+02  0.00000000000E+00 0. -1.
          2   -1    0    0  501    0  0.00000000000E+00 -0.00000000000E+00 -0.10631795255E+04  0.10631795255E+04  0.00000000000E+00 0. -1.
         25    1    1    2    0    0 -0.43636661600E+02 -0.19157642030E+02 -0.32179365461E+03  0.34673091819E+03  0.12000000000E+03 0.  0.
         25    1    1    2    0    0  0.43636661600E+02  0.19157642030E+02 -0.72319945229E+03  0.73463502590E+03  0.12000000000E+03 0.  0.
<mgrwt>
<rscale>  0 0.27810378E+03</rscale>
<asrwt>0</asrwt>
<pdfrwt beam="1">  1        2 0.16356610E+00 0.27810378E+03</pdfrwt>
<pdfrwt beam="2">  1       -2 0.27979103E-02 0.27810378E+03</pdfrwt>
<totfact> 0.11276196E+04</totfact>
</mgrwt>
</event>
<event>
 4    1  0.1749575E-004  0.2580881E+03  0.7818608E-02  0.1108297E+00
         -1   -1    0    0    0  501 -0.00000000000E+00  0.00000000000E+00  0.37111498123E+02  0.37111498123E+02  0.00000000000E+00 0.  1.
          1   -1    0    0  501    0  0.00000000000E+00 -0.00000000000E+00 -0.44871188673E+03  0.44871188673E+03  0.00000000000E+00 0.  1.
         25    1    1    2    0    0 -0.41704712372E+02 -0.22623959876E+02 -0.20789950415E+03  0.24469027447E+03  0.12000000000E+03 0.  0.
         25    1    1    2    0    0  0.41704712372E+02  0.22623959876E+02 -0.20370088446E+03  0.24113311039E+03  0.12000000000E+03 0.  0.
<mgrwt>
<rscale>  0 0.25808813E+03</rscale>
<asrwt>0</asrwt>
<pdfrwt beam="1">  1        1 0.69032594E-01 0.25808813E+03</pdfrwt>
<pdfrwt beam="2">  1       -1 0.57094616E-02 0.25808813E+03</pdfrwt>
<totfact> 0.74460500E+03</totfact>
</mgrwt>
</event>
<event>
 4    1  0.1749575E-004  0.3223619E+03  0.7818608E-02  0.1074567E+00
         -4   -1    0    0    0  501 -0.00000000000E+00  0.00000000000E+00  0.56922240825E+03  0.56922240825E+03  0.00000000000E+00 0. -1.
          4   -1    0    0  501    0  0.00000000000E+00 -0.00000000000E+00 -0.45639989310E+02  0.45639989310E+02  0.00000000000E+00 0. -1.
         25    1    1    2    0    0  0.56218451577E+02 -0.80341918959E+01  0.87454957298E+02  0.15897619977E+03  0.12000000000E+03 0.  0.
         25    1    1    2    0    0 -0.56218451577E+02  0.80341918959E+01  0.43612746164E+03  0.45588619779E+03  0.12000000000E+03 0.  0.
<mgrwt>
<rscale>  0 0.32236194E+03</rscale>
<asrwt>0</asrwt>
<pdfrwt beam="1">  1        4 0.70215372E-02 0.32236194E+03</pdfrwt>
<pdfrwt beam="2">  1       -4 0.87572673E-01 0.32236194E+03</pdfrwt>
<totfact> 0.30268140E+02</totfact>
</mgrwt>
</event>
<event>
 4    1  0.1749575E-004  0.2903281E+03  0.7818608E-02  0.1090178E+00
         -4   -1    0    0    0  501 -0.00000000000E+00  0.00000000000E+00  0.11077069658E+03  0.11077069658E+03  0.00000000000E+00 0.  1.
          4   -1    0    0  501    0  0.00000000000E+00 -0.00000000000E+00 -0.19023618606E+03  0.19023618606E+03  0.00000000000E+00 0.  1.
         25    1    1    2    0    0 -0.19727728148E+02 -0.77740134658E+02 -0.55790587570E+02  0.15474269435E+03  0.12000000000E+03 0.  0.
         25    1    1    2    0    0  0.19727728148E+02  0.77740134658E+02 -0.23674901914E+02  0.14626418829E+03  0.12000000000E+03 0.  0.
<mgrwt>
<rscale>  0 0.29032805E+03</rscale>
<asrwt>0</asrwt>
<pdfrwt beam="1">  1        4 0.29267106E-01 0.29032805E+03</pdfrwt>
<pdfrwt beam="2">  1       -4 0.17041646E-01 0.29032805E+03</pdfrwt>
<totfact> 0.63279095E+02</totfact>
</mgrwt>
</event>
<event>
 4    1  0.1749575E-004  0.2601321E+03  0.7818608E-02  0.1107064E+00
         -1   -1    0    0    0  501 -0.00000000000E+00  0.00000000000E+00  0.77787252379E+02  0.77787252379E+02  0.00000000000E+00 0.  1.
          1   -1    0    0  501    0  0.00000000000E+00 -0.00000000000E+00 -0.21748002210E+03  0.21748002210E+03  0.00000000000E+00 0.  1.
         25    1    1    2    0    0 -0.45891716874E+02  0.19942315593E+02 -0.65687060012E+02  0.14566583498E+03  0.12000000000E+03 0.  0.
         25    1    1    2    0    0  0.45891716874E+02 -0.19942315593E+02 -0.74005709707E+02  0.14960143949E+03  0.12000000000E+03 0.  0.
<mgrwt>
<rscale>  0 0.26013207E+03</rscale>
<asrwt>0</asrwt>
<pdfrwt beam="1">  1        1 0.33458465E-01 0.26013207E+03</pdfrwt>
<pdfrwt beam="2">  1       -1 0.11967270E-01 0.26013207E+03</pdfrwt>
<totfact> 0.60019086E+03</totfact>
</mgrwt>
</event>
<event>
 4    1  0.1749575E-004  0.5231054E+03  0.7818608E-02  0.1007918E+00
          1   -1    0    0  501    0  0.00000000000E+00  0.00000000000E+00  0.10092789810E+04  0.10092789810E+04  0.00000000000E+00 0.  1.
         -1   -1    0    0    0  501 -0.00000000000E+00 -0.00000000000E+00 -0.67780864814E+02  0.67780864814E+02  0.00000000000E+00 0.  1.
         25    1    1    2    0    0  0.96925020666E+02  0.17287075065E+03  0.22084836154E+03  0.32008241885E+03  0.12000000000E+03 0.  0.
         25    1    1    2    0    0 -0.96925020666E+02 -0.17287075065E+03  0.72064975467E+03  0.75697742699E+03  0.12000000000E+03 0.  0.
<mgrwt>
<rscale>  0 0.52310535E+03</rscale>
<asrwt>0</asrwt>
<pdfrwt beam="1">  1        1 0.15527368E+00 0.52310535E+03</pdfrwt>
<pdfrwt beam="2">  1       -1 0.10427826E-01 0.52310535E+03</pdfrwt>
<totfact> 0.89157020E+02</totfact>
</mgrwt>
</event>
<event>
 4    1  0.1749575E-004  0.3211905E+03  0.7818608E-02  0.1075103E+00
         -2   -1    0    0    0  501 -0.00000000000E+00  0.00000000000E+00  0.10183786194E+03  0.10183786194E+03  0.00000000000E+00 0.  1.
          2   -1    0    0  501    0  0.00000000000E+00 -0.00000000000E+00 -0.25325390548E+03  0.25325390548E+03  0.00000000000E+00 0.  1.
         25    1    1    2    0    0 -0.96742959989E+02 -0.19977174875E+02 -0.31038537979E+02  0.15849819767E+03  0.12000000000E+03 0.  0.
         25    1    1    2    0    0  0.96742959989E+02  0.19977174875E+02 -0.12037750556E+03  0.19659356975E+03  0.12000000000E+03 0.  0.
<mgrwt>
<rscale>  0 0.32119051E+03</rscale>
<asrwt>0</asrwt>
<pdfrwt beam="1">  1        2 0.38962139E-01 0.32119051E+03</pdfrwt>
<pdfrwt beam="2">  1       -2 0.15667364E-01 0.32119051E+03</pdfrwt>
<totfact> 0.41879146E+03</totfact>
</mgrwt>
</event>
<event>
 4    1  0.1749575E-004  0.3883231E+03  0.7818608E-02  0.1047900E+00
         -2   -1    0    0    0  501 -0.00000000000E+00  0.00000000000E+00  0.14409249682E+02  0.14409249682E+02  0.00000000000E+00 0.  1.
          2   -1    0    0  501    0  0.00000000000E+00 -0.00000000000E+00 -0.26162856962E+04  0.26162856962E+04  0.00000000000E+00 0.  1.
         25    1    1    2    0    0  0.10357000847E+03 -0.66343008780E+02 -0.19132935054E+04  0.19209945807E+04  0.12000000000E+03 0.  0.
         25    1    1    2    0    0 -0.10357000847E+03  0.66343008780E+02 -0.68858294111E+03  0.70970036512E+03  0.12000000000E+03 0.  0.
<mgrwt>
<rscale>  0 0.38832313E+03</rscale>
<asrwt>0</asrwt>
<pdfrwt beam="1">  1        2 0.40250548E+00 0.38832313E+03</pdfrwt>
<pdfrwt beam="2">  1       -2 0.22168077E-02 0.38832313E+03</pdfrwt>
<totfact> 0.22737544E+03</totfact>
</mgrwt>
</event>
<event>
 4    1  0.1749575E-004  0.3108867E+03  0.7818608E-02  0.1079922E+00
          2   -1    0    0  501    0  0.00000000000E+00  0.00000000000E+00  0.81654500669E+03  0.81654500669E+03  0.00000000000E+00 0.  1.
         -2   -1    0    0    0  501 -0.00000000000E+00 -0.00000000000E+00 -0.29591314962E+02  0.29591314962E+02  0.00000000000E+00 0.  1.
         25    1    1    2    0    0  0.25053843471E+02 -0.16032035295E+02  0.13703213766E+03  0.18456036405E+03  0.12000000000E+03 0.  0.
         25    1    1    2    0    0 -0.25053843471E+02  0.16032035295E+02  0.64992155407E+03  0.66157595760E+03  0.12000000000E+03 0.  0.
<mgrwt>
<rscale>  0 0.31088673E+03</rscale>
<asrwt>0</asrwt>
<pdfrwt beam="1">  1        2 0.12562229E+00 0.31088673E+03</pdfrwt>
<pdfrwt beam="2">  1       -2 0.45525106E-02 0.31088673E+03</pdfrwt>
<totfact> 0.78163340E+03</totfact>
</mgrwt>
</event>
<event>
 4    1  0.1749575E-004  0.3918089E+03  0.7818608E-02  0.1046653E+00
          3   -1    0    0  501    0  0.00000000000E+00  0.00000000000E+00  0.33830758950E+02  0.33830758950E+02  0.00000000000E+00 0.  1.
         -3   -1    0    0    0  501 -0.00000000000E+00 -0.00000000000E+00 -0.11344277225E+04  0.11344277225E+04  0.00000000000E+00 0.  1.
         25    1    1    2    0    0 -0.80151609133E+02 -0.12343076356E+03 -0.69388907488E+03  0.71940355996E+03  0.12000000000E+03 0.  0.
         25    1    1    2    0    0  0.80151609133E+02  0.12343076356E+03 -0.40670788865E+03  0.44885492148E+03  0.12000000000E+03 0.  0.
<mgrwt>
<rscale>  0 0.39180889E+03</rscale>
<asrwt>0</asrwt>
<pdfrwt beam="1">  1        3 0.52047324E-02 0.39180889E+03</pdfrwt>
<pdfrwt beam="2">  1       -3 0.17452733E+00 0.39180889E+03</pdfrwt>
<totfact> 0.12726096E+02</totfact>
</mgrwt>
</event>
<event>
 4    1  0.1749575E-004  0.2695489E+03  0.7818608E-02  0.1101538E+00
          1   -1    0    0  501    0  0.00000000000E+00  0.00000000000E+00  0.23402695483E+02  0.23402695483E+02  0.00000000000E+00 0. -1.
         -1   -1    0    0    0  501 -0.00000000000E+00 -0.00000000000E+00 -0.77615646436E+03  0.77615646436E+03  0.00000000000E+00 0. -1.
         25    1    1    2    0    0 -0.30080553427E+02  0.15400295109E+02 -0.52827113858E+03  0.54278209683E+03  0.12000000000E+03 0.  0.
         25    1    1    2    0    0  0.30080553427E+02 -0.15400295109E+02 -0.22448263031E+03  0.25677706302E+03  0.12000000000E+03 0.  0.
<mgrwt>
<rscale>  0 0.26954891E+03</rscale>
<asrwt>0</asrwt>
<pdfrwt beam="1">  1        1 0.36004149E-02 0.26954891E+03</pdfrwt>
<pdfrwt beam="2">  1       -1 0.11940868E+00 0.26954891E+03</pdfrwt>
<totfact> 0.17617641E+03</totfact>
</mgrwt>
</event>
<event>
 4    1  0.1749575E-004  0.2525726E+03  0.7818608E-02  0.1111690E+00
         -2   -1    0    0    0  501 -0.00000000000E+00  0.00000000000E+00  0.99468771885E+01  0.99468771885E+01  0.00000000000E+00 0.  1.
          2   -1    0    0  501    0  0.00000000000E+00 -0.00000000000E+00 -0.16033397595E+04  0.16033397595E+04  0.00000000000E+00 0.  1.
         25    1    1    2    0    0 -0.27250809384E+02  0.26531769791E+02 -0.73228723077E+03  0.74302835058E+03  0.12000000000E+03 0.  0.
         25    1    1    2    0    0  0.27250809384E+02 -0.26531769791E+02 -0.86110565157E+03  0.87025828613E+03  0.12000000000E+03 0.  0.
<mgrwt>
<rscale>  0 0.25257255E+03</rscale>
<asrwt>0</asrwt>
<pdfrwt beam="1">  1        2 0.24666761E+00 0.25257255E+03</pdfrwt>
<pdfrwt beam="2">  1       -2 0.15302891E-02 0.25257255E+03</pdfrwt>
<totfact> 0.13733147E+04</totfact>
</mgrwt>
</event>
<event>
 4    1  0.1749575E-004  0.2897937E+03  0.7818608E-02  0.1090457E+00
          1   -1    0    0  501    0  0.00000000000E+00  0.00000000000E+00  0.48274919451E+03  0.48274919451E+03  0.00000000000E+00 0.  1.
         -1   -1    0    0    0  501 -0.00000000000E+00 -0.00000000000E+00 -0.43490678640E+02  0.43490678640E+02  0.00000000000E+00 0.  1.
         25    1    1    2    0    0  0.74752999671E+02 -0.10552921717E+01  0.16203404029E+03  0.21504454147E+03  0.12000000000E+03 0.  0.
         25    1    1    2    0    0 -0.74752999671E+02  0.10552921717E+01  0.27722447558E+03  0.31119533168E+03  0.12000000000E+03 0.  0.
<mgrwt>
<rscale>  0 0.28979365E+03</rscale>
<asrwt>0</asrwt>
<pdfrwt beam="1">  1        1 0.74269103E-01 0.28979365E+03</pdfrwt>
<pdfrwt beam="2">  1       -1 0.66908740E-02 0.28979365E+03</pdfrwt>
<totfact> 0.53435890E+03</totfact>
</mgrwt>
</event>
<event>
 4    1  0.1749575E-004  0.2978501E+03  0.7818608E-02  0.1086320E+00
         -2   -1    0    0    0  501 -0.00000000000E+00  0.00000000000E+00  0.49311927503E+02  0.49311927503E+02  0.00000000000E+00 0.  1.
          2   -1    0    0  501    0  0.00000000000E+00 -0.00000000000E+00 -0.44976275663E+03  0.44976275663E+03  0.00000000000E+00 0.  1.
         25    1    1    2    0    0  0.19006351178E+02  0.62514944634E+02 -0.29948640421E+03  0.32918302811E+03  0.12000000000E+03 0.  0.
         25    1    1    2    0    0 -0.19006351178E+02 -0.62514944634E+02 -0.10096442491E+03  0.16989165602E+03  0.12000000000E+03 0.  0.
<mgrwt>
<rscale>  0 0.29785009E+03</rscale>
<asrwt>0</asrwt>
<pdfrwt beam="1">  1        2 0.69194275E-01 0.29785009E+03</pdfrwt>
<pdfrwt beam="2">  1       -2 0.75864499E-02 0.29785009E+03</pdfrwt>
<totfact> 0.71895805E+03</totfact>
</mgrwt>
</event>
<event>
 4    1  0.1749575E-004  0.2834018E+03  0.7818608E-02  0.1093845E+00
         -1   -1    0    0    0  501 -0.00000000000E+00  0.00000000000E+00  0.18245888931E+03  0.18245888931E+03  0.00000000000E+00 0. -1.
          1   -1    0    0  501    0  0.00000000000E+00 -0.00000000000E+00 -0.11004751670E+03  0.11004751670E+03  0.00000000000E+00 0. -1.
         25    1    1    2    0    0  0.52719284416E+02  0.47494389591E+02  0.62400299330E+02  0.15273780589E+03  0.12000000000E+03 0.  0.
         25    1    1    2    0    0 -0.52719284416E+02 -0.47494389591E+02  0.10011073281E+02  0.13976860012E+03  0.12000000000E+03 0.  0.
<mgrwt>
<rscale>  0 0.28340182E+03</rscale>
<asrwt>0</asrwt>
<pdfrwt beam="1">  1        1 0.16930387E-01 0.28340182E+03</pdfrwt>
<pdfrwt beam="2">  1       -1 0.28070598E-01 0.28340182E+03</pdfrwt>
<totfact> 0.36209246E+03</totfact>
</mgrwt>
</event>
<event>
 4    1  0.1749575E-004  0.2737462E+03  0.7818608E-02  0.1099154E+00
         -1   -1    0    0    0  501 -0.00000000000E+00  0.00000000000E+00  0.11960100525E+02  0.11960100525E+02  0.00000000000E+00 0. -1.
          1   -1    0    0  501    0  0.00000000000E+00 -0.00000000000E+00 -0.15663953923E+04  0.15663953923E+04  0.00000000000E+00 0. -1.
         25    1    1    2    0    0 -0.95953835732E+01  0.27387740935E+02 -0.43649639583E+03  0.45362017516E+03  0.12000000000E+03 0.  0.
         25    1    1    2    0    0  0.95953835732E+01 -0.27387740935E+02 -0.11179388960E+04  0.11247353177E+04  0.12000000000E+03 0.  0.
<mgrwt>
<rscale>  0 0.27374621E+03</rscale>
<asrwt>0</asrwt>
<pdfrwt beam="1">  1        1 0.24098388E+00 0.27374621E+03</pdfrwt>
<pdfrwt beam="2">  1       -1 0.18400157E-02 0.27374621E+03</pdfrwt>
<totfact> 0.50104780E+03</totfact>
</mgrwt>
</event>
<event>
 4    1  0.1749575E-004  0.2780597E+03  0.7818608E-02  0.1096753E+00
          2   -1    0    0  501    0  0.00000000000E+00  0.00000000000E+00  0.31145080481E+04  0.31145080481E+04  0.00000000000E+00 0. -1.
         -2   -1    0    0    0  501 -0.00000000000E+00 -0.00000000000E+00 -0.62062132100E+01  0.62062132100E+01  0.00000000000E+00 0. -1.
         25    1    1    2    0    0  0.54374981610E+02  0.38333710011E+02  0.13023939358E+04  0.13096014951E+04  0.12000000000E+03 0.  0.
         25    1    1    2    0    0 -0.54374981610E+02 -0.38333710011E+02  0.18059078991E+04  0.18111127662E+04  0.12000000000E+03 0.  0.
<mgrwt>
<rscale>  0 0.27805971E+03</rscale>
<asrwt>0</asrwt>
<pdfrwt beam="1">  1        2 0.47915384E+00 0.27805971E+03</pdfrwt>
<pdfrwt beam="2">  1       -2 0.95480452E-03 0.27805971E+03</pdfrwt>
<totfact> 0.40553741E+03</totfact>
</mgrwt>
</event>
<event>
 4    1  0.1749575E-004  0.2502782E+03  0.7818608E-02  0.1113129E+00
          2   -1    0    0  501    0  0.00000000000E+00  0.00000000000E+00  0.16606996364E+03  0.16606996364E+03  0.00000000000E+00 0.  1.
         -2   -1    0    0    0  501 -0.00000000000E+00 -0.00000000000E+00 -0.94296350348E+02  0.94296350348E+02  0.00000000000E+00 0.  1.
         25    1    1    2    0    0  0.25616180809E+02 -0.24087561674E+02  0.30855315983E+02  0.12879615627E+03  0.12000000000E+03 0.  0.
         25    1    1    2    0    0 -0.25616180809E+02  0.24087561674E+02  0.40918297312E+02  0.13157015772E+03  0.12000000000E+03 0.  0.
<mgrwt>
<rscale>  0 0.25027818E+03</rscale>
<asrwt>0</asrwt>
<pdfrwt beam="1">  1        2 0.25549225E-01 0.25027818E+03</pdfrwt>
<pdfrwt beam="2">  1       -2 0.14507131E-01 0.25027818E+03</pdfrwt>
<totfact> 0.74901425E+03</totfact>
</mgrwt>
</event>
<event>
 4    1  0.1749575E-004  0.2688023E+03  0.7818608E-02  0.1101967E+00
          2   -1    0    0  501    0  0.00000000000E+00  0.00000000000E+00  0.57223020150E+02  0.57223020150E+02  0.00000000000E+00 0.  1.
         -2   -1    0    0    0  501 -0.00000000000E+00 -0.00000000000E+00 -0.31567128760E+03  0.31567128760E+03  0.00000000000E+00 0.  1.
         25    1    1    2    0    0 -0.47820045286E+02 -0.35353803555E+02 -0.11358968588E+03  0.17561111837E+03  0.12000000000E+03 0.  0.
         25    1    1    2    0    0  0.47820045286E+02  0.35353803555E+02 -0.14485858157E+03  0.19728318938E+03  0.12000000000E+03 0.  0.
<mgrwt>
<rscale>  0 0.26880227E+03</rscale>
<asrwt>0</asrwt>
<pdfrwt beam="1">  1        2 0.88035415E-02 0.26880227E+03</pdfrwt>
<pdfrwt beam="2">  1       -2 0.48564814E-01 0.26880227E+03</pdfrwt>
<totfact> 0.30495336E+03</totfact>
</mgrwt>
</event>
<event>
 4    1  0.1749575E-004  0.3762017E+03  0.7818608E-02  0.1052347E+00
          2   -1    0    0  501    0  0.00000000000E+00  0.00000000000E+00  0.22508122783E+04  0.22508122783E+04  0.00000000000E+00 0. -1.
         -2   -1    0    0    0  501 -0.00000000000E+00 -0.00000000000E+00 -0.15719628441E+02  0.15719628441E+02  0.00000000000E+00 0. -1.
         25    1    1    2    0    0  0.12341497057E+03  0.19325210708E+02  0.67575241511E+03  0.69760020445E+03  0.12000000000E+03 0.  0.
         25    1    1    2    0    0 -0.12341497057E+03 -0.19325210708E+02  0.15593402348E+04  0.15689317023E+04  0.12000000000E+03 0.  0.
<mgrwt>
<rscale>  0 0.37620172E+03</rscale>
<asrwt>0</asrwt>
<pdfrwt beam="1">  1        2 0.34627856E+00 0.37620172E+03</pdfrwt>
<pdfrwt beam="2">  1       -2 0.24184062E-02 0.37620172E+03</pdfrwt>
<totfact> 0.31769430E+03</totfact>
</mgrwt>
</event>
<event>
 4    1  0.1749575E-004  0.2985812E+03  0.7818608E-02  0.1085952E+00
          1   -1    0    0  501    0  0.00000000000E+00  0.00000000000E+00  0.78301904503E+03  0.78301904503E+03  0.00000000000E+00 0.  1.
         -1   -1    0    0    0  501 -0.00000000000E+00 -0.00000000000E+00 -0.28463773398E+02  0.28463773398E+02  0.00000000000E+00 0.  1.
         25    1    1    2    0    0 -0.67077778327E+02  0.52827340025E+02  0.31084318854E+03  0.34396750437E+03  0.12000000000E+03 0.  0.
         25    1    1    2    0    0  0.67077778327E+02 -0.52827340025E+02  0.44371208309E+03  0.46751531406E+03  0.12000000000E+03 0.  0.
<mgrwt>
<rscale>  0 0.29858116E+03</rscale>
<asrwt>0</asrwt>
<pdfrwt beam="1">  1        1 0.12046445E+00 0.29858116E+03</pdfrwt>
<pdfrwt beam="2">  1       -1 0.43790426E-02 0.29858116E+03</pdfrwt>
<totfact> 0.51182306E+03</totfact>
</mgrwt>
</event>
<event>
 4    1  0.1749575E-004  0.2629049E+03  0.7818608E-02  0.1105410E+00
         -2   -1    0    0    0  501 -0.00000000000E+00  0.00000000000E+00  0.17714090090E+02  0.17714090090E+02  0.00000000000E+00 0. -1.
          2   -1    0    0  501    0  0.00000000000E+00 -0.00000000000E+00 -0.97548064597E+03  0.97548064597E+03  0.00000000000E+00 0. -1.
         25    1    1    2    0    0  0.14015341079E+02 -0.11822573405E+02 -0.28835663471E+03  0.31286698740E+03  0.12000000000E+03 0.  0.
         25    1    1    2    0    0 -0.14015341079E+02  0.11822573405E+02 -0.66940992117E+03  0.68032774865E+03  0.12000000000E+03 0.  0.
<mgrwt>
<rscale>  0 0.26290494E+03</rscale>
<asrwt>0</asrwt>
<pdfrwt beam="1">  1        2 0.15007400E+00 0.26290494E+03</pdfrwt>
<pdfrwt beam="2">  1       -2 0.27252437E-02 0.26290494E+03</pdfrwt>
<totfact> 0.13229832E+04</totfact>
</mgrwt>
</event>
<event>
 4    1  0.1749575E-004  0.2443933E+03  0.7818608E-02  0.1116900E+00
          1   -1    0    0  501    0  0.00000000000E+00  0.00000000000E+00  0.31435509164E+03  0.31435509164E+03  0.00000000000E+00 0. -1.
         -1   -1    0    0    0  501 -0.00000000000E+00 -0.00000000000E+00 -0.47500480774E+02  0.47500480774E+02  0.00000000000E+00 0. -1.
         25    1    1    2    0    0  0.14031601511E+02 -0.97715247972E+01  0.11050626990E+03  0.16402440131E+03  0.12000000000E+03 0.  0.
         25    1    1    2    0    0 -0.14031601511E+02  0.97715247972E+01  0.15634834096E+03  0.19783117110E+03  0.12000000000E+03 0.  0.
<mgrwt>
<rscale>  0 0.24439327E+03</rscale>
<asrwt>0</asrwt>
<pdfrwt beam="1">  1        1 0.48362320E-01 0.24439327E+03</pdfrwt>
<pdfrwt beam="2">  1       -1 0.73077665E-02 0.24439327E+03</pdfrwt>
<totfact> 0.80540824E+03</totfact>
</mgrwt>
</event>
<event>
 4    1  0.1749575E-004  0.3247694E+03  0.7818608E-02  0.1073475E+00
         -2   -1    0    0    0  501 -0.00000000000E+00  0.00000000000E+00  0.11240410708E+02  0.11240410708E+02  0.00000000000E+00 0. -1.
          2   -1    0    0  501    0  0.00000000000E+00 -0.00000000000E+00 -0.23458926095E+04  0.23458926095E+04  0.00000000000E+00 0. -1.
         25    1    1    2    0    0  0.23624322684E+02 -0.86320725104E+01 -0.39457040241E+03  0.41318086083E+03  0.12000000000E+03 0.  0.
         25    1    1    2    0    0 -0.23624322684E+02  0.86320725104E+01 -0.19400817964E+04  0.19439521594E+04  0.12000000000E+03 0.  0.
<mgrwt>
<rscale>  0 0.32476943E+03</rscale>
<asrwt>0</asrwt>
<pdfrwt beam="1">  1        2 0.36090646E+00 0.32476943E+03</pdfrwt>
<pdfrwt beam="2">  1       -2 0.17292944E-02 0.32476943E+03</pdfrwt>
<totfact> 0.46510770E+03</totfact>
</mgrwt>
</event>
<event>
 4    1  0.1749575E-004  0.2598403E+03  0.7818608E-02  0.1107239E+00
          2   -1    0    0  501    0  0.00000000000E+00  0.00000000000E+00  0.11175369347E+04  0.11175369347E+04  0.00000000000E+00 0.  1.
         -2   -1    0    0    0  501 -0.00000000000E+00 -0.00000000000E+00 -0.15103970587E+02  0.15103970587E+02  0.00000000000E+00 0.  1.
         25    1    1    2    0    0 -0.43640182456E+02  0.23150893729E+02  0.52405904292E+03  0.53988731220E+03  0.12000000000E+03 0.  0.
         25    1    1    2    0    0  0.43640182456E+02 -0.23150893729E+02  0.57837392118E+03  0.59275359307E+03  0.12000000000E+03 0.  0.
<mgrwt>
<rscale>  0 0.25984030E+03</rscale>
<asrwt>0</asrwt>
<pdfrwt beam="1">  1        2 0.17192869E+00 0.25984030E+03</pdfrwt>
<pdfrwt beam="2">  1       -2 0.23236887E-02 0.25984030E+03</pdfrwt>
<totfact> 0.13758547E+04</totfact>
</mgrwt>
</event>
<event>
 4    1  0.1749575E-004  0.2812086E+03  0.7818608E-02  0.1095031E+00
         -3   -1    0    0    0  501 -0.00000000000E+00  0.00000000000E+00  0.85499453892E+03  0.85499453892E+03  0.00000000000E+00 0. -1.
          3   -1    0    0  501    0  0.00000000000E+00 -0.00000000000E+00 -0.23122447604E+02  0.23122447604E+02  0.00000000000E+00 0. -1.
         25    1    1    2    0    0 -0.85086169285E+01  0.28491993832E+00  0.18866587798E+03  0.22375721498E+03  0.12000000000E+03 0.  0.
         25    1    1    2    0    0  0.85086169285E+01 -0.28491993832E+00  0.64320621333E+03  0.65435977154E+03  0.12000000000E+03 0.  0.
<mgrwt>
<rscale>  0 0.28120858E+03</rscale>
<asrwt>0</asrwt>
<pdfrwt beam="1">  1        3 0.35573003E-02 0.28120858E+03</pdfrwt>
<pdfrwt beam="2">  1       -3 0.13153760E+00 0.28120858E+03</pdfrwt>
<totfact> 0.46983143E+02</totfact>
</mgrwt>
</event>
<event>
 4    1  0.1749575E-004  0.3346759E+03  0.7818608E-02  0.1069086E+00
         -2   -1    0    0    0  501 -0.00000000000E+00  0.00000000000E+00  0.58830258425E+03  0.58830258425E+03  0.00000000000E+00 0. -1.
          2   -1    0    0  501    0  0.00000000000E+00 -0.00000000000E+00 -0.47597930785E+02  0.47597930785E+02  0.00000000000E+00 0. -1.
         25    1    1    2    0    0 -0.67795663880E+02  0.80926491776E+02  0.17617741474E+03  0.23787356006E+03  0.12000000000E+03 0.  0.
         25    1    1    2    0    0  0.67795663880E+02 -0.80926491776E+02  0.36452723873E+03  0.39802695498E+03  0.12000000000E+03 0.  0.
<mgrwt>
<rscale>  0 0.33467588E+03</rscale>
<asrwt>0</asrwt>
<pdfrwt beam="1">  1        2 0.73227590E-02 0.33467588E+03</pdfrwt>
<pdfrwt beam="2">  1       -2 0.90508085E-01 0.33467588E+03</pdfrwt>
<totfact> 0.10333524E+03</totfact>
</mgrwt>
</event>
<event>
 4    1  0.1749575E-004  0.3983590E+03  0.7818608E-02  0.1044349E+00
         -1   -1    0    0    0  501 -0.00000000000E+00  0.00000000000E+00  0.23035568675E+02  0.23035568675E+02  0.00000000000E+00 0. -1.
          1   -1    0    0  501    0  0.00000000000E+00 -0.00000000000E+00 -0.17222264419E+04  0.17222264419E+04  0.00000000000E+00 0. -1.
         25    1    1    2    0    0  0.24040415084E+02  0.14462898338E+03 -0.58034373961E+03  0.61048696996E+03  0.12000000000E+03 0.  0.
         25    1    1    2    0    0 -0.24040415084E+02 -0.14462898338E+03 -0.11188471336E+04  0.11347750406E+04  0.12000000000E+03 0.  0.
<mgrwt>
<rscale>  0 0.39835896E+03</rscale>
<asrwt>0</asrwt>
<pdfrwt beam="1">  1        1 0.26495801E+00 0.39835896E+03</pdfrwt>
<pdfrwt beam="2">  1       -1 0.35439324E-02 0.39835896E+03</pdfrwt>
<totfact> 0.14972559E+03</totfact>
</mgrwt>
</event>
<event>
 4    1  0.1749575E-004  0.4637230E+03  0.7818608E-02  0.1023707E+00
         -1   -1    0    0    0  501 -0.00000000000E+00  0.00000000000E+00  0.23771721457E+02  0.23771721457E+02  0.00000000000E+00 0. -1.
          1   -1    0    0  501    0  0.00000000000E+00 -0.00000000000E+00 -0.22615006851E+04  0.22615006851E+04  0.00000000000E+00 0. -1.
         25    1    1    2    0    0 -0.99733690640E+02  0.17086550730E+03 -0.10461130531E+04  0.10713983156E+04  0.12000000000E+03 0.  0.
         25    1    1    2    0    0  0.99733690640E+02 -0.17086550730E+03 -0.11916159105E+04  0.12138740910E+04  0.12000000000E+03 0.  0.
<mgrwt>
<rscale>  0 0.46372304E+03</rscale>
<asrwt>0</asrwt>
<pdfrwt beam="1">  1        1 0.34792335E+00 0.46372304E+03</pdfrwt>
<pdfrwt beam="2">  1       -1 0.36571861E-02 0.46372304E+03</pdfrwt>
<totfact> 0.62662332E+02</totfact>
</mgrwt>
</event>
<event>
 4    1  0.1749575E-004  0.2817362E+03  0.7818608E-02  0.1094744E+00
         -2   -1    0    0    0  501 -0.00000000000E+00  0.00000000000E+00  0.14108190549E+02  0.14108190549E+02  0.00000000000E+00 0.  1.
          2   -1    0    0  501    0  0.00000000000E+00 -0.00000000000E+00 -0.14065466333E+04  0.14065466333E+04  0.00000000000E+00 0.  1.
         25    1    1    2    0    0 -0.70306608220E+02 -0.24635959843E+01 -0.58406022327E+03  0.60039606334E+03  0.12000000000E+03 0.  0.
         25    1    1    2    0    0  0.70306608220E+02  0.24635959843E+01 -0.80837821951E+03  0.82025876054E+03  0.12000000000E+03 0.  0.
<mgrwt>
<rscale>  0 0.28173624E+03</rscale>
<asrwt>0</asrwt>
<pdfrwt beam="1">  1        2 0.21639186E+00 0.28173624E+03</pdfrwt>
<pdfrwt beam="2">  1       -2 0.21704901E-02 0.28173624E+03</pdfrwt>
<totfact> 0.10505629E+04</totfact>
</mgrwt>
</event>
<event>
 4    1  0.1749575E-004  0.3519858E+03  0.7818608E-02  0.1061803E+00
         -3   -1    0    0    0  501 -0.00000000000E+00  0.00000000000E+00  0.43389540731E+03  0.43389540731E+03  0.00000000000E+00 0. -1.
          3   -1    0    0  501    0  0.00000000000E+00 -0.00000000000E+00 -0.71384703428E+02  0.71384703428E+02  0.00000000000E+00 0. -1.
         25    1    1    2    0    0  0.83624338116E+02  0.64706986343E+02  0.28667978494E+03  0.32827629080E+03  0.12000000000E+03 0.  0.
         25    1    1    2    0    0 -0.83624338116E+02 -0.64706986343E+02  0.75830918948E+02  0.17700381995E+03  0.12000000000E+03 0.  0.
<mgrwt>
<rscale>  0 0.35198577E+03</rscale>
<asrwt>0</asrwt>
<pdfrwt beam="1">  1        3 0.10982262E-01 0.35198577E+03</pdfrwt>
<pdfrwt beam="2">  1       -3 0.66753139E-01 0.35198577E+03</pdfrwt>
<totfact> 0.35926983E+02</totfact>
</mgrwt>
</event>
<event>
 4    1  0.1749575E-004  0.3463302E+03  0.7818608E-02  0.1064131E+00
          2   -1    0    0  501    0  0.00000000000E+00  0.00000000000E+00  0.16088910615E+04  0.16088910615E+04  0.00000000000E+00 0. -1.
         -2   -1    0    0    0  501 -0.00000000000E+00 -0.00000000000E+00 -0.18637777005E+02  0.18637777005E+02  0.00000000000E+00 0. -1.
         25    1    1    2    0    0 -0.10805276814E+03  0.62361146423E+02  0.77316523808E+03  0.79230600065E+03  0.12000000000E+03 0.  0.
         25    1    1    2    0    0  0.10805276814E+03 -0.62361146423E+02  0.81708804644E+03  0.83522283789E+03  0.12000000000E+03 0.  0.
<mgrwt>
<rscale>  0 0.34633021E+03</rscale>
<asrwt>0</asrwt>
<pdfrwt beam="1">  1        2 0.24752159E+00 0.34633021E+03</pdfrwt>
<pdfrwt beam="2">  1       -2 0.28673516E-02 0.34633021E+03</pdfrwt>
<totfact> 0.54193078E+03</totfact>
</mgrwt>
</event>
<event>
 4    1  0.1749575E-004  0.2680774E+03  0.7818608E-02  0.1102385E+00
          2   -1    0    0  501    0  0.00000000000E+00  0.00000000000E+00  0.21075608269E+04  0.21075608269E+04  0.00000000000E+00 0.  1.
         -2   -1    0    0    0  501 -0.00000000000E+00 -0.00000000000E+00 -0.85247241143E+01  0.85247241143E+01  0.00000000000E+00 0.  1.
         25    1    1    2    0    0 -0.83129395354E+01  0.22352931539E+02  0.61734169223E+03  0.62934849128E+03  0.12000000000E+03 0.  0.
         25    1    1    2    0    0  0.83129395354E+01 -0.22352931539E+02  0.14816944105E+04  0.14867370597E+04  0.12000000000E+03 0.  0.
<mgrwt>
<rscale>  0 0.26807741E+03</rscale>
<asrwt>0</asrwt>
<pdfrwt beam="1">  1        2 0.32423971E+00 0.26807741E+03</pdfrwt>
<pdfrwt beam="2">  1       -2 0.13114977E-02 0.26807741E+03</pdfrwt>
<totfact> 0.93580354E+03</totfact>
</mgrwt>
</event>
<event>
 4    1  0.1749575E-004  0.2934713E+03  0.7818608E-02  0.1088551E+00
         -1   -1    0    0    0  501 -0.00000000000E+00  0.00000000000E+00  0.61206316962E+02  0.61206316962E+02  0.00000000000E+00 0. -1.
          1   -1    0    0  501    0  0.00000000000E+00 -0.00000000000E+00 -0.35178321084E+03  0.35178321084E+03  0.00000000000E+00 0. -1.
         25    1    1    2    0    0 -0.81664416921E+02 -0.18063651838E+02 -0.12887822741E+03  0.19494863428E+03  0.12000000000E+03 0.  0.
         25    1    1    2    0    0  0.81664416921E+02  0.18063651838E+02 -0.16169866647E+03  0.21804089352E+03  0.12000000000E+03 0.  0.
<mgrwt>
<rscale>  0 0.29347133E+03</rscale>
<asrwt>0</asrwt>
<pdfrwt beam="1">  1        1 0.54120495E-01 0.29347133E+03</pdfrwt>
<pdfrwt beam="2">  1       -1 0.94163563E-02 0.29347133E+03</pdfrwt>
<totfact> 0.47710373E+03</totfact>
</mgrwt>
</event>
<event>
 4    1  0.1749575E-004  0.3226095E+03  0.7818608E-02  0.1074455E+00
         -2   -1    0    0    0  501 -0.00000000000E+00  0.00000000000E+00  0.27623397378E+02  0.27623397378E+02  0.00000000000E+00 0. -1.
          2   -1    0    0  501    0  0.00000000000E+00 -0.00000000000E+00 -0.94192666891E+03  0.94192666891E+03  0.00000000000E+00 0. -1.
         25    1    1    2    0    0  0.77945795295E+02  0.65589387170E+02 -0.56305298335E+03  0.58464192184E+03  0.12000000000E+03 0.  0.
         25    1    1    2    0    0 -0.77945795295E+02 -0.65589387170E+02 -0.35125028818E+03  0.38490814444E+03  0.12000000000E+03 0.  0.
<mgrwt>
<rscale>  0 0.32260945E+03</rscale>
<asrwt>0</asrwt>
<pdfrwt beam="1">  1        2 0.14491180E+00 0.32260945E+03</pdfrwt>
<pdfrwt beam="2">  1       -2 0.42497533E-02 0.32260945E+03</pdfrwt>
<totfact> 0.71791095E+03</totfact>
</mgrwt>
</event>
<event>
 4    1  0.1749575E-004  0.2451061E+03  0.7818608E-02  0.1116437E+00
          1   -1    0    0  501    0  0.00000000000E+00  0.00000000000E+00  0.63327071905E+02  0.63327071905E+02  0.00000000000E+00 0.  1.
         -1   -1    0    0    0  501 -0.00000000000E+00 -0.00000000000E+00 -0.23716943621E+03  0.23716943621E+03  0.00000000000E+00 0.  1.
         25    1    1    2    0    0 -0.35864623475E+01  0.10614827285E+02 -0.11416203790E+03  0.16600755455E+03  0.12000000000E+03 0.  0.
         25    1    1    2    0    0  0.35864623475E+01 -0.10614827285E+02 -0.59680326401E+02  0.13448895356E+03  0.12000000000E+03 0.  0.
<mgrwt>
<rscale>  0 0.24510607E+03</rscale>
<asrwt>0</asrwt>
<pdfrwt beam="1">  1        1 0.97426262E-02 0.24510607E+03</pdfrwt>
<pdfrwt beam="2">  1       -1 0.36487606E-01 0.24510607E+03</pdfrwt>
<totfact> 0.47756805E+03</totfact>
</mgrwt>
</event>
<event>
 4    1  0.1749575E-004  0.4055948E+03  0.7818608E-02  0.1041859E+00
         -4   -1    0    0    0  501 -0.00000000000E+00  0.00000000000E+00  0.79995263043E+02  0.79995263043E+02  0.00000000000E+00 0.  1.
          4   -1    0    0  501    0  0.00000000000E+00 -0.00000000000E+00 -0.51411514919E+03  0.51411514919E+03  0.00000000000E+00 0.  1.
         25    1    1    2    0    0 -0.10614148815E+03  0.97786217610E+01 -0.35490363518E+02  0.16438127282E+03  0.12000000000E+03 0.  0.
         25    1    1    2    0    0  0.10614148815E+03 -0.97786217610E+01 -0.39862952263E+03  0.42972913942E+03  0.12000000000E+03 0.  0.
<mgrwt>
<rscale>  0 0.40559476E+03</rscale>
<asrwt>0</asrwt>
<pdfrwt beam="1">  1        4 0.79094639E-01 0.40559476E+03</pdfrwt>
<pdfrwt beam="2">  1       -4 0.12306964E-01 0.40559476E+03</pdfrwt>
<totfact> 0.15027979E+02</totfact>
</mgrwt>
</event>
<event>
 4    1  0.1749575E-004  0.4046729E+03  0.7818608E-02  0.1042174E+00
          4   -1    0    0  501    0  0.00000000000E+00  0.00000000000E+00  0.35832061356E+02  0.35832061356E+02  0.00000000000E+00 0. -1.
         -4   -1    0    0    0  501 -0.00000000000E+00 -0.00000000000E+00 -0.11425531993E+04  0.11425531993E+04  0.00000000000E+00 0. -1.
         25    1    1    2    0    0  0.76095178076E+02  0.36302495984E+02 -0.95927871807E+03  0.97042465256E+03  0.12000000000E+03 0.  0.
         25    1    1    2    0    0 -0.76095178076E+02 -0.36302495984E+02 -0.14744241985E+03  0.20796060808E+03  0.12000000000E+03 0.  0.
<mgrwt>
<rscale>  0 0.40467289E+03</rscale>
<asrwt>0</asrwt>
<pdfrwt beam="1">  1        4 0.55126257E-02 0.40467289E+03</pdfrwt>
<pdfrwt beam="2">  1       -4 0.17577739E+00 0.40467289E+03</pdfrwt>
<totfact> 0.81119131E+01</totfact>
</mgrwt>
</event>
<event>
 4    1  0.1749575E-004  0.3054805E+03  0.7818608E-02  0.1082533E+00
         -3   -1    0    0    0  501 -0.00000000000E+00  0.00000000000E+00  0.91347714512E+02  0.91347714512E+02  0.00000000000E+00 0.  1.
          3   -1    0    0  501    0  0.00000000000E+00 -0.00000000000E+00 -0.25539310900E+03  0.25539310900E+03  0.00000000000E+00 0.  1.
         25    1    1    2    0    0 -0.75716713035E+02  0.48270697967E+02 -0.11543487666E+03  0.18917793651E+03  0.12000000000E+03 0.  0.
         25    1    1    2    0    0  0.75716713035E+02 -0.48270697967E+02 -0.48610517832E+02  0.15756288700E+03  0.12000000000E+03 0.  0.
<mgrwt>
<rscale>  0 0.30548045E+03</rscale>
<asrwt>0</asrwt>
<pdfrwt beam="1">  1        3 0.39291247E-01 0.30548045E+03</pdfrwt>
<pdfrwt beam="2">  1       -3 0.14053495E-01 0.30548045E+03</pdfrwt>
<totfact> 0.68537444E+02</totfact>
</mgrwt>
</event>
<event>
 4    1  0.1749575E-004  0.2828478E+03  0.7818608E-02  0.1094144E+00
         -1   -1    0    0    0  501 -0.00000000000E+00  0.00000000000E+00  0.59124128616E+02  0.59124128616E+02  0.00000000000E+00 0.  1.
          1   -1    0    0  501    0  0.00000000000E+00 -0.00000000000E+00 -0.33828342461E+03  0.33828342461E+03  0.00000000000E+00 0.  1.
         25    1    1    2    0    0  0.30138488515E+02  0.25314738229E+02 -0.22901184360E+03  0.26152550348E+03  0.12000000000E+03 0.  0.
         25    1    1    2    0    0 -0.30138488515E+02 -0.25314738229E+02 -0.50147452395E+02  0.13588204975E+03  0.12000000000E+03 0.  0.
<mgrwt>
<rscale>  0 0.28284775E+03</rscale>
<asrwt>0</asrwt>
<pdfrwt beam="1">  1        1 0.52043604E-01 0.28284775E+03</pdfrwt>
<pdfrwt beam="2">  1       -1 0.90960197E-02 0.28284775E+03</pdfrwt>
<totfact> 0.52833088E+03</totfact>
</mgrwt>
</event>
<event>
 4    1  0.1749575E-004  0.3799331E+03  0.7818608E-02  0.1050958E+00
          2   -1    0    0  501    0  0.00000000000E+00  0.00000000000E+00  0.10448562562E+03  0.10448562562E+03  0.00000000000E+00 0.  1.
         -2   -1    0    0    0  501 -0.00000000000E+00 -0.00000000000E+00 -0.34538044764E+03  0.34538044764E+03  0.00000000000E+00 0.  1.
         25    1    1    2    0    0 -0.10499705064E+03 -0.50332757972E+02 -0.22720744012E+03  0.28210102448E+03  0.12000000000E+03 0.  0.
         25    1    1    2    0    0  0.10499705064E+03  0.50332757972E+02 -0.13687381894E+02  0.16776504878E+03  0.12000000000E+03 0.  0.
<mgrwt>
<rscale>  0 0.37993311E+03</rscale>
<asrwt>0</asrwt>
<pdfrwt beam="1">  1        2 0.16074711E-01 0.37993311E+03</pdfrwt>
<pdfrwt beam="2">  1       -2 0.53135454E-01 0.37993311E+03</pdfrwt>
<totfact> 0.12267893E+03</totfact>
</mgrwt>
</event>
<event>
 4    1  0.1749575E-004  0.2997945E+03  0.7818608E-02  0.1085343E+00
         -1   -1    0    0    0  501 -0.00000000000E+00  0.00000000000E+00  0.28458214570E+02  0.28458214570E+02  0.00000000000E+00 0.  1.
          1   -1    0    0  501    0  0.00000000000E+00 -0.00000000000E+00 -0.78955026740E+03  0.78955026740E+03  0.00000000000E+00 0.  1.
         25    1    1    2    0    0 -0.84004300477E+02 -0.31650471557E+02 -0.38947809340E+03  0.41731482131E+03  0.12000000000E+03 0.  0.
         25    1    1    2    0    0  0.84004300477E+02  0.31650471557E+02 -0.37161395943E+03  0.40069366066E+03  0.12000000000E+03 0.  0.
<mgrwt>
<rscale>  0 0.29979454E+03</rscale>
<asrwt>0</asrwt>
<pdfrwt beam="1">  1        1 0.12146925E+00 0.29979454E+03</pdfrwt>
<pdfrwt beam="2">  1       -1 0.43781877E-02 0.29979454E+03</pdfrwt>
<totfact> 0.50553073E+03</totfact>
</mgrwt>
</event>
<event>
 4    1  0.1749575E-004  0.2456856E+03  0.7818608E-02  0.1116062E+00
         -2   -1    0    0    0  501 -0.00000000000E+00  0.00000000000E+00  0.11925845003E+03  0.11925845003E+03  0.00000000000E+00 0. -1.
          2   -1    0    0  501    0  0.00000000000E+00 -0.00000000000E+00 -0.12653486989E+03  0.12653486989E+03  0.00000000000E+00 0. -1.
         25    1    1    2    0    0 -0.20507226978E+02 -0.73150452270E+01 -0.18351671029E+02  0.12333223453E+03  0.12000000000E+03 0.  0.
         25    1    1    2    0    0  0.20507226978E+02  0.73150452270E+01  0.11075251174E+02  0.12246108538E+03  0.12000000000E+03 0.  0.
<mgrwt>
<rscale>  0 0.24568559E+03</rscale>
<asrwt>0</asrwt>
<pdfrwt beam="1">  1        2 0.19466903E-01 0.24568559E+03</pdfrwt>
<pdfrwt beam="2">  1       -2 0.18347454E-01 0.24568559E+03</pdfrwt>
<totfact> 0.68805339E+03</totfact>
</mgrwt>
</event>
<event>
 4    1  0.1749575E-004  0.3237408E+03  0.7818608E-02  0.1073940E+00
         -1   -1    0    0    0  501 -0.00000000000E+00  0.00000000000E+00  0.11221807318E+03  0.11221807318E+03  0.00000000000E+00 0. -1.
          1   -1    0    0  501    0  0.00000000000E+00 -0.00000000000E+00 -0.23349198891E+03  0.23349198891E+03  0.00000000000E+00 0. -1.
         25    1    1    2    0    0 -0.82286137922E+02  0.57906428208E+02 -0.16895600800E+02  0.15751071154E+03  0.12000000000E+03 0.  0.
         25    1    1    2    0    0  0.82286137922E+02 -0.57906428208E+02 -0.10437831493E+03  0.18819935056E+03  0.12000000000E+03 0.  0.
<mgrwt>
<rscale>  0 0.32374077E+03</rscale>
<asrwt>0</asrwt>
<pdfrwt beam="1">  1        1 0.35921844E-01 0.32374077E+03</pdfrwt>
<pdfrwt beam="2">  1       -1 0.17264319E-01 0.32374077E+03</pdfrwt>
<totfact> 0.30893504E+03</totfact>
</mgrwt>
</event>
<event>
 4    1  0.1749575E-004  0.2567715E+03  0.7818608E-02  0.1109099E+00
         -2   -1    0    0    0  501 -0.00000000000E+00  0.00000000000E+00  0.12652787471E+02  0.12652787471E+02  0.00000000000E+00 0. -1.
          2   -1    0    0  501    0  0.00000000000E+00 -0.00000000000E+00 -0.13027091751E+04  0.13027091751E+04  0.00000000000E+00 0. -1.
         25    1    1    2    0    0  0.87427175892E+01 -0.37760834711E+02 -0.52159500830E+03  0.53662246360E+03  0.12000000000E+03 0.  0.
         25    1    1    2    0    0 -0.87427175892E+01  0.37760834711E+02 -0.76846137933E+03  0.77873949898E+03  0.12000000000E+03 0.  0.
<mgrwt>
<rscale>  0 0.25677151E+03</rscale>
<asrwt>0</asrwt>
<pdfrwt beam="1">  1        2 0.20041679E+00 0.25677151E+03</pdfrwt>
<pdfrwt beam="2">  1       -2 0.19465828E-02 0.25677151E+03</pdfrwt>
<totfact> 0.14020750E+04</totfact>
</mgrwt>
</event>
<event>
 4    1  0.1749575E-004  0.2596502E+03  0.7818608E-02  0.1107354E+00
          4   -1    0    0  501    0  0.00000000000E+00  0.00000000000E+00  0.49090489449E+03  0.49090489449E+03  0.00000000000E+00 0.  1.
         -4   -1    0    0    0  501 -0.00000000000E+00 -0.00000000000E+00 -0.34333658701E+02  0.34333658701E+02  0.00000000000E+00 0.  1.
         25    1    1    2    0    0 -0.34495230571E+02 -0.32190983574E+02  0.19771546431E+03  0.23604572689E+03  0.12000000000E+03 0.  0.
         25    1    1    2    0    0  0.34495230571E+02  0.32190983574E+02  0.25885577149E+03  0.28919282631E+03  0.12000000000E+03 0.  0.
<mgrwt>
<rscale>  0 0.25965023E+03</rscale>
<asrwt>0</asrwt>
<pdfrwt beam="1">  1        4 0.75523825E-01 0.25965023E+03</pdfrwt>
<pdfrwt beam="2">  1       -4 0.52821017E-02 0.25965023E+03</pdfrwt>
<totfact> 0.65570264E+02</totfact>
</mgrwt>
</event>
<event>
 4    1  0.1749575E-004  0.2601979E+03  0.7818608E-02  0.1107024E+00
         -2   -1    0    0    0  501 -0.00000000000E+00  0.00000000000E+00  0.70846605720E+01  0.70846605720E+01  0.00000000000E+00 0.  1.
          2   -1    0    0  501    0  0.00000000000E+00 -0.00000000000E+00 -0.23890679652E+04  0.23890679652E+04  0.00000000000E+00 0.  1.
         25    1    1    2    0    0 -0.41437542035E+02 -0.10869255875E+02 -0.14329833185E+04  0.14386369944E+04  0.12000000000E+03 0.  0.
         25    1    1    2    0    0  0.41437542035E+02  0.10869255875E+02 -0.94899998611E+03  0.95751563134E+03  0.12000000000E+03 0.  0.
<mgrwt>
<rscale>  0 0.26019789E+03</rscale>
<asrwt>0</asrwt>
<pdfrwt beam="1">  1        2 0.36754970E+00 0.26019789E+03</pdfrwt>
<pdfrwt beam="2">  1       -2 0.10899455E-02 0.26019789E+03</pdfrwt>
<totfact> 0.86671909E+03</totfact>
</mgrwt>
</event>
<event>
 4    1  0.1749575E-004  0.3075747E+03  0.7818608E-02  0.1081514E+00
         -2   -1    0    0    0  501 -0.00000000000E+00  0.00000000000E+00  0.29899722729E+03  0.29899722729E+03  0.00000000000E+00 0.  1.
          2   -1    0    0  501    0  0.00000000000E+00 -0.00000000000E+00 -0.79099561972E+02  0.79099561972E+02  0.00000000000E+00 0.  1.
         25    1    1    2    0    0 -0.45107887069E+02 -0.70531273389E+02  0.16814435253E+03  0.22289438147E+03  0.12000000000E+03 0.  0.
         25    1    1    2    0    0  0.45107887069E+02  0.70531273389E+02  0.51753312790E+02  0.15520240780E+03  0.12000000000E+03 0.  0.
<mgrwt>
<rscale>  0 0.30757470E+03</rscale>
<asrwt>0</asrwt>
<pdfrwt beam="1">  1        2 0.12169164E-01 0.30757470E+03</pdfrwt>
<pdfrwt beam="2">  1       -2 0.45999573E-01 0.30757470E+03</pdfrwt>
<totfact> 0.22805972E+03</totfact>
</mgrwt>
</event>
<event>
 4    1  0.1749575E-004  0.2656470E+03  0.7818608E-02  0.1103797E+00
          1   -1    0    0  501    0  0.00000000000E+00  0.00000000000E+00  0.20648342737E+03  0.20648342737E+03  0.00000000000E+00 0.  1.
         -1   -1    0    0    0  501 -0.00000000000E+00 -0.00000000000E+00 -0.85440668553E+02  0.85440668553E+02  0.00000000000E+00 0.  1.
         25    1    1    2    0    0 -0.52780858415E+02  0.76183674978E+01  0.38591891298E+02  0.13686925371E+03  0.12000000000E+03 0.  0.
         25    1    1    2    0    0  0.52780858415E+02 -0.76183674978E+01  0.82450867524E+02  0.15505484221E+03  0.12000000000E+03 0.  0.
<mgrwt>
<rscale>  0 0.26564700E+03</rscale>
<asrwt>0</asrwt>
<pdfrwt beam="1">  1        1 0.31766681E-01 0.26564700E+03</pdfrwt>
<pdfrwt beam="2">  1       -1 0.13144718E-01 0.26564700E+03</pdfrwt>
<totfact> 0.55354686E+03</totfact>
</mgrwt>
</event>
<event>
 4    1  0.1749575E-004  0.2484242E+03  0.7818608E-02  0.1114305E+00
          1   -1    0    0  501    0  0.00000000000E+00  0.00000000000E+00  0.43950217845E+03  0.43950217845E+03  0.00000000000E+00 0. -1.
         -1   -1    0    0    0  501 -0.00000000000E+00 -0.00000000000E+00 -0.35104812245E+02  0.35104812245E+02  0.00000000000E+00 0. -1.
         25    1    1    2    0    0  0.27886273309E+01 -0.29475890563E+02  0.17864196533E+03  0.21723157308E+03  0.12000000000E+03 0.  0.
         25    1    1    2    0    0 -0.27886273309E+01  0.29475890563E+02  0.22575540088E+03  0.25737541762E+03  0.12000000000E+03 0.  0.
<mgrwt>
<rscale>  0 0.24842417E+03</rscale>
<asrwt>0</asrwt>
<pdfrwt beam="1">  1        1 0.67615716E-01 0.24842417E+03</pdfrwt>
<pdfrwt beam="2">  1       -1 0.54007406E-02 0.24842417E+03</pdfrwt>
<totfact> 0.83028320E+03</totfact>
</mgrwt>
</event>
<event>
 4    1  0.1749575E-004  0.2799956E+03  0.7818608E-02  0.1095691E+00
          1   -1    0    0  501    0  0.00000000000E+00  0.00000000000E+00  0.16968402641E+04  0.16968402641E+04  0.00000000000E+00 0. -1.
         -1   -1    0    0    0  501 -0.00000000000E+00 -0.00000000000E+00 -0.11550517864E+02  0.11550517864E+02  0.00000000000E+00 0. -1.
         25    1    1    2    0    0 -0.39856883929E+01  0.70542455234E+02  0.93048518035E+03  0.94084791255E+03  0.12000000000E+03 0.  0.
         25    1    1    2    0    0  0.39856883929E+01 -0.70542455234E+02  0.75480456584E+03  0.76754286937E+03  0.12000000000E+03 0.  0.
<mgrwt>
<rscale>  0 0.27999560E+03</rscale>
<asrwt>0</asrwt>
<pdfrwt beam="1">  1        1 0.26105215E+00 0.27999560E+03</pdfrwt>
<pdfrwt beam="2">  1       -1 0.17770041E-02 0.27999560E+03</pdfrwt>
<totfact> 0.43302777E+03</totfact>
</mgrwt>
</event>
<event>
 4    1  0.1749575E-004  0.3082951E+03  0.7818608E-02  0.1081166E+00
         -2   -1    0    0    0  501 -0.00000000000E+00  0.00000000000E+00  0.27580476727E+02  0.27580476727E+02  0.00000000000E+00 0.  1.
          2   -1    0    0  501    0  0.00000000000E+00 -0.00000000000E+00 -0.86153189210E+03  0.86153189210E+03  0.00000000000E+00 0.  1.
         25    1    1    2    0    0  0.59413043600E+02  0.34954385072E+02 -0.22116863295E+03  0.26089707355E+03  0.12000000000E+03 0.  0.
         25    1    1    2    0    0 -0.59413043600E+02 -0.34954385072E+02 -0.61278278243E+03  0.62821529528E+03  0.12000000000E+03 0.  0.
<mgrwt>
<rscale>  0 0.30829506E+03</rscale>
<asrwt>0</asrwt>
<pdfrwt beam="1">  1        2 0.13254336E+00 0.30829506E+03</pdfrwt>
<pdfrwt beam="2">  1       -2 0.42431505E-02 0.30829506E+03</pdfrwt>
<totfact> 0.81068092E+03</totfact>
</mgrwt>
</event>
<event>
 4    1  0.1749575E-004  0.2799244E+03  0.7818608E-02  0.1095730E+00
         -4   -1    0    0    0  501 -0.00000000000E+00  0.00000000000E+00  0.16848342115E+03  0.16848342115E+03  0.00000000000E+00 0.  1.
          4   -1    0    0  501    0  0.00000000000E+00 -0.00000000000E+00 -0.11626909364E+03  0.11626909364E+03  0.00000000000E+00 0.  1.
         25    1    1    2    0    0  0.48074356278E+02  0.52611491799E+02  0.36790779976E+02  0.14433528429E+03  0.12000000000E+03 0.  0.
         25    1    1    2    0    0 -0.48074356278E+02 -0.52611491799E+02  0.15423547530E+02  0.14041723049E+03  0.12000000000E+03 0.  0.
<mgrwt>
<rscale>  0 0.27992438E+03</rscale>
<asrwt>0</asrwt>
<pdfrwt beam="1">  1        4 0.17887553E-01 0.27992438E+03</pdfrwt>
<pdfrwt beam="2">  1       -4 0.25920526E-01 0.27992438E+03</pdfrwt>
<totfact> 0.72623293E+02</totfact>
</mgrwt>
</event>
<event>
 4    1  0.1749575E-004  0.2499089E+03  0.7818608E-02  0.1113362E+00
          2   -1    0    0  501    0  0.00000000000E+00  0.00000000000E+00  0.11543359841E+04  0.11543359841E+04  0.00000000000E+00 0.  1.
         -2   -1    0    0    0  501 -0.00000000000E+00 -0.00000000000E+00 -0.13526057672E+02  0.13526057672E+02  0.00000000000E+00 0.  1.
         25    1    1    2    0    0 -0.16806900520E+02 -0.26289603655E+01  0.71247426836E+03  0.72270946197E+03  0.12000000000E+03 0.  0.
         25    1    1    2    0    0  0.16806900520E+02  0.26289603655E+01  0.42833565811E+03  0.44515257985E+03  0.12000000000E+03 0.  0.
<mgrwt>
<rscale>  0 0.24990890E+03</rscale>
<asrwt>0</asrwt>
<pdfrwt beam="1">  1        2 0.17759007E+00 0.24990890E+03</pdfrwt>
<pdfrwt beam="2">  1       -2 0.20809329E-02 0.24990890E+03</pdfrwt>
<totfact> 0.15390003E+04</totfact>
</mgrwt>
</event>
<event>
 4    1  0.1749575E-004  0.3610471E+03  0.7818608E-02  0.1058170E+00
         -2   -1    0    0    0  501 -0.00000000000E+00  0.00000000000E+00  0.13206532564E+02  0.13206532564E+02  0.00000000000E+00 0. -1.
          2   -1    0    0  501    0  0.00000000000E+00 -0.00000000000E+00 -0.24676241218E+04  0.24676241218E+04  0.00000000000E+00 0. -1.
         25    1    1    2    0    0  0.75591010976E+02 -0.14701543251E+02 -0.46643762851E+03  0.48774398777E+03  0.12000000000E+03 0.  0.
         25    1    1    2    0    0 -0.75591010976E+02  0.14701543251E+02 -0.19879799608E+04  0.19930866666E+04  0.12000000000E+03 0.  0.
<mgrwt>
<rscale>  0 0.36104713E+03</rscale>
<asrwt>0</asrwt>
<pdfrwt beam="1">  1        2 0.37963435E+00 0.36104713E+03</pdfrwt>
<pdfrwt beam="2">  1       -2 0.20317750E-02 0.36104713E+03</pdfrwt>
<totfact> 0.31383850E+03</totfact>
</mgrwt>
</event>
<event>
 4    1  0.1749575E-004  0.2623949E+03  0.7818608E-02  0.1105713E+00
         -2   -1    0    0    0  501 -0.00000000000E+00  0.00000000000E+00  0.11702655416E+03  0.11702655416E+03  0.00000000000E+00 0.  1.
          2   -1    0    0  501    0  0.00000000000E+00 -0.00000000000E+00 -0.14708433511E+03  0.14708433511E+03  0.00000000000E+00 0.  1.
         25    1    1    2    0    0 -0.41577843336E+02 -0.76008583424E+01 -0.47274041725E+02  0.13572518235E+03  0.12000000000E+03 0.  0.
         25    1    1    2    0    0  0.41577843336E+02  0.76008583424E+01  0.17216260779E+02  0.12838570691E+03  0.12000000000E+03 0.  0.
<mgrwt>
<rscale>  0 0.26239492E+03</rscale>
<asrwt>0</asrwt>
<pdfrwt beam="1">  1        2 0.22628359E-01 0.26239492E+03</pdfrwt>
<pdfrwt beam="2">  1       -2 0.18004085E-01 0.26239492E+03</pdfrwt>
<totfact> 0.60025314E+03</totfact>
</mgrwt>
</event>
<event>
 4    1  0.1749575E-004  0.2747492E+03  0.7818608E-02  0.1098592E+00
          3   -1    0    0  501    0  0.00000000000E+00  0.00000000000E+00  0.13530565684E+04  0.13530565684E+04  0.00000000000E+00 0. -1.
         -3   -1    0    0    0  501 -0.00000000000E+00 -0.00000000000E+00 -0.13947514478E+02  0.13947514478E+02  0.00000000000E+00 0. -1.
         25    1    1    2    0    0 -0.10739674213E+02 -0.19568289118E+02  0.35592207335E+03  0.37626955875E+03  0.12000000000E+03 0.  0.
         25    1    1    2    0    0  0.10739674213E+02  0.19568289118E+02  0.98318698059E+03  0.99073452415E+03  0.12000000000E+03 0.  0.
<mgrwt>
<rscale>  0 0.27474917E+03</rscale>
<asrwt>0</asrwt>
<pdfrwt beam="1">  1        3 0.20816245E+00 0.27474917E+03</pdfrwt>
<pdfrwt beam="2">  1       -3 0.21457725E-02 0.27474917E+03</pdfrwt>
<totfact> 0.31042449E+02</totfact>
</mgrwt>
</event>
<event>
 4    1  0.1749575E-004  0.3286506E+03  0.7818608E-02  0.1071736E+00
         -1   -1    0    0    0  501 -0.00000000000E+00  0.00000000000E+00  0.23021109023E+02  0.23021109023E+02  0.00000000000E+00 0. -1.
          1   -1    0    0  501    0  0.00000000000E+00 -0.00000000000E+00 -0.11729581363E+04  0.11729581363E+04  0.00000000000E+00 0. -1.
         25    1    1    2    0    0  0.80663978902E+02  0.55145450703E+02 -0.77611011728E+03  0.79138777623E+03  0.12000000000E+03 0.  0.
         25    1    1    2    0    0 -0.80663978902E+02 -0.55145450703E+02 -0.37382691004E+03  0.40459146914E+03  0.12000000000E+03 0.  0.
<mgrwt>
<rscale>  0 0.32865056E+03</rscale>
<asrwt>0</asrwt>
<pdfrwt beam="1">  1        1 0.18045516E+00 0.32865056E+03</pdfrwt>
<pdfrwt beam="2">  1       -1 0.35417078E-02 0.32865056E+03</pdfrwt>
<totfact> 0.35353587E+03</totfact>
</mgrwt>
</event>
<event>
 4    1  0.1749575E-004  0.2489042E+03  0.7818608E-02  0.1113999E+00
         -1   -1    0    0    0  501 -0.00000000000E+00  0.00000000000E+00  0.11033314019E+03  0.11033314019E+03  0.00000000000E+00 0. -1.
          1   -1    0    0  501    0  0.00000000000E+00 -0.00000000000E+00 -0.14037785380E+03  0.14037785380E+03  0.00000000000E+00 0. -1.
         25    1    1    2    0    0  0.23939739819E+01 -0.29398158855E+01 -0.48031503458E+02  0.12931124836E+03  0.12000000000E+03 0.  0.
         25    1    1    2    0    0 -0.23939739819E+01  0.29398158855E+01  0.17986789845E+02  0.12139974562E+03  0.12000000000E+03 0.  0.
<mgrwt>
<rscale>  0 0.24890423E+03</rscale>
<asrwt>0</asrwt>
<pdfrwt beam="1">  1        1 0.21596593E-01 0.24890423E+03</pdfrwt>
<pdfrwt beam="2">  1       -1 0.16974329E-01 0.24890423E+03</pdfrwt>
<totfact> 0.60077009E+03</totfact>
</mgrwt>
</event>
<event>
 4    1  0.1749575E-004  0.3679476E+03  0.7818608E-02  0.1055481E+00
          2   -1    0    0  501    0  0.00000000000E+00  0.00000000000E+00  0.32622682509E+03  0.32622682509E+03  0.00000000000E+00 0.  1.
         -2   -1    0    0    0  501 -0.00000000000E+00 -0.00000000000E+00 -0.10375101105E+03  0.10375101105E+03  0.00000000000E+00 0.  1.
         25    1    1    2    0    0  0.65683248109E+02 -0.33717815137E+02 -0.27007069233E+02  0.14345926923E+03  0.12000000000E+03 0.  0.
         25    1    1    2    0    0 -0.65683248109E+02  0.33717815137E+02  0.24948288327E+03  0.28651856691E+03  0.12000000000E+03 0.  0.
<mgrwt>
<rscale>  0 0.36794762E+03</rscale>
<asrwt>0</asrwt>
<pdfrwt beam="1">  1        2 0.50188742E-01 0.36794762E+03</pdfrwt>
<pdfrwt beam="2">  1       -2 0.15961694E-01 0.36794762E+03</pdfrwt>
<totfact> 0.30936959E+03</totfact>
</mgrwt>
</event>
<event>
 4    1  0.1749575E-004  0.3949895E+03  0.7818608E-02  0.1045529E+00
          2   -1    0    0  501    0  0.00000000000E+00  0.00000000000E+00  0.32004482377E+03  0.32004482377E+03  0.00000000000E+00 0. -1.
         -2   -1    0    0    0  501 -0.00000000000E+00 -0.00000000000E+00 -0.12187099191E+03  0.12187099191E+03  0.00000000000E+00 0. -1.
         25    1    1    2    0    0 -0.39511638097E+02  0.62066484683E+01 -0.70604650708E+02  0.14486099797E+03  0.12000000000E+03 0.  0.
         25    1    1    2    0    0  0.39511638097E+02 -0.62066484683E+01  0.26877848257E+03  0.29705481771E+03  0.12000000000E+03 0.  0.
<mgrwt>
<rscale>  0 0.39498952E+03</rscale>
<asrwt>0</asrwt>
<pdfrwt beam="1">  1        2 0.49237665E-01 0.39498952E+03</pdfrwt>
<pdfrwt beam="2">  1       -2 0.18749384E-01 0.39498952E+03</pdfrwt>
<totfact> 0.24080999E+03</totfact>
</mgrwt>
</event>
<event>
 4    1  0.1749575E-004  0.2526166E+03  0.7818608E-02  0.1111662E+00
         -3   -1    0    0    0  501 -0.00000000000E+00  0.00000000000E+00  0.61275805447E+02  0.61275805447E+02  0.00000000000E+00 0.  1.
          3   -1    0    0  501    0  0.00000000000E+00 -0.00000000000E+00 -0.26036025794E+03  0.26036025794E+03  0.00000000000E+00 0.  1.
         25    1    1    2    0    0  0.18158237952E+02  0.22407735161E+02 -0.65331811442E+02  0.13964266464E+03  0.12000000000E+03 0.  0.
         25    1    1    2    0    0 -0.18158237952E+02 -0.22407735161E+02 -0.13375264105E+03  0.18199339875E+03  0.12000000000E+03 0.  0.
<mgrwt>
<rscale>  0 0.25261658E+03</rscale>
<asrwt>0</asrwt>
<pdfrwt beam="1">  1        3 0.40055424E-01 0.25261658E+03</pdfrwt>
<pdfrwt beam="2">  1       -3 0.94270470E-02 0.25261658E+03</pdfrwt>
<totfact> 0.12705330E+03</totfact>
</mgrwt>
</event>
<event>
 4    1  0.1749575E-004  0.3391732E+03  0.7818608E-02  0.1067149E+00
          1   -1    0    0  501    0  0.00000000000E+00  0.00000000000E+00  0.12174397413E+04  0.12174397413E+04  0.00000000000E+00 0. -1.
         -1   -1    0    0    0  501 -0.00000000000E+00 -0.00000000000E+00 -0.23623036209E+02  0.23623036209E+02  0.00000000000E+00 0. -1.
         25    1    1    2    0    0 -0.36453824924E+02 -0.11400524493E+03  0.61810131548E+03  0.64091755587E+03  0.12000000000E+03 0.  0.
         25    1    1    2    0    0  0.36453824924E+02  0.11400524493E+03  0.57571538960E+03  0.60014522163E+03  0.12000000000E+03 0.  0.
<mgrwt>
<rscale>  0 0.33917325E+03</rscale>
<asrwt>0</asrwt>
<pdfrwt beam="1">  1        1 0.18729837E+00 0.33917325E+03</pdfrwt>
<pdfrwt beam="2">  1       -1 0.36343142E-02 0.33917325E+03</pdfrwt>
<totfact> 0.31649982E+03</totfact>
</mgrwt>
</event>
<event>
 4    1  0.1749575E-004  0.3034889E+03  0.7818608E-02  0.1083509E+00
         -4   -1    0    0    0  501 -0.00000000000E+00  0.00000000000E+00  0.45007086073E+02  0.45007086073E+02  0.00000000000E+00 0. -1.
          4   -1    0    0  501    0  0.00000000000E+00 -0.00000000000E+00 -0.51161679525E+03  0.51161679525E+03  0.00000000000E+00 0. -1.
         25    1    1    2    0    0 -0.18494807666E+02 -0.38649480530E+02 -0.82167721678E+02  0.15161587892E+03  0.12000000000E+03 0.  0.
         25    1    1    2    0    0  0.18494807666E+02  0.38649480530E+02 -0.38444198750E+03  0.40500800240E+03  0.12000000000E+03 0.  0.
<mgrwt>
<rscale>  0 0.30348892E+03</rscale>
<asrwt>0</asrwt>
<pdfrwt beam="1">  1        4 0.78710273E-01 0.30348892E+03</pdfrwt>
<pdfrwt beam="2">  1       -4 0.69241673E-02 0.30348892E+03</pdfrwt>
<totfact> 0.39139923E+02</totfact>
</mgrwt>
</event>
<event>
 4    1  0.1749575E-004  0.2982973E+03  0.7818608E-02  0.1086095E+00
          1   -1    0    0  501    0  0.00000000000E+00  0.00000000000E+00  0.16994366542E+03  0.16994366542E+03  0.00000000000E+00 0. -1.
         -1   -1    0    0    0  501 -0.00000000000E+00 -0.00000000000E+00 -0.13089818469E+03  0.13089818469E+03  0.00000000000E+00 0. -1.
         25    1    1    2    0    0  0.41345982723E+02  0.67577674701E+02 -0.20426835605E+02  0.14523597357E+03  0.12000000000E+03 0.  0.
         25    1    1    2    0    0 -0.41345982723E+02 -0.67577674701E+02  0.59472316327E+02  0.15560587654E+03  0.12000000000E+03 0.  0.
<mgrwt>
<rscale>  0 0.29829728E+03</rscale>
<asrwt>0</asrwt>
<pdfrwt beam="1">  1        1 0.26145179E-01 0.29829728E+03</pdfrwt>
<pdfrwt beam="2">  1       -1 0.20138182E-01 0.29829728E+03</pdfrwt>
<totfact> 0.35928933E+03</totfact>
</mgrwt>
</event>
<event>
 4    1  0.1749575E-004  0.2856703E+03  0.7818608E-02  0.1092632E+00
         -1   -1    0    0    0  501 -0.00000000000E+00  0.00000000000E+00  0.34352612645E+02  0.34352612645E+02  0.00000000000E+00 0.  1.
          1   -1    0    0  501    0  0.00000000000E+00 -0.00000000000E+00 -0.59389614822E+03  0.59389614822E+03  0.00000000000E+00 0.  1.
         25    1    1    2    0    0  0.70826382131E+02  0.27495697333E+02 -0.24645577984E+03  0.28445182579E+03  0.12000000000E+03 0.  0.
         25    1    1    2    0    0 -0.70826382131E+02 -0.27495697333E+02 -0.31308775574E+03  0.34379693508E+03  0.12000000000E+03 0.  0.
<mgrwt>
<rscale>  0 0.28567033E+03</rscale>
<asrwt>0</asrwt>
<pdfrwt beam="1">  1        1 0.91368647E-01 0.28567033E+03</pdfrwt>
<pdfrwt beam="2">  1       -1 0.52850168E-02 0.28567033E+03</pdfrwt>
<totfact> 0.57631817E+03</totfact>
</mgrwt>
</event>
<event>
 4    1  0.1749575E-004  0.4351273E+03  0.7818608E-02  0.1032252E+00
         -1   -1    0    0    0  501 -0.00000000000E+00  0.00000000000E+00  0.21908300851E+03  0.21908300851E+03  0.00000000000E+00 0. -1.
          1   -1    0    0  501    0  0.00000000000E+00 -0.00000000000E+00 -0.21605482840E+03  0.21605482840E+03  0.00000000000E+00 0. -1.
         25    1    1    2    0    0  0.59775759389E+02  0.81259523667E+02  0.15237426508E+03  0.21861877380E+03  0.12000000000E+03 0.  0.
         25    1    1    2    0    0 -0.59775759389E+02 -0.81259523667E+02 -0.14934608497E+03  0.21651906311E+03  0.12000000000E+03 0.  0.
<mgrwt>
<rscale>  0 0.43512730E+03</rscale>
<asrwt>0</asrwt>
<pdfrwt beam="1">  1        1 0.33239204E-01 0.43512730E+03</pdfrwt>
<pdfrwt beam="2">  1       -1 0.33705078E-01 0.43512730E+03</pdfrwt>
<totfact> 0.11156123E+03</totfact>
</mgrwt>
</event>
<event>
 4    1  0.1749575E-004  0.2594839E+03  0.7818608E-02  0.1107454E+00
          2   -1    0    0  501    0  0.00000000000E+00  0.00000000000E+00  0.31327930512E+02  0.31327930512E+02  0.00000000000E+00 0. -1.
         -2   -1    0    0    0  501 -0.00000000000E+00 -0.00000000000E+00 -0.53731507875E+03  0.53731507875E+03  0.00000000000E+00 0. -1.
         25    1    1    2    0    0 -0.42947066990E+02 -0.18030498950E+02 -0.21742604387E+03  0.25267297839E+03  0.12000000000E+03 0.  0.
         25    1    1    2    0    0  0.42947066990E+02  0.18030498950E+02 -0.28856110437E+03  0.31597003087E+03  0.12000000000E+03 0.  0.
<mgrwt>
<rscale>  0 0.25948387E+03</rscale>
<asrwt>0</asrwt>
<pdfrwt beam="1">  1        2 0.48196821E-02 0.25948387E+03</pdfrwt>
<pdfrwt beam="2">  1       -2 0.82663850E-01 0.25948387E+03</pdfrwt>
<totfact> 0.21763270E+03</totfact>
</mgrwt>
</event>
<event>
 4    1  0.1749575E-004  0.2992929E+03  0.7818608E-02  0.1085595E+00
         -1   -1    0    0    0  501 -0.00000000000E+00  0.00000000000E+00  0.14333967839E+03  0.14333967839E+03  0.00000000000E+00 0. -1.
          1   -1    0    0  501    0  0.00000000000E+00 -0.00000000000E+00 -0.15623067080E+03  0.15623067080E+03  0.00000000000E+00 0. -1.
         25    1    1    2    0    0 -0.61214457611E+02  0.26244143021E+02  0.53259529115E+02  0.14721597164E+03  0.12000000000E+03 0.  0.
         25    1    1    2    0    0  0.61214457611E+02 -0.26244143021E+02 -0.66150521522E+02  0.15235437756E+03  0.12000000000E+03 0.  0.
<mgrwt>
<rscale>  0 0.29929286E+03</rscale>
<asrwt>0</asrwt>
<pdfrwt beam="1">  1        1 0.24035488E-01 0.29929286E+03</pdfrwt>
<pdfrwt beam="2">  1       -1 0.22052258E-01 0.29929286E+03</pdfrwt>
<totfact> 0.34476489E+03</totfact>
</mgrwt>
</event>
<event>
 4    1  0.1749575E-004  0.3853955E+03  0.7818608E-02  0.1048957E+00
         -2   -1    0    0    0  501 -0.00000000000E+00  0.00000000000E+00  0.25099328306E+02  0.25099328306E+02  0.00000000000E+00 0.  1.
          2   -1    0    0  501    0  0.00000000000E+00 -0.00000000000E+00 -0.14794191838E+04  0.14794191838E+04  0.00000000000E+00 0.  1.
         25    1    1    2    0    0 -0.11338622079E+03  0.15856182176E+02 -0.11101448094E+04  0.11224657462E+04  0.12000000000E+03 0.  0.
         25    1    1    2    0    0  0.11338622079E+03 -0.15856182176E+02 -0.34417504612E+03  0.38205276593E+03  0.12000000000E+03 0.  0.
<mgrwt>
<rscale>  0 0.38539553E+03</rscale>
<asrwt>0</asrwt>
<pdfrwt beam="1">  1        2 0.22760299E+00 0.38539553E+03</pdfrwt>
<pdfrwt beam="2">  1       -2 0.38614345E-02 0.38539553E+03</pdfrwt>
<totfact> 0.40650599E+03</totfact>
</mgrwt>
</event>
<event>
 4    1  0.1749575E-004  0.2472082E+03  0.7818608E-02  0.1115082E+00
          2   -1    0    0  501    0  0.00000000000E+00  0.00000000000E+00  0.50571009602E+03  0.50571009602E+03  0.00000000000E+00 0. -1.
         -2   -1    0    0    0  501 -0.00000000000E+00 -0.00000000000E+00 -0.30210937246E+02  0.30210937246E+02  0.00000000000E+00 0. -1.
         25    1    1    2    0    0  0.16886705919E+02 -0.17845595530E+02  0.27365750075E+03  0.29982003575E+03  0.12000000000E+03 0.  0.
         25    1    1    2    0    0 -0.16886705919E+02  0.17845595530E+02  0.20184165802E+03  0.23610099751E+03  0.12000000000E+03 0.  0.
<mgrwt>
<rscale>  0 0.24720822E+03</rscale>
<asrwt>0</asrwt>
<pdfrwt beam="1">  1        2 0.77801547E-01 0.24720822E+03</pdfrwt>
<pdfrwt beam="2">  1       -2 0.46478369E-02 0.24720822E+03</pdfrwt>
<totfact> 0.13285567E+04</totfact>
</mgrwt>
</event>
<event>
 4    1  0.1749575E-004  0.2469825E+03  0.7818608E-02  0.1115227E+00
         -2   -1    0    0    0  501 -0.00000000000E+00  0.00000000000E+00  0.28780619412E+02  0.28780619412E+02  0.00000000000E+00 0. -1.
          2   -1    0    0  501    0  0.00000000000E+00 -0.00000000000E+00 -0.52987372298E+03  0.52987372298E+03  0.00000000000E+00 0. -1.
         25    1    1    2    0    0  0.25084206210E+02  0.61152187645E+01 -0.21990772967E+03  0.25184523595E+03  0.12000000000E+03 0.  0.
         25    1    1    2    0    0 -0.25084206210E+02 -0.61152187645E+01 -0.28118537390E+03  0.30680910644E+03  0.12000000000E+03 0.  0.
<mgrwt>
<rscale>  0 0.24698254E+03</rscale>
<asrwt>0</asrwt>
<pdfrwt beam="1">  1        2 0.81519031E-01 0.24698254E+03</pdfrwt>
<pdfrwt beam="2">  1       -2 0.44277878E-02 0.24698254E+03</pdfrwt>
<totfact> 0.13564660E+04</totfact>
</mgrwt>
</event>
<event>
 4    1  0.1749575E-004  0.3860805E+03  0.7818608E-02  0.1048709E+00
          2   -1    0    0  501    0  0.00000000000E+00  0.00000000000E+00  0.11605483036E+04  0.11605483036E+04  0.00000000000E+00 0. -1.
         -2   -1    0    0    0  501 -0.00000000000E+00 -0.00000000000E+00 -0.32109416214E+02  0.32109416214E+02  0.00000000000E+00 0. -1.
         25    1    1    2    0    0 -0.52067294106E-01 -0.74322350463E+02  0.15742828933E+03  0.21144143579E+03  0.12000000000E+03 0.  0.
         25    1    1    2    0    0  0.52067294106E-01  0.74322350463E+02  0.97101059810E+03  0.98121628406E+03  0.12000000000E+03 0.  0.
<mgrwt>
<rscale>  0 0.38608045E+03</rscale>
<asrwt>0</asrwt>
<pdfrwt beam="1">  1        2 0.17854586E+00 0.38608045E+03</pdfrwt>
<pdfrwt beam="2">  1       -2 0.49399111E-02 0.38608045E+03</pdfrwt>
<totfact> 0.42153956E+03</totfact>
</mgrwt>
</event>
<event>
 4    1  0.1749575E-004  0.2991631E+03  0.7818608E-02  0.1085660E+00
          1   -1    0    0  501    0  0.00000000000E+00  0.00000000000E+00  0.56793801517E+02  0.56793801517E+02  0.00000000000E+00 0.  1.
         -1   -1    0    0    0  501 -0.00000000000E+00 -0.00000000000E+00 -0.39396264600E+03  0.39396264600E+03  0.00000000000E+00 0.  1.
         25    1    1    2    0    0  0.76393121988E+02  0.41473698251E+02 -0.19941378019E+03  0.24843879017E+03  0.12000000000E+03 0.  0.
         25    1    1    2    0    0 -0.76393121988E+02 -0.41473698251E+02 -0.13775506429E+03  0.20231765734E+03  0.12000000000E+03 0.  0.
<mgrwt>
<rscale>  0 0.29916307E+03</rscale>
<asrwt>0</asrwt>
<pdfrwt beam="1">  1        1 0.87375077E-02 0.29916307E+03</pdfrwt>
<pdfrwt beam="2">  1       -1 0.60609639E-01 0.29916307E+03</pdfrwt>
<totfact> 0.21967379E+03</totfact>
</mgrwt>
</event>
<event>
 4    1  0.1749575E-004  0.4081447E+03  0.7818608E-02  0.1040995E+00
         -4   -1    0    0    0  501 -0.00000000000E+00  0.00000000000E+00  0.38685267729E+03  0.38685267729E+03  0.00000000000E+00 0. -1.
          4   -1    0    0  501    0  0.00000000000E+00 -0.00000000000E+00 -0.10765214787E+03  0.10765214787E+03  0.00000000000E+00 0. -1.
         25    1    1    2    0    0  0.14450810758E+03 -0.50014708856E+02  0.21488934756E+03  0.28976110152E+03  0.12000000000E+03 0.  0.
         25    1    1    2    0    0 -0.14450810758E+03  0.50014708856E+02  0.64311181870E+02  0.20474372365E+03  0.12000000000E+03 0.  0.
<mgrwt>
<rscale>  0 0.40814469E+03</rscale>
<asrwt>0</asrwt>
<pdfrwt beam="1">  1        4 0.16561869E-01 0.40814469E+03</pdfrwt>
<pdfrwt beam="2">  1       -4 0.59515796E-01 0.40814469E+03</pdfrwt>
<totfact> 0.16589136E+02</totfact>
</mgrwt>
</event>
<event>
 4    1  0.1749575E-004  0.2917000E+03  0.7818608E-02  0.1089465E+00
          3   -1    0    0  501    0  0.00000000000E+00  0.00000000000E+00  0.71699776036E+03  0.71699776036E+03  0.00000000000E+00 0. -1.
         -3   -1    0    0    0  501 -0.00000000000E+00 -0.00000000000E+00 -0.29668461343E+02  0.29668461343E+02  0.00000000000E+00 0. -1.
         25    1    1    2    0    0 -0.58511281683E+02  0.35807383796E+02  0.22452190721E+03  0.26365853985E+03  0.12000000000E+03 0.  0.
         25    1    1    2    0    0  0.58511281683E+02 -0.35807383796E+02  0.46280739181E+03  0.48300768186E+03  0.12000000000E+03 0.  0.
<mgrwt>
<rscale>  0 0.29169999E+03</rscale>
<asrwt>0</asrwt>
<pdfrwt beam="1">  1        3 0.11030733E+00 0.29169999E+03</pdfrwt>
<pdfrwt beam="2">  1       -3 0.45643792E-02 0.29169999E+03</pdfrwt>
<totfact> 0.48547116E+02</totfact>
</mgrwt>
</event>
<event>
 4    1  0.1749575E-004  0.2737338E+03  0.7818608E-02  0.1099161E+00
         -2   -1    0    0    0  501 -0.00000000000E+00  0.00000000000E+00  0.61604712205E+03  0.61604712205E+03  0.00000000000E+00 0.  1.
          2   -1    0    0  501    0  0.00000000000E+00 -0.00000000000E+00 -0.30407660796E+02  0.30407660796E+02  0.00000000000E+00 0.  1.
         25    1    1    2    0    0  0.23089621438E+02  0.53371508362E+02  0.36564429318E+03  0.38920097335E+03  0.12000000000E+03 0.  0.
         25    1    1    2    0    0 -0.23089621438E+02 -0.53371508362E+02  0.21999516807E+03  0.25725380949E+03  0.12000000000E+03 0.  0.
<mgrwt>
<rscale>  0 0.27373383E+03</rscale>
<asrwt>0</asrwt>
<pdfrwt beam="1">  1        2 0.46781021E-02 0.27373383E+03</pdfrwt>
<pdfrwt beam="2">  1       -2 0.94776471E-01 0.27373383E+03</pdfrwt>
<totfact> 0.16662389E+03</totfact>
</mgrwt>
</event>
<event>
 4    1  0.1749575E-004  0.2782076E+03  0.7818608E-02  0.1096672E+00
          1   -1    0    0  501    0  0.00000000000E+00  0.00000000000E+00  0.88680354060E+02  0.88680354060E+02  0.00000000000E+00 0.  1.
         -1   -1    0    0    0  501 -0.00000000000E+00 -0.00000000000E+00 -0.21819792137E+03  0.21819792137E+03  0.00000000000E+00 0.  1.
         25    1    1    2    0    0 -0.64816027337E+02 -0.20375558549E+02 -0.84905414736E+02  0.16194199652E+03  0.12000000000E+03 0.  0.
         25    1    1    2    0    0  0.64816027337E+02  0.20375558549E+02 -0.44612152573E+02  0.14493627891E+03  0.12000000000E+03 0.  0.
<mgrwt>
<rscale>  0 0.27820761E+03</rscale>
<asrwt>0</asrwt>
<pdfrwt beam="1">  1        1 0.13643131E-01 0.27820761E+03</pdfrwt>
<pdfrwt beam="2">  1       -1 0.33568911E-01 0.27820761E+03</pdfrwt>
<totfact> 0.35395706E+03</totfact>
</mgrwt>
</event>
<event>
 4    1  0.1749575E-004  0.2846589E+03  0.7818608E-02  0.1093171E+00
         -1   -1    0    0    0  501 -0.00000000000E+00  0.00000000000E+00  0.46171041082E+02  0.46171041082E+02  0.00000000000E+00 0.  1.
          1   -1    0    0  501    0  0.00000000000E+00 -0.00000000000E+00 -0.43875273416E+03  0.43875273416E+03  0.00000000000E+00 0.  1.
         25    1    1    2    0    0 -0.66300464367E+02 -0.14209945085E+02 -0.13582176358E+03  0.19350768868E+03  0.12000000000E+03 0.  0.
         25    1    1    2    0    0  0.66300464367E+02  0.14209945085E+02 -0.25675992949E+03  0.29141608656E+03  0.12000000000E+03 0.  0.
<mgrwt>
<rscale>  0 0.28465889E+03</rscale>
<asrwt>0</asrwt>
<pdfrwt beam="1">  1        1 0.67500420E-01 0.28465889E+03</pdfrwt>
<pdfrwt beam="2">  1       -1 0.71032371E-02 0.28465889E+03</pdfrwt>
<totfact> 0.55280728E+03</totfact>
</mgrwt>
</event>
<event>
 4    1  0.1749575E-004  0.3357080E+03  0.7818608E-02  0.1068639E+00
          2   -1    0    0  501    0  0.00000000000E+00  0.00000000000E+00  0.83912318465E+03  0.83912318465E+03  0.00000000000E+00 0.  1.
         -2   -1    0    0    0  501 -0.00000000000E+00 -0.00000000000E+00 -0.33576674826E+02  0.33576674826E+02  0.00000000000E+00 0.  1.
         25    1    1    2    0    0 -0.93658877505E+02 -0.65413672262E+02  0.33282413980E+03  0.37178332653E+03  0.12000000000E+03 0.  0.
         25    1    1    2    0    0  0.93658877505E+02  0.65413672262E+02  0.47272237002E+03  0.50091653294E+03  0.12000000000E+03 0.  0.
<mgrwt>
<rscale>  0 0.33570801E+03</rscale>
<asrwt>0</asrwt>
<pdfrwt beam="1">  1        2 0.12909586E+00 0.33570801E+03</pdfrwt>
<pdfrwt beam="2">  1       -2 0.51656429E-02 0.33570801E+03</pdfrwt>
<totfact> 0.62335851E+03</totfact>
</mgrwt>
</event>
<event>
 4    1  0.1749575E-004  0.2867926E+03  0.7818608E-02  0.1092036E+00
          1   -1    0    0  501    0  0.00000000000E+00  0.00000000000E+00  0.67626361343E+03  0.67626361343E+03  0.00000000000E+00 0.  1.
         -1   -1    0    0    0  501 -0.00000000000E+00 -0.00000000000E+00 -0.30406043721E+02  0.30406043721E+02  0.00000000000E+00 0.  1.
         25    1    1    2    0    0  0.11738776112E+02  0.72189709312E+01  0.13250123464E+03  0.17929442152E+03  0.12000000000E+03 0.  0.
         25    1    1    2    0    0 -0.11738776112E+02 -0.72189709312E+01  0.51335633507E+03  0.52737523564E+03  0.12000000000E+03 0.  0.
<mgrwt>
<rscale>  0 0.28679261E+03</rscale>
<asrwt>0</asrwt>
<pdfrwt beam="1">  1        1 0.10404054E+00 0.28679261E+03</pdfrwt>
<pdfrwt beam="2">  1       -1 0.46778534E-02 0.28679261E+03</pdfrwt>
<totfact> 0.57597242E+03</totfact>
</mgrwt>
</event>
<event>
 4    1  0.1749575E-004  0.2833432E+03  0.7818608E-02  0.1093877E+00
          2   -1    0    0  501    0  0.00000000000E+00  0.00000000000E+00  0.67630974044E+03  0.67630974044E+03  0.00000000000E+00 0. -1.
         -2   -1    0    0    0  501 -0.00000000000E+00 -0.00000000000E+00 -0.29677005425E+02  0.29677005425E+02  0.00000000000E+00 0. -1.
         25    1    1    2    0    0 -0.36174592903E+02 -0.37466830709E+02  0.45884100399E+03  0.47712412590E+03  0.12000000000E+03 0.  0.
         25    1    1    2    0    0  0.36174592903E+02  0.37466830709E+02  0.18779173103E+03  0.22886261996E+03  0.12000000000E+03 0.  0.
<mgrwt>
<rscale>  0 0.28334324E+03</rscale>
<asrwt>0</asrwt>
<pdfrwt beam="1">  1        2 0.10404764E+00 0.28334324E+03</pdfrwt>
<pdfrwt beam="2">  1       -2 0.45656936E-02 0.28334324E+03</pdfrwt>
<totfact> 0.98103214E+03</totfact>
</mgrwt>
</event>
<event>
 4    1  0.1749575E-004  0.2527131E+03  0.7818608E-02  0.1111602E+00
          1   -1    0    0  501    0  0.00000000000E+00  0.00000000000E+00  0.61934702063E+03  0.61934702063E+03  0.00000000000E+00 0.  1.
         -1   -1    0    0    0  501 -0.00000000000E+00 -0.00000000000E+00 -0.25778720833E+02  0.25778720833E+02  0.00000000000E+00 0.  1.
         25    1    1    2    0    0 -0.16572293908E+02 -0.12642595353E+02  0.21091374226E+03  0.24355509196E+03  0.12000000000E+03 0.  0.
         25    1    1    2    0    0  0.16572293908E+02  0.12642595353E+02  0.38265455753E+03  0.40157064950E+03  0.12000000000E+03 0.  0.
<mgrwt>
<rscale>  0 0.25271307E+03</rscale>
<asrwt>0</asrwt>
<pdfrwt beam="1">  1        1 0.95284146E-01 0.25271307E+03</pdfrwt>
<pdfrwt beam="2">  1       -1 0.39659575E-02 0.25271307E+03</pdfrwt>
<totfact> 0.83145777E+03</totfact>
</mgrwt>
</event>
<event>
 4    1  0.1749575E-004  0.3790355E+03  0.7818608E-02  0.1051291E+00
          1   -1    0    0  501    0  0.00000000000E+00  0.00000000000E+00  0.51218951292E+03  0.51218951292E+03  0.00000000000E+00 0. -1.
         -1   -1    0    0    0  501 -0.00000000000E+00 -0.00000000000E+00 -0.70124407828E+02  0.70124407828E+02  0.00000000000E+00 0. -1.
         25    1    1    2    0    0 -0.47879627443E+02  0.10753130882E+02  0.86616315279E+01  0.12993503149E+03  0.12000000000E+03 0.  0.
         25    1    1    2    0    0  0.47879627443E+02 -0.10753130882E+02  0.43340347357E+03  0.45237888926E+03  0.12000000000E+03 0.  0.
<mgrwt>
<rscale>  0 0.37903555E+03</rscale>
<asrwt>0</asrwt>
<pdfrwt beam="1">  1        1 0.78798384E-01 0.37903555E+03</pdfrwt>
<pdfrwt beam="2">  1       -1 0.10788371E-01 0.37903555E+03</pdfrwt>
<totfact> 0.23760568E+03</totfact>
</mgrwt>
</event>
<event>
 4    1  0.1749575E-004  0.3826289E+03  0.7818608E-02  0.1049966E+00
         -3   -1    0    0    0  501 -0.00000000000E+00  0.00000000000E+00  0.95207795920E+02  0.95207795920E+02  0.00000000000E+00 0.  1.
          3   -1    0    0  501    0  0.00000000000E+00 -0.00000000000E+00 -0.38443510718E+03  0.38443510718E+03  0.00000000000E+00 0.  1.
         25    1    1    2    0    0 -0.90966854530E+02 -0.43090298710E+02 -0.68976326445E+01  0.15677793149E+03  0.12000000000E+03 0.  0.
         25    1    1    2    0    0  0.90966854530E+02  0.43090298710E+02 -0.28232967862E+03  0.32286497161E+03  0.12000000000E+03 0.  0.
<mgrwt>
<rscale>  0 0.38262890E+03</rscale>
<asrwt>0</asrwt>
<pdfrwt beam="1">  1        3 0.59143862E-01 0.38262890E+03</pdfrwt>
<pdfrwt beam="2">  1       -3 0.14647353E-01 0.38262890E+03</pdfrwt>
<totfact> 0.28524412E+02</totfact>
</mgrwt>
</event>
<event>
 4    1  0.1749575E-004  0.2643836E+03  0.7818608E-02  0.1104538E+00
         -2   -1    0    0    0  501 -0.00000000000E+00  0.00000000000E+00  0.22485942228E+02  0.22485942228E+02  0.00000000000E+00 0.  1.
          2   -1    0    0  501    0  0.00000000000E+00 -0.00000000000E+00 -0.77713787338E+03  0.77713787338E+03  0.00000000000E+00 0.  1.
         25    1    1    2    0    0  0.79727986640E+01 -0.31098147063E+02 -0.51406528052E+03  0.52886082565E+03  0.12000000000E+03 0.  0.
         25    1    1    2    0    0 -0.79727986640E+01  0.31098147063E+02 -0.24058665063E+03  0.27076298996E+03  0.12000000000E+03 0.  0.
<mgrwt>
<rscale>  0 0.26438364E+03</rscale>
<asrwt>0</asrwt>
<pdfrwt beam="1">  1        2 0.11955965E+00 0.26438364E+03</pdfrwt>
<pdfrwt beam="2">  1       -2 0.34593763E-02 0.26438364E+03</pdfrwt>
<totfact> 0.12522899E+04</totfact>
</mgrwt>
</event>
<event>
 4    1  0.1749575E-004  0.2537123E+03  0.7818608E-02  0.1110981E+00
         -1   -1    0    0    0  501 -0.00000000000E+00  0.00000000000E+00  0.16980071701E+04  0.16980071701E+04  0.00000000000E+00 0. -1.
          1   -1    0    0  501    0  0.00000000000E+00 -0.00000000000E+00 -0.94772784117E+01  0.94772784117E+01  0.00000000000E+00 0. -1.
         25    1    1    2    0    0  0.10311023206E+02 -0.67458525510E+00  0.57626934127E+03  0.58872160310E+03  0.12000000000E+03 0.  0.
         25    1    1    2    0    0 -0.10311023206E+02  0.67458525510E+00  0.11122605504E+04  0.11187628454E+04  0.12000000000E+03 0.  0.
<mgrwt>
<rscale>  0 0.25371233E+03</rscale>
<asrwt>0</asrwt>
<pdfrwt beam="1">  1        1 0.14580442E-02 0.25371233E+03</pdfrwt>
<pdfrwt beam="2">  1       -1 0.26123163E+00 0.25371233E+03</pdfrwt>
<totfact> 0.63870779E+02</totfact>
</mgrwt>
</event>
<event>
 4    1  0.1749575E-004  0.2497299E+03  0.7818608E-02  0.1113476E+00
          4   -1    0    0  501    0  0.00000000000E+00  0.00000000000E+00  0.98946117300E+02  0.98946117300E+02  0.00000000000E+00 0. -1.
         -4   -1    0    0    0  501 -0.00000000000E+00 -0.00000000000E+00 -0.15757324961E+03  0.15757324961E+03  0.00000000000E+00 0. -1.
         25    1    1    2    0    0 -0.75714873937E+01  0.33673189205E+02 -0.29083542917E+02  0.12820711198E+03  0.12000000000E+03 0.  0.
         25    1    1    2    0    0  0.75714873937E+01 -0.33673189205E+02 -0.29543589394E+02  0.12831225494E+03  0.12000000000E+03 0.  0.
<mgrwt>
<rscale>  0 0.24972994E+03</rscale>
<asrwt>0</asrwt>
<pdfrwt beam="1">  1        4 0.15222480E-01 0.24972994E+03</pdfrwt>
<pdfrwt beam="2">  1       -4 0.24242038E-01 0.24972994E+03</pdfrwt>
<totfact> 0.10779972E+03</totfact>
</mgrwt>
</event>
<event>
 4    1  0.1749575E-004  0.3548644E+03  0.7818608E-02  0.1060636E+00
         -1   -1    0    0    0  501 -0.00000000000E+00  0.00000000000E+00  0.31042369314E+02  0.31042369314E+02  0.00000000000E+00 0.  1.
          1   -1    0    0  501    0  0.00000000000E+00 -0.00000000000E+00 -0.10141683533E+04  0.10141683533E+04  0.00000000000E+00 0.  1.
         25    1    1    2    0    0 -0.67491123052E+01 -0.75695833858E+02 -0.17837085467E+03  0.22801660373E+03  0.12000000000E+03 0.  0.
         25    1    1    2    0    0  0.67491123052E+01  0.75695833858E+02 -0.80475512931E+03  0.81719411888E+03  0.12000000000E+03 0.  0.
<mgrwt>
<rscale>  0 0.35486442E+03</rscale>
<asrwt>0</asrwt>
<pdfrwt beam="1">  1        1 0.15602590E+00 0.35486442E+03</pdfrwt>
<pdfrwt beam="2">  1       -1 0.47757491E-02 0.35486442E+03</pdfrwt>
<totfact> 0.29500202E+03</totfact>
</mgrwt>
</event>
<event>
 4    1  0.1749575E-004  0.2797655E+03  0.7818608E-02  0.1095817E+00
         -2   -1    0    0    0  501 -0.00000000000E+00  0.00000000000E+00  0.21400912236E+02  0.21400912236E+02  0.00000000000E+00 0.  1.
          2   -1    0    0  501    0  0.00000000000E+00 -0.00000000000E+00 -0.91431561360E+03  0.91431561360E+03  0.00000000000E+00 0.  1.
         25    1    1    2    0    0 -0.13158662623E+01  0.35366052957E+02 -0.65572364323E+03  0.66755223429E+03  0.12000000000E+03 0.  0.
         25    1    1    2    0    0  0.13158662623E+01 -0.35366052957E+02 -0.23719105814E+03  0.26816429155E+03  0.12000000000E+03 0.  0.
<mgrwt>
<rscale>  0 0.27976553E+03</rscale>
<asrwt>0</asrwt>
<pdfrwt beam="1">  1        2 0.14066397E+00 0.27976553E+03</pdfrwt>
<pdfrwt beam="2">  1       -2 0.32924473E-02 0.27976553E+03</pdfrwt>
<totfact> 0.10934779E+04</totfact>
</mgrwt>
</event>
<event>
 4    1  0.1749575E-004  0.2776482E+03  0.7818608E-02  0.1096980E+00
          1   -1    0    0  501    0  0.00000000000E+00  0.00000000000E+00  0.10470246876E+03  0.10470246876E+03  0.00000000000E+00 0.  1.
         -1   -1    0    0    0  501 -0.00000000000E+00 -0.00000000000E+00 -0.18406567734E+03  0.18406567734E+03  0.00000000000E+00 0.  1.
         25    1    1    2    0    0 -0.58990469660E+02 -0.27038669573E+02 -0.66424570066E+02  0.15173394041E+03  0.12000000000E+03 0.  0.
         25    1    1    2    0    0  0.58990469660E+02  0.27038669573E+02 -0.12938638523E+02  0.13703420569E+03  0.12000000000E+03 0.  0.
<mgrwt>
<rscale>  0 0.27764820E+03</rscale>
<asrwt>0</asrwt>
<pdfrwt beam="1">  1        1 0.16108072E-01 0.27764820E+03</pdfrwt>
<pdfrwt beam="2">  1       -1 0.28317796E-01 0.27764820E+03</pdfrwt>
<totfact> 0.38051094E+03</totfact>
</mgrwt>
</event>
<event>
 4    1  0.1749575E-004  0.2903082E+03  0.7818608E-02  0.1090188E+00
          2   -1    0    0  501    0  0.00000000000E+00  0.00000000000E+00  0.19390931872E+03  0.19390931872E+03  0.00000000000E+00 0. -1.
         -2   -1    0    0    0  501 -0.00000000000E+00 -0.00000000000E+00 -0.10865755280E+03  0.10865755280E+03  0.00000000000E+00 0. -1.
         25    1    1    2    0    0  0.68472328544E+02 -0.16989829337E+02 -0.25255795106E+00  0.13920193196E+03  0.12000000000E+03 0.  0.
         25    1    1    2    0    0 -0.68472328544E+02  0.16989829337E+02  0.85504323874E+02  0.16336493956E+03  0.12000000000E+03 0.  0.
<mgrwt>
<rscale>  0 0.29030820E+03</rscale>
<asrwt>0</asrwt>
<pdfrwt beam="1">  1        2 0.29832203E-01 0.29030820E+03</pdfrwt>
<pdfrwt beam="2">  1       -2 0.16716547E-01 0.29030820E+03</pdfrwt>
<totfact> 0.50159612E+03</totfact>
</mgrwt>
</event>
<event>
 4    1  0.1749575E-004  0.3551898E+03  0.7818608E-02  0.1060505E+00
         -2   -1    0    0    0  501 -0.00000000000E+00  0.00000000000E+00  0.16771706758E+02  0.16771706758E+02  0.00000000000E+00 0.  1.
          2   -1    0    0  501    0  0.00000000000E+00 -0.00000000000E+00 -0.18805450788E+04  0.18805450788E+04  0.00000000000E+00 0.  1.
         25    1    1    2    0    0  0.10281880607E+03  0.48395141591E+02 -0.12791444847E+04  0.12897768835E+04  0.12000000000E+03 0.  0.
         25    1    1    2    0    0 -0.10281880607E+03 -0.48395141591E+02 -0.58462888736E+03  0.60753990203E+03  0.12000000000E+03 0.  0.
<mgrwt>
<rscale>  0 0.35518981E+03</rscale>
<asrwt>0</asrwt>
<pdfrwt beam="1">  1        2 0.28931469E+00 0.35518981E+03</pdfrwt>
<pdfrwt beam="2">  1       -2 0.25802620E-02 0.35518981E+03</pdfrwt>
<totfact> 0.45501935E+03</totfact>
</mgrwt>
</event>
<event>
 4    1  0.1749575E-004  0.3741978E+03  0.7818608E-02  0.1053099E+00
          1   -1    0    0  501    0  0.00000000000E+00  0.00000000000E+00  0.15317037783E+03  0.15317037783E+03  0.00000000000E+00 0.  1.
         -1   -1    0    0    0  501 -0.00000000000E+00 -0.00000000000E+00 -0.22854290200E+03  0.22854290200E+03  0.00000000000E+00 0.  1.
         25    1    1    2    0    0  0.94230486365E+02 -0.50352262564E+02  0.60110330116E+02  0.17154587343E+03  0.12000000000E+03 0.  0.
         25    1    1    2    0    0 -0.94230486365E+02  0.50352262564E+02 -0.13548285429E+03  0.21016740640E+03  0.12000000000E+03 0.  0.
<mgrwt>
<rscale>  0 0.37419782E+03</rscale>
<asrwt>0</asrwt>
<pdfrwt beam="1">  1        1 0.23564674E-01 0.37419782E+03</pdfrwt>
<pdfrwt beam="2">  1       -1 0.35160446E-01 0.37419782E+03</pdfrwt>
<totfact> 0.16090357E+03</totfact>
</mgrwt>
</event>
<event>
 4    1  0.1749575E-004  0.3050057E+03  0.7818608E-02  0.1082765E+00
         -1   -1    0    0    0  501 -0.00000000000E+00  0.00000000000E+00  0.65161030597E+02  0.65161030597E+02  0.00000000000E+00 0.  1.
          1   -1    0    0  501    0  0.00000000000E+00 -0.00000000000E+00 -0.35691765346E+03  0.35691765346E+03  0.00000000000E+00 0.  1.
         25    1    1    2    0    0  0.84290292635E+02 -0.33314521088E+02 -0.11080376581E+03  0.18679450010E+03  0.12000000000E+03 0.  0.
         25    1    1    2    0    0 -0.84290292635E+02  0.33314521088E+02 -0.18095285705E+03  0.23528418396E+03  0.12000000000E+03 0.  0.
<mgrwt>
<rscale>  0 0.30500572E+03</rscale>
<asrwt>0</asrwt>
<pdfrwt beam="1">  1        1 0.54910408E-01 0.30500572E+03</pdfrwt>
<pdfrwt beam="2">  1       -1 0.10024774E-01 0.30500572E+03</pdfrwt>
<totfact> 0.42556482E+03</totfact>
</mgrwt>
</event>
<event>
 4    1  0.1749575E-004  0.3218247E+03  0.7818608E-02  0.1074813E+00
          2   -1    0    0  501    0  0.00000000000E+00  0.00000000000E+00  0.58706719958E+03  0.58706719958E+03  0.00000000000E+00 0.  1.
         -2   -1    0    0    0  501 -0.00000000000E+00 -0.00000000000E+00 -0.44105314825E+02  0.44105314825E+02  0.00000000000E+00 0.  1.
         25    1    1    2    0    0  0.24920502973E+02  0.10419501980E+03  0.27911465163E+03  0.32215310393E+03  0.12000000000E+03 0.  0.
         25    1    1    2    0    0 -0.24920502973E+02 -0.10419501980E+03  0.26384723313E+03  0.30901941047E+03  0.12000000000E+03 0.  0.
<mgrwt>
<rscale>  0 0.32182470E+03</rscale>
<asrwt>0</asrwt>
<pdfrwt beam="1">  1        2 0.90318025E-01 0.32182470E+03</pdfrwt>
<pdfrwt beam="2">  1       -2 0.67854335E-02 0.32182470E+03</pdfrwt>
<totfact> 0.63424413E+03</totfact>
</mgrwt>
</event>
<event>
 4    1  0.1749575E-004  0.2531907E+03  0.7818608E-02  0.1111305E+00
          2   -1    0    0  501    0  0.00000000000E+00  0.00000000000E+00  0.14531904564E+03  0.14531904564E+03  0.00000000000E+00 0. -1.
         -2   -1    0    0    0  501 -0.00000000000E+00 -0.00000000000E+00 -0.11028408461E+03  0.11028408461E+03  0.00000000000E+00 0. -1.
         25    1    1    2    0    0 -0.10112611116E+02  0.94000443198E+01  0.55769839785E+02  0.13304473220E+03  0.12000000000E+03 0.  0.
         25    1    1    2    0    0  0.10112611116E+02 -0.94000443198E+01 -0.20734878753E+02  0.12255839805E+03  0.12000000000E+03 0.  0.
<mgrwt>
<rscale>  0 0.25319066E+03</rscale>
<asrwt>0</asrwt>
<pdfrwt beam="1">  1        2 0.22356776E-01 0.25319066E+03</pdfrwt>
<pdfrwt beam="2">  1       -2 0.16966782E-01 0.25319066E+03</pdfrwt>
<totfact> 0.67127896E+03</totfact>
</mgrwt>
</event>
<event>
 4    1  0.1749575E-004  0.2958173E+03  0.7818608E-02  0.1087350E+00
         -1   -1    0    0    0  501 -0.00000000000E+00  0.00000000000E+00  0.10989803679E+03  0.10989803679E+03  0.00000000000E+00 0. -1.
          1   -1    0    0  501    0  0.00000000000E+00 -0.00000000000E+00 -0.19906605673E+03  0.19906605673E+03  0.00000000000E+00 0. -1.
         25    1    1    2    0    0  0.17445113543E+02 -0.58642864463E+02 -0.10840320436E+03  0.17290046921E+03  0.12000000000E+03 0.  0.
         25    1    1    2    0    0 -0.17445113543E+02  0.58642864463E+02  0.19235184428E+02  0.13606362430E+03  0.12000000000E+03 0.  0.
<mgrwt>
<rscale>  0 0.29581730E+03</rscale>
<asrwt>0</asrwt>
<pdfrwt beam="1">  1        1 0.30625547E-01 0.29581730E+03</pdfrwt>
<pdfrwt beam="2">  1       -1 0.16907390E-01 0.29581730E+03</pdfrwt>
<totfact> 0.39000266E+03</totfact>
</mgrwt>
</event>
<event>
 4    1  0.1749575E-004  0.2695860E+03  0.7818608E-02  0.1101517E+00
         -1   -1    0    0    0  501 -0.00000000000E+00  0.00000000000E+00  0.19136705646E+02  0.19136705646E+02  0.00000000000E+00 0. -1.
          1   -1    0    0  501    0  0.00000000000E+00 -0.00000000000E+00 -0.94943994173E+03  0.94943994173E+03  0.00000000000E+00 0. -1.
         25    1    1    2    0    0 -0.16913115821E+02  0.19206646399E+02 -0.26465355295E+03  0.29171296139E+03  0.12000000000E+03 0.  0.
         25    1    1    2    0    0  0.16913115821E+02 -0.19206646399E+02 -0.66564968313E+03  0.67686368599E+03  0.12000000000E+03 0.  0.
<mgrwt>
<rscale>  0 0.26958600E+03</rscale>
<asrwt>0</asrwt>
<pdfrwt beam="1">  1        1 0.14606767E+00 0.26958600E+03</pdfrwt>
<pdfrwt beam="2">  1       -1 0.29441088E-02 0.26958600E+03</pdfrwt>
<totfact> 0.67662276E+03</totfact>
</mgrwt>
</event>
<event>
 4    1  0.1749575E-004  0.2542332E+03  0.7818608E-02  0.1110658E+00
         -3   -1    0    0    0  501 -0.00000000000E+00  0.00000000000E+00  0.16298502238E+03  0.16298502238E+03  0.00000000000E+00 0. -1.
          3   -1    0    0  501    0  0.00000000000E+00 -0.00000000000E+00 -0.99141799582E+02  0.99141799582E+02  0.00000000000E+00 0. -1.
         25    1    1    2    0    0  0.15881892933E+02 -0.18279858803E+02 -0.33794375492E+01  0.12246553948E+03  0.12000000000E+03 0.  0.
         25    1    1    2    0    0 -0.15881892933E+02  0.18279858803E+02  0.67222660343E+02  0.13966128248E+03  0.12000000000E+03 0.  0.
<mgrwt>
<rscale>  0 0.25423319E+03</rscale>
<asrwt>0</asrwt>
<pdfrwt beam="1">  1        3 0.15252585E-01 0.25423319E+03</pdfrwt>
<pdfrwt beam="2">  1       -3 0.25074619E-01 0.25423319E+03</pdfrwt>
<totfact> 0.13590183E+03</totfact>
</mgrwt>
</event>
<event>
 4    1  0.1749575E-004  0.3704339E+03  0.7818608E-02  0.1054527E+00
         -1   -1    0    0    0  501 -0.00000000000E+00  0.00000000000E+00  0.47832341568E+03  0.47832341568E+03  0.00000000000E+00 0.  1.
          1   -1    0    0  501    0  0.00000000000E+00 -0.00000000000E+00 -0.71719941982E+02  0.71719941982E+02  0.00000000000E+00 0.  1.
         25    1    1    2    0    0  0.14452034735E+01  0.11479763594E+03  0.81536322794E+02  0.18501015585E+03  0.12000000000E+03 0.  0.
         25    1    1    2    0    0 -0.14452034735E+01 -0.11479763594E+03  0.32506715090E+03  0.36503320182E+03  0.12000000000E+03 0.  0.
<mgrwt>
<rscale>  0 0.37043395E+03</rscale>
<asrwt>0</asrwt>
<pdfrwt beam="1">  1        1 0.11033838E-01 0.37043395E+03</pdfrwt>
<pdfrwt beam="2">  1       -1 0.73588216E-01 0.37043395E+03</pdfrwt>
<totfact> 0.10922603E+03</totfact>
</mgrwt>
</event>
<event>
 4    1  0.1749575E-004  0.3256847E+03  0.7818608E-02  0.1073062E+00
          2   -1    0    0  501    0  0.00000000000E+00  0.00000000000E+00  0.60213048496E+03  0.60213048496E+03  0.00000000000E+00 0. -1.
         -2   -1    0    0    0  501 -0.00000000000E+00 -0.00000000000E+00 -0.44039667101E+02  0.44039667101E+02  0.00000000000E+00 0. -1.
         25    1    1    2    0    0 -0.96506616736E+01 -0.89428530883E+02  0.40495010778E+03  0.43182772861E+03  0.12000000000E+03 0.  0.
         25    1    1    2    0    0  0.96506616736E+01  0.89428530883E+02  0.15314071008E+03  0.21434242345E+03  0.12000000000E+03 0.  0.
<mgrwt>
<rscale>  0 0.32568467E+03</rscale>
<asrwt>0</asrwt>
<pdfrwt beam="1">  1        2 0.92635453E-01 0.32568467E+03</pdfrwt>
<pdfrwt beam="2">  1       -2 0.67753339E-02 0.32568467E+03</pdfrwt>
<totfact> 0.61738867E+03</totfact>
</mgrwt>
</event>
<event>
 4    1  0.1749575E-004  0.2751312E+03  0.7818608E-02  0.1098378E+00
          1   -1    0    0  501    0  0.00000000000E+00  0.00000000000E+00  0.94213094237E+02  0.94213094237E+02  0.00000000000E+00 0.  1.
         -1   -1    0    0    0  501 -0.00000000000E+00 -0.00000000000E+00 -0.20086692066E+03  0.20086692066E+03  0.00000000000E+00 0.  1.
         25    1    1    2    0    0  0.32176014163E+02  0.51718449117E+02 -0.83930023985E+02  0.15860120678E+03  0.12000000000E+03 0.  0.
         25    1    1    2    0    0 -0.32176014163E+02 -0.51718449117E+02 -0.22723802435E+02  0.13647880811E+03  0.12000000000E+03 0.  0.
<mgrwt>
<rscale>  0 0.27513120E+03</rscale>
<asrwt>0</asrwt>
<pdfrwt beam="1">  1        1 0.14494322E-01 0.27513120E+03</pdfrwt>
<pdfrwt beam="2">  1       -1 0.30902603E-01 0.27513120E+03</pdfrwt>
<totfact> 0.37663422E+03</totfact>
</mgrwt>
</event>
<event>
 4    1  0.1749575E-004  0.2539522E+03  0.7818608E-02  0.1110832E+00
          2   -1    0    0  501    0  0.00000000000E+00  0.00000000000E+00  0.99913369092E+02  0.99913369092E+02  0.00000000000E+00 0.  1.
         -2   -1    0    0    0  501 -0.00000000000E+00 -0.00000000000E+00 -0.16136903748E+03  0.16136903748E+03  0.00000000000E+00 0.  1.
         25    1    1    2    0    0  0.17710069862E+02 -0.27956845579E+02 -0.49508737407E+01  0.12457826030E+03  0.12000000000E+03 0.  0.
         25    1    1    2    0    0 -0.17710069862E+02  0.27956845579E+02 -0.56504794649E+02  0.13670414627E+03  0.12000000000E+03 0.  0.
<mgrwt>
<rscale>  0 0.25395215E+03</rscale>
<asrwt>0</asrwt>
<pdfrwt beam="1">  1        2 0.15371288E-01 0.25395215E+03</pdfrwt>
<pdfrwt beam="2">  1       -2 0.24826005E-01 0.25395215E+03</pdfrwt>
<totfact> 0.53857279E+03</totfact>
</mgrwt>
</event>
<event>
 4    1  0.1749575E-004  0.2597068E+03  0.7818608E-02  0.1107320E+00
          4   -1    0    0  501    0  0.00000000000E+00  0.00000000000E+00  0.16947167417E+04  0.16947167417E+04  0.00000000000E+00 0. -1.
         -4   -1    0    0    0  501 -0.00000000000E+00 -0.00000000000E+00 -0.99496864235E+01  0.99496864235E+01  0.00000000000E+00 0. -1.
         25    1    1    2    0    0 -0.52648363591E+01 -0.49032413996E+02  0.87833742458E+03  0.88786740426E+03  0.12000000000E+03 0.  0.
         25    1    1    2    0    0  0.52648363591E+01  0.49032413996E+02  0.80642963070E+03  0.81679902387E+03  0.12000000000E+03 0.  0.
<mgrwt>
<rscale>  0 0.25970676E+03</rscale>
<asrwt>0</asrwt>
<pdfrwt beam="1">  1        4 0.26072542E+00 0.25970676E+03</pdfrwt>
<pdfrwt beam="2">  1       -4 0.15307223E-02 0.25970676E+03</pdfrwt>
<totfact> 0.17660642E+02</totfact>
</mgrwt>
</event>
<event>
 4    1  0.1749575E-004  0.2592428E+03  0.7818608E-02  0.1107599E+00
         -2   -1    0    0    0  501 -0.00000000000E+00  0.00000000000E+00  0.12119866703E+03  0.12119866703E+03  0.00000000000E+00 0. -1.
          2   -1    0    0  501    0  0.00000000000E+00 -0.00000000000E+00 -0.13862945777E+03  0.13862945777E+03  0.00000000000E+00 0. -1.
         25    1    1    2    0    0  0.25343399750E+02  0.52641766438E+01  0.32992335609E+02  0.12711606380E+03  0.12000000000E+03 0.  0.
         25    1    1    2    0    0 -0.25343399750E+02 -0.52641766438E+01 -0.50423126347E+02  0.13271206101E+03  0.12000000000E+03 0.  0.
<mgrwt>
<rscale>  0 0.25924279E+03</rscale>
<asrwt>0</asrwt>
<pdfrwt beam="1">  1        2 0.21327609E-01 0.25924279E+03</pdfrwt>
<pdfrwt beam="2">  1       -2 0.18645949E-01 0.25924279E+03</pdfrwt>
<totfact> 0.60468176E+03</totfact>
</mgrwt>
</event>
<event>
 4    1  0.1749575E-004  0.3344567E+03  0.7818608E-02  0.1069182E+00
         -2   -1    0    0    0  501 -0.00000000000E+00  0.00000000000E+00  0.60269925214E+02  0.60269925214E+02  0.00000000000E+00 0.  1.
          2   -1    0    0  501    0  0.00000000000E+00 -0.00000000000E+00 -0.46400117752E+03  0.46400117752E+03  0.00000000000E+00 0.  1.
         25    1    1    2    0    0 -0.92050701260E+02 -0.52530998790E+02 -0.27757068699E+03  0.32043458570E+03  0.12000000000E+03 0.  0.
         25    1    1    2    0    0  0.92050701260E+02  0.52530998790E+02 -0.12616056532E+03  0.20383651704E+03  0.12000000000E+03 0.  0.
<mgrwt>
<rscale>  0 0.33445667E+03</rscale>
<asrwt>0</asrwt>
<pdfrwt beam="1">  1        2 0.71384797E-01 0.33445667E+03</pdfrwt>
<pdfrwt beam="2">  1       -2 0.92722961E-02 0.33445667E+03</pdfrwt>
<totfact> 0.50813671E+03</totfact>
</mgrwt>
</event>
<event>
 4    1  0.1749575E-004  0.2987352E+03  0.7818608E-02  0.1085875E+00
         -2   -1    0    0    0  501 -0.00000000000E+00  0.00000000000E+00  0.26004776341E+02  0.26004776341E+02  0.00000000000E+00 0.  1.
          2   -1    0    0  501    0  0.00000000000E+00 -0.00000000000E+00 -0.85794518429E+03  0.85794518429E+03  0.00000000000E+00 0.  1.
         25    1    1    2    0    0  0.66688836301E+02  0.58821900001E+02 -0.41063105816E+03  0.43694997738E+03  0.12000000000E+03 0.  0.
         25    1    1    2    0    0 -0.66688836301E+02 -0.58821900001E+02 -0.42130934979E+03  0.44699998325E+03  0.12000000000E+03 0.  0.
<mgrwt>
<rscale>  0 0.29873515E+03</rscale>
<asrwt>0</asrwt>
<pdfrwt beam="1">  1        2 0.13199155E+00 0.29873515E+03</pdfrwt>
<pdfrwt beam="2">  1       -2 0.40007354E-02 0.29873515E+03</pdfrwt>
<totfact> 0.89014690E+03</totfact>
</mgrwt>
</event>
<event>
 4    1  0.1749575E-004  0.2652726E+03  0.7818608E-02  0.1104016E+00
         -1   -1    0    0    0  501 -0.00000000000E+00  0.00000000000E+00  0.41329458783E+03  0.41329458783E+03  0.00000000000E+00 0.  1.
          1   -1    0    0  501    0  0.00000000000E+00 -0.00000000000E+00 -0.42566206815E+02  0.42566206815E+02  0.00000000000E+00 0.  1.
         25    1    1    2    0    0 -0.55200160560E+01  0.50358895515E+02  0.14237192852E+03  0.19296697895E+03  0.12000000000E+03 0.  0.
         25    1    1    2    0    0  0.55200160560E+01 -0.50358895515E+02  0.22835645250E+03  0.26289381570E+03  0.12000000000E+03 0.  0.
<mgrwt>
<rscale>  0 0.26527256E+03</rscale>
<asrwt>0</asrwt>
<pdfrwt beam="1">  1        1 0.65486475E-02 0.26527256E+03</pdfrwt>
<pdfrwt beam="2">  1       -1 0.63583780E-01 0.26527256E+03</pdfrwt>
<totfact> 0.29584975E+03</totfact>
</mgrwt>
</event>
<event>
 4    1  0.1749575E-004  0.3795335E+03  0.7818608E-02  0.1051106E+00
         -1   -1    0    0    0  501 -0.00000000000E+00  0.00000000000E+00  0.22775777360E+02  0.22775777360E+02  0.00000000000E+00 0. -1.
          1   -1    0    0  501    0  0.00000000000E+00 -0.00000000000E+00 -0.15811277775E+04  0.15811277775E+04  0.00000000000E+00 0. -1.
         25    1    1    2    0    0  0.80654149854E+02  0.60356768815E+02 -0.12316405551E+04  0.12415661434E+04  0.12000000000E+03 0.  0.
         25    1    1    2    0    0 -0.80654149854E+02 -0.60356768815E+02 -0.32671144497E+03  0.36233741140E+03  0.12000000000E+03 0.  0.
<mgrwt>
<rscale>  0 0.37953347E+03</rscale>
<asrwt>0</asrwt>
<pdfrwt beam="1">  1        1 0.24325055E+00 0.37953347E+03</pdfrwt>
<pdfrwt beam="2">  1       -1 0.35039640E-02 0.37953347E+03</pdfrwt>
<totfact> 0.18899735E+03</totfact>
</mgrwt>
</event>
<event>
 4    1  0.1749575E-004  0.2774239E+03  0.7818608E-02  0.1097104E+00
          2   -1    0    0  501    0  0.00000000000E+00  0.00000000000E+00  0.41583439009E+03  0.41583439009E+03  0.00000000000E+00 0. -1.
         -2   -1    0    0    0  501 -0.00000000000E+00 -0.00000000000E+00 -0.46270826084E+02  0.46270826084E+02  0.00000000000E+00 0. -1.
         25    1    1    2    0    0  0.69394642243E+02  0.25371105409E+01  0.19203235518E+03  0.23685117424E+03  0.12000000000E+03 0.  0.
         25    1    1    2    0    0 -0.69394642243E+02 -0.25371105409E+01  0.17753120883E+03  0.22525404194E+03  0.12000000000E+03 0.  0.
<mgrwt>
<rscale>  0 0.27742387E+03</rscale>
<asrwt>0</asrwt>
<pdfrwt beam="1">  1        2 0.63974519E-01 0.27742387E+03</pdfrwt>
<pdfrwt beam="2">  1       -2 0.71185889E-02 0.27742387E+03</pdfrwt>
<totfact> 0.86306156E+03</totfact>
</mgrwt>
</event>
<event>
 4    1  0.1749575E-004  0.2556300E+03  0.7818608E-02  0.1109798E+00
          2   -1    0    0  501    0  0.00000000000E+00  0.00000000000E+00  0.73140677541E+03  0.73140677541E+03  0.00000000000E+00 0. -1.
         -2   -1    0    0    0  501 -0.00000000000E+00 -0.00000000000E+00 -0.22335959586E+02  0.22335959586E+02  0.00000000000E+00 0. -1.
         25    1    1    2    0    0 -0.42448053528E+02 -0.74226622139E+01  0.38086516039E+03  0.40164063983E+03  0.12000000000E+03 0.  0.
         25    1    1    2    0    0  0.42448053528E+02  0.74226622139E+01  0.32820565543E+03  0.35210209517E+03  0.12000000000E+03 0.  0.
<mgrwt>
<rscale>  0 0.25562998E+03</rscale>
<asrwt>0</asrwt>
<pdfrwt beam="1">  1        2 0.11252410E+00 0.25562998E+03</pdfrwt>
<pdfrwt beam="2">  1       -2 0.34363020E-02 0.25562998E+03</pdfrwt>
<totfact> 0.13619937E+04</totfact>
</mgrwt>
</event>
<event>
 4    1  0.1749575E-004  0.2405962E+03  0.7818608E-02  0.1119396E+00
          2   -1    0    0  501    0  0.00000000000E+00  0.00000000000E+00  0.28367556592E+04  0.28367556592E+04  0.00000000000E+00 0. -1.
         -2   -1    0    0    0  501 -0.00000000000E+00 -0.00000000000E+00 -0.51014749202E+01  0.51014749202E+01  0.00000000000E+00 0. -1.
         25    1    1    2    0    0 -0.75828947984E+01  0.98064811994E+00  0.14587020109E+04  0.14636495546E+04  0.12000000000E+03 0.  0.
         25    1    1    2    0    0  0.75828947984E+01 -0.98064811994E+00  0.13729521733E+04  0.13782075795E+04  0.12000000000E+03 0.  0.
<mgrwt>
<rscale>  0 0.24059624E+03</rscale>
<asrwt>0</asrwt>
<pdfrwt beam="1">  1        2 0.43642269E+00 0.24059624E+03</pdfrwt>
<pdfrwt beam="2">  1       -2 0.78484456E-03 0.24059624E+03</pdfrwt>
<totfact> 0.78669179E+03</totfact>
</mgrwt>
</event>
<event>
 4    1  0.1749575E-004  0.2624514E+03  0.7818608E-02  0.1105679E+00
          4   -1    0    0  501    0  0.00000000000E+00  0.00000000000E+00  0.37423432846E+02  0.37423432846E+02  0.00000000000E+00 0.  1.
         -4   -1    0    0    0  501 -0.00000000000E+00 -0.00000000000E+00 -0.46014442361E+03  0.46014442361E+03  0.00000000000E+00 0.  1.
         25    1    1    2    0    0  0.42065073016E+02  0.31425833893E+02 -0.22642390044E+03  0.26158141390E+03  0.12000000000E+03 0.  0.
         25    1    1    2    0    0 -0.42065073016E+02 -0.31425833893E+02 -0.19629709032E+03  0.23598644256E+03  0.12000000000E+03 0.  0.
<mgrwt>
<rscale>  0 0.26245140E+03</rscale>
<asrwt>0</asrwt>
<pdfrwt beam="1">  1        4 0.57574511E-02 0.26245140E+03</pdfrwt>
<pdfrwt beam="2">  1       -4 0.70791452E-01 0.26245140E+03</pdfrwt>
<totfact> 0.65780414E+02</totfact>
</mgrwt>
</event>
<event>
 4    1  0.1749575E-004  0.3909093E+03  0.7818608E-02  0.1046974E+00
          2   -1    0    0  501    0  0.00000000000E+00  0.00000000000E+00  0.23721041622E+04  0.23721041622E+04  0.00000000000E+00 0. -1.
         -2   -1    0    0    0  501 -0.00000000000E+00 -0.00000000000E+00 -0.16104910510E+02  0.16104910510E+02  0.00000000000E+00 0. -1.
         25    1    1    2    0    0 -0.10796916134E+03  0.27261208710E+02  0.52564002482E+03  0.55054332163E+03  0.12000000000E+03 0.  0.
         25    1    1    2    0    0  0.10796916134E+03 -0.27261208710E+02  0.18303592269E+04  0.18376657511E+04  0.12000000000E+03 0.  0.
<mgrwt>
<rscale>  0 0.39090933E+03</rscale>
<asrwt>0</asrwt>
<pdfrwt beam="1">  1        2 0.36493882E+00 0.39090933E+03</pdfrwt>
<pdfrwt beam="2">  1       -2 0.24776804E-02 0.39090933E+03</pdfrwt>
<totfact> 0.26302577E+03</totfact>
</mgrwt>
</event>
<event>
 4    1  0.1749575E-004  0.2812513E+03  0.7818608E-02  0.1095007E+00
          2   -1    0    0  501    0  0.00000000000E+00  0.00000000000E+00  0.12928050427E+04  0.12928050427E+04  0.00000000000E+00 0. -1.
         -2   -1    0    0    0  501 -0.00000000000E+00 -0.00000000000E+00 -0.15296642951E+02  0.15296642951E+02  0.00000000000E+00 0. -1.
         25    1    1    2    0    0 -0.23095960519E+02  0.45008054300E+02  0.88558327418E+03  0.89510719127E+03  0.12000000000E+03 0.  0.
         25    1    1    2    0    0  0.23095960519E+02 -0.45008054300E+02  0.39192512561E+03  0.41299449443E+03  0.12000000000E+03 0.  0.
<mgrwt>
<rscale>  0 0.28125133E+03</rscale>
<asrwt>0</asrwt>
<pdfrwt beam="1">  1        2 0.19889300E+00 0.28125133E+03</pdfrwt>
<pdfrwt beam="2">  1       -2 0.23533307E-02 0.28125133E+03</pdfrwt>
<totfact> 0.10763456E+04</totfact>
</mgrwt>
</event>
<event>
 4    1  0.1749575E-004  0.3284371E+03  0.7818608E-02  0.1071831E+00
         -2   -1    0    0    0  501 -0.00000000000E+00  0.00000000000E+00  0.48923347526E+01  0.48923347526E+01  0.00000000000E+00 0. -1.
          2   -1    0    0  501    0  0.00000000000E+00 -0.00000000000E+00 -0.55122405578E+04  0.55122405578E+04  0.00000000000E+00 0. -1.
         25    1    1    2    0    0 -0.12102363621E+02  0.92517303210E+02 -0.17097796500E+04  0.17165233381E+04  0.12000000000E+03 0.  0.
         25    1    1    2    0    0  0.12102363621E+02 -0.92517303210E+02 -0.37975685730E+04  0.38006095545E+04  0.12000000000E+03 0.  0.
<mgrwt>
<rscale>  0 0.32843706E+03</rscale>
<asrwt>0</asrwt>
<pdfrwt beam="1">  1        2 0.84802948E+00 0.32843706E+03</pdfrwt>
<pdfrwt beam="2">  1       -2 0.75267357E-03 0.32843706E+03</pdfrwt>
<totfact> 0.28753585E+01</totfact>
</mgrwt>
</event>
<event>
 4    1  0.1749575E-004  0.3716913E+03  0.7818608E-02  0.1054048E+00
          1   -1    0    0  501    0  0.00000000000E+00  0.00000000000E+00  0.26414160972E+03  0.26414160972E+03  0.00000000000E+00 0. -1.
         -1   -1    0    0    0  501 -0.00000000000E+00 -0.00000000000E+00 -0.13075790654E+03  0.13075790654E+03  0.00000000000E+00 0. -1.
         25    1    1    2    0    0 -0.87777553856E+02 -0.10765007552E+03  0.97578819448E+02  0.20788233144E+03  0.12000000000E+03 0.  0.
         25    1    1    2    0    0  0.87777553856E+02  0.10765007552E+03  0.35804883725E+02  0.18701718482E+03  0.12000000000E+03 0.  0.
<mgrwt>
<rscale>  0 0.37169129E+03</rscale>
<asrwt>0</asrwt>
<pdfrwt beam="1">  1        1 0.40637171E-01 0.37169129E+03</pdfrwt>
<pdfrwt beam="2">  1       -1 0.20116601E-01 0.37169129E+03</pdfrwt>
<totfact> 0.20657310E+03</totfact>
</mgrwt>
</event>
<event>
 4    1  0.1749575E-004  0.2540725E+03  0.7818608E-02  0.1110758E+00
          2   -1    0    0  501    0  0.00000000000E+00  0.00000000000E+00  0.14285291069E+04  0.14285291069E+04  0.00000000000E+00 0. -1.
         -2   -1    0    0    0  501 -0.00000000000E+00 -0.00000000000E+00 -0.11297080885E+02  0.11297080885E+02  0.00000000000E+00 0. -1.
         25    1    1    2    0    0 -0.40508692049E+02 -0.95154148807E+01  0.69393466548E+03  0.70546213024E+03  0.12000000000E+03 0.  0.
         25    1    1    2    0    0  0.40508692049E+02  0.95154148807E+01  0.72329736052E+03  0.73436405752E+03  0.12000000000E+03 0.  0.
<mgrwt>
<rscale>  0 0.25407250E+03</rscale>
<asrwt>0</asrwt>
<pdfrwt beam="1">  1        2 0.21977357E+00 0.25407250E+03</pdfrwt>
<pdfrwt beam="2">  1       -2 0.17380136E-02 0.25407250E+03</pdfrwt>
<totfact> 0.14131710E+04</totfact>
</mgrwt>
</event>
<event>
 4    1  0.1749575E-004  0.3323619E+03  0.7818608E-02  0.1070097E+00
         -1   -1    0    0    0  501 -0.00000000000E+00  0.00000000000E+00  0.24339757916E+02  0.24339757916E+02  0.00000000000E+00 0.  1.
          1   -1    0    0  501    0  0.00000000000E+00 -0.00000000000E+00 -0.11346087086E+04  0.11346087086E+04  0.00000000000E+00 0.  1.
         25    1    1    2    0    0  0.80391076019E+02 -0.81181918280E+02 -0.59963617648E+03  0.62210672164E+03  0.12000000000E+03 0.  0.
         25    1    1    2    0    0 -0.80391076019E+02  0.81181918280E+02 -0.51063277425E+03  0.53684174492E+03  0.12000000000E+03 0.  0.
<mgrwt>
<rscale>  0 0.33236186E+03</rscale>
<asrwt>0</asrwt>
<pdfrwt beam="1">  1        1 0.17455521E+00 0.33236186E+03</pdfrwt>
<pdfrwt beam="2">  1       -1 0.37445776E-02 0.33236186E+03</pdfrwt>
<totfact> 0.34654072E+03</totfact>
</mgrwt>
</event>
<event>
 4    1  0.1749575E-004  0.3029203E+03  0.7818608E-02  0.1083790E+00
          2   -1    0    0  501    0  0.00000000000E+00  0.00000000000E+00  0.24534418520E+03  0.24534418520E+03  0.00000000000E+00 0. -1.
         -2   -1    0    0    0  501 -0.00000000000E+00 -0.00000000000E+00 -0.93502016266E+02  0.93502016266E+02  0.00000000000E+00 0. -1.
         25    1    1    2    0    0  0.11759028764E+02  0.70954030172E+02  0.11009331491E+02  0.14033515075E+03  0.12000000000E+03 0.  0.
         25    1    1    2    0    0 -0.11759028764E+02 -0.70954030172E+02  0.14083283744E+03  0.19851105072E+03  0.12000000000E+03 0.  0.
<mgrwt>
<rscale>  0 0.30292029E+03</rscale>
<asrwt>0</asrwt>
<pdfrwt beam="1">  1        2 0.37745259E-01 0.30292029E+03</pdfrwt>
<pdfrwt beam="2">  1       -2 0.14384926E-01 0.30292029E+03</pdfrwt>
<totfact> 0.49857523E+03</totfact>
</mgrwt>
</event>
<event>
 4    1  0.1749575E-004  0.2530114E+03  0.7818608E-02  0.1111416E+00
          3   -1    0    0  501    0  0.00000000000E+00  0.00000000000E+00  0.94888456020E+02  0.94888456020E+02  0.00000000000E+00 0. -1.
         -3   -1    0    0    0  501 -0.00000000000E+00 -0.00000000000E+00 -0.16865790353E+03  0.16865790353E+03  0.00000000000E+00 0. -1.
         25    1    1    2    0    0  0.42242208178E+01  0.11146039624E+01 -0.78349282001E+02  0.14337955354E+03  0.12000000000E+03 0.  0.
         25    1    1    2    0    0 -0.42242208178E+01 -0.11146039624E+01  0.45798344860E+01  0.12016680601E+03  0.12000000000E+03 0.  0.
<mgrwt>
<rscale>  0 0.25301137E+03</rscale>
<asrwt>0</asrwt>
<pdfrwt beam="1">  1        3 0.14598224E-01 0.25301137E+03</pdfrwt>
<pdfrwt beam="2">  1       -3 0.25947370E-01 0.25301137E+03</pdfrwt>
<totfact> 0.13761780E+03</totfact>
</mgrwt>
</event>
<event>
 4    1  0.1749575E-004  0.5329117E+03  0.7818608E-02  0.1005528E+00
         -2   -1    0    0    0  501 -0.00000000000E+00  0.00000000000E+00  0.79393055841E+02  0.79393055841E+02  0.00000000000E+00 0. -1.
          2   -1    0    0  501    0  0.00000000000E+00 -0.00000000000E+00 -0.89426869136E+03  0.89426869136E+03  0.00000000000E+00 0. -1.
         25    1    1    2    0    0 -0.18234729117E+02  0.49196935861E+02  0.16526279690E+02  0.13200743072E+03  0.12000000000E+03 0.  0.
         25    1    1    2    0    0  0.18234729117E+02 -0.49196935861E+02 -0.83140191521E+03  0.84165431649E+03  0.12000000000E+03 0.  0.
<mgrwt>
<rscale>  0 0.53291172E+03</rscale>
<asrwt>0</asrwt>
<pdfrwt beam="1">  1        2 0.13757980E+00 0.53291172E+03</pdfrwt>
<pdfrwt beam="2">  1       -2 0.12214316E-01 0.53291172E+03</pdfrwt>
<totfact> 0.14699855E+03</totfact>
</mgrwt>
</event>
<event>
 4    1  0.1749575E-004  0.2801050E+03  0.7818608E-02  0.1095632E+00
          1   -1    0    0  501    0  0.00000000000E+00  0.00000000000E+00  0.48462065486E+03  0.48462065486E+03  0.00000000000E+00 0.  1.
         -1   -1    0    0    0  501 -0.00000000000E+00 -0.00000000000E+00 -0.40474329691E+02  0.40474329691E+02  0.00000000000E+00 0.  1.
         25    1    1    2    0    0  0.56682833678E+01 -0.67303879457E+02  0.26996836690E+03  0.30305917038E+03  0.12000000000E+03 0.  0.
         25    1    1    2    0    0 -0.56682833678E+01  0.67303879457E+02  0.17417795826E+03  0.22203581416E+03  0.12000000000E+03 0.  0.
<mgrwt>
<rscale>  0 0.28010495E+03</rscale>
<asrwt>0</asrwt>
<pdfrwt beam="1">  1        1 0.74557020E-01 0.28010495E+03</pdfrwt>
<pdfrwt beam="2">  1       -1 0.62268203E-02 0.28010495E+03</pdfrwt>
<totfact> 0.59223565E+03</totfact>
</mgrwt>
</event>
<event>
 4    1  0.1749575E-004  0.4544040E+03  0.7818608E-02  0.1026417E+00
         -1   -1    0    0    0  501 -0.00000000000E+00  0.00000000000E+00  0.14745796499E+03  0.14745796499E+03  0.00000000000E+00 0. -1.
          1   -1    0    0  501    0  0.00000000000E+00 -0.00000000000E+00 -0.35007093985E+03  0.35007093985E+03  0.00000000000E+00 0. -1.
         25    1    1    2    0    0 -0.14461804560E+03 -0.68811109909E+02  0.16472857466E+02  0.20080015685E+03  0.12000000000E+03 0.  0.
         25    1    1    2    0    0  0.14461804560E+03  0.68811109909E+02 -0.21908583232E+03  0.29672874799E+03  0.12000000000E+03 0.  0.
<mgrwt>
<rscale>  0 0.45440400E+03</rscale>
<asrwt>0</asrwt>
<pdfrwt beam="1">  1        1 0.53857067E-01 0.45440400E+03</pdfrwt>
<pdfrwt beam="2">  1       -1 0.22685841E-01 0.45440400E+03</pdfrwt>
<totfact> 0.11830561E+03</totfact>
</mgrwt>
</event>
<event>
 4    1  0.1749575E-004  0.2690096E+03  0.7818608E-02  0.1101848E+00
         -2   -1    0    0    0  501 -0.00000000000E+00  0.00000000000E+00  0.42678358780E+02  0.42678358780E+02  0.00000000000E+00 0. -1.
          2   -1    0    0  501    0  0.00000000000E+00 -0.00000000000E+00 -0.42390429940E+03  0.42390429940E+03  0.00000000000E+00 0. -1.
         25    1    1    2    0    0  0.31895643953E+02 -0.20647383913E+02 -0.10837949026E+03  0.16610165705E+03  0.12000000000E+03 0.  0.
         25    1    1    2    0    0 -0.31895643953E+02  0.20647383913E+02 -0.27284645036E+03  0.30048100113E+03  0.12000000000E+03 0.  0.
<mgrwt>
<rscale>  0 0.26900959E+03</rscale>
<asrwt>0</asrwt>
<pdfrwt beam="1">  1        2 0.65216048E-01 0.26900959E+03</pdfrwt>
<pdfrwt beam="2">  1       -2 0.65659011E-02 0.26900959E+03</pdfrwt>
<totfact> 0.95646974E+03</totfact>
</mgrwt>
</event>
<event>
 4    1  0.1749575E-004  0.2614026E+03  0.7818608E-02  0.1106303E+00
          4   -1    0    0  501    0  0.00000000000E+00  0.00000000000E+00  0.72379097540E+02  0.72379097540E+02  0.00000000000E+00 0. -1.
         -4   -1    0    0    0  501 -0.00000000000E+00 -0.00000000000E+00 -0.23601886254E+03  0.23601886254E+03  0.00000000000E+00 0. -1.
         25    1    1    2    0    0  0.51488070164E+02  0.31867683433E+01 -0.76329725266E+02  0.15128583483E+03  0.12000000000E+03 0.  0.
         25    1    1    2    0    0 -0.51488070164E+02 -0.31867683433E+01 -0.87310039735E+02  0.15711212525E+03  0.12000000000E+03 0.  0.
<mgrwt>
<rscale>  0 0.26140262E+03</rscale>
<asrwt>0</asrwt>
<pdfrwt beam="1">  1        4 0.11135246E-01 0.26140262E+03</pdfrwt>
<pdfrwt beam="2">  1       -4 0.36310595E-01 0.26140262E+03</pdfrwt>
<totfact> 0.86574685E+02</totfact>
</mgrwt>
</event>
<event>
 4    1  0.1749575E-004  0.2551208E+03  0.7818608E-02  0.1110111E+00
         -2   -1    0    0    0  501 -0.00000000000E+00  0.00000000000E+00  0.37625895229E+02  0.37625895229E+02  0.00000000000E+00 0. -1.
          2   -1    0    0  501    0  0.00000000000E+00 -0.00000000000E+00 -0.43245899958E+03  0.43245899958E+03  0.00000000000E+00 0. -1.
         25    1    1    2    0    0  0.31897996227E+02 -0.28510481734E+02 -0.18557117737E+03  0.22509329533E+03  0.12000000000E+03 0.  0.
         25    1    1    2    0    0 -0.31897996227E+02  0.28510481734E+02 -0.20926192699E+03  0.24499159949E+03  0.12000000000E+03 0.  0.
<mgrwt>
<rscale>  0 0.25512081E+03</rscale>
<asrwt>0</asrwt>
<pdfrwt beam="1">  1        2 0.66532151E-01 0.25512081E+03</pdfrwt>
<pdfrwt beam="2">  1       -2 0.57885995E-02 0.25512081E+03</pdfrwt>
<totfact> 0.11329577E+04</totfact>
</mgrwt>
</event>
<event>
 4    1  0.1749575E-004  0.4034894E+03  0.7818608E-02  0.1042578E+00
          1   -1    0    0  501    0  0.00000000000E+00  0.00000000000E+00  0.78883533139E+03  0.78883533139E+03  0.00000000000E+00 0.  1.
         -1   -1    0    0    0  501 -0.00000000000E+00 -0.00000000000E+00 -0.51596211118E+02  0.51596211118E+02  0.00000000000E+00 0.  1.
         25    1    1    2    0    0  0.10585629947E+03 -0.11792191746E+03  0.44046571228E+03  0.48324029059E+03  0.12000000000E+03 0.  0.
         25    1    1    2    0    0 -0.10585629947E+03  0.11792191746E+03  0.29677340799E+03  0.35719125192E+03  0.12000000000E+03 0.  0.
<mgrwt>
<rscale>  0 0.40348935E+03</rscale>
<asrwt>0</asrwt>
<pdfrwt beam="1">  1        1 0.12135927E+00 0.40348935E+03</pdfrwt>
<pdfrwt beam="2">  1       -1 0.79378792E-02 0.40348935E+03</pdfrwt>
<totfact> 0.20571923E+03</totfact>
</mgrwt>
</event>
<event>
 4    1  0.1749575E-004  0.3448213E+03  0.7818608E-02  0.1064761E+00
          1   -1    0    0  501    0  0.00000000000E+00  0.00000000000E+00  0.15648545566E+03  0.15648545566E+03  0.00000000000E+00 0. -1.
         -1   -1    0    0    0  501 -0.00000000000E+00 -0.00000000000E+00 -0.18995650918E+03  0.18995650918E+03  0.00000000000E+00 0. -1.
         25    1    1    2    0    0  0.26748045367E+02  0.12055698347E+03 -0.25493532208E+02  0.17406712607E+03  0.12000000000E+03 0.  0.
         25    1    1    2    0    0 -0.26748045367E+02 -0.12055698347E+03 -0.79775213127E+01  0.17237483877E+03  0.12000000000E+03 0.  0.
<mgrwt>
<rscale>  0 0.34482129E+03</rscale>
<asrwt>0</asrwt>
<pdfrwt beam="1">  1        1 0.24074685E-01 0.34482129E+03</pdfrwt>
<pdfrwt beam="2">  1       -1 0.29224078E-01 0.34482129E+03</pdfrwt>
<totfact> 0.21531622E+03</totfact>
</mgrwt>
</event>
<event>
 4    1  0.1749575E-004  0.2676058E+03  0.7818608E-02  0.1102658E+00
          4   -1    0    0  501    0  0.00000000000E+00  0.00000000000E+00  0.64998926554E+03  0.64998926554E+03  0.00000000000E+00 0. -1.
         -4   -1    0    0    0  501 -0.00000000000E+00 -0.00000000000E+00 -0.27543858513E+02  0.27543858513E+02  0.00000000000E+00 0. -1.
         25    1    1    2    0    0 -0.65555965359E+01  0.58787922871E+02  0.30602371940E+03  0.33399028812E+03  0.12000000000E+03 0.  0.
         25    1    1    2    0    0  0.65555965359E+01 -0.58787922871E+02  0.31642168762E+03  0.34354283593E+03  0.12000000000E+03 0.  0.
<mgrwt>
<rscale>  0 0.26760577E+03</rscale>
<asrwt>0</asrwt>
<pdfrwt beam="1">  1        4 0.99998337E-01 0.26760577E+03</pdfrwt>
<pdfrwt beam="2">  1       -4 0.42375172E-02 0.26760577E+03</pdfrwt>
<totfact> 0.49688661E+02</totfact>
</mgrwt>
</event>
<event>
 4    1  0.1749575E-004  0.3351099E+03  0.7818608E-02  0.1068898E+00
         -1   -1    0    0    0  501 -0.00000000000E+00  0.00000000000E+00  0.85930045189E+02  0.85930045189E+02  0.00000000000E+00 0. -1.
          1   -1    0    0  501    0  0.00000000000E+00 -0.00000000000E+00 -0.32671532018E+03  0.32671532018E+03  0.00000000000E+00 0. -1.
         25    1    1    2    0    0 -0.72642229949E+01 -0.48295189592E+02  0.10443117133E+02  0.12997789415E+03  0.12000000000E+03 0.  0.
         25    1    1    2    0    0  0.72642229949E+01  0.48295189592E+02 -0.25122839212E+03  0.28266747121E+03  0.12000000000E+03 0.  0.
<mgrwt>
<rscale>  0 0.33510991E+03</rscale>
<asrwt>0</asrwt>
<pdfrwt beam="1">  1        1 0.50263896E-01 0.33510991E+03</pdfrwt>
<pdfrwt beam="2">  1       -1 0.13220007E-01 0.33510991E+03</pdfrwt>
<totfact> 0.30951309E+03</totfact>
</mgrwt>
</event>
<event>
 4    1  0.1749575E-004  0.2939924E+03  0.7818608E-02  0.1088283E+00
          2   -1    0    0  501    0  0.00000000000E+00  0.00000000000E+00  0.10617819079E+03  0.10617819079E+03  0.00000000000E+00 0.  1.
         -2   -1    0    0    0  501 -0.00000000000E+00 -0.00000000000E+00 -0.20350589474E+03  0.20350589474E+03  0.00000000000E+00 0.  1.
         25    1    1    2    0    0 -0.63899480842E+02 -0.28261336172E+02 -0.99467092208E+02  0.17080851620E+03  0.12000000000E+03 0.  0.
         25    1    1    2    0    0  0.63899480842E+02  0.28261336172E+02  0.21393882660E+01  0.13887556933E+03  0.12000000000E+03 0.  0.
<mgrwt>
<rscale>  0 0.29399243E+03</rscale>
<asrwt>0</asrwt>
<pdfrwt beam="1">  1        2 0.16335106E-01 0.29399243E+03</pdfrwt>
<pdfrwt beam="2">  1       -2 0.31308599E-01 0.29399243E+03</pdfrwt>
<totfact> 0.33217276E+03</totfact>
</mgrwt>
</event>
<event>
 4    1  0.1749575E-004  0.2502106E+03  0.7818608E-02  0.1113172E+00
         -1   -1    0    0    0  501 -0.00000000000E+00  0.00000000000E+00  0.71159380219E+02  0.71159380219E+02  0.00000000000E+00 0. -1.
          1   -1    0    0  501    0  0.00000000000E+00 -0.00000000000E+00 -0.21994760245E+03  0.21994760245E+03  0.00000000000E+00 0. -1.
         25    1    1    2    0    0  0.18084040533E+02  0.24688571173E+02 -0.53752270034E+02  0.13500320219E+03  0.12000000000E+03 0.  0.
         25    1    1    2    0    0 -0.18084040533E+02 -0.24688571173E+02 -0.95035952195E+02  0.15610378047E+03  0.12000000000E+03 0.  0.
<mgrwt>
<rscale>  0 0.25021059E+03</rscale>
<asrwt>0</asrwt>
<pdfrwt beam="1">  1        1 0.33838092E-01 0.25021059E+03</pdfrwt>
<pdfrwt beam="2">  1       -1 0.10947597E-01 0.25021059E+03</pdfrwt>
<totfact> 0.67863955E+03</totfact>
</mgrwt>
</event>
<event>
 4    1  0.1749575E-004  0.3379184E+03  0.7818608E-02  0.1067686E+00
          2   -1    0    0  501    0  0.00000000000E+00  0.00000000000E+00  0.38551999115E+03  0.38551999115E+03  0.00000000000E+00 0.  1.
         -2   -1    0    0    0  501 -0.00000000000E+00 -0.00000000000E+00 -0.74048578532E+02  0.74048578532E+02  0.00000000000E+00 0.  1.
         25    1    1    2    0    0  0.39170143665E+02  0.95860520802E+02  0.76159301531E+02  0.17585158178E+03  0.12000000000E+03 0.  0.
         25    1    1    2    0    0 -0.39170143665E+02 -0.95860520802E+02  0.23531211109E+03  0.28371698791E+03  0.12000000000E+03 0.  0.
<mgrwt>
<rscale>  0 0.33791838E+03</rscale>
<asrwt>0</asrwt>
<pdfrwt beam="1">  1        2 0.59310767E-01 0.33791838E+03</pdfrwt>
<pdfrwt beam="2">  1       -2 0.11392089E-01 0.33791838E+03</pdfrwt>
<totfact> 0.44830373E+03</totfact>
</mgrwt>
</event>
<event>
 4    1  0.1749575E-004  0.2679465E+03  0.7818608E-02  0.1102461E+00
          2   -1    0    0  501    0  0.00000000000E+00  0.00000000000E+00  0.23191562342E+04  0.23191562342E+04  0.00000000000E+00 0.  1.
         -2   -1    0    0    0  501 -0.00000000000E+00 -0.00000000000E+00 -0.77393811419E+01  0.77393811419E+01  0.00000000000E+00 0.  1.
         25    1    1    2    0    0 -0.64718162542E+01  0.10010110563E+02  0.16625809450E+04  0.16669485551E+04  0.12000000000E+03 0.  0.
         25    1    1    2    0    0  0.64718162542E+01 -0.10010110563E+02  0.64883590811E+03  0.65994706028E+03  0.12000000000E+03 0.  0.
<mgrwt>
<rscale>  0 0.26794652E+03</rscale>
<asrwt>0</asrwt>
<pdfrwt beam="1">  1        2 0.35679271E+00 0.26794652E+03</pdfrwt>
<pdfrwt beam="2">  1       -2 0.11906759E-02 0.26794652E+03</pdfrwt>
<totfact> 0.83125992E+03</totfact>
</mgrwt>
</event>
<event>
 4    1  0.1749575E-004  0.2899808E+03  0.7818608E-02  0.1090359E+00
         -1   -1    0    0    0  501 -0.00000000000E+00  0.00000000000E+00  0.48977793535E+01  0.48977793535E+01  0.00000000000E+00 0.  1.
          1   -1    0    0  501    0  0.00000000000E+00 -0.00000000000E+00 -0.42921930206E+04  0.42921930206E+04  0.00000000000E+00 0.  1.
         25    1    1    2    0    0 -0.45615631852E+02 -0.64391697751E+02 -0.18490836905E+04  0.18546529517E+04  0.12000000000E+03 0.  0.
         25    1    1    2    0    0  0.45615631852E+02  0.64391697751E+02 -0.24382115507E+04  0.24424378483E+04  0.12000000000E+03 0.  0.
<mgrwt>
<rscale>  0 0.28998079E+03</rscale>
<asrwt>0</asrwt>
<pdfrwt beam="1">  1        1 0.66033975E+00 0.28998079E+03</pdfrwt>
<pdfrwt beam="2">  1       -1 0.75350182E-03 0.28998079E+03</pdfrwt>
<totfact> 0.19598923E+02</totfact>
</mgrwt>
</event>
<event>
 4    1  0.1749575E-004  0.2756663E+03  0.7818608E-02  0.1098080E+00
          1   -1    0    0  501    0  0.00000000000E+00  0.00000000000E+00  0.10556717529E+03  0.10556717529E+03  0.00000000000E+00 0.  1.
         -1   -1    0    0    0  501 -0.00000000000E+00 -0.00000000000E+00 -0.17996108244E+03  0.17996108244E+03  0.00000000000E+00 0.  1.
         25    1    1    2    0    0  0.40993161476E+02  0.18462590781E+02  0.15379986440E+02  0.12906529560E+03  0.12000000000E+03 0.  0.
         25    1    1    2    0    0 -0.40993161476E+02 -0.18462590781E+02 -0.89773893591E+02  0.15646296212E+03  0.12000000000E+03 0.  0.
<mgrwt>
<rscale>  0 0.27566634E+03</rscale>
<asrwt>0</asrwt>
<pdfrwt beam="1">  1        1 0.16241104E-01 0.27566634E+03</pdfrwt>
<pdfrwt beam="2">  1       -1 0.27686320E-01 0.27566634E+03</pdfrwt>
<totfact> 0.39095743E+03</totfact>
</mgrwt>
</event>
<event>
 4    1  0.1749575E-004  0.2538694E+03  0.7818608E-02  0.1110884E+00
         -4   -1    0    0    0  501 -0.00000000000E+00  0.00000000000E+00  0.49625844852E+02  0.49625844852E+02  0.00000000000E+00 0. -1.
          4   -1    0    0  501    0  0.00000000000E+00 -0.00000000000E+00 -0.32467794957E+03  0.32467794957E+03  0.00000000000E+00 0. -1.
         25    1    1    2    0    0  0.30680326567E+02 -0.27743317440E+02 -0.13575465900E+03  0.18585021264E+03  0.12000000000E+03 0.  0.
         25    1    1    2    0    0 -0.30680326567E+02  0.27743317440E+02 -0.13929744573E+03  0.18845358178E+03  0.12000000000E+03 0.  0.
<mgrwt>
<rscale>  0 0.25386940E+03</rscale>
<asrwt>0</asrwt>
<pdfrwt beam="1">  1        4 0.49950452E-01 0.25386940E+03</pdfrwt>
<pdfrwt beam="2">  1       -4 0.76347456E-02 0.25386940E+03</pdfrwt>
<totfact> 0.86016739E+02</totfact>
</mgrwt>
</event>
<event>
 4    1  0.1749575E-004  0.4929079E+03  0.7818608E-02  0.1015647E+00
         -2   -1    0    0    0  501 -0.00000000000E+00  0.00000000000E+00  0.37657394907E+02  0.37657394907E+02  0.00000000000E+00 0.  1.
          2   -1    0    0  501    0  0.00000000000E+00 -0.00000000000E+00 -0.16129514474E+04  0.16129514474E+04  0.00000000000E+00 0.  1.
         25    1    1    2    0    0  0.11974558163E+03  0.10116445289E+03 -0.29359727947E+03  0.35379741854E+03  0.12000000000E+03 0.  0.
         25    1    1    2    0    0 -0.11974558163E+03 -0.10116445289E+03 -0.12816967730E+04  0.12968114237E+04  0.12000000000E+03 0.  0.
<mgrwt>
<rscale>  0 0.49290790E+03</rscale>
<asrwt>0</asrwt>
<pdfrwt beam="1">  1        2 0.24814631E+00 0.49290790E+03</pdfrwt>
<pdfrwt beam="2">  1       -2 0.57934470E-02 0.49290790E+03</pdfrwt>
<totfact> 0.18403448E+03</totfact>
</mgrwt>
</event>
<event>
 4    1  0.1749575E-004  0.2704268E+03  0.7818608E-02  0.1101036E+00
          2   -1    0    0  501    0  0.00000000000E+00  0.00000000000E+00  0.25717410801E+03  0.25717410801E+03  0.00000000000E+00 0. -1.
         -2   -1    0    0    0  501 -0.00000000000E+00 -0.00000000000E+00 -0.71090603516E+02  0.71090603516E+02  0.00000000000E+00 0. -1.
         25    1    1    2    0    0  0.17187917804E+01 -0.37778464791E+02  0.32927337098E+02  0.13005528123E+03  0.12000000000E+03 0.  0.
         25    1    1    2    0    0 -0.17187917804E+01  0.37778464791E+02  0.15315616740E+03  0.19820943030E+03  0.12000000000E+03 0.  0.
<mgrwt>
<rscale>  0 0.27042679E+03</rscale>
<asrwt>0</asrwt>
<pdfrwt beam="1">  1        2 0.39565247E-01 0.27042679E+03</pdfrwt>
<pdfrwt beam="2">  1       -2 0.10937016E-01 0.27042679E+03</pdfrwt>
<totfact> 0.73655803E+03</totfact>
</mgrwt>
</event>
<event>
 4    1  0.1749575E-004  0.2721385E+03  0.7818608E-02  0.1100062E+00
         -2   -1    0    0    0  501 -0.00000000000E+00  0.00000000000E+00  0.91025691450E+02  0.91025691450E+02  0.00000000000E+00 0.  1.
          2   -1    0    0  501    0  0.00000000000E+00 -0.00000000000E+00 -0.20340241252E+03  0.20340241252E+03  0.00000000000E+00 0.  1.
         25    1    1    2    0    0  0.13751203441E+02 -0.62110433761E+02 -0.47263877479E+02  0.14380777341E+03  0.12000000000E+03 0.  0.
         25    1    1    2    0    0 -0.13751203441E+02  0.62110433761E+02 -0.65112843589E+02  0.15062033056E+03  0.12000000000E+03 0.  0.
<mgrwt>
<rscale>  0 0.27213853E+03</rscale>
<asrwt>0</asrwt>
<pdfrwt beam="1">  1        2 0.31292679E-01 0.27213853E+03</pdfrwt>
<pdfrwt beam="2">  1       -2 0.14003953E-01 0.27213853E+03</pdfrwt>
<totfact> 0.63685271E+03</totfact>
</mgrwt>
</event>
<event>
 4    1  0.1749575E-004  0.4586031E+03  0.7818608E-02  0.1025187E+00
          2   -1    0    0  501    0  0.00000000000E+00  0.00000000000E+00  0.20368982194E+03  0.20368982194E+03  0.00000000000E+00 0. -1.
         -2   -1    0    0    0  501 -0.00000000000E+00 -0.00000000000E+00 -0.25813369096E+03  0.25813369096E+03  0.00000000000E+00 0. -1.
         25    1    1    2    0    0 -0.15071561632E+03  0.69459316498E+02  0.76649910594E+02  0.21866641819E+03  0.12000000000E+03 0.  0.
         25    1    1    2    0    0  0.15071561632E+03 -0.69459316498E+02 -0.13109377962E+03  0.24315709471E+03  0.12000000000E+03 0.  0.
<mgrwt>
<rscale>  0 0.45860312E+03</rscale>
<asrwt>0</asrwt>
<pdfrwt beam="1">  1        2 0.31336896E-01 0.45860312E+03</pdfrwt>
<pdfrwt beam="2">  1       -2 0.39712876E-01 0.45860312E+03</pdfrwt>
<totfact> 0.10166708E+03</totfact>
</mgrwt>
</event>
<event>
 4    1  0.1749575E-004  0.2615761E+03  0.7818608E-02  0.1106200E+00
         -1   -1    0    0    0  501 -0.00000000000E+00  0.00000000000E+00  0.60263022834E+03  0.60263022834E+03  0.00000000000E+00 0. -1.
          1   -1    0    0  501    0  0.00000000000E+00 -0.00000000000E+00 -0.28384754652E+02  0.28384754652E+02  0.00000000000E+00 0. -1.
         25    1    1    2    0    0  0.24010703755E+02  0.33001632510E+02  0.20933068065E+03  0.24471402801E+03  0.12000000000E+03 0.  0.
         25    1    1    2    0    0 -0.24010703755E+02 -0.33001632510E+02  0.36491479304E+03  0.38630095499E+03  0.12000000000E+03 0.  0.
<mgrwt>
<rscale>  0 0.26157608E+03</rscale>
<asrwt>0</asrwt>
<pdfrwt beam="1">  1        1 0.43668858E-02 0.26157608E+03</pdfrwt>
<pdfrwt beam="2">  1       -1 0.92712333E-01 0.26157608E+03</pdfrwt>
<totfact> 0.23876977E+03</totfact>
</mgrwt>
</event>
<event>
 4    1  0.1749575E-004  0.2805854E+03  0.7818608E-02  0.1095370E+00
         -2   -1    0    0    0  501 -0.00000000000E+00  0.00000000000E+00  0.67756212221E+02  0.67756212221E+02  0.00000000000E+00 0.  1.
          2   -1    0    0  501    0  0.00000000000E+00 -0.00000000000E+00 -0.29048311130E+03  0.29048311130E+03  0.00000000000E+00 0.  1.
         25    1    1    2    0    0  0.12133136207E+02 -0.68103625252E+02 -0.13981876829E+03  0.19681108895E+03  0.12000000000E+03 0.  0.
         25    1    1    2    0    0 -0.12133136207E+02  0.68103625252E+02 -0.82908130791E+02  0.16142823457E+03  0.12000000000E+03 0.  0.
<mgrwt>
<rscale>  0 0.28058535E+03</rscale>
<asrwt>0</asrwt>
<pdfrwt beam="1">  1        2 0.44689711E-01 0.28058535E+03</pdfrwt>
<pdfrwt beam="2">  1       -2 0.10424032E-01 0.28058535E+03</pdfrwt>
<totfact> 0.69858745E+03</totfact>
</mgrwt>
</event>
<event>
 4    1  0.1749575E-004  0.2655206E+03  0.7818608E-02  0.1103871E+00
          2   -1    0    0  501    0  0.00000000000E+00  0.00000000000E+00  0.75349454030E+03  0.75349454030E+03  0.00000000000E+00 0.  1.
         -2   -1    0    0    0  501 -0.00000000000E+00 -0.00000000000E+00 -0.23391399806E+02  0.23391399806E+02  0.00000000000E+00 0.  1.
         25    1    1    2    0    0  0.53174891174E+02  0.95927171799E+01  0.41620900888E+03  0.43651979147E+03  0.12000000000E+03 0.  0.
         25    1    1    2    0    0 -0.53174891174E+02 -0.95927171799E+01  0.31389413162E+03  0.34036614864E+03  0.12000000000E+03 0.  0.
<mgrwt>
<rscale>  0 0.26552056E+03</rscale>
<asrwt>0</asrwt>
<pdfrwt beam="1">  1        2 0.11592222E+00 0.26552056E+03</pdfrwt>
<pdfrwt beam="2">  1       -2 0.35986775E-02 0.26552056E+03</pdfrwt>
<totfact> 0.12271677E+04</totfact>
</mgrwt>
</event>
<event>
 4    1  0.1749575E-004  0.2531748E+03  0.7818608E-02  0.1111315E+00
          1   -1    0    0  501    0  0.00000000000E+00  0.00000000000E+00  0.43453438314E+03  0.43453438314E+03  0.00000000000E+00 0.  1.
         -1   -1    0    0    0  501 -0.00000000000E+00 -0.00000000000E+00 -0.36877118061E+02  0.36877118061E+02  0.00000000000E+00 0.  1.
         25    1    1    2    0    0 -0.21048649044E+02 -0.25109441657E+02  0.15512729366E+03  0.19884166295E+03  0.12000000000E+03 0.  0.
         25    1    1    2    0    0  0.21048649044E+02  0.25109441657E+02  0.24252997142E+03  0.27256983825E+03  0.12000000000E+03 0.  0.
<mgrwt>
<rscale>  0 0.25317485E+03</rscale>
<asrwt>0</asrwt>
<pdfrwt beam="1">  1        1 0.66851440E-01 0.25317485E+03</pdfrwt>
<pdfrwt beam="2">  1       -1 0.56734031E-02 0.25317485E+03</pdfrwt>
<totfact> 0.78313534E+03</totfact>
</mgrwt>
</event>
<event>
 4    1  0.1749575E-004  0.3882772E+03  0.7818608E-02  0.1047916E+00
         -2   -1    0    0    0  501 -0.00000000000E+00  0.00000000000E+00  0.34323431793E+02  0.34323431793E+02  0.00000000000E+00 0. -1.
          2   -1    0    0  501    0  0.00000000000E+00 -0.00000000000E+00 -0.10980776336E+04  0.10980776336E+04  0.00000000000E+00 0. -1.
         25    1    1    2    0    0 -0.61608242167E+02 -0.58832544976E+02 -0.90116502248E+03  0.91310198860E+03  0.12000000000E+03 0.  0.
         25    1    1    2    0    0  0.61608242167E+02  0.58832544976E+02 -0.16258917937E+03  0.21929907684E+03  0.12000000000E+03 0.  0.
<mgrwt>
<rscale>  0 0.38827718E+03</rscale>
<asrwt>0</asrwt>
<pdfrwt beam="1">  1        2 0.16893505E+00 0.38827718E+03</pdfrwt>
<pdfrwt beam="2">  1       -2 0.52805271E-02 0.38827718E+03</pdfrwt>
<totfact> 0.41422144E+03</totfact>
</mgrwt>
</event>
<event>
 4    1  0.1749575E-004  0.2604219E+03  0.7818608E-02  0.1106890E+00
          2   -1    0    0  501    0  0.00000000000E+00  0.00000000000E+00  0.13079883516E+04  0.13079883516E+04  0.00000000000E+00 0.  1.
         -2   -1    0    0    0  501 -0.00000000000E+00 -0.00000000000E+00 -0.12962566606E+02  0.12962566606E+02  0.00000000000E+00 0.  1.
         25    1    1    2    0    0 -0.43748567303E+02 -0.11568265067E+02  0.76173927617E+03  0.77246002276E+03  0.12000000000E+03 0.  0.
         25    1    1    2    0    0  0.43748567303E+02  0.11568265067E+02  0.53328650885E+03  0.54849089547E+03  0.12000000000E+03 0.  0.
<mgrwt>
<rscale>  0 0.26042186E+03</rscale>
<asrwt>0</asrwt>
<pdfrwt beam="1">  1        2 0.20122887E+00 0.26042186E+03</pdfrwt>
<pdfrwt beam="2">  1       -2 0.19942420E-02 0.26042186E+03</pdfrwt>
<totfact> 0.13446858E+04</totfact>
</mgrwt>
</event>
<event>
 4    1  0.1749575E-004  0.2801004E+03  0.7818608E-02  0.1095634E+00
         -2   -1    0    0    0  501 -0.00000000000E+00  0.00000000000E+00  0.58751588731E+02  0.58751588731E+02  0.00000000000E+00 0. -1.
          2   -1    0    0  501    0  0.00000000000E+00 -0.00000000000E+00 -0.33384740484E+03  0.33384740484E+03  0.00000000000E+00 0. -1.
         25    1    1    2    0    0 -0.34239756454E+02  0.18950438496E+02 -0.22260524654E+03  0.25589954246E+03  0.12000000000E+03 0.  0.
         25    1    1    2    0    0  0.34239756454E+02 -0.18950438496E+02 -0.52490569564E+02  0.13669945111E+03  0.12000000000E+03 0.  0.
<mgrwt>
<rscale>  0 0.28010045E+03</rscale>
<asrwt>0</asrwt>
<pdfrwt beam="1">  1        2 0.51361139E-01 0.28010045E+03</pdfrwt>
<pdfrwt beam="2">  1       -2 0.90387059E-02 0.28010045E+03</pdfrwt>
<totfact> 0.75401446E+03</totfact>
</mgrwt>
</event>
<event>
 4    1  0.1749575E-004  0.3445175E+03  0.7818608E-02  0.1064888E+00
         -4   -1    0    0    0  501 -0.00000000000E+00  0.00000000000E+00  0.73042551073E+02  0.73042551073E+02  0.00000000000E+00 0.  1.
          4   -1    0    0  501    0  0.00000000000E+00 -0.00000000000E+00 -0.40624373936E+03  0.40624373936E+03  0.00000000000E+00 0.  1.
         25    1    1    2    0    0 -0.67690179507E+02  0.67796554546E+02 -0.27520851623E+03  0.31514768065E+03  0.12000000000E+03 0.  0.
         25    1    1    2    0    0  0.67690179507E+02 -0.67796554546E+02 -0.57992672050E+02  0.16413860978E+03  0.12000000000E+03 0.  0.
<mgrwt>
<rscale>  0 0.34451751E+03</rscale>
<asrwt>0</asrwt>
<pdfrwt beam="1">  1        4 0.62499039E-01 0.34451751E+03</pdfrwt>
<pdfrwt beam="2">  1       -4 0.11237315E-01 0.34451751E+03</pdfrwt>
<totfact> 0.29035830E+02</totfact>
</mgrwt>
</event>
<event>
 4    1  0.1749575E-004  0.4436558E+03  0.7818608E-02  0.1029631E+00
          2   -1    0    0  501    0  0.00000000000E+00  0.00000000000E+00  0.18390187235E+04  0.18390187235E+04  0.00000000000E+00 0. -1.
         -2   -1    0    0    0  501 -0.00000000000E+00 -0.00000000000E+00 -0.26757539716E+02  0.26757539716E+02  0.00000000000E+00 0. -1.
         25    1    1    2    0    0  0.87515000133E+02 -0.18836114856E+02  0.15945160859E+04  0.16015290265E+04  0.12000000000E+03 0.  0.
         25    1    1    2    0    0 -0.87515000133E+02  0.18836114856E+02  0.21774509791E+03  0.26424723676E+03  0.12000000000E+03 0.  0.
<mgrwt>
<rscale>  0 0.44365580E+03</rscale>
<asrwt>0</asrwt>
<pdfrwt beam="1">  1        2 0.28292586E+00 0.44365580E+03</pdfrwt>
<pdfrwt beam="2">  1       -2 0.41165460E-02 0.44365580E+03</pdfrwt>
<totfact> 0.23596848E+03</totfact>
</mgrwt>
</event>
<event>
 4    1  0.1749575E-004  0.2731230E+03  0.7818608E-02  0.1099505E+00
          1   -1    0    0  501    0  0.00000000000E+00  0.00000000000E+00  0.38434844085E+04  0.38434844085E+04  0.00000000000E+00 0. -1.
         -1   -1    0    0    0  501 -0.00000000000E+00 -0.00000000000E+00 -0.48521196505E+01  0.48521196505E+01  0.00000000000E+00 0. -1.
         25    1    1    2    0    0 -0.53143664443E+01  0.50915872300E+02  0.24878970953E+04  0.24913154407E+04  0.12000000000E+03 0.  0.
         25    1    1    2    0    0  0.53143664443E+01 -0.50915872300E+02  0.13507351936E+04  0.13570210874E+04  0.12000000000E+03 0.  0.
<mgrwt>
<rscale>  0 0.27312302E+03</rscale>
<asrwt>0</asrwt>
<pdfrwt beam="1">  1        1 0.59130286E+00 0.27312302E+03</pdfrwt>
<pdfrwt beam="2">  1       -1 0.74648302E-03 0.27312302E+03</pdfrwt>
<totfact> 0.48516247E+02</totfact>
</mgrwt>
</event>
<event>
 4    1  0.1749575E-004  0.2495945E+03  0.7818608E-02  0.1113561E+00
          2   -1    0    0  501    0  0.00000000000E+00  0.00000000000E+00  0.55058756484E+03  0.55058756484E+03  0.00000000000E+00 0. -1.
         -2   -1    0    0    0  501 -0.00000000000E+00 -0.00000000000E+00 -0.28286790067E+02  0.28286790067E+02  0.00000000000E+00 0. -1.
         25    1    1    2    0    0  0.21548132831E+02  0.71348699916E+01  0.20160698391E+03  0.23571297028E+03  0.12000000000E+03 0.  0.
         25    1    1    2    0    0 -0.21548132831E+02 -0.71348699916E+01  0.32069379087E+03  0.34316138463E+03  0.12000000000E+03 0.  0.
<mgrwt>
<rscale>  0 0.24959451E+03</rscale>
<asrwt>0</asrwt>
<pdfrwt beam="1">  1        2 0.84705771E-01 0.24959451E+03</pdfrwt>
<pdfrwt beam="2">  1       -2 0.43518143E-02 0.24959451E+03</pdfrwt>
<totfact> 0.13338765E+04</totfact>
</mgrwt>
</event>
<event>
 4    1  0.1749575E-004  0.3154208E+03  0.7818608E-02  0.1077776E+00
          1   -1    0    0  501    0  0.00000000000E+00  0.00000000000E+00  0.10299985444E+03  0.10299985444E+03  0.00000000000E+00 0. -1.
         -1   -1    0    0    0  501 -0.00000000000E+00 -0.00000000000E+00 -0.24148160794E+03  0.24148160794E+03  0.00000000000E+00 0. -1.
         25    1    1    2    0    0 -0.58411213657E+02 -0.27545794353E+02  0.17457767458E+02  0.13738782447E+03  0.12000000000E+03 0.  0.
         25    1    1    2    0    0  0.58411213657E+02  0.27545794353E+02 -0.15593952095E+03  0.20709363791E+03  0.12000000000E+03 0.  0.
<mgrwt>
<rscale>  0 0.31542080E+03</rscale>
<asrwt>0</asrwt>
<pdfrwt beam="1">  1        1 0.15846132E-01 0.31542080E+03</pdfrwt>
<pdfrwt beam="2">  1       -1 0.37151016E-01 0.31542080E+03</pdfrwt>
<totfact> 0.24420910E+03</totfact>
</mgrwt>
</event>
<event>
 4    1  0.1749575E-004  0.3616782E+03  0.7818608E-02  0.1057921E+00
          2   -1    0    0  501    0  0.00000000000E+00  0.00000000000E+00  0.19709222375E+04  0.19709222375E+04  0.00000000000E+00 0.  1.
         -2   -1    0    0    0  501 -0.00000000000E+00 -0.00000000000E+00 -0.16592626037E+02  0.16592626037E+02  0.00000000000E+00 0.  1.
         25    1    1    2    0    0  0.11064410645E+03  0.76004873149E+02  0.10697589399E+04  0.10848055349E+04  0.12000000000E+03 0.  0.
         25    1    1    2    0    0 -0.11064410645E+03 -0.76004873149E+02  0.88457067158E+03  0.90270932866E+03  0.12000000000E+03 0.  0.
<mgrwt>
<rscale>  0 0.36167818E+03</rscale>
<asrwt>0</asrwt>
<pdfrwt beam="1">  1        2 0.30321862E+00 0.36167818E+03</pdfrwt>
<pdfrwt beam="2">  1       -2 0.25527133E-02 0.36167818E+03</pdfrwt>
<totfact> 0.41397636E+03</totfact>
</mgrwt>
</event>
<event>
 4    1  0.1749575E-004  0.3670118E+03  0.7818608E-02  0.1055841E+00
         -2   -1    0    0    0  501 -0.00000000000E+00  0.00000000000E+00  0.36867272038E+02  0.36867272038E+02  0.00000000000E+00 0. -1.
          2   -1    0    0  501    0  0.00000000000E+00 -0.00000000000E+00 -0.91339607634E+03  0.91339607634E+03  0.00000000000E+00 0. -1.
         25    1    1    2    0    0  0.17746305822E+02  0.13769275576E+03 -0.43940853550E+03  0.47618702989E+03  0.12000000000E+03 0.  0.
         25    1    1    2    0    0 -0.17746305822E+02 -0.13769275576E+03 -0.43712026880E+03  0.47407631849E+03  0.12000000000E+03 0.  0.
<mgrwt>
<rscale>  0 0.36701183E+03</rscale>
<asrwt>0</asrwt>
<pdfrwt beam="1">  1        2 0.14052248E+00 0.36701183E+03</pdfrwt>
<pdfrwt beam="2">  1       -2 0.56718878E-02 0.36701183E+03</pdfrwt>
<totfact> 0.48280779E+03</totfact>
</mgrwt>
</event>
<event>
 4    1  0.1749575E-004  0.2467207E+03  0.7818608E-02  0.1115395E+00
         -2   -1    0    0    0  501 -0.00000000000E+00  0.00000000000E+00  0.42894775395E+01  0.42894775395E+01  0.00000000000E+00 0. -1.
          2   -1    0    0  501    0  0.00000000000E+00 -0.00000000000E+00 -0.35476979746E+04  0.35476979746E+04  0.00000000000E+00 0. -1.
         25    1    1    2    0    0  0.11381570986E+02 -0.18409802796E+02 -0.15026305291E+04  0.15075698883E+04  0.12000000000E+03 0.  0.
         25    1    1    2    0    0 -0.11381570986E+02  0.18409802796E+02 -0.20407779680E+04  0.20444175639E+04  0.12000000000E+03 0.  0.
<mgrwt>
<rscale>  0 0.24672066E+03</rscale>
<asrwt>0</asrwt>
<pdfrwt beam="1">  1        2 0.54579954E+00 0.24672066E+03</pdfrwt>
<pdfrwt beam="2">  1       -2 0.65991980E-03 0.24672066E+03</pdfrwt>
<totfact> 0.36821908E+03</totfact>
</mgrwt>
</event>
<event>
 4    1  0.1749575E-004  0.2882125E+03  0.7818608E-02  0.1091286E+00
         -1   -1    0    0    0  501 -0.00000000000E+00  0.00000000000E+00  0.42370914847E+02  0.42370914847E+02  0.00000000000E+00 0. -1.
          1   -1    0    0  501    0  0.00000000000E+00 -0.00000000000E+00 -0.49011477662E+03  0.49011477662E+03  0.00000000000E+00 0. -1.
         25    1    1    2    0    0 -0.71699655292E+02 -0.93307775625E+01 -0.16152699024E+03  0.21381971975E+03  0.12000000000E+03 0.  0.
         25    1    1    2    0    0  0.71699655292E+02  0.93307775625E+01 -0.28621687153E+03  0.31866597172E+03  0.12000000000E+03 0.  0.
<mgrwt>
<rscale>  0 0.28821250E+03</rscale>
<asrwt>0</asrwt>
<pdfrwt beam="1">  1        1 0.75402272E-01 0.28821250E+03</pdfrwt>
<pdfrwt beam="2">  1       -1 0.65186024E-02 0.28821250E+03</pdfrwt>
<totfact> 0.54481074E+03</totfact>
</mgrwt>
</event>
<event>
 4    1  0.1749575E-004  0.2612318E+03  0.7818608E-02  0.1106405E+00
          1   -1    0    0  501    0  0.00000000000E+00  0.00000000000E+00  0.49919043933E+03  0.49919043933E+03  0.00000000000E+00 0.  1.
         -1   -1    0    0    0  501 -0.00000000000E+00 -0.00000000000E+00 -0.34176357937E+02  0.34176357937E+02  0.00000000000E+00 0.  1.
         25    1    1    2    0    0  0.25845882248E+02  0.39356576149E+02  0.18950621019E+03  0.22919326651E+03  0.12000000000E+03 0.  0.
         25    1    1    2    0    0 -0.25845882248E+02 -0.39356576149E+02  0.27550787121E+03  0.30417353076E+03  0.12000000000E+03 0.  0.
<mgrwt>
<rscale>  0 0.26123178E+03</rscale>
<asrwt>0</asrwt>
<pdfrwt beam="1">  1        1 0.76798524E-01 0.26123178E+03</pdfrwt>
<pdfrwt beam="2">  1       -1 0.52579016E-02 0.26123178E+03</pdfrwt>
<totfact> 0.73290014E+03</totfact>
</mgrwt>
</event>
<event>
 4    1  0.1749575E-004  0.2958781E+03  0.7818608E-02  0.1087319E+00
         -2   -1    0    0    0  501 -0.00000000000E+00  0.00000000000E+00  0.16826677311E+02  0.16826677311E+02  0.00000000000E+00 0.  1.
          2   -1    0    0  501    0  0.00000000000E+00 -0.00000000000E+00 -0.13006700535E+04  0.13006700535E+04  0.00000000000E+00 0.  1.
         25    1    1    2    0    0  0.19014634788E+02  0.59628650779E+02 -0.37591087031E+03  0.39953237009E+03  0.12000000000E+03 0.  0.
         25    1    1    2    0    0 -0.19014634788E+02 -0.59628650779E+02 -0.90793250588E+03  0.91796436073E+03  0.12000000000E+03 0.  0.
<mgrwt>
<rscale>  0 0.29587805E+03</rscale>
<asrwt>0</asrwt>
<pdfrwt beam="1">  1        2 0.20010318E+00 0.29587805E+03</pdfrwt>
<pdfrwt beam="2">  1       -2 0.25887184E-02 0.29587805E+03</pdfrwt>
<totfact> 0.92623260E+03</totfact>
</mgrwt>
</event>
<event>
 4    1  0.1749575E-004  0.2514063E+03  0.7818608E-02  0.1112419E+00
          2   -1    0    0  501    0  0.00000000000E+00  0.00000000000E+00  0.26245955948E+03  0.26245955948E+03  0.00000000000E+00 0. -1.
         -2   -1    0    0    0  501 -0.00000000000E+00 -0.00000000000E+00 -0.60204614696E+02  0.60204614696E+02  0.00000000000E+00 0. -1.
         25    1    1    2    0    0 -0.34027175110E+02  0.15376300753E+02  0.10452249300E+03  0.16346018113E+03  0.12000000000E+03 0.  0.
         25    1    1    2    0    0  0.34027175110E+02 -0.15376300753E+02  0.97732451775E+02  0.15920399304E+03  0.12000000000E+03 0.  0.
<mgrwt>
<rscale>  0 0.25140626E+03</rscale>
<asrwt>0</asrwt>
<pdfrwt beam="1">  1        2 0.40378393E-01 0.25140626E+03</pdfrwt>
<pdfrwt beam="2">  1       -2 0.92622486E-02 0.25140626E+03</pdfrwt>
<totfact> 0.93550048E+03</totfact>
</mgrwt>
</event>
<event>
 4    1  0.1749575E-004  0.2914535E+03  0.7818608E-02  0.1089593E+00
         -2   -1    0    0    0  501 -0.00000000000E+00  0.00000000000E+00  0.76675370998E+01  0.76675370998E+01  0.00000000000E+00 0.  1.
          2   -1    0    0  501    0  0.00000000000E+00 -0.00000000000E+00 -0.27696354336E+04  0.27696354336E+04  0.00000000000E+00 0.  1.
         25    1    1    2    0    0  0.13837252468E+02  0.42491507186E+02 -0.71808916220E+03  0.72941691961E+03  0.12000000000E+03 0.  0.
         25    1    1    2    0    0 -0.13837252468E+02 -0.42491507186E+02 -0.20438787343E+04  0.20478860511E+04  0.12000000000E+03 0.  0.
<mgrwt>
<rscale>  0 0.29145348E+03</rscale>
<asrwt>0</asrwt>
<pdfrwt beam="1">  1        2 0.42609767E+00 0.29145348E+03</pdfrwt>
<pdfrwt beam="2">  1       -2 0.11796213E-02 0.29145348E+03</pdfrwt>
<totfact> 0.47493542E+03</totfact>
</mgrwt>
</event>
<event>
 4    1  0.1749575E-004  0.3636148E+03  0.7818608E-02  0.1057162E+00
          4   -1    0    0  501    0  0.00000000000E+00  0.00000000000E+00  0.17553480373E+03  0.17553480373E+03  0.00000000000E+00 0.  1.
         -4   -1    0    0    0  501 -0.00000000000E+00 -0.00000000000E+00 -0.18830412636E+03  0.18830412636E+03  0.00000000000E+00 0.  1.
         25    1    1    2    0    0 -0.88442535996E+02 -0.10121929476E+03 -0.30617353319E+02  0.18276993770E+03  0.12000000000E+03 0.  0.
         25    1    1    2    0    0  0.88442535996E+02  0.10121929476E+03  0.17848030690E+02  0.18106899239E+03  0.12000000000E+03 0.  0.
<mgrwt>
<rscale>  0 0.36361478E+03</rscale>
<asrwt>0</asrwt>
<pdfrwt beam="1">  1        4 0.27005354E-01 0.36361478E+03</pdfrwt>
<pdfrwt beam="2">  1       -4 0.28969866E-01 0.36361478E+03</pdfrwt>
<totfact> 0.28446785E+02</totfact>
</mgrwt>
</event>
<event>
 4    1  0.1749575E-004  0.3681621E+03  0.7818608E-02  0.1055398E+00
          2   -1    0    0  501    0  0.00000000000E+00  0.00000000000E+00  0.22127324478E+04  0.22127324478E+04  0.00000000000E+00 0. -1.
         -2   -1    0    0    0  501 -0.00000000000E+00 -0.00000000000E+00 -0.15314018456E+02  0.15314018456E+02  0.00000000000E+00 0. -1.
         25    1    1    2    0    0 -0.10303080680E+03  0.72722010381E+02  0.73651021053E+03  0.75680322949E+03  0.12000000000E+03 0.  0.
         25    1    1    2    0    0  0.10303080680E+03 -0.72722010381E+02  0.14609082188E+04  0.14712432367E+04  0.12000000000E+03 0.  0.
<mgrwt>
<rscale>  0 0.36816206E+03</rscale>
<asrwt>0</asrwt>
<pdfrwt beam="1">  1        2 0.34042012E+00 0.36816206E+03</pdfrwt>
<pdfrwt beam="2">  1       -2 0.23560046E-02 0.36816206E+03</pdfrwt>
<totfact> 0.34645250E+03</totfact>
</mgrwt>
</event>
<event>
 4    1  0.1749575E-004  0.3004102E+03  0.7818608E-02  0.1085036E+00
         -2   -1    0    0    0  501 -0.00000000000E+00  0.00000000000E+00  0.19211383690E+03  0.19211383690E+03  0.00000000000E+00 0.  1.
          2   -1    0    0  501    0  0.00000000000E+00 -0.00000000000E+00 -0.11743852477E+03  0.11743852477E+03  0.00000000000E+00 0.  1.
         25    1    1    2    0    0  0.61857855917E+02 -0.36308428457E+02  0.93935222226E+02  0.16842957665E+03  0.12000000000E+03 0.  0.
         25    1    1    2    0    0 -0.61857855917E+02  0.36308428457E+02 -0.19259910102E+02  0.14112278502E+03  0.12000000000E+03 0.  0.
<mgrwt>
<rscale>  0 0.30041016E+03</rscale>
<asrwt>0</asrwt>
<pdfrwt beam="1">  1        2 0.18067465E-01 0.30041016E+03</pdfrwt>
<pdfrwt beam="2">  1       -2 0.29555975E-01 0.30041016E+03</pdfrwt>
<totfact> 0.32813097E+03</totfact>
</mgrwt>
</event>
<event>
 4    1  0.1749575E-004  0.3390886E+03  0.7818608E-02  0.1067185E+00
         -2   -1    0    0    0  501 -0.00000000000E+00  0.00000000000E+00  0.63712431604E+02  0.63712431604E+02  0.00000000000E+00 0.  1.
          2   -1    0    0  501    0  0.00000000000E+00 -0.00000000000E+00 -0.45117206401E+03  0.45117206401E+03  0.00000000000E+00 0.  1.
         25    1    1    2    0    0  0.17738641515E+02  0.67505945677E+02 -0.34152257912E+03  0.36865889946E+03  0.12000000000E+03 0.  0.
         25    1    1    2    0    0 -0.17738641515E+02 -0.67505945677E+02 -0.45937053285E+02  0.14622559615E+03  0.12000000000E+03 0.  0.
<mgrwt>
<rscale>  0 0.33908860E+03</rscale>
<asrwt>0</asrwt>
<pdfrwt beam="1">  1        2 0.69411089E-01 0.33908860E+03</pdfrwt>
<pdfrwt beam="2">  1       -2 0.98019122E-02 0.33908860E+03</pdfrwt>
<totfact> 0.48003653E+03</totfact>
</mgrwt>
</event>
<event>
 4    1  0.1749575E-004  0.3541001E+03  0.7818608E-02  0.1060945E+00
          1   -1    0    0  501    0  0.00000000000E+00  0.00000000000E+00  0.67697331275E+02  0.67697331275E+02  0.00000000000E+00 0.  1.
         -1   -1    0    0    0  501 -0.00000000000E+00 -0.00000000000E+00 -0.46304231097E+03  0.46304231097E+03  0.00000000000E+00 0.  1.
         25    1    1    2    0    0 -0.50925644713E+02  0.35227245010E+02 -0.26041517476E+02  0.13752287342E+03  0.12000000000E+03 0.  0.
         25    1    1    2    0    0  0.50925644713E+02 -0.35227245010E+02 -0.36930346222E+03  0.39321676883E+03  0.12000000000E+03 0.  0.
<mgrwt>
<rscale>  0 0.35410015E+03</rscale>
<asrwt>0</asrwt>
<pdfrwt beam="1">  1        1 0.10414974E-01 0.35410015E+03</pdfrwt>
<pdfrwt beam="2">  1       -1 0.71237277E-01 0.35410015E+03</pdfrwt>
<totfact> 0.12610304E+03</totfact>
</mgrwt>
</event>
<event>
 4    1  0.1749575E-004  0.3722647E+03  0.7818608E-02  0.1053830E+00
          4   -1    0    0  501    0  0.00000000000E+00  0.00000000000E+00  0.65277303303E+02  0.65277303303E+02  0.00000000000E+00 0.  1.
         -4   -1    0    0    0  501 -0.00000000000E+00 -0.00000000000E+00 -0.53073964967E+03  0.53073964967E+03  0.00000000000E+00 0.  1.
         25    1    1    2    0    0  0.96481607004E+02 -0.70919996547E+02 -0.10967970405E+03  0.20191083151E+03  0.12000000000E+03 0.  0.
         25    1    1    2    0    0 -0.96481607004E+02  0.70919996547E+02 -0.35578264232E+03  0.39410612147E+03  0.12000000000E+03 0.  0.
<mgrwt>
<rscale>  0 0.37226471E+03</rscale>
<asrwt>0</asrwt>
<pdfrwt beam="1">  1        4 0.10042662E-01 0.37226471E+03</pdfrwt>
<pdfrwt beam="2">  1       -4 0.81652254E-01 0.37226471E+03</pdfrwt>
<totfact> 0.19707429E+02</totfact>
</mgrwt>
</event>
<event>
 4    1  0.1749575E-004  0.3627891E+03  0.7818608E-02  0.1057485E+00
          1   -1    0    0  501    0  0.00000000000E+00  0.00000000000E+00  0.75841505804E+02  0.75841505804E+02  0.00000000000E+00 0.  1.
         -1   -1    0    0    0  501 -0.00000000000E+00 -0.00000000000E+00 -0.43385198949E+03  0.43385198949E+03  0.00000000000E+00 0.  1.
         25    1    1    2    0    0  0.10965017047E+03 -0.77061812135E+01 -0.29158780797E+03  0.33392513363E+03  0.12000000000E+03 0.  0.
         25    1    1    2    0    0 -0.10965017047E+03  0.77061812135E+01 -0.66422675714E+02  0.17576836166E+03  0.12000000000E+03 0.  0.
<mgrwt>
<rscale>  0 0.36278913E+03</rscale>
<asrwt>0</asrwt>
<pdfrwt beam="1">  1        1 0.11667924E-01 0.36278913E+03</pdfrwt>
<pdfrwt beam="2">  1       -1 0.66746460E-01 0.36278913E+03</pdfrwt>
<totfact> 0.12330226E+03</totfact>
</mgrwt>
</event>
<event>
 4    1  0.1749575E-004  0.3123234E+03  0.7818608E-02  0.1079238E+00
         -1   -1    0    0    0  501 -0.00000000000E+00  0.00000000000E+00  0.82278726095E+02  0.82278726095E+02  0.00000000000E+00 0. -1.
          1   -1    0    0  501    0  0.00000000000E+00 -0.00000000000E+00 -0.29638857473E+03  0.29638857473E+03  0.00000000000E+00 0. -1.
         25    1    1    2    0    0 -0.95714094785E+02 -0.28521456525E+02 -0.11122200783E+03  0.19168984441E+03  0.12000000000E+03 0.  0.
         25    1    1    2    0    0  0.95714094785E+02  0.28521456525E+02 -0.10288784080E+03  0.18697745642E+03  0.12000000000E+03 0.  0.
<mgrwt>
<rscale>  0 0.31232339E+03</rscale>
<asrwt>0</asrwt>
<pdfrwt beam="1">  1        1 0.45598242E-01 0.31232339E+03</pdfrwt>
<pdfrwt beam="2">  1       -1 0.12658266E-01 0.31232339E+03</pdfrwt>
<totfact> 0.37442791E+03</totfact>
</mgrwt>
</event>
<event>
 4    1  0.1749575E-004  0.3101112E+03  0.7818608E-02  0.1080293E+00
         -2   -1    0    0    0  501 -0.00000000000E+00  0.00000000000E+00  0.20524496660E+02  0.20524496660E+02  0.00000000000E+00 0.  1.
          2   -1    0    0  501    0  0.00000000000E+00 -0.00000000000E+00 -0.11713926714E+04  0.11713926714E+04  0.00000000000E+00 0.  1.
         25    1    1    2    0    0  0.36376997371E+00  0.38188765075E+02 -0.22773444828E+03  0.26023353558E+03  0.12000000000E+03 0.  0.
         25    1    1    2    0    0 -0.36376997371E+00 -0.38188765075E+02 -0.92313372648E+03  0.93168363250E+03  0.12000000000E+03 0.  0.
<mgrwt>
<rscale>  0 0.31011124E+03</rscale>
<asrwt>0</asrwt>
<pdfrwt beam="1">  1        2 0.18021425E+00 0.31011124E+03</pdfrwt>
<pdfrwt beam="2">  1       -2 0.31576151E-02 0.31011124E+03</pdfrwt>
<totfact> 0.81586976E+03</totfact>
</mgrwt>
</event>
<event>
 4    1  0.1749575E-004  0.2499974E+03  0.7818608E-02  0.1113306E+00
         -4   -1    0    0    0  501 -0.00000000000E+00  0.00000000000E+00  0.77284955872E+02  0.77284955872E+02  0.00000000000E+00 0.  1.
          4   -1    0    0  501    0  0.00000000000E+00 -0.00000000000E+00 -0.20216963590E+03  0.20216963590E+03  0.00000000000E+00 0.  1.
         25    1    1    2    0    0 -0.21286909168E+02 -0.46940850190E+01 -0.31839416494E+02  0.12605124108E+03  0.12000000000E+03 0.  0.
         25    1    1    2    0    0  0.21286909168E+02  0.46940850190E+01 -0.93045263532E+02  0.15340335069E+03  0.12000000000E+03 0.  0.
<mgrwt>
<rscale>  0 0.24999737E+03</rscale>
<asrwt>0</asrwt>
<pdfrwt beam="1">  1        4 0.31103020E-01 0.24999737E+03</pdfrwt>
<pdfrwt beam="2">  1       -4 0.11889993E-01 0.24999737E+03</pdfrwt>
<totfact> 0.10368956E+03</totfact>
</mgrwt>
</event>
<event>
 4    1  0.1749575E-004  0.2466135E+03  0.7818608E-02  0.1115464E+00
         -1   -1    0    0    0  501 -0.00000000000E+00  0.00000000000E+00  0.24145595939E+02  0.24145595939E+02  0.00000000000E+00 0. -1.
          1   -1    0    0  501    0  0.00000000000E+00 -0.00000000000E+00 -0.62970298764E+03  0.62970298764E+03  0.00000000000E+00 0. -1.
         25    1    1    2    0    0 -0.17733340612E+02 -0.20640689034E+02 -0.28156085298E+03  0.30727353180E+03  0.12000000000E+03 0.  0.
         25    1    1    2    0    0  0.17733340612E+02  0.20640689034E+02 -0.32399653872E+03  0.34657505178E+03  0.12000000000E+03 0.  0.
<mgrwt>
<rscale>  0 0.24661349E+03</rscale>
<asrwt>0</asrwt>
<pdfrwt beam="1">  1        1 0.96877380E-01 0.24661349E+03</pdfrwt>
<pdfrwt beam="2">  1       -1 0.37147072E-02 0.24661349E+03</pdfrwt>
<totfact> 0.89431294E+03</totfact>
</mgrwt>
</event>
<event>
 4    1  0.1749575E-004  0.2936996E+03  0.7818608E-02  0.1088433E+00
         -4   -1    0    0    0  501 -0.00000000000E+00  0.00000000000E+00  0.57781134959E+02  0.57781134959E+02  0.00000000000E+00 0.  1.
          4   -1    0    0  501    0  0.00000000000E+00 -0.00000000000E+00 -0.37321633316E+03  0.37321633316E+03  0.00000000000E+00 0.  1.
         25    1    1    2    0    0  0.32919945868E+02 -0.10436106894E+02 -0.27112452115E+03  0.29849814260E+03  0.12000000000E+03 0.  0.
         25    1    1    2    0    0 -0.32919945868E+02  0.10436106894E+02 -0.44310677045E+02  0.13249932552E+03  0.12000000000E+03 0.  0.
<mgrwt>
<rscale>  0 0.29369960E+03</rscale>
<asrwt>0</asrwt>
<pdfrwt beam="1">  1        4 0.57417895E-01 0.29369960E+03</pdfrwt>
<pdfrwt beam="2">  1       -4 0.88894057E-02 0.29369960E+03</pdfrwt>
<totfact> 0.50890026E+02</totfact>
</mgrwt>
</event>
<event>
 4    1  0.1749575E-004  0.3132370E+03  0.7818608E-02  0.1078805E+00
         -1   -1    0    0    0  501 -0.00000000000E+00  0.00000000000E+00  0.31357063191E+02  0.31357063191E+02  0.00000000000E+00 0. -1.
          1   -1    0    0  501    0  0.00000000000E+00 -0.00000000000E+00 -0.78225937993E+03  0.78225937993E+03  0.00000000000E+00 0. -1.
         25    1    1    2    0    0 -0.83258444147E+02  0.21115221804E+02 -0.23920187815E+03  0.28106113147E+03  0.12000000000E+03 0.  0.
         25    1    1    2    0    0  0.83258444147E+02 -0.21115221804E+02 -0.51170043859E+03  0.53255531165E+03  0.12000000000E+03 0.  0.
<mgrwt>
<rscale>  0 0.31323701E+03</rscale>
<asrwt>0</asrwt>
<pdfrwt beam="1">  1        1 0.12034760E+00 0.31323701E+03</pdfrwt>
<pdfrwt beam="2">  1       -1 0.48241635E-02 0.31323701E+03</pdfrwt>
<totfact> 0.44373963E+03</totfact>
</mgrwt>
</event>
<event>
 4    1  0.1749575E-004  0.3332020E+03  0.7818608E-02  0.1069729E+00
         -2   -1    0    0    0  501 -0.00000000000E+00  0.00000000000E+00  0.12681247526E+02  0.12681247526E+02  0.00000000000E+00 0. -1.
          2   -1    0    0  501    0  0.00000000000E+00 -0.00000000000E+00 -0.21887356316E+04  0.21887356316E+04  0.00000000000E+00 0. -1.
         25    1    1    2    0    0  0.45790770823E+02  0.10070676184E+03 -0.86719103935E+03  0.88241653730E+03  0.12000000000E+03 0.  0.
         25    1    1    2    0    0 -0.45790770823E+02 -0.10070676184E+03 -0.13088633447E+04  0.13190003418E+04  0.12000000000E+03 0.  0.
<mgrwt>
<rscale>  0 0.33320203E+03</rscale>
<asrwt>0</asrwt>
<pdfrwt beam="1">  1        2 0.33672877E+00 0.33320203E+03</pdfrwt>
<pdfrwt beam="2">  1       -2 0.19509599E-02 0.33320203E+03</pdfrwt>
<totfact> 0.47284424E+03</totfact>
</mgrwt>
</event>
<event>
 4    1  0.1749575E-004  0.2862569E+03  0.7818608E-02  0.1092320E+00
          2   -1    0    0  501    0  0.00000000000E+00  0.00000000000E+00  0.35949007114E+02  0.35949007114E+02  0.00000000000E+00 0.  1.
         -2   -1    0    0    0  501 -0.00000000000E+00 -0.00000000000E+00 -0.56985605567E+03  0.56985605567E+03  0.00000000000E+00 0.  1.
         25    1    1    2    0    0  0.44532117546E+02  0.17508253253E+02 -0.13656291372E+03  0.18798690867E+03  0.12000000000E+03 0.  0.
         25    1    1    2    0    0 -0.44532117546E+02 -0.17508253253E+02 -0.39734413484E+03  0.41781815412E+03  0.12000000000E+03 0.  0.
<mgrwt>
<rscale>  0 0.28625694E+03</rscale>
<asrwt>0</asrwt>
<pdfrwt beam="1">  1        2 0.55306166E-02 0.28625694E+03</pdfrwt>
<pdfrwt beam="2">  1       -2 0.87670160E-01 0.28625694E+03</pdfrwt>
<totfact> 0.15960519E+03</totfact>
</mgrwt>
</event>
<event>
 4    1  0.1749575E-004  0.2687904E+03  0.7818608E-02  0.1101974E+00
         -2   -1    0    0    0  501 -0.00000000000E+00  0.00000000000E+00  0.10198480405E+02  0.10198480405E+02  0.00000000000E+00 0.  1.
          2   -1    0    0  501    0  0.00000000000E+00 -0.00000000000E+00 -0.17710551393E+04  0.17710551393E+04  0.00000000000E+00 0.  1.
         25    1    1    2    0    0 -0.11069746499E+02  0.47468169976E+02 -0.11181035557E+04  0.11255804404E+04  0.12000000000E+03 0.  0.
         25    1    1    2    0    0  0.11069746499E+02 -0.47468169976E+02 -0.64275310321E+03  0.65567317937E+03  0.12000000000E+03 0.  0.
<mgrwt>
<rscale>  0 0.26879041E+03</rscale>
<asrwt>0</asrwt>
<pdfrwt beam="1">  1        2 0.27246983E+00 0.26879041E+03</pdfrwt>
<pdfrwt beam="2">  1       -2 0.15689981E-02 0.26879041E+03</pdfrwt>
<totfact> 0.10821069E+04</totfact>
</mgrwt>
</event>
<event>
 4    1  0.1749575E-004  0.3524450E+03  0.7818608E-02  0.1061616E+00
         -2   -1    0    0    0  501 -0.00000000000E+00  0.00000000000E+00  0.55399325503E+02  0.55399325503E+02  0.00000000000E+00 0.  1.
          2   -1    0    0  501    0  0.00000000000E+00 -0.00000000000E+00 -0.56055495655E+03  0.56055495655E+03  0.00000000000E+00 0.  1.
         25    1    1    2    0    0  0.78278422303E+02 -0.38588418464E+02 -0.86432444301E+02  0.17171821355E+03  0.12000000000E+03 0.  0.
         25    1    1    2    0    0 -0.78278422303E+02  0.38588418464E+02 -0.41872318674E+03  0.44423606850E+03  0.12000000000E+03 0.  0.
<mgrwt>
<rscale>  0 0.35244498E+03</rscale>
<asrwt>0</asrwt>
<pdfrwt beam="1">  1        2 0.86239221E-01 0.35244498E+03</pdfrwt>
<pdfrwt beam="2">  1       -2 0.85229734E-02 0.35244498E+03</pdfrwt>
<totfact> 0.46925195E+03</totfact>
</mgrwt>
</event>
<event>
 4    1  0.1749575E-004  0.4664513E+03  0.7818608E-02  0.1022927E+00
         -2   -1    0    0    0  501 -0.00000000000E+00  0.00000000000E+00  0.36793179450E+03  0.36793179450E+03  0.00000000000E+00 0. -1.
          2   -1    0    0  501    0  0.00000000000E+00 -0.00000000000E+00 -0.14783771760E+03  0.14783771760E+03  0.00000000000E+00 0. -1.
         25    1    1    2    0    0 -0.80848461002E+02  0.20712440290E+02 -0.90906309055E+02  0.17213203030E+03  0.12000000000E+03 0.  0.
         25    1    1    2    0    0  0.80848461002E+02 -0.20712440290E+02  0.31100038596E+03  0.34363748180E+03  0.12000000000E+03 0.  0.
<mgrwt>
<rscale>  0 0.46645127E+03</rscale>
<asrwt>0</asrwt>
<pdfrwt beam="1">  1        2 0.22744264E-01 0.46645127E+03</pdfrwt>
<pdfrwt beam="2">  1       -2 0.56604891E-01 0.46645127E+03</pdfrwt>
<totfact> 0.71935831E+02</totfact>
</mgrwt>
</event>
<event>
 4    1  0.1749575E-004  0.2499738E+03  0.7818608E-02  0.1113321E+00
          1   -1    0    0  501    0  0.00000000000E+00  0.00000000000E+00  0.20684559571E+03  0.20684559571E+03  0.00000000000E+00 0.  1.
         -1   -1    0    0    0  501 -0.00000000000E+00 -0.00000000000E+00 -0.75523627474E+02  0.75523627474E+02  0.00000000000E+00 0.  1.
         25    1    1    2    0    0  0.30370555842E+02  0.59628253718E+01  0.84007909717E+02  0.14971724965E+03  0.12000000000E+03 0.  0.
         25    1    1    2    0    0 -0.30370555842E+02 -0.59628253718E+01  0.47314058520E+02  0.13265197353E+03  0.12000000000E+03 0.  0.
<mgrwt>
<rscale>  0 0.24997384E+03</rscale>
<asrwt>0</asrwt>
<pdfrwt beam="1">  1        1 0.31822399E-01 0.24997384E+03</pdfrwt>
<pdfrwt beam="2">  1       -1 0.11619020E-01 0.24997384E+03</pdfrwt>
<totfact> 0.66828573E+03</totfact>
</mgrwt>
</event>
<event>
 4    1  0.1749575E-004  0.3203603E+03  0.7818608E-02  0.1075484E+00
         -2   -1    0    0    0  501 -0.00000000000E+00  0.00000000000E+00  0.11706633354E+02  0.11706633354E+02  0.00000000000E+00 0. -1.
          2   -1    0    0  501    0  0.00000000000E+00 -0.00000000000E+00 -0.21917216217E+04  0.21917216217E+04  0.00000000000E+00 0. -1.
         25    1    1    2    0    0  0.72312350413E+02  0.56769194636E+02 -0.72567868069E+03  0.74125661217E+03  0.12000000000E+03 0.  0.
         25    1    1    2    0    0 -0.72312350413E+02 -0.56769194636E+02 -0.14543363077E+04  0.14621716429E+04  0.12000000000E+03 0.  0.
<mgrwt>
<rscale>  0 0.32036031E+03</rscale>
<asrwt>0</asrwt>
<pdfrwt beam="1">  1        2 0.33718802E+00 0.32036031E+03</pdfrwt>
<pdfrwt beam="2">  1       -2 0.18010201E-02 0.32036031E+03</pdfrwt>
<totfact> 0.53034286E+03</totfact>
</mgrwt>
</event>
<event>
 4    1  0.1749575E-004  0.2665403E+03  0.7818608E-02  0.1103276E+00
         -2   -1    0    0    0  501 -0.00000000000E+00  0.00000000000E+00  0.21434072215E+02  0.21434072215E+02  0.00000000000E+00 0. -1.
          2   -1    0    0  501    0  0.00000000000E+00 -0.00000000000E+00 -0.82863063203E+03  0.82863063203E+03  0.00000000000E+00 0. -1.
         25    1    1    2    0    0 -0.48822840145E+02 -0.29873229732E+02 -0.37422089660E+03  0.39713644888E+03  0.12000000000E+03 0.  0.
         25    1    1    2    0    0  0.48822840145E+02  0.29873229732E+02 -0.43297566321E+03  0.45292825537E+03  0.12000000000E+03 0.  0.
<mgrwt>
<rscale>  0 0.26654027E+03</rscale>
<asrwt>0</asrwt>
<pdfrwt beam="1">  1        2 0.12748162E+00 0.26654027E+03</pdfrwt>
<pdfrwt beam="2">  1       -2 0.32975501E-02 0.26654027E+03</pdfrwt>
<totfact> 0.12400451E+04</totfact>
</mgrwt>
</event>
<event>
 4    1  0.1749575E-004  0.3045080E+03  0.7818608E-02  0.1083009E+00
          2   -1    0    0  501    0  0.00000000000E+00  0.00000000000E+00  0.32275902580E+04  0.32275902580E+04  0.00000000000E+00 0.  1.
         -2   -1    0    0    0  501 -0.00000000000E+00 -0.00000000000E+00 -0.71822260487E+01  0.71822260487E+01  0.00000000000E+00 0.  1.
         25    1    1    2    0    0 -0.61564803163E+01 -0.70533061878E+02  0.95808417546E+03  0.96816222935E+03  0.12000000000E+03 0.  0.
         25    1    1    2    0    0  0.61564803163E+01  0.70533061878E+02  0.22623238564E+04  0.22666102547E+04  0.12000000000E+03 0.  0.
<mgrwt>
<rscale>  0 0.30450802E+03</rscale>
<asrwt>0</asrwt>
<pdfrwt beam="1">  1        2 0.49655119E+00 0.30450802E+03</pdfrwt>
<pdfrwt beam="2">  1       -2 0.11049604E-02 0.30450802E+03</pdfrwt>
<totfact> 0.27864780E+03</totfact>
</mgrwt>
</event>
<event>
 4    1  0.1749575E-004  0.2814691E+03  0.7818608E-02  0.1094889E+00
          2   -1    0    0  501    0  0.00000000000E+00  0.00000000000E+00  0.10107177097E+04  0.10107177097E+04  0.00000000000E+00 0. -1.
         -2   -1    0    0    0  501 -0.00000000000E+00 -0.00000000000E+00 -0.19596187760E+02  0.19596187760E+02  0.00000000000E+00 0. -1.
         25    1    1    2    0    0  0.64464849541E+02  0.35222876981E+02  0.50704683055E+03  0.52620609675E+03  0.12000000000E+03 0.  0.
         25    1    1    2    0    0 -0.64464849541E+02 -0.35222876981E+02  0.48407469139E+03  0.50410780071E+03  0.12000000000E+03 0.  0.
<mgrwt>
<rscale>  0 0.28146910E+03</rscale>
<asrwt>0</asrwt>
<pdfrwt beam="1">  1        2 0.15549499E+00 0.28146910E+03</pdfrwt>
<pdfrwt beam="2">  1       -2 0.30147989E-02 0.28146910E+03</pdfrwt>
<totfact> 0.10857290E+04</totfact>
</mgrwt>
</event>
<event>
 4    1  0.1749575E-004  0.3592031E+03  0.7818608E-02  0.1058900E+00
          1   -1    0    0  501    0  0.00000000000E+00  0.00000000000E+00  0.21478983969E+04  0.21478983969E+04  0.00000000000E+00 0. -1.
         -1   -1    0    0    0  501 -0.00000000000E+00 -0.00000000000E+00 -0.15017807930E+02  0.15017807930E+02  0.00000000000E+00 0. -1.
         25    1    1    2    0    0 -0.87701127805E+02  0.17486581659E+02  0.16643368653E+04  0.16710519051E+04  0.12000000000E+03 0.  0.
         25    1    1    2    0    0  0.87701127805E+02 -0.17486581659E+02  0.46854372371E+03  0.49186429977E+03  0.12000000000E+03 0.  0.
<mgrwt>
<rscale>  0 0.35920315E+03</rscale>
<asrwt>0</asrwt>
<pdfrwt beam="1">  1        1 0.33044566E+00 0.35920315E+03</pdfrwt>
<pdfrwt beam="2">  1       -1 0.23104337E-02 0.35920315E+03</pdfrwt>
<totfact> 0.14903726E+03</totfact>
</mgrwt>
</event>
<event>
 4    1  0.1749575E-004  0.3124472E+03  0.7818608E-02  0.1079179E+00
          4   -1    0    0  501    0  0.00000000000E+00  0.00000000000E+00  0.14517095072E+03  0.14517095072E+03  0.00000000000E+00 0. -1.
         -4   -1    0    0    0  501 -0.00000000000E+00 -0.00000000000E+00 -0.16811771569E+03  0.16811771569E+03  0.00000000000E+00 0. -1.
         25    1    1    2    0    0 -0.50457167456E+02 -0.40542252180E+02  0.64996086965E+02  0.15104334239E+03  0.12000000000E+03 0.  0.
         25    1    1    2    0    0  0.50457167456E+02  0.40542252180E+02 -0.87942851931E+02  0.16224532402E+03  0.12000000000E+03 0.  0.
<mgrwt>
<rscale>  0 0.31244717E+03</rscale>
<asrwt>0</asrwt>
<pdfrwt beam="1">  1        4 0.22333992E-01 0.31244717E+03</pdfrwt>
<pdfrwt beam="2">  1       -4 0.25864264E-01 0.31244717E+03</pdfrwt>
<totfact> 0.49390639E+02</totfact>
</mgrwt>
</event>
<event>
 4    1  0.1749575E-004  0.2592419E+03  0.7818608E-02  0.1107600E+00
         -2   -1    0    0    0  501 -0.00000000000E+00  0.00000000000E+00  0.11991898944E+03  0.11991898944E+03  0.00000000000E+00 0.  1.
          2   -1    0    0  501    0  0.00000000000E+00 -0.00000000000E+00 -0.14010784004E+03  0.14010784004E+03  0.00000000000E+00 0.  1.
         25    1    1    2    0    0 -0.15877067223E+02 -0.44609084206E+02  0.25746905731E+01  0.12902976668E+03  0.12000000000E+03 0.  0.
         25    1    1    2    0    0  0.15877067223E+02  0.44609084206E+02 -0.22763541174E+02  0.13099706281E+03  0.12000000000E+03 0.  0.
<mgrwt>
<rscale>  0 0.25924190E+03</rscale>
<asrwt>0</asrwt>
<pdfrwt beam="1">  1        2 0.21555052E-01 0.25924190E+03</pdfrwt>
<pdfrwt beam="2">  1       -2 0.18449075E-01 0.25924190E+03</pdfrwt>
<totfact> 0.60827195E+03</totfact>
</mgrwt>
</event>
<event>
 4    1  0.1749575E-004  0.2461604E+03  0.7818608E-02  0.1115756E+00
         -1   -1    0    0    0  501 -0.00000000000E+00  0.00000000000E+00  0.10082652509E+03  0.10082652509E+03  0.00000000000E+00 0. -1.
          1   -1    0    0  501    0  0.00000000000E+00 -0.00000000000E+00 -0.15024553733E+03  0.15024553733E+03  0.00000000000E+00 0. -1.
         25    1    1    2    0    0  0.23256730535E+01 -0.20829376845E+01  0.30172404706E+01  0.12007852066E+03  0.12000000000E+03 0.  0.
         25    1    1    2    0    0 -0.23256730535E+01  0.20829376845E+01 -0.52436252706E+02  0.13099354176E+03  0.12000000000E+03 0.  0.
<mgrwt>
<rscale>  0 0.24616040E+03</rscale>
<asrwt>0</asrwt>
<pdfrwt beam="1">  1        1 0.23114698E-01 0.24616040E+03</pdfrwt>
<pdfrwt beam="2">  1       -1 0.15511773E-01 0.24616040E+03</pdfrwt>
<totfact> 0.63557070E+03</totfact>
</mgrwt>
</event>
<event>
 4    1  0.1749575E-004  0.3024851E+03  0.7818608E-02  0.1084005E+00
         -3   -1    0    0    0  501 -0.00000000000E+00  0.00000000000E+00  0.71154262865E+02  0.71154262865E+02  0.00000000000E+00 0.  1.
          3   -1    0    0  501    0  0.00000000000E+00 -0.00000000000E+00 -0.32147497957E+03  0.32147497957E+03  0.00000000000E+00 0.  1.
         25    1    1    2    0    0 -0.25265515080E+02  0.88327379779E+02 -0.13275599282E+03  0.20115721688E+03  0.12000000000E+03 0.  0.
         25    1    1    2    0    0  0.25265515080E+02 -0.88327379779E+02 -0.11756472388E+03  0.19147202556E+03  0.12000000000E+03 0.  0.
<mgrwt>
<rscale>  0 0.30248514E+03</rscale>
<asrwt>0</asrwt>
<pdfrwt beam="1">  1        3 0.49457690E-01 0.30248514E+03</pdfrwt>
<pdfrwt beam="2">  1       -3 0.10946809E-01 0.30248514E+03</pdfrwt>
<totfact> 0.66431637E+02</totfact>
</mgrwt>
</event>
<event>
 4    1  0.1749575E-004  0.2585318E+03  0.7818608E-02  0.1108029E+00
         -2   -1    0    0    0  501 -0.00000000000E+00  0.00000000000E+00  0.75284780089E+02  0.75284780089E+02  0.00000000000E+00 0. -1.
          2   -1    0    0  501    0  0.00000000000E+00 -0.00000000000E+00 -0.22195291137E+03  0.22195291137E+03  0.00000000000E+00 0. -1.
         25    1    1    2    0    0 -0.23405180475E+01  0.22285843044E+02 -0.24453779236E+02  0.12449949455E+03  0.12000000000E+03 0.  0.
         25    1    1    2    0    0  0.23405180475E+01 -0.22285843044E+02 -0.12221435205E+03  0.17273819691E+03  0.12000000000E+03 0.  0.
<mgrwt>
<rscale>  0 0.25853182E+03</rscale>
<asrwt>0</asrwt>
<pdfrwt beam="1">  1        2 0.34146602E-01 0.25853182E+03</pdfrwt>
<pdfrwt beam="2">  1       -2 0.11582274E-01 0.25853182E+03</pdfrwt>
<totfact> 0.78650828E+03</totfact>
</mgrwt>
</event>
<event>
 4    1  0.1749575E-004  0.3387218E+03  0.7818608E-02  0.1067342E+00
         -3   -1    0    0    0  501 -0.00000000000E+00  0.00000000000E+00  0.42814085451E+02  0.42814085451E+02  0.00000000000E+00 0.  1.
          3   -1    0    0  501    0  0.00000000000E+00 -0.00000000000E+00 -0.66994556765E+03  0.66994556765E+03  0.00000000000E+00 0.  1.
         25    1    1    2    0    0 -0.10161832342E+03  0.59867578048E+02 -0.35418925755E+03  0.39212299182E+03  0.12000000000E+03 0.  0.
         25    1    1    2    0    0  0.10161832342E+03 -0.59867578048E+02 -0.27294222465E+03  0.32063666127E+03  0.12000000000E+03 0.  0.
<mgrwt>
<rscale>  0 0.33872175E+03</rscale>
<asrwt>0</asrwt>
<pdfrwt beam="1">  1        3 0.10306855E+00 0.33872175E+03</pdfrwt>
<pdfrwt beam="2">  1       -3 0.65867824E-02 0.33872175E+03</pdfrwt>
<totfact> 0.31906578E+02</totfact>
</mgrwt>
</event>
<event>
 4    1  0.1749575E-004  0.3356945E+03  0.7818608E-02  0.1068645E+00
         -1   -1    0    0    0  501 -0.00000000000E+00  0.00000000000E+00  0.23849054180E+02  0.23849054180E+02  0.00000000000E+00 0.  1.
          1   -1    0    0  501    0  0.00000000000E+00 -0.00000000000E+00 -0.11812918066E+04  0.11812918066E+04  0.00000000000E+00 0.  1.
         25    1    1    2    0    0  0.93585027695E+02 -0.69915295600E+02 -0.61908068249E+03  0.64133236111E+03  0.12000000000E+03 0.  0.
         25    1    1    2    0    0 -0.93585027695E+02  0.69915295600E+02 -0.53836206991E+03  0.56380849966E+03  0.12000000000E+03 0.  0.
<mgrwt>
<rscale>  0 0.33569446E+03</rscale>
<asrwt>0</asrwt>
<pdfrwt beam="1">  1        1 0.18173718E+00 0.33569446E+03</pdfrwt>
<pdfrwt beam="2">  1       -1 0.36690857E-02 0.33569446E+03</pdfrwt>
<totfact> 0.33088955E+03</totfact>
</mgrwt>
</event>
<event>
 4    1  0.1749575E-004  0.2785632E+03  0.7818608E-02  0.1096476E+00
          3   -1    0    0  501    0  0.00000000000E+00  0.00000000000E+00  0.22187104329E+02  0.22187104329E+02  0.00000000000E+00 0. -1.
         -3   -1    0    0    0  501 -0.00000000000E+00 -0.00000000000E+00 -0.87435313202E+03  0.87435313202E+03  0.00000000000E+00 0. -1.
         25    1    1    2    0    0 -0.31372041865E+02  0.13946949316E+02 -0.22714663856E+03  0.25918008761E+03  0.12000000000E+03 0.  0.
         25    1    1    2    0    0  0.31372041865E+02 -0.13946949316E+02 -0.62501938914E+03  0.63736014874E+03  0.12000000000E+03 0.  0.
<mgrwt>
<rscale>  0 0.27856320E+03</rscale>
<asrwt>0</asrwt>
<pdfrwt beam="1">  1        3 0.34134009E-02 0.27856320E+03</pdfrwt>
<pdfrwt beam="2">  1       -3 0.13451586E+00 0.27856320E+03</pdfrwt>
<totfact> 0.47418789E+02</totfact>
</mgrwt>
</event>
<event>
 4    1  0.1749575E-004  0.2436355E+03  0.7818608E-02  0.1117394E+00
         -1   -1    0    0    0  501 -0.00000000000E+00  0.00000000000E+00  0.22861240436E+03  0.22861240436E+03  0.00000000000E+00 0.  1.
          1   -1    0    0  501    0  0.00000000000E+00 -0.00000000000E+00 -0.64911444834E+02  0.64911444834E+02  0.00000000000E+00 0.  1.
         25    1    1    2    0    0 -0.60265777889E+00  0.54372119208E+01  0.10623428020E+03  0.16036099513E+03  0.12000000000E+03 0.  0.
         25    1    1    2    0    0  0.60265777889E+00 -0.54372119208E+01  0.57466679330E+02  0.13316285407E+03  0.12000000000E+03 0.  0.
<mgrwt>
<rscale>  0 0.24363548E+03</rscale>
<asrwt>0</asrwt>
<pdfrwt beam="1">  1        1 0.99863762E-02 0.24363548E+03</pdfrwt>
<pdfrwt beam="2">  1       -1 0.35171139E-01 0.24363548E+03</pdfrwt>
<totfact> 0.49238456E+03</totfact>
</mgrwt>
</event>
<event>
 4    1  0.1749575E-004  0.2859083E+03  0.7818608E-02  0.1092505E+00
          1   -1    0    0  501    0  0.00000000000E+00  0.00000000000E+00  0.16842798436E+04  0.16842798436E+04  0.00000000000E+00 0. -1.
         -1   -1    0    0    0  501 -0.00000000000E+00 -0.00000000000E+00 -0.12133307902E+02  0.12133307902E+02  0.00000000000E+00 0. -1.
         25    1    1    2    0    0  0.28171011490E+02  0.52113730320E+02  0.53783777858E+03  0.55423724419E+03  0.12000000000E+03 0.  0.
         25    1    1    2    0    0 -0.28171011490E+02 -0.52113730320E+02  0.11343087571E+04  0.11421759073E+04  0.12000000000E+03 0.  0.
<mgrwt>
<rscale>  0 0.28590828E+03</rscale>
<asrwt>0</asrwt>
<pdfrwt beam="1">  1        1 0.25911979E+00 0.28590828E+03</pdfrwt>
<pdfrwt beam="2">  1       -1 0.18666641E-02 0.28590828E+03</pdfrwt>
<totfact> 0.41068585E+03</totfact>
</mgrwt>
</event>
<event>
 4    1  0.1749575E-004  0.2505501E+03  0.7818608E-02  0.1112958E+00
          2   -1    0    0  501    0  0.00000000000E+00  0.00000000000E+00  0.26127485933E+02  0.26127485933E+02  0.00000000000E+00 0. -1.
         -2   -1    0    0    0  501 -0.00000000000E+00 -0.00000000000E+00 -0.60066369117E+03  0.60066369117E+03  0.00000000000E+00 0. -1.
         25    1    1    2    0    0 -0.23913368771E+02 -0.82069252415E+01 -0.35127490060E+03  0.37206620193E+03  0.12000000000E+03 0.  0.
         25    1    1    2    0    0  0.23913368771E+02  0.82069252415E+01 -0.22326130464E+03  0.25472497517E+03  0.12000000000E+03 0.  0.
<mgrwt>
<rscale>  0 0.25055005E+03</rscale>
<asrwt>0</asrwt>
<pdfrwt beam="1">  1        2 0.40196132E-02 0.25055005E+03</pdfrwt>
<pdfrwt beam="2">  1       -2 0.92409798E-01 0.25055005E+03</pdfrwt>
<totfact> 0.21549947E+03</totfact>
</mgrwt>
</event>
<event>
 4    1  0.1749575E-004  0.2464548E+03  0.7818608E-02  0.1115566E+00
         -2   -1    0    0    0  501 -0.00000000000E+00  0.00000000000E+00  0.13554149240E+02  0.13554149240E+02  0.00000000000E+00 0. -1.
          2   -1    0    0  501    0  0.00000000000E+00 -0.00000000000E+00 -0.11203206167E+04  0.11203206167E+04  0.00000000000E+00 0. -1.
         25    1    1    2    0    0  0.24155482267E+02  0.90772618653E+01 -0.50317212906E+03  0.51792670859E+03  0.12000000000E+03 0.  0.
         25    1    1    2    0    0 -0.24155482267E+02 -0.90772618653E+01 -0.60359433836E+03  0.61594805731E+03  0.12000000000E+03 0.  0.
<mgrwt>
<rscale>  0 0.24645481E+03</rscale>
<asrwt>0</asrwt>
<pdfrwt beam="1">  1        2 0.17235702E+00 0.24645481E+03</pdfrwt>
<pdfrwt beam="2">  1       -2 0.20852537E-02 0.24645481E+03</pdfrwt>
<totfact> 0.16044483E+04</totfact>
</mgrwt>
</event>
<event>
 4    1  0.1749575E-004  0.2925044E+03  0.7818608E-02  0.1089049E+00
          2   -1    0    0  501    0  0.00000000000E+00  0.00000000000E+00  0.36329059116E+03  0.36329059116E+03  0.00000000000E+00 0.  1.
         -2   -1    0    0    0  501 -0.00000000000E+00 -0.00000000000E+00 -0.58877685190E+02  0.58877685190E+02  0.00000000000E+00 0.  1.
         25    1    1    2    0    0 -0.66450395560E+01  0.76443663235E+02  0.10429625462E+03  0.17653752838E+03  0.12000000000E+03 0.  0.
         25    1    1    2    0    0  0.66450395560E+01 -0.76443663235E+02  0.20011665135E+03  0.24563074797E+03  0.12000000000E+03 0.  0.
<mgrwt>
<rscale>  0 0.29250442E+03</rscale>
<asrwt>0</asrwt>
<pdfrwt beam="1">  1        2 0.55890859E-01 0.29250442E+03</pdfrwt>
<pdfrwt beam="2">  1       -2 0.90581056E-02 0.29250442E+03</pdfrwt>
<totfact> 0.68686413E+03</totfact>
</mgrwt>
</event>
<event>
 4    1  0.1749575E-004  0.2946892E+03  0.7818608E-02  0.1087926E+00
         -2   -1    0    0    0  501 -0.00000000000E+00  0.00000000000E+00  0.36141108060E+03  0.36141108060E+03  0.00000000000E+00 0.  1.
          2   -1    0    0  501    0  0.00000000000E+00 -0.00000000000E+00 -0.60071301058E+02  0.60071301058E+02  0.00000000000E+00 0.  1.
         25    1    1    2    0    0  0.91742242026E+01  0.28564481462E+02  0.36156666810E+02  0.12886970375E+03  0.12000000000E+03 0.  0.
         25    1    1    2    0    0 -0.91742242026E+01 -0.28564481462E+02  0.26518311273E+03  0.29261267790E+03  0.12000000000E+03 0.  0.
<mgrwt>
<rscale>  0 0.29468922E+03</rscale>
<asrwt>0</asrwt>
<pdfrwt beam="1">  1        2 0.92417388E-02 0.29468922E+03</pdfrwt>
<pdfrwt beam="2">  1       -2 0.55601703E-01 0.29468922E+03</pdfrwt>
<totfact> 0.21905981E+03</totfact>
</mgrwt>
</event>
<event>
 4    1  0.1749575E-004  0.2483056E+03  0.7818608E-02  0.1114380E+00
         -2   -1    0    0    0  501 -0.00000000000E+00  0.00000000000E+00  0.77269937962E+01  0.77269937962E+01  0.00000000000E+00 0. -1.
          2   -1    0    0  501    0  0.00000000000E+00 -0.00000000000E+00 -0.19948151014E+04  0.19948151014E+04  0.00000000000E+00 0. -1.
         25    1    1    2    0    0  0.13061697261E+02  0.27817720622E+02 -0.92631493033E+03  0.93456074370E+03  0.12000000000E+03 0.  0.
         25    1    1    2    0    0 -0.13061697261E+02 -0.27817720622E+02 -0.10607731772E+04  0.10679813515E+04  0.12000000000E+03 0.  0.
<mgrwt>
<rscale>  0 0.24830565E+03</rscale>
<asrwt>0</asrwt>
<pdfrwt beam="1">  1        2 0.30689453E+00 0.24830565E+03</pdfrwt>
<pdfrwt beam="2">  1       -2 0.11887687E-02 0.24830565E+03</pdfrwt>
<totfact> 0.12363309E+04</totfact>
</mgrwt>
</event>
<event>
 4    1  0.1749575E-004  0.3329475E+03  0.7818608E-02  0.1069840E+00
         -2   -1    0    0    0  501 -0.00000000000E+00  0.00000000000E+00  0.22354200131E+02  0.22354200131E+02  0.00000000000E+00 0. -1.
          2   -1    0    0  501    0  0.00000000000E+00 -0.00000000000E+00 -0.12397453981E+04  0.12397453981E+04  0.00000000000E+00 0. -1.
         25    1    1    2    0    0  0.72811110733E+02  0.72939542337E+02 -0.41202210786E+03  0.44134323610E+03  0.12000000000E+03 0.  0.
         25    1    1    2    0    0 -0.72811110733E+02 -0.72939542337E+02 -0.80536909010E+03  0.82075636212E+03  0.12000000000E+03 0.  0.
<mgrwt>
<rscale>  0 0.33294754E+03</rscale>
<asrwt>0</asrwt>
<pdfrwt beam="1">  1        2 0.19073008E+00 0.33294754E+03</pdfrwt>
<pdfrwt beam="2">  1       -2 0.34391074E-02 0.33294754E+03</pdfrwt>
<totfact> 0.65682487E+03</totfact>
</mgrwt>
</event>
<event>
 4    1  0.1749575E-004  0.2713195E+03  0.7818608E-02  0.1100527E+00
         -1   -1    0    0    0  501 -0.00000000000E+00  0.00000000000E+00  0.19444934560E+02  0.19444934560E+02  0.00000000000E+00 0. -1.
          1   -1    0    0  501    0  0.00000000000E+00 -0.00000000000E+00 -0.94644514768E+03  0.94644514768E+03  0.00000000000E+00 0. -1.
         25    1    1    2    0    0 -0.62803493176E+02 -0.57925150785E+01 -0.44544153859E+03  0.46561356970E+03  0.12000000000E+03 0.  0.
         25    1    1    2    0    0  0.62803493176E+02  0.57925150785E+01 -0.48155867453E+03  0.50027651254E+03  0.12000000000E+03 0.  0.
<mgrwt>
<rscale>  0 0.27131947E+03</rscale>
<asrwt>0</asrwt>
<pdfrwt beam="1">  1        1 0.14560697E+00 0.27131947E+03</pdfrwt>
<pdfrwt beam="2">  1       -1 0.29915278E-02 0.27131947E+03</pdfrwt>
<totfact> 0.66446683E+03</totfact>
</mgrwt>
</event>
<event>
 4    1  0.1749575E-004  0.3758974E+03  0.7818608E-02  0.1052461E+00
          2   -1    0    0  501    0  0.00000000000E+00  0.00000000000E+00  0.11317266190E+04  0.11317266190E+04  0.00000000000E+00 0. -1.
         -2   -1    0    0    0  501 -0.00000000000E+00 -0.00000000000E+00 -0.31213116986E+02  0.31213116986E+02  0.00000000000E+00 0. -1.
         25    1    1    2    0    0 -0.61765705408E+02 -0.93068856115E+02  0.26590082265E+03  0.31237807514E+03  0.12000000000E+03 0.  0.
         25    1    1    2    0    0  0.61765705408E+02  0.93068856115E+02  0.83461267934E+03  0.85056166082E+03  0.12000000000E+03 0.  0.
<mgrwt>
<rscale>  0 0.37589741E+03</rscale>
<asrwt>0</asrwt>
<pdfrwt beam="1">  1        2 0.17411176E+00 0.37589741E+03</pdfrwt>
<pdfrwt beam="2">  1       -2 0.48020189E-02 0.37589741E+03</pdfrwt>
<totfact> 0.45760043E+03</totfact>
</mgrwt>
</event>
<event>
 4    1  0.1749575E-004  0.3179334E+03  0.7818608E-02  0.1076604E+00
         -2   -1    0    0    0  501 -0.00000000000E+00  0.00000000000E+00  0.96336693984E+02  0.96336693984E+02  0.00000000000E+00 0.  1.
          2   -1    0    0  501    0  0.00000000000E+00 -0.00000000000E+00 -0.26231338276E+03  0.26231338276E+03  0.00000000000E+00 0.  1.
         25    1    1    2    0    0 -0.60855824117E+02 -0.82612841874E+02 -0.10385273640E+03  0.18898069697E+03  0.12000000000E+03 0.  0.
         25    1    1    2    0    0  0.60855824117E+02  0.82612841874E+02 -0.62123952375E+02  0.16966937977E+03  0.12000000000E+03 0.  0.
<mgrwt>
<rscale>  0 0.31793335E+03</rscale>
<asrwt>0</asrwt>
<pdfrwt beam="1">  1        2 0.40355905E-01 0.31793335E+03</pdfrwt>
<pdfrwt beam="2">  1       -2 0.14821030E-01 0.31793335E+03</pdfrwt>
<totfact> 0.44197280E+03</totfact>
</mgrwt>
</event>
<event>
 4    1  0.1749575E-004  0.2466944E+03  0.7818608E-02  0.1115412E+00
          1   -1    0    0  501    0  0.00000000000E+00  0.00000000000E+00  0.17686824261E+04  0.17686824261E+04  0.00000000000E+00 0. -1.
         -1   -1    0    0    0  501 -0.00000000000E+00 -0.00000000000E+00 -0.86021865904E+01  0.86021865904E+01  0.00000000000E+00 0. -1.
         25    1    1    2    0    0 -0.15686608181E+02 -0.84998898759E+01  0.71955525626E+03  0.72971095964E+03  0.12000000000E+03 0.  0.
         25    1    1    2    0    0  0.15686608181E+02  0.84998898759E+01  0.10405249833E+04  0.10475736531E+04  0.12000000000E+03 0.  0.
<mgrwt>
<rscale>  0 0.24669444E+03</rscale>
<asrwt>0</asrwt>
<pdfrwt beam="1">  1        1 0.27210470E+00 0.24669444E+03</pdfrwt>
<pdfrwt beam="2">  1       -1 0.13234147E-02 0.24669444E+03</pdfrwt>
<totfact> 0.59638590E+03</totfact>
</mgrwt>
</event>
<event>
 4    1  0.1749575E-004  0.3149874E+03  0.7818608E-02  0.1077980E+00
          2   -1    0    0  501    0  0.00000000000E+00  0.00000000000E+00  0.15928661298E+03  0.15928661298E+03  0.00000000000E+00 0.  1.
         -2   -1    0    0    0  501 -0.00000000000E+00 -0.00000000000E+00 -0.15572092229E+03  0.15572092229E+03  0.00000000000E+00 0.  1.
         25    1    1    2    0    0  0.44019823080E+02 -0.80098309505E+02  0.47071222085E+02  0.15801640408E+03  0.12000000000E+03 0.  0.
         25    1    1    2    0    0 -0.44019823080E+02  0.80098309505E+02 -0.43505531404E+02  0.15699113119E+03  0.12000000000E+03 0.  0.
<mgrwt>
<rscale>  0 0.31498735E+03</rscale>
<asrwt>0</asrwt>
<pdfrwt beam="1">  1        2 0.24505633E-01 0.31498735E+03</pdfrwt>
<pdfrwt beam="2">  1       -2 0.23957065E-01 0.31498735E+03</pdfrwt>
<totfact> 0.33748011E+03</totfact>
</mgrwt>
</event>
<event>
 4    1  0.1749575E-004  0.2450537E+03  0.7818608E-02  0.1116471E+00
         -1   -1    0    0    0  501 -0.00000000000E+00  0.00000000000E+00  0.11129825837E+04  0.11129825837E+04  0.00000000000E+00 0. -1.
          1   -1    0    0  501    0  0.00000000000E+00 -0.00000000000E+00 -0.13488828725E+02  0.13488828725E+02  0.00000000000E+00 0. -1.
         25    1    1    2    0    0  0.80139401897E+01 -0.23407923286E+02  0.54596366669E+03  0.55954309883E+03  0.12000000000E+03 0.  0.
         25    1    1    2    0    0 -0.80139401897E+01  0.23407923286E+02  0.55353008826E+03  0.56692831356E+03  0.12000000000E+03 0.  0.
<mgrwt>
<rscale>  0 0.24505372E+03</rscale>
<asrwt>0</asrwt>
<pdfrwt beam="1">  1        1 0.20752053E-02 0.24505372E+03</pdfrwt>
<pdfrwt beam="2">  1       -1 0.17122802E+00 0.24505372E+03</pdfrwt>
<totfact> 0.15089119E+03</totfact>
</mgrwt>
</event>
<event>
 4    1  0.1749575E-004  0.2721585E+03  0.7818608E-02  0.1100051E+00
          1   -1    0    0  501    0  0.00000000000E+00  0.00000000000E+00  0.55605533264E+03  0.55605533264E+03  0.00000000000E+00 0. -1.
         -1   -1    0    0    0  501 -0.00000000000E+00 -0.00000000000E+00 -0.33301656852E+02  0.33301656852E+02  0.00000000000E+00 0. -1.
         25    1    1    2    0    0 -0.79223894256E+00 -0.52646107023E+02  0.18194951850E+03  0.22422726755E+03  0.12000000000E+03 0.  0.
         25    1    1    2    0    0  0.79223894256E+00  0.52646107023E+02  0.34080415729E+03  0.36512972195E+03  0.12000000000E+03 0.  0.
<mgrwt>
<rscale>  0 0.27215851E+03</rscale>
<asrwt>0</asrwt>
<pdfrwt beam="1">  1        1 0.85546967E-01 0.27215851E+03</pdfrwt>
<pdfrwt beam="2">  1       -1 0.51233322E-02 0.27215851E+03</pdfrwt>
<totfact> 0.66008150E+03</totfact>
</mgrwt>
</event>
<event>
 4    1  0.1749575E-004  0.4434136E+03  0.7818608E-02  0.1029705E+00
         -2   -1    0    0    0  501 -0.00000000000E+00  0.00000000000E+00  0.35594321294E+02  0.35594321294E+02  0.00000000000E+00 0. -1.
          2   -1    0    0  501    0  0.00000000000E+00 -0.00000000000E+00 -0.13809482521E+04  0.13809482521E+04  0.00000000000E+00 0. -1.
         25    1    1    2    0    0  0.65554229904E+02 -0.15713825019E+03 -0.91521922699E+03  0.93862453633E+03  0.12000000000E+03 0.  0.
         25    1    1    2    0    0 -0.65554229904E+02  0.15713825019E+03 -0.43013470380E+03  0.47791803706E+03  0.12000000000E+03 0.  0.
<mgrwt>
<rscale>  0 0.44341365E+03</rscale>
<asrwt>0</asrwt>
<pdfrwt beam="1">  1        2 0.21245360E+00 0.44341365E+03</pdfrwt>
<pdfrwt beam="2">  1       -2 0.54760489E-02 0.44341365E+03</pdfrwt>
<totfact> 0.26953092E+03</totfact>
</mgrwt>
</event>
<event>
 4    1  0.1749575E-004  0.4080097E+03  0.7818608E-02  0.1041041E+00
          2   -1    0    0  501    0  0.00000000000E+00  0.00000000000E+00  0.27707988146E+03  0.27707988146E+03  0.00000000000E+00 0. -1.
         -2   -1    0    0    0  501 -0.00000000000E+00 -0.00000000000E+00 -0.15020208532E+03  0.15020208532E+03  0.00000000000E+00 0. -1.
         25    1    1    2    0    0  0.12564408028E+02 -0.15998954760E+03  0.23376774079E+02  0.20174487169E+03  0.12000000000E+03 0.  0.
         25    1    1    2    0    0 -0.12564408028E+02  0.15998954760E+03  0.10350102206E+03  0.22553709508E+03  0.12000000000E+03 0.  0.
<mgrwt>
<rscale>  0 0.40800969E+03</rscale>
<asrwt>0</asrwt>
<pdfrwt beam="1">  1        2 0.42627674E-01 0.40800969E+03</pdfrwt>
<pdfrwt beam="2">  1       -2 0.23108013E-01 0.40800969E+03</pdfrwt>
<totfact> 0.19613257E+03</totfact>
</mgrwt>
</event>
<event>
 4    1  0.1749575E-004  0.3143130E+03  0.7818608E-02  0.1078297E+00
          1   -1    0    0  501    0  0.00000000000E+00  0.00000000000E+00  0.20184452172E+03  0.20184452172E+03  0.00000000000E+00 0. -1.
         -1   -1    0    0    0  501 -0.00000000000E+00 -0.00000000000E+00 -0.12236229830E+03  0.12236229830E+03  0.00000000000E+00 0. -1.
         25    1    1    2    0    0 -0.95660430655E+02 -0.26234167905E+02  0.61840025941E+02  0.16752115797E+03  0.12000000000E+03 0.  0.
         25    1    1    2    0    0  0.95660430655E+02  0.26234167905E+02  0.17642197475E+02  0.15668566205E+03  0.12000000000E+03 0.  0.
<mgrwt>
<rscale>  0 0.31431296E+03</rscale>
<asrwt>0</asrwt>
<pdfrwt beam="1">  1        1 0.31053003E-01 0.31431296E+03</pdfrwt>
<pdfrwt beam="2">  1       -1 0.18824969E-01 0.31431296E+03</pdfrwt>
<totfact> 0.32269256E+03</totfact>
</mgrwt>
</event>
<event>
 4    1  0.1749575E-004  0.3024568E+03  0.7818608E-02  0.1084019E+00
         -1   -1    0    0    0  501 -0.00000000000E+00  0.00000000000E+00  0.26015502035E+02  0.26015502035E+02  0.00000000000E+00 0. -1.
          1   -1    0    0  501    0  0.00000000000E+00 -0.00000000000E+00 -0.87909223521E+03  0.87909223521E+03  0.00000000000E+00 0. -1.
         25    1    1    2    0    0  0.76980980721E+02  0.24229983521E+02 -0.55891675565E+03  0.57732235644E+03  0.12000000000E+03 0.  0.
         25    1    1    2    0    0 -0.76980980721E+02 -0.24229983521E+02 -0.29415997752E+03  0.32778538081E+03  0.12000000000E+03 0.  0.
<mgrwt>
<rscale>  0 0.30245678E+03</rscale>
<asrwt>0</asrwt>
<pdfrwt beam="1">  1        1 0.13524493E+00 0.30245678E+03</pdfrwt>
<pdfrwt beam="2">  1       -1 0.40023859E-02 0.30245678E+03</pdfrwt>
<totfact> 0.48816652E+03</totfact>
</mgrwt>
</event>
<event>
 4    1  0.1749575E-004  0.3040058E+03  0.7818608E-02  0.1083255E+00
          2   -1    0    0  501    0  0.00000000000E+00  0.00000000000E+00  0.20625474326E+04  0.20625474326E+04  0.00000000000E+00 0.  1.
         -2   -1    0    0    0  501 -0.00000000000E+00 -0.00000000000E+00 -0.11202105693E+02  0.11202105693E+02  0.00000000000E+00 0.  1.
         25    1    1    2    0    0  0.14495674570E+02 -0.76325697458E+02  0.13780922100E+04  0.13854868732E+04  0.12000000000E+03 0.  0.
         25    1    1    2    0    0 -0.14495674570E+02  0.76325697458E+02  0.67325311692E+03  0.68826266506E+03  0.12000000000E+03 0.  0.
<mgrwt>
<rscale>  0 0.30400575E+03</rscale>
<asrwt>0</asrwt>
<pdfrwt beam="1">  1        2 0.31731469E+00 0.30400575E+03</pdfrwt>
<pdfrwt beam="2">  1       -2 0.17234025E-02 0.30400575E+03</pdfrwt>
<totfact> 0.66301384E+03</totfact>
</mgrwt>
</event>
<event>
 4    1  0.1749575E-004  0.2430300E+03  0.7818608E-02  0.1117791E+00
          2   -1    0    0  501    0  0.00000000000E+00  0.00000000000E+00  0.13006828717E+04  0.13006828717E+04  0.00000000000E+00 0. -1.
         -2   -1    0    0    0  501 -0.00000000000E+00 -0.00000000000E+00 -0.11352413464E+02  0.11352413464E+02  0.00000000000E+00 0. -1.
         25    1    1    2    0    0  0.85108436943E+01  0.21904616319E+01  0.55294251911E+03  0.56588219801E+03  0.12000000000E+03 0.  0.
         25    1    1    2    0    0 -0.85108436943E+01 -0.21904616319E+01  0.73638793914E+03  0.74615308717E+03  0.12000000000E+03 0.  0.
<mgrwt>
<rscale>  0 0.24302995E+03</rscale>
<asrwt>0</asrwt>
<pdfrwt beam="1">  1        2 0.20010494E+00 0.24302995E+03</pdfrwt>
<pdfrwt beam="2">  1       -2 0.17465262E-02 0.24302995E+03</pdfrwt>
<totfact> 0.16446626E+04</totfact>
</mgrwt>
</event>
<event>
 4    1  0.1749575E-004  0.3210016E+03  0.7818608E-02  0.1075189E+00
         -2   -1    0    0    0  501 -0.00000000000E+00  0.00000000000E+00  0.38083653886E+02  0.38083653886E+02  0.00000000000E+00 0.  1.
          2   -1    0    0  501    0  0.00000000000E+00 -0.00000000000E+00 -0.67641882595E+03  0.67641882595E+03  0.00000000000E+00 0.  1.
         25    1    1    2    0    0  0.24242433571E+02  0.92196002506E+02 -0.42528040269E+03  0.45205223081E+03  0.12000000000E+03 0.  0.
         25    1    1    2    0    0 -0.24242433571E+02 -0.92196002506E+02 -0.21305476937E+03  0.26245024903E+03  0.12000000000E+03 0.  0.
<mgrwt>
<rscale>  0 0.32100156E+03</rscale>
<asrwt>0</asrwt>
<pdfrwt beam="1">  1        2 0.10406443E+00 0.32100156E+03</pdfrwt>
<pdfrwt beam="2">  1       -2 0.58590241E-02 0.32100156E+03</pdfrwt>
<totfact> 0.67276807E+03</totfact>
</mgrwt>
</event>
<event>
 4    1  0.1749575E-004  0.2494046E+03  0.7818608E-02  0.1113682E+00
          2   -1    0    0  501    0  0.00000000000E+00  0.00000000000E+00  0.15427331855E+04  0.15427331855E+04  0.00000000000E+00 0. -1.
         -2   -1    0    0    0  501 -0.00000000000E+00 -0.00000000000E+00 -0.10079944116E+02  0.10079944116E+02  0.00000000000E+00 0. -1.
         25    1    1    2    0    0 -0.29411546095E+02  0.16778904097E+02  0.77892367482E+03  0.78884007370E+03  0.12000000000E+03 0.  0.
         25    1    1    2    0    0  0.29411546095E+02 -0.16778904097E+02  0.75372956656E+03  0.76397305592E+03  0.12000000000E+03 0.  0.
<mgrwt>
<rscale>  0 0.24940461E+03</rscale>
<asrwt>0</asrwt>
<pdfrwt beam="1">  1        2 0.23734338E+00 0.24940461E+03</pdfrwt>
<pdfrwt beam="2">  1       -2 0.15507619E-02 0.24940461E+03</pdfrwt>
<totfact> 0.14496935E+04</totfact>
</mgrwt>
</event>
<event>
 4    1  0.1749575E-004  0.2703338E+03  0.7818608E-02  0.1101089E+00
          2   -1    0    0  501    0  0.00000000000E+00  0.00000000000E+00  0.59561635262E+03  0.59561635262E+03  0.00000000000E+00 0. -1.
         -2   -1    0    0    0  501 -0.00000000000E+00 -0.00000000000E+00 -0.30674254266E+02  0.30674254266E+02  0.00000000000E+00 0. -1.
         25    1    1    2    0    0 -0.49600744935E+02  0.34261566591E+02  0.31806123901E+03  0.34524924418E+03  0.12000000000E+03 0.  0.
         25    1    1    2    0    0  0.49600744935E+02 -0.34261566591E+02  0.24688085935E+03  0.28104136271E+03  0.12000000000E+03 0.  0.
<mgrwt>
<rscale>  0 0.27033377E+03</rscale>
<asrwt>0</asrwt>
<pdfrwt beam="1">  1        2 0.91633277E-01 0.27033377E+03</pdfrwt>
<pdfrwt beam="2">  1       -2 0.47191165E-02 0.27033377E+03</pdfrwt>
<totfact> 0.10821292E+04</totfact>
</mgrwt>
</event>
<event>
 4    1  0.1749575E-004  0.2506906E+03  0.7818608E-02  0.1112869E+00
         -2   -1    0    0    0  501 -0.00000000000E+00  0.00000000000E+00  0.45370016218E+02  0.45370016218E+02  0.00000000000E+00 0. -1.
          2   -1    0    0  501    0  0.00000000000E+00 -0.00000000000E+00 -0.34629583241E+03  0.34629583241E+03  0.00000000000E+00 0. -1.
         25    1    1    2    0    0 -0.30127386456E+02 -0.20834412674E+01 -0.11923755172E+03  0.17184176990E+03  0.12000000000E+03 0.  0.
         25    1    1    2    0    0  0.30127386456E+02  0.20834412674E+01 -0.18168826447E+03  0.21982407872E+03  0.12000000000E+03 0.  0.
<mgrwt>
<rscale>  0 0.25069063E+03</rscale>
<asrwt>0</asrwt>
<pdfrwt beam="1">  1        2 0.53276279E-01 0.25069063E+03</pdfrwt>
<pdfrwt beam="2">  1       -2 0.69800028E-02 0.25069063E+03</pdfrwt>
<totfact> 0.10800392E+04</totfact>
</mgrwt>
</event>
<event>
 4    1  0.1749575E-004  0.3441260E+03  0.7818608E-02  0.1065052E+00
         -1   -1    0    0    0  501 -0.00000000000E+00  0.00000000000E+00  0.37139615417E+02  0.37139615417E+02  0.00000000000E+00 0. -1.
          1   -1    0    0  501    0  0.00000000000E+00 -0.00000000000E+00 -0.79714545894E+03  0.79714545894E+03  0.00000000000E+00 0. -1.
         25    1    1    2    0    0  0.41606202895E+02  0.51875985312E+02 -0.63175698804E+03  0.64648208475E+03  0.12000000000E+03 0.  0.
         25    1    1    2    0    0 -0.41606202895E+02 -0.51875985312E+02 -0.12824885549E+03  0.18780298961E+03  0.12000000000E+03 0.  0.
<mgrwt>
<rscale>  0 0.34412600E+03</rscale>
<asrwt>0</asrwt>
<pdfrwt beam="1">  1        1 0.12263776E+00 0.34412600E+03</pdfrwt>
<pdfrwt beam="2">  1       -1 0.57137870E-02 0.34412600E+03</pdfrwt>
<totfact> 0.33432333E+03</totfact>
</mgrwt>
</event>
<event>
 4    1  0.1749575E-004  0.2585590E+03  0.7818608E-02  0.1108012E+00
         -1   -1    0    0    0  501 -0.00000000000E+00  0.00000000000E+00  0.27892321758E+02  0.27892321758E+02  0.00000000000E+00 0. -1.
          1   -1    0    0  501    0  0.00000000000E+00 -0.00000000000E+00 -0.59920390095E+03  0.59920390095E+03  0.00000000000E+00 0. -1.
         25    1    1    2    0    0  0.11143291165E+02 -0.24539749812E+02 -0.18904229516E+03  0.22552907045E+03  0.12000000000E+03 0.  0.
         25    1    1    2    0    0 -0.11143291165E+02  0.24539749812E+02 -0.38226928402E+03  0.40156715225E+03  0.12000000000E+03 0.  0.
<mgrwt>
<rscale>  0 0.25855899E+03</rscale>
<asrwt>0</asrwt>
<pdfrwt beam="1">  1        1 0.92185216E-01 0.25855899E+03</pdfrwt>
<pdfrwt beam="2">  1       -1 0.42911264E-02 0.25855899E+03</pdfrwt>
<totfact> 0.77501522E+03</totfact>
</mgrwt>
</event>
<event>
 4    1  0.1749575E-004  0.2555167E+03  0.7818608E-02  0.1109867E+00
         -2   -1    0    0    0  501 -0.00000000000E+00  0.00000000000E+00  0.10916802609E+02  0.10916802609E+02  0.00000000000E+00 0.  1.
          2   -1    0    0  501    0  0.00000000000E+00 -0.00000000000E+00 -0.14951440251E+04  0.14951440251E+04  0.00000000000E+00 0.  1.
         25    1    1    2    0    0  0.62264644250E+01 -0.37940263636E+02 -0.86630602350E+03  0.87542238880E+03  0.12000000000E+03 0.  0.
         25    1    1    2    0    0 -0.62264644250E+01  0.37940263636E+02 -0.61792119895E+03  0.63063843887E+03  0.12000000000E+03 0.  0.
<mgrwt>
<rscale>  0 0.25551667E+03</rscale>
<asrwt>0</asrwt>
<pdfrwt beam="1">  1        2 0.23002217E+00 0.25551667E+03</pdfrwt>
<pdfrwt beam="2">  1       -2 0.16795080E-02 0.25551667E+03</pdfrwt>
<totfact> 0.13686492E+04</totfact>
</mgrwt>
</event>
<event>
 4    1  0.1749575E-004  0.2565466E+03  0.7818608E-02  0.1109236E+00
          1   -1    0    0  501    0  0.00000000000E+00  0.00000000000E+00  0.83750961588E+03  0.83750961588E+03  0.00000000000E+00 0. -1.
         -1   -1    0    0    0  501 -0.00000000000E+00 -0.00000000000E+00 -0.19646382530E+02  0.19646382530E+02  0.00000000000E+00 0. -1.
         25    1    1    2    0    0 -0.28680015480E+01 -0.15913876520E+02  0.26747273900E+03  0.29360371763E+03  0.12000000000E+03 0.  0.
         25    1    1    2    0    0  0.28680015480E+01  0.15913876520E+02  0.55039049435E+03  0.56355228078E+03  0.12000000000E+03 0.  0.
<mgrwt>
<rscale>  0 0.25654656E+03</rscale>
<asrwt>0</asrwt>
<pdfrwt beam="1">  1        1 0.12884761E+00 0.25654656E+03</pdfrwt>
<pdfrwt beam="2">  1       -1 0.30225210E-02 0.25654656E+03</pdfrwt>
<totfact> 0.79642345E+03</totfact>
</mgrwt>
</event>
<event>
 4    1  0.1749575E-004  0.3405697E+03  0.7818608E-02  0.1066554E+00
         -1   -1    0    0    0  501 -0.00000000000E+00  0.00000000000E+00  0.14795920019E+04  0.14795920019E+04  0.00000000000E+00 0. -1.
          1   -1    0    0  501    0  0.00000000000E+00 -0.00000000000E+00 -0.19597926523E+02  0.19597926523E+02  0.00000000000E+00 0. -1.
         25    1    1    2    0    0 -0.45605639529E+02 -0.80570308324E+02  0.10716983647E+04  0.10823626166E+04  0.12000000000E+03 0.  0.
         25    1    1    2    0    0  0.45605639529E+02  0.80570308324E+02  0.38829571068E+03  0.41682731181E+03  0.12000000000E+03 0.  0.
<mgrwt>
<rscale>  0 0.34056973E+03</rscale>
<asrwt>0</asrwt>
<pdfrwt beam="1">  1        1 0.30150668E-02 0.34056973E+03</pdfrwt>
<pdfrwt beam="2">  1       -1 0.22762945E+00 0.34056973E+03</pdfrwt>
<totfact> 0.37210230E+02</totfact>
</mgrwt>
</event>
<event>
 4    1  0.1749575E-004  0.3353193E+03  0.7818608E-02  0.1068807E+00
         -1   -1    0    0    0  501 -0.00000000000E+00  0.00000000000E+00  0.22372647822E+02  0.22372647822E+02  0.00000000000E+00 0. -1.
          1   -1    0    0  501    0  0.00000000000E+00 -0.00000000000E+00 -0.12564342430E+04  0.12564342430E+04  0.00000000000E+00 0. -1.
         25    1    1    2    0    0 -0.20040203211E+02  0.93237031639E+01 -0.17851811648E+03  0.21623426901E+03  0.12000000000E+03 0.  0.
         25    1    1    2    0    0  0.20040203211E+02 -0.93237031639E+01 -0.10555434787E+04  0.10625726218E+04  0.12000000000E+03 0.  0.
<mgrwt>
<rscale>  0 0.33531932E+03</rscale>
<asrwt>0</asrwt>
<pdfrwt beam="1">  1        1 0.19329769E+00 0.33531932E+03</pdfrwt>
<pdfrwt beam="2">  1       -1 0.34419438E-02 0.33531932E+03</pdfrwt>
<totfact> 0.32235657E+03</totfact>
</mgrwt>
</event>
<event>
 4    1  0.1749575E-004  0.3213955E+03  0.7818608E-02  0.1075009E+00
         -1   -1    0    0    0  501 -0.00000000000E+00  0.00000000000E+00  0.20086250194E+02  0.20086250194E+02  0.00000000000E+00 0. -1.
          1   -1    0    0  501    0  0.00000000000E+00 -0.00000000000E+00 -0.12856442697E+04  0.12856442697E+04  0.00000000000E+00 0. -1.
         25    1    1    2    0    0  0.10193295388E+03  0.31690330038E+02 -0.65472068082E+03  0.67413186692E+03  0.12000000000E+03 0.  0.
         25    1    1    2    0    0 -0.10193295388E+03 -0.31690330038E+02 -0.61083733873E+03  0.63159865302E+03  0.12000000000E+03 0.  0.
<mgrwt>
<rscale>  0 0.32139553E+03</rscale>
<asrwt>0</asrwt>
<pdfrwt beam="1">  1        1 0.19779149E+00 0.32139553E+03</pdfrwt>
<pdfrwt beam="2">  1       -1 0.30901914E-02 0.32139553E+03</pdfrwt>
<totfact> 0.36112820E+03</totfact>
</mgrwt>
</event>
<event>
 4    1  0.1749575E-004  0.2764137E+03  0.7818608E-02  0.1097664E+00
         -2   -1    0    0    0  501 -0.00000000000E+00  0.00000000000E+00  0.27090076390E+02  0.27090076390E+02  0.00000000000E+00 0. -1.
          2   -1    0    0  501    0  0.00000000000E+00 -0.00000000000E+00 -0.70509701322E+03  0.70509701322E+03  0.00000000000E+00 0. -1.
         25    1    1    2    0    0 -0.22011991037E-01  0.37999116295E+02 -0.18782684522E+03  0.22610364240E+03  0.12000000000E+03 0.  0.
         25    1    1    2    0    0  0.22011991037E-01 -0.37999116295E+02 -0.49018009162E+03  0.50608344721E+03  0.12000000000E+03 0.  0.
<mgrwt>
<rscale>  0 0.27641369E+03</rscale>
<asrwt>0</asrwt>
<pdfrwt beam="1">  1        2 0.10847647E+00 0.27641369E+03</pdfrwt>
<pdfrwt beam="2">  1       -2 0.41677036E-02 0.27641369E+03</pdfrwt>
<totfact> 0.10696883E+04</totfact>
</mgrwt>
</event>
<event>
 4    1  0.1749575E-004  0.3164733E+03  0.7818608E-02  0.1077284E+00
         -1   -1    0    0    0  501 -0.00000000000E+00  0.00000000000E+00  0.27272460361E+03  0.27272460361E+03  0.00000000000E+00 0.  1.
          1   -1    0    0  501    0  0.00000000000E+00 -0.00000000000E+00 -0.91809985226E+02  0.91809985226E+02  0.00000000000E+00 0.  1.
         25    1    1    2    0    0 -0.36854449299E+02 -0.94862190495E+02  0.10979205098E+03  0.19186292002E+03  0.12000000000E+03 0.  0.
         25    1    1    2    0    0  0.36854449299E+02  0.94862190495E+02  0.71122567399E+02  0.17267166882E+03  0.12000000000E+03 0.  0.
<mgrwt>
<rscale>  0 0.31647333E+03</rscale>
<asrwt>0</asrwt>
<pdfrwt beam="1">  1        1 0.14124613E-01 0.31647333E+03</pdfrwt>
<pdfrwt beam="2">  1       -1 0.41957631E-01 0.31647333E+03</pdfrwt>
<totfact> 0.22891356E+03</totfact>
</mgrwt>
</event>
<event>
 4    1  0.1749575E-004  0.3510884E+03  0.7818608E-02  0.1062169E+00
          2   -1    0    0  501    0  0.00000000000E+00  0.00000000000E+00  0.24229156568E+04  0.24229156568E+04  0.00000000000E+00 0.  1.
         -2   -1    0    0    0  501 -0.00000000000E+00 -0.00000000000E+00 -0.12718465007E+02  0.12718465007E+02  0.00000000000E+00 0.  1.
         25    1    1    2    0    0 -0.47533731323E+02  0.99272284811E+02  0.75011396350E+03  0.76758413244E+03  0.12000000000E+03 0.  0.
         25    1    1    2    0    0  0.47533731323E+02 -0.99272284811E+02  0.16600832283E+04  0.16680499893E+04  0.12000000000E+03 0.  0.
<mgrwt>
<rscale>  0 0.35108841E+03</rscale>
<asrwt>0</asrwt>
<pdfrwt beam="1">  1        2 0.37275589E+00 0.35108841E+03</pdfrwt>
<pdfrwt beam="2">  1       -2 0.19566889E-02 0.35108841E+03</pdfrwt>
<totfact> 0.35137534E+03</totfact>
</mgrwt>
</event>
<event>
 4    1  0.1749575E-004  0.2569168E+03  0.7818608E-02  0.1109010E+00
          1   -1    0    0  501    0  0.00000000000E+00  0.00000000000E+00  0.14915403698E+04  0.14915403698E+04  0.00000000000E+00 0. -1.
         -1   -1    0    0    0  501 -0.00000000000E+00 -0.00000000000E+00 -0.11063434194E+02  0.11063434194E+02  0.00000000000E+00 0. -1.
         25    1    1    2    0    0 -0.43686213785E+02 -0.11335908105E+02  0.78723540509E+03  0.79760677725E+03  0.12000000000E+03 0.  0.
         25    1    1    2    0    0  0.43686213785E+02  0.11335908105E+02  0.69324153054E+03  0.70499702677E+03  0.12000000000E+03 0.  0.
<mgrwt>
<rscale>  0 0.25691679E+03</rscale>
<asrwt>0</asrwt>
<pdfrwt beam="1">  1        1 0.22946759E+00 0.25691679E+03</pdfrwt>
<pdfrwt beam="2">  1       -1 0.17020680E-02 0.25691679E+03</pdfrwt>
<totfact> 0.62854393E+03</totfact>
</mgrwt>
</event>
<event>
 4    1  0.1749575E-004  0.2948681E+03  0.7818608E-02  0.1087834E+00
         -1   -1    0    0    0  501 -0.00000000000E+00  0.00000000000E+00  0.10695356327E+03  0.10695356327E+03  0.00000000000E+00 0. -1.
          1   -1    0    0  501    0  0.00000000000E+00 -0.00000000000E+00 -0.20323588690E+03  0.20323588690E+03  0.00000000000E+00 0. -1.
         25    1    1    2    0    0  0.77587467040E+02 -0.12348391755E+02 -0.84039122640E+02  0.16623739638E+03  0.12000000000E+03 0.  0.
         25    1    1    2    0    0 -0.77587467040E+02  0.12348391755E+02 -0.12243200983E+02  0.14395205379E+03  0.12000000000E+03 0.  0.
<mgrwt>
<rscale>  0 0.29486812E+03</rscale>
<asrwt>0</asrwt>
<pdfrwt beam="1">  1        1 0.31267059E-01 0.29486812E+03</pdfrwt>
<pdfrwt beam="2">  1       -1 0.16454394E-01 0.29486812E+03</pdfrwt>
<totfact> 0.39679336E+03</totfact>
</mgrwt>
</event>
<event>
 4    1  0.1749575E-004  0.2798580E+03  0.7818608E-02  0.1095767E+00
         -1   -1    0    0    0  501 -0.00000000000E+00  0.00000000000E+00  0.15231963679E+02  0.15231963679E+02  0.00000000000E+00 0. -1.
          1   -1    0    0  501    0  0.00000000000E+00 -0.00000000000E+00 -0.12854627907E+04  0.12854627907E+04  0.00000000000E+00 0. -1.
         25    1    1    2    0    0  0.30567931143E+01 -0.60463443856E+02 -0.45421610222E+03  0.47368495811E+03  0.12000000000E+03 0.  0.
         25    1    1    2    0    0 -0.30567931143E+01  0.60463443856E+02 -0.81601472483E+03  0.82700979630E+03  0.12000000000E+03 0.  0.
<mgrwt>
<rscale>  0 0.27985798E+03</rscale>
<asrwt>0</asrwt>
<pdfrwt beam="1">  1        1 0.19776348E+00 0.27985798E+03</pdfrwt>
<pdfrwt beam="2">  1       -1 0.23433793E-02 0.27985798E+03</pdfrwt>
<totfact> 0.54271355E+03</totfact>
</mgrwt>
</event>
<event>
 4    1  0.1749575E-004  0.2478923E+03  0.7818608E-02  0.1114644E+00
         -2   -1    0    0    0  501 -0.00000000000E+00  0.00000000000E+00  0.15026444983E+02  0.15026444983E+02  0.00000000000E+00 0.  1.
          2   -1    0    0  501    0  0.00000000000E+00 -0.00000000000E+00 -0.10223738848E+04  0.10223738848E+04  0.00000000000E+00 0.  1.
         25    1    1    2    0    0  0.54075603942E+01 -0.23027465735E+02 -0.58769916467E+03  0.60029144092E+03  0.12000000000E+03 0.  0.
         25    1    1    2    0    0 -0.54075603942E+01  0.23027465735E+02 -0.41964827511E+03  0.43710888883E+03  0.12000000000E+03 0.  0.
<mgrwt>
<rscale>  0 0.24789227E+03</rscale>
<asrwt>0</asrwt>
<pdfrwt beam="1">  1        2 0.15728824E+00 0.24789227E+03</pdfrwt>
<pdfrwt beam="2">  1       -2 0.23117615E-02 0.24789227E+03</pdfrwt>
<totfact> 0.15758274E+04</totfact>
</mgrwt>
</event>
<event>
 4    1  0.1749575E-004  0.3478307E+03  0.7818608E-02  0.1063509E+00
          2   -1    0    0  501    0  0.00000000000E+00  0.00000000000E+00  0.62288709691E+03  0.62288709691E+03  0.00000000000E+00 0.  1.
         -2   -1    0    0    0  501 -0.00000000000E+00 -0.00000000000E+00 -0.48558632652E+02  0.48558632652E+02  0.00000000000E+00 0.  1.
         25    1    1    2    0    0 -0.37037063559E+02 -0.87644248604E+02  0.44626893637E+03  0.47181481744E+03  0.12000000000E+03 0.  0.
         25    1    1    2    0    0  0.37037063559E+02  0.87644248604E+02  0.12805952789E+03  0.19963091212E+03  0.12000000000E+03 0.  0.
<mgrwt>
<rscale>  0 0.34783068E+03</rscale>
<asrwt>0</asrwt>
<pdfrwt beam="1">  1        2 0.95828779E-01 0.34783068E+03</pdfrwt>
<pdfrwt beam="2">  1       -2 0.74705593E-02 0.34783068E+03</pdfrwt>
<totfact> 0.51022116E+03</totfact>
</mgrwt>
</event>
<event>
 4    1  0.1749575E-004  0.2773457E+03  0.7818608E-02  0.1097148E+00
          1   -1    0    0  501    0  0.00000000000E+00  0.00000000000E+00  0.45122723889E+04  0.45122723889E+04  0.00000000000E+00 0. -1.
         -1   -1    0    0    0  501 -0.00000000000E+00 -0.00000000000E+00 -0.42617475223E+01  0.42617475223E+01  0.00000000000E+00 0. -1.
         25    1    1    2    0    0 -0.40583276300E+02  0.46276558175E+02  0.17284198549E+04  0.17336734747E+04  0.12000000000E+03 0.  0.
         25    1    1    2    0    0  0.40583276300E+02 -0.46276558175E+02  0.27795907865E+04  0.27828606617E+04  0.12000000000E+03 0.  0.
<mgrwt>
<rscale>  0 0.27734575E+03</rscale>
<asrwt>0</asrwt>
<pdfrwt beam="1">  1        1 0.69419193E+00 0.27734575E+03</pdfrwt>
<pdfrwt beam="2">  1       -1 0.65565707E-03 0.27734575E+03</pdfrwt>
<totfact> 0.14852989E+02</totfact>
</mgrwt>
</event>
<event>
 4    1  0.1749575E-004  0.2900470E+03  0.7818608E-02  0.1090325E+00
         -1   -1    0    0    0  501 -0.00000000000E+00  0.00000000000E+00  0.88548510687E+02  0.88548510687E+02  0.00000000000E+00 0. -1.
          1   -1    0    0  501    0  0.00000000000E+00 -0.00000000000E+00 -0.23751738273E+03  0.23751738273E+03  0.00000000000E+00 0. -1.
         25    1    1    2    0    0  0.23390834008E+00 -0.46546122245E+02 -0.14960488956E+03  0.19735303187E+03  0.12000000000E+03 0.  0.
         25    1    1    2    0    0 -0.23390834008E+00  0.46546122245E+02  0.63601751410E+00  0.12871286155E+03  0.12000000000E+03 0.  0.
<mgrwt>
<rscale>  0 0.29004697E+03</rscale>
<asrwt>0</asrwt>
<pdfrwt beam="1">  1        1 0.36541136E-01 0.29004697E+03</pdfrwt>
<pdfrwt beam="2">  1       -1 0.13622848E-01 0.29004697E+03</pdfrwt>
<totfact> 0.43995941E+03</totfact>
</mgrwt>
</event>
<event>
 4    1  0.1749575E-004  0.2738927E+03  0.7818608E-02  0.1099072E+00
         -1   -1    0    0    0  501 -0.00000000000E+00  0.00000000000E+00  0.18242106932E+04  0.18242106932E+04  0.00000000000E+00 0. -1.
          1   -1    0    0  501    0  0.00000000000E+00 -0.00000000000E+00 -0.10280779888E+02  0.10280779888E+02  0.00000000000E+00 0. -1.
         25    1    1    2    0    0 -0.23739324764E+02 -0.51435740475E+02  0.68031260450E+03  0.69313377553E+03  0.12000000000E+03 0.  0.
         25    1    1    2    0    0  0.23739324764E+02  0.51435740475E+02  0.11336173088E+04  0.11413576976E+04  0.12000000000E+03 0.  0.
<mgrwt>
<rscale>  0 0.27389274E+03</rscale>
<asrwt>0</asrwt>
<pdfrwt beam="1">  1        1 0.15816599E-02 0.27389274E+03</pdfrwt>
<pdfrwt beam="2">  1       -1 0.28064754E+00 0.27389274E+03</pdfrwt>
<totfact> 0.43044138E+02</totfact>
</mgrwt>
</event>
<event>
 4    1  0.1749575E-004  0.2577119E+03  0.7818608E-02  0.1108526E+00
         -2   -1    0    0    0  501 -0.00000000000E+00  0.00000000000E+00  0.86366507878E+01  0.86366507878E+01  0.00000000000E+00 0.  1.
          2   -1    0    0  501    0  0.00000000000E+00 -0.00000000000E+00 -0.19224881154E+04  0.19224881154E+04  0.00000000000E+00 0.  1.
         25    1    1    2    0    0  0.46503938280E+02  0.40139968367E+01 -0.99448979046E+03  0.10027904426E+04  0.12000000000E+03 0.  0.
         25    1    1    2    0    0 -0.46503938280E+02 -0.40139968367E+01 -0.91936167414E+03  0.92833432358E+03  0.12000000000E+03 0.  0.
<mgrwt>
<rscale>  0 0.25771192E+03</rscale>
<asrwt>0</asrwt>
<pdfrwt beam="1">  1        2 0.29576755E+00 0.25771192E+03</pdfrwt>
<pdfrwt beam="2">  1       -2 0.13287149E-02 0.25771192E+03</pdfrwt>
<totfact> 0.11481375E+04</totfact>
</mgrwt>
</event>
<event>
 4    1  0.1749575E-004  0.2706147E+03  0.7818608E-02  0.1100928E+00
          1   -1    0    0  501    0  0.00000000000E+00  0.00000000000E+00  0.19590953169E+04  0.19590953169E+04  0.00000000000E+00 0. -1.
         -1   -1    0    0    0  501 -0.00000000000E+00 -0.00000000000E+00 -0.93451730230E+01  0.93451730230E+01  0.00000000000E+00 0. -1.
         25    1    1    2    0    0 -0.40566577557E+02  0.45633149294E+02  0.87727025975E+03  0.88754219065E+03  0.12000000000E+03 0.  0.
         25    1    1    2    0    0  0.40566577557E+02 -0.45633149294E+02  0.10724798841E+04  0.10808982992E+04  0.12000000000E+03 0.  0.
<mgrwt>
<rscale>  0 0.27061474E+03</rscale>
<asrwt>0</asrwt>
<pdfrwt beam="1">  1        1 0.30139895E+00 0.27061474E+03</pdfrwt>
<pdfrwt beam="2">  1       -1 0.14377205E-02 0.27061474E+03</pdfrwt>
<totfact> 0.39818483E+03</totfact>
</mgrwt>
</event>
<event>
 4    1  0.1749575E-004  0.2915975E+03  0.7818608E-02  0.1089518E+00
          2   -1    0    0  501    0  0.00000000000E+00  0.00000000000E+00  0.51545882551E+03  0.51545882551E+03  0.00000000000E+00 0.  1.
         -2   -1    0    0    0  501 -0.00000000000E+00 -0.00000000000E+00 -0.41239532267E+02  0.41239532267E+02  0.00000000000E+00 0.  1.
         25    1    1    2    0    0 -0.57497780629E+02 -0.39253241533E+02  0.15150747301E+03  0.20542961356E+03  0.12000000000E+03 0.  0.
         25    1    1    2    0    0  0.57497780629E+02  0.39253241533E+02  0.32271182024E+03  0.35126874422E+03  0.12000000000E+03 0.  0.
<mgrwt>
<rscale>  0 0.29159754E+03</rscale>
<asrwt>0</asrwt>
<pdfrwt beam="1">  1        2 0.79301353E-01 0.29159754E+03</pdfrwt>
<pdfrwt beam="2">  1       -2 0.63445438E-02 0.29159754E+03</pdfrwt>
<totfact> 0.81427507E+03</totfact>
</mgrwt>
</event>
<event>
 4    1  0.1749575E-004  0.2774232E+03  0.7818608E-02  0.1097105E+00
          2   -1    0    0  501    0  0.00000000000E+00  0.00000000000E+00  0.99045168904E+03  0.99045168904E+03  0.00000000000E+00 0. -1.
         -2   -1    0    0    0  501 -0.00000000000E+00 -0.00000000000E+00 -0.19426391579E+02  0.19426391579E+02  0.00000000000E+00 0. -1.
         25    1    1    2    0    0 -0.23528353779E+02 -0.19599236936E+02  0.71293650210E+03  0.72361327347E+03  0.12000000000E+03 0.  0.
         25    1    1    2    0    0  0.23528353779E+02  0.19599236936E+02  0.25808879537E+03  0.28626480715E+03  0.12000000000E+03 0.  0.
<mgrwt>
<rscale>  0 0.27742316E+03</rscale>
<asrwt>0</asrwt>
<pdfrwt beam="1">  1        2 0.15237714E+00 0.27742316E+03</pdfrwt>
<pdfrwt beam="2">  1       -2 0.29886764E-02 0.27742316E+03</pdfrwt>
<totfact> 0.11313013E+04</totfact>
</mgrwt>
</event>
<event>
 4    1  0.1749575E-004  0.2922472E+03  0.7818608E-02  0.1089182E+00
          1   -1    0    0  501    0  0.00000000000E+00  0.00000000000E+00  0.35165158326E+03  0.35165158326E+03  0.00000000000E+00 0.  1.
         -1   -1    0    0    0  501 -0.00000000000E+00 -0.00000000000E+00 -0.60719482694E+02  0.60719482694E+02  0.00000000000E+00 0.  1.
         25    1    1    2    0    0  0.76772063831E+02 -0.94817589783E+00  0.99585627066E+02  0.17381641447E+03  0.12000000000E+03 0.  0.
         25    1    1    2    0    0 -0.76772063831E+02  0.94817589783E+00  0.19134647350E+03  0.23855465148E+03  0.12000000000E+03 0.  0.
<mgrwt>
<rscale>  0 0.29224717E+03</rscale>
<asrwt>0</asrwt>
<pdfrwt beam="1">  1        1 0.54100242E-01 0.29224717E+03</pdfrwt>
<pdfrwt beam="2">  1       -1 0.93414591E-02 0.29224717E+03</pdfrwt>
<totfact> 0.48319492E+03</totfact>
</mgrwt>
</event>
<event>
 4    1  0.1749575E-004  0.4246407E+03  0.7818608E-02  0.1035566E+00
          1   -1    0    0  501    0  0.00000000000E+00  0.00000000000E+00  0.12223174390E+04  0.12223174390E+04  0.00000000000E+00 0. -1.
         -1   -1    0    0    0  501 -0.00000000000E+00 -0.00000000000E+00 -0.36880713427E+02  0.36880713427E+02  0.00000000000E+00 0. -1.
         25    1    1    2    0    0 -0.98922300013E+02  0.12018694384E+03  0.83085851454E+03  0.85378943194E+03  0.12000000000E+03 0.  0.
         25    1    1    2    0    0  0.98922300013E+02 -0.12018694384E+03  0.35457821107E+03  0.40540872052E+03  0.12000000000E+03 0.  0.
<mgrwt>
<rscale>  0 0.42464074E+03</rscale>
<asrwt>0</asrwt>
<pdfrwt beam="1">  1        1 0.18804881E+00 0.42464074E+03</pdfrwt>
<pdfrwt beam="2">  1       -1 0.56739569E-02 0.42464074E+03</pdfrwt>
<totfact> 0.16023929E+03</totfact>
</mgrwt>
</event>
<event>
 4    1  0.1749575E-004  0.2562568E+03  0.7818608E-02  0.1109413E+00
          1   -1    0    0  501    0  0.00000000000E+00  0.00000000000E+00  0.12872856442E+04  0.12872856442E+04  0.00000000000E+00 0.  1.
         -1   -1    0    0    0  501 -0.00000000000E+00 -0.00000000000E+00 -0.12753102004E+02  0.12753102004E+02  0.00000000000E+00 0.  1.
         25    1    1    2    0    0  0.21091301315E+02 -0.71134512567E+01  0.43938327773E+03  0.45601875940E+03  0.12000000000E+03 0.  0.
         25    1    1    2    0    0 -0.21091301315E+02  0.71134512567E+01  0.83514926451E+03  0.84401998685E+03  0.12000000000E+03 0.  0.
<mgrwt>
<rscale>  0 0.25625679E+03</rscale>
<asrwt>0</asrwt>
<pdfrwt beam="1">  1        1 0.19804384E+00 0.25625679E+03</pdfrwt>
<pdfrwt beam="2">  1       -1 0.19620167E-02 0.25625679E+03</pdfrwt>
<totfact> 0.70080756E+03</totfact>
</mgrwt>
</event>
<event>
 4    1  0.1749575E-004  0.3205308E+03  0.7818608E-02  0.1075405E+00
         -2   -1    0    0    0  501 -0.00000000000E+00  0.00000000000E+00  0.17021719566E+02  0.17021719566E+02  0.00000000000E+00 0.  1.
          2   -1    0    0  501    0  0.00000000000E+00 -0.00000000000E+00 -0.15089544190E+04  0.15089544190E+04  0.00000000000E+00 0.  1.
         25    1    1    2    0    0 -0.58085870314E+02 -0.75844790467E+02 -0.96715553805E+03  0.97924268460E+03  0.12000000000E+03 0.  0.
         25    1    1    2    0    0  0.58085870314E+02  0.75844790467E+02 -0.52477716142E+03  0.54673345400E+03  0.12000000000E+03 0.  0.
<mgrwt>
<rscale>  0 0.32053080E+03</rscale>
<asrwt>0</asrwt>
<pdfrwt beam="1">  1        2 0.23214671E+00 0.32053080E+03</pdfrwt>
<pdfrwt beam="2">  1       -2 0.26187275E-02 0.32053080E+03</pdfrwt>
<totfact> 0.70164102E+03</totfact>
</mgrwt>
</event>
<event>
 4    1  0.1749575E-004  0.2598187E+03  0.7818608E-02  0.1107252E+00
         -2   -1    0    0    0  501 -0.00000000000E+00  0.00000000000E+00  0.86188313147E+01  0.86188313147E+01  0.00000000000E+00 0.  1.
          2   -1    0    0  501    0  0.00000000000E+00 -0.00000000000E+00 -0.19580891354E+04  0.19580891354E+04  0.00000000000E+00 0.  1.
         25    1    1    2    0    0  0.21935128418E+02  0.44648407819E+02 -0.96455200403E+03  0.97326008788E+03  0.12000000000E+03 0.  0.
         25    1    1    2    0    0 -0.21935128418E+02 -0.44648407819E+02 -0.98491830004E+03  0.99344787882E+03  0.12000000000E+03 0.  0.
<mgrwt>
<rscale>  0 0.25981871E+03</rscale>
<asrwt>0</asrwt>
<pdfrwt beam="1">  1        2 0.30124445E+00 0.25981871E+03</pdfrwt>
<pdfrwt beam="2">  1       -2 0.13259742E-02 0.25981871E+03</pdfrwt>
<totfact> 0.11033195E+04</totfact>
</mgrwt>
</event>
<event>
 4    1  0.1749575E-004  0.2704663E+03  0.7818608E-02  0.1101013E+00
          2   -1    0    0  501    0  0.00000000000E+00  0.00000000000E+00  0.24483648780E+03  0.24483648780E+03  0.00000000000E+00 0. -1.
         -2   -1    0    0    0  501 -0.00000000000E+00 -0.00000000000E+00 -0.74694788067E+02  0.74694788067E+02  0.00000000000E+00 0. -1.
         25    1    1    2    0    0  0.57285404061E+02 -0.15933079245E+02  0.62889008075E+02  0.14795441146E+03  0.12000000000E+03 0.  0.
         25    1    1    2    0    0 -0.57285404061E+02  0.15933079245E+02  0.10725269165E+03  0.17157686441E+03  0.12000000000E+03 0.  0.
<mgrwt>
<rscale>  0 0.27046633E+03</rscale>
<asrwt>0</asrwt>
<pdfrwt beam="1">  1        2 0.37667152E-01 0.27046633E+03</pdfrwt>
<pdfrwt beam="2">  1       -2 0.11491506E-01 0.27046633E+03</pdfrwt>
<totfact> 0.71748827E+03</totfact>
</mgrwt>
</event>
<event>
 4    1  0.1749575E-004  0.2620408E+03  0.7818608E-02  0.1105923E+00
          1   -1    0    0  501    0  0.00000000000E+00  0.00000000000E+00  0.19948029295E+03  0.19948029295E+03  0.00000000000E+00 0.  1.
         -1   -1    0    0    0  501 -0.00000000000E+00 -0.00000000000E+00 -0.86055322811E+02  0.86055322811E+02  0.00000000000E+00 0.  1.
         25    1    1    2    0    0 -0.34573161107E+02 -0.33025127851E+02  0.32829797959E+02  0.13328074944E+03  0.12000000000E+03 0.  0.
         25    1    1    2    0    0  0.34573161107E+02  0.33025127851E+02  0.80595172181E+02  0.15225486632E+03  0.12000000000E+03 0.  0.
<mgrwt>
<rscale>  0 0.26204077E+03</rscale>
<asrwt>0</asrwt>
<pdfrwt beam="1">  1        1 0.30689276E-01 0.26204077E+03</pdfrwt>
<pdfrwt beam="2">  1       -1 0.13239280E-01 0.26204077E+03</pdfrwt>
<totfact> 0.57137077E+03</totfact>
</mgrwt>
</event>
<event>
 4    1  0.1749575E-004  0.2916141E+03  0.7818608E-02  0.1089509E+00
         -3   -1    0    0    0  501 -0.00000000000E+00  0.00000000000E+00  0.62725872309E+03  0.62725872309E+03  0.00000000000E+00 0. -1.
          3   -1    0    0  501    0  0.00000000000E+00 -0.00000000000E+00 -0.33893014635E+02  0.33893014635E+02  0.00000000000E+00 0. -1.
         25    1    1    2    0    0 -0.75500368183E+02 -0.16169944312E+02  0.22874518512E+03  0.26960365801E+03  0.12000000000E+03 0.  0.
         25    1    1    2    0    0  0.75500368183E+02  0.16169944312E+02  0.36462052333E+03  0.39154807971E+03  0.12000000000E+03 0.  0.
<mgrwt>
<rscale>  0 0.29161405E+03</rscale>
<asrwt>0</asrwt>
<pdfrwt beam="1">  1        3 0.52143104E-02 0.29161405E+03</pdfrwt>
<pdfrwt beam="2">  1       -3 0.96501333E-01 0.29161405E+03</pdfrwt>
<totfact> 0.53378554E+02</totfact>
</mgrwt>
</event>
<event>
 4    1  0.1749575E-004  0.3786381E+03  0.7818608E-02  0.1051438E+00
          2   -1    0    0  501    0  0.00000000000E+00  0.00000000000E+00  0.30205688867E+03  0.30205688867E+03  0.00000000000E+00 0.  1.
         -2   -1    0    0    0  501 -0.00000000000E+00 -0.00000000000E+00 -0.11865875191E+03  0.11865875191E+03  0.00000000000E+00 0.  1.
         25    1    1    2    0    0 -0.63407393208E+01 -0.97850584114E+02 -0.29137154049E+02  0.15768295892E+03  0.12000000000E+03 0.  0.
         25    1    1    2    0    0  0.63407393208E+01  0.97850584114E+02  0.21253529080E+03  0.26303268166E+03  0.12000000000E+03 0.  0.
<mgrwt>
<rscale>  0 0.37863805E+03</rscale>
<asrwt>0</asrwt>
<pdfrwt beam="1">  1        2 0.46470290E-01 0.37863805E+03</pdfrwt>
<pdfrwt beam="2">  1       -2 0.18255193E-01 0.37863805E+03</pdfrwt>
<totfact> 0.26826111E+03</totfact>
</mgrwt>
</event>
<event>
 4    1  0.1749575E-004  0.2564897E+03  0.7818608E-02  0.1109271E+00
          2   -1    0    0  501    0  0.00000000000E+00  0.00000000000E+00  0.11093195713E+03  0.11093195713E+03  0.00000000000E+00 0.  1.
         -2   -1    0    0    0  501 -0.00000000000E+00 -0.00000000000E+00 -0.14825977363E+03  0.14825977363E+03  0.00000000000E+00 0.  1.
         25    1    1    2    0    0 -0.21622691916E+02 -0.28883775404E+02  0.89170857658E+01  0.12562375454E+03  0.12000000000E+03 0.  0.
         25    1    1    2    0    0  0.21622691916E+02  0.28883775404E+02 -0.46244902265E+02  0.13356797622E+03  0.12000000000E+03 0.  0.
<mgrwt>
<rscale>  0 0.25648974E+03</rscale>
<asrwt>0</asrwt>
<pdfrwt beam="1">  1        2 0.17066455E-01 0.25648974E+03</pdfrwt>
<pdfrwt beam="2">  1       -2 0.22809196E-01 0.25648974E+03</pdfrwt>
<totfact> 0.55271920E+03</totfact>
</mgrwt>
</event>
<event>
 4    1  0.1749575E-004  0.2641700E+03  0.7818608E-02  0.1104663E+00
         -1   -1    0    0    0  501 -0.00000000000E+00  0.00000000000E+00  0.53500200154E+02  0.53500200154E+02  0.00000000000E+00 0.  1.
          1   -1    0    0  501    0  0.00000000000E+00 -0.00000000000E+00 -0.32610068071E+03  0.32610068071E+03  0.00000000000E+00 0.  1.
         25    1    1    2    0    0  0.37729481924E+02  0.27665842521E+02 -0.94220736473E+02  0.15958214133E+03  0.12000000000E+03 0.  0.
         25    1    1    2    0    0 -0.37729481924E+02 -0.27665842521E+02 -0.17837974408E+03  0.22001873953E+03  0.12000000000E+03 0.  0.
<mgrwt>
<rscale>  0 0.26417003E+03</rscale>
<asrwt>0</asrwt>
<pdfrwt beam="1">  1        1 0.50169336E-01 0.26417003E+03</pdfrwt>
<pdfrwt beam="2">  1       -1 0.82308000E-02 0.26417003E+03</pdfrwt>
<totfact> 0.64360212E+03</totfact>
</mgrwt>
</event>
<event>
 4    1  0.1749575E-004  0.2857065E+03  0.7818608E-02  0.1092612E+00
         -2   -1    0    0    0  501 -0.00000000000E+00  0.00000000000E+00  0.15917662004E+02  0.15917662004E+02  0.00000000000E+00 0. -1.
          2   -1    0    0  501    0  0.00000000000E+00 -0.00000000000E+00 -0.12820380990E+04  0.12820380990E+04  0.00000000000E+00 0. -1.
         25    1    1    2    0    0 -0.42322227474E+02  0.57822341542E+02 -0.49887295023E+03  0.51808186090E+03  0.12000000000E+03 0.  0.
         25    1    1    2    0    0  0.42322227474E+02 -0.57822341542E+02 -0.76724748682E+03  0.77987390016E+03  0.12000000000E+03 0.  0.
<mgrwt>
<rscale>  0 0.28570649E+03</rscale>
<asrwt>0</asrwt>
<pdfrwt beam="1">  1        2 0.19723660E+00 0.28570649E+03</pdfrwt>
<pdfrwt beam="2">  1       -2 0.24488715E-02 0.28570649E+03</pdfrwt>
<totfact> 0.10292574E+04</totfact>
</mgrwt>
</event>
<event>
 4    1  0.1749575E-004  0.2594991E+03  0.7818608E-02  0.1107445E+00
         -2   -1    0    0    0  501 -0.00000000000E+00  0.00000000000E+00  0.39319651875E+02  0.39319651875E+02  0.00000000000E+00 0. -1.
          2   -1    0    0  501    0  0.00000000000E+00 -0.00000000000E+00 -0.42815613515E+03  0.42815613515E+03  0.00000000000E+00 0. -1.
         25    1    1    2    0    0 -0.26301434705E+02  0.12979544695E+02 -0.26590479303E+03  0.29319889666E+03  0.12000000000E+03 0.  0.
         25    1    1    2    0    0  0.26301434705E+02 -0.12979544695E+02 -0.12293169025E+03  0.17427689036E+03  0.12000000000E+03 0.  0.
<mgrwt>
<rscale>  0 0.25949913E+03</rscale>
<asrwt>0</asrwt>
<pdfrwt beam="1">  1        2 0.65870176E-01 0.25949913E+03</pdfrwt>
<pdfrwt beam="2">  1       -2 0.60491771E-02 0.25949913E+03</pdfrwt>
<totfact> 0.10715496E+04</totfact>
</mgrwt>
</event>
<event>
 4    1  0.1749575E-004  0.4618611E+03  0.7818608E-02  0.1024243E+00
         -1   -1    0    0    0  501 -0.00000000000E+00  0.00000000000E+00  0.13653133426E+03  0.13653133426E+03  0.00000000000E+00 0.  1.
          1   -1    0    0  501    0  0.00000000000E+00 -0.00000000000E+00 -0.39059837929E+03  0.39059837929E+03  0.00000000000E+00 0.  1.
         25    1    1    2    0    0 -0.62499722671E+02 -0.17232862628E+03 -0.21032263450E+03  0.30370871135E+03  0.12000000000E+03 0.  0.
         25    1    1    2    0    0  0.62499722671E+02  0.17232862628E+03 -0.43744410526E+02  0.22342100219E+03  0.12000000000E+03 0.  0.
<mgrwt>
<rscale>  0 0.46186110E+03</rscale>
<asrwt>0</asrwt>
<pdfrwt beam="1">  1        1 0.60092058E-01 0.46186110E+03</pdfrwt>
<pdfrwt beam="2">  1       -1 0.21004821E-01 0.46186110E+03</pdfrwt>
<totfact> 0.11665498E+03</totfact>
</mgrwt>
</event>
<event>
 4    1  0.1749575E-004  0.5801220E+03  0.7818608E-02  0.9947527E-01
         -2   -1    0    0    0  501 -0.00000000000E+00  0.00000000000E+00  0.21883473654E+03  0.21883473654E+03  0.00000000000E+00 0.  1.
          2   -1    0    0  501    0  0.00000000000E+00 -0.00000000000E+00 -0.38446993769E+03  0.38446993769E+03  0.00000000000E+00 0.  1.
         25    1    1    2    0    0 -0.14506270563E+03  0.17615675790E+03 -0.22102294539E+03  0.33959613411E+03  0.12000000000E+03 0.  0.
         25    1    1    2    0    0  0.14506270563E+03 -0.17615675790E+03  0.55387744243E+02  0.26370854011E+03  0.12000000000E+03 0.  0.
<mgrwt>
<rscale>  0 0.58012198E+03</rscale>
<asrwt>0</asrwt>
<pdfrwt beam="1">  1        2 0.59149220E-01 0.58012198E+03</pdfrwt>
<pdfrwt beam="2">  1       -2 0.33666883E-01 0.58012198E+03</pdfrwt>
<totfact> 0.68997370E+02</totfact>
</mgrwt>
</event>
<event>
 4    1  0.1749575E-004  0.3025013E+03  0.7818608E-02  0.1083997E+00
          2   -1    0    0  501    0  0.00000000000E+00  0.00000000000E+00  0.76663255265E+03  0.76663255265E+03  0.00000000000E+00 0.  1.
         -2   -1    0    0    0  501 -0.00000000000E+00 -0.00000000000E+00 -0.29840572582E+02  0.29840572582E+02  0.00000000000E+00 0.  1.
         25    1    1    2    0    0  0.37161189409E+02  0.13747988488E+02  0.14957844004E+03  0.19581540009E+03  0.12000000000E+03 0.  0.
         25    1    1    2    0    0 -0.37161189409E+02 -0.13747988488E+02  0.58721354003E+03  0.60065772515E+03  0.12000000000E+03 0.  0.
<mgrwt>
<rscale>  0 0.30250127E+03</rscale>
<asrwt>0</asrwt>
<pdfrwt beam="1">  1        2 0.11794345E+00 0.30250127E+03</pdfrwt>
<pdfrwt beam="2">  1       -2 0.45908579E-02 0.30250127E+03</pdfrwt>
<totfact> 0.83568371E+03</totfact>
</mgrwt>
</event>
<event>
 4    1  0.1749575E-004  0.2453053E+03  0.7818608E-02  0.1116308E+00
          2   -1    0    0  501    0  0.00000000000E+00  0.00000000000E+00  0.45584231922E+03  0.45584231922E+03  0.00000000000E+00 0.  1.
         -2   -1    0    0    0  501 -0.00000000000E+00 -0.00000000000E+00 -0.33001923983E+02  0.33001923983E+02  0.00000000000E+00 0.  1.
         25    1    1    2    0    0 -0.92887181149E+01 -0.16416924205E+02  0.24523195225E+03  0.27366860633E+03  0.12000000000E+03 0.  0.
         25    1    1    2    0    0  0.92887181149E+01  0.16416924205E+02  0.17760844298E+03  0.21517563687E+03  0.12000000000E+03 0.  0.
<mgrwt>
<rscale>  0 0.24530531E+03</rscale>
<asrwt>0</asrwt>
<pdfrwt beam="1">  1        2 0.70129583E-01 0.24530531E+03</pdfrwt>
<pdfrwt beam="2">  1       -2 0.50772194E-02 0.24530531E+03</pdfrwt>
<totfact> 0.13033886E+04</totfact>
</mgrwt>
</event>
<event>
 4    1  0.1749575E-004  0.2554777E+03  0.7818608E-02  0.1109891E+00
          1   -1    0    0  501    0  0.00000000000E+00  0.00000000000E+00  0.14530443829E+04  0.14530443829E+04  0.00000000000E+00 0.  1.
         -1   -1    0    0    0  501 -0.00000000000E+00 -0.00000000000E+00 -0.11229671063E+02  0.11229671063E+02  0.00000000000E+00 0.  1.
         25    1    1    2    0    0 -0.24544801941E+02  0.30700607188E+02  0.83148785033E+03  0.84102141461E+03  0.12000000000E+03 0.  0.
         25    1    1    2    0    0  0.24544801941E+02 -0.30700607188E+02  0.61032686149E+03  0.62325263933E+03  0.12000000000E+03 0.  0.
<mgrwt>
<rscale>  0 0.25547767E+03</rscale>
<asrwt>0</asrwt>
<pdfrwt beam="1">  1        1 0.22354514E+00 0.25547767E+03</pdfrwt>
<pdfrwt beam="2">  1       -1 0.17276429E-02 0.25547767E+03</pdfrwt>
<totfact> 0.65225260E+03</totfact>
</mgrwt>
</event>
<event>
 4    1  0.1749575E-004  0.2430291E+03  0.7818608E-02  0.1117791E+00
          4   -1    0    0  501    0  0.00000000000E+00  0.00000000000E+00  0.18516113407E+03  0.18516113407E+03  0.00000000000E+00 0.  1.
         -4   -1    0    0    0  501 -0.00000000000E+00 -0.00000000000E+00 -0.79745570251E+02  0.79745570251E+02  0.00000000000E+00 0.  1.
         25    1    1    2    0    0  0.23767196394E+01 -0.57549931217E+00  0.32031831983E+02  0.12422567470E+03  0.12000000000E+03 0.  0.
         25    1    1    2    0    0 -0.23767196394E+01  0.57549931217E+00  0.73383731835E+02  0.14068102962E+03  0.12000000000E+03 0.  0.
<mgrwt>
<rscale>  0 0.24302905E+03</rscale>
<asrwt>0</asrwt>
<pdfrwt beam="1">  1        4 0.28486328E-01 0.24302905E+03</pdfrwt>
<pdfrwt beam="2">  1       -4 0.12268549E-01 0.24302905E+03</pdfrwt>
<totfact> 0.11562101E+03</totfact>
</mgrwt>
</event>
<event>
 4    1  0.1749575E-004  0.2823577E+03  0.7818608E-02  0.1094408E+00
          2   -1    0    0  501    0  0.00000000000E+00  0.00000000000E+00  0.37483678663E+03  0.37483678663E+03  0.00000000000E+00 0. -1.
         -2   -1    0    0    0  501 -0.00000000000E+00 -0.00000000000E+00 -0.53173720094E+02  0.53173720094E+02  0.00000000000E+00 0. -1.
         25    1    1    2    0    0 -0.67583284085E+02  0.52408818075E+01  0.11444322610E+03  0.17914301307E+03  0.12000000000E+03 0.  0.
         25    1    1    2    0    0  0.67583284085E+02 -0.52408818075E+01  0.20721984043E+03  0.24886749366E+03  0.12000000000E+03 0.  0.
<mgrwt>
<rscale>  0 0.28235769E+03</rscale>
<asrwt>0</asrwt>
<pdfrwt beam="1">  1        2 0.57667196E-01 0.28235769E+03</pdfrwt>
<pdfrwt beam="2">  1       -2 0.81805725E-02 0.28235769E+03</pdfrwt>
<totfact> 0.77842850E+03</totfact>
</mgrwt>
</event>
<event>
 4    1  0.1749575E-004  0.2443921E+03  0.7818608E-02  0.1116901E+00
         -1   -1    0    0    0  501 -0.00000000000E+00  0.00000000000E+00  0.16066906307E+02  0.16066906307E+02  0.00000000000E+00 0.  1.
          1   -1    0    0  501    0  0.00000000000E+00 -0.00000000000E+00 -0.92935556627E+03  0.92935556627E+03  0.00000000000E+00 0.  1.
         25    1    1    2    0    0  0.13172833929E+02  0.10893876859E+02 -0.39675568250E+03  0.41485813443E+03  0.12000000000E+03 0.  0.
         25    1    1    2    0    0 -0.13172833929E+02 -0.10893876859E+02 -0.51653297747E+03  0.53056433815E+03  0.12000000000E+03 0.  0.
<mgrwt>
<rscale>  0 0.24439205E+03</rscale>
<asrwt>0</asrwt>
<pdfrwt beam="1">  1        1 0.14297776E+00 0.24439205E+03</pdfrwt>
<pdfrwt beam="2">  1       -1 0.24718320E-02 0.24439205E+03</pdfrwt>
<totfact> 0.90394865E+03</totfact>
</mgrwt>
</event>
<event>
 4    1  0.1749575E-004  0.2421251E+03  0.7818608E-02  0.1118385E+00
         -1   -1    0    0    0  501 -0.00000000000E+00  0.00000000000E+00  0.32857567363E+03  0.32857567363E+03  0.00000000000E+00 0. -1.
          1   -1    0    0  501    0  0.00000000000E+00 -0.00000000000E+00 -0.44605068062E+02  0.44605068062E+02  0.00000000000E+00 0. -1.
         25    1    1    2    0    0 -0.10439259047E+02  0.11367586227E+02  0.13545711961E+03  0.18162277225E+03  0.12000000000E+03 0.  0.
         25    1    1    2    0    0  0.10439259047E+02 -0.11367586227E+02  0.14851348596E+03  0.19155796944E+03  0.12000000000E+03 0.  0.
<mgrwt>
<rscale>  0 0.24212509E+03</rscale>
<asrwt>0</asrwt>
<pdfrwt beam="1">  1        1 0.68623184E-02 0.24212509E+03</pdfrwt>
<pdfrwt beam="2">  1       -1 0.50550102E-01 0.24212509E+03</pdfrwt>
<totfact> 0.42753501E+03</totfact>
</mgrwt>
</event>
<event>
 4    1  0.1749575E-004  0.2601852E+03  0.7818608E-02  0.1107032E+00
         -2   -1    0    0    0  501 -0.00000000000E+00  0.00000000000E+00  0.98160981836E+02  0.98160981836E+02  0.00000000000E+00 0. -1.
          2   -1    0    0  501    0  0.00000000000E+00 -0.00000000000E+00 -0.17241154043E+03  0.17241154043E+03  0.00000000000E+00 0. -1.
         25    1    1    2    0    0 -0.20034057311E+02 -0.34978144598E+02 -0.68309995531E+02  0.14384397638E+03  0.12000000000E+03 0.  0.
         25    1    1    2    0    0  0.20034057311E+02  0.34978144598E+02 -0.59405630602E+01  0.12672854588E+03  0.12000000000E+03 0.  0.
<mgrwt>
<rscale>  0 0.26018521E+03</rscale>
<asrwt>0</asrwt>
<pdfrwt beam="1">  1        2 0.26524852E-01 0.26018521E+03</pdfrwt>
<pdfrwt beam="2">  1       -2 0.15101690E-01 0.26018521E+03</pdfrwt>
<totfact> 0.67355082E+03</totfact>
</mgrwt>
</event>
<event>
 4    1  0.1749575E-004  0.2584942E+03  0.7818608E-02  0.1108051E+00
         -2   -1    0    0    0  501 -0.00000000000E+00  0.00000000000E+00  0.24827049206E+02  0.24827049206E+02  0.00000000000E+00 0.  1.
          2   -1    0    0  501    0  0.00000000000E+00 -0.00000000000E+00 -0.67284743411E+03  0.67284743411E+03  0.00000000000E+00 0.  1.
         25    1    1    2    0    0  0.15045548946E+02  0.22165922972E+02 -0.43153454301E+03  0.44870899087E+03  0.12000000000E+03 0.  0.
         25    1    1    2    0    0 -0.15045548946E+02 -0.22165922972E+02 -0.21648584190E+03  0.24896549244E+03  0.12000000000E+03 0.  0.
<mgrwt>
<rscale>  0 0.25849423E+03</rscale>
<asrwt>0</asrwt>
<pdfrwt beam="1">  1        2 0.10351498E+00 0.25849423E+03</pdfrwt>
<pdfrwt beam="2">  1       -2 0.38195463E-02 0.25849423E+03</pdfrwt>
<totfact> 0.12870425E+04</totfact>
</mgrwt>
</event>
<event>
 4    1  0.1749575E-004  0.2553068E+03  0.7818608E-02  0.1109996E+00
          1   -1    0    0  501    0  0.00000000000E+00  0.00000000000E+00  0.31583207112E+02  0.31583207112E+02  0.00000000000E+00 0. -1.
         -1   -1    0    0    0  501 -0.00000000000E+00 -0.00000000000E+00 -0.51595093549E+03  0.51595093549E+03  0.00000000000E+00 0. -1.
         25    1    1    2    0    0 -0.51578700021E+01 -0.40971200058E+02 -0.21261134128E+03  0.24760618994E+03  0.12000000000E+03 0.  0.
         25    1    1    2    0    0  0.51578700021E+01  0.40971200058E+02 -0.27175638710E+03  0.29992795266E+03  0.12000000000E+03 0.  0.
<mgrwt>
<rscale>  0 0.25530676E+03</rscale>
<asrwt>0</asrwt>
<pdfrwt beam="1">  1        1 0.48589555E-02 0.25530676E+03</pdfrwt>
<pdfrwt beam="2">  1       -1 0.79377058E-01 0.25530676E+03</pdfrwt>
<totfact> 0.28576717E+03</totfact>
</mgrwt>
</event>
<event>
 4    1  0.1749575E-004  0.3347925E+03  0.7818608E-02  0.1069036E+00
          2   -1    0    0  501    0  0.00000000000E+00  0.00000000000E+00  0.18904445411E+04  0.18904445411E+04  0.00000000000E+00 0. -1.
         -2   -1    0    0    0  501 -0.00000000000E+00 -0.00000000000E+00 -0.14822706384E+02  0.14822706384E+02  0.00000000000E+00 0. -1.
         25    1    1    2    0    0  0.77341440465E+02  0.75425487830E+02  0.68645636820E+03  0.70519007939E+03  0.12000000000E+03 0.  0.
         25    1    1    2    0    0 -0.77341440465E+02 -0.75425487830E+02  0.11891654665E+04  0.12000771681E+04  0.12000000000E+03 0.  0.
<mgrwt>
<rscale>  0 0.33479250E+03</rscale>
<asrwt>0</asrwt>
<pdfrwt beam="1">  1        2 0.29083743E+00 0.33479250E+03</pdfrwt>
<pdfrwt beam="2">  1       -2 0.22804179E-02 0.33479250E+03</pdfrwt>
<totfact> 0.54045280E+03</totfact>
</mgrwt>
</event>
<event>
 4    1  0.1749575E-004  0.2608590E+03  0.7818608E-02  0.1106628E+00
          1   -1    0    0  501    0  0.00000000000E+00  0.00000000000E+00  0.97027287466E+03  0.97027287466E+03  0.00000000000E+00 0.  1.
         -1   -1    0    0    0  501 -0.00000000000E+00 -0.00000000000E+00 -0.17533062098E+02  0.17533062098E+02  0.00000000000E+00 0.  1.
         25    1    1    2    0    0 -0.43752071848E+02  0.24471735284E+02  0.43874085747E+03  0.45760971321E+03  0.12000000000E+03 0.  0.
         25    1    1    2    0    0  0.43752071848E+02 -0.24471735284E+02  0.51399895510E+03  0.53019622355E+03  0.12000000000E+03 0.  0.
<mgrwt>
<rscale>  0 0.26085900E+03</rscale>
<asrwt>0</asrwt>
<pdfrwt beam="1">  1        1 0.14927271E+00 0.26085900E+03</pdfrwt>
<pdfrwt beam="2">  1       -1 0.26973949E-02 0.26085900E+03</pdfrwt>
<totfact> 0.74144079E+03</totfact>
</mgrwt>
</event>
<event>
 4    1  0.1749575E-004  0.2981778E+03  0.7818608E-02  0.1086155E+00
          1   -1    0    0  501    0  0.00000000000E+00  0.00000000000E+00  0.21471727537E+04  0.21471727537E+04  0.00000000000E+00 0. -1.
         -1   -1    0    0    0  501 -0.00000000000E+00 -0.00000000000E+00 -0.10351984067E+02  0.10351984067E+02  0.00000000000E+00 0. -1.
         25    1    1    2    0    0 -0.72583272828E+02  0.11306164697E+02  0.14251925212E+04  0.14321207642E+04  0.12000000000E+03 0.  0.
         25    1    1    2    0    0  0.72583272828E+02 -0.11306164697E+02  0.71162824842E+03  0.72540397352E+03  0.12000000000E+03 0.  0.
<mgrwt>
<rscale>  0 0.29817779E+03</rscale>
<asrwt>0</asrwt>
<pdfrwt beam="1">  1        1 0.33033392E+00 0.29817779E+03</pdfrwt>
<pdfrwt beam="2">  1       -1 0.15926146E-02 0.29817779E+03</pdfrwt>
<totfact> 0.25862009E+03</totfact>
</mgrwt>
</event>
<event>
 4    1  0.1749575E-004  0.2547646E+03  0.7818608E-02  0.1110330E+00
         -2   -1    0    0    0  501 -0.00000000000E+00  0.00000000000E+00  0.75340125716E+01  0.75340125716E+01  0.00000000000E+00 0. -1.
          2   -1    0    0  501    0  0.00000000000E+00 -0.00000000000E+00 -0.21537329820E+04  0.21537329820E+04  0.00000000000E+00 0. -1.
         25    1    1    2    0    0 -0.26457810354E+02 -0.33280923808E+02 -0.10364970875E+04  0.10442862864E+04  0.12000000000E+03 0.  0.
         25    1    1    2    0    0  0.26457810354E+02  0.33280923808E+02 -0.11097018820E+04  0.11169807082E+04  0.12000000000E+03 0.  0.
<mgrwt>
<rscale>  0 0.25476461E+03</rscale>
<asrwt>0</asrwt>
<pdfrwt beam="1">  1        2 0.33134375E+00 0.25476461E+03</pdfrwt>
<pdfrwt beam="2">  1       -2 0.11590781E-02 0.25476461E+03</pdfrwt>
<totfact> 0.10584175E+04</totfact>
</mgrwt>
</event>
<event>
 4    1  0.1749575E-004  0.5655329E+03  0.7818608E-02  0.9979613E-01
          2   -1    0    0  501    0  0.00000000000E+00  0.00000000000E+00  0.80107115654E+03  0.80107115654E+03  0.00000000000E+00 0.  1.
         -2   -1    0    0    0  501 -0.00000000000E+00 -0.00000000000E+00 -0.99812450206E+02  0.99812450206E+02  0.00000000000E+00 0.  1.
         25    1    1    2    0    0 -0.14239495297E+03  0.63212873261E+02  0.26957249776E+02  0.19849151945E+03  0.12000000000E+03 0.  0.
         25    1    1    2    0    0  0.14239495297E+03 -0.63212873261E+02  0.67430145656E+03  0.70239208730E+03  0.12000000000E+03 0.  0.
<mgrwt>
<rscale>  0 0.56553293E+03</rscale>
<asrwt>0</asrwt>
<pdfrwt beam="1">  1        2 0.12324171E+00 0.56553293E+03</pdfrwt>
<pdfrwt beam="2">  1       -2 0.15355762E-01 0.56553293E+03</pdfrwt>
<totfact> 0.11632500E+03</totfact>
</mgrwt>
</event>
<event>
 4    1  0.1749575E-004  0.2539448E+03  0.7818608E-02  0.1110837E+00
          3   -1    0    0  501    0  0.00000000000E+00  0.00000000000E+00  0.70064878419E+03  0.70064878419E+03  0.00000000000E+00 0.  1.
         -3   -1    0    0    0  501 -0.00000000000E+00 -0.00000000000E+00 -0.23010089224E+02  0.23010089224E+02  0.00000000000E+00 0.  1.
         25    1    1    2    0    0  0.91195503430E+00 -0.41377443824E+02  0.34739989219E+03  0.36986431243E+03  0.12000000000E+03 0.  0.
         25    1    1    2    0    0 -0.91195503430E+00  0.41377443824E+02  0.33023880278E+03  0.35379456098E+03  0.12000000000E+03 0.  0.
<mgrwt>
<rscale>  0 0.25394481E+03</rscale>
<asrwt>0</asrwt>
<pdfrwt beam="1">  1        3 0.10779210E+00 0.25394481E+03</pdfrwt>
<pdfrwt beam="2">  1       -3 0.35400143E-02 0.25394481E+03</pdfrwt>
<totfact> 0.75537495E+02</totfact>
</mgrwt>
</event>
<event>
 4    1  0.1749575E-004  0.3245462E+03  0.7818608E-02  0.1073576E+00
          4   -1    0    0  501    0  0.00000000000E+00  0.00000000000E+00  0.16052240190E+03  0.16052240190E+03  0.00000000000E+00 0. -1.
         -4   -1    0    0    0  501 -0.00000000000E+00 -0.00000000000E+00 -0.16404291021E+03  0.16404291021E+03  0.00000000000E+00 0. -1.
         25    1    1    2    0    0  0.10525124191E+03  0.10512928562E+02  0.25521680180E+02  0.16198673325E+03  0.12000000000E+03 0.  0.
         25    1    1    2    0    0 -0.10525124191E+03 -0.10512928562E+02 -0.29042188490E+02  0.16257857885E+03  0.12000000000E+03 0.  0.
<mgrwt>
<rscale>  0 0.32454622E+03</rscale>
<asrwt>0</asrwt>
<pdfrwt beam="1">  1        4 0.24695754E-01 0.32454622E+03</pdfrwt>
<pdfrwt beam="2">  1       -4 0.25237371E-01 0.32454622E+03</pdfrwt>
<totfact> 0.43118012E+02</totfact>
</mgrwt>
</event>
<event>
 4    1  0.1749575E-004  0.2734966E+03  0.7818608E-02  0.1099295E+00
         -2   -1    0    0    0  501 -0.00000000000E+00  0.00000000000E+00  0.57117425368E+02  0.57117425368E+02  0.00000000000E+00 0.  1.
          2   -1    0    0  501    0  0.00000000000E+00 -0.00000000000E+00 -0.32739748865E+03  0.32739748865E+03  0.00000000000E+00 0.  1.
         25    1    1    2    0    0 -0.12327383379E+02 -0.19761914409E+02 -0.48958002763E+02  0.13167909354E+03  0.12000000000E+03 0.  0.
         25    1    1    2    0    0  0.12327383379E+02  0.19761914409E+02 -0.22132206052E+03  0.25283582048E+03  0.12000000000E+03 0.  0.
<mgrwt>
<rscale>  0 0.27349663E+03</rscale>
<asrwt>0</asrwt>
<pdfrwt beam="1">  1        2 0.50368844E-01 0.27349663E+03</pdfrwt>
<pdfrwt beam="2">  1       -2 0.87872963E-02 0.27349663E+03</pdfrwt>
<totfact> 0.80428319E+03</totfact>
</mgrwt>
</event>
<event>
 4    1  0.1749575E-004  0.3665113E+03  0.7818608E-02  0.1056035E+00
         -2   -1    0    0    0  501 -0.00000000000E+00  0.00000000000E+00  0.39912259140E+03  0.39912259140E+03  0.00000000000E+00 0.  1.
          2   -1    0    0  501    0  0.00000000000E+00 -0.00000000000E+00 -0.84141171236E+02  0.84141171236E+02  0.00000000000E+00 0.  1.
         25    1    1    2    0    0 -0.13484293388E+03 -0.22795454955E+02  0.18639052179E+03  0.26046818654E+03  0.12000000000E+03 0.  0.
         25    1    1    2    0    0  0.13484293388E+03  0.22795454955E+02  0.12859089838E+03  0.22279557610E+03  0.12000000000E+03 0.  0.
<mgrwt>
<rscale>  0 0.36651135E+03</rscale>
<asrwt>0</asrwt>
<pdfrwt beam="1">  1        2 0.12944796E-01 0.36651135E+03</pdfrwt>
<pdfrwt beam="2">  1       -2 0.61403474E-01 0.36651135E+03</pdfrwt>
<totfact> 0.11805311E+03</totfact>
</mgrwt>
</event>
<event>
 4    1  0.1749575E-004  0.2863509E+03  0.7818608E-02  0.1092270E+00
         -2   -1    0    0    0  501 -0.00000000000E+00  0.00000000000E+00  0.20263165323E+03  0.20263165323E+03  0.00000000000E+00 0.  1.
          2   -1    0    0  501    0  0.00000000000E+00 -0.00000000000E+00 -0.10116488975E+03  0.10116488975E+03  0.00000000000E+00 0.  1.
         25    1    1    2    0    0  0.27906985298E+02  0.66726323644E+02  0.81990276923E+02  0.16233794259E+03  0.12000000000E+03 0.  0.
         25    1    1    2    0    0 -0.27906985298E+02 -0.66726323644E+02  0.19476486549E+02  0.14145860039E+03  0.12000000000E+03 0.  0.
<mgrwt>
<rscale>  0 0.28635090E+03</rscale>
<asrwt>0</asrwt>
<pdfrwt beam="1">  1        2 0.15563829E-01 0.28635090E+03</pdfrwt>
<pdfrwt beam="2">  1       -2 0.31174100E-01 0.28635090E+03</pdfrwt>
<totfact> 0.35419480E+03</totfact>
</mgrwt>
</event>
<event>
 4    1  0.1749575E-004  0.2801020E+03  0.7818608E-02  0.1095633E+00
         -2   -1    0    0    0  501 -0.00000000000E+00  0.00000000000E+00  0.10134532453E+03  0.10134532453E+03  0.00000000000E+00 0. -1.
          2   -1    0    0  501    0  0.00000000000E+00 -0.00000000000E+00 -0.19353904197E+03  0.19353904197E+03  0.00000000000E+00 0. -1.
         25    1    1    2    0    0 -0.55106971287E+02 -0.10519404377E+02  0.17649515163E+01  0.13247849337E+03  0.12000000000E+03 0.  0.
         25    1    1    2    0    0  0.55106971287E+02  0.10519404377E+02 -0.93958668955E+02  0.16240587312E+03  0.12000000000E+03 0.  0.
<mgrwt>
<rscale>  0 0.28010196E+03</rscale>
<asrwt>0</asrwt>
<pdfrwt beam="1">  1        2 0.29775237E-01 0.28010196E+03</pdfrwt>
<pdfrwt beam="2">  1       -2 0.15591588E-01 0.28010196E+03</pdfrwt>
<totfact> 0.56391867E+03</totfact>
</mgrwt>
</event>
<event>
 4    1  0.1749575E-004  0.2453701E+03  0.7818608E-02  0.1116266E+00
         -2   -1    0    0    0  501 -0.00000000000E+00  0.00000000000E+00  0.11986504754E+02  0.11986504754E+02  0.00000000000E+00 0.  1.
          2   -1    0    0  501    0  0.00000000000E+00 -0.00000000000E+00 -0.12557135911E+04  0.12557135911E+04  0.00000000000E+00 0.  1.
         25    1    1    2    0    0 -0.74655260157E+00  0.25492448074E+02 -0.62751058112E+03  0.63939029682E+03  0.12000000000E+03 0.  0.
         25    1    1    2    0    0  0.74655260157E+00 -0.25492448074E+02 -0.61621650525E+03  0.62830979906E+03  0.12000000000E+03 0.  0.
<mgrwt>
<rscale>  0 0.24537006E+03</rscale>
<asrwt>0</asrwt>
<pdfrwt beam="1">  1        2 0.19318663E+00 0.24537006E+03</pdfrwt>
<pdfrwt beam="2">  1       -2 0.18440784E-02 0.24537006E+03</pdfrwt>
<totfact> 0.16091871E+04</totfact>
</mgrwt>
</event>
<event>
 4    1  0.1749575E-004  0.2646979E+03  0.7818608E-02  0.1104353E+00
          2   -1    0    0  501    0  0.00000000000E+00  0.00000000000E+00  0.35586126394E+03  0.35586126394E+03  0.00000000000E+00 0.  1.
         -2   -1    0    0    0  501 -0.00000000000E+00 -0.00000000000E+00 -0.49222133141E+02  0.49222133141E+02  0.00000000000E+00 0.  1.
         25    1    1    2    0    0 -0.38430164152E+01 -0.35728383982E+02  0.21869597447E+03  0.25203018757E+03  0.12000000000E+03 0.  0.
         25    1    1    2    0    0  0.38430164152E+01  0.35728383982E+02  0.87943156336E+02  0.15305320952E+03  0.12000000000E+03 0.  0.
<mgrwt>
<rscale>  0 0.26469794E+03</rscale>
<asrwt>0</asrwt>
<pdfrwt beam="1">  1        2 0.54747885E-01 0.26469794E+03</pdfrwt>
<pdfrwt beam="2">  1       -2 0.75726361E-02 0.26469794E+03</pdfrwt>
<totfact> 0.92651639E+03</totfact>
</mgrwt>
</event>
<event>
 4    1  0.1749575E-004  0.3755895E+03  0.7818608E-02  0.1052576E+00
          2   -1    0    0  501    0  0.00000000000E+00  0.00000000000E+00  0.19682126844E+04  0.19682126844E+04  0.00000000000E+00 0.  1.
         -2   -1    0    0    0  501 -0.00000000000E+00 -0.00000000000E+00 -0.17918223206E+02  0.17918223206E+02  0.00000000000E+00 0.  1.
         25    1    1    2    0    0 -0.86699002781E+02  0.90924120900E+02  0.13521571644E+04  0.13632728671E+04  0.12000000000E+03 0.  0.
         25    1    1    2    0    0  0.86699002781E+02 -0.90924120900E+02  0.59813729675E+03  0.62285804049E+03  0.12000000000E+03 0.  0.
<mgrwt>
<rscale>  0 0.37558953E+03</rscale>
<asrwt>0</asrwt>
<pdfrwt beam="1">  1        2 0.30280178E+00 0.37558953E+03</pdfrwt>
<pdfrwt beam="2">  1       -2 0.27566513E-02 0.37558953E+03</pdfrwt>
<totfact> 0.37011056E+03</totfact>
</mgrwt>
</event>
<event>
 4    1  0.1749575E-004  0.2657858E+03  0.7818608E-02  0.1103716E+00
          2   -1    0    0  501    0  0.00000000000E+00  0.00000000000E+00  0.93099739996E+03  0.93099739996E+03  0.00000000000E+00 0. -1.
         -2   -1    0    0    0  501 -0.00000000000E+00 -0.00000000000E+00 -0.18969458479E+02  0.18969458479E+02  0.00000000000E+00 0. -1.
         25    1    1    2    0    0  0.17111516927E+02 -0.51215331306E+02  0.52237282522E+03  0.53869210381E+03  0.12000000000E+03 0.  0.
         25    1    1    2    0    0 -0.17111516927E+02  0.51215331306E+02  0.38965511626E+03  0.41127475463E+03  0.12000000000E+03 0.  0.
<mgrwt>
<rscale>  0 0.26578575E+03</rscale>
<asrwt>0</asrwt>
<pdfrwt beam="1">  1        2 0.14323033E+00 0.26578575E+03</pdfrwt>
<pdfrwt beam="2">  1       -2 0.29183790E-02 0.26578575E+03</pdfrwt>
<totfact> 0.12748384E+04</totfact>
</mgrwt>
</event>
<event>
 4    1  0.1749575E-004  0.4763828E+03  0.7818608E-02  0.1020134E+00
         -2   -1    0    0    0  501 -0.00000000000E+00  0.00000000000E+00  0.20670230554E+03  0.20670230554E+03  0.00000000000E+00 0. -1.
          2   -1    0    0  501    0  0.00000000000E+00 -0.00000000000E+00 -0.27447753645E+03  0.27447753645E+03  0.00000000000E+00 0. -1.
         25    1    1    2    0    0  0.68633416416E+02  0.11019574937E+03 -0.19512427060E+03  0.26330045577E+03  0.12000000000E+03 0.  0.
         25    1    1    2    0    0 -0.68633416416E+02 -0.11019574937E+03  0.12734903969E+03  0.21787938622E+03  0.12000000000E+03 0.  0.
<mgrwt>
<rscale>  0 0.47638279E+03</rscale>
<asrwt>0</asrwt>
<pdfrwt beam="1">  1        2 0.42227313E-01 0.47638279E+03</pdfrwt>
<pdfrwt beam="2">  1       -2 0.31800355E-01 0.47638279E+03</pdfrwt>
<totfact> 0.11138951E+03</totfact>
</mgrwt>
</event>
<event>
 4    1  0.1749575E-004  0.2797980E+03  0.7818608E-02  0.1095799E+00
         -1   -1    0    0    0  501 -0.00000000000E+00  0.00000000000E+00  0.41425716943E+02  0.41425716943E+02  0.00000000000E+00 0. -1.
          1   -1    0    0  501    0  0.00000000000E+00 -0.00000000000E+00 -0.47245350632E+03  0.47245350632E+03  0.00000000000E+00 0. -1.
         25    1    1    2    0    0  0.18539864715E+02  0.49025458033E+02 -0.30594709090E+03  0.33279249473E+03  0.12000000000E+03 0.  0.
         25    1    1    2    0    0 -0.18539864715E+02 -0.49025458033E+02 -0.12508069848E+03  0.18108672854E+03  0.12000000000E+03 0.  0.
<mgrwt>
<rscale>  0 0.27979796E+03</rscale>
<asrwt>0</asrwt>
<pdfrwt beam="1">  1        1 0.72685155E-01 0.27979796E+03</pdfrwt>
<pdfrwt beam="2">  1       -1 0.63731872E-02 0.27979796E+03</pdfrwt>
<totfact> 0.59126139E+03</totfact>
</mgrwt>
</event>
<event>
 4    1  0.1749575E-004  0.2774047E+03  0.7818608E-02  0.1097115E+00
         -2   -1    0    0    0  501 -0.00000000000E+00  0.00000000000E+00  0.37940597968E+02  0.37940597968E+02  0.00000000000E+00 0.  1.
          2   -1    0    0  501    0  0.00000000000E+00 -0.00000000000E+00 -0.50706472386E+03  0.50706472386E+03  0.00000000000E+00 0.  1.
         25    1    1    2    0    0  0.24018507261E+02 -0.36099349217E+02 -0.34142008339E+03  0.36448281859E+03  0.12000000000E+03 0.  0.
         25    1    1    2    0    0 -0.24018507261E+02  0.36099349217E+02 -0.12770404251E+03  0.18052250324E+03  0.12000000000E+03 0.  0.
<mgrwt>
<rscale>  0 0.27740468E+03</rscale>
<asrwt>0</asrwt>
<pdfrwt beam="1">  1        2 0.78009952E-01 0.27740468E+03</pdfrwt>
<pdfrwt beam="2">  1       -2 0.58370155E-02 0.27740468E+03</pdfrwt>
<totfact> 0.94122079E+03</totfact>
</mgrwt>
</event>
<event>
 4    1  0.1749575E-004  0.3404700E+03  0.7818608E-02  0.1066596E+00
          2   -1    0    0  501    0  0.00000000000E+00  0.00000000000E+00  0.36151078227E+03  0.36151078227E+03  0.00000000000E+00 0.  1.
         -2   -1    0    0    0  501 -0.00000000000E+00 -0.00000000000E+00 -0.80163448423E+02  0.80163448423E+02  0.00000000000E+00 0.  1.
         25    1    1    2    0    0  0.76900695725E+02 -0.90127817113E+02  0.11043885079E+03  0.20157747936E+03  0.12000000000E+03 0.  0.
         25    1    1    2    0    0 -0.76900695725E+02  0.90127817113E+02  0.17090848305E+03  0.24009675133E+03  0.12000000000E+03 0.  0.
<mgrwt>
<rscale>  0 0.34046997E+03</rscale>
<asrwt>0</asrwt>
<pdfrwt beam="1">  1        2 0.55617042E-01 0.34046997E+03</pdfrwt>
<pdfrwt beam="2">  1       -2 0.12332838E-01 0.34046997E+03</pdfrwt>
<totfact> 0.42288700E+03</totfact>
</mgrwt>
</event>
<event>
 4    1  0.1749575E-004  0.2568256E+03  0.7818608E-02  0.1109066E+00
         -1   -1    0    0    0  501 -0.00000000000E+00  0.00000000000E+00  0.14042629348E+03  0.14042629348E+03  0.00000000000E+00 0.  1.
          1   -1    0    0  501    0  0.00000000000E+00 -0.00000000000E+00 -0.11742702324E+03  0.11742702324E+03  0.00000000000E+00 0.  1.
         25    1    1    2    0    0  0.18754206677E+01 -0.35190694335E+02  0.40735564658E+02  0.13153436204E+03  0.12000000000E+03 0.  0.
         25    1    1    2    0    0 -0.18754206677E+01  0.35190694335E+02 -0.17736294412E+02  0.12631895467E+03  0.12000000000E+03 0.  0.
<mgrwt>
<rscale>  0 0.25682556E+03</rscale>
<asrwt>0</asrwt>
<pdfrwt beam="1">  1        1 0.18065696E-01 0.25682556E+03</pdfrwt>
<pdfrwt beam="2">  1       -1 0.21604045E-01 0.25682556E+03</pdfrwt>
<totfact> 0.51249157E+03</totfact>
</mgrwt>
</event>
<event>
 4    1  0.1749575E-004  0.2999030E+03  0.7818608E-02  0.1085289E+00
         -2   -1    0    0    0  501 -0.00000000000E+00  0.00000000000E+00  0.26358715224E+02  0.26358715224E+02  0.00000000000E+00 0.  1.
          2   -1    0    0  501    0  0.00000000000E+00 -0.00000000000E+00 -0.85305573671E+03  0.85305573671E+03  0.00000000000E+00 0.  1.
         25    1    1    2    0    0 -0.66913069744E+02  0.60049603381E+02 -0.40905941849E+03  0.43567524789E+03  0.12000000000E+03 0.  0.
         25    1    1    2    0    0  0.66913069744E+02 -0.60049603381E+02 -0.41763760300E+03  0.44373920404E+03  0.12000000000E+03 0.  0.
<mgrwt>
<rscale>  0 0.29990301E+03</rscale>
<asrwt>0</asrwt>
<pdfrwt beam="1">  1        2 0.13123936E+00 0.29990301E+03</pdfrwt>
<pdfrwt beam="2">  1       -2 0.40551865E-02 0.29990301E+03</pdfrwt>
<totfact> 0.87884650E+03</totfact>
</mgrwt>
</event>
<event>
 4    1  0.1749575E-004  0.3585079E+03  0.7818608E-02  0.1059176E+00
         -2   -1    0    0    0  501 -0.00000000000E+00  0.00000000000E+00  0.14840805149E+03  0.14840805149E+03  0.00000000000E+00 0.  1.
          2   -1    0    0  501    0  0.00000000000E+00 -0.00000000000E+00 -0.21651096143E+03  0.21651096143E+03  0.00000000000E+00 0.  1.
         25    1    1    2    0    0 -0.23428188198E+02 -0.57537599278E+02  0.85836462120E+02  0.16008545706E+03  0.12000000000E+03 0.  0.
         25    1    1    2    0    0  0.23428188198E+02  0.57537599278E+02 -0.15393937206E+03  0.20483355585E+03  0.12000000000E+03 0.  0.
<mgrwt>
<rscale>  0 0.35850785E+03</rscale>
<asrwt>0</asrwt>
<pdfrwt beam="1">  1        2 0.33309378E-01 0.35850785E+03</pdfrwt>
<pdfrwt beam="2">  1       -2 0.22832008E-01 0.35850785E+03</pdfrwt>
<totfact> 0.26188093E+03</totfact>
</mgrwt>
</event>
<event>
 4    1  0.1749575E-004  0.2641243E+03  0.7818608E-02  0.1104690E+00
         -2   -1    0    0    0  501 -0.00000000000E+00  0.00000000000E+00  0.64791951576E+02  0.64791951576E+02  0.00000000000E+00 0.  1.
          2   -1    0    0  501    0  0.00000000000E+00 -0.00000000000E+00 -0.26917562623E+03  0.26917562623E+03  0.00000000000E+00 0.  1.
         25    1    1    2    0    0 -0.47634877206E+02  0.26922387949E+02 -0.93567916615E+02  0.16170606519E+03  0.12000000000E+03 0.  0.
         25    1    1    2    0    0  0.47634877206E+02 -0.26922387949E+02 -0.11081575804E+03  0.17226151262E+03  0.12000000000E+03 0.  0.
<mgrwt>
<rscale>  0 0.26412432E+03</rscale>
<asrwt>0</asrwt>
<pdfrwt beam="1">  1        2 0.41411635E-01 0.26412432E+03</pdfrwt>
<pdfrwt beam="2">  1       -2 0.99679926E-02 0.26412432E+03</pdfrwt>
<totfact> 0.81228184E+03</totfact>
</mgrwt>
</event>
<event>
 4    1  0.1749575E-004  0.4012006E+03  0.7818608E-02  0.1043365E+00
         -2   -1    0    0    0  501 -0.00000000000E+00  0.00000000000E+00  0.23793198106E+02  0.23793198106E+02  0.00000000000E+00 0.  1.
          2   -1    0    0  501    0  0.00000000000E+00 -0.00000000000E+00 -0.16912595050E+04  0.16912595050E+04  0.00000000000E+00 0.  1.
         25    1    1    2    0    0 -0.70014620215E+02 -0.14458227350E+03 -0.85880244774E+03  0.88190006526E+03  0.12000000000E+03 0.  0.
         25    1    1    2    0    0  0.70014620215E+02  0.14458227350E+03 -0.80866385913E+03  0.83315263783E+03  0.12000000000E+03 0.  0.
<mgrwt>
<rscale>  0 0.40120056E+03</rscale>
<asrwt>0</asrwt>
<pdfrwt beam="1">  1        2 0.26019383E+00 0.40120056E+03</pdfrwt>
<pdfrwt beam="2">  1       -2 0.36604912E-02 0.40120056E+03</pdfrwt>
<totfact> 0.33884510E+03</totfact>
</mgrwt>
</event>
<event>
 4    1  0.1749575E-004  0.2776530E+03  0.7818608E-02  0.1096978E+00
         -1   -1    0    0    0  501 -0.00000000000E+00  0.00000000000E+00  0.69263482257E+01  0.69263482257E+01  0.00000000000E+00 0.  1.
          1   -1    0    0  501    0  0.00000000000E+00 -0.00000000000E+00 -0.27825327118E+04  0.27825327118E+04  0.00000000000E+00 0.  1.
         25    1    1    2    0    0  0.27949574378E+02  0.60493422830E+02 -0.15966552461E+04  0.16025444167E+04  0.12000000000E+03 0.  0.
         25    1    1    2    0    0 -0.27949574378E+02 -0.60493422830E+02 -0.11789511175E+04  0.11869146433E+04  0.12000000000E+03 0.  0.
<mgrwt>
<rscale>  0 0.27765295E+03</rscale>
<asrwt>0</asrwt>
<pdfrwt beam="1">  1        1 0.42808294E+00 0.27765295E+03</pdfrwt>
<pdfrwt beam="2">  1       -1 0.10655896E-02 0.27765295E+03</pdfrwt>
<totfact> 0.17547942E+03</totfact>
</mgrwt>
</event>
<event>
 4    1  0.1749575E-004  0.4701041E+03  0.7818608E-02  0.1021891E+00
          1   -1    0    0  501    0  0.00000000000E+00  0.00000000000E+00  0.14536699018E+04  0.14536699018E+04  0.00000000000E+00 0.  1.
         -1   -1    0    0    0  501 -0.00000000000E+00 -0.00000000000E+00 -0.38006885006E+02  0.38006885006E+02  0.00000000000E+00 0.  1.
         25    1    1    2    0    0 -0.10774446964E+03 -0.13293690197E+03  0.36654677520E+03  0.42194505454E+03  0.12000000000E+03 0.  0.
         25    1    1    2    0    0  0.10774446964E+03  0.13293690197E+03  0.10491162416E+04  0.10697317323E+04  0.12000000000E+03 0.  0.
<mgrwt>
<rscale>  0 0.47010409E+03</rscale>
<asrwt>0</asrwt>
<pdfrwt beam="1">  1        1 0.22364148E+00 0.47010409E+03</pdfrwt>
<pdfrwt beam="2">  1       -1 0.58472142E-02 0.47010409E+03</pdfrwt>
<totfact> 0.10570327E+03</totfact>
</mgrwt>
</event>
<event>
 4    1  0.1749575E-004  0.2752244E+03  0.7818608E-02  0.1098326E+00
         -2   -1    0    0    0  501 -0.00000000000E+00  0.00000000000E+00  0.66467953452E+02  0.66467953452E+02  0.00000000000E+00 0. -1.
          2   -1    0    0  501    0  0.00000000000E+00 -0.00000000000E+00 -0.28490602649E+03  0.28490602649E+03  0.00000000000E+00 0. -1.
         25    1    1    2    0    0 -0.81645458814E+01  0.56772674811E+02 -0.64129861821E+02  0.14765647833E+03  0.12000000000E+03 0.  0.
         25    1    1    2    0    0  0.81645458814E+01 -0.56772674811E+02 -0.15430821121E+03  0.20371750161E+03  0.12000000000E+03 0.  0.
<mgrwt>
<rscale>  0 0.27522442E+03</rscale>
<asrwt>0</asrwt>
<pdfrwt beam="1">  1        2 0.43831697E-01 0.27522442E+03</pdfrwt>
<pdfrwt beam="2">  1       -2 0.10225839E-01 0.27522442E+03</pdfrwt>
<totfact> 0.73494174E+03</totfact>
</mgrwt>
</event>
<event>
 4    1  0.1749575E-004  0.2460886E+03  0.7818608E-02  0.1115802E+00
          2   -1    0    0  501    0  0.00000000000E+00  0.00000000000E+00  0.20102957898E+03  0.20102957898E+03  0.00000000000E+00 0. -1.
         -2   -1    0    0    0  501 -0.00000000000E+00 -0.00000000000E+00 -0.75311780284E+02  0.75311780284E+02  0.00000000000E+00 0. -1.
         25    1    1    2    0    0 -0.81081711543E+00 -0.19144088682E+02  0.84538864411E+02  0.14803368925E+03  0.12000000000E+03 0.  0.
         25    1    1    2    0    0  0.81081711543E+00  0.19144088682E+02  0.41178934282E+02  0.12830767001E+03  0.12000000000E+03 0.  0.
<mgrwt>
<rscale>  0 0.24608857E+03</rscale>
<asrwt>0</asrwt>
<pdfrwt beam="1">  1        2 0.30927627E-01 0.24608857E+03</pdfrwt>
<pdfrwt beam="2">  1       -2 0.11586428E-01 0.24608857E+03</pdfrwt>
<totfact> 0.87364904E+03</totfact>
</mgrwt>
</event>
<event>
 4    1  0.1749575E-004  0.3373119E+03  0.7818608E-02  0.1067947E+00
          2   -1    0    0  501    0  0.00000000000E+00  0.00000000000E+00  0.22184509383E+03  0.22184509383E+03  0.00000000000E+00 0. -1.
         -2   -1    0    0    0  501 -0.00000000000E+00 -0.00000000000E+00 -0.12821930398E+03  0.12821930398E+03  0.00000000000E+00 0. -1.
         25    1    1    2    0    0 -0.65441221162E+02 -0.98079614730E+02  0.34417329925E+02  0.17171696728E+03  0.12000000000E+03 0.  0.
         25    1    1    2    0    0  0.65441221162E+02  0.98079614730E+02  0.59208459925E+02  0.17834743054E+03  0.12000000000E+03 0.  0.
<mgrwt>
<rscale>  0 0.33731186E+03</rscale>
<asrwt>0</asrwt>
<pdfrwt beam="1">  1        2 0.34130014E-01 0.33731186E+03</pdfrwt>
<pdfrwt beam="2">  1       -2 0.19726047E-01 0.33731186E+03</pdfrwt>
<totfact> 0.32818629E+03</totfact>
</mgrwt>
</event>
<event>
 4    1  0.1749575E-004  0.2776095E+03  0.7818608E-02  0.1097002E+00
          2   -1    0    0  501    0  0.00000000000E+00  0.00000000000E+00  0.32275905273E+03  0.32275905273E+03  0.00000000000E+00 0.  1.
         -2   -1    0    0    0  501 -0.00000000000E+00 -0.00000000000E+00 -0.59693953689E+02  0.59693953689E+02  0.00000000000E+00 0.  1.
         25    1    1    2    0    0 -0.64173484050E+02 -0.14832642335E+02  0.16320448910E+03  0.21301161610E+03  0.12000000000E+03 0.  0.
         25    1    1    2    0    0  0.64173484050E+02  0.14832642335E+02  0.99860609948E+02  0.16944139032E+03  0.12000000000E+03 0.  0.
<mgrwt>
<rscale>  0 0.27760954E+03</rscale>
<asrwt>0</asrwt>
<pdfrwt beam="1">  1        2 0.49655238E-01 0.27760954E+03</pdfrwt>
<pdfrwt beam="2">  1       -2 0.91836854E-02 0.27760954E+03</pdfrwt>
<totfact> 0.76231058E+03</totfact>
</mgrwt>
</event>
<event>
 4    1  0.1749575E-004  0.3353185E+03  0.7818608E-02  0.1068808E+00
          1   -1    0    0  501    0  0.00000000000E+00  0.00000000000E+00  0.20053459092E+03  0.20053459092E+03  0.00000000000E+00 0. -1.
         -1   -1    0    0    0  501 -0.00000000000E+00 -0.00000000000E+00 -0.14017341228E+03  0.14017341228E+03  0.00000000000E+00 0. -1.
         25    1    1    2    0    0 -0.27515142408E+02 -0.10785239854E+03  0.67101873427E+02  0.17689512246E+03  0.12000000000E+03 0.  0.
         25    1    1    2    0    0  0.27515142408E+02  0.10785239854E+03 -0.67406947868E+01  0.16381288075E+03  0.12000000000E+03 0.  0.
<mgrwt>
<rscale>  0 0.33531846E+03</rscale>
<asrwt>0</asrwt>
<pdfrwt beam="1">  1        1 0.30851475E-01 0.33531846E+03</pdfrwt>
<pdfrwt beam="2">  1       -1 0.21565140E-01 0.33531846E+03</pdfrwt>
<totfact> 0.26089630E+03</totfact>
</mgrwt>
</event>
<event>
 4    1  0.1749575E-004  0.2607595E+03  0.7818608E-02  0.1106688E+00
          3   -1    0    0  501    0  0.00000000000E+00  0.00000000000E+00  0.11455066441E+03  0.11455066441E+03  0.00000000000E+00 0.  1.
         -3   -1    0    0    0  501 -0.00000000000E+00 -0.00000000000E+00 -0.14839616297E+03  0.14839616297E+03  0.00000000000E+00 0.  1.
         25    1    1    2    0    0 -0.16017624937E+02 -0.20264248524E+01  0.31837891210E+02  0.12519713265E+03  0.12000000000E+03 0.  0.
         25    1    1    2    0    0  0.16017624937E+02  0.20264248524E+01 -0.65683389767E+02  0.13774969473E+03  0.12000000000E+03 0.  0.
<mgrwt>
<rscale>  0 0.26075950E+03</rscale>
<asrwt>0</asrwt>
<pdfrwt beam="1">  1        3 0.17623179E-01 0.26075950E+03</pdfrwt>
<pdfrwt beam="2">  1       -3 0.22830179E-01 0.26075950E+03</pdfrwt>
<totfact> 0.12564373E+03</totfact>
</mgrwt>
</event>
<event>
 4    1  0.1749575E-004  0.2721020E+03  0.7818608E-02  0.1100083E+00
          1   -1    0    0  501    0  0.00000000000E+00  0.00000000000E+00  0.17686571810E+03  0.17686571810E+03  0.00000000000E+00 0.  1.
         -1   -1    0    0    0  501 -0.00000000000E+00 -0.00000000000E+00 -0.10465494538E+03  0.10465494538E+03  0.00000000000E+00 0.  1.
         25    1    1    2    0    0  0.63261466122E+01  0.58870217394E+02  0.10675128605E+02  0.13423740536E+03  0.12000000000E+03 0.  0.
         25    1    1    2    0    0 -0.63261466122E+01 -0.58870217394E+02  0.61535644109E+02  0.14728325812E+03  0.12000000000E+03 0.  0.
<mgrwt>
<rscale>  0 0.27210198E+03</rscale>
<asrwt>0</asrwt>
<pdfrwt beam="1">  1        1 0.27210110E-01 0.27210198E+03</pdfrwt>
<pdfrwt beam="2">  1       -1 0.16100761E-01 0.27210198E+03</pdfrwt>
<totfact> 0.48861133E+03</totfact>
</mgrwt>
</event>
<event>
 4    1  0.1749575E-004  0.2741842E+03  0.7818608E-02  0.1098908E+00
         -2   -1    0    0    0  501 -0.00000000000E+00  0.00000000000E+00  0.40054086486E+03  0.40054086486E+03  0.00000000000E+00 0. -1.
          2   -1    0    0  501    0  0.00000000000E+00 -0.00000000000E+00 -0.46922156304E+02  0.46922156304E+02  0.00000000000E+00 0. -1.
         25    1    1    2    0    0  0.13593477540E+01 -0.44708989980E+02  0.96967351037E+02  0.16063439476E+03  0.12000000000E+03 0.  0.
         25    1    1    2    0    0 -0.13593477540E+01  0.44708989980E+02  0.25665135752E+03  0.28682862641E+03  0.12000000000E+03 0.  0.
<mgrwt>
<rscale>  0 0.27418418E+03</rscale>
<asrwt>0</asrwt>
<pdfrwt beam="1">  1        2 0.72187935E-02 0.27418418E+03</pdfrwt>
<pdfrwt beam="2">  1       -2 0.61621669E-01 0.27418418E+03</pdfrwt>
<totfact> 0.24206682E+03</totfact>
</mgrwt>
</event>
<event>
 4    1  0.1749575E-004  0.2936497E+03  0.7818608E-02  0.1088459E+00
          1   -1    0    0  501    0  0.00000000000E+00  0.00000000000E+00  0.87689694720E+02  0.87689694720E+02  0.00000000000E+00 0. -1.
         -1   -1    0    0    0  501 -0.00000000000E+00 -0.00000000000E+00 -0.24583886917E+03  0.24583886917E+03  0.00000000000E+00 0. -1.
         25    1    1    2    0    0 -0.64773592433E+02  0.50355870155E+02 -0.10252291981E+03  0.17788277326E+03  0.12000000000E+03 0.  0.
         25    1    1    2    0    0  0.64773592433E+02 -0.50355870155E+02 -0.55626254638E+02  0.15564579063E+03  0.12000000000E+03 0.  0.
<mgrwt>
<rscale>  0 0.29364969E+03</rscale>
<asrwt>0</asrwt>
<pdfrwt beam="1">  1        1 0.13490723E-01 0.29364969E+03</pdfrwt>
<pdfrwt beam="2">  1       -1 0.37821364E-01 0.29364969E+03</pdfrwt>
<totfact> 0.29214827E+03</totfact>
</mgrwt>
</event>
<event>
 4    1  0.1749575E-004  0.3577079E+03  0.7818608E-02  0.1059495E+00
          2   -1    0    0  501    0  0.00000000000E+00  0.00000000000E+00  0.13344404519E+03  0.13344404519E+03  0.00000000000E+00 0. -1.
         -2   -1    0    0    0  501 -0.00000000000E+00 -0.00000000000E+00 -0.23971653613E+03  0.23971653613E+03  0.00000000000E+00 0. -1.
         25    1    1    2    0    0 -0.82995703634E+02  0.79568032049E+02 -0.12209308723E+03  0.20621852607E+03  0.12000000000E+03 0.  0.
         25    1    1    2    0    0  0.82995703634E+02 -0.79568032049E+02  0.15820596281E+02  0.16694205525E+03  0.12000000000E+03 0.  0.
<mgrwt>
<rscale>  0 0.35770795E+03</rscale>
<asrwt>0</asrwt>
<pdfrwt beam="1">  1        2 0.20529853E-01 0.35770795E+03</pdfrwt>
<pdfrwt beam="2">  1       -2 0.36879467E-01 0.35770795E+03</pdfrwt>
<totfact> 0.18847178E+03</totfact>
</mgrwt>
</event>
<event>
 4    1  0.1749575E-004  0.3071499E+03  0.7818608E-02  0.1081720E+00
         -2   -1    0    0    0  501 -0.00000000000E+00  0.00000000000E+00  0.78783288039E+01  0.78783288039E+01  0.00000000000E+00 0.  1.
          2   -1    0    0  501    0  0.00000000000E+00 -0.00000000000E+00 -0.29936883522E+04  0.29936883522E+04  0.00000000000E+00 0.  1.
         25    1    1    2    0    0 -0.36688566673E+02  0.75833372460E+02 -0.10463078882E+04  0.10565306187E+04  0.12000000000E+03 0.  0.
         25    1    1    2    0    0  0.36688566673E+02 -0.75833372460E+02 -0.19395021352E+04  0.19450360623E+04  0.12000000000E+03 0.  0.
<mgrwt>
<rscale>  0 0.30714987E+03</rscale>
<asrwt>0</asrwt>
<pdfrwt beam="1">  1        2 0.46056738E+00 0.30714987E+03</pdfrwt>
<pdfrwt beam="2">  1       -2 0.12120507E-02 0.30714987E+03</pdfrwt>
<totfact> 0.33770564E+03</totfact>
</mgrwt>
</event>
<event>
 4    1  0.1749575E-004  0.2820750E+03  0.7818608E-02  0.1094561E+00
          2   -1    0    0  501    0  0.00000000000E+00  0.00000000000E+00  0.52237576769E+03  0.52237576769E+03  0.00000000000E+00 0.  1.
         -2   -1    0    0    0  501 -0.00000000000E+00 -0.00000000000E+00 -0.38079054917E+02  0.38079054917E+02  0.00000000000E+00 0.  1.
         25    1    1    2    0    0  0.49244604659E+02 -0.25452629292E+02  0.33986482293E+03  0.36466555265E+03  0.12000000000E+03 0.  0.
         25    1    1    2    0    0 -0.49244604659E+02  0.25452629292E+02  0.14443188984E+03  0.19578926995E+03  0.12000000000E+03 0.  0.
<mgrwt>
<rscale>  0 0.28207499E+03</rscale>
<asrwt>0</asrwt>
<pdfrwt beam="1">  1        2 0.80365498E-01 0.28207499E+03</pdfrwt>
<pdfrwt beam="2">  1       -2 0.58583165E-02 0.28207499E+03</pdfrwt>
<totfact> 0.90572528E+03</totfact>
</mgrwt>
</event>
<event>
 4    1  0.1749575E-004  0.4176255E+03  0.7818608E-02  0.1037842E+00
         -2   -1    0    0    0  501 -0.00000000000E+00  0.00000000000E+00  0.56357332449E+02  0.56357332449E+02  0.00000000000E+00 0.  1.
          2   -1    0    0  501    0  0.00000000000E+00 -0.00000000000E+00 -0.77368394460E+03  0.77368394460E+03  0.00000000000E+00 0.  1.
         25    1    1    2    0    0  0.87142750642E+02 -0.13883290713E+03 -0.45469036871E+03  0.49800779762E+03  0.12000000000E+03 0.  0.
         25    1    1    2    0    0 -0.87142750642E+02  0.13883290713E+03 -0.26263624344E+03  0.33203347943E+03  0.12000000000E+03 0.  0.
<mgrwt>
<rscale>  0 0.41762549E+03</rscale>
<asrwt>0</asrwt>
<pdfrwt beam="1">  1        2 0.11902830E+00 0.41762549E+03</pdfrwt>
<pdfrwt beam="2">  1       -2 0.86703587E-02 0.41762549E+03</pdfrwt>
<totfact> 0.30989062E+03</totfact>
</mgrwt>
</event>
<event>
 4    1  0.1749575E-004  0.3991532E+03  0.7818608E-02  0.1044073E+00
         -2   -1    0    0    0  501 -0.00000000000E+00  0.00000000000E+00  0.40305515820E+02  0.40305515820E+02  0.00000000000E+00 0. -1.
          2   -1    0    0  501    0  0.00000000000E+00 -0.00000000000E+00 -0.98822234827E+03  0.98822234827E+03  0.00000000000E+00 0. -1.
         25    1    1    2    0    0 -0.40064866121E+02 -0.11812629361E+03 -0.21793800466E+03  0.27830916013E+03  0.12000000000E+03 0.  0.
         25    1    1    2    0    0  0.40064866121E+02  0.11812629361E+03 -0.72997882780E+03  0.75021870396E+03  0.12000000000E+03 0.  0.
<mgrwt>
<rscale>  0 0.39915316E+03</rscale>
<asrwt>0</asrwt>
<pdfrwt beam="1">  1        2 0.15203420E+00 0.39915316E+03</pdfrwt>
<pdfrwt beam="2">  1       -2 0.62008487E-02 0.39915316E+03</pdfrwt>
<totfact> 0.37718510E+03</totfact>
</mgrwt>
</event>
<event>
 4    1  0.1749575E-004  0.2594409E+03  0.7818608E-02  0.1107480E+00
         -2   -1    0    0    0  501 -0.00000000000E+00  0.00000000000E+00  0.14085972114E+02  0.14085972114E+02  0.00000000000E+00 0.  1.
          2   -1    0    0  501    0  0.00000000000E+00 -0.00000000000E+00 -0.11946209894E+04  0.11946209894E+04  0.00000000000E+00 0.  1.
         25    1    1    2    0    0  0.35820082753E+01 -0.48181922788E+02 -0.63521300486E+03  0.64825140957E+03  0.12000000000E+03 0.  0.
         25    1    1    2    0    0 -0.35820082753E+01  0.48181922788E+02 -0.54532201240E+03  0.56045555191E+03  0.12000000000E+03 0.  0.
<mgrwt>
<rscale>  0 0.25944092E+03</rscale>
<asrwt>0</asrwt>
<pdfrwt beam="1">  1        2 0.18378787E+00 0.25944092E+03</pdfrwt>
<pdfrwt beam="2">  1       -2 0.21670723E-02 0.25944092E+03</pdfrwt>
<totfact> 0.13768704E+04</totfact>
</mgrwt>
</event>
<event>
 4    1  0.1749575E-004  0.3759838E+03  0.7818608E-02  0.1052428E+00
         -2   -1    0    0    0  501 -0.00000000000E+00  0.00000000000E+00  0.88283308840E+02  0.88283308840E+02  0.00000000000E+00 0.  1.
          2   -1    0    0  501    0  0.00000000000E+00 -0.00000000000E+00 -0.40031307782E+03  0.40031307782E+03  0.00000000000E+00 0.  1.
         25    1    1    2    0    0 -0.10752457144E+03  0.89990521538E+02 -0.20252834202E+03  0.27400284077E+03  0.12000000000E+03 0.  0.
         25    1    1    2    0    0  0.10752457144E+03 -0.89990521538E+02 -0.10950142697E+03  0.21459354589E+03  0.12000000000E+03 0.  0.
<mgrwt>
<rscale>  0 0.37598385E+03</rscale>
<asrwt>0</asrwt>
<pdfrwt beam="1">  1        2 0.61586628E-01 0.37598385E+03</pdfrwt>
<pdfrwt beam="2">  1       -2 0.13582047E-01 0.37598385E+03</pdfrwt>
<totfact> 0.32357761E+03</totfact>
</mgrwt>
</event>
<event>
 4    1  0.1749575E-004  0.2538738E+03  0.7818608E-02  0.1110881E+00
          2   -1    0    0  501    0  0.00000000000E+00  0.00000000000E+00  0.15721969115E+04  0.15721969115E+04  0.00000000000E+00 0. -1.
         -2   -1    0    0    0  501 -0.00000000000E+00 -0.00000000000E+00 -0.10248704376E+02  0.10248704376E+02  0.00000000000E+00 0. -1.
         25    1    1    2    0    0 -0.15916144701E+02 -0.36340691089E+02  0.70748265674E+03  0.71868329539E+03  0.12000000000E+03 0.  0.
         25    1    1    2    0    0  0.15916144701E+02  0.36340691089E+02  0.85446555035E+03  0.86376232045E+03  0.12000000000E+03 0.  0.
<mgrwt>
<rscale>  0 0.25387384E+03</rscale>
<asrwt>0</asrwt>
<pdfrwt beam="1">  1        2 0.24187626E+00 0.25387384E+03</pdfrwt>
<pdfrwt beam="2">  1       -2 0.15767250E-02 0.25387384E+03</pdfrwt>
<totfact> 0.13656517E+04</totfact>
</mgrwt>
</event>
<event>
 4    1  0.1749575E-004  0.2599888E+03  0.7818608E-02  0.1107150E+00
         -2   -1    0    0    0  501 -0.00000000000E+00  0.00000000000E+00  0.75953203254E+02  0.75953203254E+02  0.00000000000E+00 0. -1.
          2   -1    0    0  501    0  0.00000000000E+00 -0.00000000000E+00 -0.22248625765E+03  0.22248625765E+03  0.00000000000E+00 0. -1.
         25    1    1    2    0    0 -0.87007575003E+01 -0.31961953674E+02 -0.11623631258E+03  0.17031779128E+03  0.12000000000E+03 0.  0.
         25    1    1    2    0    0  0.87007575003E+01  0.31961953674E+02 -0.30296741819E+02  0.12812166963E+03  0.12000000000E+03 0.  0.
<mgrwt>
<rscale>  0 0.25998880E+03</rscale>
<asrwt>0</asrwt>
<pdfrwt beam="1">  1        2 0.34228654E-01 0.25998880E+03</pdfrwt>
<pdfrwt beam="2">  1       -2 0.11685108E-01 0.25998880E+03</pdfrwt>
<totfact> 0.77356877E+03</totfact>
</mgrwt>
</event>
<event>
 4    1  0.1749575E-004  0.5846007E+03  0.7818608E-02  0.9937880E-01
          1   -1    0    0  501    0  0.00000000000E+00  0.00000000000E+00  0.64043639357E+03  0.64043639357E+03  0.00000000000E+00 0. -1.
         -1   -1    0    0    0  501 -0.00000000000E+00 -0.00000000000E+00 -0.13340823383E+03  0.13340823383E+03  0.00000000000E+00 0. -1.
         25    1    1    2    0    0 -0.10916605157E+03  0.18288489272E+03  0.41408118564E+02  0.24794907357E+03  0.12000000000E+03 0.  0.
         25    1    1    2    0    0  0.10916605157E+03 -0.18288489272E+03  0.46562004117E+03  0.52589555384E+03  0.12000000000E+03 0.  0.
<mgrwt>
<rscale>  0 0.58460068E+03</rscale>
<asrwt>0</asrwt>
<pdfrwt beam="1">  1        1 0.98528674E-01 0.58460068E+03</pdfrwt>
<pdfrwt beam="2">  1       -1 0.20524344E-01 0.58460068E+03</pdfrwt>
<totfact> 0.61536504E+02</totfact>
</mgrwt>
</event>
<event>
 4    1  0.1749575E-004  0.3328611E+03  0.7818608E-02  0.1069878E+00
         -2   -1    0    0    0  501 -0.00000000000E+00  0.00000000000E+00  0.27431315694E+02  0.27431315694E+02  0.00000000000E+00 0.  1.
          2   -1    0    0  501    0  0.00000000000E+00 -0.00000000000E+00 -0.10097628193E+04  0.10097628193E+04  0.00000000000E+00 0.  1.
         25    1    1    2    0    0 -0.10361873807E+03  0.48787553431E+02 -0.44912236753E+03  0.47877757807E+03  0.12000000000E+03 0.  0.
         25    1    1    2    0    0  0.10361873807E+03 -0.48787553431E+02 -0.53320913610E+03  0.55841655694E+03  0.12000000000E+03 0.  0.
<mgrwt>
<rscale>  0 0.33286107E+03</rscale>
<asrwt>0</asrwt>
<pdfrwt beam="1">  1        2 0.15534814E+00 0.33286107E+03</pdfrwt>
<pdfrwt beam="2">  1       -2 0.42202020E-02 0.33286107E+03</pdfrwt>
<totfact> 0.65849655E+03</totfact>
</mgrwt>
</event>
<event>
 4    1  0.1749575E-004  0.2937084E+03  0.7818608E-02  0.1088429E+00
          1   -1    0    0  501    0  0.00000000000E+00  0.00000000000E+00  0.47633918473E+02  0.47633918473E+02  0.00000000000E+00 0.  1.
         -1   -1    0    0    0  501 -0.00000000000E+00 -0.00000000000E+00 -0.45274778573E+03  0.45274778573E+03  0.00000000000E+00 0.  1.
         25    1    1    2    0    0  0.26677529449E+02  0.80165648860E+02 -0.21156050831E+03  0.25748023324E+03  0.12000000000E+03 0.  0.
         25    1    1    2    0    0 -0.26677529449E+02 -0.80165648860E+02 -0.19355335895E+03  0.24290147096E+03  0.12000000000E+03 0.  0.
<mgrwt>
<rscale>  0 0.29370837E+03</rscale>
<asrwt>0</asrwt>
<pdfrwt beam="1">  1        1 0.73282950E-02 0.29370837E+03</pdfrwt>
<pdfrwt beam="2">  1       -1 0.69653506E-01 0.29370837E+03</pdfrwt>
<totfact> 0.21232822E+03</totfact>
</mgrwt>
</event>
<event>
 4    1  0.1749575E-004  0.2606885E+03  0.7818608E-02  0.1106730E+00
          2   -1    0    0  501    0  0.00000000000E+00  0.00000000000E+00  0.38016197554E+02  0.38016197554E+02  0.00000000000E+00 0. -1.
         -2   -1    0    0    0  501 -0.00000000000E+00 -0.00000000000E+00 -0.44690493941E+03  0.44690493941E+03  0.00000000000E+00 0. -1.
         25    1    1    2    0    0  0.30152426165E+01 -0.34553673781E+02 -0.13517816180E+03  0.18405483826E+03  0.12000000000E+03 0.  0.
         25    1    1    2    0    0 -0.30152426165E+01  0.34553673781E+02 -0.27371058006E+03  0.30086629871E+03  0.12000000000E+03 0.  0.
<mgrwt>
<rscale>  0 0.26068852E+03</rscale>
<asrwt>0</asrwt>
<pdfrwt beam="1">  1        2 0.58486461E-02 0.26068852E+03</pdfrwt>
<pdfrwt beam="2">  1       -2 0.68754602E-01 0.26068852E+03</pdfrwt>
<totfact> 0.25198640E+03</totfact>
</mgrwt>
</event>
<event>
 4    1  0.1749575E-004  0.2488240E+03  0.7818608E-02  0.1114050E+00
         -2   -1    0    0    0  501 -0.00000000000E+00  0.00000000000E+00  0.58313037184E+02  0.58313037184E+02  0.00000000000E+00 0.  1.
          2   -1    0    0  501    0  0.00000000000E+00 -0.00000000000E+00 -0.26543539216E+03  0.26543539216E+03  0.00000000000E+00 0.  1.
         25    1    1    2    0    0 -0.96880530501E+01 -0.10297406311E+02 -0.64997921848E+02  0.13720286000E+03  0.12000000000E+03 0.  0.
         25    1    1    2    0    0  0.96880530501E+01  0.10297406311E+02 -0.14212443313E+03  0.18654556934E+03  0.12000000000E+03 0.  0.
<mgrwt>
<rscale>  0 0.24882399E+03</rscale>
<asrwt>0</asrwt>
<pdfrwt beam="1">  1        2 0.40836214E-01 0.24882399E+03</pdfrwt>
<pdfrwt beam="2">  1       -2 0.89712365E-02 0.24882399E+03</pdfrwt>
<totfact> 0.97143331E+03</totfact>
</mgrwt>
</event>
<event>
 4    1  0.1749575E-004  0.3568073E+03  0.7818608E-02  0.1059855E+00
          1   -1    0    0  501    0  0.00000000000E+00  0.00000000000E+00  0.26714272390E+03  0.26714272390E+03  0.00000000000E+00 0. -1.
         -1   -1    0    0    0  501 -0.00000000000E+00 -0.00000000000E+00 -0.11914179467E+03  0.11914179467E+03  0.00000000000E+00 0. -1.
         25    1    1    2    0    0 -0.57429459697E+02 -0.72560027421E+02 -0.27930734072E+02  0.15408837181E+03  0.12000000000E+03 0.  0.
         25    1    1    2    0    0  0.57429459697E+02  0.72560027421E+02  0.17593166330E+03  0.23219614676E+03  0.12000000000E+03 0.  0.
<mgrwt>
<rscale>  0 0.35680731E+03</rscale>
<asrwt>0</asrwt>
<pdfrwt beam="1">  1        1 0.41098880E-01 0.35680731E+03</pdfrwt>
<pdfrwt beam="2">  1       -1 0.18329507E-01 0.35680731E+03</pdfrwt>
<totfact> 0.23691437E+03</totfact>
</mgrwt>
</event>
<event>
 4    1  0.1749575E-004  0.3268083E+03  0.7818608E-02  0.1072558E+00
         -1   -1    0    0    0  501 -0.00000000000E+00  0.00000000000E+00  0.56140184557E+03  0.56140184557E+03  0.00000000000E+00 0. -1.
          1   -1    0    0  501    0  0.00000000000E+00 -0.00000000000E+00 -0.47561153866E+02  0.47561153866E+02  0.00000000000E+00 0. -1.
         25    1    1    2    0    0  0.22668467348E+02  0.41174735995E+02  0.44410920344E+03  0.46243075469E+03  0.12000000000E+03 0.  0.
         25    1    1    2    0    0 -0.22668467348E+02 -0.41174735995E+02  0.69731488256E+02  0.14653224475E+03  0.12000000000E+03 0.  0.
<mgrwt>
<rscale>  0 0.32680832E+03</rscale>
<asrwt>0</asrwt>
<pdfrwt beam="1">  1        1 0.73171010E-02 0.32680832E+03</pdfrwt>
<pdfrwt beam="2">  1       -1 0.86369510E-01 0.32680832E+03</pdfrwt>
<totfact> 0.13673501E+03</totfact>
</mgrwt>
</event>
<event>
 4    1  0.1749575E-004  0.2937887E+03  0.7818608E-02  0.1088387E+00
         -1   -1    0    0    0  501 -0.00000000000E+00  0.00000000000E+00  0.61097034665E+02  0.61097034665E+02  0.00000000000E+00 0. -1.
          1   -1    0    0  501    0  0.00000000000E+00 -0.00000000000E+00 -0.35317503071E+03  0.35317503071E+03  0.00000000000E+00 0. -1.
         25    1    1    2    0    0 -0.67356662948E+02 -0.49638560934E+02 -0.16480132427E+03  0.22036420593E+03  0.12000000000E+03 0.  0.
         25    1    1    2    0    0  0.67356662948E+02  0.49638560934E+02 -0.12727667177E+03  0.19390785944E+03  0.12000000000E+03 0.  0.
<mgrwt>
<rscale>  0 0.29378868E+03</rscale>
<asrwt>0</asrwt>
<pdfrwt beam="1">  1        1 0.54334620E-01 0.29378868E+03</pdfrwt>
<pdfrwt beam="2">  1       -1 0.93995438E-02 0.29378868E+03</pdfrwt>
<totfact> 0.47603812E+03</totfact>
</mgrwt>
</event>
<event>
 4    1  0.1749575E-004  0.2939077E+03  0.7818608E-02  0.1088326E+00
          2   -1    0    0  501    0  0.00000000000E+00  0.00000000000E+00  0.14270261516E+04  0.14270261516E+04  0.00000000000E+00 0. -1.
         -2   -1    0    0    0  501 -0.00000000000E+00 -0.00000000000E+00 -0.15133171860E+02  0.15133171860E+02  0.00000000000E+00 0. -1.
         25    1    1    2    0    0 -0.32084326405E+02  0.68848308911E+02  0.89123678548E+03  0.90248130254E+03  0.12000000000E+03 0.  0.
         25    1    1    2    0    0  0.32084326405E+02 -0.68848308911E+02  0.52065619422E+03  0.53967802088E+03  0.12000000000E+03 0.  0.
<mgrwt>
<rscale>  0 0.29390769E+03</rscale>
<asrwt>0</asrwt>
<pdfrwt beam="1">  1        2 0.21954238E+00 0.29390769E+03</pdfrwt>
<pdfrwt beam="2">  1       -2 0.23281814E-02 0.29390769E+03</pdfrwt>
<totfact> 0.92396092E+03</totfact>
</mgrwt>
</event>
<event>
 4    1  0.1749575E-004  0.3551445E+03  0.7818608E-02  0.1060523E+00
         -1   -1    0    0    0  501 -0.00000000000E+00  0.00000000000E+00  0.93946727941E+02  0.93946727941E+02  0.00000000000E+00 0. -1.
          1   -1    0    0  501    0  0.00000000000E+00 -0.00000000000E+00 -0.33563609226E+03  0.33563609226E+03  0.00000000000E+00 0. -1.
         25    1    1    2    0    0 -0.96494580194E+02  0.61778754602E+02 -0.19738563961E+03  0.25785443423E+03  0.12000000000E+03 0.  0.
         25    1    1    2    0    0  0.96494580194E+02 -0.61778754602E+02 -0.44303724716E+02  0.17172838598E+03  0.12000000000E+03 0.  0.
<mgrwt>
<rscale>  0 0.35514455E+03</rscale>
<asrwt>0</asrwt>
<pdfrwt beam="1">  1        1 0.51636321E-01 0.35514455E+03</pdfrwt>
<pdfrwt beam="2">  1       -1 0.14453343E-01 0.35514455E+03</pdfrwt>
<totfact> 0.25982977E+03</totfact>
</mgrwt>
</event>
<event>
 4    1  0.1749575E-004  0.2945903E+03  0.7818608E-02  0.1087977E+00
          2   -1    0    0  501    0  0.00000000000E+00  0.00000000000E+00  0.24035325832E+04  0.24035325832E+04  0.00000000000E+00 0.  1.
         -2   -1    0    0    0  501 -0.00000000000E+00 -0.00000000000E+00 -0.90266546290E+01  0.90266546290E+01  0.00000000000E+00 0.  1.
         25    1    1    2    0    0 -0.55082316946E+02  0.43200060154E+02  0.79642100427E+03  0.80844710580E+03  0.12000000000E+03 0.  0.
         25    1    1    2    0    0  0.55082316946E+02 -0.43200060154E+02  0.15980849243E+04  0.16041121321E+04  0.12000000000E+03 0.  0.
<mgrwt>
<rscale>  0 0.29459028E+03</rscale>
<asrwt>0</asrwt>
<pdfrwt beam="1">  1        2 0.36977373E+00 0.29459028E+03</pdfrwt>
<pdfrwt beam="2">  1       -2 0.13887180E-02 0.29459028E+03</pdfrwt>
<totfact> 0.59782346E+03</totfact>
</mgrwt>
</event>
<event>
 4    1  0.1749575E-004  0.5355088E+03  0.7818608E-02  0.1004905E+00
          1   -1    0    0  501    0  0.00000000000E+00  0.00000000000E+00  0.10196239635E+04  0.10196239635E+04  0.00000000000E+00 0.  1.
         -1   -1    0    0    0  501 -0.00000000000E+00 -0.00000000000E+00 -0.70312604642E+02  0.70312604642E+02  0.00000000000E+00 0.  1.
         25    1    1    2    0    0 -0.46474051164E+02  0.19170666735E+03  0.75059955243E+03  0.78530947520E+03  0.12000000000E+03 0.  0.
         25    1    1    2    0    0  0.46474051164E+02 -0.19170666735E+03  0.19871180642E+03  0.30462709293E+03  0.12000000000E+03 0.  0.
<mgrwt>
<rscale>  0 0.53550879E+03</rscale>
<asrwt>0</asrwt>
<pdfrwt beam="1">  1        1 0.15686521E+00 0.53550879E+03</pdfrwt>
<pdfrwt beam="2">  1       -1 0.10817325E-01 0.53550879E+03</pdfrwt>
<totfact> 0.82590185E+02</totfact>
</mgrwt>
</event>
<event>
 4    1  0.1749575E-004  0.2683187E+03  0.7818608E-02  0.1102246E+00
         -2   -1    0    0    0  501 -0.00000000000E+00  0.00000000000E+00  0.63157980522E+01  0.63157980522E+01  0.00000000000E+00 0. -1.
          2   -1    0    0  501    0  0.00000000000E+00 -0.00000000000E+00 -0.28497953337E+04  0.28497953337E+04  0.00000000000E+00 0. -1.
         25    1    1    2    0    0  0.19858495476E+02  0.54888275664E+02 -0.15690990930E+04  0.15747631715E+04  0.12000000000E+03 0.  0.
         25    1    1    2    0    0 -0.19858495476E+02 -0.54888275664E+02 -0.12743804426E+04  0.12813479602E+04  0.12000000000E+03 0.  0.
<mgrwt>
<rscale>  0 0.26831870E+03</rscale>
<asrwt>0</asrwt>
<pdfrwt beam="1">  1        2 0.43842950E+00 0.26831870E+03</pdfrwt>
<pdfrwt beam="2">  1       -2 0.97166246E-03 0.26831870E+03</pdfrwt>
<totfact> 0.56722240E+03</totfact>
</mgrwt>
</event>
<event>
 4    1  0.1749575E-004  0.3407341E+03  0.7818608E-02  0.1066484E+00
         -1   -1    0    0    0  501 -0.00000000000E+00  0.00000000000E+00  0.12033488680E+03  0.12033488680E+03  0.00000000000E+00 0.  1.
          1   -1    0    0  501    0  0.00000000000E+00 -0.00000000000E+00 -0.24120129156E+03  0.24120129156E+03  0.00000000000E+00 0.  1.
         25    1    1    2    0    0  0.56087871922E+02 -0.73219239566E+02 -0.14342625775E+03  0.20851378331E+03  0.12000000000E+03 0.  0.
         25    1    1    2    0    0 -0.56087871922E+02  0.73219239566E+02  0.22559852981E+02  0.15302239505E+03  0.12000000000E+03 0.  0.
<mgrwt>
<rscale>  0 0.34073409E+03</rscale>
<asrwt>0</asrwt>
<pdfrwt beam="1">  1        1 0.37107890E-01 0.34073409E+03</pdfrwt>
<pdfrwt beam="2">  1       -1 0.18513060E-01 0.34073409E+03</pdfrwt>
<totfact> 0.26509559E+03</totfact>
</mgrwt>
</event>
<event>
 4    1  0.1749575E-004  0.2622280E+03  0.7818608E-02  0.1105812E+00
         -2   -1    0    0    0  501 -0.00000000000E+00  0.00000000000E+00  0.30024418913E+02  0.30024418913E+02  0.00000000000E+00 0. -1.
          2   -1    0    0  501    0  0.00000000000E+00 -0.00000000000E+00 -0.57256337060E+03  0.57256337060E+03  0.00000000000E+00 0. -1.
         25    1    1    2    0    0  0.42064108767E+02 -0.16246997779E+02 -0.33451658491E+03  0.35823832816E+03  0.12000000000E+03 0.  0.
         25    1    1    2    0    0 -0.42064108767E+02  0.16246997779E+02 -0.20802236677E+03  0.24434946135E+03  0.12000000000E+03 0.  0.
<mgrwt>
<rscale>  0 0.26222801E+03</rscale>
<asrwt>0</asrwt>
<pdfrwt beam="1">  1        2 0.88086666E-01 0.26222801E+03</pdfrwt>
<pdfrwt beam="2">  1       -2 0.46191417E-02 0.26222801E+03</pdfrwt>
<totfact> 0.11683709E+04</totfact>
</mgrwt>
</event>
<event>
 4    1  0.1749575E-004  0.2462979E+03  0.7818608E-02  0.1115667E+00
         -2   -1    0    0    0  501 -0.00000000000E+00  0.00000000000E+00  0.37924116004E+02  0.37924116004E+02  0.00000000000E+00 0.  1.
          2   -1    0    0  501    0  0.00000000000E+00 -0.00000000000E+00 -0.39989506820E+03  0.39989506820E+03  0.00000000000E+00 0.  1.
         25    1    1    2    0    0 -0.11936455360E+02  0.82355011112E+01 -0.22287670458E+03  0.25354354239E+03  0.12000000000E+03 0.  0.
         25    1    1    2    0    0  0.11936455360E+02 -0.82355011112E+01 -0.13909424762E+03  0.18427564181E+03  0.12000000000E+03 0.  0.
<mgrwt>
<rscale>  0 0.24629792E+03</rscale>
<asrwt>0</asrwt>
<pdfrwt beam="1">  1        2 0.61522317E-01 0.24629792E+03</pdfrwt>
<pdfrwt beam="2">  1       -2 0.58344795E-02 0.24629792E+03</pdfrwt>
<totfact> 0.12169317E+04</totfact>
</mgrwt>
</event>
<event>
 4    1  0.1749575E-004  0.3156539E+03  0.7818608E-02  0.1077667E+00
          2   -1    0    0  501    0  0.00000000000E+00  0.00000000000E+00  0.13919819431E+04  0.13919819431E+04  0.00000000000E+00 0.  1.
         -2   -1    0    0    0  501 -0.00000000000E+00 -0.00000000000E+00 -0.17894877538E+02  0.17894877538E+02  0.00000000000E+00 0.  1.
         25    1    1    2    0    0 -0.48604496335E+02 -0.41000735100E+02  0.32788669989E+03  0.35489878178E+03  0.12000000000E+03 0.  0.
         25    1    1    2    0    0  0.48604496335E+02  0.41000735100E+02  0.10462003656E+04  0.10549780388E+04  0.12000000000E+03 0.  0.
<mgrwt>
<rscale>  0 0.31565390E+03</rscale>
<asrwt>0</asrwt>
<pdfrwt beam="1">  1        2 0.21415098E+00 0.31565390E+03</pdfrwt>
<pdfrwt beam="2">  1       -2 0.27530592E-02 0.31565390E+03</pdfrwt>
<totfact> 0.75355248E+03</totfact>
</mgrwt>
</event>
<event>
 4    1  0.1749575E-004  0.2493958E+03  0.7818608E-02  0.1113687E+00
         -1   -1    0    0    0  501 -0.00000000000E+00  0.00000000000E+00  0.21497763186E+02  0.21497763186E+02  0.00000000000E+00 0.  1.
          1   -1    0    0  501    0  0.00000000000E+00 -0.00000000000E+00 -0.72331072390E+03  0.72331072390E+03  0.00000000000E+00 0.  1.
         25    1    1    2    0    0  0.45707863139E+01 -0.10715728896E+02 -0.25581512460E+03  0.28280222225E+03  0.12000000000E+03 0.  0.
         25    1    1    2    0    0 -0.45707863139E+01  0.10715728896E+02 -0.44599783611E+03  0.46200626484E+03  0.12000000000E+03 0.  0.
<mgrwt>
<rscale>  0 0.24939577E+03</rscale>
<asrwt>0</asrwt>
<pdfrwt beam="1">  1        1 0.11127858E+00 0.24939577E+03</pdfrwt>
<pdfrwt beam="2">  1       -1 0.33073479E-02 0.24939577E+03</pdfrwt>
<totfact> 0.87043213E+03</totfact>
</mgrwt>
</event>
<event>
 4    1  0.1749575E-004  0.2642472E+03  0.7818608E-02  0.1104618E+00
          1   -1    0    0  501    0  0.00000000000E+00  0.00000000000E+00  0.13777831546E+04  0.13777831546E+04  0.00000000000E+00 0. -1.
         -1   -1    0    0    0  501 -0.00000000000E+00 -0.00000000000E+00 -0.12670093640E+02  0.12670093640E+02  0.00000000000E+00 0. -1.
         25    1    1    2    0    0  0.30949311306E+02 -0.37603953100E+02  0.54486603659E+03  0.56004545797E+03  0.12000000000E+03 0.  0.
         25    1    1    2    0    0 -0.30949311306E+02  0.37603953100E+02  0.82024702438E+03  0.83040779028E+03  0.12000000000E+03 0.  0.
<mgrwt>
<rscale>  0 0.26424717E+03</rscale>
<asrwt>0</asrwt>
<pdfrwt beam="1">  1        1 0.21196652E+00 0.26424717E+03</pdfrwt>
<pdfrwt beam="2">  1       -1 0.19492463E-02 0.26424717E+03</pdfrwt>
<totfact> 0.61458486E+03</totfact>
</mgrwt>
</event>
<event>
 4    1  0.1749575E-004  0.2471479E+03  0.7818608E-02  0.1115121E+00
          1   -1    0    0  501    0  0.00000000000E+00  0.00000000000E+00  0.41973887672E+03  0.41973887672E+03  0.00000000000E+00 0. -1.
         -1   -1    0    0    0  501 -0.00000000000E+00 -0.00000000000E+00 -0.36381010111E+02  0.36381010111E+02  0.00000000000E+00 0. -1.
         25    1    1    2    0    0 -0.19875549075E+02  0.87052860785E+01  0.15478187412E+03  0.19704884677E+03  0.12000000000E+03 0.  0.
         25    1    1    2    0    0  0.19875549075E+02 -0.87052860785E+01  0.22857599249E+03  0.25907104007E+03  0.12000000000E+03 0.  0.
<mgrwt>
<rscale>  0 0.24714793E+03</rscale>
<asrwt>0</asrwt>
<pdfrwt beam="1">  1        1 0.64575208E-01 0.24714793E+03</pdfrwt>
<pdfrwt beam="2">  1       -1 0.55970788E-02 0.24714793E+03</pdfrwt>
<totfact> 0.83496676E+03</totfact>
</mgrwt>
</event>
<event>
 4    1  0.1749575E-004  0.4996311E+03  0.7818608E-02  0.1013875E+00
          2   -1    0    0  501    0  0.00000000000E+00  0.00000000000E+00  0.22757420958E+04  0.22757420958E+04  0.00000000000E+00 0.  1.
         -2   -1    0    0    0  501 -0.00000000000E+00 -0.00000000000E+00 -0.27423058110E+02  0.27423058110E+02  0.00000000000E+00 0.  1.
         25    1    1    2    0    0 -0.12774036495E+03 -0.13465452920E+03  0.16609184475E+04  0.16755594684E+04  0.12000000000E+03 0.  0.
         25    1    1    2    0    0  0.12774036495E+03  0.13465452920E+03  0.58740059025E+03  0.62760568552E+03  0.12000000000E+03 0.  0.
<mgrwt>
<rscale>  0 0.49963109E+03</rscale>
<asrwt>0</asrwt>
<pdfrwt beam="1">  1        2 0.35011402E+00 0.49963109E+03</pdfrwt>
<pdfrwt beam="2">  1       -2 0.42189338E-02 0.49963109E+03</pdfrwt>
<totfact> 0.13172023E+03</totfact>
</mgrwt>
</event>
<event>
 4    1  0.1749575E-004  0.2508974E+03  0.7818608E-02  0.1112739E+00
         -1   -1    0    0    0  501 -0.00000000000E+00  0.00000000000E+00  0.39737683212E+02  0.39737683212E+02  0.00000000000E+00 0.  1.
          1   -1    0    0  501    0  0.00000000000E+00 -0.00000000000E+00 -0.39603143575E+03  0.39603143575E+03  0.00000000000E+00 0.  1.
         25    1    1    2    0    0  0.30535149419E+02  0.90363316263E+01 -0.14691648864E+03  0.19234995522E+03  0.12000000000E+03 0.  0.
         25    1    1    2    0    0 -0.30535149419E+02 -0.90363316263E+01 -0.20937726389E+03  0.24341916374E+03  0.12000000000E+03 0.  0.
<mgrwt>
<rscale>  0 0.25089736E+03</rscale>
<asrwt>0</asrwt>
<pdfrwt beam="1">  1        1 0.60927912E-01 0.25089736E+03</pdfrwt>
<pdfrwt beam="2">  1       -1 0.61134898E-02 0.25089736E+03</pdfrwt>
<totfact> 0.78827097E+03</totfact>
</mgrwt>
</event>
<event>
 4    1  0.1749575E-004  0.2492050E+03  0.7818608E-02  0.1113808E+00
         -2   -1    0    0    0  501 -0.00000000000E+00  0.00000000000E+00  0.19513194552E+02  0.19513194552E+02  0.00000000000E+00 0.  1.
          2   -1    0    0  501    0  0.00000000000E+00 -0.00000000000E+00 -0.79565548431E+03  0.79565548431E+03  0.00000000000E+00 0.  1.
         25    1    1    2    0    0  0.29277782780E+02 -0.82591467128E+01 -0.34176741260E+03  0.36349740904E+03  0.12000000000E+03 0.  0.
         25    1    1    2    0    0 -0.29277782780E+02  0.82591467128E+01 -0.43437487716E+03  0.45167126982E+03  0.12000000000E+03 0.  0.
<mgrwt>
<rscale>  0 0.24920498E+03</rscale>
<asrwt>0</asrwt>
<pdfrwt beam="1">  1        2 0.12240857E+00 0.24920498E+03</pdfrwt>
<pdfrwt beam="2">  1       -2 0.30020292E-02 0.24920498E+03</pdfrwt>
<totfact> 0.14979336E+04</totfact>
</mgrwt>
</event>
<event>
 4    1  0.1749575E-004  0.2831506E+03  0.7818608E-02  0.1093980E+00
          2   -1    0    0  501    0  0.00000000000E+00  0.00000000000E+00  0.69292291077E+03  0.69292291077E+03  0.00000000000E+00 0.  1.
         -2   -1    0    0    0  501 -0.00000000000E+00 -0.00000000000E+00 -0.28926111800E+02  0.28926111800E+02  0.00000000000E+00 0.  1.
         25    1    1    2    0    0 -0.74729608134E+02  0.70158763906E+01  0.33999080747E+03  0.36827637178E+03  0.12000000000E+03 0.  0.
         25    1    1    2    0    0  0.74729608134E+02 -0.70158763906E+01  0.32400599150E+03  0.35357265079E+03  0.12000000000E+03 0.  0.
<mgrwt>
<rscale>  0 0.28315060E+03</rscale>
<asrwt>0</asrwt>
<pdfrwt beam="1">  1        2 0.10660351E+00 0.28315060E+03</pdfrwt>
<pdfrwt beam="2">  1       -2 0.44501716E-02 0.28315060E+03</pdfrwt>
<totfact> 0.99038183E+03</totfact>
</mgrwt>
</event>
<event>
 4    1  0.1749575E-004  0.2792234E+03  0.7818608E-02  0.1096114E+00
         -1   -1    0    0    0  501 -0.00000000000E+00  0.00000000000E+00  0.36448969464E+02  0.36448969464E+02  0.00000000000E+00 0.  1.
          1   -1    0    0  501    0  0.00000000000E+00 -0.00000000000E+00 -0.53475951047E+03  0.53475951047E+03  0.00000000000E+00 0.  1.
         25    1    1    2    0    0 -0.89833955887E+00  0.49158839770E+02 -0.35494080147E+03  0.37788936356E+03  0.12000000000E+03 0.  0.
         25    1    1    2    0    0  0.89833955887E+00 -0.49158839770E+02 -0.14336973953E+03  0.19331911637E+03  0.12000000000E+03 0.  0.
<mgrwt>
<rscale>  0 0.27922345E+03</rscale>
<asrwt>0</asrwt>
<pdfrwt beam="1">  1        1 0.82270694E-01 0.27922345E+03</pdfrwt>
<pdfrwt beam="2">  1       -1 0.56075338E-02 0.27922345E+03</pdfrwt>
<totfact> 0.60813490E+03</totfact>
</mgrwt>
</event>
<event>
 4    1  0.1749575E-004  0.3477676E+03  0.7818608E-02  0.1063535E+00
         -1   -1    0    0    0  501 -0.00000000000E+00  0.00000000000E+00  0.30086570619E+02  0.30086570619E+02  0.00000000000E+00 0. -1.
          1   -1    0    0  501    0  0.00000000000E+00 -0.00000000000E+00 -0.10049527743E+04  0.10049527743E+04  0.00000000000E+00 0. -1.
         25    1    1    2    0    0 -0.10095686063E+03 -0.56456379252E+02 -0.63492881939E+03  0.65644056559E+03  0.12000000000E+03 0.  0.
         25    1    1    2    0    0  0.10095686063E+03  0.56456379252E+02 -0.33993738429E+03  0.37859877932E+03  0.12000000000E+03 0.  0.
<mgrwt>
<rscale>  0 0.34776764E+03</rscale>
<asrwt>0</asrwt>
<pdfrwt beam="1">  1        1 0.15460812E+00 0.34776764E+03</pdfrwt>
<pdfrwt beam="2">  1       -1 0.46287032E-02 0.34776764E+03</pdfrwt>
<totfact> 0.31417924E+03</totfact>
</mgrwt>
</event>
<event>
 4    1  0.1749575E-004  0.2928653E+03  0.7818608E-02  0.1088863E+00
          2   -1    0    0  501    0  0.00000000000E+00  0.00000000000E+00  0.60958336912E+03  0.60958336912E+03  0.00000000000E+00 0.  1.
         -2   -1    0    0    0  501 -0.00000000000E+00 -0.00000000000E+00 -0.35175710008E+02  0.35175710008E+02  0.00000000000E+00 0.  1.
         25    1    1    2    0    0  0.34029808594E+02 -0.31536996961E+02  0.13325362954E+03  0.18522726537E+03  0.12000000000E+03 0.  0.
         25    1    1    2    0    0 -0.34029808594E+02  0.31536996961E+02  0.44115402957E+03  0.45953181376E+03  0.12000000000E+03 0.  0.
<mgrwt>
<rscale>  0 0.29286535E+03</rscale>
<asrwt>0</asrwt>
<pdfrwt beam="1">  1        2 0.93782049E-01 0.29286535E+03</pdfrwt>
<pdfrwt beam="2">  1       -2 0.54116481E-02 0.29286535E+03</pdfrwt>
<totfact> 0.85764648E+03</totfact>
</mgrwt>
</event>
<event>
 4    1  0.1749575E-004  0.2813188E+03  0.7818608E-02  0.1094971E+00
         -2   -1    0    0    0  501 -0.00000000000E+00  0.00000000000E+00  0.20003188405E+03  0.20003188405E+03  0.00000000000E+00 0. -1.
          2   -1    0    0  501    0  0.00000000000E+00 -0.00000000000E+00 -0.98909569841E+02  0.98909569841E+02  0.00000000000E+00 0. -1.
         25    1    1    2    0    0  0.91398375365E+01  0.71489982351E+02  0.65236152741E+02  0.15443480771E+03  0.12000000000E+03 0.  0.
         25    1    1    2    0    0 -0.91398375365E+01 -0.71489982351E+02  0.35886161468E+02  0.14450664619E+03  0.12000000000E+03 0.  0.
<mgrwt>
<rscale>  0 0.28131881E+03</rscale>
<asrwt>0</asrwt>
<pdfrwt beam="1">  1        2 0.15216857E-01 0.28131881E+03</pdfrwt>
<pdfrwt beam="2">  1       -2 0.30774136E-01 0.28131881E+03</pdfrwt>
<totfact> 0.37227024E+03</totfact>
</mgrwt>
</event>
<event>
 4    1  0.1749575E-004  0.2651785E+03  0.7818608E-02  0.1104071E+00
          2   -1    0    0  501    0  0.00000000000E+00  0.00000000000E+00  0.14210725481E+03  0.14210725481E+03  0.00000000000E+00 0. -1.
         -2   -1    0    0    0  501 -0.00000000000E+00 -0.00000000000E+00 -0.12370872937E+03  0.12370872937E+03  0.00000000000E+00 0. -1.
         25    1    1    2    0    0 -0.48047805051E+02 -0.27839568500E+02 -0.63629686221E+00  0.13222722117E+03  0.12000000000E+03 0.  0.
         25    1    1    2    0    0  0.48047805051E+02  0.27839568500E+02  0.19034822304E+02  0.13358876302E+03  0.12000000000E+03 0.  0.
<mgrwt>
<rscale>  0 0.26517849E+03</rscale>
<asrwt>0</asrwt>
<pdfrwt beam="1">  1        2 0.21862655E-01 0.26517849E+03</pdfrwt>
<pdfrwt beam="2">  1       -2 0.19032112E-01 0.26517849E+03</pdfrwt>
<totfact> 0.56833854E+03</totfact>
</mgrwt>
</event>
<event>
 4    1  0.1749575E-004  0.2639921E+03  0.7818608E-02  0.1104768E+00
          2   -1    0    0  501    0  0.00000000000E+00  0.00000000000E+00  0.84506604250E+03  0.84506604250E+03  0.00000000000E+00 0. -1.
         -2   -1    0    0    0  501 -0.00000000000E+00 -0.00000000000E+00 -0.20617265995E+02  0.20617265995E+02  0.00000000000E+00 0. -1.
         25    1    1    2    0    0  0.36952793226E+02 -0.33046295133E+02  0.49019667341E+03  0.50709993608E+03  0.12000000000E+03 0.  0.
         25    1    1    2    0    0 -0.36952793226E+02  0.33046295133E+02  0.33425210309E+03  0.35858337241E+03  0.12000000000E+03 0.  0.
<mgrwt>
<rscale>  0 0.26399206E+03</rscale>
<asrwt>0</asrwt>
<pdfrwt beam="1">  1        2 0.13001013E+00 0.26399206E+03</pdfrwt>
<pdfrwt beam="2">  1       -2 0.31718877E-02 0.26399206E+03</pdfrwt>
<totfact> 0.12805458E+04</totfact>
</mgrwt>
</event>
<event>
 4    1  0.1749575E-004  0.3623328E+03  0.7818608E-02  0.1057664E+00
         -2   -1    0    0    0  501 -0.00000000000E+00  0.00000000000E+00  0.18598052693E+02  0.18598052693E+02  0.00000000000E+00 0.  1.
          2   -1    0    0  501    0  0.00000000000E+00 -0.00000000000E+00 -0.17647692861E+04  0.17647692861E+04  0.00000000000E+00 0.  1.
         25    1    1    2    0    0 -0.10658150068E+03 -0.83505299649E+02 -0.82677763925E+03  0.84634154815E+03  0.12000000000E+03 0.  0.
         25    1    1    2    0    0  0.10658150068E+03  0.83505299649E+02 -0.91939359412E+03  0.93702579060E+03  0.12000000000E+03 0.  0.
<mgrwt>
<rscale>  0 0.36233284E+03</rscale>
<asrwt>0</asrwt>
<pdfrwt beam="1">  1        2 0.27150291E+00 0.36233284E+03</pdfrwt>
<pdfrwt beam="2">  1       -2 0.28612395E-02 0.36233284E+03</pdfrwt>
<totfact> 0.44904614E+03</totfact>
</mgrwt>
</event>
<event>
 4    1  0.1749575E-004  0.2697439E+03  0.7818608E-02  0.1101426E+00
         -1   -1    0    0    0  501 -0.00000000000E+00  0.00000000000E+00  0.56033560156E+03  0.56033560156E+03  0.00000000000E+00 0.  1.
          1   -1    0    0  501    0  0.00000000000E+00 -0.00000000000E+00 -0.32463486028E+02  0.32463486028E+02  0.00000000000E+00 0.  1.
         25    1    1    2    0    0  0.59103934715E+02  0.42081636818E+01  0.22719783152E+03  0.26368511219E+03  0.12000000000E+03 0.  0.
         25    1    1    2    0    0 -0.59103934715E+02 -0.42081636818E+01  0.30067428401E+03  0.32911397540E+03  0.12000000000E+03 0.  0.
<mgrwt>
<rscale>  0 0.26974393E+03</rscale>
<asrwt>0</asrwt>
<pdfrwt beam="1">  1        1 0.49943829E-02 0.26974393E+03</pdfrwt>
<pdfrwt beam="2">  1       -1 0.86205470E-01 0.26974393E+03</pdfrwt>
<totfact> 0.23179921E+03</totfact>
</mgrwt>
</event>
<event>
 4    1  0.1749575E-004  0.4312457E+03  0.7818608E-02  0.1033467E+00
         -1   -1    0    0    0  501 -0.00000000000E+00  0.00000000000E+00  0.10843502127E+04  0.10843502127E+04  0.00000000000E+00 0. -1.
          1   -1    0    0  501    0  0.00000000000E+00 -0.00000000000E+00 -0.42876568186E+02  0.42876568186E+02  0.00000000000E+00 0. -1.
         25    1    1    2    0    0 -0.84726950723E+02  0.97148402896E+02  0.19555492726E+03  0.26316952319E+03  0.12000000000E+03 0.  0.
         25    1    1    2    0    0  0.84726950723E+02 -0.97148402896E+02  0.84591871728E+03  0.86405725771E+03  0.12000000000E+03 0.  0.
<mgrwt>
<rscale>  0 0.43124571E+03</rscale>
<asrwt>0</asrwt>
<pdfrwt beam="1">  1        1 0.65963959E-02 0.43124571E+03</pdfrwt>
<pdfrwt beam="2">  1       -1 0.16682309E+00 0.43124571E+03</pdfrwt>
<totfact> 0.32006777E+02</totfact>
</mgrwt>
</event>
<event>
 4    1  0.1749575E-004  0.3100964E+03  0.7818608E-02  0.1080300E+00
          1   -1    0    0  501    0  0.00000000000E+00  0.00000000000E+00  0.10347297505E+04  0.10347297505E+04  0.00000000000E+00 0.  1.
         -1   -1    0    0    0  501 -0.00000000000E+00 -0.00000000000E+00 -0.23233065799E+02  0.23233065799E+02  0.00000000000E+00 0.  1.
         25    1    1    2    0    0 -0.51438242079E+02 -0.61786832219E+02  0.69803269233E+03  0.71282055592E+03  0.12000000000E+03 0.  0.
         25    1    1    2    0    0  0.51438242079E+02  0.61786832219E+02  0.31346399235E+03  0.34514226036E+03  0.12000000000E+03 0.  0.
<mgrwt>
<rscale>  0 0.31009640E+03</rscale>
<asrwt>0</asrwt>
<pdfrwt beam="1">  1        1 0.15918916E+00 0.31009640E+03</pdfrwt>
<pdfrwt beam="2">  1       -1 0.35743186E-02 0.31009640E+03</pdfrwt>
<totfact> 0.43897570E+03</totfact>
</mgrwt>
</event>
<event>
 4    1  0.1749575E-004  0.2982547E+03  0.7818608E-02  0.1086116E+00
         -2   -1    0    0    0  501 -0.00000000000E+00  0.00000000000E+00  0.78910088926E+02  0.78910088926E+02  0.00000000000E+00 0.  1.
          2   -1    0    0  501    0  0.00000000000E+00 -0.00000000000E+00 -0.28182674838E+03  0.28182674838E+03  0.00000000000E+00 0.  1.
         25    1    1    2    0    0 -0.61352862604E+02  0.63833532036E+02 -0.10111577480E+03  0.18017572943E+03  0.12000000000E+03 0.  0.
         25    1    1    2    0    0  0.61352862604E+02 -0.63833532036E+02 -0.10180088465E+03  0.18056110788E+03  0.12000000000E+03 0.  0.
<mgrwt>
<rscale>  0 0.29825475E+03</rscale>
<asrwt>0</asrwt>
<pdfrwt beam="1">  1        2 0.43357961E-01 0.29825475E+03</pdfrwt>
<pdfrwt beam="2">  1       -2 0.12140014E-01 0.29825475E+03</pdfrwt>
<totfact> 0.56603394E+03</totfact>
</mgrwt>
</event>
<event>
 4    1  0.1749575E-004  0.4209717E+03  0.7818608E-02  0.1036751E+00
         -2   -1    0    0    0  501 -0.00000000000E+00  0.00000000000E+00  0.29166862731E+02  0.29166862731E+02  0.00000000000E+00 0. -1.
          2   -1    0    0  501    0  0.00000000000E+00 -0.00000000000E+00 -0.15189944220E+04  0.15189944220E+04  0.00000000000E+00 0. -1.
         25    1    1    2    0    0 -0.49020960584E+01  0.10469169996E+03 -0.23906244812E+03  0.28728946498E+03  0.12000000000E+03 0.  0.
         25    1    1    2    0    0  0.49020960584E+01 -0.10469169996E+03 -0.12507651112E+04  0.12608718198E+04  0.12000000000E+03 0.  0.
<mgrwt>
<rscale>  0 0.42097174E+03</rscale>
<asrwt>0</asrwt>
<pdfrwt beam="1">  1        2 0.23369141E+00 0.42097174E+03</pdfrwt>
<pdfrwt beam="2">  1       -2 0.44872105E-02 0.42097174E+03</pdfrwt>
<totfact> 0.30761121E+03</totfact>
</mgrwt>
</event>
<event>
 4    1  0.1749575E-004  0.2543444E+03  0.7818608E-02  0.1110590E+00
          1   -1    0    0  501    0  0.00000000000E+00  0.00000000000E+00  0.13804937062E+04  0.13804937062E+04  0.00000000000E+00 0.  1.
         -1   -1    0    0    0  501 -0.00000000000E+00 -0.00000000000E+00 -0.11715205101E+02  0.11715205101E+02  0.00000000000E+00 0.  1.
         25    1    1    2    0    0  0.19602715080E+02  0.29646277454E+02  0.80795451605E+03  0.81759015907E+03  0.12000000000E+03 0.  0.
         25    1    1    2    0    0 -0.19602715080E+02 -0.29646277454E+02  0.56082398500E+03  0.57461875218E+03  0.12000000000E+03 0.  0.
<mgrwt>
<rscale>  0 0.25434439E+03</rscale>
<asrwt>0</asrwt>
<pdfrwt beam="1">  1        1 0.21238352E+00 0.25434439E+03</pdfrwt>
<pdfrwt beam="2">  1       -1 0.18023403E-02 0.25434439E+03</pdfrwt>
<totfact> 0.68566466E+03</totfact>
</mgrwt>
</event>
<event>
 4    1  0.1749575E-004  0.2634437E+03  0.7818608E-02  0.1105092E+00
          1   -1    0    0  501    0  0.00000000000E+00  0.00000000000E+00  0.64496327990E+03  0.64496327990E+03  0.00000000000E+00 0. -1.
         -1   -1    0    0    0  501 -0.00000000000E+00 -0.00000000000E+00 -0.26901754158E+02  0.26901754158E+02  0.00000000000E+00 0. -1.
         25    1    1    2    0    0  0.11485607623E+02  0.22332627535E+02  0.18619178391E+03  0.22293058523E+03  0.12000000000E+03 0.  0.
         25    1    1    2    0    0 -0.11485607623E+02 -0.22332627535E+02  0.43186974183E+03  0.44893444883E+03  0.12000000000E+03 0.  0.
<mgrwt>
<rscale>  0 0.26344368E+03</rscale>
<asrwt>0</asrwt>
<pdfrwt beam="1">  1        1 0.99225108E-01 0.26344368E+03</pdfrwt>
<pdfrwt beam="2">  1       -1 0.41387319E-02 0.26344368E+03</pdfrwt>
<totfact> 0.73818267E+03</totfact>
</mgrwt>
</event>
<event>
 4    1  0.1749575E-004  0.3358542E+03  0.7818608E-02  0.1068576E+00
          2   -1    0    0  501    0  0.00000000000E+00  0.00000000000E+00  0.87984260711E+02  0.87984260711E+02  0.00000000000E+00 0. -1.
         -2   -1    0    0    0  501 -0.00000000000E+00 -0.00000000000E+00 -0.32050625158E+03  0.32050625158E+03  0.00000000000E+00 0. -1.
         25    1    1    2    0    0 -0.96047880835E+02 -0.29130534244E+02 -0.19050073910E+03  0.24650418868E+03  0.12000000000E+03 0.  0.
         25    1    1    2    0    0  0.96047880835E+02  0.29130534244E+02 -0.42021251773E+02  0.16198632362E+03  0.12000000000E+03 0.  0.
<mgrwt>
<rscale>  0 0.33585417E+03</rscale>
<asrwt>0</asrwt>
<pdfrwt beam="1">  1        2 0.13536040E-01 0.33585417E+03</pdfrwt>
<pdfrwt beam="2">  1       -2 0.49308653E-01 0.33585417E+03</pdfrwt>
<totfact> 0.17494624E+03</totfact>
</mgrwt>
</event>
<event>
 4    1  0.1749575E-004  0.3433111E+03  0.7818608E-02  0.1065394E+00
         -3   -1    0    0    0  501 -0.00000000000E+00  0.00000000000E+00  0.16252029958E+03  0.16252029958E+03  0.00000000000E+00 0. -1.
          3   -1    0    0  501    0  0.00000000000E+00 -0.00000000000E+00 -0.18130434332E+03  0.18130434332E+03  0.00000000000E+00 0. -1.
         25    1    1    2    0    0  0.39350244329E+02  0.94617718370E+02 -0.77055504895E+02  0.17560895533E+03  0.12000000000E+03 0.  0.
         25    1    1    2    0    0 -0.39350244329E+02 -0.94617718370E+02  0.58271461149E+02  0.16821568756E+03  0.12000000000E+03 0.  0.
<mgrwt>
<rscale>  0 0.34331115E+03</rscale>
<asrwt>0</asrwt>
<pdfrwt beam="1">  1        3 0.27892976E-01 0.34331115E+03</pdfrwt>
<pdfrwt beam="2">  1       -3 0.25003123E-01 0.34331115E+03</pdfrwt>
<totfact> 0.47785384E+02</totfact>
</mgrwt>
</event>
<event>
 4    1  0.1749575E-004  0.2714188E+03  0.7818608E-02  0.1100470E+00
         -3   -1    0    0    0  501 -0.00000000000E+00  0.00000000000E+00  0.34885983791E+02  0.34885983791E+02  0.00000000000E+00 0.  1.
          3   -1    0    0  501    0  0.00000000000E+00 -0.00000000000E+00 -0.52792107518E+03  0.52792107518E+03  0.00000000000E+00 0.  1.
         25    1    1    2    0    0 -0.52746007299E+02 -0.27174987256E+02 -0.20031708450E+03  0.24093060320E+03  0.12000000000E+03 0.  0.
         25    1    1    2    0    0  0.52746007299E+02  0.27174987256E+02 -0.29271800689E+03  0.32187645577E+03  0.12000000000E+03 0.  0.
<mgrwt>
<rscale>  0 0.27141884E+03</rscale>
<asrwt>0</asrwt>
<pdfrwt beam="1">  1        3 0.81218629E-01 0.27141884E+03</pdfrwt>
<pdfrwt beam="2">  1       -3 0.53670743E-02 0.27141884E+03</pdfrwt>
<totfact> 0.74580208E+02</totfact>
</mgrwt>
</event>
<event>
 4    1  0.1749575E-004  0.2800152E+03  0.7818608E-02  0.1095681E+00
         -1   -1    0    0    0  501 -0.00000000000E+00  0.00000000000E+00  0.17663880659E+02  0.17663880659E+02  0.00000000000E+00 0.  1.
          1   -1    0    0  501    0  0.00000000000E+00 -0.00000000000E+00 -0.11097294552E+04  0.11097294552E+04  0.00000000000E+00 0.  1.
         25    1    1    2    0    0  0.52144374357E+02 -0.83811350327E+01 -0.74380212680E+03  0.75526874888E+03  0.12000000000E+03 0.  0.
         25    1    1    2    0    0 -0.52144374357E+02  0.83811350327E+01 -0.34826344771E+03  0.37212458695E+03  0.12000000000E+03 0.  0.
<mgrwt>
<rscale>  0 0.28001520E+03</rscale>
<asrwt>0</asrwt>
<pdfrwt beam="1">  1        1 0.17072763E+00 0.28001520E+03</pdfrwt>
<pdfrwt beam="2">  1       -1 0.27175198E-02 0.28001520E+03</pdfrwt>
<totfact> 0.57974720E+03</totfact>
</mgrwt>
</event>
<event>
 4    1  0.1749575E-004  0.3327373E+03  0.7818608E-02  0.1069932E+00
          1   -1    0    0  501    0  0.00000000000E+00  0.00000000000E+00  0.60236765055E+02  0.60236765055E+02  0.00000000000E+00 0.  1.
         -1   -1    0    0    0  501 -0.00000000000E+00 -0.00000000000E+00 -0.45949566251E+03  0.45949566251E+03  0.00000000000E+00 0.  1.
         25    1    1    2    0    0 -0.51226358763E+02  0.54508985520E+02 -0.33654359163E+03  0.36504377601E+03  0.12000000000E+03 0.  0.
         25    1    1    2    0    0  0.51226358763E+02 -0.54508985520E+02 -0.62715305817E+02  0.15468865155E+03  0.12000000000E+03 0.  0.
<mgrwt>
<rscale>  0 0.33273733E+03</rscale>
<asrwt>0</asrwt>
<pdfrwt beam="1">  1        1 0.92671946E-02 0.33273733E+03</pdfrwt>
<pdfrwt beam="2">  1       -1 0.70691641E-01 0.33273733E+03</pdfrwt>
<totfact> 0.14994861E+03</totfact>
</mgrwt>
</event>
<event>
 4    1  0.1749575E-004  0.2556923E+03  0.7818608E-02  0.1109759E+00
          2   -1    0    0  501    0  0.00000000000E+00  0.00000000000E+00  0.59215639616E+03  0.59215639616E+03  0.00000000000E+00 0.  1.
         -2   -1    0    0    0  501 -0.00000000000E+00 -0.00000000000E+00 -0.27601884716E+02  0.27601884716E+02  0.00000000000E+00 0.  1.
         25    1    1    2    0    0  0.10712999793E+02 -0.41325797897E+02  0.25550033913E+03  0.28548732587E+03  0.12000000000E+03 0.  0.
         25    1    1    2    0    0 -0.10712999793E+02  0.41325797897E+02  0.30905417232E+03  0.33427095501E+03  0.12000000000E+03 0.  0.
<mgrwt>
<rscale>  0 0.25569226E+03</rscale>
<asrwt>0</asrwt>
<pdfrwt beam="1">  1        2 0.91100974E-01 0.25569226E+03</pdfrwt>
<pdfrwt beam="2">  1       -2 0.42464443E-02 0.25569226E+03</pdfrwt>
<totfact> 0.12747711E+04</totfact>
</mgrwt>
</event>
<event>
 4    1  0.1749575E-004  0.2712357E+03  0.7818608E-02  0.1100574E+00
         -2   -1    0    0    0  501 -0.00000000000E+00  0.00000000000E+00  0.69734955416E+02  0.69734955416E+02  0.00000000000E+00 0. -1.
          2   -1    0    0  501    0  0.00000000000E+00 -0.00000000000E+00 -0.26374444209E+03  0.26374444209E+03  0.00000000000E+00 0. -1.
         25    1    1    2    0    0  0.36510130447E+02 -0.37442765858E+02 -0.53410007803E+02  0.14137743552E+03  0.12000000000E+03 0.  0.
         25    1    1    2    0    0 -0.36510130447E+02  0.37442765858E+02 -0.14059947887E+03  0.19210196198E+03  0.12000000000E+03 0.  0.
<mgrwt>
<rscale>  0 0.27123574E+03</rscale>
<asrwt>0</asrwt>
<pdfrwt beam="1">  1        2 0.40576068E-01 0.27123574E+03</pdfrwt>
<pdfrwt beam="2">  1       -2 0.10728455E-01 0.27123574E+03</pdfrwt>
<totfact> 0.73931848E+03</totfact>
</mgrwt>
</event>
<event>
 4    1  0.1749575E-004  0.3807652E+03  0.7818608E-02  0.1050651E+00
          2   -1    0    0  501    0  0.00000000000E+00  0.00000000000E+00  0.15248243623E+04  0.15248243623E+04  0.00000000000E+00 0.  1.
         -2   -1    0    0    0  501 -0.00000000000E+00 -0.00000000000E+00 -0.23770296415E+02  0.23770296415E+02  0.00000000000E+00 0.  1.
         25    1    1    2    0    0 -0.79778059992E+02  0.11876660295E+03  0.59968997758E+03  0.62809084855E+03  0.12000000000E+03 0.  0.
         25    1    1    2    0    0  0.79778059992E+02 -0.11876660295E+03  0.90136408833E+03  0.92050381019E+03  0.12000000000E+03 0.  0.
<mgrwt>
<rscale>  0 0.38076516E+03</rscale>
<asrwt>0</asrwt>
<pdfrwt beam="1">  1        2 0.23458829E+00 0.38076516E+03</pdfrwt>
<pdfrwt beam="2">  1       -2 0.36569699E-02 0.38076516E+03</pdfrwt>
<totfact> 0.41708764E+03</totfact>
</mgrwt>
</event>
<event>
 4    1  0.1749575E-004  0.2974413E+03  0.7818608E-02  0.1086527E+00
         -1   -1    0    0    0  501 -0.00000000000E+00  0.00000000000E+00  0.30525027207E+02  0.30525027207E+02  0.00000000000E+00 0. -1.
          1   -1    0    0  501    0  0.00000000000E+00 -0.00000000000E+00 -0.72458039097E+03  0.72458039097E+03  0.00000000000E+00 0. -1.
         25    1    1    2    0    0 -0.74646399024E+02  0.45858206780E+02 -0.33042389974E+03  0.36229133792E+03  0.12000000000E+03 0.  0.
         25    1    1    2    0    0  0.74646399024E+02 -0.45858206780E+02 -0.36363146403E+03  0.39281408026E+03  0.12000000000E+03 0.  0.
<mgrwt>
<rscale>  0 0.29744133E+03</rscale>
<asrwt>0</asrwt>
<pdfrwt beam="1">  1        1 0.11147390E+00 0.29744133E+03</pdfrwt>
<pdfrwt beam="2">  1       -1 0.46961581E-02 0.29744133E+03</pdfrwt>
<totfact> 0.51803181E+03</totfact>
</mgrwt>
</event>
<event>
 4    1  0.1749575E-004  0.2767575E+03  0.7818608E-02  0.1097473E+00
         -2   -1    0    0    0  501 -0.00000000000E+00  0.00000000000E+00  0.46378098753E+02  0.46378098753E+02  0.00000000000E+00 0.  1.
          2   -1    0    0  501    0  0.00000000000E+00 -0.00000000000E+00 -0.41288203778E+03  0.41288203778E+03  0.00000000000E+00 0.  1.
         25    1    1    2    0    0 -0.60656032834E+02  0.72390559836E+01 -0.13032870840E+03  0.18739565225E+03  0.12000000000E+03 0.  0.
         25    1    1    2    0    0  0.60656032834E+02 -0.72390559836E+01 -0.23617523063E+03  0.27186448428E+03  0.12000000000E+03 0.  0.
<mgrwt>
<rscale>  0 0.27675754E+03</rscale>
<asrwt>0</asrwt>
<pdfrwt beam="1">  1        2 0.63520311E-01 0.27675754E+03</pdfrwt>
<pdfrwt beam="2">  1       -2 0.71350924E-02 0.27675754E+03</pdfrwt>
<totfact> 0.86659894E+03</totfact>
</mgrwt>
</event>
<event>
 4    1  0.1749575E-004  0.2738125E+03  0.7818608E-02  0.1099117E+00
          2   -1    0    0  501    0  0.00000000000E+00  0.00000000000E+00  0.29290631252E+03  0.29290631252E+03  0.00000000000E+00 0. -1.
         -2   -1    0    0    0  501 -0.00000000000E+00 -0.00000000000E+00 -0.63990855811E+02  0.63990855811E+02  0.00000000000E+00 0. -1.
         25    1    1    2    0    0  0.12349946313E+02 -0.22592795225E+02  0.19353205912E+03  0.22916721729E+03  0.12000000000E+03 0.  0.
         25    1    1    2    0    0 -0.12349946313E+02  0.22592795225E+02  0.35383397590E+02  0.12772995105E+03  0.12000000000E+03 0.  0.
<mgrwt>
<rscale>  0 0.27381253E+03</rscale>
<asrwt>0</asrwt>
<pdfrwt beam="1">  1        2 0.45062509E-01 0.27381253E+03</pdfrwt>
<pdfrwt beam="2">  1       -2 0.98447472E-02 0.27381253E+03</pdfrwt>
<totfact> 0.75762847E+03</totfact>
</mgrwt>
</event>
<event>
 4    1  0.1749575E-004  0.2764112E+03  0.7818608E-02  0.1097665E+00
          2   -1    0    0  501    0  0.00000000000E+00  0.00000000000E+00  0.58755426599E+03  0.58755426599E+03  0.00000000000E+00 0.  1.
         -2   -1    0    0    0  501 -0.00000000000E+00 -0.00000000000E+00 -0.32508984593E+02  0.32508984593E+02  0.00000000000E+00 0.  1.
         25    1    1    2    0    0 -0.33656024891E+01  0.67091802634E+02  0.24675185726E+03  0.28248737374E+03  0.12000000000E+03 0.  0.
         25    1    1    2    0    0  0.33656024891E+01 -0.67091802634E+02  0.30829342414E+03  0.33757587684E+03  0.12000000000E+03 0.  0.
<mgrwt>
<rscale>  0 0.27641123E+03</rscale>
<asrwt>0</asrwt>
<pdfrwt beam="1">  1        2 0.90392956E-01 0.27641123E+03</pdfrwt>
<pdfrwt beam="2">  1       -2 0.50013827E-02 0.27641123E+03</pdfrwt>
<totfact> 0.10074347E+04</totfact>
</mgrwt>
</event>
<event>
 4    1  0.1749575E-004  0.2465448E+03  0.7818608E-02  0.1115508E+00
         -4   -1    0    0    0  501 -0.00000000000E+00  0.00000000000E+00  0.15019458361E+04  0.15019458361E+04  0.00000000000E+00 0.  1.
          4   -1    0    0  501    0  0.00000000000E+00 -0.00000000000E+00 -0.10117598372E+02  0.10117598372E+02  0.00000000000E+00 0.  1.
         25    1    1    2    0    0 -0.14106052188E+02 -0.12217665007E+02  0.87570137867E+03  0.88408209837E+03  0.12000000000E+03 0.  0.
         25    1    1    2    0    0  0.14106052188E+02  0.12217665007E+02  0.61612685908E+03  0.62798133612E+03  0.12000000000E+03 0.  0.
<mgrwt>
<rscale>  0 0.24654480E+03</rscale>
<asrwt>0</asrwt>
<pdfrwt beam="1">  1        4 0.15565548E-02 0.24654480E+03</pdfrwt>
<pdfrwt beam="2">  1       -4 0.23106841E+00 0.24654480E+03</pdfrwt>
<totfact> 0.25678352E+02</totfact>
</mgrwt>
</event>
<event>
 4    1  0.1749575E-004  0.2435700E+03  0.7818608E-02  0.1117437E+00
         -1   -1    0    0    0  501 -0.00000000000E+00  0.00000000000E+00  0.15295528828E+03  0.15295528828E+03  0.00000000000E+00 0. -1.
          1   -1    0    0  501    0  0.00000000000E+00 -0.00000000000E+00 -0.96966788258E+02  0.96966788258E+02  0.00000000000E+00 0. -1.
         25    1    1    2    0    0  0.36773663578E+01 -0.12835622745E+02  0.11663568466E+02  0.12130257649E+03  0.12000000000E+03 0.  0.
         25    1    1    2    0    0 -0.36773663578E+01  0.12835622745E+02  0.44324931560E+02  0.12861950005E+03  0.12000000000E+03 0.  0.
<mgrwt>
<rscale>  0 0.24356997E+03</rscale>
<asrwt>0</asrwt>
<pdfrwt beam="1">  1        1 0.14917967E-01 0.24356997E+03</pdfrwt>
<pdfrwt beam="2">  1       -1 0.23531583E-01 0.24356997E+03</pdfrwt>
<totfact> 0.57034007E+03</totfact>
</mgrwt>
</event>
<event>
 4    1  0.1749575E-004  0.3695150E+03  0.7818608E-02  0.1054879E+00
         -1   -1    0    0    0  501 -0.00000000000E+00  0.00000000000E+00  0.42756040621E+02  0.42756040621E+02  0.00000000000E+00 0. -1.
          1   -1    0    0  501    0  0.00000000000E+00 -0.00000000000E+00 -0.79837432419E+03  0.79837432419E+03  0.00000000000E+00 0. -1.
         25    1    1    2    0    0  0.48907397075E+02 -0.77813166166E+02 -0.13595726310E+03  0.20330076170E+03  0.12000000000E+03 0.  0.
         25    1    1    2    0    0 -0.48907397075E+02  0.77813166166E+02 -0.61966102047E+03  0.63782960311E+03  0.12000000000E+03 0.  0.
<mgrwt>
<rscale>  0 0.36951495E+03</rscale>
<asrwt>0</asrwt>
<pdfrwt beam="1">  1        1 0.12282682E+00 0.36951495E+03</pdfrwt>
<pdfrwt beam="2">  1       -1 0.65778523E-02 0.36951495E+03</pdfrwt>
<totfact> 0.26935805E+03</totfact>
</mgrwt>
</event>
<event>
 4    1  0.1749575E-004  0.2463655E+03  0.7818608E-02  0.1115624E+00
         -2   -1    0    0    0  501 -0.00000000000E+00  0.00000000000E+00  0.64326826559E+01  0.64326826559E+01  0.00000000000E+00 0.  1.
          2   -1    0    0  501    0  0.00000000000E+00 -0.00000000000E+00 -0.23588893508E+04  0.23588893508E+04  0.00000000000E+00 0.  1.
         25    1    1    2    0    0  0.21768683857E+02  0.85973828252E+00 -0.10101106275E+04  0.10174468510E+04  0.12000000000E+03 0.  0.
         25    1    1    2    0    0 -0.21768683857E+02 -0.85973828252E+00 -0.13423460406E+04  0.13478751825E+04  0.12000000000E+03 0.  0.
<mgrwt>
<rscale>  0 0.24636547E+03</rscale>
<asrwt>0</asrwt>
<pdfrwt beam="1">  1        2 0.36290680E+00 0.24636547E+03</pdfrwt>
<pdfrwt beam="2">  1       -2 0.98964145E-03 0.24636547E+03</pdfrwt>
<totfact> 0.10346540E+04</totfact>
</mgrwt>
</event>
<event>
 4    1  0.1749575E-004  0.2802334E+03  0.7818608E-02  0.1095562E+00
          1   -1    0    0  501    0  0.00000000000E+00  0.00000000000E+00  0.43491675322E+03  0.43491675322E+03  0.00000000000E+00 0. -1.
         -1   -1    0    0    0  501 -0.00000000000E+00 -0.00000000000E+00 -0.45141258521E+02  0.45141258521E+02  0.00000000000E+00 0. -1.
         25    1    1    2    0    0 -0.23810345785E+02  0.47523136083E+02  0.11083736243E+03  0.17178562786E+03  0.12000000000E+03 0.  0.
         25    1    1    2    0    0  0.23810345785E+02 -0.47523136083E+02  0.27893813226E+03  0.30827238387E+03  0.12000000000E+03 0.  0.
<mgrwt>
<rscale>  0 0.28023340E+03</rscale>
<asrwt>0</asrwt>
<pdfrwt beam="1">  1        1 0.66910267E-01 0.28023340E+03</pdfrwt>
<pdfrwt beam="2">  1       -1 0.69448093E-02 0.28023340E+03</pdfrwt>
<totfact> 0.57839286E+03</totfact>
</mgrwt>
</event>
<event>
 4    1  0.1749575E-004  0.2978248E+03  0.7818608E-02  0.1086333E+00
          2   -1    0    0  501    0  0.00000000000E+00  0.00000000000E+00  0.12502931882E+04  0.12502931882E+04  0.00000000000E+00 0.  1.
         -2   -1    0    0    0  501 -0.00000000000E+00 -0.00000000000E+00 -0.17735756952E+02  0.17735756952E+02  0.00000000000E+00 0.  1.
         25    1    1    2    0    0 -0.42636815810E+02 -0.29768407792E+02  0.31309328627E+03  0.33931027405E+03  0.12000000000E+03 0.  0.
         25    1    1    2    0    0  0.42636815810E+02  0.29768407792E+02  0.91946414499E+03  0.92871867112E+03  0.12000000000E+03 0.  0.
<mgrwt>
<rscale>  0 0.29782475E+03</rscale>
<asrwt>0</asrwt>
<pdfrwt beam="1">  1        2 0.19235273E+00 0.29782475E+03</pdfrwt>
<pdfrwt beam="2">  1       -2 0.27285790E-02 0.29782475E+03</pdfrwt>
<totfact> 0.91406314E+03</totfact>
</mgrwt>
</event>
<event>
 4    1  0.1749575E-004  0.3382003E+03  0.7818608E-02  0.1067565E+00
          2   -1    0    0  501    0  0.00000000000E+00  0.00000000000E+00  0.16103315664E+04  0.16103315664E+04  0.00000000000E+00 0.  1.
         -2   -1    0    0    0  501 -0.00000000000E+00 -0.00000000000E+00 -0.17757130310E+02  0.17757130310E+02  0.00000000000E+00 0.  1.
         25    1    1    2    0    0  0.79772084770E+02 -0.76567326496E+02  0.10098849869E+04  0.10229828091E+04  0.12000000000E+03 0.  0.
         25    1    1    2    0    0 -0.79772084770E+02  0.76567326496E+02  0.58268944918E+03  0.60510588758E+03  0.12000000000E+03 0.  0.
<mgrwt>
<rscale>  0 0.33820034E+03</rscale>
<asrwt>0</asrwt>
<pdfrwt beam="1">  1        2 0.24774320E+00 0.33820034E+03</pdfrwt>
<pdfrwt beam="2">  1       -2 0.27318675E-02 0.33820034E+03</pdfrwt>
<totfact> 0.58151011E+03</totfact>
</mgrwt>
</event>
<event>
 4    1  0.1749575E-004  0.2637209E+03  0.7818608E-02  0.1104928E+00
          1   -1    0    0  501    0  0.00000000000E+00  0.00000000000E+00  0.79837712937E+03  0.79837712937E+03  0.00000000000E+00 0. -1.
         -1   -1    0    0    0  501 -0.00000000000E+00 -0.00000000000E+00 -0.21778156233E+02  0.21778156233E+02  0.00000000000E+00 0. -1.
         25    1    1    2    0    0  0.14124872162E+02 -0.46216281957E+02  0.46769276320E+03  0.48525454916E+03  0.12000000000E+03 0.  0.
         25    1    1    2    0    0 -0.14124872162E+02  0.46216281957E+02  0.30890620994E+03  0.33490073645E+03  0.12000000000E+03 0.  0.
<mgrwt>
<rscale>  0 0.26372093E+03</rscale>
<asrwt>0</asrwt>
<pdfrwt beam="1">  1        1 0.12282723E+00 0.26372093E+03</pdfrwt>
<pdfrwt beam="2">  1       -1 0.33504862E-02 0.26372093E+03</pdfrwt>
<totfact> 0.73744099E+03</totfact>
</mgrwt>
</event>
<event>
 4    1  0.1749575E-004  0.2864104E+03  0.7818608E-02  0.1092238E+00
          1   -1    0    0  501    0  0.00000000000E+00  0.00000000000E+00  0.88424048263E+03  0.88424048263E+03  0.00000000000E+00 0.  1.
         -1   -1    0    0    0  501 -0.00000000000E+00 -0.00000000000E+00 -0.23192476024E+02  0.23192476024E+02  0.00000000000E+00 0.  1.
         25    1    1    2    0    0 -0.40451400740E+02  0.21775650499E+02  0.23021270568E+03  0.26364442841E+03  0.12000000000E+03 0.  0.
         25    1    1    2    0    0  0.40451400740E+02 -0.21775650499E+02  0.63083530093E+03  0.64378853025E+03  0.12000000000E+03 0.  0.
<mgrwt>
<rscale>  0 0.28641038E+03</rscale>
<asrwt>0</asrwt>
<pdfrwt beam="1">  1        1 0.13603697E+00 0.28641038E+03</pdfrwt>
<pdfrwt beam="2">  1       -1 0.35680739E-02 0.28641038E+03</pdfrwt>
<totfact> 0.57313546E+03</totfact>
</mgrwt>
</event>
<event>
 4    1  0.1749575E-004  0.2476553E+03  0.7818608E-02  0.1114796E+00
         -1   -1    0    0    0  501 -0.00000000000E+00  0.00000000000E+00  0.17868966256E+04  0.17868966256E+04  0.00000000000E+00 0. -1.
          1   -1    0    0  501    0  0.00000000000E+00 -0.00000000000E+00 -0.85809625283E+01  0.85809625283E+01  0.00000000000E+00 0. -1.
         25    1    1    2    0    0 -0.21567831233E+02 -0.13975465073E+02  0.76941187955E+03  0.77913742392E+03  0.12000000000E+03 0.  0.
         25    1    1    2    0    0  0.21567831233E+02  0.13975465073E+02  0.10089037835E+04  0.10163401642E+04  0.12000000000E+03 0.  0.
<mgrwt>
<rscale>  0 0.24765535E+03</rscale>
<asrwt>0</asrwt>
<pdfrwt beam="1">  1        1 0.13201495E-02 0.24765535E+03</pdfrwt>
<pdfrwt beam="2">  1       -1 0.27490688E+00 0.24765535E+03</pdfrwt>
<totfact> 0.60409901E+02</totfact>
</mgrwt>
</event>
<event>
 4    1  0.1749575E-004  0.2847537E+03  0.7818608E-02  0.1093121E+00
          1   -1    0    0  501    0  0.00000000000E+00  0.00000000000E+00  0.11488304500E+04  0.11488304500E+04  0.00000000000E+00 0. -1.
         -1   -1    0    0    0  501 -0.00000000000E+00 -0.00000000000E+00 -0.17645045936E+02  0.17645045936E+02  0.00000000000E+00 0. -1.
         25    1    1    2    0    0  0.22775136848E+02  0.31659788781E+02  0.83577489760E+03  0.84524595743E+03  0.12000000000E+03 0.  0.
         25    1    1    2    0    0 -0.22775136848E+02 -0.31659788781E+02  0.29541050649E+03  0.32122953854E+03  0.12000000000E+03 0.  0.
<mgrwt>
<rscale>  0 0.28475369E+03</rscale>
<asrwt>0</asrwt>
<pdfrwt beam="1">  1        1 0.17674309E+00 0.28475369E+03</pdfrwt>
<pdfrwt beam="2">  1       -1 0.27146234E-02 0.28475369E+03</pdfrwt>
<totfact> 0.54461129E+03</totfact>
</mgrwt>
</event>
<event>
 4    1  0.1749575E-004  0.3147446E+03  0.7818608E-02  0.1078094E+00
         -1   -1    0    0    0  501 -0.00000000000E+00  0.00000000000E+00  0.11303843905E+04  0.11303843905E+04  0.00000000000E+00 0.  1.
          1   -1    0    0  501    0  0.00000000000E+00 -0.00000000000E+00 -0.21909390996E+02  0.21909390996E+02  0.00000000000E+00 0.  1.
         25    1    1    2    0    0 -0.56002228773E+02  0.27468705889E+02  0.25963705144E+03  0.29274934314E+03  0.12000000000E+03 0.  0.
         25    1    1    2    0    0  0.56002228773E+02 -0.27468705889E+02  0.84883794811E+03  0.85954443840E+03  0.12000000000E+03 0.  0.
<mgrwt>
<rscale>  0 0.31474455E+03</rscale>
<asrwt>0</asrwt>
<pdfrwt beam="1">  1        1 0.33706764E-02 0.31474455E+03</pdfrwt>
<pdfrwt beam="2">  1       -1 0.17390525E+00 0.31474455E+03</pdfrwt>
<totfact> 0.73106004E+02</totfact>
</mgrwt>
</event>
<event>
 4    1  0.1749575E-004  0.2904458E+03  0.7818608E-02  0.1090117E+00
          2   -1    0    0  501    0  0.00000000000E+00  0.00000000000E+00  0.56891224363E+03  0.56891224363E+03  0.00000000000E+00 0.  1.
         -2   -1    0    0    0  501 -0.00000000000E+00 -0.00000000000E+00 -0.37070198146E+02  0.37070198146E+02  0.00000000000E+00 0.  1.
         25    1    1    2    0    0 -0.42832493835E+02 -0.59945348396E+02  0.34002808982E+03  0.36803147853E+03  0.12000000000E+03 0.  0.
         25    1    1    2    0    0  0.42832493835E+02  0.59945348396E+02  0.19181395567E+03  0.23795096325E+03  0.12000000000E+03 0.  0.
<mgrwt>
<rscale>  0 0.29044579E+03</rscale>
<asrwt>0</asrwt>
<pdfrwt beam="1">  1        2 0.87524954E-01 0.29044579E+03</pdfrwt>
<pdfrwt beam="2">  1       -2 0.57031078E-02 0.29044579E+03</pdfrwt>
<totfact> 0.85721777E+03</totfact>
</mgrwt>
</event>
<event>
 4    1  0.1749575E-004  0.2500966E+03  0.7818608E-02  0.1113244E+00
         -1   -1    0    0    0  501 -0.00000000000E+00  0.00000000000E+00  0.91824191547E+01  0.91824191547E+01  0.00000000000E+00 0. -1.
          1   -1    0    0  501    0  0.00000000000E+00 -0.00000000000E+00 -0.17029372288E+04  0.17029372288E+04  0.00000000000E+00 0. -1.
         25    1    1    2    0    0  0.32611328416E+02 -0.52254321830E+01 -0.92967506083E+03  0.93796936123E+03  0.12000000000E+03 0.  0.
         25    1    1    2    0    0 -0.32611328416E+02  0.52254321830E+01 -0.76407974886E+03  0.77415028677E+03  0.12000000000E+03 0.  0.
<mgrwt>
<rscale>  0 0.25009665E+03</rscale>
<asrwt>0</asrwt>
<pdfrwt beam="1">  1        1 0.26199060E+00 0.25009665E+03</pdfrwt>
<pdfrwt beam="2">  1       -1 0.14126785E-02 0.25009665E+03</pdfrwt>
<totfact> 0.59869181E+03</totfact>
</mgrwt>
</event>
<event>
 4    1  0.1749575E-004  0.3104297E+03  0.7818608E-02  0.1080140E+00
         -2   -1    0    0    0  501 -0.00000000000E+00  0.00000000000E+00  0.23385651837E+02  0.23385651837E+02  0.00000000000E+00 0.  1.
          2   -1    0    0  501    0  0.00000000000E+00 -0.00000000000E+00 -0.10301894678E+04  0.10301894678E+04  0.00000000000E+00 0.  1.
         25    1    1    2    0    0  0.97333923335E+02  0.11883997184E+02 -0.53309248523E+03  0.55516008487E+03  0.12000000000E+03 0.  0.
         25    1    1    2    0    0 -0.97333923335E+02 -0.11883997184E+02 -0.47371133074E+03  0.49841503478E+03  0.12000000000E+03 0.  0.
<mgrwt>
<rscale>  0 0.31042972E+03</rscale>
<asrwt>0</asrwt>
<pdfrwt beam="1">  1        2 0.15849071E+00 0.31042972E+03</pdfrwt>
<pdfrwt beam="2">  1       -2 0.35977922E-02 0.31042972E+03</pdfrwt>
<totfact> 0.81293622E+03</totfact>
</mgrwt>
</event>
<event>
 4    1  0.1749575E-004  0.2999618E+03  0.7818608E-02  0.1085260E+00
          3   -1    0    0  501    0  0.00000000000E+00  0.00000000000E+00  0.79819907923E+02  0.79819907923E+02  0.00000000000E+00 0. -1.
         -3   -1    0    0    0  501 -0.00000000000E+00 -0.00000000000E+00 -0.28181272679E+03  0.28181272679E+03  0.00000000000E+00 0. -1.
         25    1    1    2    0    0  0.26169271665E+01  0.87447746372E+02 -0.12629408465E+03  0.19494653747E+03  0.12000000000E+03 0.  0.
         25    1    1    2    0    0 -0.26169271665E+01 -0.87447746372E+02 -0.75698734223E+02  0.16668609725E+03  0.12000000000E+03 0.  0.
<mgrwt>
<rscale>  0 0.29996177E+03</rscale>
<asrwt>0</asrwt>
<pdfrwt beam="1">  1        3 0.12279986E-01 0.29996177E+03</pdfrwt>
<pdfrwt beam="2">  1       -3 0.43355803E-01 0.29996177E+03</pdfrwt>
<totfact> 0.71034336E+02</totfact>
</mgrwt>
</event>
<event>
 4    1  0.1749575E-004  0.2587410E+03  0.7818608E-02  0.1107902E+00
          1   -1    0    0  501    0  0.00000000000E+00  0.00000000000E+00  0.13241007064E+04  0.13241007064E+04  0.00000000000E+00 0.  1.
         -1   -1    0    0    0  501 -0.00000000000E+00 -0.00000000000E+00 -0.12640074211E+02  0.12640074211E+02  0.00000000000E+00 0.  1.
         25    1    1    2    0    0 -0.20686901032E+02  0.14330293696E+02  0.86895796441E+03  0.87756552411E+03  0.12000000000E+03 0.  0.
         25    1    1    2    0    0  0.20686901032E+02 -0.14330293696E+02  0.44250266775E+03  0.45917525647E+03  0.12000000000E+03 0.  0.
<mgrwt>
<rscale>  0 0.25874104E+03</rscale>
<asrwt>0</asrwt>
<pdfrwt beam="1">  1        1 0.20370769E+00 0.25874104E+03</pdfrwt>
<pdfrwt beam="2">  1       -1 0.19446278E-02 0.25874104E+03</pdfrwt>
<totfact> 0.67024022E+03</totfact>
</mgrwt>
</event>
<event>
 4    1  0.1749575E-004  0.2998235E+03  0.7818608E-02  0.1085329E+00
          2   -1    0    0  501    0  0.00000000000E+00  0.00000000000E+00  0.21266941009E+03  0.21266941009E+03  0.00000000000E+00 0.  1.
         -2   -1    0    0    0  501 -0.00000000000E+00 -0.00000000000E+00 -0.10567356478E+03  0.10567356478E+03  0.00000000000E+00 0.  1.
         25    1    1    2    0    0 -0.70352747016E+01  0.82006826404E+02  0.91764602884E+02  0.17203301139E+03  0.12000000000E+03 0.  0.
         25    1    1    2    0    0  0.70352747016E+01 -0.82006826404E+02  0.15231242431E+02  0.14630996348E+03  0.12000000000E+03 0.  0.
<mgrwt>
<rscale>  0 0.29982351E+03</rscale>
<asrwt>0</asrwt>
<pdfrwt beam="1">  1        2 0.32718371E-01 0.29982351E+03</pdfrwt>
<pdfrwt beam="2">  1       -2 0.16257472E-01 0.29982351E+03</pdfrwt>
<totfact> 0.47534917E+03</totfact>
</mgrwt>
</event>
<event>
 4    1  0.1749575E-004  0.2814737E+03  0.7818608E-02  0.1094887E+00
         -2   -1    0    0    0  501 -0.00000000000E+00  0.00000000000E+00  0.13972424793E+02  0.13972424793E+02  0.00000000000E+00 0.  1.
          2   -1    0    0  501    0  0.00000000000E+00 -0.00000000000E+00 -0.14175681436E+04  0.14175681436E+04  0.00000000000E+00 0.  1.
         25    1    1    2    0    0  0.36637740153E+02 -0.63700913260E+02 -0.71499560744E+03  0.72871040134E+03  0.12000000000E+03 0.  0.
         25    1    1    2    0    0 -0.36637740153E+02  0.63700913260E+02 -0.68860011139E+03  0.70283016708E+03  0.12000000000E+03 0.  0.
<mgrwt>
<rscale>  0 0.28147372E+03</rscale>
<asrwt>0</asrwt>
<pdfrwt beam="1">  1        2 0.21808735E+00 0.28147372E+03</pdfrwt>
<pdfrwt beam="2">  1       -2 0.21496044E-02 0.28147372E+03</pdfrwt>
<totfact> 0.10510646E+04</totfact>
</mgrwt>
</event>
<event>
 4    1  0.1749575E-004  0.3038233E+03  0.7818608E-02  0.1083345E+00
          2   -1    0    0  501    0  0.00000000000E+00  0.00000000000E+00  0.46949712031E+03  0.46949712031E+03  0.00000000000E+00 0. -1.
         -2   -1    0    0    0  501 -0.00000000000E+00 -0.00000000000E+00 -0.49152896326E+02  0.49152896326E+02  0.00000000000E+00 0. -1.
         25    1    1    2    0    0  0.18324792052E+02 -0.63759458423E+02  0.98543346357E+02  0.16885454585E+03  0.12000000000E+03 0.  0.
         25    1    1    2    0    0 -0.18324792052E+02  0.63759458423E+02  0.32180087763E+03  0.34979547079E+03  0.12000000000E+03 0.  0.
<mgrwt>
<rscale>  0 0.30382326E+03</rscale>
<asrwt>0</asrwt>
<pdfrwt beam="1">  1        2 0.72230323E-01 0.30382326E+03</pdfrwt>
<pdfrwt beam="2">  1       -2 0.75619844E-02 0.30382326E+03</pdfrwt>
<totfact> 0.68943363E+03</totfact>
</mgrwt>
</event>
<event>
 4    1  0.1749575E-004  0.3575218E+03  0.7818608E-02  0.1059569E+00
         -2   -1    0    0    0  501 -0.00000000000E+00  0.00000000000E+00  0.36314026929E+02  0.36314026929E+02  0.00000000000E+00 0. -1.
          2   -1    0    0  501    0  0.00000000000E+00 -0.00000000000E+00 -0.87997575449E+03  0.87997575449E+03  0.00000000000E+00 0. -1.
         25    1    1    2    0    0  0.45485697949E+02 -0.65338037101E+02 -0.69327312543E+03  0.70807177196E+03  0.12000000000E+03 0.  0.
         25    1    1    2    0    0 -0.45485697949E+02  0.65338037101E+02 -0.15038860213E+03  0.20821800946E+03  0.12000000000E+03 0.  0.
<mgrwt>
<rscale>  0 0.35752182E+03</rscale>
<asrwt>0</asrwt>
<pdfrwt beam="1">  1        2 0.13538089E+00 0.35752182E+03</pdfrwt>
<pdfrwt beam="2">  1       -2 0.55867732E-02 0.35752182E+03</pdfrwt>
<totfact> 0.51954700E+03</totfact>
</mgrwt>
</event>
<event>
 4    1  0.1749575E-004  0.2821630E+03  0.7818608E-02  0.1094513E+00
         -4   -1    0    0    0  501 -0.00000000000E+00  0.00000000000E+00  0.36802532253E+02  0.36802532253E+02  0.00000000000E+00 0.  1.
          4   -1    0    0  501    0  0.00000000000E+00 -0.00000000000E+00 -0.54083190703E+03  0.54083190703E+03  0.00000000000E+00 0.  1.
         25    1    1    2    0    0  0.73060348044E+01  0.53064165612E+02 -0.35709634068E+03  0.38050884397E+03  0.12000000000E+03 0.  0.
         25    1    1    2    0    0 -0.73060348044E+01 -0.53064165612E+02 -0.14693303410E+03  0.19712559531E+03  0.12000000000E+03 0.  0.
<mgrwt>
<rscale>  0 0.28216296E+03</rscale>
<asrwt>0</asrwt>
<pdfrwt beam="1">  1        4 0.83204905E-01 0.28216296E+03</pdfrwt>
<pdfrwt beam="2">  1       -4 0.56619283E-02 0.28216296E+03</pdfrwt>
<totfact> 0.47702415E+02</totfact>
</mgrwt>
</event>
<event>
 4    1  0.1749575E-004  0.2637800E+03  0.7818608E-02  0.1104893E+00
          1   -1    0    0  501    0  0.00000000000E+00  0.00000000000E+00  0.88320421533E+03  0.88320421533E+03  0.00000000000E+00 0.  1.
         -1   -1    0    0    0  501 -0.00000000000E+00 -0.00000000000E+00 -0.19695306954E+02  0.19695306954E+02  0.00000000000E+00 0.  1.
         25    1    1    2    0    0 -0.40520160697E+02  0.20530449434E+02  0.53622915582E+03  0.55136656620E+03  0.12000000000E+03 0.  0.
         25    1    1    2    0    0  0.40520160697E+02 -0.20530449434E+02  0.32727975256E+03  0.35153295609E+03  0.12000000000E+03 0.  0.
<mgrwt>
<rscale>  0 0.26378005E+03</rscale>
<asrwt>0</asrwt>
<pdfrwt beam="1">  1        1 0.13587754E+00 0.26378005E+03</pdfrwt>
<pdfrwt beam="2">  1       -1 0.30300479E-02 0.26378005E+03</pdfrwt>
<totfact> 0.72985656E+03</totfact>
</mgrwt>
</event>
<event>
 4    1  0.1749575E-004  0.3614482E+03  0.7818608E-02  0.1058012E+00
         -1   -1    0    0    0  501 -0.00000000000E+00  0.00000000000E+00  0.20339011426E+03  0.20339011426E+03  0.00000000000E+00 0.  1.
          1   -1    0    0  501    0  0.00000000000E+00 -0.00000000000E+00 -0.16058404768E+03  0.16058404768E+03  0.00000000000E+00 0.  1.
         25    1    1    2    0    0 -0.25966579765E+02  0.12453348187E+03  0.67310619020E+02  0.18738615425E+03  0.12000000000E+03 0.  0.
         25    1    1    2    0    0  0.25966579765E+02 -0.12453348187E+03 -0.24504552443E+02  0.17658800770E+03  0.12000000000E+03 0.  0.
<mgrwt>
<rscale>  0 0.36144824E+03</rscale>
<asrwt>0</asrwt>
<pdfrwt beam="1">  1        1 0.24705238E-01 0.36144824E+03</pdfrwt>
<pdfrwt beam="2">  1       -1 0.31290787E-01 0.36144824E+03</pdfrwt>
<totfact> 0.18535974E+03</totfact>
</mgrwt>
</event>
<event>
 4    1  0.1749575E-004  0.2697597E+03  0.7818608E-02  0.1101417E+00
          2   -1    0    0  501    0  0.00000000000E+00  0.00000000000E+00  0.70034064283E+02  0.70034064283E+02  0.00000000000E+00 0. -1.
         -2   -1    0    0    0  501 -0.00000000000E+00 -0.00000000000E+00 -0.25976747979E+03  0.25976747979E+03  0.00000000000E+00 0. -1.
         25    1    1    2    0    0  0.20638328379E+02 -0.51006768042E+02 -0.12868017569E+03  0.18435351529E+03  0.12000000000E+03 0.  0.
         25    1    1    2    0    0 -0.20638328379E+02  0.51006768042E+02 -0.61053239818E+02  0.14544802878E+03  0.12000000000E+03 0.  0.
<mgrwt>
<rscale>  0 0.26975969E+03</rscale>
<asrwt>0</asrwt>
<pdfrwt beam="1">  1        2 0.10774471E-01 0.26975969E+03</pdfrwt>
<pdfrwt beam="2">  1       -2 0.39964228E-01 0.26975969E+03</pdfrwt>
<totfact> 0.34648975E+03</totfact>
</mgrwt>
</event>
<event>
 4    1  0.1749575E-004  0.3002776E+03  0.7818608E-02  0.1085102E+00
         -1   -1    0    0    0  501 -0.00000000000E+00  0.00000000000E+00  0.19316559068E+02  0.19316559068E+02  0.00000000000E+00 0. -1.
          1   -1    0    0  501    0  0.00000000000E+00 -0.00000000000E+00 -0.11669607526E+04  0.11669607526E+04  0.00000000000E+00 0. -1.
         25    1    1    2    0    0 -0.76673081326E+02 -0.40052736848E+02 -0.47243060641E+03  0.49504915009E+03  0.12000000000E+03 0.  0.
         25    1    1    2    0    0  0.76673081326E+02  0.40052736848E+02 -0.67521358716E+03  0.69122816162E+03  0.12000000000E+03 0.  0.
<mgrwt>
<rscale>  0 0.30027765E+03</rscale>
<asrwt>0</asrwt>
<pdfrwt beam="1">  1        1 0.17953238E+00 0.30027765E+03</pdfrwt>
<pdfrwt beam="2">  1       -1 0.29717790E-02 0.30027765E+03</pdfrwt>
<totfact> 0.46290325E+03</totfact>
</mgrwt>
</event>
<event>
 4    1  0.1749575E-004  0.2529645E+03  0.7818608E-02  0.1111446E+00
          2   -1    0    0  501    0  0.00000000000E+00  0.00000000000E+00  0.15766132088E+04  0.15766132088E+04  0.00000000000E+00 0. -1.
         -2   -1    0    0    0  501 -0.00000000000E+00 -0.00000000000E+00 -0.10146911888E+02  0.10146911888E+02  0.00000000000E+00 0. -1.
         25    1    1    2    0    0  0.36428587248E+02  0.56875067371E+01  0.88007733492E+03  0.88898566082E+03  0.12000000000E+03 0.  0.
         25    1    1    2    0    0 -0.36428587248E+02 -0.56875067371E+01  0.68638896203E+03  0.69777445990E+03  0.12000000000E+03 0.  0.
<mgrwt>
<rscale>  0 0.25296447E+03</rscale>
<asrwt>0</asrwt>
<pdfrwt beam="1">  1        2 0.24255568E+00 0.25296447E+03</pdfrwt>
<pdfrwt beam="2">  1       -2 0.15610646E-02 0.25296447E+03</pdfrwt>
<totfact> 0.13781363E+04</totfact>
</mgrwt>
</event>
<event>
 4    1  0.1749575E-004  0.2457595E+03  0.7818608E-02  0.1116014E+00
          3   -1    0    0  501    0  0.00000000000E+00  0.00000000000E+00  0.14118277968E+04  0.14118277968E+04  0.00000000000E+00 0.  1.
         -3   -1    0    0    0  501 -0.00000000000E+00 -0.00000000000E+00 -0.10694953463E+02  0.10694953463E+02  0.00000000000E+00 0.  1.
         25    1    1    2    0    0  0.88645582955E+01 -0.16546362555E+02  0.80840086415E+03  0.81747435413E+03  0.12000000000E+03 0.  0.
         25    1    1    2    0    0 -0.88645582955E+01  0.16546362555E+02  0.59273197915E+03  0.60504839609E+03  0.12000000000E+03 0.  0.
<mgrwt>
<rscale>  0 0.24575950E+03</rscale>
<asrwt>0</asrwt>
<pdfrwt beam="1">  1        3 0.21720413E+00 0.24575950E+03</pdfrwt>
<pdfrwt beam="2">  1       -3 0.16453786E-02 0.24575950E+03</pdfrwt>
<totfact> 0.40903179E+02</totfact>
</mgrwt>
</event>
<event>
 4    1  0.1749575E-004  0.2625043E+03  0.7818608E-02  0.1105648E+00
         -2   -1    0    0    0  501 -0.00000000000E+00  0.00000000000E+00  0.91307717779E+01  0.91307717779E+01  0.00000000000E+00 0. -1.
          2   -1    0    0  501    0  0.00000000000E+00 -0.00000000000E+00 -0.18867114988E+04  0.18867114988E+04  0.00000000000E+00 0. -1.
         25    1    1    2    0    0  0.51455597038E+02 -0.51274938359E+01 -0.84941005229E+03  0.85940177251E+03  0.12000000000E+03 0.  0.
         25    1    1    2    0    0 -0.51455597038E+02  0.51274938359E+01 -0.10281706748E+04  0.10364404981E+04  0.12000000000E+03 0.  0.
<mgrwt>
<rscale>  0 0.26250434E+03</rscale>
<asrwt>0</asrwt>
<pdfrwt beam="1">  1        2 0.29026323E+00 0.26250434E+03</pdfrwt>
<pdfrwt beam="2">  1       -2 0.14047345E-02 0.26250434E+03</pdfrwt>
<totfact> 0.11057102E+04</totfact>
</mgrwt>
</event>
<event>
 4    1  0.1749575E-004  0.2574316E+03  0.7818608E-02  0.1108696E+00
         -2   -1    0    0    0  501 -0.00000000000E+00  0.00000000000E+00  0.17895161238E+02  0.17895161238E+02  0.00000000000E+00 0. -1.
          2   -1    0    0  501    0  0.00000000000E+00 -0.00000000000E+00 -0.92582311084E+03  0.92582311084E+03  0.00000000000E+00 0. -1.
         25    1    1    2    0    0 -0.21670123273E+01 -0.42234478319E+02 -0.52536029589E+03  0.54054776626E+03  0.12000000000E+03 0.  0.
         25    1    1    2    0    0  0.21670123273E+01  0.42234478319E+02 -0.38256765371E+03  0.40317050582E+03  0.12000000000E+03 0.  0.
<mgrwt>
<rscale>  0 0.25743157E+03</rscale>
<asrwt>0</asrwt>
<pdfrwt beam="1">  1        2 0.14243434E+00 0.25743157E+03</pdfrwt>
<pdfrwt beam="2">  1       -2 0.27531015E-02 0.25743157E+03</pdfrwt>
<totfact> 0.13989077E+04</totfact>
</mgrwt>
</event>
<event>
 4    1  0.1749575E-004  0.2586853E+03  0.7818608E-02  0.1107936E+00
          1   -1    0    0  501    0  0.00000000000E+00  0.00000000000E+00  0.56415253461E+03  0.56415253461E+03  0.00000000000E+00 0. -1.
         -1   -1    0    0    0  501 -0.00000000000E+00 -0.00000000000E+00 -0.29654248327E+02  0.29654248327E+02  0.00000000000E+00 0. -1.
         25    1    1    2    0    0 -0.36125408161E+02  0.10246957364E+02  0.19764370394E+03  0.23425003513E+03  0.12000000000E+03 0.  0.
         25    1    1    2    0    0  0.36125408161E+02 -0.10246957364E+02  0.33685458234E+03  0.35955674780E+03  0.12000000000E+03 0.  0.
<mgrwt>
<rscale>  0 0.25868529E+03</rscale>
<asrwt>0</asrwt>
<pdfrwt beam="1">  1        1 0.86792690E-01 0.25868529E+03</pdfrwt>
<pdfrwt beam="2">  1       -1 0.45621925E-02 0.25868529E+03</pdfrwt>
<totfact> 0.76852334E+03</totfact>
</mgrwt>
</event>
<event>
 4    1  0.1749575E-004  0.3195416E+03  0.7818608E-02  0.1075860E+00
          2   -1    0    0  501    0  0.00000000000E+00  0.00000000000E+00  0.11136493783E+04  0.11136493783E+04  0.00000000000E+00 0. -1.
         -2   -1    0    0    0  501 -0.00000000000E+00 -0.00000000000E+00 -0.22921669107E+02  0.22921669107E+02  0.00000000000E+00 0. -1.
         25    1    1    2    0    0  0.56945183140E+02 -0.32588086313E+02  0.25158266357E+03  0.28635393111E+03  0.12000000000E+03 0.  0.
         25    1    1    2    0    0 -0.56945183140E+02  0.32588086313E+02  0.83914504565E+03  0.85021711632E+03  0.12000000000E+03 0.  0.
<mgrwt>
<rscale>  0 0.31954156E+03</rscale>
<asrwt>0</asrwt>
<pdfrwt beam="1">  1        2 0.17133063E+00 0.31954156E+03</pdfrwt>
<pdfrwt beam="2">  1       -2 0.35264115E-02 0.31954156E+03</pdfrwt>
<totfact> 0.74736134E+03</totfact>
</mgrwt>
</event>
<event>
 4    1  0.1749575E-004  0.2811582E+03  0.7818608E-02  0.1095058E+00
         -3   -1    0    0    0  501 -0.00000000000E+00  0.00000000000E+00  0.26729523858E+03  0.26729523858E+03  0.00000000000E+00 0. -1.
          3   -1    0    0  501    0  0.00000000000E+00 -0.00000000000E+00 -0.73935013704E+02  0.73935013704E+02  0.00000000000E+00 0. -1.
         25    1    1    2    0    0  0.94430757878E+01 -0.59006623102E+01  0.18452162448E+03  0.22039106016E+03  0.12000000000E+03 0.  0.
         25    1    1    2    0    0 -0.94430757878E+01  0.59006623102E+01  0.88386003915E+01  0.12083919212E+03  0.12000000000E+03 0.  0.
<mgrwt>
<rscale>  0 0.28115816E+03</rscale>
<asrwt>0</asrwt>
<pdfrwt beam="1">  1        3 0.11374618E-01 0.28115816E+03</pdfrwt>
<pdfrwt beam="2">  1       -3 0.41122344E-01 0.28115816E+03</pdfrwt>
<totfact> 0.89169366E+02</totfact>
</mgrwt>
</event>
<event>
 4    1  0.1749575E-004  0.2776281E+03  0.7818608E-02  0.1096992E+00
          2   -1    0    0  501    0  0.00000000000E+00  0.00000000000E+00  0.12591163416E+04  0.12591163416E+04  0.00000000000E+00 0.  1.
         -2   -1    0    0    0  501 -0.00000000000E+00 -0.00000000000E+00 -0.15303857403E+02  0.15303857403E+02  0.00000000000E+00 0.  1.
         25    1    1    2    0    0 -0.46167820494E+02  0.42297268804E+02  0.76330284362E+03  0.77521078274E+03  0.12000000000E+03 0.  0.
         25    1    1    2    0    0  0.46167820494E+02 -0.42297268804E+02  0.48050964055E+03  0.49920941624E+03  0.12000000000E+03 0.  0.
<mgrwt>
<rscale>  0 0.27762807E+03</rscale>
<asrwt>0</asrwt>
<pdfrwt beam="1">  1        2 0.19371012E+00 0.27762807E+03</pdfrwt>
<pdfrwt beam="2">  1       -2 0.23544406E-02 0.27762807E+03</pdfrwt>
<totfact> 0.11227541E+04</totfact>
</mgrwt>
</event>
<event>
 4    1  0.1749575E-004  0.2761536E+03  0.7818608E-02  0.1097808E+00
          2   -1    0    0  501    0  0.00000000000E+00  0.00000000000E+00  0.68484564997E+03  0.68484564997E+03  0.00000000000E+00 0. -1.
         -2   -1    0    0    0  501 -0.00000000000E+00 -0.00000000000E+00 -0.27838686805E+02  0.27838686805E+02  0.00000000000E+00 0. -1.
         25    1    1    2    0    0  0.40024103111E+02 -0.37932614280E+01  0.47100420885E+03  0.48771024432E+03  0.12000000000E+03 0.  0.
         25    1    1    2    0    0 -0.40024103111E+02  0.37932614280E+01  0.18600275432E+03  0.22497409245E+03  0.12000000000E+03 0.  0.
<mgrwt>
<rscale>  0 0.27615361E+03</rscale>
<asrwt>0</asrwt>
<pdfrwt beam="1">  1        2 0.10536086E+00 0.27615361E+03</pdfrwt>
<pdfrwt beam="2">  1       -2 0.42828754E-02 0.27615361E+03</pdfrwt>
<totfact> 0.10634482E+04</totfact>
</mgrwt>
</event>
<event>
 4    1  0.1749575E-004  0.2522645E+03  0.7818608E-02  0.1111882E+00
         -2   -1    0    0    0  501 -0.00000000000E+00  0.00000000000E+00  0.90756402355E+01  0.90756402355E+01  0.00000000000E+00 0.  1.
          2   -1    0    0  501    0  0.00000000000E+00 -0.00000000000E+00 -0.17529723253E+04  0.17529723253E+04  0.00000000000E+00 0.  1.
         25    1    1    2    0    0  0.26234335842E+02  0.70509383153E+01 -0.10659469372E+04  0.10730241512E+04  0.12000000000E+03 0.  0.
         25    1    1    2    0    0 -0.26234335842E+02 -0.70509383153E+01 -0.67794974789E+03  0.68902381437E+03  0.12000000000E+03 0.  0.
<mgrwt>
<rscale>  0 0.25226451E+03</rscale>
<asrwt>0</asrwt>
<pdfrwt beam="1">  1        2 0.26968816E+00 0.25226451E+03</pdfrwt>
<pdfrwt beam="2">  1       -2 0.13962518E-02 0.25226451E+03</pdfrwt>
<totfact> 0.13097015E+04</totfact>
</mgrwt>
</event>
<event>
 4    1  0.1749575E-004  0.4061115E+03  0.7818608E-02  0.1041684E+00
          2   -1    0    0  501    0  0.00000000000E+00  0.00000000000E+00  0.10294612504E+04  0.10294612504E+04  0.00000000000E+00 0. -1.
         -2   -1    0    0    0  501 -0.00000000000E+00 -0.00000000000E+00 -0.40051656537E+02  0.40051656537E+02  0.00000000000E+00 0. -1.
         25    1    1    2    0    0  0.18778773874E+02 -0.14482949929E+03  0.69007414053E+03  0.71549321845E+03  0.12000000000E+03 0.  0.
         25    1    1    2    0    0 -0.18778773874E+02  0.14482949929E+03  0.29933545329E+03  0.35401968845E+03  0.12000000000E+03 0.  0.
<mgrwt>
<rscale>  0 0.40611145E+03</rscale>
<asrwt>0</asrwt>
<pdfrwt beam="1">  1        2 0.15837863E+00 0.40611145E+03</pdfrwt>
<pdfrwt beam="2">  1       -2 0.61617941E-02 0.40611145E+03</pdfrwt>
<totfact> 0.35915788E+03</totfact>
</mgrwt>
</event>
<event>
 4    1  0.1749575E-004  0.2468796E+03  0.7818608E-02  0.1115293E+00
         -1   -1    0    0    0  501 -0.00000000000E+00  0.00000000000E+00  0.17552005368E+03  0.17552005368E+03  0.00000000000E+00 0. -1.
          1   -1    0    0  501    0  0.00000000000E+00 -0.00000000000E+00 -0.86812798851E+02  0.86812798851E+02  0.00000000000E+00 0. -1.
         25    1    1    2    0    0 -0.16253310415E+02 -0.21115421899E+02  0.32362028503E+02  0.12711149449E+03  0.12000000000E+03 0.  0.
         25    1    1    2    0    0  0.16253310415E+02  0.21115421899E+02  0.56345226323E+02  0.13522135804E+03  0.12000000000E+03 0.  0.
<mgrwt>
<rscale>  0 0.24687962E+03</rscale>
<asrwt>0</asrwt>
<pdfrwt beam="1">  1        1 0.13355815E-01 0.24687962E+03</pdfrwt>
<pdfrwt beam="2">  1       -1 0.27003085E-01 0.24687962E+03</pdfrwt>
<totfact> 0.52503952E+03</totfact>
</mgrwt>
</event>
<event>
 4    1  0.1749575E-004  0.2560308E+03  0.7818608E-02  0.1109552E+00
          1   -1    0    0  501    0  0.00000000000E+00  0.00000000000E+00  0.35361572149E+03  0.35361572149E+03  0.00000000000E+00 0.  1.
         -1   -1    0    0    0  501 -0.00000000000E+00 -0.00000000000E+00 -0.46343919844E+02  0.46343919844E+02  0.00000000000E+00 0.  1.
         25    1    1    2    0    0 -0.38637869847E+02 -0.10501842507E+02  0.12299357171E+03  0.17643863626E+03  0.12000000000E+03 0.  0.
         25    1    1    2    0    0  0.38637869847E+02  0.10501842507E+02  0.18427822993E+03  0.22352100508E+03  0.12000000000E+03 0.  0.
<mgrwt>
<rscale>  0 0.25603077E+03</rscale>
<asrwt>0</asrwt>
<pdfrwt beam="1">  1        1 0.54402417E-01 0.25603077E+03</pdfrwt>
<pdfrwt beam="2">  1       -1 0.71298340E-02 0.25603077E+03</pdfrwt>
<totfact> 0.72212902E+03</totfact>
</mgrwt>
</event>
<event>
 4    1  0.1749575E-004  0.3717953E+03  0.7818608E-02  0.1054009E+00
          1   -1    0    0  501    0  0.00000000000E+00  0.00000000000E+00  0.11012768014E+04  0.11012768014E+04  0.00000000000E+00 0.  1.
         -1   -1    0    0    0  501 -0.00000000000E+00 -0.00000000000E+00 -0.31379890411E+02  0.31379890411E+02  0.00000000000E+00 0.  1.
         25    1    1    2    0    0 -0.55526512427E+02 -0.11582199052E+03  0.71925296831E+03  0.74042066388E+03  0.12000000000E+03 0.  0.
         25    1    1    2    0    0  0.55526512427E+02  0.11582199052E+03  0.35064394265E+03  0.39223602790E+03  0.12000000000E+03 0.  0.
<mgrwt>
<rscale>  0 0.37179535E+03</rscale>
<asrwt>0</asrwt>
<pdfrwt beam="1">  1        1 0.16942717E+00 0.37179535E+03</pdfrwt>
<pdfrwt beam="2">  1       -1 0.48276763E-02 0.37179535E+03</pdfrwt>
<totfact> 0.25022944E+03</totfact>
</mgrwt>
</event>
<event>
 4    1  0.1749575E-004  0.3067984E+03  0.7818608E-02  0.1081891E+00
         -2   -1    0    0    0  501 -0.00000000000E+00  0.00000000000E+00  0.77751443654E+01  0.77751443654E+01  0.00000000000E+00 0.  1.
          2   -1    0    0  501    0  0.00000000000E+00 -0.00000000000E+00 -0.30264792777E+04  0.30264792777E+04  0.00000000000E+00 0.  1.
         25    1    1    2    0    0  0.47302925935E+02 -0.65234560375E+02 -0.20173391392E+04  0.20225108942E+04  0.12000000000E+03 0.  0.
         25    1    1    2    0    0 -0.47302925935E+02  0.65234560375E+02 -0.10013649941E+04  0.10117435278E+04  0.12000000000E+03 0.  0.
<mgrwt>
<rscale>  0 0.30679839E+03</rscale>
<asrwt>0</asrwt>
<pdfrwt beam="1">  1        2 0.46561196E+00 0.30679839E+03</pdfrwt>
<pdfrwt beam="2">  1       -2 0.11961767E-02 0.30679839E+03</pdfrwt>
<totfact> 0.32913267E+03</totfact>
</mgrwt>
</event>
<event>
 4    1  0.1749575E-004  0.2897721E+03  0.7818608E-02  0.1090468E+00
          1   -1    0    0  501    0  0.00000000000E+00  0.00000000000E+00  0.43329411436E+03  0.43329411436E+03  0.00000000000E+00 0.  1.
         -1   -1    0    0    0  501 -0.00000000000E+00 -0.00000000000E+00 -0.48447400151E+02  0.48447400151E+02  0.00000000000E+00 0.  1.
         25    1    1    2    0    0  0.33579114274E+02 -0.74712300788E+01  0.70159029925E+02  0.14319799466E+03  0.12000000000E+03 0.  0.
         25    1    1    2    0    0 -0.33579114274E+02  0.74712300788E+01  0.31468768428E+03  0.33854351985E+03  0.12000000000E+03 0.  0.
<mgrwt>
<rscale>  0 0.28977214E+03</rscale>
<asrwt>0</asrwt>
<pdfrwt beam="1">  1        1 0.66660630E-01 0.28977214E+03</pdfrwt>
<pdfrwt beam="2">  1       -1 0.74534465E-02 0.28977214E+03</pdfrwt>
<totfact> 0.52242025E+03</totfact>
</mgrwt>
</event>
<event>
 4    1  0.1749575E-004  0.3455228E+03  0.7818608E-02  0.1064468E+00
         -2   -1    0    0    0  501 -0.00000000000E+00  0.00000000000E+00  0.23742590048E+02  0.23742590048E+02  0.00000000000E+00 0. -1.
          2   -1    0    0  501    0  0.00000000000E+00 -0.00000000000E+00 -0.12570871226E+04  0.12570871226E+04  0.00000000000E+00 0. -1.
         25    1    1    2    0    0  0.88761636672E+02 -0.21958190195E+02 -0.30463499584E+03  0.33994598240E+03  0.12000000000E+03 0.  0.
         25    1    1    2    0    0 -0.88761636672E+02  0.21958190195E+02 -0.92870953676E+03  0.94088373029E+03  0.12000000000E+03 0.  0.
<mgrwt>
<rscale>  0 0.34552282E+03</rscale>
<asrwt>0</asrwt>
<pdfrwt beam="1">  1        2 0.19339801E+00 0.34552282E+03</pdfrwt>
<pdfrwt beam="2">  1       -2 0.36527064E-02 0.34552282E+03</pdfrwt>
<totfact> 0.58669106E+03</totfact>
</mgrwt>
</event>
<event>
 4    1  0.1749575E-004  0.2549959E+03  0.7818608E-02  0.1110188E+00
         -2   -1    0    0    0  501 -0.00000000000E+00  0.00000000000E+00  0.14546996683E+02  0.14546996683E+02  0.00000000000E+00 0.  1.
          2   -1    0    0  501    0  0.00000000000E+00 -0.00000000000E+00 -0.11174625526E+04  0.11174625526E+04  0.00000000000E+00 0.  1.
         25    1    1    2    0    0 -0.39436369001E+01  0.39435854281E+02 -0.47651529682E+03  0.49298840450E+03  0.12000000000E+03 0.  0.
         25    1    1    2    0    0  0.39436369001E+01 -0.39435854281E+02 -0.62640025915E+03  0.63902114482E+03  0.12000000000E+03 0.  0.
<mgrwt>
<rscale>  0 0.25499587E+03</rscale>
<asrwt>0</asrwt>
<pdfrwt beam="1">  1        2 0.17191730E+00 0.25499587E+03</pdfrwt>
<pdfrwt beam="2">  1       -2 0.22379997E-02 0.25499587E+03</pdfrwt>
<totfact> 0.14533844E+04</totfact>
</mgrwt>
</event>
<event>
 4    1  0.1749575E-004  0.2656896E+03  0.7818608E-02  0.1103772E+00
          2   -1    0    0  501    0  0.00000000000E+00  0.00000000000E+00  0.87066837236E+03  0.87066837236E+03  0.00000000000E+00 0. -1.
         -2   -1    0    0    0  501 -0.00000000000E+00 -0.00000000000E+00 -0.20269194909E+02  0.20269194909E+02  0.00000000000E+00 0. -1.
         25    1    1    2    0    0  0.94916401294E+01  0.24788290511E+02  0.59430697966E+03  0.60688164962E+03  0.12000000000E+03 0.  0.
         25    1    1    2    0    0 -0.94916401294E+01 -0.24788290511E+02  0.25609219779E+03  0.28405591765E+03  0.12000000000E+03 0.  0.
<mgrwt>
<rscale>  0 0.26568965E+03</rscale>
<asrwt>0</asrwt>
<pdfrwt beam="1">  1        2 0.13394895E+00 0.26568965E+03</pdfrwt>
<pdfrwt beam="2">  1       -2 0.31183383E-02 0.26568965E+03</pdfrwt>
<totfact> 0.12634342E+04</totfact>
</mgrwt>
</event>
<event>
 4    1  0.1749575E-004  0.2601383E+03  0.7818608E-02  0.1107060E+00
         -2   -1    0    0    0  501 -0.00000000000E+00  0.00000000000E+00  0.19831304225E+03  0.19831304225E+03  0.00000000000E+00 0.  1.
          2   -1    0    0  501    0  0.00000000000E+00 -0.00000000000E+00 -0.85309508967E+02  0.85309508967E+02  0.00000000000E+00 0.  1.
         25    1    1    2    0    0 -0.23242210886E+02 -0.44436028826E+02  0.54543140989E+02  0.14103090177E+03  0.12000000000E+03 0.  0.
         25    1    1    2    0    0  0.23242210886E+02  0.44436028826E+02  0.58460392289E+02  0.14259164944E+03  0.12000000000E+03 0.  0.
<mgrwt>
<rscale>  0 0.26013833E+03</rscale>
<asrwt>0</asrwt>
<pdfrwt beam="1">  1        2 0.13124540E-01 0.26013833E+03</pdfrwt>
<pdfrwt beam="2">  1       -2 0.30509699E-01 0.26013833E+03</pdfrwt>
<totfact> 0.45000798E+03</totfact>
</mgrwt>
</event>
<event>
 4    1  0.1749575E-004  0.2797190E+03  0.7818608E-02  0.1095842E+00
          2   -1    0    0  501    0  0.00000000000E+00  0.00000000000E+00  0.54026035203E+02  0.54026035203E+02  0.00000000000E+00 0.  1.
         -2   -1    0    0    0  501 -0.00000000000E+00 -0.00000000000E+00 -0.36206037680E+03  0.36206037680E+03  0.00000000000E+00 0.  1.
         25    1    1    2    0    0  0.33967548135E+02  0.35360502006E+02 -0.23211566015E+03  0.26586056329E+03  0.12000000000E+03 0.  0.
         25    1    1    2    0    0 -0.33967548135E+02 -0.35360502006E+02 -0.75918681453E+02  0.15022584871E+03  0.12000000000E+03 0.  0.
<mgrwt>
<rscale>  0 0.27971905E+03</rscale>
<asrwt>0</asrwt>
<pdfrwt beam="1">  1        2 0.83116978E-02 0.27971905E+03</pdfrwt>
<pdfrwt beam="2">  1       -2 0.55701596E-01 0.27971905E+03</pdfrwt>
<totfact> 0.24918228E+03</totfact>
</mgrwt>
</event>
<event>
 4    1  0.1749575E-004  0.3259028E+03  0.7818608E-02  0.1072964E+00
         -2   -1    0    0    0  501 -0.00000000000E+00  0.00000000000E+00  0.23988712410E+02  0.23988712410E+02  0.00000000000E+00 0.  1.
          2   -1    0    0  501    0  0.00000000000E+00 -0.00000000000E+00 -0.11069024531E+04  0.11069024531E+04  0.00000000000E+00 0.  1.
         25    1    1    2    0    0 -0.47784459049E+02 -0.32501414491E+02 -0.86722312238E+03  0.87739138386E+03  0.12000000000E+03 0.  0.
         25    1    1    2    0    0  0.47784459049E+02  0.32501414491E+02 -0.21569061829E+03  0.25349978163E+03  0.12000000000E+03 0.  0.
<mgrwt>
<rscale>  0 0.32590284E+03</rscale>
<asrwt>0</asrwt>
<pdfrwt beam="1">  1        2 0.17029266E+00 0.32590284E+03</pdfrwt>
<pdfrwt beam="2">  1       -2 0.36905716E-02 0.32590284E+03</pdfrwt>
<totfact> 0.70456462E+03</totfact>
</mgrwt>
</event>
<event>
 4    1  0.1749575E-004  0.3032680E+03  0.7818608E-02  0.1083618E+00
          3   -1    0    0  501    0  0.00000000000E+00  0.00000000000E+00  0.24175285949E+03  0.24175285949E+03  0.00000000000E+00 0.  1.
         -3   -1    0    0    0  501 -0.00000000000E+00 -0.00000000000E+00 -0.95108976567E+02  0.95108976567E+02  0.00000000000E+00 0.  1.
         25    1    1    2    0    0 -0.46367974061E+02 -0.74104307873E+02  0.39059873087E+02  0.15351583355E+03  0.12000000000E+03 0.  0.
         25    1    1    2    0    0  0.46367974061E+02  0.74104307873E+02  0.10758400983E+03  0.18334600251E+03  0.12000000000E+03 0.  0.
<mgrwt>
<rscale>  0 0.30326798E+03</rscale>
<asrwt>0</asrwt>
<pdfrwt beam="1">  1        3 0.37192747E-01 0.30326798E+03</pdfrwt>
<pdfrwt beam="2">  1       -3 0.14632150E-01 0.30326798E+03</pdfrwt>
<totfact> 0.71051771E+02</totfact>
</mgrwt>
</event>
<event>
 4    1  0.1749575E-004  0.2413239E+03  0.7818608E-02  0.1118914E+00
         -2   -1    0    0    0  501 -0.00000000000E+00  0.00000000000E+00  0.61381517865E+01  0.61381517865E+01  0.00000000000E+00 0.  1.
          2   -1    0    0  501    0  0.00000000000E+00 -0.00000000000E+00 -0.23719362347E+04  0.23719362347E+04  0.00000000000E+00 0.  1.
         25    1    1    2    0    0  0.60509882358E+01  0.11056609025E+02 -0.11894473221E+04  0.11955516697E+04  0.12000000000E+03 0.  0.
         25    1    1    2    0    0 -0.60509882358E+01 -0.11056609025E+02 -0.11763507609E+04  0.11825227168E+04  0.12000000000E+03 0.  0.
<mgrwt>
<rscale>  0 0.24132389E+03</rscale>
<asrwt>0</asrwt>
<pdfrwt beam="1">  1        2 0.36491295E+00 0.24132389E+03</pdfrwt>
<pdfrwt beam="2">  1       -2 0.94433185E-03 0.24132389E+03</pdfrwt>
<totfact> 0.10893175E+04</totfact>
</mgrwt>
</event>
<event>
 4    1  0.1749575E-004  0.2439383E+03  0.7818608E-02  0.1117197E+00
         -2   -1    0    0    0  501 -0.00000000000E+00  0.00000000000E+00  0.21467455336E+03  0.21467455336E+03  0.00000000000E+00 0.  1.
          2   -1    0    0  501    0  0.00000000000E+00 -0.00000000000E+00 -0.69297815540E+02  0.69297815540E+02  0.00000000000E+00 0.  1.
         25    1    1    2    0    0  0.75510588583E+01  0.18831705865E+02  0.63315543566E+02  0.13718786277E+03  0.12000000000E+03 0.  0.
         25    1    1    2    0    0 -0.75510588583E+01 -0.18831705865E+02  0.82061194251E+02  0.14678450612E+03  0.12000000000E+03 0.  0.
<mgrwt>
<rscale>  0 0.24393833E+03</rscale>
<asrwt>0</asrwt>
<pdfrwt beam="1">  1        2 0.10661202E-01 0.24393833E+03</pdfrwt>
<pdfrwt beam="2">  1       -2 0.33026854E-01 0.24393833E+03</pdfrwt>
<totfact> 0.50002781E+03</totfact>
</mgrwt>
</event>
<event>
 4    1  0.1749575E-004  0.2667775E+03  0.7818608E-02  0.1103138E+00
         -2   -1    0    0    0  501 -0.00000000000E+00  0.00000000000E+00  0.62368134199E+02  0.62368134199E+02  0.00000000000E+00 0. -1.
          2   -1    0    0  501    0  0.00000000000E+00 -0.00000000000E+00 -0.28528291690E+03  0.28528291690E+03  0.00000000000E+00 0. -1.
         25    1    1    2    0    0 -0.18806183706E+02  0.45798491688E+02 -0.71474074435E+02  0.14818811593E+03  0.12000000000E+03 0.  0.
         25    1    1    2    0    0  0.18806183706E+02 -0.45798491688E+02 -0.15144070826E+03  0.19946293517E+03  0.12000000000E+03 0.  0.
<mgrwt>
<rscale>  0 0.26677753E+03</rscale>
<asrwt>0</asrwt>
<pdfrwt beam="1">  1        2 0.43889680E-01 0.26677753E+03</pdfrwt>
<pdfrwt beam="2">  1       -2 0.95950975E-02 0.26677753E+03</pdfrwt>
<totfact> 0.81096777E+03</totfact>
</mgrwt>
</event>
<event>
 4    1  0.1749575E-004  0.2607138E+03  0.7818608E-02  0.1106715E+00
         -1   -1    0    0    0  501 -0.00000000000E+00  0.00000000000E+00  0.52891301698E+02  0.52891301698E+02  0.00000000000E+00 0.  1.
          1   -1    0    0  501    0  0.00000000000E+00 -0.00000000000E+00 -0.32128012695E+03  0.32128012695E+03  0.00000000000E+00 0.  1.
         25    1    1    2    0    0 -0.36955585206E+02  0.29524872449E+02 -0.10713485317E+03  0.16767620623E+03  0.12000000000E+03 0.  0.
         25    1    1    2    0    0  0.36955585206E+02 -0.29524872449E+02 -0.16125397208E+03  0.20649522242E+03  0.12000000000E+03 0.  0.
<mgrwt>
<rscale>  0 0.26071382E+03</rscale>
<asrwt>0</asrwt>
<pdfrwt beam="1">  1        1 0.49427712E-01 0.26071382E+03</pdfrwt>
<pdfrwt beam="2">  1       -1 0.81371233E-02 0.26071382E+03</pdfrwt>
<totfact> 0.66704591E+03</totfact>
</mgrwt>
</event>
<event>
 4    1  0.1749575E-004  0.3084689E+03  0.7818608E-02  0.1081082E+00
          1   -1    0    0  501    0  0.00000000000E+00  0.00000000000E+00  0.17665399686E+02  0.17665399686E+02  0.00000000000E+00 0.  1.
         -1   -1    0    0    0  501 -0.00000000000E+00 -0.00000000000E+00 -0.13466024076E+04  0.13466024076E+04  0.00000000000E+00 0.  1.
         25    1    1    2    0    0  0.45628826550E+02 -0.51627466671E+02 -0.36317581461E+03  0.38864386968E+03  0.12000000000E+03 0.  0.
         25    1    1    2    0    0 -0.45628826550E+02  0.51627466671E+02 -0.96576119335E+03  0.97562393765E+03  0.12000000000E+03 0.  0.
<mgrwt>
<rscale>  0 0.30846893E+03</rscale>
<asrwt>0</asrwt>
<pdfrwt beam="1">  1        1 0.27177540E-02 0.30846893E+03</pdfrwt>
<pdfrwt beam="2">  1       -1 0.20716958E+00 0.30846893E+03</pdfrwt>
<totfact> 0.58664196E+02</totfact>
</mgrwt>
</event>
<event>
 4    1  0.1749575E-004  0.2577020E+03  0.7818608E-02  0.1108532E+00
         -4   -1    0    0    0  501 -0.00000000000E+00  0.00000000000E+00  0.24813495694E+03  0.24813495694E+03  0.00000000000E+00 0. -1.
          4   -1    0    0  501    0  0.00000000000E+00 -0.00000000000E+00 -0.66909455734E+02  0.66909455734E+02  0.00000000000E+00 0. -1.
         25    1    1    2    0    0  0.37769834747E+01 -0.46614456387E+02  0.85814981261E+02  0.15476234735E+03  0.12000000000E+03 0.  0.
         25    1    1    2    0    0 -0.37769834747E+01  0.46614456387E+02  0.95410519948E+02  0.16028206533E+03  0.12000000000E+03 0.  0.
<mgrwt>
<rscale>  0 0.25770196E+03</rscale>
<asrwt>0</asrwt>
<pdfrwt beam="1">  1        4 0.10293763E-01 0.25770196E+03</pdfrwt>
<pdfrwt beam="2">  1       -4 0.38174608E-01 0.25770196E+03</pdfrwt>
<totfact> 0.89552499E+02</totfact>
</mgrwt>
</event>
<event>
 4    1  0.1749575E-004  0.2412403E+03  0.7818608E-02  0.1118969E+00
          1   -1    0    0  501    0  0.00000000000E+00  0.00000000000E+00  0.20659873509E+03  0.20659873509E+03  0.00000000000E+00 0.  1.
         -1   -1    0    0    0  501 -0.00000000000E+00 -0.00000000000E+00 -0.70422619105E+02  0.70422619105E+02  0.00000000000E+00 0.  1.
         25    1    1    2    0    0 -0.20182228488E+01 -0.43892837080E+01  0.80972046179E+02  0.14484409307E+03  0.12000000000E+03 0.  0.
         25    1    1    2    0    0  0.20182228488E+01  0.43892837080E+01  0.55204069805E+02  0.13217726112E+03  0.12000000000E+03 0.  0.
<mgrwt>
<rscale>  0 0.24124033E+03</rscale>
<asrwt>0</asrwt>
<pdfrwt beam="1">  1        1 0.31784421E-01 0.24124033E+03</pdfrwt>
<pdfrwt beam="2">  1       -1 0.10834249E-01 0.24124033E+03</pdfrwt>
<totfact> 0.74492519E+03</totfact>
</mgrwt>
</event>
<event>
 4    1  0.1749575E-004  0.3292815E+03  0.7818608E-02  0.1071455E+00
         -2   -1    0    0    0  501 -0.00000000000E+00  0.00000000000E+00  0.15509737369E+03  0.15509737369E+03  0.00000000000E+00 0.  1.
          2   -1    0    0  501    0  0.00000000000E+00 -0.00000000000E+00 -0.17477138178E+03  0.17477138178E+03  0.00000000000E+00 0.  1.
         25    1    1    2    0    0 -0.80608226890E+02  0.10302794960E+02 -0.88096408774E+02  0.16960191940E+03  0.12000000000E+03 0.  0.
         25    1    1    2    0    0  0.80608226890E+02 -0.10302794960E+02  0.68422400689E+02  0.16026683607E+03  0.12000000000E+03 0.  0.
<mgrwt>
<rscale>  0 0.32928153E+03</rscale>
<asrwt>0</asrwt>
<pdfrwt beam="1">  1        2 0.26887905E-01 0.32928153E+03</pdfrwt>
<pdfrwt beam="2">  1       -2 0.23861134E-01 0.32928153E+03</pdfrwt>
<totfact> 0.30664819E+03</totfact>
</mgrwt>
</event>
<event>
 4    1  0.1749575E-004  0.3670504E+03  0.7818608E-02  0.1055827E+00
          2   -1    0    0  501    0  0.00000000000E+00  0.00000000000E+00  0.72694667343E+03  0.72694667343E+03  0.00000000000E+00 0. -1.
         -2   -1    0    0    0  501 -0.00000000000E+00 -0.00000000000E+00 -0.46332840466E+02  0.46332840466E+02  0.00000000000E+00 0. -1.
         25    1    1    2    0    0 -0.41419431779E+02  0.12384192324E+03  0.24084042282E+03  0.29909279588E+03  0.12000000000E+03 0.  0.
         25    1    1    2    0    0  0.41419431779E+02 -0.12384192324E+03  0.43977341014E+03  0.47418671802E+03  0.12000000000E+03 0.  0.
<mgrwt>
<rscale>  0 0.36705043E+03</rscale>
<asrwt>0</asrwt>
<pdfrwt beam="1">  1        2 0.11183794E+00 0.36705043E+03</pdfrwt>
<pdfrwt beam="2">  1       -2 0.71281298E-02 0.36705043E+03</pdfrwt>
<totfact> 0.45570352E+03</totfact>
</mgrwt>
</event>
<event>
 4    1  0.1749575E-004  0.2858017E+03  0.7818608E-02  0.1092562E+00
         -1   -1    0    0    0  501 -0.00000000000E+00  0.00000000000E+00  0.22483032421E+02  0.22483032421E+02  0.00000000000E+00 0. -1.
          1   -1    0    0  501    0  0.00000000000E+00 -0.00000000000E+00 -0.90826970338E+03  0.90826970338E+03  0.00000000000E+00 0. -1.
         25    1    1    2    0    0  0.34421898118E+01  0.59552629355E+02 -0.28129409294E+03  0.31158422787E+03  0.12000000000E+03 0.  0.
         25    1    1    2    0    0 -0.34421898118E+01 -0.59552629355E+02 -0.60449257802E+03  0.61916850794E+03  0.12000000000E+03 0.  0.
<mgrwt>
<rscale>  0 0.28580173E+03</rscale>
<asrwt>0</asrwt>
<pdfrwt beam="1">  1        1 0.13973381E+00 0.28580173E+03</pdfrwt>
<pdfrwt beam="2">  1       -1 0.34589279E-02 0.28580173E+03</pdfrwt>
<totfact> 0.57451894E+03</totfact>
</mgrwt>
</event>
<event>
 4    1  0.1749575E-004  0.2588211E+03  0.7818608E-02  0.1107854E+00
         -1   -1    0    0    0  501 -0.00000000000E+00  0.00000000000E+00  0.13459974884E+02  0.13459974884E+02  0.00000000000E+00 0.  1.
          1   -1    0    0  501    0  0.00000000000E+00 -0.00000000000E+00 -0.12442139832E+04  0.12442139832E+04  0.00000000000E+00 0.  1.
         25    1    1    2    0    0  0.26627174583E+02 -0.20885195477E+02 -0.44691538240E+03  0.46398120311E+03  0.12000000000E+03 0.  0.
         25    1    1    2    0    0 -0.26627174583E+02  0.20885195477E+02 -0.78383862592E+03  0.79369275498E+03  0.12000000000E+03 0.  0.
<mgrwt>
<rscale>  0 0.25882109E+03</rscale>
<asrwt>0</asrwt>
<pdfrwt beam="1">  1        1 0.19141748E+00 0.25882109E+03</pdfrwt>
<pdfrwt beam="2">  1       -1 0.20707660E-02 0.25882109E+03</pdfrwt>
<totfact> 0.69354518E+03</totfact>
</mgrwt>
</event>
<event>
 4    1  0.1749575E-004  0.3568130E+03  0.7818608E-02  0.1059853E+00
         -2   -1    0    0    0  501 -0.00000000000E+00  0.00000000000E+00  0.89871532382E+02  0.89871532382E+02  0.00000000000E+00 0. -1.
          2   -1    0    0  501    0  0.00000000000E+00 -0.00000000000E+00 -0.35415971428E+03  0.35415971428E+03  0.00000000000E+00 0. -1.
         25    1    1    2    0    0 -0.12757964114E+02 -0.11489619602E+03 -0.21148584710E+03  0.26923997666E+03  0.12000000000E+03 0.  0.
         25    1    1    2    0    0  0.12757964114E+02  0.11489619602E+03 -0.52802334796E+02  0.17479127000E+03  0.12000000000E+03 0.  0.
<mgrwt>
<rscale>  0 0.35681298E+03</rscale>
<asrwt>0</asrwt>
<pdfrwt beam="1">  1        2 0.54486110E-01 0.35681298E+03</pdfrwt>
<pdfrwt beam="2">  1       -2 0.13826389E-01 0.35681298E+03</pdfrwt>
<totfact> 0.35895026E+03</totfact>
</mgrwt>
</event>
<event>
 4    1  0.1749575E-004  0.2550848E+03  0.7818608E-02  0.1110133E+00
         -2   -1    0    0    0  501 -0.00000000000E+00  0.00000000000E+00  0.28283275353E+02  0.28283275353E+02  0.00000000000E+00 0.  1.
          2   -1    0    0  501    0  0.00000000000E+00 -0.00000000000E+00 -0.57514764470E+03  0.57514764470E+03  0.00000000000E+00 0.  1.
         25    1    1    2    0    0  0.28638825601E+02 -0.27901994086E+02 -0.31218456376E+03  0.33683513097E+03  0.12000000000E+03 0.  0.
         25    1    1    2    0    0 -0.28638825601E+02  0.27901994086E+02 -0.23467980559E+03  0.26659578908E+03  0.12000000000E+03 0.  0.
<mgrwt>
<rscale>  0 0.25508476E+03</rscale>
<asrwt>0</asrwt>
<pdfrwt beam="1">  1        2 0.88484236E-01 0.25508476E+03</pdfrwt>
<pdfrwt beam="2">  1       -2 0.43512740E-02 0.25508476E+03</pdfrwt>
<totfact> 0.12705659E+04</totfact>
</mgrwt>
</event>
<event>
 4    1  0.1749575E-004  0.2832225E+03  0.7818608E-02  0.1093942E+00
          2   -1    0    0  501    0  0.00000000000E+00  0.00000000000E+00  0.48771143724E+03  0.48771143724E+03  0.00000000000E+00 0. -1.
         -2   -1    0    0    0  501 -0.00000000000E+00 -0.00000000000E+00 -0.41118045725E+02  0.41118045725E+02  0.00000000000E+00 0. -1.
         25    1    1    2    0    0 -0.43590806738E+01 -0.35213030859E+02  0.99514941783E+02  0.15988177746E+03  0.12000000000E+03 0.  0.
         25    1    1    2    0    0  0.43590806738E+01  0.35213030859E+02  0.34707844973E+03  0.36894770550E+03  0.12000000000E+03 0.  0.
<mgrwt>
<rscale>  0 0.28322247E+03</rscale>
<asrwt>0</asrwt>
<pdfrwt beam="1">  1        2 0.75032525E-01 0.28322247E+03</pdfrwt>
<pdfrwt beam="2">  1       -2 0.63258535E-02 0.28322247E+03</pdfrwt>
<totfact> 0.86950105E+03</totfact>
</mgrwt>
</event>
<event>
 4    1  0.1749575E-004  0.2537080E+03  0.7818608E-02  0.1110984E+00
          1   -1    0    0  501    0  0.00000000000E+00  0.00000000000E+00  0.12070424654E+04  0.12070424654E+04  0.00000000000E+00 0. -1.
         -1   -1    0    0    0  501 -0.00000000000E+00 -0.00000000000E+00 -0.13331712820E+02  0.13331712820E+02  0.00000000000E+00 0. -1.
         25    1    1    2    0    0 -0.13797868985E+02  0.24209749506E+02  0.45131745677E+03  0.46782896442E+03  0.12000000000E+03 0.  0.
         25    1    1    2    0    0  0.13797868985E+02 -0.24209749506E+02  0.74239329583E+03  0.75254521383E+03  0.12000000000E+03 0.  0.
<mgrwt>
<rscale>  0 0.25370805E+03</rscale>
<asrwt>0</asrwt>
<pdfrwt beam="1">  1        1 0.18569876E+00 0.25370805E+03</pdfrwt>
<pdfrwt beam="2">  1       -1 0.20510337E-02 0.25370805E+03</pdfrwt>
<totfact> 0.74601148E+03</totfact>
</mgrwt>
</event>
<event>
 4    1  0.1749575E-004  0.3436516E+03  0.7818608E-02  0.1065251E+00
         -1   -1    0    0    0  501 -0.00000000000E+00  0.00000000000E+00  0.36190008222E+02  0.36190008222E+02  0.00000000000E+00 0. -1.
          1   -1    0    0  501    0  0.00000000000E+00 -0.00000000000E+00 -0.81580803883E+03  0.81580803883E+03  0.00000000000E+00 0. -1.
         25    1    1    2    0    0  0.87184482233E+02 -0.17425582228E+02 -0.60046231270E+03  0.61875663538E+03  0.12000000000E+03 0.  0.
         25    1    1    2    0    0 -0.87184482233E+02  0.17425582228E+02 -0.17915571791E+03  0.23324141167E+03  0.12000000000E+03 0.  0.
<mgrwt>
<rscale>  0 0.34365157E+03</rscale>
<asrwt>0</asrwt>
<pdfrwt beam="1">  1        1 0.12550892E+00 0.34365157E+03</pdfrwt>
<pdfrwt beam="2">  1       -1 0.55676941E-02 0.34365157E+03</pdfrwt>
<totfact> 0.33537390E+03</totfact>
</mgrwt>
</event>
<event>
 4    1  0.1749575E-004  0.3233045E+03  0.7818608E-02  0.1074138E+00
          1   -1    0    0  501    0  0.00000000000E+00  0.00000000000E+00  0.15275622964E+04  0.15275622964E+04  0.00000000000E+00 0.  1.
         -1   -1    0    0    0  501 -0.00000000000E+00 -0.00000000000E+00 -0.17106639425E+02  0.17106639425E+02  0.00000000000E+00 0.  1.
         25    1    1    2    0    0  0.39752388909E+02  0.74252941012E+02  0.10805960965E+04  0.10904960685E+04  0.12000000000E+03 0.  0.
         25    1    1    2    0    0 -0.39752388909E+02 -0.74252941012E+02  0.42985956054E+03  0.45417286738E+03  0.12000000000E+03 0.  0.
<mgrwt>
<rscale>  0 0.32330455E+03</rscale>
<asrwt>0</asrwt>
<pdfrwt beam="1">  1        1 0.23500948E+00 0.32330455E+03</pdfrwt>
<pdfrwt beam="2">  1       -1 0.26317919E-02 0.32330455E+03</pdfrwt>
<totfact> 0.31437528E+03</totfact>
</mgrwt>
</event>
<event>
 4    1  0.1749575E-004  0.3010245E+03  0.7818608E-02  0.1084730E+00
         -1   -1    0    0    0  501 -0.00000000000E+00  0.00000000000E+00  0.55846949664E+03  0.55846949664E+03  0.00000000000E+00 0. -1.
          1   -1    0    0  501    0  0.00000000000E+00 -0.00000000000E+00 -0.40564318265E+02  0.40564318265E+02  0.00000000000E+00 0. -1.
         25    1    1    2    0    0 -0.24842630496E+02 -0.78939436557E+02  0.18435225663E+03  0.23501988311E+03  0.12000000000E+03 0.  0.
         25    1    1    2    0    0  0.24842630496E+02  0.78939436557E+02  0.33355292174E+03  0.36401393179E+03  0.12000000000E+03 0.  0.
<mgrwt>
<rscale>  0 0.30102448E+03</rscale>
<asrwt>0</asrwt>
<pdfrwt beam="1">  1        1 0.62406648E-02 0.30102448E+03</pdfrwt>
<pdfrwt beam="2">  1       -1 0.85918378E-01 0.30102448E+03</pdfrwt>
<totfact> 0.17193190E+03</totfact>
</mgrwt>
</event>
<event>
 4    1  0.1749575E-004  0.3122697E+03  0.7818608E-02  0.1079263E+00
         -2   -1    0    0    0  501 -0.00000000000E+00  0.00000000000E+00  0.49759436966E+03  0.49759436966E+03  0.00000000000E+00 0.  1.
          2   -1    0    0  501    0  0.00000000000E+00 -0.00000000000E+00 -0.48991900774E+02  0.48991900774E+02  0.00000000000E+00 0.  1.
         25    1    1    2    0    0  0.42412348182E+02 -0.87632028545E+02  0.18516521780E+03  0.24117283759E+03  0.12000000000E+03 0.  0.
         25    1    1    2    0    0 -0.42412348182E+02  0.87632028545E+02  0.26343725108E+03  0.30541343284E+03  0.12000000000E+03 0.  0.
<mgrwt>
<rscale>  0 0.31226972E+03</rscale>
<asrwt>0</asrwt>
<pdfrwt beam="1">  1        2 0.75372159E-02 0.31226972E+03</pdfrwt>
<pdfrwt beam="2">  1       -2 0.76552976E-01 0.31226972E+03</pdfrwt>
<totfact> 0.14452514E+03</totfact>
</mgrwt>
</event>
<event>
 4    1  0.1749575E-004  0.2424488E+03  0.7818608E-02  0.1118172E+00
         -2   -1    0    0    0  501 -0.00000000000E+00  0.00000000000E+00  0.26838116584E+03  0.26838116584E+03  0.00000000000E+00 0. -1.
          2   -1    0    0  501    0  0.00000000000E+00 -0.00000000000E+00 -0.54755534232E+02  0.54755534232E+02  0.00000000000E+00 0. -1.
         25    1    1    2    0    0  0.15164265839E+02 -0.45344392318E+01  0.11573743007E+03  0.16746841140E+03  0.12000000000E+03 0.  0.
         25    1    1    2    0    0 -0.15164265839E+02  0.45344392318E+01  0.97888201534E+02  0.15566828867E+03  0.12000000000E+03 0.  0.
<mgrwt>
<rscale>  0 0.24244879E+03</rscale>
<asrwt>0</asrwt>
<pdfrwt beam="1">  1        2 0.84239285E-02 0.24244879E+03</pdfrwt>
<pdfrwt beam="2">  1       -2 0.41289409E-01 0.24244879E+03</pdfrwt>
<totfact> 0.44072623E+03</totfact>
</mgrwt>
</event>
<event>
 4    1  0.1749575E-004  0.2625514E+03  0.7818608E-02  0.1105620E+00
          3   -1    0    0  501    0  0.00000000000E+00  0.00000000000E+00  0.49240353391E+02  0.49240353391E+02  0.00000000000E+00 0.  1.
         -3   -1    0    0    0  501 -0.00000000000E+00 -0.00000000000E+00 -0.34998346530E+03  0.34998346530E+03  0.00000000000E+00 0.  1.
         25    1    1    2    0    0 -0.37661144395E+02  0.11971206658E+02 -0.96148518656E+02  0.15876463468E+03  0.12000000000E+03 0.  0.
         25    1    1    2    0    0  0.37661144395E+02 -0.11971206658E+02 -0.20459459326E+03  0.24045918401E+03  0.12000000000E+03 0.  0.
<mgrwt>
<rscale>  0 0.26255140E+03</rscale>
<asrwt>0</asrwt>
<pdfrwt beam="1">  1        3 0.75754388E-02 0.26255140E+03</pdfrwt>
<pdfrwt beam="2">  1       -3 0.53843611E-01 0.26255140E+03</pdfrwt>
<totfact> 0.10147127E+03</totfact>
</mgrwt>
</event>
<event>
 4    1  0.1749575E-004  0.3202725E+03  0.7818608E-02  0.1075524E+00
         -3   -1    0    0    0  501 -0.00000000000E+00  0.00000000000E+00  0.21485268018E+03  0.21485268018E+03  0.00000000000E+00 0. -1.
          3   -1    0    0  501    0  0.00000000000E+00 -0.00000000000E+00 -0.11935443626E+03  0.11935443626E+03  0.00000000000E+00 0. -1.
         25    1    1    2    0    0  0.39161396316E+02 -0.14364070704E+02 -0.53979206185E+02  0.13803512665E+03  0.12000000000E+03 0.  0.
         25    1    1    2    0    0 -0.39161396316E+02  0.14364070704E+02  0.14947745011E+03  0.19617198979E+03  0.12000000000E+03 0.  0.
<mgrwt>
<rscale>  0 0.32027251E+03</rscale>
<asrwt>0</asrwt>
<pdfrwt beam="1">  1        3 0.18362221E-01 0.32027251E+03</pdfrwt>
<pdfrwt beam="2">  1       -3 0.33054259E-01 0.32027251E+03</pdfrwt>
<totfact> 0.60174085E+02</totfact>
</mgrwt>
</event>
<event>
 4    1  0.1749575E-004  0.2707463E+03  0.7818608E-02  0.1100853E+00
          1   -1    0    0  501    0  0.00000000000E+00  0.00000000000E+00  0.26705451435E+02  0.26705451435E+02  0.00000000000E+00 0. -1.
         -1   -1    0    0    0  501 -0.00000000000E+00 -0.00000000000E+00 -0.68622261375E+03  0.68622261375E+03  0.00000000000E+00 0. -1.
         25    1    1    2    0    0 -0.53904589844E+02  0.96015574317E+01 -0.40997345098E+03  0.43066939202E+03  0.12000000000E+03 0.  0.
         25    1    1    2    0    0  0.53904589844E+02 -0.96015574317E+01 -0.24954371133E+03  0.28225867316E+03  0.12000000000E+03 0.  0.
<mgrwt>
<rscale>  0 0.27074626E+03</rscale>
<asrwt>0</asrwt>
<pdfrwt beam="1">  1        1 0.41085311E-02 0.27074626E+03</pdfrwt>
<pdfrwt beam="2">  1       -1 0.10557271E+00 0.27074626E+03</pdfrwt>
<totfact> 0.19499014E+03</totfact>
</mgrwt>
</event>
<event>
 4    1  0.1749575E-004  0.2500350E+03  0.7818608E-02  0.1113283E+00
         -2   -1    0    0    0  501 -0.00000000000E+00  0.00000000000E+00  0.50523837091E+02  0.50523837091E+02  0.00000000000E+00 0.  1.
          2   -1    0    0  501    0  0.00000000000E+00 -0.00000000000E+00 -0.30934645263E+03  0.30934645263E+03  0.00000000000E+00 0.  1.
         25    1    1    2    0    0  0.28149531867E+02  0.11267610167E+02 -0.10406957342E+03  0.16170909466E+03  0.12000000000E+03 0.  0.
         25    1    1    2    0    0 -0.28149531867E+02 -0.11267610167E+02 -0.15475304211E+03  0.19816119506E+03  0.12000000000E+03 0.  0.
<mgrwt>
<rscale>  0 0.25003496E+03</rscale>
<asrwt>0</asrwt>
<pdfrwt beam="1">  1        2 0.47591761E-01 0.25003496E+03</pdfrwt>
<pdfrwt beam="2">  1       -2 0.77728981E-02 0.25003496E+03</pdfrwt>
<totfact> 0.10317258E+04</totfact>
</mgrwt>
</event>
<event>
 4    1  0.1749575E-004  0.2769271E+03  0.7818608E-02  0.1097379E+00
          1   -1    0    0  501    0  0.00000000000E+00  0.00000000000E+00  0.15270353797E+03  0.15270353797E+03  0.00000000000E+00 0. -1.
         -1   -1    0    0    0  501 -0.00000000000E+00 -0.00000000000E+00 -0.12555144537E+03  0.12555144537E+03  0.00000000000E+00 0. -1.
         25    1    1    2    0    0 -0.29856274167E+02 -0.50216767184E+02 -0.23465740192E+02  0.13551295796E+03  0.12000000000E+03 0.  0.
         25    1    1    2    0    0  0.29856274167E+02  0.50216767184E+02  0.50617832789E+02  0.14274202538E+03  0.12000000000E+03 0.  0.
<mgrwt>
<rscale>  0 0.27692707E+03</rscale>
<asrwt>0</asrwt>
<pdfrwt beam="1">  1        1 0.23492852E-01 0.27692707E+03</pdfrwt>
<pdfrwt beam="2">  1       -1 0.19315607E-01 0.27692707E+03</pdfrwt>
<totfact> 0.43981987E+03</totfact>
</mgrwt>
</event>
<event>
 4    1  0.1749575E-004  0.2433394E+03  0.7818608E-02  0.1117588E+00
          2   -1    0    0  501    0  0.00000000000E+00  0.00000000000E+00  0.12161384453E+04  0.12161384453E+04  0.00000000000E+00 0.  1.
         -2   -1    0    0    0  501 -0.00000000000E+00 -0.00000000000E+00 -0.12172558012E+02  0.12172558012E+02  0.00000000000E+00 0.  1.
         25    1    1    2    0    0 -0.17478759537E+00  0.80006007337E+01  0.50897924895E+03  0.52299513958E+03  0.12000000000E+03 0.  0.
         25    1    1    2    0    0  0.17478759537E+00 -0.80006007337E+01  0.69498663833E+03  0.70531586373E+03  0.12000000000E+03 0.  0.
<mgrwt>
<rscale>  0 0.24333940E+03</rscale>
<asrwt>0</asrwt>
<pdfrwt beam="1">  1        2 0.18709813E+00 0.24333940E+03</pdfrwt>
<pdfrwt beam="2">  1       -2 0.18727022E-02 0.24333940E+03</pdfrwt>
<totfact> 0.16551672E+04</totfact>
</mgrwt>
</event>
<event>
 4    1  0.1749575E-004  0.2571951E+03  0.7818608E-02  0.1108840E+00
          4   -1    0    0  501    0  0.00000000000E+00  0.00000000000E+00  0.50859196666E+03  0.50859196666E+03  0.00000000000E+00 0. -1.
         -4   -1    0    0    0  501 -0.00000000000E+00 -0.00000000000E+00 -0.32515918888E+02  0.32515918888E+02  0.00000000000E+00 0. -1.
         25    1    1    2    0    0 -0.22406023752E+02 -0.28868133059E+02  0.29761671983E+03  0.32297230675E+03  0.12000000000E+03 0.  0.
         25    1    1    2    0    0  0.22406023752E+02  0.28868133059E+02  0.17845932794E+03  0.21813557879E+03  0.12000000000E+03 0.  0.
<mgrwt>
<rscale>  0 0.25719514E+03</rscale>
<asrwt>0</asrwt>
<pdfrwt beam="1">  1        4 0.78244912E-01 0.25719514E+03</pdfrwt>
<pdfrwt beam="2">  1       -4 0.50024494E-02 0.25719514E+03</pdfrwt>
<totfact> 0.66129029E+02</totfact>
</mgrwt>
</event>
<event>
 4    1  0.1749575E-004  0.3087232E+03  0.7818608E-02  0.1080959E+00
          1   -1    0    0  501    0  0.00000000000E+00  0.00000000000E+00  0.27651453510E+02  0.27651453510E+02  0.00000000000E+00 0. -1.
         -1   -1    0    0    0  501 -0.00000000000E+00 -0.00000000000E+00 -0.86170877578E+03  0.86170877578E+03  0.00000000000E+00 0. -1.
         25    1    1    2    0    0  0.19175654559E+02 -0.73894428953E+02 -0.58986059717E+03  0.60676487741E+03  0.12000000000E+03 0.  0.
         25    1    1    2    0    0 -0.19175654559E+02  0.73894428953E+02 -0.24419672510E+03  0.28259535189E+03  0.12000000000E+03 0.  0.
<mgrwt>
<rscale>  0 0.30872318E+03</rscale>
<asrwt>0</asrwt>
<pdfrwt beam="1">  1        1 0.42540696E-02 0.30872318E+03</pdfrwt>
<pdfrwt beam="2">  1       -1 0.13257059E+00 0.30872318E+03</pdfrwt>
<totfact> 0.10837579E+03</totfact>
</mgrwt>
</event>
<event>
 4    1  0.1749575E-004  0.3054979E+03  0.7818608E-02  0.1082524E+00
          2   -1    0    0  501    0  0.00000000000E+00  0.00000000000E+00  0.17703748499E+03  0.17703748499E+03  0.00000000000E+00 0.  1.
         -2   -1    0    0    0  501 -0.00000000000E+00 -0.00000000000E+00 -0.13179262642E+03  0.13179262642E+03  0.00000000000E+00 0.  1.
         25    1    1    2    0    0  0.17503392047E+02  0.79665245748E+02 -0.25640496419E+02  0.14734434217E+03  0.12000000000E+03 0.  0.
         25    1    1    2    0    0 -0.17503392047E+02 -0.79665245748E+02  0.70885354987E+02  0.16148576923E+03  0.12000000000E+03 0.  0.
<mgrwt>
<rscale>  0 0.30549786E+03</rscale>
<asrwt>0</asrwt>
<pdfrwt beam="1">  1        2 0.27236536E-01 0.30549786E+03</pdfrwt>
<pdfrwt beam="2">  1       -2 0.20275789E-01 0.30549786E+03</pdfrwt>
<totfact> 0.40043842E+03</totfact>
</mgrwt>
</event>
<event>
 4    1  0.1749575E-004  0.4506653E+03  0.7818608E-02  0.1027524E+00
         -4   -1    0    0    0  501 -0.00000000000E+00  0.00000000000E+00  0.99385322192E+03  0.99385322192E+03  0.00000000000E+00 0. -1.
          4   -1    0    0  501    0  0.00000000000E+00 -0.00000000000E+00 -0.51088835878E+02  0.51088835878E+02  0.00000000000E+00 0. -1.
         25    1    1    2    0    0 -0.63347808159E+02  0.52534140128E+02  0.72450275396E+02  0.16254791011E+03  0.12000000000E+03 0.  0.
         25    1    1    2    0    0  0.63347808159E+02 -0.52534140128E+02  0.87031411065E+03  0.88239414769E+03  0.12000000000E+03 0.  0.
<mgrwt>
<rscale>  0 0.45066530E+03</rscale>
<asrwt>0</asrwt>
<pdfrwt beam="1">  1        4 0.78598216E-02 0.45066530E+03</pdfrwt>
<pdfrwt beam="2">  1       -4 0.15290048E+00 0.45066530E+03</pdfrwt>
<totfact> 0.66093679E+01</totfact>
</mgrwt>
</event>
<event>
 4    1  0.1749575E-004  0.2798214E+03  0.7818608E-02  0.1095787E+00
         -2   -1    0    0    0  501 -0.00000000000E+00  0.00000000000E+00  0.69685021096E+03  0.69685021096E+03  0.00000000000E+00 0. -1.
          2   -1    0    0  501    0  0.00000000000E+00 -0.00000000000E+00 -0.28090696611E+02  0.28090696611E+02  0.00000000000E+00 0. -1.
         25    1    1    2    0    0  0.20425380576E+02  0.68942018005E+01  0.15657430331E+03  0.19844454804E+03  0.12000000000E+03 0.  0.
         25    1    1    2    0    0 -0.20425380576E+02 -0.68942018005E+01  0.51218521104E+03  0.52649635953E+03  0.12000000000E+03 0.  0.
<mgrwt>
<rscale>  0 0.27982143E+03</rscale>
<asrwt>0</asrwt>
<pdfrwt beam="1">  1        2 0.43216462E-02 0.27982143E+03</pdfrwt>
<pdfrwt beam="2">  1       -2 0.10720771E+00 0.27982143E+03</pdfrwt>
<totfact> 0.13905319E+03</totfact>
</mgrwt>
</event>
<event>
 4    1  0.1749575E-004  0.2792949E+03  0.7818608E-02  0.1096075E+00
         -2   -1    0    0    0  501 -0.00000000000E+00  0.00000000000E+00  0.16869006428E+02  0.16869006428E+02  0.00000000000E+00 0. -1.
          2   -1    0    0  501    0  0.00000000000E+00 -0.00000000000E+00 -0.11560498993E+04  0.11560498993E+04  0.00000000000E+00 0. -1.
         25    1    1    2    0    0  0.53865500096E+02  0.23856985942E+02 -0.40000027455E+03  0.42174739776E+03  0.12000000000E+03 0.  0.
         25    1    1    2    0    0 -0.53865500096E+02 -0.23856985942E+02 -0.73918061836E+03  0.75117150800E+03  0.12000000000E+03 0.  0.
<mgrwt>
<rscale>  0 0.27929492E+03</rscale>
<asrwt>0</asrwt>
<pdfrwt beam="1">  1        2 0.17785383E+00 0.27929492E+03</pdfrwt>
<pdfrwt beam="2">  1       -2 0.25952318E-02 0.27929492E+03</pdfrwt>
<totfact> 0.11124003E+04</totfact>
</mgrwt>
</event>
<event>
 4    1  0.1749575E-004  0.2822746E+03  0.7818608E-02  0.1094453E+00
         -2   -1    0    0    0  501 -0.00000000000E+00  0.00000000000E+00  0.12843164483E+02  0.12843164483E+02  0.00000000000E+00 0. -1.
          2   -1    0    0  501    0  0.00000000000E+00 -0.00000000000E+00 -0.15509995461E+04  0.15509995461E+04  0.00000000000E+00 0. -1.
         25    1    1    2    0    0 -0.33260012501E+02 -0.57392771240E+01 -0.40239858600E+03  0.42126451281E+03  0.12000000000E+03 0.  0.
         25    1    1    2    0    0  0.33260012501E+02  0.57392771240E+01 -0.11357577956E+04  0.11425781977E+04  0.12000000000E+03 0.  0.
<mgrwt>
<rscale>  0 0.28227463E+03</rscale>
<asrwt>0</asrwt>
<pdfrwt beam="1">  1        2 0.23861520E+00 0.28227463E+03</pdfrwt>
<pdfrwt beam="2">  1       -2 0.19758724E-02 0.28227463E+03</pdfrwt>
<totfact> 0.10090650E+04</totfact>
</mgrwt>
</event>
<event>
 4    1  0.1749575E-004  0.2683817E+03  0.7818608E-02  0.1102209E+00
         -2   -1    0    0    0  501 -0.00000000000E+00  0.00000000000E+00  0.20667867462E+03  0.20667867462E+03  0.00000000000E+00 0.  1.
          2   -1    0    0  501    0  0.00000000000E+00 -0.00000000000E+00 -0.87126451385E+02  0.87126451385E+02  0.00000000000E+00 0.  1.
         25    1    1    2    0    0  0.31816759183E+02  0.30207168746E+02  0.10467868105E+03  0.16517386438E+03  0.12000000000E+03 0.  0.
         25    1    1    2    0    0 -0.31816759183E+02 -0.30207168746E+02  0.14873542180E+02  0.12863126162E+03  0.12000000000E+03 0.  0.
<mgrwt>
<rscale>  0 0.26838166E+03</rscale>
<asrwt>0</asrwt>
<pdfrwt beam="1">  1        2 0.13404069E-01 0.26838166E+03</pdfrwt>
<pdfrwt beam="2">  1       -2 0.31796719E-01 0.26838166E+03</pdfrwt>
<totfact> 0.40730883E+03</totfact>
</mgrwt>
</event>
<event>
 4    1  0.1749575E-004  0.3113820E+03  0.7818608E-02  0.1079685E+00
          1   -1    0    0  501    0  0.00000000000E+00  0.00000000000E+00  0.60242358575E+03  0.60242358575E+03  0.00000000000E+00 0.  1.
         -1   -1    0    0    0  501 -0.00000000000E+00 -0.00000000000E+00 -0.40236955247E+02  0.40236955247E+02  0.00000000000E+00 0.  1.
         25    1    1    2    0    0 -0.49277781592E+02 -0.75888576063E+02  0.36498801814E+03  0.39471968423E+03  0.12000000000E+03 0.  0.
         25    1    1    2    0    0  0.49277781592E+02  0.75888576063E+02  0.19719861237E+03  0.24794085677E+03  0.12000000000E+03 0.  0.
<mgrwt>
<rscale>  0 0.31138202E+03</rscale>
<asrwt>0</asrwt>
<pdfrwt beam="1">  1        1 0.92680545E-01 0.31138202E+03</pdfrwt>
<pdfrwt beam="2">  1       -1 0.61903012E-02 0.31138202E+03</pdfrwt>
<totfact> 0.44592489E+03</totfact>
</mgrwt>
</event>
<event>
 4    1  0.1749575E-004  0.3433438E+03  0.7818608E-02  0.1065381E+00
         -1   -1    0    0    0  501 -0.00000000000E+00  0.00000000000E+00  0.46527415257E+02  0.46527415257E+02  0.00000000000E+00 0.  1.
          1   -1    0    0  501    0  0.00000000000E+00 -0.00000000000E+00 -0.63341651937E+03  0.63341651937E+03  0.00000000000E+00 0.  1.
         25    1    1    2    0    0  0.10065640419E+03  0.22283014978E+02 -0.42544687371E+03  0.45390889704E+03  0.12000000000E+03 0.  0.
         25    1    1    2    0    0 -0.10065640419E+03 -0.22283014978E+02 -0.16144223040E+03  0.22603503759E+03  0.12000000000E+03 0.  0.
<mgrwt>
<rscale>  0 0.34334375E+03</rscale>
<asrwt>0</asrwt>
<pdfrwt beam="1">  1        1 0.97448692E-01 0.34334375E+03</pdfrwt>
<pdfrwt beam="2">  1       -1 0.71580641E-02 0.34334375E+03</pdfrwt>
<totfact> 0.33358683E+03</totfact>
</mgrwt>
</event>
<event>
 4    1  0.1749575E-004  0.2802051E+03  0.7818608E-02  0.1095577E+00
         -2   -1    0    0    0  501 -0.00000000000E+00  0.00000000000E+00  0.46741264148E+03  0.46741264148E+03  0.00000000000E+00 0. -1.
          2   -1    0    0  501    0  0.00000000000E+00 -0.00000000000E+00 -0.41994430133E+02  0.41994430133E+02  0.00000000000E+00 0. -1.
         25    1    1    2    0    0 -0.92498003390E+01  0.57875101882E+02  0.28970307283E+03  0.31900306680E+03  0.12000000000E+03 0.  0.
         25    1    1    2    0    0  0.92498003390E+01 -0.57875101882E+02  0.13571513852E+03  0.19040400481E+03  0.12000000000E+03 0.  0.
<mgrwt>
<rscale>  0 0.28020512E+03</rscale>
<asrwt>0</asrwt>
<pdfrwt beam="1">  1        2 0.64606819E-02 0.28020512E+03</pdfrwt>
<pdfrwt beam="2">  1       -2 0.71909634E-01 0.28020512E+03</pdfrwt>
<totfact> 0.20152026E+03</totfact>
</mgrwt>
</event>
<event>
 4    1  0.1749575E-004  0.3854544E+03  0.7818608E-02  0.1048936E+00
          2   -1    0    0  501    0  0.00000000000E+00  0.00000000000E+00  0.55758016644E+03  0.55758016644E+03  0.00000000000E+00 0. -1.
         -2   -1    0    0    0  501 -0.00000000000E+00 -0.00000000000E+00 -0.66616035351E+02  0.66616035351E+02  0.00000000000E+00 0. -1.
         25    1    1    2    0    0 -0.10860103139E+03  0.10432806376E+03  0.23240102678E+03  0.30180915519E+03  0.12000000000E+03 0.  0.
         25    1    1    2    0    0  0.10860103139E+03 -0.10432806376E+03  0.25856310431E+03  0.32238704660E+03  0.12000000000E+03 0.  0.
<mgrwt>
<rscale>  0 0.38545443E+03</rscale>
<asrwt>0</asrwt>
<pdfrwt beam="1">  1        2 0.85781561E-01 0.38545443E+03</pdfrwt>
<pdfrwt beam="2">  1       -2 0.10248621E-01 0.38545443E+03</pdfrwt>
<totfact> 0.35251907E+03</totfact>
</mgrwt>
</event>
<event>
 4    1  0.1749575E-004  0.2494529E+03  0.7818608E-02  0.1113651E+00
          1   -1    0    0  501    0  0.00000000000E+00  0.00000000000E+00  0.19640327777E+04  0.19640327777E+04  0.00000000000E+00 0. -1.
         -1   -1    0    0    0  501 -0.00000000000E+00 -0.00000000000E+00 -0.79207862538E+01  0.79207862538E+01  0.00000000000E+00 0. -1.
         25    1    1    2    0    0  0.17980549941E+01 -0.31747299149E+02  0.88268222926E+03  0.89136919504E+03  0.12000000000E+03 0.  0.
         25    1    1    2    0    0 -0.17980549941E+01  0.31747299149E+02  0.10734297621E+04  0.10805843689E+04  0.12000000000E+03 0.  0.
<mgrwt>
<rscale>  0 0.24945287E+03</rscale>
<asrwt>0</asrwt>
<pdfrwt beam="1">  1        1 0.30215850E+00 0.24945287E+03</pdfrwt>
<pdfrwt beam="2">  1       -1 0.12185841E-02 0.24945287E+03</pdfrwt>
<totfact> 0.50232939E+03</totfact>
</mgrwt>
</event>
<event>
 4    1  0.1749575E-004  0.2605443E+03  0.7818608E-02  0.1106817E+00
         -1   -1    0    0    0  501 -0.00000000000E+00  0.00000000000E+00  0.24799606866E+04  0.24799606866E+04  0.00000000000E+00 0. -1.
          1   -1    0    0  501    0  0.00000000000E+00 -0.00000000000E+00 -0.68431850951E+01  0.68431850951E+01  0.00000000000E+00 0. -1.
         25    1    1    2    0    0  0.25413474271E+02 -0.15124329659E+02  0.84345820590E+03  0.85246485859E+03  0.12000000000E+03 0.  0.
         25    1    1    2    0    0 -0.25413474271E+02  0.15124329659E+02  0.16296592956E+04  0.16343390131E+04  0.12000000000E+03 0.  0.
<mgrwt>
<rscale>  0 0.26054428E+03</rscale>
<asrwt>0</asrwt>
<pdfrwt beam="1">  1        1 0.10527997E-02 0.26054428E+03</pdfrwt>
<pdfrwt beam="2">  1       -1 0.38153170E+00 0.26054428E+03</pdfrwt>
<totfact> 0.17553167E+02</totfact>
</mgrwt>
</event>
<event>
 4    1  0.1749575E-004  0.2843568E+03  0.7818608E-02  0.1093333E+00
         -1   -1    0    0    0  501 -0.00000000000E+00  0.00000000000E+00  0.31950857708E+02  0.31950857708E+02  0.00000000000E+00 0. -1.
          1   -1    0    0  501    0  0.00000000000E+00 -0.00000000000E+00 -0.63268079364E+03  0.63268079364E+03  0.00000000000E+00 0. -1.
         25    1    1    2    0    0  0.70422565765E+02  0.80649429007E+01 -0.36607277669E+03  0.39170608740E+03  0.12000000000E+03 0.  0.
         25    1    1    2    0    0 -0.70422565765E+02 -0.80649429007E+01 -0.23465715924E+03  0.27292556395E+03  0.12000000000E+03 0.  0.
<mgrwt>
<rscale>  0 0.28435678E+03</rscale>
<asrwt>0</asrwt>
<pdfrwt beam="1">  1        1 0.97335498E-01 0.28435678E+03</pdfrwt>
<pdfrwt beam="2">  1       -1 0.49155170E-02 0.28435678E+03</pdfrwt>
<totfact> 0.58803515E+03</totfact>
</mgrwt>
</event>
<event>
 4    1  0.1749575E-004  0.2455468E+03  0.7818608E-02  0.1116152E+00
          2   -1    0    0  501    0  0.00000000000E+00  0.00000000000E+00  0.17815960898E+04  0.17815960898E+04  0.00000000000E+00 0.  1.
         -2   -1    0    0    0  501 -0.00000000000E+00 -0.00000000000E+00 -0.84605624050E+01  0.84605624050E+01  0.00000000000E+00 0.  1.
         25    1    1    2    0    0 -0.76641365297E+01 -0.18050618557E+02  0.10104436647E+04  0.10177332476E+04  0.12000000000E+03 0.  0.
         25    1    1    2    0    0  0.76641365297E+01  0.18050618557E+02  0.76269186277E+03  0.77232340464E+03  0.12000000000E+03 0.  0.
<mgrwt>
<rscale>  0 0.24554678E+03</rscale>
<asrwt>0</asrwt>
<pdfrwt beam="1">  1        2 0.27409141E+00 0.24554678E+03</pdfrwt>
<pdfrwt beam="2">  1       -2 0.13016264E-02 0.24554678E+03</pdfrwt>
<totfact> 0.14004922E+04</totfact>
</mgrwt>
</event>
<event>
 4    1  0.1749575E-004  0.2737311E+03  0.7818608E-02  0.1099163E+00
         -1   -1    0    0    0  501 -0.00000000000E+00  0.00000000000E+00  0.11199135459E+02  0.11199135459E+02  0.00000000000E+00 0.  1.
          1   -1    0    0  501    0  0.00000000000E+00 -0.00000000000E+00 -0.16726445099E+04  0.16726445099E+04  0.00000000000E+00 0.  1.
         25    1    1    2    0    0  0.63460656252E+02 -0.17034985906E+02 -0.80711616835E+03  0.81862931467E+03  0.12000000000E+03 0.  0.
         25    1    1    2    0    0 -0.63460656252E+02  0.17034985906E+02 -0.85432920612E+03  0.86521433071E+03  0.12000000000E+03 0.  0.
<mgrwt>
<rscale>  0 0.27373105E+03</rscale>
<asrwt>0</asrwt>
<pdfrwt beam="1">  1        1 0.25732964E+00 0.27373105E+03</pdfrwt>
<pdfrwt beam="2">  1       -1 0.17229458E-02 0.27373105E+03</pdfrwt>
<totfact> 0.46974971E+03</totfact>
</mgrwt>
</event>
<event>
 4    1  0.1749575E-004  0.3193082E+03  0.7818608E-02  0.1075968E+00
         -1   -1    0    0    0  501 -0.00000000000E+00  0.00000000000E+00  0.18496501135E+02  0.18496501135E+02  0.00000000000E+00 0. -1.
          1   -1    0    0  501    0  0.00000000000E+00 -0.00000000000E+00 -0.13780679485E+04  0.13780679485E+04  0.00000000000E+00 0. -1.
         25    1    1    2    0    0  0.34724458344E+02 -0.53453911902E+02 -0.31316665665E+03  0.34137437447E+03  0.12000000000E+03 0.  0.
         25    1    1    2    0    0 -0.34724458344E+02  0.53453911902E+02 -0.10464047907E+04  0.10551900752E+04  0.12000000000E+03 0.  0.
<mgrwt>
<rscale>  0 0.31930822E+03</rscale>
<asrwt>0</asrwt>
<pdfrwt beam="1">  1        1 0.21201041E+00 0.31930822E+03</pdfrwt>
<pdfrwt beam="2">  1       -1 0.28456161E-02 0.31930822E+03</pdfrwt>
<totfact> 0.35281604E+03</totfact>
</mgrwt>
</event>
<event>
 4    1  0.1749575E-004  0.2979669E+03  0.7818608E-02  0.1086261E+00
         -2   -1    0    0    0  501 -0.00000000000E+00  0.00000000000E+00  0.12358860531E+02  0.12358860531E+02  0.00000000000E+00 0. -1.
          2   -1    0    0  501    0  0.00000000000E+00 -0.00000000000E+00 -0.17959639928E+04  0.17959639928E+04  0.00000000000E+00 0. -1.
         25    1    1    2    0    0  0.50033973765E+02 -0.61107390003E+02 -0.11313928890E+04  0.11404768217E+04  0.12000000000E+03 0.  0.
         25    1    1    2    0    0 -0.50033973765E+02  0.61107390003E+02 -0.65221224328E+03  0.66784603160E+03  0.12000000000E+03 0.  0.
<mgrwt>
<rscale>  0 0.29796690E+03</rscale>
<asrwt>0</asrwt>
<pdfrwt beam="1">  1        2 0.27630209E+00 0.29796690E+03</pdfrwt>
<pdfrwt beam="2">  1       -2 0.19013636E-02 0.29796690E+03</pdfrwt>
<totfact> 0.79294259E+03</totfact>
</mgrwt>
</event>
<event>
 4    1  0.1749575E-004  0.2752862E+03  0.7818608E-02  0.1098292E+00
          1   -1    0    0  501    0  0.00000000000E+00  0.00000000000E+00  0.44565639253E+03  0.44565639253E+03  0.00000000000E+00 0. -1.
         -1   -1    0    0    0  501 -0.00000000000E+00 -0.00000000000E+00 -0.42511713480E+02  0.42511713480E+02  0.00000000000E+00 0. -1.
         25    1    1    2    0    0  0.31933190990E+02 -0.46500004168E+02  0.13608843814E+03  0.19000537379E+03  0.12000000000E+03 0.  0.
         25    1    1    2    0    0 -0.31933190990E+02  0.46500004168E+02  0.26705624091E+03  0.29816273222E+03  0.12000000000E+03 0.  0.
<mgrwt>
<rscale>  0 0.27528616E+03</rscale>
<asrwt>0</asrwt>
<pdfrwt beam="1">  1        1 0.68562519E-01 0.27528616E+03</pdfrwt>
<pdfrwt beam="2">  1       -1 0.65402639E-02 0.27528616E+03</pdfrwt>
<totfact> 0.61338496E+03</totfact>
</mgrwt>
</event>
<event>
 4    1  0.1749575E-004  0.2722041E+03  0.7818608E-02  0.1100025E+00
          1   -1    0    0  501    0  0.00000000000E+00  0.00000000000E+00  0.53514159099E+03  0.53514159099E+03  0.00000000000E+00 0. -1.
         -1   -1    0    0    0  501 -0.00000000000E+00 -0.00000000000E+00 -0.34614711282E+02  0.34614711282E+02  0.00000000000E+00 0. -1.
         25    1    1    2    0    0  0.43030879575E+02  0.34076524938E+02  0.18049917942E+03  0.22359074203E+03  0.12000000000E+03 0.  0.
         25    1    1    2    0    0 -0.43030879575E+02 -0.34076524938E+02  0.32002770029E+03  0.34616556024E+03  0.12000000000E+03 0.  0.
<mgrwt>
<rscale>  0 0.27220413E+03</rscale>
<asrwt>0</asrwt>
<pdfrwt beam="1">  1        1 0.82329469E-01 0.27220413E+03</pdfrwt>
<pdfrwt beam="2">  1       -1 0.53253406E-02 0.27220413E+03</pdfrwt>
<totfact> 0.65607697E+03</totfact>
</mgrwt>
</event>
<event>
 4    1  0.1749575E-004  0.3403657E+03  0.7818608E-02  0.1066640E+00
         -3   -1    0    0    0  501 -0.00000000000E+00  0.00000000000E+00  0.20706341195E+03  0.20706341195E+03  0.00000000000E+00 0.  1.
          3   -1    0    0  501    0  0.00000000000E+00 -0.00000000000E+00 -0.13987117059E+03  0.13987117059E+03  0.00000000000E+00 0.  1.
         25    1    1    2    0    0 -0.77775224339E+02 -0.30845735196E+02 -0.55040494950E+02  0.15630067494E+03  0.12000000000E+03 0.  0.
         25    1    1    2    0    0  0.77775224339E+02  0.30845735196E+02  0.12223273631E+03  0.19063390760E+03  0.12000000000E+03 0.  0.
<mgrwt>
<rscale>  0 0.34036570E+03</rscale>
<asrwt>0</asrwt>
<pdfrwt beam="1">  1        3 0.21518642E-01 0.34036570E+03</pdfrwt>
<pdfrwt beam="2">  1       -3 0.31855910E-01 0.34036570E+03</pdfrwt>
<totfact> 0.48888417E+02</totfact>
</mgrwt>
</event>
<event>
 4    1  0.1749575E-004  0.2978645E+03  0.7818608E-02  0.1086313E+00
          4   -1    0    0  501    0  0.00000000000E+00  0.00000000000E+00  0.14900463174E+03  0.14900463174E+03  0.00000000000E+00 0.  1.
         -4   -1    0    0    0  501 -0.00000000000E+00 -0.00000000000E+00 -0.14885993280E+03  0.14885993280E+03  0.00000000000E+00 0.  1.
         25    1    1    2    0    0 -0.45617607851E+02 -0.36567612400E+02  0.66122815592E+02  0.14896436877E+03  0.12000000000E+03 0.  0.
         25    1    1    2    0    0  0.45617607851E+02  0.36567612400E+02 -0.65978116646E+02  0.14890019577E+03  0.12000000000E+03 0.  0.
<mgrwt>
<rscale>  0 0.29786453E+03</rscale>
<asrwt>0</asrwt>
<pdfrwt beam="1">  1        4 0.22923790E-01 0.29786453E+03</pdfrwt>
<pdfrwt beam="2">  1       -4 0.22901528E-01 0.29786453E+03</pdfrwt>
<totfact> 0.58679851E+02</totfact>
</mgrwt>
</event>
<event>
 4    1  0.1749575E-004  0.2732956E+03  0.7818608E-02  0.1099408E+00
          2   -1    0    0  501    0  0.00000000000E+00  0.00000000000E+00  0.52667811381E+03  0.52667811381E+03  0.00000000000E+00 0.  1.
         -2   -1    0    0    0  501 -0.00000000000E+00 -0.00000000000E+00 -0.35453586319E+02  0.35453586319E+02  0.00000000000E+00 0.  1.
         25    1    1    2    0    0 -0.45435623100E+01 -0.30820184500E+02  0.12741688804E+03  0.17777961382E+03  0.12000000000E+03 0.  0.
         25    1    1    2    0    0  0.45435623100E+01  0.30820184500E+02  0.36380763945E+03  0.38435208632E+03  0.12000000000E+03 0.  0.
<mgrwt>
<rscale>  0 0.27329565E+03</rscale>
<asrwt>0</asrwt>
<pdfrwt beam="1">  1        2 0.81027397E-01 0.27329565E+03</pdfrwt>
<pdfrwt beam="2">  1       -2 0.54543983E-02 0.27329565E+03</pdfrwt>
<totfact> 0.99980394E+03</totfact>
</mgrwt>
</event>
<event>
 4    1  0.1749575E-004  0.2506814E+03  0.7818608E-02  0.1112875E+00
         -4   -1    0    0    0  501 -0.00000000000E+00  0.00000000000E+00  0.24759621075E+02  0.24759621075E+02  0.00000000000E+00 0. -1.
          4   -1    0    0  501    0  0.00000000000E+00 -0.00000000000E+00 -0.63451245414E+03  0.63451245414E+03  0.00000000000E+00 0. -1.
         25    1    1    2    0    0  0.32196226035E+02  0.12128295579E+02 -0.33446686774E+03  0.35700389093E+03  0.12000000000E+03 0.  0.
         25    1    1    2    0    0 -0.32196226035E+02 -0.12128295579E+02 -0.27528596533E+03  0.30226818428E+03  0.12000000000E+03 0.  0.
<mgrwt>
<rscale>  0 0.25068137E+03</rscale>
<asrwt>0</asrwt>
<pdfrwt beam="1">  1        4 0.97617277E-01 0.25068137E+03</pdfrwt>
<pdfrwt beam="2">  1       -4 0.38091734E-02 0.25068137E+03</pdfrwt>
<totfact> 0.61788350E+02</totfact>
</mgrwt>
</event>
<event>
 4    1  0.1749575E-004  0.6812475E+03  0.7818608E-02  0.9749850E-01
         -1   -1    0    0    0  501 -0.00000000000E+00  0.00000000000E+00  0.15254700353E+04  0.15254700353E+04  0.00000000000E+00 0. -1.
          1   -1    0    0  501    0  0.00000000000E+00 -0.00000000000E+00 -0.76058222681E+02  0.76058222681E+02  0.00000000000E+00 0. -1.
         25    1    1    2    0    0  0.19656094889E+03 -0.10864382685E+03  0.19284213488E+03  0.31941787164E+03  0.12000000000E+03 0.  0.
         25    1    1    2    0    0 -0.19656094889E+03  0.10864382685E+03  0.12565696777E+04  0.12821103863E+04  0.12000000000E+03 0.  0.
<mgrwt>
<rscale>  0 0.68124750E+03</rscale>
<asrwt>0</asrwt>
<pdfrwt beam="1">  1        1 0.11701266E-01 0.68124750E+03</pdfrwt>
<pdfrwt beam="2">  1       -1 0.23468767E+00 0.68124750E+03</pdfrwt>
<totfact> 0.49125657E+01</totfact>
</mgrwt>
</event>
<event>
 4    1  0.1749575E-004  0.2708670E+03  0.7818608E-02  0.1100784E+00
          1   -1    0    0  501    0  0.00000000000E+00  0.00000000000E+00  0.10910890135E+04  0.10910890135E+04  0.00000000000E+00 0.  1.
         -1   -1    0    0    0  501 -0.00000000000E+00 -0.00000000000E+00 -0.16810939979E+02  0.16810939979E+02  0.00000000000E+00 0.  1.
         25    1    1    2    0    0  0.34209089617E+02  0.31859567161E+02  0.36569488038E+03  0.38770870427E+03  0.12000000000E+03 0.  0.
         25    1    1    2    0    0 -0.34209089617E+02 -0.31859567161E+02  0.70858319314E+03  0.72019124921E+03  0.12000000000E+03 0.  0.
<mgrwt>
<rscale>  0 0.27086699E+03</rscale>
<asrwt>0</asrwt>
<pdfrwt beam="1">  1        1 0.16785979E+00 0.27086699E+03</pdfrwt>
<pdfrwt beam="2">  1       -1 0.25862993E-02 0.27086699E+03</pdfrwt>
<totfact> 0.64272890E+03</totfact>
</mgrwt>
</event>
<event>
 4    1  0.1749575E-004  0.3006775E+03  0.7818608E-02  0.1084902E+00
          3   -1    0    0  501    0  0.00000000000E+00  0.00000000000E+00  0.10880106444E+03  0.10880106444E+03  0.00000000000E+00 0. -1.
         -3   -1    0    0    0  501 -0.00000000000E+00 -0.00000000000E+00 -0.20773453402E+03  0.20773453402E+03  0.00000000000E+00 0. -1.
         25    1    1    2    0    0  0.61977268253E+02 -0.17137822290E+02  0.17668545839E+02  0.13728461037E+03  0.12000000000E+03 0.  0.
         25    1    1    2    0    0 -0.61977268253E+02  0.17137822290E+02 -0.11660201542E+03  0.17925098809E+03  0.12000000000E+03 0.  0.
<mgrwt>
<rscale>  0 0.30067749E+03</rscale>
<asrwt>0</asrwt>
<pdfrwt beam="1">  1        3 0.16738625E-01 0.30067749E+03</pdfrwt>
<pdfrwt beam="2">  1       -3 0.31959159E-01 0.30067749E+03</pdfrwt>
<totfact> 0.75035716E+02</totfact>
</mgrwt>
</event>
<event>
 4    1  0.1749575E-004  0.2484679E+03  0.7818608E-02  0.1114277E+00
         -2   -1    0    0    0  501 -0.00000000000E+00  0.00000000000E+00  0.11847731953E+02  0.11847731953E+02  0.00000000000E+00 0.  1.
          2   -1    0    0  501    0  0.00000000000E+00 -0.00000000000E+00 -0.13027030084E+04  0.13027030084E+04  0.00000000000E+00 0.  1.
         25    1    1    2    0    0 -0.29872201371E+02  0.10121845993E+01 -0.58267110973E+03  0.59565006090E+03  0.12000000000E+03 0.  0.
         25    1    1    2    0    0  0.29872201371E+02 -0.10121845993E+01 -0.70818416667E+03  0.71890067941E+03  0.12000000000E+03 0.  0.
<mgrwt>
<rscale>  0 0.24846791E+03</rscale>
<asrwt>0</asrwt>
<pdfrwt beam="1">  1        2 0.20041562E+00 0.24846791E+03</pdfrwt>
<pdfrwt beam="2">  1       -2 0.18227301E-02 0.24846791E+03</pdfrwt>
<totfact> 0.15422795E+04</totfact>
</mgrwt>
</event>
<event>
 4    1  0.1749575E-004  0.2646734E+03  0.7818608E-02  0.1104367E+00
         -2   -1    0    0    0  501 -0.00000000000E+00  0.00000000000E+00  0.17105409200E+02  0.17105409200E+02  0.00000000000E+00 0. -1.
          2   -1    0    0  501    0  0.00000000000E+00 -0.00000000000E+00 -0.10238286531E+04  0.10238286531E+04  0.00000000000E+00 0. -1.
         25    1    1    2    0    0 -0.33041980639E+02  0.33404177753E+02 -0.62170180933E+03  0.63491790910E+03  0.12000000000E+03 0.  0.
         25    1    1    2    0    0  0.33041980639E+02 -0.33404177753E+02 -0.38502143453E+03  0.40601615315E+03  0.12000000000E+03 0.  0.
<mgrwt>
<rscale>  0 0.26467344E+03</rscale>
<asrwt>0</asrwt>
<pdfrwt beam="1">  1        2 0.15751216E+00 0.26467344E+03</pdfrwt>
<pdfrwt beam="2">  1       -2 0.26316005E-02 0.26467344E+03</pdfrwt>
<totfact> 0.13018860E+04</totfact>
</mgrwt>
</event>
<event>
 4    1  0.1749575E-004  0.2789724E+03  0.7818608E-02  0.1096252E+00
          2   -1    0    0  501    0  0.00000000000E+00  0.00000000000E+00  0.11393952451E+04  0.11393952451E+04  0.00000000000E+00 0.  1.
         -2   -1    0    0    0  501 -0.00000000000E+00 -0.00000000000E+00 -0.17076079585E+02  0.17076079585E+02  0.00000000000E+00 0.  1.
         25    1    1    2    0    0 -0.50135938053E+02  0.24944567212E+02  0.74283139356E+03  0.75454245936E+03  0.12000000000E+03 0.  0.
         25    1    1    2    0    0  0.50135938053E+02 -0.24944567212E+02  0.37948777195E+03  0.40192886532E+03  0.12000000000E+03 0.  0.
<mgrwt>
<rscale>  0 0.27897243E+03</rscale>
<asrwt>0</asrwt>
<pdfrwt beam="1">  1        2 0.17529152E+00 0.27897243E+03</pdfrwt>
<pdfrwt beam="2">  1       -2 0.26270901E-02 0.27897243E+03</pdfrwt>
<totfact> 0.11169103E+04</totfact>
</mgrwt>
</event>
<event>
 4    1  0.1749575E-004  0.3628136E+03  0.7818608E-02  0.1057475E+00
          2   -1    0    0  501    0  0.00000000000E+00  0.00000000000E+00  0.12560171313E+03  0.12560171313E+03  0.00000000000E+00 0.  1.
         -2   -1    0    0    0  501 -0.00000000000E+00 -0.00000000000E+00 -0.26200618879E+03  0.26200618879E+03  0.00000000000E+00 0.  1.
         25    1    1    2    0    0 -0.66440478470E+02  0.76924242819E+02 -0.16480719803E+03  0.22780054617E+03  0.12000000000E+03 0.  0.
         25    1    1    2    0    0  0.66440478470E+02 -0.76924242819E+02  0.28402722366E+02  0.15980735575E+03  0.12000000000E+03 0.  0.
<mgrwt>
<rscale>  0 0.36281359E+03</rscale>
<asrwt>0</asrwt>
<pdfrwt beam="1">  1        2 0.19323340E-01 0.36281359E+03</pdfrwt>
<pdfrwt beam="2">  1       -2 0.40308644E-01 0.36281359E+03</pdfrwt>
<totfact> 0.17061859E+03</totfact>
</mgrwt>
</event>
<event>
 4    1  0.1749575E-004  0.3586052E+03  0.7818608E-02  0.1059137E+00
         -2   -1    0    0    0  501 -0.00000000000E+00  0.00000000000E+00  0.32415741781E+02  0.32415741781E+02  0.00000000000E+00 0.  1.
          2   -1    0    0  501    0  0.00000000000E+00 -0.00000000000E+00 -0.99178437918E+03  0.99178437918E+03  0.00000000000E+00 0.  1.
         25    1    1    2    0    0 -0.92313567113E+02 -0.79179477174E+02 -0.63502495040E+03  0.65760768845E+03  0.12000000000E+03 0.  0.
         25    1    1    2    0    0  0.92313567113E+02  0.79179477174E+02 -0.32434368700E+03  0.36659243252E+03  0.12000000000E+03 0.  0.
<mgrwt>
<rscale>  0 0.35860522E+03</rscale>
<asrwt>0</asrwt>
<pdfrwt beam="1">  1        2 0.15258219E+00 0.35860522E+03</pdfrwt>
<pdfrwt beam="2">  1       -2 0.49870378E-02 0.35860522E+03</pdfrwt>
<totfact> 0.52445778E+03</totfact>
</mgrwt>
</event>
<event>
 4    1  0.1749575E-004  0.2630944E+03  0.7818608E-02  0.1105298E+00
         -1   -1    0    0    0  501 -0.00000000000E+00  0.00000000000E+00  0.15583603854E+02  0.15583603854E+02  0.00000000000E+00 0. -1.
          1   -1    0    0  501    0  0.00000000000E+00 -0.00000000000E+00 -0.11104407502E+04  0.11104407502E+04  0.00000000000E+00 0. -1.
         25    1    1    2    0    0  0.25145202208E+02 -0.37105188901E+02 -0.41934560864E+03  0.43847441855E+03  0.12000000000E+03 0.  0.
         25    1    1    2    0    0 -0.25145202208E+02  0.37105188901E+02 -0.67551153771E+03  0.68754993551E+03  0.12000000000E+03 0.  0.
<mgrwt>
<rscale>  0 0.26309442E+03</rscale>
<asrwt>0</asrwt>
<pdfrwt beam="1">  1        1 0.17083704E+00 0.26309442E+03</pdfrwt>
<pdfrwt beam="2">  1       -1 0.23974775E-02 0.26309442E+03</pdfrwt>
<totfact> 0.69528336E+03</totfact>
</mgrwt>
</event>
<event>
 4    1  0.1749575E-004  0.4184442E+03  0.7818608E-02  0.1037574E+00
         -1   -1    0    0    0  501 -0.00000000000E+00  0.00000000000E+00  0.13887236192E+03  0.13887236192E+03  0.00000000000E+00 0. -1.
          1   -1    0    0  501    0  0.00000000000E+00 -0.00000000000E+00 -0.31520943847E+03  0.31520943847E+03  0.00000000000E+00 0. -1.
         25    1    1    2    0    0 -0.14121312753E+03  0.10141470826E+02  0.16649171735E+02  0.18633623302E+03  0.12000000000E+03 0.  0.
         25    1    1    2    0    0  0.14121312753E+03 -0.10141470826E+02 -0.19298624829E+03  0.26774556737E+03  0.12000000000E+03 0.  0.
<mgrwt>
<rscale>  0 0.41844416E+03</rscale>
<asrwt>0</asrwt>
<pdfrwt beam="1">  1        1 0.48493759E-01 0.41844416E+03</pdfrwt>
<pdfrwt beam="2">  1       -1 0.21364979E-01 0.41844416E+03</pdfrwt>
<totfact> 0.14953852E+03</totfact>
</mgrwt>
</event>
<event>
 4    1  0.1749575E-004  0.3385116E+03  0.7818608E-02  0.1067432E+00
         -1   -1    0    0    0  501 -0.00000000000E+00  0.00000000000E+00  0.19555547475E+02  0.19555547475E+02  0.00000000000E+00 0.  1.
          1   -1    0    0  501    0  0.00000000000E+00 -0.00000000000E+00 -0.14649306353E+04  0.14649306353E+04  0.00000000000E+00 0.  1.
         25    1    1    2    0    0 -0.44970461409E+01  0.36496680608E+02 -0.22470033066E+03  0.25737612499E+03  0.12000000000E+03 0.  0.
         25    1    1    2    0    0  0.44970461409E+01 -0.36496680608E+02 -0.12206747572E+04  0.12271100578E+04  0.12000000000E+03 0.  0.
<mgrwt>
<rscale>  0 0.33851157E+03</rscale>
<asrwt>0</asrwt>
<pdfrwt beam="1">  1        1 0.22537405E+00 0.33851157E+03</pdfrwt>
<pdfrwt beam="2">  1       -1 0.30085444E-02 0.33851157E+03</pdfrwt>
<totfact> 0.28387230E+03</totfact>
</mgrwt>
</event>
<event>
 4    1  0.1749575E-004  0.2617374E+03  0.7818608E-02  0.1106104E+00
          1   -1    0    0  501    0  0.00000000000E+00  0.00000000000E+00  0.20665086459E+04  0.20665086459E+04  0.00000000000E+00 0.  1.
         -1   -1    0    0    0  501 -0.00000000000E+00 -0.00000000000E+00 -0.82877059633E+01  0.82877059633E+01  0.00000000000E+00 0.  1.
         25    1    1    2    0    0  0.46530351597E+02  0.18865277330E+02  0.11427861144E+04  0.11501656731E+04  0.12000000000E+03 0.  0.
         25    1    1    2    0    0 -0.46530351597E+02 -0.18865277330E+02  0.91543482554E+03  0.92463067877E+03  0.12000000000E+03 0.  0.
<mgrwt>
<rscale>  0 0.26173740E+03</rscale>
<asrwt>0</asrwt>
<pdfrwt beam="1">  1        1 0.31792400E+00 0.26173740E+03</pdfrwt>
<pdfrwt beam="2">  1       -1 0.12750333E-02 0.26173740E+03</pdfrwt>
<totfact> 0.40376929E+03</totfact>
</mgrwt>
</event>
<event>
 4    1  0.1749575E-004  0.3835097E+03  0.7818608E-02  0.1049644E+00
         -1   -1    0    0    0  501 -0.00000000000E+00  0.00000000000E+00  0.36266086431E+02  0.36266086431E+02  0.00000000000E+00 0.  1.
          1   -1    0    0  501    0  0.00000000000E+00 -0.00000000000E+00 -0.10138925527E+04  0.10138925527E+04  0.00000000000E+00 0.  1.
         25    1    1    2    0    0 -0.10041825557E+03 -0.36468140881E+02 -0.77543413316E+03  0.79190393749E+03  0.12000000000E+03 0.  0.
         25    1    1    2    0    0  0.10041825557E+03  0.36468140881E+02 -0.20219233314E+03  0.25825470167E+03  0.12000000000E+03 0.  0.
<mgrwt>
<rscale>  0 0.38350966E+03</rscale>
<asrwt>0</asrwt>
<pdfrwt beam="1">  1        1 0.15598347E+00 0.38350966E+03</pdfrwt>
<pdfrwt beam="2">  1       -1 0.55793981E-02 0.38350966E+03</pdfrwt>
<totfact> 0.23328762E+03</totfact>
</mgrwt>
</event>
<event>
 4    1  0.1749575E-004  0.2614563E+03  0.7818608E-02  0.1106271E+00
         -1   -1    0    0    0  501 -0.00000000000E+00  0.00000000000E+00  0.50827181925E+02  0.50827181925E+02  0.00000000000E+00 0. -1.
          1   -1    0    0  501    0  0.00000000000E+00 -0.00000000000E+00 -0.33623434926E+03  0.33623434926E+03  0.00000000000E+00 0. -1.
         25    1    1    2    0    0  0.20908276819E+02  0.12081057528E+02 -0.21065305223E+03  0.24363459607E+03  0.12000000000E+03 0.  0.
         25    1    1    2    0    0 -0.20908276819E+02 -0.12081057528E+02 -0.74754115110E+02  0.14342693511E+03  0.12000000000E+03 0.  0.
<mgrwt>
<rscale>  0 0.26145626E+03</rscale>
<asrwt>0</asrwt>
<pdfrwt beam="1">  1        1 0.51728361E-01 0.26145626E+03</pdfrwt>
<pdfrwt beam="2">  1       -1 0.78195665E-02 0.26145626E+03</pdfrwt>
<totfact> 0.66935456E+03</totfact>
</mgrwt>
</event>
<event>
 4    1  0.1749575E-004  0.2675122E+03  0.7818608E-02  0.1102712E+00
         -2   -1    0    0    0  501 -0.00000000000E+00  0.00000000000E+00  0.28914800537E+02  0.28914800537E+02  0.00000000000E+00 0. -1.
          2   -1    0    0  501    0  0.00000000000E+00 -0.00000000000E+00 -0.61873823207E+03  0.61873823207E+03  0.00000000000E+00 0. -1.
         25    1    1    2    0    0 -0.19571842496E+02  0.52927635935E+02 -0.33728313083E+03  0.36241454442E+03  0.12000000000E+03 0.  0.
         25    1    1    2    0    0  0.19571842496E+02 -0.52927635935E+02 -0.25254030070E+03  0.28523848819E+03  0.12000000000E+03 0.  0.
<mgrwt>
<rscale>  0 0.26751219E+03</rscale>
<asrwt>0</asrwt>
<pdfrwt beam="1">  1        2 0.95190493E-01 0.26751219E+03</pdfrwt>
<pdfrwt beam="2">  1       -2 0.44484311E-02 0.26751219E+03</pdfrwt>
<totfact> 0.11314887E+04</totfact>
</mgrwt>
</event>
<event>
 4    1  0.1749575E-004  0.2674817E+03  0.7818608E-02  0.1102730E+00
          2   -1    0    0  501    0  0.00000000000E+00  0.00000000000E+00  0.23064612036E+03  0.23064612036E+03  0.00000000000E+00 0.  1.
         -2   -1    0    0    0  501 -0.00000000000E+00 -0.00000000000E+00 -0.77550034671E+02  0.77550034671E+02  0.00000000000E+00 0.  1.
         25    1    1    2    0    0  0.32892716249E+02  0.43076286841E+02  0.10354816523E+03  0.16751035727E+03  0.12000000000E+03 0.  0.
         25    1    1    2    0    0 -0.32892716249E+02 -0.43076286841E+02  0.49547920459E+02  0.14068579776E+03  0.12000000000E+03 0.  0.
<mgrwt>
<rscale>  0 0.26748170E+03</rscale>
<asrwt>0</asrwt>
<pdfrwt beam="1">  1        2 0.35484018E-01 0.26748170E+03</pdfrwt>
<pdfrwt beam="2">  1       -2 0.11930775E-01 0.26748170E+03</pdfrwt>
<totfact> 0.72022310E+03</totfact>
</mgrwt>
</event>
<event>
 4    1  0.1749575E-004  0.3718551E+03  0.7818608E-02  0.1053986E+00
          2   -1    0    0  501    0  0.00000000000E+00  0.00000000000E+00  0.98204534863E+03  0.98204534863E+03  0.00000000000E+00 0.  1.
         -2   -1    0    0    0  501 -0.00000000000E+00 -0.00000000000E+00 -0.35201084521E+02  0.35201084521E+02  0.00000000000E+00 0.  1.
         25    1    1    2    0    0  0.71695615875E+02 -0.10509934292E+03  0.30077728517E+03  0.34792687234E+03  0.12000000000E+03 0.  0.
         25    1    1    2    0    0 -0.71695615875E+02  0.10509934292E+03  0.64606697894E+03  0.66931956082E+03  0.12000000000E+03 0.  0.
<mgrwt>
<rscale>  0 0.37185514E+03</rscale>
<asrwt>0</asrwt>
<pdfrwt beam="1">  1        2 0.15108388E+00 0.37185514E+03</pdfrwt>
<pdfrwt beam="2">  1       -2 0.54155522E-02 0.37185514E+03</pdfrwt>
<totfact> 0.46885350E+03</totfact>
</mgrwt>
</event>
<event>
 4    1  0.1749575E-004  0.4003517E+03  0.7818608E-02  0.1043658E+00
         -1   -1    0    0    0  501 -0.00000000000E+00  0.00000000000E+00  0.52449071901E+02  0.52449071901E+02  0.00000000000E+00 0. -1.
          1   -1    0    0  501    0  0.00000000000E+00 -0.00000000000E+00 -0.76398644709E+03  0.76398644709E+03  0.00000000000E+00 0. -1.
         25    1    1    2    0    0  0.61278450319E+02 -0.13189023783E+03 -0.21866042147E+03  0.28872558464E+03  0.12000000000E+03 0.  0.
         25    1    1    2    0    0 -0.61278450319E+02  0.13189023783E+03 -0.49287695372E+03  0.52770993435E+03  0.12000000000E+03 0.  0.
<mgrwt>
<rscale>  0 0.40035175E+03</rscale>
<asrwt>0</asrwt>
<pdfrwt beam="1">  1        1 0.11753636E+00 0.40035175E+03</pdfrwt>
<pdfrwt beam="2">  1       -1 0.80690889E-02 0.40035175E+03</pdfrwt>
<totfact> 0.21072608E+03</totfact>
</mgrwt>
</event>
<event>
 4    1  0.1749575E-004  0.2864641E+03  0.7818608E-02  0.1092210E+00
          2   -1    0    0  501    0  0.00000000000E+00  0.00000000000E+00  0.18155504952E+04  0.18155504952E+04  0.00000000000E+00 0.  1.
         -2   -1    0    0    0  501 -0.00000000000E+00 -0.00000000000E+00 -0.11299833810E+02  0.11299833810E+02  0.00000000000E+00 0.  1.
         25    1    1    2    0    0  0.50765627272E+02  0.57212752677E+02  0.79831708327E+03  0.81090111198E+03  0.12000000000E+03 0.  0.
         25    1    1    2    0    0 -0.50765627272E+02 -0.57212752677E+02  0.10059335781E+04  0.10159492170E+04  0.12000000000E+03 0.  0.
<mgrwt>
<rscale>  0 0.28646409E+03</rscale>
<asrwt>0</asrwt>
<pdfrwt beam="1">  1        2 0.27931523E+00 0.28646409E+03</pdfrwt>
<pdfrwt beam="2">  1       -2 0.17384374E-02 0.28646409E+03</pdfrwt>
<totfact> 0.88306996E+03</totfact>
</mgrwt>
</event>
<event>
 4    1  0.1749575E-004  0.2897783E+03  0.7818608E-02  0.1090465E+00
         -3   -1    0    0    0  501 -0.00000000000E+00  0.00000000000E+00  0.30041818227E+03  0.30041818227E+03  0.00000000000E+00 0. -1.
          3   -1    0    0  501    0  0.00000000000E+00 -0.00000000000E+00 -0.69878803119E+02  0.69878803119E+02  0.00000000000E+00 0. -1.
         25    1    1    2    0    0 -0.18812948301E+02 -0.44729579246E+02  0.32078926911E+02  0.13335561419E+03  0.12000000000E+03 0.  0.
         25    1    1    2    0    0  0.18812948301E+02  0.44729579246E+02  0.19846045224E+03  0.23694137120E+03  0.12000000000E+03 0.  0.
<mgrwt>
<rscale>  0 0.28977828E+03</rscale>
<asrwt>0</asrwt>
<pdfrwt beam="1">  1        3 0.10750585E-01 0.28977828E+03</pdfrwt>
<pdfrwt beam="2">  1       -3 0.46218181E-01 0.28977828E+03</pdfrwt>
<totfact> 0.78088060E+02</totfact>
</mgrwt>
</event>
<event>
 4    1  0.1749575E-004  0.2454799E+03  0.7818608E-02  0.1116195E+00
         -1   -1    0    0    0  501 -0.00000000000E+00  0.00000000000E+00  0.35343581119E+02  0.35343581119E+02  0.00000000000E+00 0. -1.
          1   -1    0    0  501    0  0.00000000000E+00 -0.00000000000E+00 -0.42624688934E+03  0.42624688934E+03  0.00000000000E+00 0. -1.
         25    1    1    2    0    0 -0.16570840315E+02  0.18429000546E+02 -0.20886307557E+03  0.24215285492E+03  0.12000000000E+03 0.  0.
         25    1    1    2    0    0  0.16570840315E+02 -0.18429000546E+02 -0.18204023266E+03  0.21943761554E+03  0.12000000000E+03 0.  0.
<mgrwt>
<rscale>  0 0.24547987E+03</rscale>
<asrwt>0</asrwt>
<pdfrwt beam="1">  1        1 0.65576445E-01 0.24547987E+03</pdfrwt>
<pdfrwt beam="2">  1       -1 0.54374740E-02 0.24547987E+03</pdfrwt>
<totfact> 0.85465286E+03</totfact>
</mgrwt>
</event>
<event>
 4    1  0.1749575E-004  0.3319099E+03  0.7818608E-02  0.1070295E+00
          2   -1    0    0  501    0  0.00000000000E+00  0.00000000000E+00  0.27238139937E+03  0.27238139937E+03  0.00000000000E+00 0. -1.
         -2   -1    0    0    0  501 -0.00000000000E+00 -0.00000000000E+00 -0.10111207524E+03  0.10111207524E+03  0.00000000000E+00 0. -1.
         25    1    1    2    0    0  0.52857917565E+02 -0.97502649274E+02  0.11825479895E+03  0.20170504094E+03  0.12000000000E+03 0.  0.
         25    1    1    2    0    0 -0.52857917565E+02  0.97502649274E+02  0.53014525187E+02  0.17178843368E+03  0.12000000000E+03 0.  0.
<mgrwt>
<rscale>  0 0.33190992E+03</rscale>
<asrwt>0</asrwt>
<pdfrwt beam="1">  1        2 0.41904830E-01 0.33190992E+03</pdfrwt>
<pdfrwt beam="2">  1       -2 0.15555704E-01 0.33190992E+03</pdfrwt>
<totfact> 0.39197462E+03</totfact>
</mgrwt>
</event>
<event>
 4    1  0.1749575E-004  0.2442541E+03  0.7818608E-02  0.1116991E+00
         -2   -1    0    0    0  501 -0.00000000000E+00  0.00000000000E+00  0.18105773283E+02  0.18105773283E+02  0.00000000000E+00 0.  1.
          2   -1    0    0  501    0  0.00000000000E+00 -0.00000000000E+00 -0.82377108139E+03  0.82377108139E+03  0.00000000000E+00 0.  1.
         25    1    1    2    0    0  0.59838548047E+01 -0.21420902256E+02 -0.41838150157E+03  0.43581847417E+03  0.12000000000E+03 0.  0.
         25    1    1    2    0    0 -0.59838548047E+01  0.21420902256E+02 -0.38728380654E+03  0.40605838051E+03  0.12000000000E+03 0.  0.
<mgrwt>
<rscale>  0 0.24425407E+03</rscale>
<asrwt>0</asrwt>
<pdfrwt beam="1">  1        2 0.12673402E+00 0.24425407E+03</pdfrwt>
<pdfrwt beam="2">  1       -2 0.27855034E-02 0.24425407E+03</pdfrwt>
<totfact> 0.15999321E+04</totfact>
</mgrwt>
</event>
<event>
 4    1  0.1749575E-004  0.2607476E+03  0.7818608E-02  0.1106695E+00
          2   -1    0    0  501    0  0.00000000000E+00  0.00000000000E+00  0.12054144882E+04  0.12054144882E+04  0.00000000000E+00 0. -1.
         -2   -1    0    0    0  501 -0.00000000000E+00 -0.00000000000E+00 -0.14100820602E+02  0.14100820602E+02  0.00000000000E+00 0. -1.
         25    1    1    2    0    0 -0.39719789772E+01  0.48960049220E+02  0.53213394744E+03  0.54770375300E+03  0.12000000000E+03 0.  0.
         25    1    1    2    0    0  0.39719789772E+01 -0.48960049220E+02  0.65917972019E+03  0.67181155583E+03  0.12000000000E+03 0.  0.
<mgrwt>
<rscale>  0 0.26074764E+03</rscale>
<asrwt>0</asrwt>
<pdfrwt beam="1">  1        2 0.18544830E+00 0.26074764E+03</pdfrwt>
<pdfrwt beam="2">  1       -2 0.21693580E-02 0.26074764E+03</pdfrwt>
<totfact> 0.13557189E+04</totfact>
</mgrwt>
</event>
<event>
 4    1  0.1749575E-004  0.2619766E+03  0.7818608E-02  0.1105961E+00
         -1   -1    0    0    0  501 -0.00000000000E+00  0.00000000000E+00  0.25352552666E+03  0.25352552666E+03  0.00000000000E+00 0. -1.
          1   -1    0    0  501    0  0.00000000000E+00 -0.00000000000E+00 -0.67677324271E+02  0.67677324271E+02  0.00000000000E+00 0. -1.
         25    1    1    2    0    0  0.47383930314E+02 -0.21411158825E+02  0.83893104970E+02  0.15537608450E+03  0.12000000000E+03 0.  0.
         25    1    1    2    0    0 -0.47383930314E+02  0.21411158825E+02  0.10195509742E+03  0.16582676643E+03  0.12000000000E+03 0.  0.
<mgrwt>
<rscale>  0 0.26197656E+03</rscale>
<asrwt>0</asrwt>
<pdfrwt beam="1">  1        1 0.10411896E-01 0.26197656E+03</pdfrwt>
<pdfrwt beam="2">  1       -1 0.39003927E-01 0.26197656E+03</pdfrwt>
<totfact> 0.38950195E+03</totfact>
</mgrwt>
</event>
<event>
 4    1  0.1749575E-004  0.3195526E+03  0.7818608E-02  0.1075855E+00
          2   -1    0    0  501    0  0.00000000000E+00  0.00000000000E+00  0.14514728877E+04  0.14514728877E+04  0.00000000000E+00 0.  1.
         -2   -1    0    0    0  501 -0.00000000000E+00 -0.00000000000E+00 -0.17587974545E+02  0.17587974545E+02  0.00000000000E+00 0.  1.
         25    1    1    2    0    0 -0.50680053767E+02  0.73854767089E+02  0.46075294556E+03  0.48447525357E+03  0.12000000000E+03 0.  0.
         25    1    1    2    0    0  0.50680053767E+02 -0.73854767089E+02  0.97313196762E+03  0.98458560870E+03  0.12000000000E+03 0.  0.
<mgrwt>
<rscale>  0 0.31955261E+03</rscale>
<asrwt>0</asrwt>
<pdfrwt beam="1">  1        2 0.22330343E+00 0.31955261E+03</pdfrwt>
<pdfrwt beam="2">  1       -2 0.27058434E-02 0.31955261E+03</pdfrwt>
<totfact> 0.71776265E+03</totfact>
</mgrwt>
</event>
<event>
 4    1  0.1749575E-004  0.2725620E+03  0.7818608E-02  0.1099822E+00
          2   -1    0    0  501    0  0.00000000000E+00  0.00000000000E+00  0.64439034148E+03  0.64439034148E+03  0.00000000000E+00 0.  1.
         -2   -1    0    0    0  501 -0.00000000000E+00 -0.00000000000E+00 -0.28821843055E+02  0.28821843055E+02  0.00000000000E+00 0.  1.
         25    1    1    2    0    0  0.31690748489E+02  0.51339366578E+02  0.25078888456E+03  0.28449094664E+03  0.12000000000E+03 0.  0.
         25    1    1    2    0    0 -0.31690748489E+02 -0.51339366578E+02  0.36477961387E+03  0.38872123790E+03  0.12000000000E+03 0.  0.
<mgrwt>
<rscale>  0 0.27256205E+03</rscale>
<asrwt>0</asrwt>
<pdfrwt beam="1">  1        2 0.99136965E-01 0.27256205E+03</pdfrwt>
<pdfrwt beam="2">  1       -2 0.44341302E-02 0.27256205E+03</pdfrwt>
<totfact> 0.10847369E+04</totfact>
</mgrwt>
</event>
<event>
 4    1  0.1749575E-004  0.3102854E+03  0.7818608E-02  0.1080209E+00
         -1   -1    0    0    0  501 -0.00000000000E+00  0.00000000000E+00  0.26454034868E+02  0.26454034868E+02  0.00000000000E+00 0. -1.
          1   -1    0    0  501    0  0.00000000000E+00 -0.00000000000E+00 -0.90985208024E+03  0.90985208024E+03  0.00000000000E+00 0. -1.
         25    1    1    2    0    0 -0.97173498499E+02  0.10204602527E+02 -0.40830944296E+03  0.43665023066E+03  0.12000000000E+03 0.  0.
         25    1    1    2    0    0  0.97173498499E+02 -0.10204602527E+02 -0.47508860242E+03  0.49965588445E+03  0.12000000000E+03 0.  0.
<mgrwt>
<rscale>  0 0.31028541E+03</rscale>
<asrwt>0</asrwt>
<pdfrwt beam="1">  1        1 0.13997725E+00 0.31028541E+03</pdfrwt>
<pdfrwt beam="2">  1       -1 0.40698514E-02 0.31028541E+03</pdfrwt>
<totfact> 0.45036148E+03</totfact>
</mgrwt>
</event>
<event>
 4    1  0.1749575E-004  0.2484719E+03  0.7818608E-02  0.1114274E+00
         -1   -1    0    0    0  501 -0.00000000000E+00  0.00000000000E+00  0.77924908431E+02  0.77924908431E+02  0.00000000000E+00 0. -1.
          1   -1    0    0  501    0  0.00000000000E+00 -0.00000000000E+00 -0.19806978258E+03  0.19806978258E+03  0.00000000000E+00 0. -1.
         25    1    1    2    0    0 -0.40233529933E+01  0.91967878738E+01 -0.94015476509E+02  0.15277328988E+03  0.12000000000E+03 0.  0.
         25    1    1    2    0    0  0.40233529933E+01 -0.91967878738E+01 -0.26129397640E+02  0.12322140113E+03  0.12000000000E+03 0.  0.
<mgrwt>
<rscale>  0 0.24847189E+03</rscale>
<asrwt>0</asrwt>
<pdfrwt beam="1">  1        1 0.30472274E-01 0.24847189E+03</pdfrwt>
<pdfrwt beam="2">  1       -1 0.11988448E-01 0.24847189E+03</pdfrwt>
<totfact> 0.67198509E+03</totfact>
</mgrwt>
</event>
<event>
 4    1  0.1749575E-004  0.3479698E+03  0.7818608E-02  0.1063451E+00
         -2   -1    0    0    0  501 -0.00000000000E+00  0.00000000000E+00  0.15189317956E+03  0.15189317956E+03  0.00000000000E+00 0. -1.
          2   -1    0    0  501    0  0.00000000000E+00 -0.00000000000E+00 -0.19928969769E+03  0.19928969769E+03  0.00000000000E+00 0. -1.
         25    1    1    2    0    0 -0.11744506543E+02  0.39588843210E+02  0.96419793004E+02  0.15938000635E+03  0.12000000000E+03 0.  0.
         25    1    1    2    0    0  0.11744506543E+02 -0.39588843210E+02 -0.14381631114E+03  0.19180287091E+03  0.12000000000E+03 0.  0.
<mgrwt>
<rscale>  0 0.34796980E+03</rscale>
<asrwt>0</asrwt>
<pdfrwt beam="1">  1        2 0.30659953E-01 0.34796980E+03</pdfrwt>
<pdfrwt beam="2">  1       -2 0.23368181E-01 0.34796980E+03</pdfrwt>
<totfact> 0.27531578E+03</totfact>
</mgrwt>
</event>
<event>
 4    1  0.1749575E-004  0.4062699E+03  0.7818608E-02  0.1041630E+00
          2   -1    0    0  501    0  0.00000000000E+00  0.00000000000E+00  0.43694158124E+03  0.43694158124E+03  0.00000000000E+00 0.  1.
         -2   -1    0    0    0  501 -0.00000000000E+00 -0.00000000000E+00 -0.94437828535E+02  0.94437828535E+02  0.00000000000E+00 0.  1.
         25    1    1    2    0    0  0.15857446779E+03 -0.96104042104E+01  0.11851724972E+03  0.23169928827E+03  0.12000000000E+03 0.  0.
         25    1    1    2    0    0 -0.15857446779E+03  0.96104042104E+01  0.22398650299E+03  0.29968012150E+03  0.12000000000E+03 0.  0.
<mgrwt>
<rscale>  0 0.40626993E+03</rscale>
<asrwt>0</asrwt>
<pdfrwt beam="1">  1        2 0.67221781E-01 0.40626993E+03</pdfrwt>
<pdfrwt beam="2">  1       -2 0.14528897E-01 0.40626993E+03</pdfrwt>
<totfact> 0.26299958E+03</totfact>
</mgrwt>
</event>
<event>
 4    1  0.1749575E-004  0.2773341E+03  0.7818608E-02  0.1097154E+00
         -2   -1    0    0    0  501 -0.00000000000E+00  0.00000000000E+00  0.27843094744E+03  0.27843094744E+03  0.00000000000E+00 0.  1.
          2   -1    0    0  501    0  0.00000000000E+00 -0.00000000000E+00 -0.69060413787E+02  0.69060413787E+02  0.00000000000E+00 0.  1.
         25    1    1    2    0    0 -0.45386663634E+02  0.51096363766E+02  0.88947204606E+02  0.16426318161E+03  0.12000000000E+03 0.  0.
         25    1    1    2    0    0  0.45386663634E+02 -0.51096363766E+02  0.12042332904E+03  0.18322817961E+03  0.12000000000E+03 0.  0.
<mgrwt>
<rscale>  0 0.27733414E+03</rscale>
<asrwt>0</asrwt>
<pdfrwt beam="1">  1        2 0.10624679E-01 0.27733414E+03</pdfrwt>
<pdfrwt beam="2">  1       -2 0.42835530E-01 0.27733414E+03</pdfrwt>
<totfact> 0.30877407E+03</totfact>
</mgrwt>
</event>
<event>
 4    1  0.1749575E-004  0.3161173E+03  0.7818608E-02  0.1077450E+00
          3   -1    0    0  501    0  0.00000000000E+00  0.00000000000E+00  0.42454119952E+02  0.42454119952E+02  0.00000000000E+00 0.  1.
         -3   -1    0    0    0  501 -0.00000000000E+00 -0.00000000000E+00 -0.58845967404E+03  0.58845967404E+03  0.00000000000E+00 0.  1.
         25    1    1    2    0    0 -0.95937985669E+02  0.33834165910E+02 -0.24249282333E+03  0.28905296616E+03  0.12000000000E+03 0.  0.
         25    1    1    2    0    0  0.95937985669E+02 -0.33834165910E+02 -0.30351273075E+03  0.34186082783E+03  0.12000000000E+03 0.  0.
<mgrwt>
<rscale>  0 0.31611730E+03</rscale>
<asrwt>0</asrwt>
<pdfrwt beam="1">  1        3 0.65314031E-02 0.31611730E+03</pdfrwt>
<pdfrwt beam="2">  1       -3 0.90532258E-01 0.31611730E+03</pdfrwt>
<totfact> 0.43193002E+02</totfact>
</mgrwt>
</event>
<event>
 4    1  0.1749575E-004  0.4911774E+03  0.7818608E-02  0.1016108E+00
          1   -1    0    0  501    0  0.00000000000E+00  0.00000000000E+00  0.37704365077E+04  0.37704365077E+04  0.00000000000E+00 0. -1.
         -1   -1    0    0    0  501 -0.00000000000E+00 -0.00000000000E+00 -0.15996504972E+02  0.15996504972E+02  0.00000000000E+00 0. -1.
         25    1    1    2    0    0  0.18282353983E+03 -0.40507948868E+02  0.10742929797E+04  0.10970737199E+04  0.12000000000E+03 0.  0.
         25    1    1    2    0    0 -0.18282353983E+03  0.40507948868E+02  0.26801470229E+04  0.26893592927E+04  0.12000000000E+03 0.  0.
<mgrwt>
<rscale>  0 0.49117739E+03</rscale>
<asrwt>0</asrwt>
<pdfrwt beam="1">  1        1 0.58006645E+00 0.49117739E+03</pdfrwt>
<pdfrwt beam="2">  1       -1 0.24610038E-02 0.49117739E+03</pdfrwt>
<totfact> 0.92753418E+01</totfact>
</mgrwt>
</event>
<event>
 4    1  0.1749575E-004  0.2415697E+03  0.7818608E-02  0.1118752E+00
         -1   -1    0    0    0  501 -0.00000000000E+00  0.00000000000E+00  0.63471191290E+02  0.63471191290E+02  0.00000000000E+00 0. -1.
          1   -1    0    0  501    0  0.00000000000E+00 -0.00000000000E+00 -0.22985195762E+03  0.22985195762E+03  0.00000000000E+00 0. -1.
         25    1    1    2    0    0  0.46349194149E+00 -0.27330225151E+01 -0.66841246214E+02  0.13738790497E+03  0.12000000000E+03 0.  0.
         25    1    1    2    0    0 -0.46349194149E+00  0.27330225151E+01 -0.99539520112E+02  0.15593524393E+03  0.12000000000E+03 0.  0.
<mgrwt>
<rscale>  0 0.24156968E+03</rscale>
<asrwt>0</asrwt>
<pdfrwt beam="1">  1        1 0.35361840E-01 0.24156968E+03</pdfrwt>
<pdfrwt beam="2">  1       -1 0.97647986E-02 0.24156968E+03</pdfrwt>
<totfact> 0.76512450E+03</totfact>
</mgrwt>
</event>
<event>
 4    1  0.1749575E-004  0.2629576E+03  0.7818608E-02  0.1105379E+00
          2   -1    0    0  501    0  0.00000000000E+00  0.00000000000E+00  0.20902501010E+04  0.20902501010E+04  0.00000000000E+00 0.  1.
         -2   -1    0    0    0  501 -0.00000000000E+00 -0.00000000000E+00 -0.82701447993E+01  0.82701447993E+01  0.00000000000E+00 0.  1.
         25    1    1    2    0    0  0.12454434064E+02 -0.48603968306E+02  0.88764640171E+03  0.89712518253E+03  0.12000000000E+03 0.  0.
         25    1    1    2    0    0 -0.12454434064E+02  0.48603968306E+02  0.11943335545E+04  0.12013950633E+04  0.12000000000E+03 0.  0.
<mgrwt>
<rscale>  0 0.26295757E+03</rscale>
<asrwt>0</asrwt>
<pdfrwt beam="1">  1        2 0.32157652E+00 0.26295757E+03</pdfrwt>
<pdfrwt beam="2">  1       -2 0.12723316E-02 0.26295757E+03</pdfrwt>
<totfact> 0.99868432E+03</totfact>
</mgrwt>
</event>
<event>
 4    1  0.1749575E-004  0.2839484E+03  0.7818608E-02  0.1093552E+00
          2   -1    0    0  501    0  0.00000000000E+00  0.00000000000E+00  0.33368566845E+03  0.33368566845E+03  0.00000000000E+00 0. -1.
         -2   -1    0    0    0  501 -0.00000000000E+00 -0.00000000000E+00 -0.60406181690E+02  0.60406181690E+02  0.00000000000E+00 0. -1.
         25    1    1    2    0    0  0.29551414956E+02  0.65014313161E+02  0.17220167159E+03  0.22170602775E+03  0.12000000000E+03 0.  0.
         25    1    1    2    0    0 -0.29551414956E+02 -0.65014313161E+02  0.10107781516E+03  0.17238582239E+03  0.12000000000E+03 0.  0.
<mgrwt>
<rscale>  0 0.28394843E+03</rscale>
<asrwt>0</asrwt>
<pdfrwt beam="1">  1        2 0.51336256E-01 0.28394843E+03</pdfrwt>
<pdfrwt beam="2">  1       -2 0.92932589E-02 0.28394843E+03</pdfrwt>
<totfact> 0.72237526E+03</totfact>
</mgrwt>
</event>
<event>
 4    1  0.1749575E-004  0.3603545E+03  0.7818608E-02  0.1058444E+00
         -2   -1    0    0    0  501 -0.00000000000E+00  0.00000000000E+00  0.26459938902E+02  0.26459938902E+02  0.00000000000E+00 0.  1.
          2   -1    0    0  501    0  0.00000000000E+00 -0.00000000000E+00 -0.12269057062E+04  0.12269057062E+04  0.00000000000E+00 0.  1.
         25    1    1    2    0    0  0.11642522811E+03 -0.31879284888E+02 -0.39466689707E+03  0.42980586570E+03  0.12000000000E+03 0.  0.
         25    1    1    2    0    0 -0.11642522811E+03  0.31879284888E+02 -0.80577887025E+03  0.82355977942E+03  0.12000000000E+03 0.  0.
<mgrwt>
<rscale>  0 0.36035455E+03</rscale>
<asrwt>0</asrwt>
<pdfrwt beam="1">  1        2 0.18875472E+00 0.36035455E+03</pdfrwt>
<pdfrwt beam="2">  1       -2 0.40707598E-02 0.36035455E+03</pdfrwt>
<totfact> 0.51822719E+03</totfact>
</mgrwt>
</event>
<event>
 4    1  0.1749575E-004  0.2490727E+03  0.7818608E-02  0.1113892E+00
         -2   -1    0    0    0  501 -0.00000000000E+00  0.00000000000E+00  0.79636205954E+02  0.79636205954E+02  0.00000000000E+00 0.  1.
          2   -1    0    0  501    0  0.00000000000E+00 -0.00000000000E+00 -0.19475196220E+03  0.19475196220E+03  0.00000000000E+00 0.  1.
         25    1    1    2    0    0  0.25715622237E+02  0.19864792220E+02 -0.65608451003E+02  0.14057159044E+03  0.12000000000E+03 0.  0.
         25    1    1    2    0    0 -0.25715622237E+02 -0.19864792220E+02 -0.49507305241E+02  0.13381657771E+03  0.12000000000E+03 0.  0.
<mgrwt>
<rscale>  0 0.24907274E+03</rscale>
<asrwt>0</asrwt>
<pdfrwt beam="1">  1        2 0.29961840E-01 0.24907274E+03</pdfrwt>
<pdfrwt beam="2">  1       -2 0.12251724E-01 0.24907274E+03</pdfrwt>
<totfact> 0.82715777E+03</totfact>
</mgrwt>
</event>
<event>
 4    1  0.1749575E-004  0.2439648E+03  0.7818608E-02  0.1117179E+00
         -1   -1    0    0    0  501 -0.00000000000E+00  0.00000000000E+00  0.25515105998E+02  0.25515105998E+02  0.00000000000E+00 0. -1.
          1   -1    0    0  501    0  0.00000000000E+00 -0.00000000000E+00 -0.58317233136E+03  0.58317233136E+03  0.00000000000E+00 0. -1.
         25    1    1    2    0    0  0.63325541702E+00 -0.14574900140E+01 -0.33333001293E+03  0.35427591339E+03  0.12000000000E+03 0.  0.
         25    1    1    2    0    0 -0.63325541702E+00  0.14574900140E+01 -0.22432721243E+03  0.25441152396E+03  0.12000000000E+03 0.  0.
<mgrwt>
<rscale>  0 0.24396478E+03</rscale>
<asrwt>0</asrwt>
<pdfrwt beam="1">  1        1 0.89718821E-01 0.24396478E+03</pdfrwt>
<pdfrwt beam="2">  1       -1 0.39254009E-02 0.24396478E+03</pdfrwt>
<totfact> 0.91641709E+03</totfact>
</mgrwt>
</event>
<event>
 4    1  0.1749575E-004  0.2528895E+03  0.7818608E-02  0.1111492E+00
          2   -1    0    0  501    0  0.00000000000E+00  0.00000000000E+00  0.51068553580E+03  0.51068553580E+03  0.00000000000E+00 0. -1.
         -2   -1    0    0    0  501 -0.00000000000E+00 -0.00000000000E+00 -0.31307480341E+02  0.31307480341E+02  0.00000000000E+00 0. -1.
         25    1    1    2    0    0 -0.36649577017E+02 -0.12257359494E+02  0.26056109828E+03  0.28945728579E+03  0.12000000000E+03 0.  0.
         25    1    1    2    0    0  0.36649577017E+02  0.12257359494E+02  0.21881695718E+03  0.25253573035E+03  0.12000000000E+03 0.  0.
<mgrwt>
<rscale>  0 0.25288952E+03</rscale>
<asrwt>0</asrwt>
<pdfrwt beam="1">  1        2 0.78567000E-01 0.25288952E+03</pdfrwt>
<pdfrwt beam="2">  1       -2 0.48165358E-02 0.25288952E+03</pdfrwt>
<totfact> 0.12464034E+04</totfact>
</mgrwt>
</event>
<event>
 4    1  0.1749575E-004  0.2604623E+03  0.7818608E-02  0.1106866E+00
          1   -1    0    0  501    0  0.00000000000E+00  0.00000000000E+00  0.79948168217E+03  0.79948168217E+03  0.00000000000E+00 0.  1.
         -1   -1    0    0    0  501 -0.00000000000E+00 -0.00000000000E+00 -0.21213932854E+02  0.21213932854E+02  0.00000000000E+00 0.  1.
         25    1    1    2    0    0 -0.31404896798E+02  0.37449273235E+02  0.43038987815E+03  0.44947098107E+03  0.12000000000E+03 0.  0.
         25    1    1    2    0    0  0.31404896798E+02 -0.37449273235E+02  0.34787787117E+03  0.37122463396E+03  0.12000000000E+03 0.  0.
<mgrwt>
<rscale>  0 0.26046229E+03</rscale>
<asrwt>0</asrwt>
<pdfrwt beam="1">  1        1 0.12299716E+00 0.26046229E+03</pdfrwt>
<pdfrwt beam="2">  1       -1 0.32636826E-02 0.26046229E+03</pdfrwt>
<totfact> 0.76470035E+03</totfact>
</mgrwt>
</event>
<event>
 4    1  0.1749575E-004  0.3239214E+03  0.7818608E-02  0.1073859E+00
         -4   -1    0    0    0  501 -0.00000000000E+00  0.00000000000E+00  0.62705403239E+02  0.62705403239E+02  0.00000000000E+00 0. -1.
          4   -1    0    0  501    0  0.00000000000E+00 -0.00000000000E+00 -0.41832560082E+03  0.41832560082E+03  0.00000000000E+00 0. -1.
         25    1    1    2    0    0  0.43612464393E+02  0.97839631258E+02 -0.20585444654E+03  0.26124833714E+03  0.12000000000E+03 0.  0.
         25    1    1    2    0    0 -0.43612464393E+02 -0.97839631258E+02 -0.14976575104E+03  0.21978266692E+03  0.12000000000E+03 0.  0.
<mgrwt>
<rscale>  0 0.32392144E+03</rscale>
<asrwt>0</asrwt>
<pdfrwt beam="1">  1        4 0.64357784E-01 0.32392144E+03</pdfrwt>
<pdfrwt beam="2">  1       -4 0.96469852E-02 0.32392144E+03</pdfrwt>
<totfact> 0.35155349E+02</totfact>
</mgrwt>
</event>
<event>
 4    1  0.1749575E-004  0.4198883E+03  0.7818608E-02  0.1037103E+00
         -2   -1    0    0    0  501 -0.00000000000E+00  0.00000000000E+00  0.32145577614E+02  0.32145577614E+02  0.00000000000E+00 0. -1.
          2   -1    0    0  501    0  0.00000000000E+00 -0.00000000000E+00 -0.13711545671E+04  0.13711545671E+04  0.00000000000E+00 0. -1.
         25    1    1    2    0    0 -0.16368161687E+03  0.38595317041E+02 -0.54466607336E+03  0.58253103065E+03  0.12000000000E+03 0.  0.
         25    1    1    2    0    0  0.16368161687E+03 -0.38595317041E+02 -0.79434291609E+03  0.82076911402E+03  0.12000000000E+03 0.  0.
<mgrwt>
<rscale>  0 0.41988834E+03</rscale>
<asrwt>0</asrwt>
<pdfrwt beam="1">  1        2 0.21094687E+00 0.41988834E+03</pdfrwt>
<pdfrwt beam="2">  1       -2 0.49454731E-02 0.41988834E+03</pdfrwt>
<totfact> 0.31947505E+03</totfact>
</mgrwt>
</event>
<event>
 4    1  0.1749575E-004  0.2538237E+03  0.7818608E-02  0.1110912E+00
         -1   -1    0    0    0  501 -0.00000000000E+00  0.00000000000E+00  0.33500774242E+03  0.33500774242E+03  0.00000000000E+00 0. -1.
          1   -1    0    0  501    0  0.00000000000E+00 -0.00000000000E+00 -0.48078329310E+02  0.48078329310E+02  0.00000000000E+00 0. -1.
         25    1    1    2    0    0 -0.25462138998E+01 -0.13460667113E+02  0.20228599605E+03  0.23559986622E+03  0.12000000000E+03 0.  0.
         25    1    1    2    0    0  0.25462138998E+01  0.13460667113E+02  0.84643417058E+02  0.14748620551E+03  0.12000000000E+03 0.  0.
<mgrwt>
<rscale>  0 0.25382366E+03</rscale>
<asrwt>0</asrwt>
<pdfrwt beam="1">  1        1 0.73966662E-02 0.25382366E+03</pdfrwt>
<pdfrwt beam="2">  1       -1 0.51539651E-01 0.25382366E+03</pdfrwt>
<totfact> 0.37296830E+03</totfact>
</mgrwt>
</event>
<event>
 4    1  0.1749575E-004  0.2453201E+03  0.7818608E-02  0.1116299E+00
          2   -1    0    0  501    0  0.00000000000E+00  0.00000000000E+00  0.78648298119E+03  0.78648298119E+03  0.00000000000E+00 0. -1.
         -2   -1    0    0    0  501 -0.00000000000E+00 -0.00000000000E+00 -0.19130089188E+02  0.19130089188E+02  0.00000000000E+00 0. -1.
         25    1    1    2    0    0 -0.24213511553E+02  0.59829685264E+01  0.39956179759E+03  0.41793745962E+03  0.12000000000E+03 0.  0.
         25    1    1    2    0    0  0.24213511553E+02 -0.59829685264E+01  0.36779109441E+03  0.38767561076E+03  0.12000000000E+03 0.  0.
<mgrwt>
<rscale>  0 0.24532011E+03</rscale>
<asrwt>0</asrwt>
<pdfrwt beam="1">  1        2 0.12099736E+00 0.24532011E+03</pdfrwt>
<pdfrwt beam="2">  1       -2 0.29430913E-02 0.24532011E+03</pdfrwt>
<totfact> 0.15643439E+04</totfact>
</mgrwt>
</event>
<event>
 4    1  0.1749575E-004  0.2474082E+03  0.7818608E-02  0.1114954E+00
          2   -1    0    0  501    0  0.00000000000E+00  0.00000000000E+00  0.15591066997E+02  0.15591066997E+02  0.00000000000E+00 0.  1.
         -2   -1    0    0    0  501 -0.00000000000E+00 -0.00000000000E+00 -0.98150436572E+03  0.98150436572E+03  0.00000000000E+00 0.  1.
         25    1    1    2    0    0  0.10716114155E+02 -0.18403594822E+02 -0.56837073120E+03  0.58129064631E+03  0.12000000000E+03 0.  0.
         25    1    1    2    0    0 -0.10716114155E+02  0.18403594822E+02 -0.39754256752E+03  0.41580478641E+03  0.12000000000E+03 0.  0.
<mgrwt>
<rscale>  0 0.24740817E+03</rscale>
<asrwt>0</asrwt>
<pdfrwt beam="1">  1        2 0.23986248E-02 0.24740817E+03</pdfrwt>
<pdfrwt beam="2">  1       -2 0.15100073E+00 0.24740817E+03</pdfrwt>
<totfact> 0.13222379E+03</totfact>
</mgrwt>
</event>
<event>
 4    1  0.1749575E-004  0.2762026E+03  0.7818608E-02  0.1097781E+00
          2   -1    0    0  501    0  0.00000000000E+00  0.00000000000E+00  0.12891796858E+03  0.12891796858E+03  0.00000000000E+00 0.  1.
         -2   -1    0    0    0  501 -0.00000000000E+00 -0.00000000000E+00 -0.14793878761E+03  0.14793878761E+03  0.00000000000E+00 0.  1.
         25    1    1    2    0    0 -0.40039351356E+02  0.32231562065E+02  0.35651207342E+02  0.13532565106E+03  0.12000000000E+03 0.  0.
         25    1    1    2    0    0  0.40039351356E+02 -0.32231562065E+02 -0.54672026369E+02  0.14153110512E+03  0.12000000000E+03 0.  0.
<mgrwt>
<rscale>  0 0.27620259E+03</rscale>
<asrwt>0</asrwt>
<pdfrwt beam="1">  1        2 0.19833534E-01 0.27620259E+03</pdfrwt>
<pdfrwt beam="2">  1       -2 0.22759813E-01 0.27620259E+03</pdfrwt>
<totfact> 0.46760536E+03</totfact>
</mgrwt>
</event>
<event>
 4    1  0.1749575E-004  0.2838580E+03  0.7818608E-02  0.1093600E+00
         -2   -1    0    0    0  501 -0.00000000000E+00  0.00000000000E+00  0.86183143334E+01  0.86183143334E+01  0.00000000000E+00 0. -1.
          2   -1    0    0  501    0  0.00000000000E+00 -0.00000000000E+00 -0.23373301759E+04  0.23373301759E+04  0.00000000000E+00 0. -1.
         25    1    1    2    0    0  0.37703509351E+02  0.61405311611E+02 -0.13584716035E+04  0.13656636718E+04  0.12000000000E+03 0.  0.
         25    1    1    2    0    0 -0.37703509351E+02 -0.61405311611E+02 -0.97024025806E+03  0.98028481844E+03  0.12000000000E+03 0.  0.
<mgrwt>
<rscale>  0 0.28385804E+03</rscale>
<asrwt>0</asrwt>
<pdfrwt beam="1">  1        2 0.35958921E+00 0.28385804E+03</pdfrwt>
<pdfrwt beam="2">  1       -2 0.13258947E-02 0.28385804E+03</pdfrwt>
<totfact> 0.69477189E+03</totfact>
</mgrwt>
</event>
<event>
 4    1  0.1749575E-004  0.2930934E+03  0.7818608E-02  0.1088745E+00
          2   -1    0    0  501    0  0.00000000000E+00  0.00000000000E+00  0.24420331002E+03  0.24420331002E+03  0.00000000000E+00 0.  1.
         -2   -1    0    0    0  501 -0.00000000000E+00 -0.00000000000E+00 -0.87942827353E+02  0.87942827353E+02  0.00000000000E+00 0.  1.
         25    1    1    2    0    0 -0.35721758659E+02  0.55013895151E+02  0.18450614203E+02  0.13799636903E+03  0.12000000000E+03 0.  0.
         25    1    1    2    0    0  0.35721758659E+02 -0.55013895151E+02  0.13780986847E+03  0.19414976834E+03  0.12000000000E+03 0.  0.
<mgrwt>
<rscale>  0 0.29309336E+03</rscale>
<asrwt>0</asrwt>
<pdfrwt beam="1">  1        2 0.37569740E-01 0.29309336E+03</pdfrwt>
<pdfrwt beam="2">  1       -2 0.13529666E-01 0.29309336E+03</pdfrwt>
<totfact> 0.55364329E+03</totfact>
</mgrwt>
</event>
<event>
 4    1  0.1749575E-004  0.3029635E+03  0.7818608E-02  0.1083769E+00
         -2   -1    0    0    0  501 -0.00000000000E+00  0.00000000000E+00  0.11479301424E+02  0.11479301424E+02  0.00000000000E+00 0.  1.
          2   -1    0    0  501    0  0.00000000000E+00 -0.00000000000E+00 -0.19989642735E+04  0.19989642735E+04  0.00000000000E+00 0.  1.
         25    1    1    2    0    0  0.19286670903E+02  0.54038132919E+02 -0.51271242299E+03  0.52968492915E+03  0.12000000000E+03 0.  0.
         25    1    1    2    0    0 -0.19286670903E+02 -0.54038132919E+02 -0.14747725490E+04  0.14807586457E+04  0.12000000000E+03 0.  0.
<mgrwt>
<rscale>  0 0.30296345E+03</rscale>
<asrwt>0</asrwt>
<pdfrwt beam="1">  1        2 0.30753313E+00 0.30296345E+03</pdfrwt>
<pdfrwt beam="2">  1       -2 0.17660454E-02 0.30296345E+03</pdfrwt>
<totfact> 0.69106516E+03</totfact>
</mgrwt>
</event>
<event>
 4    1  0.1749575E-004  0.3103751E+03  0.7818608E-02  0.1080166E+00
         -2   -1    0    0    0  501 -0.00000000000E+00  0.00000000000E+00  0.11461825805E+02  0.11461825805E+02  0.00000000000E+00 0. -1.
          2   -1    0    0  501    0  0.00000000000E+00 -0.00000000000E+00 -0.21011639418E+04  0.21011639418E+04  0.00000000000E+00 0. -1.
         25    1    1    2    0    0  0.50285014785E+02 -0.82097416643E+02 -0.90625407098E+03  0.91921978313E+03  0.12000000000E+03 0.  0.
         25    1    1    2    0    0 -0.50285014785E+02  0.82097416643E+02 -0.11834480450E+04  0.11934059845E+04  0.12000000000E+03 0.  0.
<mgrwt>
<rscale>  0 0.31037510E+03</rscale>
<asrwt>0</asrwt>
<pdfrwt beam="1">  1        2 0.32325570E+00 0.31037510E+03</pdfrwt>
<pdfrwt beam="2">  1       -2 0.17633594E-02 0.31037510E+03</pdfrwt>
<totfact> 0.61149004E+03</totfact>
</mgrwt>
</event>
<event>
 4    1  0.1749575E-004  0.2678736E+03  0.7818608E-02  0.1102503E+00
         -1   -1    0    0    0  501 -0.00000000000E+00  0.00000000000E+00  0.59732470799E+02  0.59732470799E+02  0.00000000000E+00 0.  1.
          1   -1    0    0  501    0  0.00000000000E+00 -0.00000000000E+00 -0.30032345112E+03  0.30032345112E+03  0.00000000000E+00 0.  1.
         25    1    1    2    0    0 -0.18022535428E+01 -0.58485913976E+02 -0.10586809062E+03  0.17038750794E+03  0.12000000000E+03 0.  0.
         25    1    1    2    0    0  0.18022535428E+01  0.58485913976E+02 -0.13472288970E+03  0.18966841398E+03  0.12000000000E+03 0.  0.
<mgrwt>
<rscale>  0 0.26787357E+03</rscale>
<asrwt>0</asrwt>
<pdfrwt beam="1">  1        1 0.46203608E-01 0.26787357E+03</pdfrwt>
<pdfrwt beam="2">  1       -1 0.91896109E-02 0.26787357E+03</pdfrwt>
<totfact> 0.60324740E+03</totfact>
</mgrwt>
</event>
<event>
 4    1  0.1749575E-004  0.2486821E+03  0.7818608E-02  0.1114141E+00
          1   -1    0    0  501    0  0.00000000000E+00  0.00000000000E+00  0.20659861083E+04  0.20659861083E+04  0.00000000000E+00 0.  1.
         -1   -1    0    0    0  501 -0.00000000000E+00 -0.00000000000E+00 -0.74834447240E+01  0.74834447240E+01  0.00000000000E+00 0.  1.
         25    1    1    2    0    0 -0.15180163173E+02 -0.26691754412E+02  0.93875386844E+03  0.94689054944E+03  0.12000000000E+03 0.  0.
         25    1    1    2    0    0  0.15180163173E+02  0.26691754412E+02  0.11197487951E+04  0.11265790035E+04  0.12000000000E+03 0.  0.
<mgrwt>
<rscale>  0 0.24868207E+03</rscale>
<asrwt>0</asrwt>
<pdfrwt beam="1">  1        1 0.31784356E+00 0.24868207E+03</pdfrwt>
<pdfrwt beam="2">  1       -1 0.11513008E-02 0.24868207E+03</pdfrwt>
<totfact> 0.46842999E+03</totfact>
</mgrwt>
</event>
<event>
 4    1  0.1749575E-004  0.2495125E+03  0.7818608E-02  0.1113613E+00
          2   -1    0    0  501    0  0.00000000000E+00  0.00000000000E+00  0.27494328137E+04  0.27494328137E+04  0.00000000000E+00 0.  1.
         -2   -1    0    0    0  501 -0.00000000000E+00 -0.00000000000E+00 -0.56608504003E+01  0.56608504003E+01  0.00000000000E+00 0.  1.
         25    1    1    2    0    0 -0.12324489565E+02 -0.15322937166E+02  0.16797635786E+04  0.16841592458E+04  0.12000000000E+03 0.  0.
         25    1    1    2    0    0  0.12324489565E+02  0.15322937166E+02  0.10640083847E+04  0.10709344183E+04  0.12000000000E+03 0.  0.
<mgrwt>
<rscale>  0 0.24951255E+03</rscale>
<asrwt>0</asrwt>
<pdfrwt beam="1">  1        2 0.42298860E+00 0.24951255E+03</pdfrwt>
<pdfrwt beam="2">  1       -2 0.87090226E-03 0.24951255E+03</pdfrwt>
<totfact> 0.75894588E+03</totfact>
</mgrwt>
</event>
<event>
 4    1  0.1749575E-004  0.2928785E+03  0.7818608E-02  0.1088856E+00
          2   -1    0    0  501    0  0.00000000000E+00  0.00000000000E+00  0.35511971667E+03  0.35511971667E+03  0.00000000000E+00 0. -1.
         -2   -1    0    0    0  501 -0.00000000000E+00 -0.00000000000E+00 -0.60386528652E+02  0.60386528652E+02  0.00000000000E+00 0. -1.
         25    1    1    2    0    0  0.27316244488E+02  0.78674306825E+02  0.13258057065E+03  0.19726487645E+03  0.12000000000E+03 0.  0.
         25    1    1    2    0    0 -0.27316244488E+02 -0.78674306825E+02  0.16215261736E+03  0.21824136887E+03  0.12000000000E+03 0.  0.
<mgrwt>
<rscale>  0 0.29287845E+03</rscale>
<asrwt>0</asrwt>
<pdfrwt beam="1">  1        2 0.54633801E-01 0.29287845E+03</pdfrwt>
<pdfrwt beam="2">  1       -2 0.92902354E-02 0.29287845E+03</pdfrwt>
<totfact> 0.67641825E+03</totfact>
</mgrwt>
</event>
<event>
 4    1  0.1749575E-004  0.2751106E+03  0.7818608E-02  0.1098390E+00
         -1   -1    0    0    0  501 -0.00000000000E+00  0.00000000000E+00  0.78971828165E+01  0.78971828165E+01  0.00000000000E+00 0.  1.
          1   -1    0    0  501    0  0.00000000000E+00 -0.00000000000E+00 -0.23959759240E+04  0.23959759240E+04  0.00000000000E+00 0.  1.
         25    1    1    2    0    0 -0.43080912126E+02 -0.45122917714E+02 -0.14132560156E+04  0.14197128612E+04  0.12000000000E+03 0.  0.
         25    1    1    2    0    0  0.43080912126E+02  0.45122917714E+02 -0.97482272561E+03  0.98416024562E+03  0.12000000000E+03 0.  0.
<mgrwt>
<rscale>  0 0.27511060E+03</rscale>
<asrwt>0</asrwt>
<pdfrwt beam="1">  1        1 0.36861150E+00 0.27511060E+03</pdfrwt>
<pdfrwt beam="2">  1       -1 0.12149518E-02 0.27511060E+03</pdfrwt>
<totfact> 0.26359073E+03</totfact>
</mgrwt>
</event>
<event>
 4    1  0.1749575E-004  0.2556510E+03  0.7818608E-02  0.1109785E+00
          1   -1    0    0  501    0  0.00000000000E+00  0.00000000000E+00  0.17089300467E+03  0.17089300467E+03  0.00000000000E+00 0.  1.
         -1   -1    0    0    0  501 -0.00000000000E+00 -0.00000000000E+00 -0.95611664545E+02  0.95611664545E+02  0.00000000000E+00 0.  1.
         25    1    1    2    0    0  0.39091422133E+02  0.19985277924E+02  0.41223746332E+02  0.13426446991E+03  0.12000000000E+03 0.  0.
         25    1    1    2    0    0 -0.39091422133E+02 -0.19985277924E+02  0.34057593795E+02  0.13224019931E+03  0.12000000000E+03 0.  0.
<mgrwt>
<rscale>  0 0.25565105E+03</rscale>
<asrwt>0</asrwt>
<pdfrwt beam="1">  1        1 0.26291231E-01 0.25565105E+03</pdfrwt>
<pdfrwt beam="2">  1       -1 0.14709487E-01 0.25565105E+03</pdfrwt>
<totfact> 0.58785028E+03</totfact>
</mgrwt>
</event>
<event>
 4    1  0.1749575E-004  0.2500565E+03  0.7818608E-02  0.1113269E+00
         -2   -1    0    0    0  501 -0.00000000000E+00  0.00000000000E+00  0.15568785428E+02  0.15568785428E+02  0.00000000000E+00 0.  1.
          2   -1    0    0  501    0  0.00000000000E+00 -0.00000000000E+00 -0.10040645272E+04  0.10040645272E+04  0.00000000000E+00 0.  1.
         25    1    1    2    0    0  0.12187921275E+01 -0.27565443752E+02 -0.58271663322E+03  0.59558375882E+03  0.12000000000E+03 0.  0.
         25    1    1    2    0    0 -0.12187921275E+01  0.27565443752E+02 -0.40577910854E+03  0.42404955379E+03  0.12000000000E+03 0.  0.
<mgrwt>
<rscale>  0 0.25005652E+03</rscale>
<asrwt>0</asrwt>
<pdfrwt beam="1">  1        2 0.15447149E+00 0.25005652E+03</pdfrwt>
<pdfrwt beam="2">  1       -2 0.23951973E-02 0.25005652E+03</pdfrwt>
<totfact> 0.15348574E+04</totfact>
</mgrwt>
</event>
<event>
 4    1  0.1749575E-004  0.2542679E+03  0.7818608E-02  0.1110637E+00
         -2   -1    0    0    0  501 -0.00000000000E+00  0.00000000000E+00  0.58803444521E+01  0.58803444521E+01  0.00000000000E+00 0. -1.
          2   -1    0    0  501    0  0.00000000000E+00 -0.00000000000E+00 -0.27486551708E+04  0.27486551708E+04  0.00000000000E+00 0. -1.
         25    1    1    2    0    0 -0.32099834153E+02  0.96933984664E+01 -0.16451649411E+04  0.16498763726E+04  0.12000000000E+03 0.  0.
         25    1    1    2    0    0  0.32099834153E+02 -0.96933984664E+01 -0.10976098853E+04  0.11046591427E+04  0.12000000000E+03 0.  0.
<mgrwt>
<rscale>  0 0.25426788E+03</rscale>
<asrwt>0</asrwt>
<pdfrwt beam="1">  1        2 0.42287123E+00 0.25426788E+03</pdfrwt>
<pdfrwt beam="2">  1       -2 0.90466580E-03 0.25426788E+03</pdfrwt>
<totfact> 0.71896540E+03</totfact>
</mgrwt>
</event>
<event>
 4    1  0.1749575E-004  0.2598569E+03  0.7818608E-02  0.1107229E+00
          2   -1    0    0  501    0  0.00000000000E+00  0.00000000000E+00  0.45356852803E+02  0.45356852803E+02  0.00000000000E+00 0. -1.
         -2   -1    0    0    0  501 -0.00000000000E+00 -0.00000000000E+00 -0.37219079092E+03  0.37219079092E+03  0.00000000000E+00 0. -1.
         25    1    1    2    0    0 -0.67809166198E+01  0.44577951737E+02 -0.19743595893E+03  0.23540206560E+03  0.12000000000E+03 0.  0.
         25    1    1    2    0    0  0.67809166198E+01 -0.44577951737E+02 -0.12939797919E+03  0.18214557812E+03  0.12000000000E+03 0.  0.
<mgrwt>
<rscale>  0 0.25985691E+03</rscale>
<asrwt>0</asrwt>
<pdfrwt beam="1">  1        2 0.69779772E-02 0.25985691E+03</pdfrwt>
<pdfrwt beam="2">  1       -2 0.57260123E-01 0.25985691E+03</pdfrwt>
<totfact> 0.29375928E+03</totfact>
</mgrwt>
</event>
<event>
 4    1  0.1749575E-004  0.2670589E+03  0.7818608E-02  0.1102975E+00
         -2   -1    0    0    0  501 -0.00000000000E+00  0.00000000000E+00  0.63221464759E+02  0.63221464759E+02  0.00000000000E+00 0.  1.
          2   -1    0    0  501    0  0.00000000000E+00 -0.00000000000E+00 -0.28202622140E+03  0.28202622140E+03  0.00000000000E+00 0.  1.
         25    1    1    2    0    0 -0.30910580861E+02 -0.41752036104E+02 -0.74439636748E+02  0.15046579693E+03  0.12000000000E+03 0.  0.
         25    1    1    2    0    0  0.30910580861E+02  0.41752036104E+02 -0.14436511989E+03  0.19478188922E+03  0.12000000000E+03 0.  0.
<mgrwt>
<rscale>  0 0.26705888E+03</rscale>
<asrwt>0</asrwt>
<pdfrwt beam="1">  1        2 0.43388650E-01 0.26705888E+03</pdfrwt>
<pdfrwt beam="2">  1       -2 0.97263790E-02 0.26705888E+03</pdfrwt>
<totfact> 0.80358599E+03</totfact>
</mgrwt>
</event>
<event>
 4    1  0.1749575E-004  0.3091029E+03  0.7818608E-02  0.1080777E+00
         -2   -1    0    0    0  501 -0.00000000000E+00  0.00000000000E+00  0.42312957037E+02  0.42312957037E+02  0.00000000000E+00 0. -1.
          2   -1    0    0  501    0  0.00000000000E+00 -0.00000000000E+00 -0.56451158434E+03  0.56451158434E+03  0.00000000000E+00 0. -1.
         25    1    1    2    0    0 -0.10336863570E+02 -0.12327380271E+02 -0.44968045921E+03  0.46569446040E+03  0.12000000000E+03 0.  0.
         25    1    1    2    0    0  0.10336863570E+02  0.12327380271E+02 -0.72518168092E+02  0.14113008098E+03  0.12000000000E+03 0.  0.
<mgrwt>
<rscale>  0 0.30910292E+03</rscale>
<asrwt>0</asrwt>
<pdfrwt beam="1">  1        2 0.86847933E-01 0.30910292E+03</pdfrwt>
<pdfrwt beam="2">  1       -2 0.65096859E-02 0.30910292E+03</pdfrwt>
<totfact> 0.70691588E+03</totfact>
</mgrwt>
</event>
<event>
 4    1  0.1749575E-004  0.2487707E+03  0.7818608E-02  0.1114084E+00
         -4   -1    0    0    0  501 -0.00000000000E+00  0.00000000000E+00  0.45585891620E+03  0.45585891620E+03  0.00000000000E+00 0.  1.
          4   -1    0    0  501    0  0.00000000000E+00 -0.00000000000E+00 -0.33939697376E+02  0.33939697376E+02  0.00000000000E+00 0.  1.
         25    1    1    2    0    0  0.15183242926E+02 -0.28138882119E+02  0.22479593437E+03  0.25681810618E+03  0.12000000000E+03 0.  0.
         25    1    1    2    0    0 -0.15183242926E+02  0.28138882119E+02  0.19712328446E+03  0.23298050740E+03  0.12000000000E+03 0.  0.
<mgrwt>
<rscale>  0 0.24877069E+03</rscale>
<asrwt>0</asrwt>
<pdfrwt beam="1">  1        4 0.52214922E-02 0.24877069E+03</pdfrwt>
<pdfrwt beam="2">  1       -4 0.70132136E-01 0.24877069E+03</pdfrwt>
<totfact> 0.78123649E+02</totfact>
</mgrwt>
</event>
<event>
 4    1  0.1749575E-004  0.2566611E+03  0.7818608E-02  0.1109166E+00
          2   -1    0    0  501    0  0.00000000000E+00  0.00000000000E+00  0.81586384755E+03  0.81586384755E+03  0.00000000000E+00 0. -1.
         -2   -1    0    0    0  501 -0.00000000000E+00 -0.00000000000E+00 -0.20185631222E+02  0.20185631222E+02  0.00000000000E+00 0. -1.
         25    1    1    2    0    0 -0.46743858547E+01  0.27832988291E+02  0.28165413894E+03  0.30745012458E+03  0.12000000000E+03 0.  0.
         25    1    1    2    0    0  0.46743858547E+01 -0.27832988291E+02  0.51402407739E+03  0.52859935419E+03  0.12000000000E+03 0.  0.
<mgrwt>
<rscale>  0 0.25666107E+03</rscale>
<asrwt>0</asrwt>
<pdfrwt beam="1">  1        2 0.12551749E+00 0.25666107E+03</pdfrwt>
<pdfrwt beam="2">  1       -2 0.31054824E-02 0.25666107E+03</pdfrwt>
<totfact> 0.13813212E+04</totfact>
</mgrwt>
</event>
<event>
 4    1  0.1749575E-004  0.3015933E+03  0.7818608E-02  0.1084447E+00
         -2   -1    0    0    0  501 -0.00000000000E+00  0.00000000000E+00  0.14169579678E+03  0.14169579678E+03  0.00000000000E+00 0. -1.
          2   -1    0    0  501    0  0.00000000000E+00 -0.00000000000E+00 -0.16048201839E+03  0.16048201839E+03  0.00000000000E+00 0. -1.
         25    1    1    2    0    0  0.31713930586E+02  0.85635398109E+02 -0.87340660421E+01  0.15104793515E+03  0.12000000000E+03 0.  0.
         25    1    1    2    0    0 -0.31713930586E+02 -0.85635398109E+02 -0.10052155567E+02  0.15112988002E+03  0.12000000000E+03 0.  0.
<mgrwt>
<rscale>  0 0.30159329E+03</rscale>
<asrwt>0</asrwt>
<pdfrwt beam="1">  1        2 0.24689541E-01 0.30159329E+03</pdfrwt>
<pdfrwt beam="2">  1       -2 0.21799353E-01 0.30159329E+03</pdfrwt>
<totfact> 0.39418384E+03</totfact>
</mgrwt>
</event>
<event>
 4    1  0.1749575E-004  0.2664663E+03  0.7818608E-02  0.1103319E+00
          1   -1    0    0  501    0  0.00000000000E+00  0.00000000000E+00  0.86049733142E+03  0.86049733142E+03  0.00000000000E+00 0.  1.
         -1   -1    0    0    0  501 -0.00000000000E+00 -0.00000000000E+00 -0.20628858920E+02  0.20628858920E+02  0.00000000000E+00 0.  1.
         25    1    1    2    0    0 -0.89235242307E+01  0.26517548525E+01  0.23100526456E+03  0.26048050473E+03  0.12000000000E+03 0.  0.
         25    1    1    2    0    0  0.89235242307E+01 -0.26517548525E+01  0.60886320793E+03  0.62064568561E+03  0.12000000000E+03 0.  0.
<mgrwt>
<rscale>  0 0.26646634E+03</rscale>
<asrwt>0</asrwt>
<pdfrwt beam="1">  1        1 0.13238418E+00 0.26646634E+03</pdfrwt>
<pdfrwt beam="2">  1       -1 0.31736713E-02 0.26646634E+03</pdfrwt>
<totfact> 0.71085273E+03</totfact>
</mgrwt>
</event>
<event>
 4    1  0.1749575E-004  0.3152866E+03  0.7818608E-02  0.1077839E+00
          2   -1    0    0  501    0  0.00000000000E+00  0.00000000000E+00  0.14020909438E+03  0.14020909438E+03  0.00000000000E+00 0.  1.
         -2   -1    0    0    0  501 -0.00000000000E+00 -0.00000000000E+00 -0.17724536674E+03  0.17724536674E+03  0.00000000000E+00 0.  1.
         25    1    1    2    0    0 -0.48665202838E+02  0.87122664701E+02 -0.40868775930E+02  0.16133479946E+03  0.12000000000E+03 0.  0.
         25    1    1    2    0    0  0.48665202838E+02 -0.87122664701E+02  0.38325035633E+01  0.15611966166E+03  0.12000000000E+03 0.  0.
<mgrwt>
<rscale>  0 0.31528661E+03</rscale>
<asrwt>0</asrwt>
<pdfrwt beam="1">  1        2 0.21570630E-01 0.31528661E+03</pdfrwt>
<pdfrwt beam="2">  1       -2 0.27268518E-01 0.31528661E+03</pdfrwt>
<totfact> 0.30983011E+03</totfact>
</mgrwt>
</event>
<event>
 4    1  0.1749575E-004  0.5389956E+03  0.7818608E-02  0.1004074E+00
          1   -1    0    0  501    0  0.00000000000E+00  0.00000000000E+00  0.76913297814E+03  0.76913297814E+03  0.00000000000E+00 0. -1.
         -1   -1    0    0    0  501 -0.00000000000E+00 -0.00000000000E+00 -0.94429772986E+02  0.94429772986E+02  0.00000000000E+00 0. -1.
         25    1    1    2    0    0  0.23246732578E+03 -0.64258256439E+02  0.34964469262E+03  0.44138598998E+03  0.12000000000E+03 0.  0.
         25    1    1    2    0    0 -0.23246732578E+03  0.64258256439E+02  0.32505851253E+03  0.42217676114E+03  0.12000000000E+03 0.  0.
<mgrwt>
<rscale>  0 0.53899556E+03</rscale>
<asrwt>0</asrwt>
<pdfrwt beam="1">  1        1 0.11832815E+00 0.53899556E+03</pdfrwt>
<pdfrwt beam="2">  1       -1 0.14527658E-01 0.53899556E+03</pdfrwt>
<totfact> 0.82380261E+02</totfact>
</mgrwt>
</event>
<event>
 4    1  0.1749575E-004  0.2830642E+03  0.7818608E-02  0.1094027E+00
          1   -1    0    0  501    0  0.00000000000E+00  0.00000000000E+00  0.13254649165E+04  0.13254649165E+04  0.00000000000E+00 0. -1.
         -1   -1    0    0    0  501 -0.00000000000E+00 -0.00000000000E+00 -0.15112688710E+02  0.15112688710E+02  0.00000000000E+00 0. -1.
         25    1    1    2    0    0  0.67353528318E+02  0.28117799042E+02  0.57257076006E+03  0.58954591312E+03  0.12000000000E+03 0.  0.
         25    1    1    2    0    0 -0.67353528318E+02 -0.28117799042E+02  0.73778146773E+03  0.75103169210E+03  0.12000000000E+03 0.  0.
<mgrwt>
<rscale>  0 0.28306422E+03</rscale>
<asrwt>0</asrwt>
<pdfrwt beam="1">  1        1 0.20391759E+00 0.28306422E+03</pdfrwt>
<pdfrwt beam="2">  1       -1 0.23250301E-02 0.28306422E+03</pdfrwt>
<totfact> 0.51557762E+03</totfact>
</mgrwt>
</event>
<event>
 4    1  0.1749575E-004  0.2427697E+03  0.7818608E-02  0.1117961E+00
         -1   -1    0    0    0  501 -0.00000000000E+00  0.00000000000E+00  0.17604271187E+03  0.17604271187E+03  0.00000000000E+00 0.  1.
          1   -1    0    0  501    0  0.00000000000E+00 -0.00000000000E+00 -0.83697204371E+02  0.83697204371E+02  0.00000000000E+00 0.  1.
         25    1    1    2    0    0  0.62742360664E+01  0.16607387987E+02  0.50850009581E+02  0.13153286604E+03  0.12000000000E+03 0.  0.
         25    1    1    2    0    0 -0.62742360664E+01 -0.16607387987E+02  0.41495497916E+02  0.12820705020E+03  0.12000000000E+03 0.  0.
<mgrwt>
<rscale>  0 0.24276971E+03</rscale>
<asrwt>0</asrwt>
<pdfrwt beam="1">  1        1 0.12876493E-01 0.24276971E+03</pdfrwt>
<pdfrwt beam="2">  1       -1 0.27083494E-01 0.24276971E+03</pdfrwt>
<totfact> 0.54788878E+03</totfact>
</mgrwt>
</event>
<event>
 4    1  0.1749575E-004  0.2673953E+03  0.7818608E-02  0.1102780E+00
          2   -1    0    0  501    0  0.00000000000E+00  0.00000000000E+00  0.67260418193E+03  0.67260418193E+03  0.00000000000E+00 0.  1.
         -2   -1    0    0    0  501 -0.00000000000E+00 -0.00000000000E+00 -0.26575892382E+02  0.26575892382E+02  0.00000000000E+00 0.  1.
         25    1    1    2    0    0 -0.28892966245E+02  0.50037854263E+02  0.35355966763E+03  0.37781348432E+03  0.12000000000E+03 0.  0.
         25    1    1    2    0    0  0.28892966245E+02 -0.50037854263E+02  0.29246862192E+03  0.32136658999E+03  0.12000000000E+03 0.  0.
<mgrwt>
<rscale>  0 0.26739526E+03</rscale>
<asrwt>0</asrwt>
<pdfrwt beam="1">  1        2 0.10347755E+00 0.26739526E+03</pdfrwt>
<pdfrwt beam="2">  1       -2 0.40885993E-02 0.26739526E+03</pdfrwt>
<totfact> 0.11640584E+04</totfact>
</mgrwt>
</event>
<event>
 4    1  0.1749575E-004  0.2486018E+03  0.7818608E-02  0.1114192E+00
         -2   -1    0    0    0  501 -0.00000000000E+00  0.00000000000E+00  0.11878987996E+02  0.11878987996E+02  0.00000000000E+00 0.  1.
          2   -1    0    0  501    0  0.00000000000E+00 -0.00000000000E+00 -0.13006757612E+04  0.13006757612E+04  0.00000000000E+00 0.  1.
         25    1    1    2    0    0  0.22684246774E+01 -0.29905328529E+02 -0.70932798043E+03  0.72003170641E+03  0.12000000000E+03 0.  0.
         25    1    1    2    0    0 -0.22684246774E+01  0.29905328529E+02 -0.57946879276E+03  0.59252304276E+03  0.12000000000E+03 0.  0.
<mgrwt>
<rscale>  0 0.24860178E+03</rscale>
<asrwt>0</asrwt>
<pdfrwt beam="1">  1        2 0.20010391E+00 0.24860178E+03</pdfrwt>
<pdfrwt beam="2">  1       -2 0.18275371E-02 0.24860178E+03</pdfrwt>
<totfact> 0.15403284E+04</totfact>
</mgrwt>
</event>
<event>
 4    1  0.1749575E-004  0.2700679E+03  0.7818608E-02  0.1101241E+00
         -1   -1    0    0    0  501 -0.00000000000E+00  0.00000000000E+00  0.14792608086E+03  0.14792608086E+03  0.00000000000E+00 0.  1.
          1   -1    0    0  501    0  0.00000000000E+00 -0.00000000000E+00 -0.12326542682E+03  0.12326542682E+03  0.00000000000E+00 0.  1.
         25    1    1    2    0    0  0.55689911061E+02 -0.25507763172E+02  0.21432215090E+02  0.13642342915E+03  0.12000000000E+03 0.  0.
         25    1    1    2    0    0 -0.55689911061E+02  0.25507763172E+02  0.32284389497E+01  0.13476807854E+03  0.12000000000E+03 0.  0.
<mgrwt>
<rscale>  0 0.27006793E+03</rscale>
<asrwt>0</asrwt>
<pdfrwt beam="1">  1        1 0.18963912E-01 0.27006793E+03</pdfrwt>
<pdfrwt beam="2">  1       -1 0.22757859E-01 0.27006793E+03</pdfrwt>
<totfact> 0.44267503E+03</totfact>
</mgrwt>
</event>
<event>
 4    1  0.1749575E-004  0.2418143E+03  0.7818608E-02  0.1118590E+00
         -1   -1    0    0    0  501 -0.00000000000E+00  0.00000000000E+00  0.56299188146E+01  0.56299188146E+01  0.00000000000E+00 0.  1.
          1   -1    0    0  501    0  0.00000000000E+00 -0.00000000000E+00 -0.25965809252E+04  0.25965809252E+04  0.00000000000E+00 0.  1.
         25    1    1    2    0    0  0.44584272086E+01  0.51560199417E+01 -0.14366391186E+04  0.14416582185E+04  0.12000000000E+03 0.  0.
         25    1    1    2    0    0 -0.44584272086E+01 -0.51560199417E+01 -0.11543118878E+04  0.11605526255E+04  0.12000000000E+03 0.  0.
<mgrwt>
<rscale>  0 0.24181431E+03</rscale>
<asrwt>0</asrwt>
<pdfrwt beam="1">  1        1 0.39947487E+00 0.24181431E+03</pdfrwt>
<pdfrwt beam="2">  1       -1 0.86613944E-03 0.24181431E+03</pdfrwt>
<totfact> 0.31681879E+03</totfact>
</mgrwt>
</event>
<event>
 4    1  0.1749575E-004  0.2550072E+03  0.7818608E-02  0.1110181E+00
          1   -1    0    0  501    0  0.00000000000E+00  0.00000000000E+00  0.91117820586E+02  0.91117820586E+02  0.00000000000E+00 0. -1.
         -1   -1    0    0    0  501 -0.00000000000E+00 -0.00000000000E+00 -0.17841919340E+03  0.17841919340E+03  0.00000000000E+00 0. -1.
         25    1    1    2    0    0  0.42521754857E+02 -0.43688071040E+00 -0.36261090421E+02  0.13237506253E+03  0.12000000000E+03 0.  0.
         25    1    1    2    0    0 -0.42521754857E+02  0.43688071040E+00 -0.51040282391E+02  0.13716195146E+03  0.12000000000E+03 0.  0.
<mgrwt>
<rscale>  0 0.25500720E+03</rscale>
<asrwt>0</asrwt>
<pdfrwt beam="1">  1        1 0.14018126E-01 0.25500720E+03</pdfrwt>
<pdfrwt beam="2">  1       -1 0.27449107E-01 0.25500720E+03</pdfrwt>
<totfact> 0.47983978E+03</totfact>
</mgrwt>
</event>
<event>
 4    1  0.1749575E-004  0.3776953E+03  0.7818608E-02  0.1051789E+00
          2   -1    0    0  501    0  0.00000000000E+00  0.00000000000E+00  0.90700127199E+03  0.90700127199E+03  0.00000000000E+00 0. -1.
         -2   -1    0    0    0  501 -0.00000000000E+00 -0.00000000000E+00 -0.39320159118E+02  0.39320159118E+02  0.00000000000E+00 0. -1.
         25    1    1    2    0    0 -0.13382442341E+03 -0.52290977245E+02  0.37144810162E+03  0.41595314015E+03  0.12000000000E+03 0.  0.
         25    1    1    2    0    0  0.13382442341E+03  0.52290977245E+02  0.49623301125E+03  0.53036829096E+03  0.12000000000E+03 0.  0.
<mgrwt>
<rscale>  0 0.37769530E+03</rscale>
<asrwt>0</asrwt>
<pdfrwt beam="1">  1        2 0.13953864E+00 0.37769530E+03</pdfrwt>
<pdfrwt beam="2">  1       -2 0.60492560E-02 0.37769530E+03</pdfrwt>
<totfact> 0.44143665E+03</totfact>
</mgrwt>
</event>
<event>
 4    1  0.1749575E-004  0.2522922E+03  0.7818608E-02  0.1111865E+00
         -2   -1    0    0    0  501 -0.00000000000E+00  0.00000000000E+00  0.18934232215E+02  0.18934232215E+02  0.00000000000E+00 0.  1.
          2   -1    0    0  501    0  0.00000000000E+00 -0.00000000000E+00 -0.84042674542E+03  0.84042674542E+03  0.00000000000E+00 0.  1.
         25    1    1    2    0    0 -0.14419852373E+02  0.35758012990E+02 -0.42820373065E+03  0.44636868459E+03  0.12000000000E+03 0.  0.
         25    1    1    2    0    0  0.14419852373E+02 -0.35758012990E+02 -0.39328878255E+03  0.41299229305E+03  0.12000000000E+03 0.  0.
<mgrwt>
<rscale>  0 0.25229217E+03</rscale>
<asrwt>0</asrwt>
<pdfrwt beam="1">  1        2 0.12929645E+00 0.25229217E+03</pdfrwt>
<pdfrwt beam="2">  1       -2 0.29129582E-02 0.25229217E+03</pdfrwt>
<totfact> 0.14611883E+04</totfact>
</mgrwt>
</event>
<event>
 4    1  0.1749575E-004  0.2643130E+03  0.7818608E-02  0.1104579E+00
          1   -1    0    0  501    0  0.00000000000E+00  0.00000000000E+00  0.16163094130E+04  0.16163094130E+04  0.00000000000E+00 0.  1.
         -1   -1    0    0    0  501 -0.00000000000E+00 -0.00000000000E+00 -0.10805694312E+02  0.10805694312E+02  0.00000000000E+00 0.  1.
         25    1    1    2    0    0 -0.31627165336E+02 -0.24953154194E+02  0.10365514487E+04  0.10442518102E+04  0.12000000000E+03 0.  0.
         25    1    1    2    0    0  0.31627165336E+02  0.24953154194E+02  0.56895227002E+03  0.58286329705E+03  0.12000000000E+03 0.  0.
<mgrwt>
<rscale>  0 0.26431304E+03</rscale>
<asrwt>0</asrwt>
<pdfrwt beam="1">  1        1 0.24866279E+00 0.26431304E+03</pdfrwt>
<pdfrwt beam="2">  1       -1 0.16624158E-02 0.26431304E+03</pdfrwt>
<totfact> 0.53857951E+03</totfact>
</mgrwt>
</event>
<event>
 4    1  0.1749575E-004  0.2754959E+03  0.7818608E-02  0.1098175E+00
          3   -1    0    0  501    0  0.00000000000E+00  0.00000000000E+00  0.51511935845E+03  0.51511935845E+03  0.00000000000E+00 0.  1.
         -3   -1    0    0    0  501 -0.00000000000E+00 -0.00000000000E+00 -0.36835153306E+02  0.36835153306E+02  0.00000000000E+00 0.  1.
         25    1    1    2    0    0  0.33461035684E+02  0.44951088616E+02  0.16326653597E+03  0.21022893008E+03  0.12000000000E+03 0.  0.
         25    1    1    2    0    0 -0.33461035684E+02 -0.44951088616E+02  0.31501766918E+03  0.34172558168E+03  0.12000000000E+03 0.  0.
<mgrwt>
<rscale>  0 0.27549592E+03</rscale>
<asrwt>0</asrwt>
<pdfrwt beam="1">  1        3 0.79249127E-01 0.27549592E+03</pdfrwt>
<pdfrwt beam="2">  1       -3 0.56669470E-02 0.27549592E+03</pdfrwt>
<totfact> 0.72237505E+02</totfact>
</mgrwt>
</event>
<event>
 4    1  0.1749575E-004  0.2676149E+03  0.7818608E-02  0.1102652E+00
          2   -1    0    0  501    0  0.00000000000E+00  0.00000000000E+00  0.80570773458E+03  0.80570773458E+03  0.00000000000E+00 0. -1.
         -2   -1    0    0    0  501 -0.00000000000E+00 -0.00000000000E+00 -0.22221999525E+02  0.22221999525E+02  0.00000000000E+00 0. -1.
         25    1    1    2    0    0 -0.37347627559E+02 -0.17307376836E+02  0.52336471887E+03  0.53852114122E+03  0.12000000000E+03 0.  0.
         25    1    1    2    0    0  0.37347627559E+02  0.17307376836E+02  0.26012101618E+03  0.28940859289E+03  0.12000000000E+03 0.  0.
<mgrwt>
<rscale>  0 0.26761492E+03</rscale>
<asrwt>0</asrwt>
<pdfrwt beam="1">  1        2 0.12395501E+00 0.26761492E+03</pdfrwt>
<pdfrwt beam="2">  1       -2 0.34187698E-02 0.26761492E+03</pdfrwt>
<totfact> 0.12181943E+04</totfact>
</mgrwt>
</event>
<event>
 4    1  0.1749575E-004  0.3229451E+03  0.7818608E-02  0.1074302E+00
         -2   -1    0    0    0  501 -0.00000000000E+00  0.00000000000E+00  0.35054116324E+02  0.35054116324E+02  0.00000000000E+00 0. -1.
          2   -1    0    0  501    0  0.00000000000E+00 -0.00000000000E+00 -0.74380389253E+03  0.74380389253E+03  0.00000000000E+00 0. -1.
         25    1    1    2    0    0  0.58829613918E+02  0.29109468651E+02 -0.14739936576E+03  0.20108420541E+03  0.12000000000E+03 0.  0.
         25    1    1    2    0    0 -0.58829613918E+02 -0.29109468651E+02 -0.56135041044E+03  0.57777380344E+03  0.12000000000E+03 0.  0.
<mgrwt>
<rscale>  0 0.32294512E+03</rscale>
<asrwt>0</asrwt>
<pdfrwt beam="1">  1        2 0.11443136E+00 0.32294512E+03</pdfrwt>
<pdfrwt beam="2">  1       -2 0.53929414E-02 0.32294512E+03</pdfrwt>
<totfact> 0.68013157E+03</totfact>
</mgrwt>
</event>
<event>
 4    1  0.1749575E-004  0.4346926E+03  0.7818608E-02  0.1032388E+00
         -2   -1    0    0    0  501 -0.00000000000E+00  0.00000000000E+00  0.13569290853E+03  0.13569290853E+03  0.00000000000E+00 0.  1.
          2   -1    0    0  501    0  0.00000000000E+00 -0.00000000000E+00 -0.34813468411E+03  0.34813468411E+03  0.00000000000E+00 0.  1.
         25    1    1    2    0    0 -0.65051429152E+02 -0.16808548143E+03 -0.12719176926E+03  0.25112181042E+03  0.12000000000E+03 0.  0.
         25    1    1    2    0    0  0.65051429152E+02  0.16808548143E+03 -0.85250006314E+02  0.23270578222E+03  0.12000000000E+03 0.  0.
<mgrwt>
<rscale>  0 0.43469257E+03</rscale>
<asrwt>0</asrwt>
<pdfrwt beam="1">  1        2 0.53559181E-01 0.43469257E+03</pdfrwt>
<pdfrwt beam="2">  1       -2 0.20875832E-01 0.43469257E+03</pdfrwt>
<totfact> 0.18266433E+03</totfact>
</mgrwt>
</event>
<event>
 4    1  0.1749575E-004  0.2903556E+03  0.7818608E-02  0.1090164E+00
         -1   -1    0    0    0  501 -0.00000000000E+00  0.00000000000E+00  0.47428925263E+03  0.47428925263E+03  0.00000000000E+00 0. -1.
          1   -1    0    0  501    0  0.00000000000E+00 -0.00000000000E+00 -0.44438261243E+02  0.44438261243E+02  0.00000000000E+00 0. -1.
         25    1    1    2    0    0 -0.11545180840E+02  0.25590727955E+02  0.77834713358E+02  0.14576151468E+03  0.12000000000E+03 0.  0.
         25    1    1    2    0    0  0.11545180840E+02 -0.25590727955E+02  0.35201627803E+03  0.37296599920E+03  0.12000000000E+03 0.  0.
<mgrwt>
<rscale>  0 0.29035557E+03</rscale>
<asrwt>0</asrwt>
<pdfrwt beam="1">  1        1 0.68366559E-02 0.29035557E+03</pdfrwt>
<pdfrwt beam="2">  1       -1 0.72967574E-01 0.29035557E+03</pdfrwt>
<totfact> 0.21263303E+03</totfact>
</mgrwt>
</event>
<event>
 4    1  0.1749575E-004  0.3165345E+03  0.7818608E-02  0.1077255E+00
          2   -1    0    0  501    0  0.00000000000E+00  0.00000000000E+00  0.20749139133E+03  0.20749139133E+03  0.00000000000E+00 0. -1.
         -2   -1    0    0    0  501 -0.00000000000E+00 -0.00000000000E+00 -0.12072081267E+03  0.12072081267E+03  0.00000000000E+00 0. -1.
         25    1    1    2    0    0  0.13761860462E+02  0.97718909008E+02  0.74667064391E+02  0.17237617146E+03  0.12000000000E+03 0.  0.
         25    1    1    2    0    0 -0.13761860462E+02 -0.97718909008E+02  0.12103514277E+02  0.15583603254E+03  0.12000000000E+03 0.  0.
<mgrwt>
<rscale>  0 0.31653454E+03</rscale>
<asrwt>0</asrwt>
<pdfrwt beam="1">  1        2 0.31921752E-01 0.31653454E+03</pdfrwt>
<pdfrwt beam="2">  1       -2 0.18572433E-01 0.31653454E+03</pdfrwt>
<totfact> 0.39082853E+03</totfact>
</mgrwt>
</event>
<event>
 4    1  0.1749575E-004  0.2723218E+03  0.7818608E-02  0.1099958E+00
          3   -1    0    0  501    0  0.00000000000E+00  0.00000000000E+00  0.88617421800E+02  0.88617421800E+02  0.00000000000E+00 0. -1.
         -3   -1    0    0    0  501 -0.00000000000E+00 -0.00000000000E+00 -0.20921152434E+03  0.20921152434E+03  0.00000000000E+00 0. -1.
         25    1    1    2    0    0 -0.30188582882E+02 -0.16636413095E+02 -0.87904250087E+00  0.12485549044E+03  0.12000000000E+03 0.  0.
         25    1    1    2    0    0  0.30188582882E+02  0.16636413095E+02 -0.11971506004E+03  0.17297345570E+03  0.12000000000E+03 0.  0.
<mgrwt>
<rscale>  0 0.27232176E+03</rscale>
<asrwt>0</asrwt>
<pdfrwt beam="1">  1        3 0.13633450E-01 0.27232176E+03</pdfrwt>
<pdfrwt beam="2">  1       -3 0.32186388E-01 0.27232176E+03</pdfrwt>
<totfact> 0.10455469E+03</totfact>
</mgrwt>
</event>
<event>
 4    1  0.1749575E-004  0.3394613E+03  0.7818608E-02  0.1067026E+00
         -2   -1    0    0    0  501 -0.00000000000E+00  0.00000000000E+00  0.53598052423E+02  0.53598052423E+02  0.00000000000E+00 0.  1.
          2   -1    0    0  501    0  0.00000000000E+00 -0.00000000000E+00 -0.53749131532E+03  0.53749131532E+03  0.00000000000E+00 0.  1.
         25    1    1    2    0    0  0.52800817446E+02  0.10745972128E+03 -0.22707241407E+03  0.28336795735E+03  0.12000000000E+03 0.  0.
         25    1    1    2    0    0 -0.52800817446E+02 -0.10745972128E+03 -0.25682084883E+03  0.30772141039E+03  0.12000000000E+03 0.  0.
<mgrwt>
<rscale>  0 0.33946127E+03</rscale>
<asrwt>0</asrwt>
<pdfrwt beam="1">  1        2 0.82690970E-01 0.33946127E+03</pdfrwt>
<pdfrwt beam="2">  1       -2 0.82458544E-02 0.33946127E+03</pdfrwt>
<totfact> 0.51840617E+03</totfact>
</mgrwt>
</event>
<event>
 4    1  0.1749575E-004  0.2879199E+03  0.7818608E-02  0.1091440E+00
          2   -1    0    0  501    0  0.00000000000E+00  0.00000000000E+00  0.45890016977E+03  0.45890016977E+03  0.00000000000E+00 0.  1.
         -2   -1    0    0    0  501 -0.00000000000E+00 -0.00000000000E+00 -0.45161151322E+02  0.45161151322E+02  0.00000000000E+00 0.  1.
         25    1    1    2    0    0 -0.29004808230E+02  0.73314815775E+02  0.18866568775E+03  0.23708876576E+03  0.12000000000E+03 0.  0.
         25    1    1    2    0    0  0.29004808230E+02 -0.73314815775E+02  0.22507333069E+03  0.26697255533E+03  0.12000000000E+03 0.  0.
<mgrwt>
<rscale>  0 0.28791985E+03</rscale>
<asrwt>0</asrwt>
<pdfrwt beam="1">  1        2 0.70600023E-01 0.28791985E+03</pdfrwt>
<pdfrwt beam="2">  1       -2 0.69478697E-02 0.28791985E+03</pdfrwt>
<totfact> 0.80528155E+03</totfact>
</mgrwt>
</event>
<event>
 4    1  0.1749575E-004  0.3508882E+03  0.7818608E-02  0.1062251E+00
         -2   -1    0    0    0  501 -0.00000000000E+00  0.00000000000E+00  0.19858996720E+02  0.19858996720E+02  0.00000000000E+00 0.  1.
          2   -1    0    0  501    0  0.00000000000E+00 -0.00000000000E+00 -0.15499588025E+04  0.15499588025E+04  0.00000000000E+00 0.  1.
         25    1    1    2    0    0 -0.66852491803E+02 -0.15188007360E+02 -0.12485703854E+04  0.12561958201E+04  0.12000000000E+03 0.  0.
         25    1    1    2    0    0  0.66852491803E+02  0.15188007360E+02 -0.28152942042E+03  0.31362197912E+03  0.12000000000E+03 0.  0.
<mgrwt>
<rscale>  0 0.35088817E+03</rscale>
<asrwt>0</asrwt>
<pdfrwt beam="1">  1        2 0.23845524E+00 0.35088817E+03</pdfrwt>
<pdfrwt beam="2">  1       -2 0.30552297E-02 0.35088817E+03</pdfrwt>
<totfact> 0.52998596E+03</totfact>
</mgrwt>
</event>
<event>
 4    1  0.1749575E-004  0.2523654E+03  0.7818608E-02  0.1111819E+00
          1   -1    0    0  501    0  0.00000000000E+00  0.00000000000E+00  0.54473658487E+03  0.54473658487E+03  0.00000000000E+00 0. -1.
         -1   -1    0    0    0  501 -0.00000000000E+00 -0.00000000000E+00 -0.29228944084E+02  0.29228944084E+02  0.00000000000E+00 0. -1.
         25    1    1    2    0    0  0.27068368860E+02 -0.28094427457E+02  0.25710360953E+03  0.28639877702E+03  0.12000000000E+03 0.  0.
         25    1    1    2    0    0 -0.27068368860E+02  0.28094427457E+02  0.25840403125E+03  0.28756675193E+03  0.12000000000E+03 0.  0.
<mgrwt>
<rscale>  0 0.25236541E+03</rscale>
<asrwt>0</asrwt>
<pdfrwt beam="1">  1        1 0.83805621E-01 0.25236541E+03</pdfrwt>
<pdfrwt beam="2">  1       -1 0.44967610E-02 0.25236541E+03</pdfrwt>
<totfact> 0.82274934E+03</totfact>
</mgrwt>
</event>
<event>
 4    1  0.1749575E-004  0.2975861E+03  0.7818608E-02  0.1086454E+00
          2   -1    0    0  501    0  0.00000000000E+00  0.00000000000E+00  0.17239297810E+03  0.17239297810E+03  0.00000000000E+00 0. -1.
         -2   -1    0    0    0  501 -0.00000000000E+00 -0.00000000000E+00 -0.12842388732E+03  0.12842388732E+03  0.00000000000E+00 0. -1.
         25    1    1    2    0    0  0.78787471031E+02 -0.17706547087E+02 -0.13299833546E+02  0.14525106875E+03  0.12000000000E+03 0.  0.
         25    1    1    2    0    0 -0.78787471031E+02  0.17706547087E+02  0.57268924323E+02  0.15556579667E+03  0.12000000000E+03 0.  0.
<mgrwt>
<rscale>  0 0.29758613E+03</rscale>
<asrwt>0</asrwt>
<pdfrwt beam="1">  1        2 0.26521997E-01 0.29758613E+03</pdfrwt>
<pdfrwt beam="2">  1       -2 0.19757521E-01 0.29758613E+03</pdfrwt>
<totfact> 0.43087163E+03</totfact>
</mgrwt>
</event>
<event>
 4    1  0.1749575E-004  0.2592819E+03  0.7818608E-02  0.1107575E+00
          2   -1    0    0  501    0  0.00000000000E+00  0.00000000000E+00  0.44605223510E+03  0.44605223510E+03  0.00000000000E+00 0.  1.
         -2   -1    0    0    0  501 -0.00000000000E+00 -0.00000000000E+00 -0.37678952673E+02  0.37678952673E+02  0.00000000000E+00 0.  1.
         25    1    1    2    0    0 -0.12940470191E+02 -0.40200182231E+02  0.15760978679E+03  0.20254469954E+03  0.12000000000E+03 0.  0.
         25    1    1    2    0    0  0.12940470191E+02  0.40200182231E+02  0.25076349564E+03  0.28118648823E+03  0.12000000000E+03 0.  0.
<mgrwt>
<rscale>  0 0.25928194E+03</rscale>
<asrwt>0</asrwt>
<pdfrwt beam="1">  1        2 0.68623417E-01 0.25928194E+03</pdfrwt>
<pdfrwt beam="2">  1       -2 0.57967623E-02 0.25928194E+03</pdfrwt>
<totfact> 0.10936081E+04</totfact>
</mgrwt>
</event>
<event>
 4    1  0.1749575E-004  0.2539318E+03  0.7818608E-02  0.1110845E+00
          1   -1    0    0  501    0  0.00000000000E+00  0.00000000000E+00  0.12072805456E+04  0.12072805456E+04  0.00000000000E+00 0.  1.
         -1   -1    0    0    0  501 -0.00000000000E+00 -0.00000000000E+00 -0.13352608523E+02  0.13352608523E+02  0.00000000000E+00 0.  1.
         25    1    1    2    0    0  0.14769600348E+02  0.31977984311E+02  0.70223599784E+03  0.71328544724E+03  0.12000000000E+03 0.  0.
         25    1    1    2    0    0 -0.14769600348E+02 -0.31977984311E+02  0.49169193927E+03  0.50734770693E+03  0.12000000000E+03 0.  0.
<mgrwt>
<rscale>  0 0.25393184E+03</rscale>
<asrwt>0</asrwt>
<pdfrwt beam="1">  1        1 0.18573538E+00 0.25393184E+03</pdfrwt>
<pdfrwt beam="2">  1       -1 0.20542484E-02 0.25393184E+03</pdfrwt>
<totfact> 0.74403794E+03</totfact>
</mgrwt>
</event>
<event>
 4    1  0.1749575E-004  0.3242887E+03  0.7818608E-02  0.1073692E+00
         -2   -1    0    0    0  501 -0.00000000000E+00  0.00000000000E+00  0.94944713842E+01  0.94944713842E+01  0.00000000000E+00 0.  1.
          2   -1    0    0  501    0  0.00000000000E+00 -0.00000000000E+00 -0.27690624694E+04  0.27690624694E+04  0.00000000000E+00 0.  1.
         25    1    1    2    0    0  0.20667999856E+02 -0.55921949322E+02 -0.59747990795E+03  0.61232072563E+03  0.12000000000E+03 0.  0.
         25    1    1    2    0    0 -0.20667999856E+02  0.55921949322E+02 -0.21620880900E+04  0.21662362151E+04  0.12000000000E+03 0.  0.
<mgrwt>
<rscale>  0 0.32428866E+03</rscale>
<asrwt>0</asrwt>
<pdfrwt beam="1">  1        2 0.42600967E+00 0.32428866E+03</pdfrwt>
<pdfrwt beam="2">  1       -2 0.14606877E-02 0.32428866E+03</pdfrwt>
<totfact> 0.34686501E+03</totfact>
</mgrwt>
</event>
<event>
 4    1  0.1749575E-004  0.2604100E+03  0.7818608E-02  0.1106897E+00
         -2   -1    0    0    0  501 -0.00000000000E+00  0.00000000000E+00  0.42642870537E+03  0.42642870537E+03  0.00000000000E+00 0. -1.
          2   -1    0    0  501    0  0.00000000000E+00 -0.00000000000E+00 -0.39756583667E+02  0.39756583667E+02  0.00000000000E+00 0. -1.
         25    1    1    2    0    0 -0.40054921886E+02  0.15916434464E+02  0.24055176766E+03  0.27225517915E+03  0.12000000000E+03 0.  0.
         25    1    1    2    0    0  0.40054921886E+02 -0.15916434464E+02  0.14612035405E+03  0.19393010989E+03  0.12000000000E+03 0.  0.
<mgrwt>
<rscale>  0 0.26041005E+03</rscale>
<asrwt>0</asrwt>
<pdfrwt beam="1">  1        2 0.61163978E-02 0.26041005E+03</pdfrwt>
<pdfrwt beam="2">  1       -2 0.65604413E-01 0.26041005E+03</pdfrwt>
<totfact> 0.26255733E+03</totfact>
</mgrwt>
</event>
<event>
 4    1  0.1749575E-004  0.4270952E+03  0.7818608E-02  0.1034782E+00
         -2   -1    0    0    0  501 -0.00000000000E+00  0.00000000000E+00  0.16156271674E+02  0.16156271674E+02  0.00000000000E+00 0. -1.
          2   -1    0    0  501    0  0.00000000000E+00 -0.00000000000E+00 -0.28225926841E+04  0.28225926841E+04  0.00000000000E+00 0. -1.
         25    1    1    2    0    0  0.41434295249E+02 -0.14561568371E+03 -0.20080935602E+04  0.20173647351E+04  0.12000000000E+03 0.  0.
         25    1    1    2    0    0 -0.41434295249E+02  0.14561568371E+03 -0.79834285225E+03  0.82138422063E+03  0.12000000000E+03 0.  0.
<mgrwt>
<rscale>  0 0.42709518E+03</rscale>
<asrwt>0</asrwt>
<pdfrwt beam="1">  1        2 0.43424450E+00 0.42709518E+03</pdfrwt>
<pdfrwt beam="2">  1       -2 0.24855833E-02 0.42709518E+03</pdfrwt>
<totfact> 0.14546324E+03</totfact>
</mgrwt>
</event>
<event>
 4    1  0.1749575E-004  0.2574757E+03  0.7818608E-02  0.1108669E+00
          2   -1    0    0  501    0  0.00000000000E+00  0.00000000000E+00  0.29238539463E+03  0.29238539463E+03  0.00000000000E+00 0.  1.
         -2   -1    0    0    0  501 -0.00000000000E+00 -0.00000000000E+00 -0.56683531959E+02  0.56683531959E+02  0.00000000000E+00 0.  1.
         25    1    1    2    0    0 -0.23474773940E+02  0.11729522288E+01  0.17243499713E+03  0.21139127007E+03  0.12000000000E+03 0.  0.
         25    1    1    2    0    0  0.23474773940E+02 -0.11729522288E+01  0.63266865543E+02  0.13767765652E+03  0.12000000000E+03 0.  0.
<mgrwt>
<rscale>  0 0.25747572E+03</rscale>
<asrwt>0</asrwt>
<pdfrwt beam="1">  1        2 0.44982368E-01 0.25747572E+03</pdfrwt>
<pdfrwt beam="2">  1       -2 0.87205435E-02 0.25747572E+03</pdfrwt>
<totfact> 0.91690702E+03</totfact>
</mgrwt>
</event>
<event>
 4    1  0.1749575E-004  0.2980599E+03  0.7818608E-02  0.1086214E+00
          2   -1    0    0  501    0  0.00000000000E+00  0.00000000000E+00  0.63244200625E+03  0.63244200625E+03  0.00000000000E+00 0.  1.
         -2   -1    0    0    0  501 -0.00000000000E+00 -0.00000000000E+00 -0.35117731385E+02  0.35117731385E+02  0.00000000000E+00 0.  1.
         25    1    1    2    0    0 -0.81677712436E+02  0.30220515462E+02  0.33228724910E+03  0.36386720679E+03  0.12000000000E+03 0.  0.
         25    1    1    2    0    0  0.81677712436E+02 -0.30220515462E+02  0.26503702577E+03  0.30369253084E+03  0.12000000000E+03 0.  0.
<mgrwt>
<rscale>  0 0.29805992E+03</rscale>
<asrwt>0</asrwt>
<pdfrwt beam="1">  1        2 0.97298762E-01 0.29805992E+03</pdfrwt>
<pdfrwt beam="2">  1       -2 0.54027284E-02 0.29805992E+03</pdfrwt>
<totfact> 0.82385328E+03</totfact>
</mgrwt>
</event>
<event>
 4    1  0.1749575E-004  0.2480080E+03  0.7818608E-02  0.1114570E+00
          2   -1    0    0  501    0  0.00000000000E+00  0.00000000000E+00  0.17923382119E+04  0.17923382119E+04  0.00000000000E+00 0. -1.
         -2   -1    0    0    0  501 -0.00000000000E+00 -0.00000000000E+00 -0.85792925360E+01  0.85792925360E+01  0.00000000000E+00 0. -1.
         25    1    1    2    0    0  0.20856892065E+02  0.21588601276E+02  0.82860982748E+03  0.83779193351E+03  0.12000000000E+03 0.  0.
         25    1    1    2    0    0 -0.20856892065E+02 -0.21588601276E+02  0.95514909187E+03  0.96312557092E+03  0.12000000000E+03 0.  0.
<mgrwt>
<rscale>  0 0.24800801E+03</rscale>
<asrwt>0</asrwt>
<pdfrwt beam="1">  1        2 0.27574404E+00 0.24800801E+03</pdfrwt>
<pdfrwt beam="2">  1       -2 0.13198926E-02 0.24800801E+03</pdfrwt>
<totfact> 0.13550761E+04</totfact>
</mgrwt>
</event>
<event>
 4    1  0.1749575E-004  0.2592617E+03  0.7818608E-02  0.1107588E+00
         -1   -1    0    0    0  501 -0.00000000000E+00  0.00000000000E+00  0.30511535607E+02  0.30511535607E+02  0.00000000000E+00 0. -1.
          1   -1    0    0  501    0  0.00000000000E+00 -0.00000000000E+00 -0.55074786089E+03  0.55074786089E+03  0.00000000000E+00 0. -1.
         25    1    1    2    0    0 -0.36442864017E+02 -0.25820543492E+02 -0.30548045011E+03  0.33122966081E+03  0.12000000000E+03 0.  0.
         25    1    1    2    0    0  0.36442864017E+02  0.25820543492E+02 -0.21475587518E+03  0.25002973569E+03  0.12000000000E+03 0.  0.
<mgrwt>
<rscale>  0 0.25926174E+03</rscale>
<asrwt>0</asrwt>
<pdfrwt beam="1">  1        1 0.84730438E-01 0.25926174E+03</pdfrwt>
<pdfrwt beam="2">  1       -1 0.46940825E-02 0.25926174E+03</pdfrwt>
<totfact> 0.76105964E+03</totfact>
</mgrwt>
</event>
<event>
 4    1  0.1749575E-004  0.2548512E+03  0.7818608E-02  0.1110277E+00
          1   -1    0    0  501    0  0.00000000000E+00  0.00000000000E+00  0.98296457237E+03  0.98296457237E+03  0.00000000000E+00 0. -1.
         -1   -1    0    0    0  501 -0.00000000000E+00 -0.00000000000E+00 -0.16518686198E+02  0.16518686198E+02  0.00000000000E+00 0. -1.
         25    1    1    2    0    0  0.27593472468E+02  0.17729102917E+02  0.37499444790E+03  0.39509056780E+03  0.12000000000E+03 0.  0.
         25    1    1    2    0    0 -0.27593472468E+02 -0.17729102917E+02  0.59145143828E+03  0.60439269077E+03  0.12000000000E+03 0.  0.
<mgrwt>
<rscale>  0 0.25485120E+03</rscale>
<asrwt>0</asrwt>
<pdfrwt beam="1">  1        1 0.15122527E+00 0.25485120E+03</pdfrwt>
<pdfrwt beam="2">  1       -1 0.25413371E-02 0.25485120E+03</pdfrwt>
<totfact> 0.79109989E+03</totfact>
</mgrwt>
</event>
<event>
 4    1  0.1749575E-004  0.2519155E+03  0.7818608E-02  0.1112100E+00
          2   -1    0    0  501    0  0.00000000000E+00  0.00000000000E+00  0.68463877716E+03  0.68463877716E+03  0.00000000000E+00 0. -1.
         -2   -1    0    0    0  501 -0.00000000000E+00 -0.00000000000E+00 -0.23173325621E+02  0.23173325621E+02  0.00000000000E+00 0. -1.
         25    1    1    2    0    0 -0.54777724800E+00  0.26079871427E+02  0.40944990986E+03  0.42746893272E+03  0.12000000000E+03 0.  0.
         25    1    1    2    0    0  0.54777724800E+00 -0.26079871427E+02  0.25201554168E+03  0.28034317007E+03  0.12000000000E+03 0.  0.
<mgrwt>
<rscale>  0 0.25191552E+03</rscale>
<asrwt>0</asrwt>
<pdfrwt beam="1">  1        2 0.10532903E+00 0.25191552E+03</pdfrwt>
<pdfrwt beam="2">  1       -2 0.35651275E-02 0.25191552E+03</pdfrwt>
<totfact> 0.13959836E+04</totfact>
</mgrwt>
</event>
<event>
 4    1  0.1749575E-004  0.2802188E+03  0.7818608E-02  0.1095570E+00
         -1   -1    0    0    0  501 -0.00000000000E+00  0.00000000000E+00  0.40787086364E+02  0.40787086364E+02  0.00000000000E+00 0.  1.
          1   -1    0    0  501    0  0.00000000000E+00 -0.00000000000E+00 -0.48129554462E+03  0.48129554462E+03  0.00000000000E+00 0.  1.
         25    1    1    2    0    0 -0.42660556208E+02  0.52246763094E+01 -0.32862698399E+03  0.35248108446E+03  0.12000000000E+03 0.  0.
         25    1    1    2    0    0  0.42660556208E+02 -0.52246763094E+01 -0.11188147427E+03  0.16960154652E+03  0.12000000000E+03 0.  0.
<mgrwt>
<rscale>  0 0.28021879E+03</rscale>
<asrwt>0</asrwt>
<pdfrwt beam="1">  1        1 0.74045472E-01 0.28021879E+03</pdfrwt>
<pdfrwt beam="2">  1       -1 0.62749360E-02 0.28021879E+03</pdfrwt>
<totfact> 0.59073766E+03</totfact>
</mgrwt>
</event>
<event>
 4    1  0.1749575E-004  0.2598588E+03  0.7818608E-02  0.1107228E+00
         -1   -1    0    0    0  501 -0.00000000000E+00  0.00000000000E+00  0.42309165149E+03  0.42309165149E+03  0.00000000000E+00 0. -1.
          1   -1    0    0  501    0  0.00000000000E+00 -0.00000000000E+00 -0.39900701191E+02  0.39900701191E+02  0.00000000000E+00 0. -1.
         25    1    1    2    0    0 -0.19757830249E+02 -0.44360286611E+02  0.21139141082E+03  0.24788008281E+03  0.12000000000E+03 0.  0.
         25    1    1    2    0    0  0.19757830249E+02  0.44360286611E+02  0.17179953947E+03  0.21511226987E+03  0.12000000000E+03 0.  0.
<mgrwt>
<rscale>  0 0.25985884E+03</rscale>
<asrwt>0</asrwt>
<pdfrwt beam="1">  1        1 0.61385697E-02 0.25985884E+03</pdfrwt>
<pdfrwt beam="2">  1       -1 0.65091020E-01 0.25985884E+03</pdfrwt>
<totfact> 0.30865277E+03</totfact>
</mgrwt>
</event>
<event>
 4    1  0.1749575E-004  0.2707129E+03  0.7818608E-02  0.1100872E+00
          1   -1    0    0  501    0  0.00000000000E+00  0.00000000000E+00  0.14552552148E+04  0.14552552148E+04  0.00000000000E+00 0.  1.
         -1   -1    0    0    0  501 -0.00000000000E+00 -0.00000000000E+00 -0.12589801224E+02  0.12589801224E+02  0.00000000000E+00 0.  1.
         25    1    1    2    0    0 -0.28789873400E+02 -0.55205241517E+02  0.75766447541E+03  0.76963103680E+03  0.12000000000E+03 0.  0.
         25    1    1    2    0    0  0.28789873400E+02  0.55205241517E+02  0.68500093812E+03  0.69821397919E+03  0.12000000000E+03 0.  0.
<mgrwt>
<rscale>  0 0.27071294E+03</rscale>
<asrwt>0</asrwt>
<pdfrwt beam="1">  1        1 0.22388529E+00 0.27071294E+03</pdfrwt>
<pdfrwt beam="2">  1       -1 0.19368936E-02 0.27071294E+03</pdfrwt>
<totfact> 0.55065138E+03</totfact>
</mgrwt>
</event>
<event>
 4    1  0.1749575E-004  0.3747211E+03  0.7818608E-02  0.1052902E+00
         -2   -1    0    0    0  501 -0.00000000000E+00  0.00000000000E+00  0.34316953464E+02  0.34316953464E+02  0.00000000000E+00 0.  1.
          2   -1    0    0  501    0  0.00000000000E+00 -0.00000000000E+00 -0.10229340474E+04  0.10229340474E+04  0.00000000000E+00 0.  1.
         25    1    1    2    0    0  0.13427160391E+03  0.29857219051E+01 -0.34862300627E+03  0.39239747534E+03  0.12000000000E+03 0.  0.
         25    1    1    2    0    0 -0.13427160391E+03 -0.29857219051E+01 -0.63999408765E+03  0.66485352551E+03  0.12000000000E+03 0.  0.
<mgrwt>
<rscale>  0 0.37472112E+03</rscale>
<asrwt>0</asrwt>
<pdfrwt beam="1">  1        2 0.15737446E+00 0.37472112E+03</pdfrwt>
<pdfrwt beam="2">  1       -2 0.52795317E-02 0.37472112E+03</pdfrwt>
<totfact> 0.45994562E+03</totfact>
</mgrwt>
</event>
<event>
 4    1  0.1749575E-004  0.2504774E+03  0.7818608E-02  0.1113003E+00
          2   -1    0    0  501    0  0.00000000000E+00  0.00000000000E+00  0.14542665555E+04  0.14542665555E+04  0.00000000000E+00 0.  1.
         -2   -1    0    0    0  501 -0.00000000000E+00 -0.00000000000E+00 -0.10785321700E+02  0.10785321700E+02  0.00000000000E+00 0.  1.
         25    1    1    2    0    0 -0.23465974691E+01  0.60942121672E+01  0.92787972981E+03  0.93562996902E+03  0.12000000000E+03 0.  0.
         25    1    1    2    0    0  0.23465974691E+01 -0.60942121672E+01  0.51560150404E+03  0.52942190822E+03  0.12000000000E+03 0.  0.
<mgrwt>
<rscale>  0 0.25047741E+03</rscale>
<asrwt>0</asrwt>
<pdfrwt beam="1">  1        2 0.22373316E+00 0.25047741E+03</pdfrwt>
<pdfrwt beam="2">  1       -2 0.16592814E-02 0.25047741E+03</pdfrwt>
<totfact> 0.14642615E+04</totfact>
</mgrwt>
</event>
<event>
 4    1  0.1749575E-004  0.2432176E+03  0.7818608E-02  0.1117668E+00
          2   -1    0    0  501    0  0.00000000000E+00  0.00000000000E+00  0.67755338927E+03  0.67755338927E+03  0.00000000000E+00 0.  1.
         -2   -1    0    0    0  501 -0.00000000000E+00 -0.00000000000E+00 -0.21826613995E+02  0.21826613995E+02  0.00000000000E+00 0.  1.
         25    1    1    2    0    0 -0.16950175683E+02 -0.99215394825E+01  0.32292375575E+03  0.34505868694E+03  0.12000000000E+03 0.  0.
         25    1    1    2    0    0  0.16950175683E+02  0.99215394825E+01  0.33280301952E+03  0.35432131633E+03  0.12000000000E+03 0.  0.
<mgrwt>
<rscale>  0 0.24321757E+03</rscale>
<asrwt>0</asrwt>
<pdfrwt beam="1">  1        2 0.10423897E+00 0.24321757E+03</pdfrwt>
<pdfrwt beam="2">  1       -2 0.33579411E-02 0.24321757E+03</pdfrwt>
<totfact> 0.15431422E+04</totfact>
</mgrwt>
</event>
<event>
 4    1  0.1749575E-004  0.3129297E+03  0.7818608E-02  0.1078950E+00
          2   -1    0    0  501    0  0.00000000000E+00  0.00000000000E+00  0.37676327768E+03  0.37676327768E+03  0.00000000000E+00 0.  1.
         -2   -1    0    0    0  501 -0.00000000000E+00 -0.00000000000E+00 -0.64977794393E+02  0.64977794393E+02  0.00000000000E+00 0.  1.
         25    1    1    2    0    0  0.71838375622E+02 -0.41943624327E+02  0.23526136684E+03  0.27688974442E+03  0.12000000000E+03 0.  0.
         25    1    1    2    0    0 -0.71838375622E+02  0.41943624327E+02  0.76524116448E+02  0.16485132766E+03  0.12000000000E+03 0.  0.
<mgrwt>
<rscale>  0 0.31292968E+03</rscale>
<asrwt>0</asrwt>
<pdfrwt beam="1">  1        2 0.57963580E-01 0.31292968E+03</pdfrwt>
<pdfrwt beam="2">  1       -2 0.99965840E-02 0.31292968E+03</pdfrwt>
<totfact> 0.56577792E+03</totfact>
</mgrwt>
</event>
<event>
 4    1  0.1749575E-004  0.3428998E+03  0.7818608E-02  0.1065568E+00
          1   -1    0    0  501    0  0.00000000000E+00  0.00000000000E+00  0.78230001298E+02  0.78230001298E+02  0.00000000000E+00 0.  1.
         -1   -1    0    0    0  501 -0.00000000000E+00 -0.00000000000E+00 -0.37575185091E+03  0.37575185091E+03  0.00000000000E+00 0.  1.
         25    1    1    2    0    0 -0.12795042937E+02  0.12079647003E+03 -0.12826888434E+03  0.21356124879E+03  0.12000000000E+03 0.  0.
         25    1    1    2    0    0  0.12795042937E+02 -0.12079647003E+03 -0.16925296528E+03  0.24042060342E+03  0.12000000000E+03 0.  0.
<mgrwt>
<rscale>  0 0.34289980E+03</rscale>
<asrwt>0</asrwt>
<pdfrwt beam="1">  1        1 0.12035385E-01 0.34289980E+03</pdfrwt>
<pdfrwt beam="2">  1       -1 0.57807978E-01 0.34289980E+03</pdfrwt>
<totfact> 0.15655875E+03</totfact>
</mgrwt>
</event>
<event>
 4    1  0.1749575E-004  0.2875471E+03  0.7818608E-02  0.1091637E+00
         -2   -1    0    0    0  501 -0.00000000000E+00  0.00000000000E+00  0.47145078209E+02  0.47145078209E+02  0.00000000000E+00 0.  1.
          2   -1    0    0  501    0  0.00000000000E+00 -0.00000000000E+00 -0.43845170224E+03  0.43845170224E+03  0.00000000000E+00 0.  1.
         25    1    1    2    0    0  0.36520740199E+02 -0.69841627852E+02 -0.18265731655E+03  0.23232587616E+03  0.12000000000E+03 0.  0.
         25    1    1    2    0    0 -0.36520740199E+02  0.69841627852E+02 -0.20864930749E+03  0.25327090429E+03  0.12000000000E+03 0.  0.
<mgrwt>
<rscale>  0 0.28754714E+03</rscale>
<asrwt>0</asrwt>
<pdfrwt beam="1">  1        2 0.67454106E-01 0.28754714E+03</pdfrwt>
<pdfrwt beam="2">  1       -2 0.72530891E-02 0.28754714E+03</pdfrwt>
<totfact> 0.79210317E+03</totfact>
</mgrwt>
</event>
<event>
 4    1  0.1749575E-004  0.2856281E+03  0.7818608E-02  0.1092654E+00
          1   -1    0    0  501    0  0.00000000000E+00  0.00000000000E+00  0.28299651120E+03  0.28299651120E+03  0.00000000000E+00 0. -1.
         -1   -1    0    0    0  501 -0.00000000000E+00 -0.00000000000E+00 -0.72071058289E+02  0.72071058289E+02  0.00000000000E+00 0. -1.
         25    1    1    2    0    0 -0.22844315750E+02 -0.30997042481E+02  0.18897518780E+03  0.22714378928E+03  0.12000000000E+03 0.  0.
         25    1    1    2    0    0  0.22844315750E+02  0.30997042481E+02  0.21950265114E+02  0.12792378021E+03  0.12000000000E+03 0.  0.
<mgrwt>
<rscale>  0 0.28562814E+03</rscale>
<asrwt>0</asrwt>
<pdfrwt beam="1">  1        1 0.43537924E-01 0.28562814E+03</pdfrwt>
<pdfrwt beam="2">  1       -1 0.11087855E-01 0.28562814E+03</pdfrwt>
<totfact> 0.48717978E+03</totfact>
</mgrwt>
</event>
<event>
 4    1  0.1749575E-004  0.2861167E+03  0.7818608E-02  0.1092394E+00
          1   -1    0    0  501    0  0.00000000000E+00  0.00000000000E+00  0.44825857063E+03  0.44825857063E+03  0.00000000000E+00 0. -1.
         -1   -1    0    0    0  501 -0.00000000000E+00 -0.00000000000E+00 -0.45655998381E+02  0.45655998381E+02  0.00000000000E+00 0. -1.
         25    1    1    2    0    0 -0.76482960689E+02 -0.14365265657E+02  0.19592805417E+03  0.24257742382E+03  0.12000000000E+03 0.  0.
         25    1    1    2    0    0  0.76482960689E+02  0.14365265657E+02  0.20667451808E+03  0.25133714520E+03  0.12000000000E+03 0.  0.
<mgrwt>
<rscale>  0 0.28611671E+03</rscale>
<asrwt>0</asrwt>
<pdfrwt beam="1">  1        1 0.68962854E-01 0.28611671E+03</pdfrwt>
<pdfrwt beam="2">  1       -1 0.70240001E-02 0.28611671E+03</pdfrwt>
<totfact> 0.54690960E+03</totfact>
</mgrwt>
</event>
<event>
 4    1  0.1749575E-004  0.2432503E+03  0.7818608E-02  0.1117646E+00
         -1   -1    0    0    0  501 -0.00000000000E+00  0.00000000000E+00  0.48252168265E+02  0.48252168265E+02  0.00000000000E+00 0.  1.
          1   -1    0    0  501    0  0.00000000000E+00 -0.00000000000E+00 -0.30657011893E+03  0.30657011893E+03  0.00000000000E+00 0.  1.
         25    1    1    2    0    0 -0.13799697704E+01 -0.13494234764E+02 -0.15023030901E+03  0.19275150955E+03  0.12000000000E+03 0.  0.
         25    1    1    2    0    0  0.13799697704E+01  0.13494234764E+02 -0.10808764166E+03  0.16207077765E+03  0.12000000000E+03 0.  0.
<mgrwt>
<rscale>  0 0.24325027E+03</rscale>
<asrwt>0</asrwt>
<pdfrwt beam="1">  1        1 0.47164634E-01 0.24325027E+03</pdfrwt>
<pdfrwt beam="2">  1       -1 0.74234104E-02 0.24325027E+03</pdfrwt>
<totfact> 0.81143216E+03</totfact>
</mgrwt>
</event>
<event>
 4    1  0.1749575E-004  0.2794302E+03  0.7818608E-02  0.1096001E+00
          2   -1    0    0  501    0  0.00000000000E+00  0.00000000000E+00  0.42912820956E+03  0.42912820956E+03  0.00000000000E+00 0.  1.
         -2   -1    0    0    0  501 -0.00000000000E+00 -0.00000000000E+00 -0.45488291017E+02  0.45488291017E+02  0.00000000000E+00 0.  1.
         25    1    1    2    0    0  0.28492636356E+02  0.54713823690E+02  0.13022971847E+03  0.18752389822E+03  0.12000000000E+03 0.  0.
         25    1    1    2    0    0 -0.28492636356E+02 -0.54713823690E+02  0.25341020008E+03  0.28709260236E+03  0.12000000000E+03 0.  0.
<mgrwt>
<rscale>  0 0.27943020E+03</rscale>
<asrwt>0</asrwt>
<pdfrwt beam="1">  1        2 0.66019722E-01 0.27943020E+03</pdfrwt>
<pdfrwt beam="2">  1       -2 0.69981989E-02 0.27943020E+03</pdfrwt>
<totfact> 0.85644441E+03</totfact>
</mgrwt>
</event>
<event>
 4    1  0.1749575E-004  0.3047475E+03  0.7818608E-02  0.1082891E+00
         -2   -1    0    0    0  501 -0.00000000000E+00  0.00000000000E+00  0.22170121621E+02  0.22170121621E+02  0.00000000000E+00 0.  1.
          2   -1    0    0  501    0  0.00000000000E+00 -0.00000000000E+00 -0.10472548218E+04  0.10472548218E+04  0.00000000000E+00 0.  1.
         25    1    1    2    0    0  0.65613581105E+02  0.61994108527E+02 -0.42175226378E+03  0.44768670242E+03  0.12000000000E+03 0.  0.
         25    1    1    2    0    0 -0.65613581105E+02 -0.61994108527E+02 -0.60333243642E+03  0.62173824103E+03  0.12000000000E+03 0.  0.
<mgrwt>
<rscale>  0 0.30474755E+03</rscale>
<asrwt>0</asrwt>
<pdfrwt beam="1">  1        2 0.16111609E+00 0.30474755E+03</pdfrwt>
<pdfrwt beam="2">  1       -2 0.34107888E-02 0.30474755E+03</pdfrwt>
<totfact> 0.85971781E+03</totfact>
</mgrwt>
</event>
<event>
 4    1  0.1749575E-004  0.2714372E+03  0.7818608E-02  0.1100460E+00
          2   -1    0    0  501    0  0.00000000000E+00  0.00000000000E+00  0.16051067812E+03  0.16051067812E+03  0.00000000000E+00 0.  1.
         -2   -1    0    0    0  501 -0.00000000000E+00 -0.00000000000E+00 -0.11475583903E+03  0.11475583903E+03  0.00000000000E+00 0.  1.
         25    1    1    2    0    0 -0.56657979031E+02 -0.20044292618E+02  0.24025576061E+01  0.13422992415E+03  0.12000000000E+03 0.  0.
         25    1    1    2    0    0  0.56657979031E+02  0.20044292618E+02  0.43352281485E+02  0.14103659300E+03  0.12000000000E+03 0.  0.
<mgrwt>
<rscale>  0 0.27143719E+03</rscale>
<asrwt>0</asrwt>
<pdfrwt beam="1">  1        2 0.24693950E-01 0.27143719E+03</pdfrwt>
<pdfrwt beam="2">  1       -2 0.17654744E-01 0.27143719E+03</pdfrwt>
<totfact> 0.56312592E+03</totfact>
</mgrwt>
</event>
<event>
 4    1  0.1749575E-004  0.2426793E+03  0.7818608E-02  0.1118021E+00
         -1   -1    0    0    0  501 -0.00000000000E+00  0.00000000000E+00  0.38597641694E+02  0.38597641694E+02  0.00000000000E+00 0.  1.
          1   -1    0    0  501    0  0.00000000000E+00 -0.00000000000E+00 -0.38145621432E+03  0.38145621432E+03  0.00000000000E+00 0.  1.
         25    1    1    2    0    0  0.32035030644E+01  0.12507816943E+02 -0.14976864020E+03  0.19234696126E+03  0.12000000000E+03 0.  0.
         25    1    1    2    0    0 -0.32035030644E+01 -0.12507816943E+02 -0.19308993242E+03  0.22770689476E+03  0.12000000000E+03 0.  0.
<mgrwt>
<rscale>  0 0.24267930E+03</rscale>
<asrwt>0</asrwt>
<pdfrwt beam="1">  1        1 0.58685573E-01 0.24267930E+03</pdfrwt>
<pdfrwt beam="2">  1       -1 0.59380986E-02 0.24267930E+03</pdfrwt>
<totfact> 0.86273252E+03</totfact>
</mgrwt>
</event>
<event>
 4    1  0.1749575E-004  0.3181048E+03  0.7818608E-02  0.1076525E+00
          1   -1    0    0  501    0  0.00000000000E+00  0.00000000000E+00  0.12376237524E+03  0.12376237524E+03  0.00000000000E+00 0. -1.
         -1   -1    0    0    0  501 -0.00000000000E+00 -0.00000000000E+00 -0.20440512954E+03  0.20440512954E+03  0.00000000000E+00 0. -1.
         25    1    1    2    0    0 -0.69247518399E+02 -0.30978705144E+02 -0.11430297749E+03  0.18226373649E+03  0.12000000000E+03 0.  0.
         25    1    1    2    0    0  0.69247518399E+02  0.30978705144E+02  0.33660223186E+02  0.14590376829E+03  0.12000000000E+03 0.  0.
<mgrwt>
<rscale>  0 0.31810479E+03</rscale>
<asrwt>0</asrwt>
<pdfrwt beam="1">  1        1 0.19040366E-01 0.31810479E+03</pdfrwt>
<pdfrwt beam="2">  1       -1 0.31446943E-01 0.31810479E+03</pdfrwt>
<totfact> 0.25676710E+03</totfact>
</mgrwt>
</event>
<event>
 4    1  0.1749575E-004  0.3976042E+03  0.7818608E-02  0.1044612E+00
         -2   -1    0    0    0  501 -0.00000000000E+00  0.00000000000E+00  0.19899714762E+02  0.19899714762E+02  0.00000000000E+00 0. -1.
          2   -1    0    0  501    0  0.00000000000E+00 -0.00000000000E+00 -0.19860729108E+04  0.19860729108E+04  0.00000000000E+00 0. -1.
         25    1    1    2    0    0  0.13454059130E+02  0.13036406579E+03 -0.14328265487E+04  0.14438032137E+04  0.12000000000E+03 0.  0.
         25    1    1    2    0    0 -0.13454059130E+02 -0.13036406579E+03 -0.53334664734E+03  0.56216941182E+03  0.12000000000E+03 0.  0.
<mgrwt>
<rscale>  0 0.39760425E+03</rscale>
<asrwt>0</asrwt>
<pdfrwt beam="1">  1        2 0.30554981E+00 0.39760425E+03</pdfrwt>
<pdfrwt beam="2">  1       -2 0.30614933E-02 0.39760425E+03</pdfrwt>
<totfact> 0.30908167E+03</totfact>
</mgrwt>
</event>
<event>
 4    1  0.1749575E-004  0.3351175E+03  0.7818608E-02  0.1068895E+00
          1   -1    0    0  501    0  0.00000000000E+00  0.00000000000E+00  0.10613948267E+03  0.10613948267E+03  0.00000000000E+00 0. -1.
         -1   -1    0    0    0  501 -0.00000000000E+00 -0.00000000000E+00 -0.26451922673E+03  0.26451922673E+03  0.00000000000E+00 0. -1.
         25    1    1    2    0    0  0.61298349501E+02 -0.15198814164E+02 -0.18805321638E+03  0.23184586215E+03  0.12000000000E+03 0.  0.
         25    1    1    2    0    0 -0.61298349501E+02  0.15198814164E+02  0.29673472324E+02  0.13881284726E+03  0.12000000000E+03 0.  0.
<mgrwt>
<rscale>  0 0.33511750E+03</rscale>
<asrwt>0</asrwt>
<pdfrwt beam="1">  1        1 0.16329151E-01 0.33511750E+03</pdfrwt>
<pdfrwt beam="2">  1       -1 0.40695265E-01 0.33511750E+03</pdfrwt>
<totfact> 0.19991437E+03</totfact>
</mgrwt>
</event>
<event>
 4    1  0.1749575E-004  0.2679870E+03  0.7818608E-02  0.1102437E+00
          1   -1    0    0  501    0  0.00000000000E+00  0.00000000000E+00  0.33416262147E+04  0.33416262147E+04  0.00000000000E+00 0. -1.
         -1   -1    0    0    0  501 -0.00000000000E+00 -0.00000000000E+00 -0.53729108096E+01  0.53729108096E+01  0.00000000000E+00 0. -1.
         25    1    1    2    0    0 -0.55557595479E+02 -0.14708854884E+02  0.18660996391E+04  0.18708369410E+04  0.12000000000E+03 0.  0.
         25    1    1    2    0    0  0.55557595479E+02  0.14708854884E+02  0.14701536648E+04  0.14761621845E+04  0.12000000000E+03 0.  0.
<mgrwt>
<rscale>  0 0.26798701E+03</rscale>
<asrwt>0</asrwt>
<pdfrwt beam="1">  1        1 0.51409468E+00 0.26798701E+03</pdfrwt>
<pdfrwt beam="2">  1       -1 0.82660433E-03 0.26798701E+03</pdfrwt>
<totfact> 0.10210947E+03</totfact>
</mgrwt>
</event>
<event>
 4    1  0.1749575E-004  0.3613665E+03  0.7818608E-02  0.1058044E+00
          1   -1    0    0  501    0  0.00000000000E+00  0.00000000000E+00  0.12072406661E+03  0.12072406661E+03  0.00000000000E+00 0.  1.
         -1   -1    0    0    0  501 -0.00000000000E+00 -0.00000000000E+00 -0.27042199421E+03  0.27042199421E+03  0.00000000000E+00 0.  1.
         25    1    1    2    0    0  0.68606303499E+02 -0.10641139314E+03 -0.12580536831E+03  0.21507487107E+03  0.12000000000E+03 0.  0.
         25    1    1    2    0    0 -0.68606303499E+02  0.10641139314E+03 -0.23892559293E+02  0.17607118975E+03  0.12000000000E+03 0.  0.
<mgrwt>
<rscale>  0 0.36136653E+03</rscale>
<asrwt>0</asrwt>
<pdfrwt beam="1">  1        1 0.18572933E-01 0.36136653E+03</pdfrwt>
<pdfrwt beam="2">  1       -1 0.41603384E-01 0.36136653E+03</pdfrwt>
<totfact> 0.16246656E+03</totfact>
</mgrwt>
</event>
<event>
 4    1  0.1749575E-004  0.2630947E+03  0.7818608E-02  0.1105298E+00
          2   -1    0    0  501    0  0.00000000000E+00  0.00000000000E+00  0.80419617651E+03  0.80419617651E+03  0.00000000000E+00 0. -1.
         -2   -1    0    0    0  501 -0.00000000000E+00 -0.00000000000E+00 -0.21518008866E+02  0.21518008866E+02  0.00000000000E+00 0. -1.
         25    1    1    2    0    0  0.49076831544E+02 -0.22273991835E+02  0.39192075897E+03  0.41340845107E+03  0.12000000000E+03 0.  0.
         25    1    1    2    0    0 -0.49076831544E+02  0.22273991835E+02  0.39075740868E+03  0.41230573431E+03  0.12000000000E+03 0.  0.
<mgrwt>
<rscale>  0 0.26309466E+03</rscale>
<asrwt>0</asrwt>
<pdfrwt beam="1">  1        2 0.12372247E+00 0.26309466E+03</pdfrwt>
<pdfrwt beam="2">  1       -2 0.33104635E-02 0.26309466E+03</pdfrwt>
<totfact> 0.12804116E+04</totfact>
</mgrwt>
</event>
<event>
 4    1  0.1749575E-004  0.2708646E+03  0.7818608E-02  0.1100786E+00
          3   -1    0    0  501    0  0.00000000000E+00  0.00000000000E+00  0.77352687060E+02  0.77352687060E+02  0.00000000000E+00 0. -1.
         -3   -1    0    0    0  501 -0.00000000000E+00 -0.00000000000E+00 -0.23712047320E+03  0.23712047320E+03  0.00000000000E+00 0. -1.
         25    1    1    2    0    0  0.95928194502E+01 -0.34972637845E+02 -0.13938769476E+03  0.18746742926E+03  0.12000000000E+03 0.  0.
         25    1    1    2    0    0 -0.95928194502E+01  0.34972637845E+02 -0.20380091384E+02  0.12700573100E+03  0.12000000000E+03 0.  0.
<mgrwt>
<rscale>  0 0.27086458E+03</rscale>
<asrwt>0</asrwt>
<pdfrwt beam="1">  1        3 0.11900413E-01 0.27086458E+03</pdfrwt>
<pdfrwt beam="2">  1       -3 0.36480073E-01 0.27086458E+03</pdfrwt>
<totfact> 0.10378007E+03</totfact>
</mgrwt>
</event>
<event>
 4    1  0.1749575E-004  0.3280402E+03  0.7818608E-02  0.1072007E+00
          4   -1    0    0  501    0  0.00000000000E+00  0.00000000000E+00  0.65612480577E+03  0.65612480577E+03  0.00000000000E+00 0. -1.
         -4   -1    0    0    0  501 -0.00000000000E+00 -0.00000000000E+00 -0.41002242282E+02  0.41002242282E+02  0.00000000000E+00 0. -1.
         25    1    1    2    0    0  0.25244409191E+02 -0.47533622751E+02  0.99278631912E+02  0.16478158951E+03  0.12000000000E+03 0.  0.
         25    1    1    2    0    0 -0.25244409191E+02  0.47533622751E+02  0.51584393157E+03  0.53234545854E+03  0.12000000000E+03 0.  0.
<mgrwt>
<rscale>  0 0.32804017E+03</rscale>
<asrwt>0</asrwt>
<pdfrwt beam="1">  1        4 0.10094227E+00 0.32804017E+03</pdfrwt>
<pdfrwt beam="2">  1       -4 0.63080377E-02 0.32804017E+03</pdfrwt>
<totfact> 0.26055965E+02</totfact>
</mgrwt>
</event>
<event>
 4    1  0.1749575E-004  0.3698073E+03  0.7818608E-02  0.1054767E+00
          4   -1    0    0  501    0  0.00000000000E+00  0.00000000000E+00  0.70957428577E+03  0.70957428577E+03  0.00000000000E+00 0.  1.
         -4   -1    0    0    0  501 -0.00000000000E+00 -0.00000000000E+00 -0.48182927975E+02  0.48182927975E+02  0.00000000000E+00 0.  1.
         25    1    1    2    0    0 -0.83192103765E+02  0.93557081858E+02  0.19924387657E+03  0.26414385483E+03  0.12000000000E+03 0.  0.
         25    1    1    2    0    0  0.83192103765E+02 -0.93557081858E+02  0.46214748122E+03  0.49361335891E+03  0.12000000000E+03 0.  0.
<mgrwt>
<rscale>  0 0.36980734E+03</rscale>
<asrwt>0</asrwt>
<pdfrwt beam="1">  1        4 0.10916527E+00 0.36980734E+03</pdfrwt>
<pdfrwt beam="2">  1       -4 0.74127586E-02 0.36980734E+03</pdfrwt>
<totfact> 0.16735721E+02</totfact>
</mgrwt>
</event>
<event>
 4    1  0.1749575E-004  0.2472585E+03  0.7818608E-02  0.1115050E+00
          1   -1    0    0  501    0  0.00000000000E+00  0.00000000000E+00  0.38424763653E+02  0.38424763653E+02  0.00000000000E+00 0. -1.
         -1   -1    0    0    0  501 -0.00000000000E+00 -0.00000000000E+00 -0.39776922151E+03  0.39776922151E+03  0.00000000000E+00 0. -1.
         25    1    1    2    0    0 -0.10405857714E+01 -0.72368368728E+01 -0.23051853421E+03  0.25998509427E+03  0.12000000000E+03 0.  0.
         25    1    1    2    0    0  0.10405857714E+01  0.72368368728E+01 -0.12882592364E+03  0.17620889089E+03  0.12000000000E+03 0.  0.
<mgrwt>
<rscale>  0 0.24725847E+03</rscale>
<asrwt>0</asrwt>
<pdfrwt beam="1">  1        1 0.59115020E-02 0.24725847E+03</pdfrwt>
<pdfrwt beam="2">  1       -1 0.61195265E-01 0.24725847E+03</pdfrwt>
<totfact> 0.36593287E+03</totfact>
</mgrwt>
</event>
<event>
 4    1  0.1749575E-004  0.2821099E+03  0.7818608E-02  0.1094542E+00
         -1   -1    0    0    0  501 -0.00000000000E+00  0.00000000000E+00  0.14496144003E+03  0.14496144003E+03  0.00000000000E+00 0. -1.
          1   -1    0    0  501    0  0.00000000000E+00 -0.00000000000E+00 -0.13725374556E+03  0.13725374556E+03  0.00000000000E+00 0. -1.
         25    1    1    2    0    0 -0.71578231705E+02  0.89369881670E+01  0.20982958398E+02  0.14157541296E+03  0.12000000000E+03 0.  0.
         25    1    1    2    0    0  0.71578231705E+02 -0.89369881670E+01 -0.13275263932E+02  0.14063977262E+03  0.12000000000E+03 0.  0.
<mgrwt>
<rscale>  0 0.28210991E+03</rscale>
<asrwt>0</asrwt>
<pdfrwt beam="1">  1        1 0.21115961E-01 0.28210991E+03</pdfrwt>
<pdfrwt beam="2">  1       -1 0.22301760E-01 0.28210991E+03</pdfrwt>
<totfact> 0.39898541E+03</totfact>
</mgrwt>
</event>
<event>
 4    1  0.1749575E-004  0.2778108E+03  0.7818608E-02  0.1096891E+00
          1   -1    0    0  501    0  0.00000000000E+00  0.00000000000E+00  0.23099015122E+04  0.23099015122E+04  0.00000000000E+00 0. -1.
         -1   -1    0    0    0  501 -0.00000000000E+00 -0.00000000000E+00 -0.83530431913E+01  0.83530431913E+01  0.00000000000E+00 0. -1.
         25    1    1    2    0    0 -0.64236477390E+02  0.24030872757E+02  0.10354782678E+04  0.10446621707E+04  0.12000000000E+03 0.  0.
         25    1    1    2    0    0  0.64236477390E+02 -0.24030872757E+02  0.12660702012E+04  0.12735923847E+04  0.12000000000E+03 0.  0.
<mgrwt>
<rscale>  0 0.27781078E+03</rscale>
<asrwt>0</asrwt>
<pdfrwt beam="1">  1        1 0.35536895E+00 0.27781078E+03</pdfrwt>
<pdfrwt beam="2">  1       -1 0.12850854E-02 0.27781078E+03</pdfrwt>
<totfact> 0.27679889E+03</totfact>
</mgrwt>
</event>
<event>
 4    1  0.1749575E-004  0.2459802E+03  0.7818608E-02  0.1115872E+00
         -2   -1    0    0    0  501 -0.00000000000E+00  0.00000000000E+00  0.40073001327E+02  0.40073001327E+02  0.00000000000E+00 0.  1.
          2   -1    0    0  501    0  0.00000000000E+00 -0.00000000000E+00 -0.37747529944E+03  0.37747529944E+03  0.00000000000E+00 0.  1.
         25    1    1    2    0    0 -0.24702230534E+02  0.94949964983E+01 -0.16001024253E+03  0.20175141354E+03  0.12000000000E+03 0.  0.
         25    1    1    2    0    0  0.24702230534E+02 -0.94949964983E+01 -0.17739205558E+03  0.21579688723E+03  0.12000000000E+03 0.  0.
<mgrwt>
<rscale>  0 0.24598023E+03</rscale>
<asrwt>0</asrwt>
<pdfrwt beam="1">  1        2 0.58073123E-01 0.24598023E+03</pdfrwt>
<pdfrwt beam="2">  1       -2 0.61650771E-02 0.24598023E+03</pdfrwt>
<totfact> 0.11903927E+04</totfact>
</mgrwt>
</event>
<event>
 4    1  0.1749575E-004  0.2502978E+03  0.7818608E-02  0.1113117E+00
          2   -1    0    0  501    0  0.00000000000E+00  0.00000000000E+00  0.13584451329E+04  0.13584451329E+04  0.00000000000E+00 0.  1.
         -2   -1    0    0    0  501 -0.00000000000E+00 -0.00000000000E+00 -0.11529537797E+02  0.11529537797E+02  0.00000000000E+00 0.  1.
         25    1    1    2    0    0  0.26431117651E+02  0.66861719501E+01  0.54877334960E+03  0.56240154526E+03  0.12000000000E+03 0.  0.
         25    1    1    2    0    0 -0.26431117651E+02 -0.66861719501E+01  0.79814224545E+03  0.80757312539E+03  0.12000000000E+03 0.  0.
<mgrwt>
<rscale>  0 0.25029778E+03</rscale>
<asrwt>0</asrwt>
<pdfrwt beam="1">  1        2 0.20899143E+00 0.25029778E+03</pdfrwt>
<pdfrwt beam="2">  1       -2 0.17737761E-02 0.25029778E+03</pdfrwt>
<totfact> 0.14963183E+04</totfact>
</mgrwt>
</event>
<event>
 4    1  0.1749575E-004  0.4995297E+03  0.7818608E-02  0.1013902E+00
         -1   -1    0    0    0  501 -0.00000000000E+00  0.00000000000E+00  0.91711138086E+02  0.91711138086E+02  0.00000000000E+00 0. -1.
          1   -1    0    0  501    0  0.00000000000E+00 -0.00000000000E+00 -0.68020613727E+03  0.68020613727E+03  0.00000000000E+00 0. -1.
         25    1    1    2    0    0  0.94524515609E+01 -0.10214949333E+03  0.48310637935E+01  0.15794684868E+03  0.12000000000E+03 0.  0.
         25    1    1    2    0    0 -0.94524515609E+01  0.10214949333E+03 -0.59332606297E+03  0.61397042668E+03  0.12000000000E+03 0.  0.
<mgrwt>
<rscale>  0 0.49952969E+03</rscale>
<asrwt>0</asrwt>
<pdfrwt beam="1">  1        1 0.10464709E+00 0.49952969E+03</pdfrwt>
<pdfrwt beam="2">  1       -1 0.14109407E-01 0.49952969E+03</pdfrwt>
<totfact> 0.10409151E+03</totfact>
</mgrwt>
</event>
<event>
 4    1  0.1749575E-004  0.4508149E+03  0.7818608E-02  0.1027479E+00
          2   -1    0    0  501    0  0.00000000000E+00  0.00000000000E+00  0.27832492530E+04  0.27832492530E+04  0.00000000000E+00 0. -1.
         -2   -1    0    0    0  501 -0.00000000000E+00 -0.00000000000E+00 -0.18255105967E+02  0.18255105967E+02  0.00000000000E+00 0. -1.
         25    1    1    2    0    0  0.91646378907E+02  0.12705021246E+03  0.20594777329E+04  0.20689101836E+04  0.12000000000E+03 0.  0.
         25    1    1    2    0    0 -0.91646378907E+02 -0.12705021246E+03  0.70551641410E+03  0.73259417539E+03  0.12000000000E+03 0.  0.
<mgrwt>
<rscale>  0 0.45081486E+03</rscale>
<asrwt>0</asrwt>
<pdfrwt beam="1">  1        2 0.42819186E+00 0.45081486E+03</pdfrwt>
<pdfrwt beam="2">  1       -2 0.28084801E-02 0.45081486E+03</pdfrwt>
<totfact> 0.12732511E+03</totfact>
</mgrwt>
</event>
<event>
 4    1  0.1749575E-004  0.2695634E+03  0.7818608E-02  0.1101530E+00
         -2   -1    0    0    0  501 -0.00000000000E+00  0.00000000000E+00  0.34339723098E+02  0.34339723098E+02  0.00000000000E+00 0. -1.
          2   -1    0    0  501    0  0.00000000000E+00 -0.00000000000E+00 -0.52901142111E+03  0.52901142111E+03  0.00000000000E+00 0. -1.
         25    1    1    2    0    0 -0.10290594160E+01  0.54621012288E+02 -0.18890956637E+03  0.23037217326E+03  0.12000000000E+03 0.  0.
         25    1    1    2    0    0  0.10290594160E+01 -0.54621012288E+02 -0.30576213164E+03  0.33297897095E+03  0.12000000000E+03 0.  0.
<mgrwt>
<rscale>  0 0.26956339E+03</rscale>
<asrwt>0</asrwt>
<pdfrwt beam="1">  1        2 0.81386372E-01 0.26956339E+03</pdfrwt>
<pdfrwt beam="2">  1       -2 0.52830344E-02 0.26956339E+03</pdfrwt>
<totfact> 0.10438722E+04</totfact>
</mgrwt>
</event>
<event>
 4    1  0.1749575E-004  0.2526704E+03  0.7818608E-02  0.1111629E+00
          2   -1    0    0  501    0  0.00000000000E+00  0.00000000000E+00  0.36928032047E+03  0.36928032047E+03  0.00000000000E+00 0. -1.
         -2   -1    0    0    0  501 -0.00000000000E+00 -0.00000000000E+00 -0.43220789612E+02  0.43220789612E+02  0.00000000000E+00 0. -1.
         25    1    1    2    0    0 -0.11634442815E+02 -0.36325140413E+02  0.17981512658E+03  0.21951846353E+03  0.12000000000E+03 0.  0.
         25    1    1    2    0    0  0.11634442815E+02  0.36325140413E+02  0.14624440428E+03  0.19298264655E+03  0.12000000000E+03 0.  0.
<mgrwt>
<rscale>  0 0.25267043E+03</rscale>
<asrwt>0</asrwt>
<pdfrwt beam="1">  1        2 0.56812355E-01 0.25267043E+03</pdfrwt>
<pdfrwt beam="2">  1       -2 0.66493525E-02 0.25267043E+03</pdfrwt>
<totfact> 0.10865160E+04</totfact>
</mgrwt>
</event>
<event>
 4    1  0.1749575E-004  0.3860529E+03  0.7818608E-02  0.1048719E+00
         -2   -1    0    0    0  501 -0.00000000000E+00  0.00000000000E+00  0.29653348178E+03  0.29653348178E+03  0.00000000000E+00 0. -1.
          2   -1    0    0  501    0  0.00000000000E+00 -0.00000000000E+00 -0.12564925752E+03  0.12564925752E+03  0.00000000000E+00 0. -1.
         25    1    1    2    0    0  0.11126831383E+03 -0.84171703399E+02  0.14914956980E+03  0.23687783241E+03  0.12000000000E+03 0.  0.
         25    1    1    2    0    0 -0.11126831383E+03  0.84171703399E+02  0.21734654460E+02  0.18530490689E+03  0.12000000000E+03 0.  0.
<mgrwt>
<rscale>  0 0.38605291E+03</rscale>
<asrwt>0</asrwt>
<pdfrwt beam="1">  1        2 0.19330655E-01 0.38605291E+03</pdfrwt>
<pdfrwt beam="2">  1       -2 0.45620536E-01 0.38605291E+03</pdfrwt>
<totfact> 0.13408892E+03</totfact>
</mgrwt>
</event>
<event>
 4    1  0.1749575E-004  0.2606676E+03  0.7818608E-02  0.1106743E+00
          2   -1    0    0  501    0  0.00000000000E+00  0.00000000000E+00  0.14635526900E+04  0.14635526900E+04  0.00000000000E+00 0. -1.
         -2   -1    0    0    0  501 -0.00000000000E+00 -0.00000000000E+00 -0.11606621885E+02  0.11606621885E+02  0.00000000000E+00 0. -1.
         25    1    1    2    0    0 -0.32346955850E+02  0.18095384020E+02  0.92308194319E+03  0.93158684100E+03  0.12000000000E+03 0.  0.
         25    1    1    2    0    0  0.32346955850E+02 -0.18095384020E+02  0.52886412496E+03  0.54357247092E+03  0.12000000000E+03 0.  0.
<mgrwt>
<rscale>  0 0.26066763E+03</rscale>
<asrwt>0</asrwt>
<pdfrwt beam="1">  1        2 0.22516181E+00 0.26066763E+03</pdfrwt>
<pdfrwt beam="2">  1       -2 0.17856353E-02 0.26066763E+03</pdfrwt>
<totfact> 0.13016015E+04</totfact>
</mgrwt>
</event>
<event>
 4    1  0.1749575E-004  0.2699545E+03  0.7818608E-02  0.1101306E+00
          4   -1    0    0  501    0  0.00000000000E+00  0.00000000000E+00  0.83134821413E+02  0.83134821413E+02  0.00000000000E+00 0.  1.
         -4   -1    0    0    0  501 -0.00000000000E+00 -0.00000000000E+00 -0.21914835861E+03  0.21914835861E+03  0.00000000000E+00 0.  1.
         25    1    1    2    0    0  0.18591253652E+02 -0.22470320504E+02 -0.70000040954E+01  0.12369135003E+03  0.12000000000E+03 0.  0.
         25    1    1    2    0    0 -0.18591253652E+02  0.22470320504E+02 -0.12901353310E+03  0.17859182999E+03  0.12000000000E+03 0.  0.
<mgrwt>
<rscale>  0 0.26995451E+03</rscale>
<asrwt>0</asrwt>
<pdfrwt beam="1">  1        4 0.12789973E-01 0.26995451E+03</pdfrwt>
<pdfrwt beam="2">  1       -4 0.33715131E-01 0.26995451E+03</pdfrwt>
<totfact> 0.79135548E+02</totfact>
</mgrwt>
</event>
<event>
 4    1  0.1749575E-004  0.2615065E+03  0.7818608E-02  0.1106241E+00
          2   -1    0    0  501    0  0.00000000000E+00  0.00000000000E+00  0.16544884719E+03  0.16544884719E+03  0.00000000000E+00 0.  1.
         -2   -1    0    0    0  501 -0.00000000000E+00 -0.00000000000E+00 -0.10333356003E+03  0.10333356003E+03  0.00000000000E+00 0.  1.
         25    1    1    2    0    0 -0.68421564868E+01  0.46223357054E+02  0.54337423959E+02  0.13977113252E+03  0.12000000000E+03 0.  0.
         25    1    1    2    0    0  0.68421564868E+01 -0.46223357054E+02  0.77778632011E+01  0.12901127470E+03  0.12000000000E+03 0.  0.
<mgrwt>
<rscale>  0 0.26150655E+03</rscale>
<asrwt>0</asrwt>
<pdfrwt beam="1">  1        2 0.25453669E-01 0.26150655E+03</pdfrwt>
<pdfrwt beam="2">  1       -2 0.15897471E-01 0.26150655E+03</pdfrwt>
<totfact> 0.64777116E+03</totfact>
</mgrwt>
</event>
<event>
 4    1  0.1749575E-004  0.2789111E+03  0.7818608E-02  0.1096285E+00
          2   -1    0    0  501    0  0.00000000000E+00  0.00000000000E+00  0.16120385946E+04  0.16120385946E+04  0.00000000000E+00 0.  1.
         -2   -1    0    0    0  501 -0.00000000000E+00 -0.00000000000E+00 -0.12064132889E+02  0.12064132889E+02  0.00000000000E+00 0.  1.
         25    1    1    2    0    0  0.98257077875E+00 -0.15353031353E+01  0.12135656562E+04  0.12194855163E+04  0.12000000000E+03 0.  0.
         25    1    1    2    0    0 -0.98257077875E+00  0.15353031353E+01  0.38640880556E+03  0.40461721122E+03  0.12000000000E+03 0.  0.
<mgrwt>
<rscale>  0 0.27891108E+03</rscale>
<asrwt>0</asrwt>
<pdfrwt beam="1">  1        2 0.24800577E+00 0.27891108E+03</pdfrwt>
<pdfrwt beam="2">  1       -2 0.18560217E-02 0.27891108E+03</pdfrwt>
<totfact> 0.10265170E+04</totfact>
</mgrwt>
</event>
<event>
 4    1  0.1749575E-004  0.3110370E+03  0.7818608E-02  0.1079850E+00
         -2   -1    0    0    0  501 -0.00000000000E+00  0.00000000000E+00  0.11765861153E+03  0.11765861153E+03  0.00000000000E+00 0.  1.
          2   -1    0    0  501    0  0.00000000000E+00 -0.00000000000E+00 -0.20556083506E+03  0.20556083506E+03  0.00000000000E+00 0.  1.
         25    1    1    2    0    0  0.40458943506E+02 -0.39424663562E+02  0.40437791134E+02  0.13865945751E+03  0.12000000000E+03 0.  0.
         25    1    1    2    0    0 -0.40458943506E+02  0.39424663562E+02 -0.12834001466E+03  0.18455998908E+03  0.12000000000E+03 0.  0.
<mgrwt>
<rscale>  0 0.31103699E+03</rscale>
<asrwt>0</asrwt>
<pdfrwt beam="1">  1        2 0.31624744E-01 0.31103699E+03</pdfrwt>
<pdfrwt beam="2">  1       -2 0.18101325E-01 0.31103699E+03</pdfrwt>
<totfact> 0.41225769E+03</totfact>
</mgrwt>
</event>
<event>
 4    1  0.1749575E-004  0.2689038E+03  0.7818608E-02  0.1101909E+00
          1   -1    0    0  501    0  0.00000000000E+00  0.00000000000E+00  0.15892593748E+04  0.15892593748E+04  0.00000000000E+00 0.  1.
         -1   -1    0    0    0  501 -0.00000000000E+00 -0.00000000000E+00 -0.11374676259E+02  0.11374676259E+02  0.00000000000E+00 0.  1.
         25    1    1    2    0    0  0.56875615592E+02  0.18766768210E+02  0.84550108263E+03  0.85607190584E+03  0.12000000000E+03 0.  0.
         25    1    1    2    0    0 -0.56875615592E+02 -0.18766768210E+02  0.73238361587E+03  0.74456214518E+03  0.12000000000E+03 0.  0.
<mgrwt>
<rscale>  0 0.26890378E+03</rscale>
<asrwt>0</asrwt>
<pdfrwt beam="1">  1        1 0.24450127E+00 0.26890378E+03</pdfrwt>
<pdfrwt beam="2">  1       -1 0.17499515E-02 0.26890378E+03</pdfrwt>
<totfact> 0.52069487E+03</totfact>
</mgrwt>
</event>
<event>
 4    1  0.1749575E-004  0.3436343E+03  0.7818608E-02  0.1065259E+00
         -2   -1    0    0    0  501 -0.00000000000E+00  0.00000000000E+00  0.22318558620E+04  0.22318558620E+04  0.00000000000E+00 0.  1.
          2   -1    0    0  501    0  0.00000000000E+00 -0.00000000000E+00 -0.13227170847E+02  0.13227170847E+02  0.00000000000E+00 0.  1.
         25    1    1    2    0    0 -0.40387412402E+02  0.11604401388E+03  0.11411757642E+04  0.11540275045E+04  0.12000000000E+03 0.  0.
         25    1    1    2    0    0  0.40387412402E+02 -0.11604401388E+03  0.10774529269E+04  0.10910555283E+04  0.12000000000E+03 0.  0.
<mgrwt>
<rscale>  0 0.34363433E+03</rscale>
<asrwt>0</asrwt>
<pdfrwt beam="1">  1        2 0.20349511E-02 0.34363433E+03</pdfrwt>
<pdfrwt beam="2">  1       -2 0.34336214E+00 0.34363433E+03</pdfrwt>
<totfact> 0.10747967E+02</totfact>
</mgrwt>
</event>
<event>
 4    1  0.1749575E-004  0.2471204E+03  0.7818608E-02  0.1115138E+00
          1   -1    0    0  501    0  0.00000000000E+00  0.00000000000E+00  0.10983004501E+04  0.10983004501E+04  0.00000000000E+00 0. -1.
         -1   -1    0    0    0  501 -0.00000000000E+00 -0.00000000000E+00 -0.13900682280E+02  0.13900682280E+02  0.00000000000E+00 0. -1.
         25    1    1    2    0    0 -0.20462436683E+02  0.20526175437E+02  0.51877472706E+03  0.53326096110E+03  0.12000000000E+03 0.  0.
         25    1    1    2    0    0  0.20462436683E+02 -0.20526175437E+02  0.56562504079E+03  0.57894017131E+03  0.12000000000E+03 0.  0.
<mgrwt>
<rscale>  0 0.24712042E+03</rscale>
<asrwt>0</asrwt>
<pdfrwt beam="1">  1        1 0.16896923E+00 0.24712042E+03</pdfrwt>
<pdfrwt beam="2">  1       -1 0.21385674E-02 0.24712042E+03</pdfrwt>
<totfact> 0.83720934E+03</totfact>
</mgrwt>
</event>
<event>
 4    1  0.1749575E-004  0.2464960E+03  0.7818608E-02  0.1115539E+00
         -2   -1    0    0    0  501 -0.00000000000E+00  0.00000000000E+00  0.19325849869E+02  0.19325849869E+02  0.00000000000E+00 0.  1.
          2   -1    0    0  501    0  0.00000000000E+00 -0.00000000000E+00 -0.78599779827E+03  0.78599779827E+03  0.00000000000E+00 0.  1.
         25    1    1    2    0    0 -0.86462157625E+01  0.46651633529E+01 -0.46937606009E+03  0.48457239560E+03  0.12000000000E+03 0.  0.
         25    1    1    2    0    0  0.86462157625E+01 -0.46651633529E+01 -0.29729588832E+03  0.32075125254E+03  0.12000000000E+03 0.  0.
<mgrwt>
<rscale>  0 0.24649605E+03</rscale>
<asrwt>0</asrwt>
<pdfrwt beam="1">  1        2 0.12092274E+00 0.24649605E+03</pdfrwt>
<pdfrwt beam="2">  1       -2 0.29732077E-02 0.24649605E+03</pdfrwt>
<totfact> 0.15424143E+04</totfact>
</mgrwt>
</event>
<event>
 4    1  0.1749575E-004  0.2906936E+03  0.7818608E-02  0.1089988E+00
         -2   -1    0    0    0  501 -0.00000000000E+00  0.00000000000E+00  0.14907509580E+02  0.14907509580E+02  0.00000000000E+00 0.  1.
          2   -1    0    0  501    0  0.00000000000E+00 -0.00000000000E+00 -0.14171170781E+04  0.14171170781E+04  0.00000000000E+00 0.  1.
         25    1    1    2    0    0  0.42790141399E+01  0.59198960608E+02 -0.42231040752E+03  0.44302246805E+03  0.12000000000E+03 0.  0.
         25    1    1    2    0    0 -0.42790141399E+01 -0.59198960608E+02 -0.97989916101E+03  0.98900211963E+03  0.12000000000E+03 0.  0.
<mgrwt>
<rscale>  0 0.29069356E+03</rscale>
<asrwt>0</asrwt>
<pdfrwt beam="1">  1        2 0.21801803E+00 0.29069356E+03</pdfrwt>
<pdfrwt beam="2">  1       -2 0.22934628E-02 0.29069356E+03</pdfrwt>
<totfact> 0.95630539E+03</totfact>
</mgrwt>
</event>
<event>
 4    1  0.1749575E-004  0.2550428E+03  0.7818608E-02  0.1110159E+00
         -1   -1    0    0    0  501 -0.00000000000E+00  0.00000000000E+00  0.91360837358E+02  0.91360837358E+02  0.00000000000E+00 0. -1.
          1   -1    0    0  501    0  0.00000000000E+00 -0.00000000000E+00 -0.17799433370E+03  0.17799433370E+03  0.00000000000E+00 0. -1.
         25    1    1    2    0    0 -0.35738523502E+02  0.10758813263E+02 -0.20451934611E+02  0.12732350825E+03  0.12000000000E+03 0.  0.
         25    1    1    2    0    0  0.35738523502E+02 -0.10758813263E+02 -0.66181561728E+02  0.14203166280E+03  0.12000000000E+03 0.  0.
<mgrwt>
<rscale>  0 0.25504283E+03</rscale>
<asrwt>0</asrwt>
<pdfrwt beam="1">  1        1 0.27383744E-01 0.25504283E+03</pdfrwt>
<pdfrwt beam="2">  1       -1 0.14055513E-01 0.25504283E+03</pdfrwt>
<totfact> 0.59983702E+03</totfact>
</mgrwt>
</event>
<event>
 4    1  0.1749575E-004  0.2599358E+03  0.7818608E-02  0.1107182E+00
          2   -1    0    0  501    0  0.00000000000E+00  0.00000000000E+00  0.44868843882E+03  0.44868843882E+03  0.00000000000E+00 0.  1.
         -2   -1    0    0    0  501 -0.00000000000E+00 -0.00000000000E+00 -0.37646741413E+02  0.37646741413E+02  0.00000000000E+00 0.  1.
         25    1    1    2    0    0  0.20427591783E+01  0.20775949540E+02  0.12068787193E+03  0.17146829263E+03  0.12000000000E+03 0.  0.
         25    1    1    2    0    0 -0.20427591783E+01 -0.20775949540E+02  0.29035382547E+03  0.31486688761E+03  0.12000000000E+03 0.  0.
<mgrwt>
<rscale>  0 0.25993582E+03</rscale>
<asrwt>0</asrwt>
<pdfrwt beam="1">  1        2 0.69028987E-01 0.25993582E+03</pdfrwt>
<pdfrwt beam="2">  1       -2 0.57918067E-02 0.25993582E+03</pdfrwt>
<totfact> 0.10880931E+04</totfact>
</mgrwt>
</event>
<event>
 4    1  0.1749575E-004  0.3056373E+03  0.7818608E-02  0.1082456E+00
         -3   -1    0    0    0  501 -0.00000000000E+00  0.00000000000E+00  0.31936784970E+02  0.31936784970E+02  0.00000000000E+00 0. -1.
          3   -1    0    0  501    0  0.00000000000E+00 -0.00000000000E+00 -0.73124272590E+03  0.73124272590E+03  0.00000000000E+00 0. -1.
         25    1    1    2    0    0  0.67884859102E+02 -0.27427778924E+02 -0.19998007175E+03  0.24444358500E+03  0.12000000000E+03 0.  0.
         25    1    1    2    0    0 -0.67884859102E+02  0.27427778924E+02 -0.49932586918E+03  0.51873592587E+03  0.12000000000E+03 0.  0.
<mgrwt>
<rscale>  0 0.30563731E+03</rscale>
<asrwt>0</asrwt>
<pdfrwt beam="1">  1        3 0.11249888E+00 0.30563731E+03</pdfrwt>
<pdfrwt beam="2">  1       -3 0.49133516E-02 0.30563731E+03</pdfrwt>
<totfact> 0.41378370E+02</totfact>
</mgrwt>
</event>
<event>
 4    1  0.1749575E-004  0.2508189E+03  0.7818608E-02  0.1112788E+00
          1   -1    0    0  501    0  0.00000000000E+00  0.00000000000E+00  0.26827360787E+02  0.26827360787E+02  0.00000000000E+00 0. -1.
         -1   -1    0    0    0  501 -0.00000000000E+00 -0.00000000000E+00 -0.58624979738E+03  0.58624979738E+03  0.00000000000E+00 0. -1.
         25    1    1    2    0    0  0.25821047702E+02  0.42875301658E+01 -0.21775767268E+03  0.25000702676E+03  0.12000000000E+03 0.  0.
         25    1    1    2    0    0 -0.25821047702E+02 -0.42875301658E+01 -0.34166476392E+03  0.36307013141E+03  0.12000000000E+03 0.  0.
<mgrwt>
<rscale>  0 0.25081894E+03</rscale>
<asrwt>0</asrwt>
<pdfrwt beam="1">  1        1 0.41272862E-02 0.25081894E+03</pdfrwt>
<pdfrwt beam="2">  1       -1 0.90192277E-01 0.25081894E+03</pdfrwt>
<totfact> 0.27377148E+03</totfact>
</mgrwt>
</event>
<event>
 4    1  0.1749575E-004  0.2456659E+03  0.7818608E-02  0.1116075E+00
         -3   -1    0    0    0  501 -0.00000000000E+00  0.00000000000E+00  0.66906622691E+03  0.66906622691E+03  0.00000000000E+00 0.  1.
          3   -1    0    0  501    0  0.00000000000E+00 -0.00000000000E+00 -0.22550726761E+02  0.22550726761E+02  0.00000000000E+00 0.  1.
         25    1    1    2    0    0 -0.12368366969E+02  0.22672825689E+02  0.31038848146E+03  0.33377843392E+03  0.12000000000E+03 0.  0.
         25    1    1    2    0    0  0.12368366969E+02 -0.22672825689E+02  0.33612701869E+03  0.35783851975E+03  0.12000000000E+03 0.  0.
<mgrwt>
<rscale>  0 0.24566587E+03</rscale>
<asrwt>0</asrwt>
<pdfrwt beam="1">  1        3 0.34693431E-02 0.24566587E+03</pdfrwt>
<pdfrwt beam="2">  1       -3 0.10293325E+00 0.24566587E+03</pdfrwt>
<totfact> 0.86276582E+02</totfact>
</mgrwt>
</event>
<event>
 4    1  0.1749575E-004  0.2710084E+03  0.7818608E-02  0.1100704E+00
          1   -1    0    0  501    0  0.00000000000E+00  0.00000000000E+00  0.88643064730E+02  0.88643064730E+02  0.00000000000E+00 0.  1.
         -1   -1    0    0    0  501 -0.00000000000E+00 -0.00000000000E+00 -0.20713850636E+03  0.20713850636E+03  0.00000000000E+00 0.  1.
         25    1    1    2    0    0 -0.48150291487E+02  0.38013976044E+02 -0.74600544350E+02  0.15404140405E+03  0.12000000000E+03 0.  0.
         25    1    1    2    0    0  0.48150291487E+02 -0.38013976044E+02 -0.43894897281E+02  0.14174016704E+03  0.12000000000E+03 0.  0.
<mgrwt>
<rscale>  0 0.27100843E+03</rscale>
<asrwt>0</asrwt>
<pdfrwt beam="1">  1        1 0.13637395E-01 0.27100843E+03</pdfrwt>
<pdfrwt beam="2">  1       -1 0.31867462E-01 0.27100843E+03</pdfrwt>
<totfact> 0.38702545E+03</totfact>
</mgrwt>
</event>
<event>
 4    1  0.1749575E-004  0.3150563E+03  0.7818608E-02  0.1077947E+00
          1   -1    0    0  501    0  0.00000000000E+00  0.00000000000E+00  0.21079276850E+03  0.21079276850E+03  0.00000000000E+00 0. -1.
         -1   -1    0    0    0  501 -0.00000000000E+00 -0.00000000000E+00 -0.11772281756E+03  0.11772281756E+03  0.00000000000E+00 0. -1.
         25    1    1    2    0    0 -0.42066817155E+02 -0.42700699687E+02 -0.39589877572E+02  0.13985823274E+03  0.12000000000E+03 0.  0.
         25    1    1    2    0    0  0.42066817155E+02  0.42700699687E+02  0.13265982851E+03  0.18865735332E+03  0.12000000000E+03 0.  0.
<mgrwt>
<rscale>  0 0.31505630E+03</rscale>
<asrwt>0</asrwt>
<pdfrwt beam="1">  1        1 0.32429657E-01 0.31505630E+03</pdfrwt>
<pdfrwt beam="2">  1       -1 0.18111203E-01 0.31505630E+03</pdfrwt>
<totfact> 0.32521291E+03</totfact>
</mgrwt>
</event>
<event>
 4    1  0.1749575E-004  0.5529161E+03  0.7818608E-02  0.1000821E+00
          1   -1    0    0  501    0  0.00000000000E+00  0.00000000000E+00  0.94482137848E+02  0.94482137848E+02  0.00000000000E+00 0.  1.
         -1   -1    0    0    0  501 -0.00000000000E+00 -0.00000000000E+00 -0.80892597933E+03  0.80892597933E+03  0.00000000000E+00 0.  1.
         25    1    1    2    0    0  0.24147348993E+03  0.52750023181E+02 -0.30720639057E+03  0.41215018827E+03  0.12000000000E+03 0.  0.
         25    1    1    2    0    0 -0.24147348993E+03 -0.52750023181E+02 -0.40723745092E+03  0.49125792891E+03  0.12000000000E+03 0.  0.
<mgrwt>
<rscale>  0 0.55291611E+03</rscale>
<asrwt>0</asrwt>
<pdfrwt beam="1">  1        1 0.14535713E-01 0.55291611E+03</pdfrwt>
<pdfrwt beam="2">  1       -1 0.12445016E+00 0.55291611E+03</pdfrwt>
<totfact> 0.23249607E+02</totfact>
</mgrwt>
</event>
<event>
 4    1  0.1749575E-004  0.4187471E+03  0.7818608E-02  0.1037475E+00
         -1   -1    0    0    0  501 -0.00000000000E+00  0.00000000000E+00  0.21406367767E+02  0.21406367767E+02  0.00000000000E+00 0.  1.
          1   -1    0    0  501    0  0.00000000000E+00 -0.00000000000E+00 -0.20478622710E+04  0.20478622710E+04  0.00000000000E+00 0.  1.
         25    1    1    2    0    0  0.98448301148E+02 -0.13341436406E+03 -0.79524740934E+03  0.82116374895E+03  0.12000000000E+03 0.  0.
         25    1    1    2    0    0 -0.98448301148E+02  0.13341436406E+03 -0.12312084939E+04  0.12481048898E+04  0.12000000000E+03 0.  0.
<mgrwt>
<rscale>  0 0.41874715E+03</rscale>
<asrwt>0</asrwt>
<pdfrwt beam="1">  1        1 0.31505581E+00 0.41874715E+03</pdfrwt>
<pdfrwt beam="2">  1       -1 0.32932866E-02 0.41874715E+03</pdfrwt>
<totfact> 0.10191022E+03</totfact>
</mgrwt>
</event>
<event>
 4    1  0.1749575E-004  0.3020519E+03  0.7818608E-02  0.1084219E+00
         -3   -1    0    0    0  501 -0.00000000000E+00  0.00000000000E+00  0.14326541974E+03  0.14326541974E+03  0.00000000000E+00 0. -1.
          3   -1    0    0  501    0  0.00000000000E+00 -0.00000000000E+00 -0.15920689960E+03  0.15920689960E+03  0.00000000000E+00 0. -1.
         25    1    1    2    0    0 -0.69625218095E+02  0.32603104152E+02 -0.58022398427E+02  0.15387407876E+03  0.12000000000E+03 0.  0.
         25    1    1    2    0    0  0.69625218095E+02 -0.32603104152E+02  0.42080918566E+02  0.14859824058E+03  0.12000000000E+03 0.  0.
<mgrwt>
<rscale>  0 0.30205194E+03</rscale>
<asrwt>0</asrwt>
<pdfrwt beam="1">  1        3 0.24493369E-01 0.30205194E+03</pdfrwt>
<pdfrwt beam="2">  1       -3 0.22040834E-01 0.30205194E+03</pdfrwt>
<totfact> 0.75465512E+02</totfact>
</mgrwt>
</event>
<event>
 4    1  0.1749575E-004  0.5041662E+03  0.7818608E-02  0.1012697E+00
          1   -1    0    0  501    0  0.00000000000E+00  0.00000000000E+00  0.34122108081E+04  0.34122108081E+04  0.00000000000E+00 0.  1.
         -1   -1    0    0    0  501 -0.00000000000E+00 -0.00000000000E+00 -0.18623080984E+02  0.18623080984E+02  0.00000000000E+00 0.  1.
         25    1    1    2    0    0  0.19548957987E+03 -0.96308897337E+02  0.14200149740E+04  0.14416428496E+04  0.12000000000E+03 0.  0.
         25    1    1    2    0    0 -0.19548957987E+03  0.96308897337E+02  0.19735727531E+04  0.19891910394E+04  0.12000000000E+03 0.  0.
<mgrwt>
<rscale>  0 0.50416616E+03</rscale>
<asrwt>0</asrwt>
<pdfrwt beam="1">  1        1 0.52495501E+00 0.50416616E+03</pdfrwt>
<pdfrwt beam="2">  1       -1 0.28650921E-02 0.50416616E+03</pdfrwt>
<totfact> 0.14039271E+02</totfact>
</mgrwt>
</event>
<event>
 4    1  0.1749575E-004  0.2708045E+03  0.7818608E-02  0.1100820E+00
          2   -1    0    0  501    0  0.00000000000E+00  0.00000000000E+00  0.16858598629E+04  0.16858598629E+04  0.00000000000E+00 0. -1.
         -2   -1    0    0    0  501 -0.00000000000E+00 -0.00000000000E+00 -0.10875026147E+02  0.10875026147E+02  0.00000000000E+00 0. -1.
         25    1    1    2    0    0  0.26771708558E+02 -0.15935176411E+02  0.49643113593E+03  0.51167814781E+03  0.12000000000E+03 0.  0.
         25    1    1    2    0    0 -0.26771708558E+02  0.15935176411E+02  0.11785537009E+04  0.11850567413E+04  0.12000000000E+03 0.  0.
<mgrwt>
<rscale>  0 0.27080451E+03</rscale>
<asrwt>0</asrwt>
<pdfrwt beam="1">  1        2 0.25936285E+00 0.27080451E+03</pdfrwt>
<pdfrwt beam="2">  1       -2 0.16730823E-02 0.27080451E+03</pdfrwt>
<totfact> 0.10921267E+04</totfact>
</mgrwt>
</event>
<event>
 4    1  0.1749575E-004  0.2785528E+03  0.7818608E-02  0.1096482E+00
         -1   -1    0    0    0  501 -0.00000000000E+00  0.00000000000E+00  0.48402221874E+02  0.48402221874E+02  0.00000000000E+00 0.  1.
          1   -1    0    0  501    0  0.00000000000E+00 -0.00000000000E+00 -0.40076493092E+03  0.40076493092E+03  0.00000000000E+00 0.  1.
         25    1    1    2    0    0  0.29392634216E+02  0.60631678045E+02 -0.14168035822E+03  0.19751823013E+03  0.12000000000E+03 0.  0.
         25    1    1    2    0    0 -0.29392634216E+02 -0.60631678045E+02 -0.21068235082E+03  0.25164892266E+03  0.12000000000E+03 0.  0.
<mgrwt>
<rscale>  0 0.27855278E+03</rscale>
<asrwt>0</asrwt>
<pdfrwt beam="1">  1        1 0.61656145E-01 0.27855278E+03</pdfrwt>
<pdfrwt beam="2">  1       -1 0.74464954E-02 0.27855278E+03</pdfrwt>
<totfact> 0.57798062E+03</totfact>
</mgrwt>
</event>
<event>
 4    1  0.1749575E-004  0.2854082E+03  0.7818608E-02  0.1092771E+00
         -1   -1    0    0    0  501 -0.00000000000E+00  0.00000000000E+00  0.17719420592E+02  0.17719420592E+02  0.00000000000E+00 0.  1.
          1   -1    0    0  501    0  0.00000000000E+00 -0.00000000000E+00 -0.11492737310E+04  0.11492737310E+04  0.00000000000E+00 0.  1.
         25    1    1    2    0    0 -0.37110092349E+02 -0.52954031422E+02 -0.73844002098E+03  0.75091607586E+03  0.12000000000E+03 0.  0.
         25    1    1    2    0    0  0.37110092349E+02  0.52954031422E+02 -0.39311428942E+03  0.41607707572E+03  0.12000000000E+03 0.  0.
<mgrwt>
<rscale>  0 0.28540823E+03</rscale>
<asrwt>0</asrwt>
<pdfrwt beam="1">  1        1 0.17681141E+00 0.28540823E+03</pdfrwt>
<pdfrwt beam="2">  1       -1 0.27260636E-02 0.28540823E+03</pdfrwt>
<totfact> 0.54087169E+03</totfact>
</mgrwt>
</event>
<event>
 4    1  0.1749575E-004  0.2699581E+03  0.7818608E-02  0.1101304E+00
          2   -1    0    0  501    0  0.00000000000E+00  0.00000000000E+00  0.21003479077E+04  0.21003479077E+04  0.00000000000E+00 0.  1.
         -2   -1    0    0    0  501 -0.00000000000E+00 -0.00000000000E+00 -0.86744425625E+01  0.86744425625E+01  0.00000000000E+00 0.  1.
         25    1    1    2    0    0  0.55703456919E+02 -0.16860556832E+02  0.88342251505E+03  0.89343298215E+03  0.12000000000E+03 0.  0.
         25    1    1    2    0    0 -0.55703456919E+02  0.16860556832E+02  0.12082509501E+04  0.12155893681E+04  0.12000000000E+03 0.  0.
<mgrwt>
<rscale>  0 0.26995812E+03</rscale>
<asrwt>0</asrwt>
<pdfrwt beam="1">  1        2 0.32313004E+00 0.26995812E+03</pdfrwt>
<pdfrwt beam="2">  1       -2 0.13345313E-02 0.26995812E+03</pdfrwt>
<totfact> 0.92043213E+03</totfact>
</mgrwt>
</event>
<event>
 4    1  0.1749575E-004  0.2743025E+03  0.7818608E-02  0.1098842E+00
          2   -1    0    0  501    0  0.00000000000E+00  0.00000000000E+00  0.94596480095E+03  0.94596480095E+03  0.00000000000E+00 0.  1.
         -2   -1    0    0    0  501 -0.00000000000E+00 -0.00000000000E+00 -0.19884954006E+02  0.19884954006E+02  0.00000000000E+00 0.  1.
         25    1    1    2    0    0 -0.56725457667E+01  0.17794779132E+02  0.23863611642E+03  0.26776113982E+03  0.12000000000E+03 0.  0.
         25    1    1    2    0    0  0.56725457667E+01 -0.17794779132E+02  0.68744373053E+03  0.69808861514E+03  0.12000000000E+03 0.  0.
<mgrwt>
<rscale>  0 0.27430251E+03</rscale>
<asrwt>0</asrwt>
<pdfrwt beam="1">  1        2 0.14553301E+00 0.27430251E+03</pdfrwt>
<pdfrwt beam="2">  1       -2 0.30592244E-02 0.27430251E+03</pdfrwt>
<totfact> 0.11641831E+04</totfact>
</mgrwt>
</event>
